Title t= 473.00000 step= 236500
46055
    1GLY      N    1   2.540   3.159   0.771
    1GLY    HT1    2   2.471   3.094   0.814
    1GLY    HT2    3   2.632   3.137   0.814
    1GLY    HT3    4   2.537   3.156   0.667
    1GLY     CA    5   2.498   3.300   0.804
    1GLY    HA1    6   2.411   3.294   0.868
    1GLY    HA2    7   2.485   3.352   0.711
    1GLY      C    8   2.603   3.391   0.876
    1GLY      O    9   2.721   3.343   0.888
    2PRO      N   10   2.575   3.514   0.920
    2PRO     CD   11   2.446   3.576   0.895
    2PRO    HD1   12   2.371   3.523   0.958
    2PRO    HD2   13   2.404   3.569   0.793
    2PRO     CA   14   2.680   3.602   0.980
    2PRO     HA   15   2.745   3.624   0.897
    2PRO     CB   16   2.599   3.721   1.032
    2PRO    HB1   17   2.655   3.817   1.025
    2PRO    HB2   18   2.574   3.695   1.137
    2PRO     CG   19   2.470   3.723   0.940
    2PRO    HG1   20   2.388   3.764   1.004
    2PRO    HG2   21   2.482   3.791   0.853
    2PRO      C   22   2.763   3.548   1.101
    2PRO      O   23   2.718   3.460   1.175
    3GLY      N   24   2.886   3.599   1.121
    3GLY     HN   25   2.916   3.667   1.053
    3GLY     CA   26   2.979   3.568   1.231
    3GLY    HA1   27   3.071   3.623   1.221
    3GLY    HA2   28   2.996   3.462   1.237
    3GLY      C   29   2.925   3.609   1.368
    3GLY      O   30   2.862   3.712   1.383
    4ALA      N   31   2.940   3.520   1.470
    4ALA     HN   32   2.999   3.444   1.444
    4ALA     CA   33   2.902   3.541   1.608
    4ALA     HA   34   2.835   3.625   1.603
    4ALA     CB   35   2.792   3.443   1.649
    4ALA    HB1   36   2.845   3.347   1.632
    4ALA    HB2   37   2.713   3.448   1.571
    4ALA    HB3   38   2.761   3.444   1.756
    4ALA      C   39   3.012   3.539   1.711
    4ALA      O   40   3.089   3.446   1.727
    5PRO      N   41   3.030   3.655   1.781
    5PRO     CD   42   2.969   3.787   1.740
    5PRO    HD1   43   2.862   3.789   1.769
    5PRO    HD2   44   2.986   3.813   1.633
    5PRO     CA   45   3.103   3.669   1.904
    5PRO     HA   46   3.208   3.669   1.880
    5PRO     CB   47   3.063   3.800   1.962
    5PRO    HB1   48   3.144   3.839   2.028
    5PRO    HB2   49   2.968   3.802   2.019
    5PRO     CG   50   3.046   3.887   1.831
    5PRO    HG1   51   2.993   3.982   1.856
    5PRO    HG2   52   3.150   3.902   1.795
    5PRO      C   53   3.101   3.557   2.008
    5PRO      O   54   3.006   3.482   2.025
    6GLY      N   55   3.213   3.534   2.081
    6GLY     HN   56   3.290   3.592   2.056
    6GLY     CA   57   3.227   3.428   2.187
    6GLY    HA1   58   3.329   3.436   2.222
    6GLY    HA2   59   3.201   3.333   2.142
    6GLY      C   60   3.139   3.459   2.303
    6GLY      O   61   3.151   3.571   2.344
    7PRO      N   62   3.048   3.375   2.360
    7PRO     CD   63   3.009   3.254   2.289
    7PRO    HD1   64   3.070   3.168   2.324
    7PRO    HD2   65   3.004   3.267   2.179
    7PRO     CA   66   2.981   3.402   2.486
    7PRO     HA   67   2.923   3.491   2.464
    7PRO     CB   68   2.895   3.280   2.496
    7PRO    HB1   69   2.795   3.307   2.537
    7PRO    HB2   70   2.936   3.201   2.563
    7PRO     CG   71   2.872   3.239   2.351
    7PRO    HG1   72   2.839   3.133   2.340
    7PRO    HG2   73   2.802   3.301   2.292
    7PRO      C   74   3.047   3.441   2.621
    7PRO      O   75   3.142   3.371   2.661
    8GLY      N   76   3.009   3.554   2.685
    8GLY     HN   77   2.937   3.606   2.640
    8GLY     CA   78   3.087   3.616   2.794
    8GLY    HA1   79   3.047   3.716   2.800
    8GLY    HA2   80   3.187   3.611   2.753
    8GLY      C   81   3.087   3.554   2.940
    8GLY      O   82   3.049   3.440   2.961
    9ALA      N   83   3.125   3.641   3.040
    9ALA     HN   84   3.117   3.739   3.023
    9ALA     CA   85   3.137   3.599   3.178
    9ALA     HA   86   3.201   3.512   3.176
    9ALA     CB   87   3.207   3.709   3.263
    9ALA    HB1   88   3.298   3.736   3.206
    9ALA    HB2   89   3.242   3.662   3.357
    9ALA    HB3   90   3.129   3.786   3.284
    9ALA      C   91   2.998   3.564   3.230
    9ALA      O   92   2.899   3.621   3.185
   10PRO      N   93   2.983   3.471   3.322
   10PRO     CD   94   3.086   3.367   3.345
   10PRO    HD1   95   3.175   3.415   3.390
   10PRO    HD2   96   3.113   3.310   3.254
   10PRO     CA   97   2.875   3.448   3.421
   10PRO     HA   98   2.799   3.398   3.362
   10PRO     CB   99   2.923   3.344   3.520
   10PRO    HB1  100   2.837   3.294   3.569
   10PRO    HB2  101   2.978   3.403   3.597
   10PRO     CG  102   3.024   3.258   3.436
   10PRO    HG1  103   3.099   3.210   3.501
   10PRO    HG2  104   2.982   3.180   3.369
   10PRO      C  105   2.805   3.565   3.475
   10PRO      O  106   2.869   3.649   3.540
   11GLY      N  107   2.668   3.574   3.461
   11GLY     HN  108   2.618   3.511   3.402
   11GLY     CA  109   2.598   3.676   3.532
   11GLY    HA1  110   2.504   3.671   3.480
   11GLY    HA2  111   2.643   3.775   3.528
   11GLY      C  112   2.564   3.654   3.669
   11GLY      O  113   2.599   3.551   3.721
   12PRO      N  114   2.499   3.753   3.736
   12PRO     CD  115   2.441   3.863   3.665
   12PRO    HD1  116   2.345   3.843   3.613
   12PRO    HD2  117   2.508   3.903   3.586
   12PRO     CA  118   2.491   3.755   3.883
   12PRO     HA  119   2.585   3.794   3.918
   12PRO     CB  120   2.379   3.859   3.890
   12PRO    HB1  121   2.375   3.914   3.986
   12PRO    HB2  122   2.283   3.806   3.872
   12PRO     CG  123   2.413   3.960   3.780
   12PRO    HG1  124   2.327   4.028   3.767
   12PRO    HG2  125   2.496   4.026   3.814
   12PRO      C  126   2.453   3.625   3.963
   12PRO      O  127   2.361   3.550   3.934
   13GLY      N  128   2.524   3.608   4.074
   13GLY     HN  129   2.601   3.672   4.082
   13GLY     CA  130   2.508   3.509   4.182
   13GLY    HA1  131   2.608   3.502   4.225
   13GLY    HA2  132   2.460   3.421   4.143
   13GLY      C  133   2.417   3.557   4.297
   13GLY      O  134   2.323   3.632   4.277
   14ALA      N  135   2.438   3.488   4.410
   14ALA     HN  136   2.497   3.408   4.402
   14ALA     CA  137   2.380   3.517   4.539
   14ALA     HA  138   2.274   3.524   4.517
   14ALA     CB  139   2.407   3.404   4.641
   14ALA    HB1  140   2.347   3.424   4.732
   14ALA    HB2  141   2.516   3.396   4.660
   14ALA    HB3  142   2.383   3.303   4.602
   14ALA      C  143   2.416   3.655   4.595
   14ALA      O  144   2.529   3.697   4.564
   15PRO      N  145   2.333   3.721   4.679
   15PRO     CD  146   2.195   3.696   4.697
   15PRO    HD1  147   2.178   3.627   4.782
   15PRO    HD2  148   2.148   3.658   4.604
   15PRO     CA  149   2.364   3.864   4.712
   15PRO     HA  150   2.364   3.934   4.630
   15PRO     CB  151   2.244   3.899   4.804
   15PRO    HB1  152   2.232   4.009   4.811
   15PRO    HB2  153   2.261   3.847   4.901
   15PRO     CG  154   2.134   3.825   4.735
   15PRO    HG1  155   2.041   3.811   4.793
   15PRO    HG2  156   2.103   3.874   4.640
   15PRO      C  157   2.488   3.878   4.796
   15PRO    OT1  158   2.530   3.781   4.870
   15PRO    OT2  159   2.549   3.989   4.814
   16LIT    LIT  160   5.495   4.818   2.607
   17LIT    LIT  161   3.192   5.660   3.414
   18LIT    LIT  162   2.928   3.037   1.965
   19LIT    LIT  163   5.230   5.851   3.127
   20LIT    LIT  164   3.343   5.124   1.519
   21LIT    LIT  165   1.749   5.439   0.939
   22LIT    LIT  166   1.913   2.577   5.512
   23LIT    LIT  167   7.300   4.847   3.985
   24LIT    LIT  168   2.129   4.444   3.218
   25LIT    LIT  169   3.842   0.367   6.180
   26LIT    LIT  170   7.544   3.377   5.839
   27LIT    LIT  171   1.989   4.742   3.663
   28LIT    LIT  172   1.032   6.735   3.850
   29LIT    LIT  173   5.371   3.559   0.172
   30LIT    LIT  174   4.138   5.918   4.569
   31LIT    LIT  175   1.153   2.202   4.187
   32LIT    LIT  176   0.384   4.904   6.804
   33LIT    LIT  177   3.875   6.158   2.855
   34LIT    LIT  178   7.743   7.021   0.355
   35LIT    LIT  179   8.270   0.215   3.100
   36LIT    LIT  180   7.687   0.319   1.584
   37LIT    LIT  181   4.088   5.868   0.791
   38LIT    LIT  182   1.487   2.791   0.793
   39LIT    LIT  183   2.796   1.759   3.140
   40LIT    LIT  184   0.130   6.380   4.109
   41LIT    LIT  185   2.093   1.270   6.116
   42LIT    LIT  186   6.847   4.419   1.561
   43LIT    LIT  187   6.830   5.608   6.853
   44LIT    LIT  188   4.060   7.791   2.709
   45LIT    LIT  189   0.961   7.758   1.445
   46LIT    LIT  190   1.654   3.581   4.904
   47LIT    LIT  191   1.064   0.593   1.173
   48LIT    LIT  192   1.969   7.444   1.658
   49LIT    LIT  193   7.897   1.316   5.258
   50LIT    LIT  194   5.848   3.604   1.448
   51LIT    LIT  195   5.583   0.044   1.491
   52LIT    LIT  196   2.912   7.340   5.544
   53LIT    LIT  197   1.190   4.177   0.345
   54LIT    LIT  198   5.596   1.838   5.553
   55LIT    LIT  199   1.372   2.657   4.596
   56LIT    LIT  200   8.029   4.884   4.843
   57LIT    LIT  201   4.994   6.026   0.520
   58LIT    LIT  202   2.578   3.919   5.002
   59CLA    CLA  203   6.584   0.425   2.947
   60CLA    CLA  204   4.206   5.868   4.357
   61CLA    CLA  205   7.356   7.505   0.045
   62CLA    CLA  206   5.084   0.156   2.153
   63CLA    CLA  207   1.684   6.426   3.232
   64CLA    CLA  208   3.281   6.179   4.302
   65CLA    CLA  209   5.716   5.419   0.070
   66CLA    CLA  210   5.217   1.456   6.563
   67CLA    CLA  211   1.836   4.717   2.544
   68CLA    CLA  212   7.530   5.195   4.004
   69CLA    CLA  213   5.680   5.833   2.959
   70CLA    CLA  214   3.838   0.945   0.355
   71CLA    CLA  215   2.347   0.955   2.295
   72CLA    CLA  216   8.095   4.667   4.819
   73CLA    CLA  217   7.217   2.061   0.108
   74CLA    CLA  218   5.560   7.751   1.917
   75CLA    CLA  219   3.602   7.682   6.699
   76CLA    CLA  220   1.078   3.853   1.419
   77CLA    CLA  221   3.283   1.327   6.351
   78CLA    CLA  222   7.697   1.990   4.398
   79CLA    CLA  223   5.964   3.652   2.920
   80CLA    CLA  224   4.625   3.853   6.354
   81CLA    CLA  225   1.606   1.058   1.532
   82CLA    CLA  226   2.940   5.319   0.650
   83CLA    CLA  227   7.901   6.671   4.331
   84CLA    CLA  228   1.399   7.347   2.428
   85CLA    CLA  229   5.361   2.079   6.595
   86CLA    CLA  230   7.960   2.665   5.000
   87CLA    CLA  231   1.308   4.779   0.415
   88CLA    CLA  232   7.817   4.364   3.338
   89CLA    CLA  233   7.682   0.064   6.718
   90CLA    CLA  234   2.066   3.182   5.821
   91CLA    CLA  235   6.117   6.297   0.999
   92CLA    CLA  236   5.887   4.971   0.202
   93CLA    CLA  237   2.805   1.228   5.361
   94CLA    CLA  238   8.313   0.411   3.229
   95CLA    CLA  239   2.982   2.325   0.568
   96CLA    CLA  240   6.723   1.008   4.451
   97CLA    CLA  241   3.604   2.505   3.453
   98CLA    CLA  242   7.017   1.694   6.190
   99CLA    CLA  243   0.796   4.474   3.476
  100CLA    CLA  244   5.040   1.183   4.407
  101CLA    CLA  245   7.328   0.966   3.211
  102TIP3   OH2  246   5.818   4.183   0.860
  102TIP3    H1  247   5.885   4.193   0.793
  102TIP3    H2  248   5.738   4.214   0.818
  103TIP3   OH2  249   1.269   3.452   2.623
  103TIP3    H1  250   1.234   3.529   2.669
  103TIP3    H2  251   1.269   3.383   2.689
  104TIP3   OH2  252   7.461   7.001   4.680
  104TIP3    H1  253   7.365   7.006   4.679
  104TIP3    H2  254   7.480   6.907   4.686
  105TIP3   OH2  255   1.448   2.193   4.329
  105TIP3    H1  256   1.521   2.245   4.363
  105TIP3    H2  257   1.490   2.125   4.277
  106TIP3   OH2  258   4.556   3.901   1.639
  106TIP3    H1  259   4.479   3.849   1.665
  106TIP3    H2  260   4.608   3.841   1.586
  107TIP3   OH2  261   6.917   4.747   6.671
  107TIP3    H1  262   6.885   4.813   6.732
  107TIP3    H2  263   7.001   4.782   6.641
  108TIP3   OH2  264   4.678   6.189   0.060
  108TIP3    H1  265   4.712   6.110   0.018
  108TIP3    H2  266   4.584   6.173   0.069
  109TIP3   OH2  267   7.826   6.813   4.833
  109TIP3    H1  268   7.824   6.851   4.921
  109TIP3    H2  269   7.740   6.771   4.823
  110TIP3   OH2  270   4.013   2.620   1.842
  110TIP3    H1  271   4.048   2.700   1.882
  110TIP3    H2  272   4.019   2.635   1.748
  111TIP3   OH2  273   4.006   5.546   0.614
  111TIP3    H1  274   4.040   5.634   0.596
  111TIP3    H2  275   3.935   5.535   0.550
  112TIP3   OH2  276   5.284   1.695   1.700
  112TIP3    H1  277   5.286   1.789   1.682
  112TIP3    H2  278   5.213   1.685   1.764
  113TIP3   OH2  279   0.964   5.586   0.655
  113TIP3    H1  280   1.005   5.512   0.699
  113TIP3    H2  281   0.877   5.592   0.694
  114TIP3   OH2  282   1.500   2.874   3.043
  114TIP3    H1  283   1.467   2.924   3.118
  114TIP3    H2  284   1.573   2.824   3.078
  115TIP3   OH2  285   0.200   3.183   6.447
  115TIP3    H1  286   0.268   3.165   6.513
  115TIP3    H2  287   0.249   3.200   6.366
  116TIP3   OH2  288   1.462   1.849   6.768
  116TIP3    H1  289   1.530   1.913   6.750
  116TIP3    H2  290   1.509   1.770   6.795
  117TIP3   OH2  291   0.357   0.460   2.536
  117TIP3    H1  292   0.443   0.463   2.578
  117TIP3    H2  293   0.322   0.374   2.558
  118TIP3   OH2  294   4.892   3.131   2.380
  118TIP3    H1  295   4.859   3.115   2.292
  118TIP3    H2  296   4.835   3.200   2.414
  119TIP3   OH2  297   0.437   1.284   4.087
  119TIP3    H1  298   0.344   1.274   4.063
  119TIP3    H2  299   0.442   1.372   4.123
  120TIP3   OH2  300   8.333   1.009   4.423
  120TIP3    H1  301   8.256   0.966   4.460
  120TIP3    H2  302   8.322   1.001   4.328
  121TIP3   OH2  303   4.894   0.724   2.364
  121TIP3    H1  304   4.888   0.649   2.424
  121TIP3    H2  305   4.849   0.694   2.285
  122TIP3   OH2  306   7.726   0.089   2.502
  122TIP3    H1  307   7.698   0.178   2.520
  122TIP3    H2  308   7.763   0.058   2.585
  123TIP3   OH2  309   0.915   1.633   5.749
  123TIP3    H1  310   0.971   1.683   5.808
  123TIP3    H2  311   0.829   1.633   5.791
  124TIP3   OH2  312   4.970   4.495   1.901
  124TIP3    H1  313   4.919   4.419   1.928
  124TIP3    H2  314   5.038   4.459   1.844
  125TIP3   OH2  315   4.002   5.838   6.676
  125TIP3    H1  316   4.058   5.849   6.599
  125TIP3    H2  317   3.933   5.904   6.666
  126TIP3   OH2  318   4.378   7.362   6.676
  126TIP3    H1  319   4.404   7.452   6.659
  126TIP3    H2  320   4.313   7.343   6.608
  127TIP3   OH2  321   5.931   6.815   4.787
  127TIP3    H1  322   5.910   6.884   4.725
  127TIP3    H2  323   5.939   6.861   4.871
  128TIP3   OH2  324   7.640   2.303   1.706
  128TIP3    H1  325   7.686   2.369   1.654
  128TIP3    H2  326   7.549   2.333   1.707
  129TIP3   OH2  327   0.902   1.288   0.915
  129TIP3    H1  328   0.849   1.319   0.988
  129TIP3    H2  329   0.844   1.228   0.868
  130TIP3   OH2  330   6.827   6.483   1.566
  130TIP3    H1  331   6.826   6.552   1.500
  130TIP3    H2  332   6.789   6.407   1.522
  131TIP3   OH2  333   0.380   1.881   4.643
  131TIP3    H1  334   0.330   1.810   4.603
  131TIP3    H2  335   0.470   1.851   4.642
  132TIP3   OH2  336   7.121   6.954   4.936
  132TIP3    H1  337   7.207   6.917   4.953
  132TIP3    H2  338   7.062   6.904   4.992
  133TIP3   OH2  339   5.241   0.622   3.482
  133TIP3    H1  340   5.334   0.633   3.501
  133TIP3    H2  341   5.236   0.545   3.426
  134TIP3   OH2  342   3.003   2.649   6.357
  134TIP3    H1  343   2.947   2.572   6.367
  134TIP3    H2  344   2.943   2.721   6.341
  135TIP3   OH2  345   0.974   6.053   5.510
  135TIP3    H1  346   0.941   6.099   5.433
  135TIP3    H2  347   1.068   6.070   5.510
  136TIP3   OH2  348   3.038   7.538   1.877
  136TIP3    H1  349   2.965   7.557   1.936
  136TIP3    H2  350   2.997   7.528   1.791
  137TIP3   OH2  351   0.054   2.257   3.949
  137TIP3    H1  352   0.051   2.347   3.917
  137TIP3    H2  353   0.145   2.246   3.978
  138TIP3   OH2  354   3.601   0.467   0.359
  138TIP3    H1  355   3.605   0.491   0.267
  138TIP3    H2  356   3.670   0.519   0.401
  139TIP3   OH2  357   2.460   5.405   1.414
  139TIP3    H1  358   2.499   5.319   1.424
  139TIP3    H2  359   2.499   5.441   1.334
  140TIP3   OH2  360   5.654   1.265   6.017
  140TIP3    H1  361   5.609   1.332   6.069
  140TIP3    H2  362   5.635   1.288   5.926
  141TIP3   OH2  363   5.794   5.720   2.387
  141TIP3    H1  364   5.766   5.655   2.323
  141TIP3    H2  365   5.766   5.685   2.471
  142TIP3   OH2  366   3.474   2.055   5.053
  142TIP3    H1  367   3.393   2.092   5.088
  142TIP3    H2  368   3.520   2.129   5.014
  143TIP3   OH2  369   6.682   7.555   1.047
  143TIP3    H1  370   6.721   7.594   0.969
  143TIP3    H2  371   6.588   7.554   1.029
  144TIP3   OH2  372   6.959   4.916   2.512
  144TIP3    H1  373   6.956   4.901   2.606
  144TIP3    H2  374   7.029   4.858   2.480
  145TIP3   OH2  375   8.320   7.548   4.325
  145TIP3    H1  376   8.278   7.593   4.251
  145TIP3    H2  377   8.409   7.530   4.295
  146TIP3   OH2  378   6.656   5.954   2.409
  146TIP3    H1  379   6.636   6.047   2.423
  146TIP3    H2  380   6.747   5.952   2.381
  147TIP3   OH2  381   0.222   7.500   6.833
  147TIP3    H1  382   0.168   7.458   6.766
  147TIP3    H2  383   0.243   7.586   6.797
  148TIP3   OH2  384   0.371   4.567   3.781
  148TIP3    H1  385   0.389   4.554   3.688
  148TIP3    H2  386   0.291   4.620   3.783
  149TIP3   OH2  387   6.096   2.804   4.233
  149TIP3    H1  388   6.160   2.796   4.162
  149TIP3    H2  389   6.114   2.729   4.290
  150TIP3   OH2  390   3.943   4.106   4.896
  150TIP3    H1  391   3.988   4.167   4.954
  150TIP3    H2  392   3.934   4.153   4.814
  151TIP3   OH2  393   8.372   2.474   1.495
  151TIP3    H1  394   8.317   2.521   1.432
  151TIP3    H2  395   8.415   2.406   1.444
  152TIP3   OH2  396   0.589   4.374   1.206
  152TIP3    H1  397   0.609   4.452   1.259
  152TIP3    H2  398   0.514   4.401   1.152
  153TIP3   OH2  399   5.928   4.439   2.962
  153TIP3    H1  400   5.963   4.369   3.018
  153TIP3    H2  401   5.837   4.413   2.947
  154TIP3   OH2  402   4.923   2.011   3.777
  154TIP3    H1  403   4.855   2.074   3.800
  154TIP3    H2  404   5.001   2.064   3.760
  155TIP3   OH2  405   3.310   0.368   3.281
  155TIP3    H1  406   3.218   0.371   3.254
  155TIP3    H2  407   3.340   0.282   3.253
  156TIP3   OH2  408   0.824   2.911   3.497
  156TIP3    H1  409   0.832   2.831   3.550
  156TIP3    H2  410   0.828   2.982   3.561
  157TIP3   OH2  411   5.299   5.531   0.889
  157TIP3    H1  412   5.211   5.495   0.895
  157TIP3    H2  413   5.296   5.612   0.941
  158TIP3   OH2  414   0.365   1.964   3.558
  158TIP3    H1  415   0.444   1.983   3.507
  158TIP3    H2  416   0.387   1.991   3.647
  159TIP3   OH2  417   4.982   5.752   4.664
  159TIP3    H1  418   4.984   5.702   4.582
  159TIP3    H2  419   4.892   5.743   4.695
  160TIP3   OH2  420   2.874   7.861   6.486
  160TIP3    H1  421   2.834   7.870   6.399
  160TIP3    H2  422   2.963   7.894   6.476
  161TIP3   OH2  423   5.971   6.146   6.534
  161TIP3    H1  424   5.976   6.197   6.615
  161TIP3    H2  425   5.888   6.098   6.541
  162TIP3   OH2  426   5.788   7.012   4.630
  162TIP3    H1  427   5.794   7.044   4.540
  162TIP3    H2  428   5.815   7.087   4.684
  163TIP3   OH2  429   1.476   0.321   6.245
  163TIP3    H1  430   1.528   0.364   6.178
  163TIP3    H2  431   1.503   0.363   6.327
  164TIP3   OH2  432   6.606   0.628   5.447
  164TIP3    H1  433   6.536   0.602   5.386
  164TIP3    H2  434   6.639   0.545   5.482
  165TIP3   OH2  435   0.166   3.455   4.198
  165TIP3    H1  436   0.079   3.495   4.193
  165TIP3    H2  437   0.219   3.505   4.137
  166TIP3   OH2  438   7.509   5.978   4.367
  166TIP3    H1  439   7.527   6.067   4.397
  166TIP3    H2  440   7.546   5.973   4.279
  167TIP3   OH2  441   6.452   4.973   2.171
  167TIP3    H1  442   6.536   4.929   2.179
  167TIP3    H2  443   6.387   4.907   2.196
  168TIP3   OH2  444   7.170   7.496   5.143
  168TIP3    H1  445   7.145   7.417   5.096
  168TIP3    H2  446   7.263   7.506   5.125
  169TIP3   OH2  447   8.221   7.320   4.741
  169TIP3    H1  448   8.228   7.311   4.646
  169TIP3    H2  449   8.284   7.388   4.764
  170TIP3   OH2  450   2.990   6.684   1.979
  170TIP3    H1  451   3.056   6.753   1.983
  170TIP3    H2  452   2.973   6.661   2.070
  171TIP3   OH2  453   7.034   4.677   4.746
  171TIP3    H1  454   7.113   4.630   4.775
  171TIP3    H2  455   7.068   4.747   4.691
  172TIP3   OH2  456   3.037   5.903   5.793
  172TIP3    H1  457   2.948   5.908   5.829
  172TIP3    H2  458   3.067   5.993   5.792
  173TIP3   OH2  459   7.372   4.542   4.224
  173TIP3    H1  460   7.359   4.452   4.194
  173TIP3    H2  461   7.448   4.537   4.281
  174TIP3   OH2  462   0.165   2.642   5.951
  174TIP3    H1  463   0.153   2.551   5.979
  174TIP3    H2  464   0.162   2.692   6.033
  175TIP3   OH2  465   4.870   5.935   5.487
  175TIP3    H1  466   4.789   5.884   5.486
  175TIP3    H2  467   4.872   5.980   5.402
  176TIP3   OH2  468   4.953   4.028   0.494
  176TIP3    H1  469   4.943   4.034   0.399
  176TIP3    H2  470   4.911   4.107   0.527
  177TIP3   OH2  471   0.701   7.394   2.929
  177TIP3    H1  472   0.669   7.471   2.977
  177TIP3    H2  473   0.785   7.422   2.893
  178TIP3   OH2  474   2.602   7.484   5.623
  178TIP3    H1  475   2.564   7.401   5.592
  178TIP3    H2  476   2.558   7.501   5.706
  179TIP3   OH2  477   0.307   7.495   5.732
  179TIP3    H1  478   0.372   7.425   5.737
  179TIP3    H2  479   0.264   7.494   5.818
  180TIP3   OH2  480   1.195   6.591   5.178
  180TIP3    H1  481   1.110   6.626   5.205
  180TIP3    H2  482   1.253   6.610   5.252
  181TIP3   OH2  483   6.571   3.707   5.653
  181TIP3    H1  484   6.612   3.622   5.668
  181TIP3    H2  485   6.591   3.757   5.732
  182TIP3   OH2  486   0.750   1.678   4.155
  182TIP3    H1  487   0.731   1.599   4.104
  182TIP3    H2  488   0.731   1.654   4.245
  183TIP3   OH2  489   0.052   3.357   6.167
  183TIP3    H1  490   0.050   3.441   6.213
  183TIP3    H2  491   0.116   3.305   6.216
  184TIP3   OH2  492   0.218   1.312   1.020
  184TIP3    H1  493   0.213   1.337   1.112
  184TIP3    H2  494   0.189   1.389   0.972
  185TIP3   OH2  495   2.401   0.817   6.051
  185TIP3    H1  496   2.361   0.776   6.128
  185TIP3    H2  497   2.353   0.780   5.977
  186TIP3   OH2  498   0.873   2.296   3.219
  186TIP3    H1  499   0.824   2.376   3.239
  186TIP3    H2  500   0.965   2.323   3.221
  187TIP3   OH2  501   0.850   3.501   3.146
  187TIP3    H1  502   0.927   3.447   3.165
  187TIP3    H2  503   0.779   3.460   3.195
  188TIP3   OH2  504   7.367   0.138   5.666
  188TIP3    H1  505   7.302   0.203   5.691
  188TIP3    H2  506   7.442   0.156   5.722
  189TIP3   OH2  507   1.562   2.737   4.600
  189TIP3    H1  508   1.605   2.762   4.518
  189TIP3    H2  509   1.632   2.739   4.666
  190TIP3   OH2  510   5.414   0.793   2.607
  190TIP3    H1  511   5.509   0.804   2.608
  190TIP3    H2  512   5.382   0.873   2.564
  191TIP3   OH2  513   1.901   4.746   4.351
  191TIP3    H1  514   1.930   4.834   4.374
  191TIP3    H2  515   1.967   4.689   4.391
  192TIP3   OH2  516   4.121   4.994   5.826
  192TIP3    H1  517   4.157   4.922   5.773
  192TIP3    H2  518   4.034   5.009   5.789
  193TIP3   OH2  519   6.028   1.153   6.179
  193TIP3    H1  520   5.990   1.153   6.267
  193TIP3    H2  521   6.065   1.065   6.169
  194TIP3   OH2  522   0.470   1.166   2.364
  194TIP3    H1  523   0.557   1.128   2.376
  194TIP3    H2  524   0.412   1.111   2.416
  195TIP3   OH2  525   5.229   0.033   5.366
  195TIP3    H1  526   5.289  -0.031   5.404
  195TIP3    H2  527   5.164   0.049   5.434
  196TIP3   OH2  528   1.929   4.422   5.837
  196TIP3    H1  529   1.983   4.493   5.803
  196TIP3    H2  530   1.988   4.372   5.894
  197TIP3   OH2  531   2.380   1.777   1.337
  197TIP3    H1  532   2.389   1.688   1.304
  197TIP3    H2  533   2.343   1.766   1.425
  198TIP3   OH2  534   5.218   2.973   1.226
  198TIP3    H1  535   5.277   3.041   1.260
  198TIP3    H2  536   5.132   2.998   1.259
  199TIP3   OH2  537   1.096   6.134   4.068
  199TIP3    H1  538   1.003   6.154   4.062
  199TIP3    H2  539   1.119   6.101   3.981
  200TIP3   OH2  540   1.518   5.868   3.560
  200TIP3    H1  541   1.567   5.825   3.490
  200TIP3    H2  542   1.545   5.822   3.640
  201TIP3   OH2  543   4.229   7.434   3.293
  201TIP3    H1  544   4.233   7.487   3.373
  201TIP3    H2  545   4.268   7.350   3.318
  202TIP3   OH2  546   6.948   6.099   4.876
  202TIP3    H1  547   6.952   6.004   4.863
  202TIP3    H2  548   6.855   6.120   4.870
  203TIP3   OH2  549   6.249   1.673   0.571
  203TIP3    H1  550   6.182   1.707   0.511
  203TIP3    H2  551   6.202   1.655   0.652
  204TIP3   OH2  552   6.628   1.946   3.363
  204TIP3    H1  553   6.618   1.981   3.452
  204TIP3    H2  554   6.540   1.922   3.336
  205TIP3   OH2  555   3.229   0.414   0.216
  205TIP3    H1  556   3.239   0.408   0.311
  205TIP3    H2  557   3.144   0.455   0.203
  206TIP3   OH2  558   0.955   2.817   3.027
  206TIP3    H1  559   1.044   2.782   3.026
  206TIP3    H2  560   0.918   2.791   2.943
  207TIP3   OH2  561   2.166   1.746   2.822
  207TIP3    H1  562   2.204   1.825   2.860
  207TIP3    H2  563   2.241   1.692   2.797
  208TIP3   OH2  564   3.535   4.461   6.813
  208TIP3    H1  565   3.475   4.510   6.758
  208TIP3    H2  566   3.532   4.505   6.898
  209TIP3   OH2  567   5.388   1.787   0.727
  209TIP3    H1  568   5.452   1.769   0.796
  209TIP3    H2  569   5.381   1.704   0.679
  210TIP3   OH2  570   0.492   7.307   6.330
  210TIP3    H1  571   0.458   7.218   6.323
  210TIP3    H2  572   0.431   7.352   6.388
  211TIP3   OH2  573   0.640   5.850   4.129
  211TIP3    H1  574   0.596   5.820   4.050
  211TIP3    H2  575   0.587   5.814   4.201
  212TIP3   OH2  576   2.359   7.357   1.372
  212TIP3    H1  577   2.399   7.432   1.416
  212TIP3    H2  578   2.352   7.290   1.439
  213TIP3   OH2  579   3.934   0.791   1.175
  213TIP3    H1  580   3.885   0.790   1.092
  213TIP3    H2  581   3.866   0.793   1.243
  214TIP3   OH2  582   7.994   0.301   4.241
  214TIP3    H1  583   7.965   0.249   4.166
  214TIP3    H2  584   8.090   0.301   4.236
  215TIP3   OH2  585   0.798   6.223   1.928
  215TIP3    H1  586   0.852   6.145   1.917
  215TIP3    H2  587   0.780   6.226   2.022
  216TIP3   OH2  588   4.796   4.930   3.345
  216TIP3    H1  589   4.768   4.841   3.325
  216TIP3    H2  590   4.855   4.953   3.274
  217TIP3   OH2  591   5.736   2.234   1.881
  217TIP3    H1  592   5.749   2.206   1.790
  217TIP3    H2  593   5.644   2.216   1.899
  218TIP3   OH2  594   4.228   4.501   5.621
  218TIP3    H1  595   4.238   4.556   5.543
  218TIP3    H2  596   4.133   4.490   5.629
  219TIP3   OH2  597   5.382   6.076   4.035
  219TIP3    H1  598   5.462   6.089   3.985
  219TIP3    H2  599   5.356   6.163   4.064
  220TIP3   OH2  600   4.766   0.989   4.688
  220TIP3    H1  601   4.780   1.083   4.676
  220TIP3    H2  602   4.672   0.977   4.678
  221TIP3   OH2  603   7.585   3.926   2.578
  221TIP3    H1  604   7.534   3.884   2.648
  221TIP3    H2  605   7.520   3.975   2.528
  222TIP3   OH2  606   5.659   1.874   2.954
  222TIP3    H1  607   5.569   1.867   2.922
  222TIP3    H2  608   5.691   1.956   2.916
  223TIP3   OH2  609   6.150   4.765   5.426
  223TIP3    H1  610   6.208   4.708   5.375
  223TIP3    H2  611   6.078   4.786   5.367
  224TIP3   OH2  612   0.465   3.606   1.841
  224TIP3    H1  613   0.559   3.616   1.828
  224TIP3    H2  614   0.441   3.676   1.901
  225TIP3   OH2  615   2.459   2.923   5.799
  225TIP3    H1  616   2.448   2.916   5.894
  225TIP3    H2  617   2.387   2.872   5.763
  226TIP3   OH2  618   2.073   1.486   2.710
  226TIP3    H1  619   2.069   1.506   2.803
  226TIP3    H2  620   2.167   1.483   2.690
  227TIP3   OH2  621   4.682   4.910   0.139
  227TIP3    H1  622   4.704   4.967   0.065
  227TIP3    H2  623   4.748   4.840   0.135
  228TIP3   OH2  624   1.580   6.191   0.662
  228TIP3    H1  625   1.510   6.219   0.720
  228TIP3    H2  626   1.660   6.210   0.710
  229TIP3   OH2  627   7.981   6.050   5.667
  229TIP3    H1  628   8.001   6.014   5.581
  229TIP3    H2  629   8.014   6.140   5.664
  230TIP3   OH2  630   5.584   4.909   0.140
  230TIP3    H1  631   5.582   4.834   0.201
  230TIP3    H2  632   5.670   4.949   0.156
  231TIP3   OH2  633   7.131   2.012   4.766
  231TIP3    H1  634   7.125   2.027   4.861
  231TIP3    H2  635   7.124   1.917   4.757
  232TIP3   OH2  636   2.851   5.271   6.535
  232TIP3    H1  637   2.780   5.207   6.548
  232TIP3    H2  638   2.896   5.241   6.457
  233TIP3   OH2  639   0.708   5.606   0.767
  233TIP3    H1  640   0.652   5.683   0.770
  233TIP3    H2  641   0.647   5.533   0.754
  234TIP3   OH2  642   0.741   7.783   3.169
  234TIP3    H1  643   0.830   7.755   3.148
  234TIP3    H2  644   0.716   7.728   3.243
  235TIP3   OH2  645   3.677   0.335   1.455
  235TIP3    H1  646   3.742   0.295   1.512
  235TIP3    H2  647   3.617   0.380   1.515
  236TIP3   OH2  648   2.204   2.093   2.391
  236TIP3    H1  649   2.113   2.078   2.368
  236TIP3    H2  650   2.211   2.188   2.401
  237TIP3   OH2  651   3.375   3.360   4.546
  237TIP3    H1  652   3.337   3.448   4.553
  237TIP3    H2  653   3.429   3.363   4.467
  238TIP3   OH2  654   3.589   0.907   1.197
  238TIP3    H1  655   3.546   0.960   1.265
  238TIP3    H2  656   3.558   0.945   1.115
  239TIP3   OH2  657   5.092   1.008   1.894
  239TIP3    H1  658   5.079   1.100   1.870
  239TIP3    H2  659   5.187   0.999   1.904
  240TIP3   OH2  660   1.009   0.521   1.809
  240TIP3    H1  661   1.012   0.433   1.771
  240TIP3    H2  662   1.035   0.579   1.738
  241TIP3   OH2  663   2.183   1.199   2.485
  241TIP3    H1  664   2.202   1.278   2.435
  241TIP3    H2  665   2.235   1.131   2.443
  242TIP3   OH2  666   6.174   6.895   5.012
  242TIP3    H1  667   6.104   6.958   4.995
  242TIP3    H2  668   6.241   6.945   5.060
  243TIP3   OH2  669   8.281   2.829   3.936
  243TIP3    H1  670   8.371   2.804   3.911
  243TIP3    H2  671   8.292   2.903   3.995
  244TIP3   OH2  672   7.844   1.142   6.847
  244TIP3    H1  673   7.927   1.183   6.823
  244TIP3    H2  674   7.825   1.082   6.775
  245TIP3   OH2  675   2.652   3.558   6.432
  245TIP3    H1  676   2.590   3.543   6.502
  245TIP3    H2  677   2.718   3.616   6.471
  246TIP3   OH2  678   2.680   2.661   5.508
  246TIP3    H1  679   2.604   2.606   5.491
  246TIP3    H2  680   2.752   2.599   5.522
  247TIP3   OH2  681   4.217   1.771   0.776
  247TIP3    H1  682   4.177   1.713   0.711
  247TIP3    H2  683   4.145   1.795   0.834
  248TIP3   OH2  684   2.596   5.027   1.695
  248TIP3    H1  685   2.539   5.041   1.770
  248TIP3    H2  686   2.537   5.022   1.620
  249TIP3   OH2  687   0.140   5.289   0.352
  249TIP3    H1  688   0.206   5.343   0.394
  249TIP3    H2  689   0.167   5.199   0.371
  250TIP3   OH2  690   6.296   2.305   6.317
  250TIP3    H1  691   6.299   2.218   6.276
  250TIP3    H2  692   6.340   2.362   6.254
  251TIP3   OH2  693   5.711   5.552   5.519
  251TIP3    H1  694   5.655   5.482   5.485
  251TIP3    H2  695   5.673   5.632   5.483
  252TIP3   OH2  696   3.514   3.178   3.563
  252TIP3    H1  697   3.597   3.144   3.529
  252TIP3    H2  698   3.522   3.171   3.658
  253TIP3   OH2  699   6.139   3.178   5.498
  253TIP3    H1  700   6.115   3.210   5.585
  253TIP3    H2  701   6.225   3.139   5.510
  254TIP3   OH2  702   3.541   1.848   4.345
  254TIP3    H1  703   3.452   1.839   4.377
  254TIP3    H2  704   3.534   1.846   4.250
  255TIP3   OH2  705   2.914   1.856   2.703
  255TIP3    H1  706   3.003   1.846   2.737
  255TIP3    H2  707   2.924   1.914   2.627
  256TIP3   OH2  708   4.385   7.539   0.891
  256TIP3    H1  709   4.315   7.588   0.935
  256TIP3    H2  710   4.464   7.590   0.908
  257TIP3   OH2  711   1.826   4.231   0.119
  257TIP3    H1  712   1.868   4.145   0.117
  257TIP3    H2  713   1.897   4.294   0.109
  258TIP3   OH2  714   6.358   4.150   1.064
  258TIP3    H1  715   6.306   4.101   1.000
  258TIP3    H2  716   6.336   4.111   1.149
  259TIP3   OH2  717   5.169   6.477   3.480
  259TIP3    H1  718   5.245   6.460   3.537
  259TIP3    H2  719   5.109   6.525   3.536
  260TIP3   OH2  720   3.068   4.450   0.854
  260TIP3    H1  721   3.050   4.462   0.761
  260TIP3    H2  722   3.161   4.468   0.864
  261TIP3   OH2  723   7.473   2.585   5.379
  261TIP3    H1  724   7.491   2.635   5.300
  261TIP3    H2  725   7.544   2.521   5.384
  262TIP3   OH2  726   5.670   0.380   1.870
  262TIP3    H1  727   5.578   0.389   1.895
  262TIP3    H2  728   5.716   0.374   1.954
  263TIP3   OH2  729   3.084   7.772   3.714
  263TIP3    H1  730   3.145   7.843   3.737
  263TIP3    H2  731   3.044   7.747   3.798
  264TIP3   OH2  732   7.016   6.876   5.619
  264TIP3    H1  733   7.002   6.930   5.697
  264TIP3    H2  734   6.935   6.883   5.570
  265TIP3   OH2  735   5.005   5.132   1.566
  265TIP3    H1  736   4.991   5.078   1.489
  265TIP3    H2  737   5.094   5.111   1.594
  266TIP3   OH2  738   0.225   4.910   4.366
  266TIP3    H1  739   0.313   4.875   4.351
  266TIP3    H2  740   0.236   4.978   4.432
  267TIP3   OH2  741   2.240   4.066   1.939
  267TIP3    H1  742   2.167   4.084   1.881
  267TIP3    H2  743   2.200   4.037   2.021
  268TIP3   OH2  744   2.568   6.847   6.083
  268TIP3    H1  745   2.484   6.812   6.110
  268TIP3    H2  746   2.546   6.913   6.016
  269TIP3   OH2  747   1.830   3.318   6.632
  269TIP3    H1  748   1.800   3.393   6.683
  269TIP3    H2  749   1.750   3.284   6.591
  270TIP3   OH2  750   6.645   6.083   4.332
  270TIP3    H1  751   6.648   5.989   4.316
  270TIP3    H2  752   6.667   6.093   4.425
  271TIP3   OH2  753   1.874   0.952   3.217
  271TIP3    H1  754   1.901   0.871   3.173
  271TIP3    H2  755   1.793   0.978   3.174
  272TIP3   OH2  756   5.744   0.102   0.902
  272TIP3    H1  757   5.817   0.041   0.897
  272TIP3    H2  758   5.668   0.052   0.873
  273TIP3   OH2  759   7.163   0.025   3.066
  273TIP3    H1  760   7.106   0.097   3.037
  273TIP3    H2  761   7.229   0.018   2.997
  274TIP3   OH2  762   4.559   6.873   1.293
  274TIP3    H1  763   4.642   6.845   1.332
  274TIP3    H2  764   4.500   6.799   1.309
  275TIP3   OH2  765   7.271   7.164   3.433
  275TIP3    H1  766   7.218   7.162   3.512
  275TIP3    H2  767   7.313   7.251   3.434
  276TIP3   OH2  768   6.382   1.019   3.730
  276TIP3    H1  769   6.440   1.054   3.663
  276TIP3    H2  770   6.367   1.092   3.790
  277TIP3   OH2  771   0.193   5.400   3.257
  277TIP3    H1  772   0.269   5.418   3.202
  277TIP3    H2  773   0.138   5.478   3.247
  278TIP3   OH2  774   0.757   7.001   5.529
  278TIP3    H1  775   0.798   7.083   5.557
  278TIP3    H2  776   0.794   6.985   5.442
  279TIP3   OH2  777   4.620   1.051   5.294
  279TIP3    H1  778   4.544   0.996   5.314
  279TIP3    H2  779   4.679   1.038   5.368
  280TIP3   OH2  780   8.187   5.865   0.986
  280TIP3    H1  781   8.268   5.915   0.990
  280TIP3    H2  782   8.125   5.915   1.038
  281TIP3   OH2  783   8.255   4.987   2.605
  281TIP3    H1  784   8.170   4.975   2.648
  281TIP3    H2  785   8.289   4.899   2.593
  282TIP3   OH2  786   6.214   0.358   4.444
  282TIP3    H1  787   6.235   0.320   4.529
  282TIP3    H2  788   6.252   0.445   4.446
  283TIP3   OH2  789   0.144   6.642   3.196
  283TIP3    H1  790   0.069   6.606   3.148
  283TIP3    H2  791   0.117   6.640   3.288
  284TIP3   OH2  792   6.980   6.447   0.178
  284TIP3    H1  793   6.931   6.366   0.186
  284TIP3    H2  794   6.963   6.477   0.089
  285TIP3   OH2  795   0.447   4.961   1.183
  285TIP3    H1  796   0.409   4.989   1.266
  285TIP3    H2  797   0.371   4.936   1.129
  286TIP3   OH2  798   3.104   5.606   5.069
  286TIP3    H1  799   3.123   5.697   5.047
  286TIP3    H2  800   3.053   5.611   5.150
  287TIP3   OH2  801   3.827   6.084   5.274
  287TIP3    H1  802   3.826   6.079   5.178
  287TIP3    H2  803   3.790   6.170   5.294
  288TIP3   OH2  804   8.138   4.751   1.822
  288TIP3    H1  805   8.110   4.668   1.784
  288TIP3    H2  806   8.157   4.731   1.914
  289TIP3   OH2  807   0.838   2.597   0.349
  289TIP3    H1  808   0.920   2.549   0.364
  289TIP3    H2  809   0.824   2.648   0.429
  290TIP3   OH2  810   0.224   7.223   5.293
  290TIP3    H1  811   0.187   7.311   5.282
  290TIP3    H2  812   0.156   7.164   5.263
  291TIP3   OH2  813   7.390   5.619   0.972
  291TIP3    H1  814   7.468   5.638   0.921
  291TIP3    H2  815   7.386   5.524   0.976
  292TIP3   OH2  816   0.976   6.993   5.833
  292TIP3    H1  817   1.060   7.035   5.854
  292TIP3    H2  818   0.960   6.935   5.907
  293TIP3   OH2  819   3.077   7.172   4.476
  293TIP3    H1  820   3.024   7.247   4.449
  293TIP3    H2  821   3.160   7.210   4.505
  294TIP3   OH2  822   2.842   4.691   2.185
  294TIP3    H1  823   2.913   4.749   2.212
  294TIP3    H2  824   2.762   4.743   2.197
  295TIP3   OH2  825   4.573   1.704   0.384
  295TIP3    H1  826   4.551   1.681   0.474
  295TIP3    H2  827   4.649   1.651   0.363
  296TIP3   OH2  828   1.327   5.749   0.224
  296TIP3    H1  829   1.310   5.683   0.290
  296TIP3    H2  830   1.307   5.706   0.141
  297TIP3   OH2  831   1.369   2.489   1.612
  297TIP3    H1  832   1.390   2.525   1.526
  297TIP3    H2  833   1.273   2.483   1.612
  298TIP3   OH2  834   5.327   4.723   6.762
  298TIP3    H1  835   5.377   4.805   6.757
  298TIP3    H2  836   5.331   4.688   6.673
  299TIP3   OH2  837   7.760   1.664   4.701
  299TIP3    H1  838   7.844   1.708   4.697
  299TIP3    H2  839   7.747   1.627   4.613
  300TIP3   OH2  840   0.618   2.453   6.442
  300TIP3    H1  841   0.681   2.525   6.437
  300TIP3    H2  842   0.592   2.450   6.534
  301TIP3   OH2  843   6.564   4.778   5.321
  301TIP3    H1  844   6.630   4.820   5.376
  301TIP3    H2  845   6.511   4.727   5.382
  302TIP3   OH2  846   0.439   3.515   2.687
  302TIP3    H1  847   0.416   3.438   2.636
  302TIP3    H2  848   0.521   3.546   2.648
  303TIP3   OH2  849   2.356   7.223   5.721
  303TIP3    H1  850   2.316   7.307   5.746
  303TIP3    H2  851   2.281   7.167   5.698
  304TIP3   OH2  852   2.405   0.296   3.603
  304TIP3    H1  853   2.391   0.359   3.532
  304TIP3    H2  854   2.467   0.233   3.567
  305TIP3   OH2  855   4.043   7.526   6.457
  305TIP3    H1  856   3.999   7.487   6.532
  305TIP3    H2  857   3.981   7.516   6.385
  306TIP3   OH2  858   0.781   6.145   0.449
  306TIP3    H1  859   0.813   6.230   0.480
  306TIP3    H2  860   0.799   6.085   0.522
  307TIP3   OH2  861   0.443   6.495   3.802
  307TIP3    H1  862   0.430   6.552   3.727
  307TIP3    H2  863   0.519   6.442   3.779
  308TIP3   OH2  864   6.443   4.906   4.196
  308TIP3    H1  865   6.476   4.978   4.142
  308TIP3    H2  866   6.348   4.906   4.180
  309TIP3   OH2  867   3.819   1.261   3.608
  309TIP3    H1  868   3.871   1.328   3.652
  309TIP3    H2  869   3.802   1.196   3.676
  310TIP3   OH2  870   2.406   1.351   6.647
  310TIP3    H1  871   2.465   1.359   6.722
  310TIP3    H2  872   2.401   1.438   6.610
  311TIP3   OH2  873   7.642   3.252   6.392
  311TIP3    H1  874   7.605   3.243   6.480
  311TIP3    H2  875   7.570   3.290   6.340
  312TIP3   OH2  876   7.984   1.117   1.395
  312TIP3    H1  877   8.019   1.057   1.461
  312TIP3    H2  878   7.889   1.103   1.397
  313TIP3   OH2  879   5.258   3.343   4.462
  313TIP3    H1  880   5.241   3.355   4.556
  313TIP3    H2  881   5.320   3.270   4.458
  314TIP3   OH2  882   5.186   1.331   3.689
  314TIP3    H1  883   5.102   1.375   3.677
  314TIP3    H2  884   5.251   1.397   3.665
  315TIP3   OH2  885   7.076   6.670   6.149
  315TIP3    H1  886   7.120   6.634   6.071
  315TIP3    H2  887   6.983   6.663   6.130
  316TIP3   OH2  888   7.883   2.042   4.831
  316TIP3    H1  889   7.805   1.986   4.824
  316TIP3    H2  890   7.873   2.105   4.759
  317TIP3   OH2  891   6.498   2.950   0.465
  317TIP3    H1  892   6.571   2.892   0.444
  317TIP3    H2  893   6.437   2.895   0.515
  318TIP3   OH2  894   7.529   5.933   5.250
  318TIP3    H1  895   7.608   5.892   5.216
  318TIP3    H2  896   7.557   5.975   5.331
  319TIP3   OH2  897   0.043   6.156   1.645
  319TIP3    H1  898   0.060   6.158   1.739
  319TIP3    H2  899  -0.024   6.089   1.634
  320TIP3   OH2  900   3.772   2.240   5.206
  320TIP3    H1  901   3.859   2.209   5.181
  320TIP3    H2  902   3.725   2.248   5.123
  321TIP3   OH2  903   5.264   7.007   5.499
  321TIP3    H1  904   5.261   7.017   5.404
  321TIP3    H2  905   5.174   7.022   5.528
  322TIP3   OH2  906   4.818   4.364   2.211
  322TIP3    H1  907   4.853   4.451   2.225
  322TIP3    H2  908   4.863   4.331   2.134
  323TIP3   OH2  909   0.415   5.326   1.340
  323TIP3    H1  910   0.390   5.244   1.383
  323TIP3    H2  911   0.333   5.364   1.310
  324TIP3   OH2  912   4.820   2.201   4.235
  324TIP3    H1  913   4.798   2.235   4.321
  324TIP3    H2  914   4.886   2.262   4.201
  325TIP3   OH2  915   2.929   1.162   1.532
  325TIP3    H1  916   2.912   1.069   1.547
  325TIP3    H2  917   3.009   1.180   1.580
  326TIP3   OH2  918   5.254   1.866   6.857
  326TIP3    H1  919   5.261   1.924   6.781
  326TIP3    H2  920   5.161   1.866   6.878
  327TIP3   OH2  921   6.738   2.921   5.246
  327TIP3    H1  922   6.685   2.895   5.171
  327TIP3    H2  923   6.675   2.954   5.311
  328TIP3   OH2  924   1.861   0.803   1.621
  328TIP3    H1  925   1.873   0.893   1.652
  328TIP3    H2  926   1.907   0.800   1.537
  329TIP3   OH2  927   4.022   5.460   5.010
  329TIP3    H1  928   3.948   5.516   5.034
  329TIP3    H2  929   4.062   5.436   5.093
  330TIP3   OH2  930   5.032   1.853   2.046
  330TIP3    H1  931   4.990   1.833   2.130
  330TIP3    H2  932   4.971   1.914   2.003
  331TIP3   OH2  933   7.793   1.970   5.639
  331TIP3    H1  934   7.800   1.995   5.731
  331TIP3    H2  935   7.795   1.874   5.640
  332TIP3   OH2  936   4.033   2.632   6.761
  332TIP3    H1  937   3.990   2.561   6.713
  332TIP3    H2  938   4.123   2.631   6.729
  333TIP3   OH2  939   4.290   5.860   6.507
  333TIP3    H1  940   4.276   5.823   6.420
  333TIP3    H2  941   4.348   5.798   6.551
  334TIP3   OH2  942   0.181   4.713   2.128
  334TIP3    H1  943   0.110   4.672   2.176
  334TIP3    H2  944   0.242   4.745   2.195
  335TIP3   OH2  945   4.207   6.743   0.748
  335TIP3    H1  946   4.287   6.716   0.794
  335TIP3    H2  947   4.238   6.788   0.670
  336TIP3   OH2  948   4.552   7.170   3.085
  336TIP3    H1  949   4.639   7.165   3.047
  336TIP3    H2  950   4.553   7.107   3.157
  337TIP3   OH2  951   8.372   1.938   6.029
  337TIP3    H1  952   8.348   1.847   6.012
  337TIP3    H2  953   8.468   1.937   6.028
  338TIP3   OH2  954   3.434   2.605   1.494
  338TIP3    H1  955   3.479   2.521   1.479
  338TIP3    H2  956   3.348   2.580   1.527
  339TIP3   OH2  957   6.676   4.105   4.149
  339TIP3    H1  958   6.668   4.035   4.214
  339TIP3    H2  959   6.754   4.153   4.176
  340TIP3   OH2  960   4.413   4.389   4.477
  340TIP3    H1  961   4.494   4.393   4.528
  340TIP3    H2  962   4.350   4.347   4.535
  341TIP3   OH2  963   4.481   0.779   5.461
  341TIP3    H1  964   4.555   0.732   5.423
  341TIP3    H2  965   4.412   0.772   5.395
  342TIP3   OH2  966   2.684   3.135   5.360
  342TIP3    H1  967   2.719   3.221   5.384
  342TIP3    H2  968   2.652   3.099   5.442
  343TIP3   OH2  969   6.826   3.730   2.573
  343TIP3    H1  970   6.741   3.775   2.567
  343TIP3    H2  971   6.879   3.772   2.505
  344TIP3   OH2  972   1.746   6.676   2.080
  344TIP3    H1  973   1.755   6.586   2.113
  344TIP3    H2  974   1.701   6.666   1.996
  345TIP3   OH2  975   7.075   5.644   6.043
  345TIP3    H1  976   7.036   5.556   6.047
  345TIP3    H2  977   7.067   5.670   5.952
  346TIP3   OH2  978   5.079   5.900   5.830
  346TIP3    H1  979   5.133   5.942   5.897
  346TIP3    H2  980   5.047   5.973   5.777
  347TIP3   OH2  981   0.543   5.289   2.108
  347TIP3    H1  982   0.469   5.343   2.134
  347TIP3    H2  983   0.612   5.352   2.086
  348TIP3   OH2  984   8.289   1.686   1.769
  348TIP3    H1  985   8.228   1.683   1.843
  348TIP3    H2  986   8.371   1.653   1.805
  349TIP3   OH2  987   4.938   1.559   0.003
  349TIP3    H1  988   4.940   1.482  -0.054
  349TIP3    H2  989   4.886   1.531   0.079
  350TIP3   OH2  990   3.410   2.771   1.977
  350TIP3    H1  991   3.471   2.746   1.907
  350TIP3    H2  992   3.466   2.811   2.044
  351TIP3   OH2  993   0.614   6.650   3.995
  351TIP3    H1  994   0.686   6.587   3.997
  351TIP3    H2  995   0.578   6.642   3.907
  352TIP3   OH2  996   3.524   5.346   3.772
  352TIP3    H1  997   3.576   5.413   3.727
  352TIP3    H2  998   3.520   5.273   3.711
  353TIP3   OH2  999   0.840   0.255   3.367
  353TIP3    H1 1000   0.925   0.296   3.352
  353TIP3    H2 1001   0.851   0.165   3.335
  354TIP3   OH2 1002   5.809   2.400   2.873
  354TIP3    H1 1003   5.835   2.468   2.935
  354TIP3    H2 1004   5.768   2.332   2.928
  355TIP3   OH2 1005   2.861   2.145   5.929
  355TIP3    H1 1006   2.817   2.213   5.980
  355TIP3    H2 1007   2.908   2.093   5.994
  356TIP3   OH2 1008   4.746   3.775   4.348
  356TIP3    H1 1009   4.800   3.696   4.350
  356TIP3    H2 1010   4.745   3.806   4.438
  357TIP3   OH2 1011   6.005   3.638   1.539
  357TIP3    H1 1012   6.027   3.652   1.632
  357TIP3    H2 1013   6.078   3.586   1.505
  358TIP3   OH2 1014   2.200   5.699   1.920
  358TIP3    H1 1015   2.236   5.733   2.002
  358TIP3    H2 1016   2.277   5.670   1.871
  359TIP3   OH2 1017   6.104   3.515   0.829
  359TIP3    H1 1018   6.171   3.566   0.875
  359TIP3    H2 1019   6.116   3.538   0.737
  360TIP3   OH2 1020   6.208   6.816   0.156
  360TIP3    H1 1021   6.225   6.844   0.246
  360TIP3    H2 1022   6.126   6.861   0.132
  361TIP3   OH2 1023   0.713   7.836   2.153
  361TIP3    H1 1024   0.757   7.881   2.081
  361TIP3    H2 1025   0.717   7.898   2.226
  362TIP3   OH2 1026   5.058   7.579   2.101
  362TIP3    H1 1027   4.986   7.545   2.048
  362TIP3    H2 1028   5.036   7.554   2.191
  363TIP3   OH2 1029   4.190   1.469   3.193
  363TIP3    H1 1030   4.206   1.382   3.229
  363TIP3    H2 1031   4.277   1.507   3.182
  364TIP3   OH2 1032   1.827   3.532   5.309
  364TIP3    H1 1033   1.841   3.491   5.223
  364TIP3    H2 1034   1.860   3.622   5.298
  365TIP3   OH2 1035   8.281   7.709   4.966
  365TIP3    H1 1036   8.326   7.782   4.923
  365TIP3    H2 1037   8.238   7.748   5.042
  366TIP3   OH2 1038   7.593   7.452   0.380
  366TIP3    H1 1039   7.536   7.527   0.365
  366TIP3    H2 1040   7.537   7.387   0.422
  367TIP3   OH2 1041   8.219   6.812   1.368
  367TIP3    H1 1042   8.288   6.792   1.305
  367TIP3    H2 1043   8.245   6.896   1.406
  368TIP3   OH2 1044   0.959   7.476   5.543
  368TIP3    H1 1045   0.928   7.529   5.616
  368TIP3    H2 1046   0.946   7.531   5.466
  369TIP3   OH2 1047   7.102   0.133   1.086
  369TIP3    H1 1048   7.167   0.175   1.030
  369TIP3    H2 1049   7.027   0.118   1.028
  370TIP3   OH2 1050   2.054   5.350   0.536
  370TIP3    H1 1051   2.136   5.301   0.532
  370TIP3    H2 1052   2.031   5.366   0.444
  371TIP3   OH2 1053   4.333   0.150   1.210
  371TIP3    H1 1054   4.302   0.163   1.121
  371TIP3    H2 1055   4.357   0.057   1.214
  372TIP3   OH2 1056   2.104   3.365   3.114
  372TIP3    H1 1057   2.049   3.366   3.035
  372TIP3    H2 1058   2.173   3.302   3.095
  373TIP3   OH2 1059   4.998   5.073   1.046
  373TIP3    H1 1060   5.055   5.055   0.971
  373TIP3    H2 1061   5.058   5.104   1.114
  374TIP3   OH2 1062   1.778   1.457   2.286
  374TIP3    H1 1063   1.815   1.377   2.325
  374TIP3    H2 1064   1.725   1.495   2.356
  375TIP3   OH2 1065   4.120   4.271   6.579
  375TIP3    H1 1066   4.066   4.196   6.555
  375TIP3    H2 1067   4.115   4.275   6.675
  376TIP3   OH2 1068   4.870   0.316   2.279
  376TIP3    H1 1069   4.887   0.291   2.370
  376TIP3    H2 1070   4.919   0.253   2.226
  377TIP3   OH2 1071   0.865   3.256   5.849
  377TIP3    H1 1072   0.939   3.301   5.807
  377TIP3    H2 1073   0.891   3.164   5.851
  378TIP3   OH2 1074   3.826   3.615   1.838
  378TIP3    H1 1075   3.742   3.588   1.799
  378TIP3    H2 1076   3.812   3.604   1.932
  379TIP3   OH2 1077   5.319   1.422   2.131
  379TIP3    H1 1078   5.355   1.494   2.183
  379TIP3    H2 1079   5.366   1.425   2.049
  380TIP3   OH2 1080   0.208   4.894   1.024
  380TIP3    H1 1081   0.118   4.861   1.027
  380TIP3    H2 1082   0.199   4.989   1.021
  381TIP3   OH2 1083   2.267   2.428   6.007
  381TIP3    H1 1084   2.244   2.395   5.920
  381TIP3    H2 1085   2.186   2.420   6.057
  382TIP3   OH2 1086   7.951   0.874   5.857
  382TIP3    H1 1087   8.016   0.809   5.884
  382TIP3    H2 1088   7.990   0.958   5.881
  383TIP3   OH2 1089   7.916   3.418   5.986
  383TIP3    H1 1090   7.982   3.359   6.021
  383TIP3    H2 1091   7.834   3.370   5.993
  384TIP3   OH2 1092   4.819   1.542   3.372
  384TIP3    H1 1093   4.831   1.493   3.454
  384TIP3    H2 1094   4.784   1.477   3.311
  385TIP3   OH2 1095   5.427   4.678   2.731
  385TIP3    H1 1096   5.396   4.658   2.820
  385TIP3    H2 1097   5.450   4.593   2.694
  386TIP3   OH2 1098   4.316   0.950   0.101
  386TIP3    H1 1099   4.247   0.891   0.131
  386TIP3    H2 1100   4.372   0.895   0.047
  387TIP3   OH2 1101   4.186   1.440   1.476
  387TIP3    H1 1102   4.182   1.423   1.382
  387TIP3    H2 1103   4.266   1.490   1.488
  388TIP3   OH2 1104   3.967   0.861   5.668
  388TIP3    H1 1105   4.035   0.912   5.625
  388TIP3    H2 1106   4.015   0.802   5.726
  389TIP3   OH2 1107   5.270   5.844   6.331
  389TIP3    H1 1108   5.334   5.811   6.268
  389TIP3    H2 1109   5.214   5.903   6.281
  390TIP3   OH2 1110   1.659   4.291   1.913
  390TIP3    H1 1111   1.687   4.359   1.975
  390TIP3    H2 1112   1.643   4.214   1.967
  391TIP3   OH2 1113   7.871   1.686   2.141
  391TIP3    H1 1114   7.795   1.743   2.140
  391TIP3    H2 1115   7.859   1.631   2.218
  392TIP3   OH2 1116   5.591   0.173   4.484
  392TIP3    H1 1117   5.558   0.084   4.490
  392TIP3    H2 1118   5.648   0.174   4.408
  393TIP3   OH2 1119   2.490   4.850   4.714
  393TIP3    H1 1120   2.475   4.757   4.701
  393TIP3    H2 1121   2.493   4.862   4.809
  394TIP3   OH2 1122   4.067   5.335   3.168
  394TIP3    H1 1123   4.132   5.396   3.134
  394TIP3    H2 1124   4.059   5.268   3.101
  395TIP3   OH2 1125   3.521   7.222   0.552
  395TIP3    H1 1126   3.473   7.145   0.581
  395TIP3    H2 1127   3.472   7.296   0.589
  396TIP3   OH2 1128   6.057   5.594   4.649
  396TIP3    H1 1129   6.133   5.651   4.639
  396TIP3    H2 1130   6.089   5.517   4.696
  397TIP3   OH2 1131   8.374   3.753   1.801
  397TIP3    H1 1132   8.464   3.725   1.788
  397TIP3    H2 1133   8.378   3.813   1.876
  398TIP3   OH2 1134   4.654   1.829   1.146
  398TIP3    H1 1135   4.573   1.851   1.100
  398TIP3    H2 1136   4.645   1.736   1.166
  399TIP3   OH2 1137   1.217   2.654   2.446
  399TIP3    H1 1138   1.214   2.614   2.533
  399TIP3    H2 1139   1.309   2.674   2.431
  400TIP3   OH2 1140   0.610   5.006   0.955
  400TIP3    H1 1141   0.566   4.982   1.036
  400TIP3    H2 1142   0.674   4.937   0.941
  401TIP3   OH2 1143   5.117   5.733   3.026
  401TIP3    H1 1144   5.179   5.680   2.976
  401TIP3    H2 1145   5.032   5.712   2.988
  402TIP3   OH2 1146   5.972   3.750   1.788
  402TIP3    H1 1147   5.896   3.699   1.817
  402TIP3    H2 1148   5.953   3.839   1.816
  403TIP3   OH2 1149   4.320   7.596   4.968
  403TIP3    H1 1150   4.403   7.549   4.980
  403TIP3    H2 1151   4.345   7.688   4.966
  404TIP3   OH2 1152   1.976   2.585   1.555
  404TIP3    H1 1153   2.012   2.496   1.549
  404TIP3    H2 1154   2.044   2.635   1.599
  405TIP3   OH2 1155   2.040   1.288   1.652
  405TIP3    H1 1156   1.993   1.211   1.684
  405TIP3    H2 1157   1.977   1.359   1.658
  406TIP3   OH2 1158   4.624   5.589   2.249
  406TIP3    H1 1159   4.572   5.670   2.261
  406TIP3    H2 1160   4.714   5.620   2.237
  407TIP3   OH2 1161   2.301   2.851   2.937
  407TIP3    H1 1162   2.211   2.820   2.930
  407TIP3    H2 1163   2.300   2.940   2.901
  408TIP3   OH2 1164   0.200   0.418   3.131
  408TIP3    H1 1165   0.227   0.361   3.060
  408TIP3    H2 1166   0.113   0.387   3.156
  409TIP3   OH2 1167   4.185   5.165   3.710
  409TIP3    H1 1168   4.110   5.107   3.717
  409TIP3    H2 1169   4.254   5.121   3.761
  410TIP3   OH2 1170   7.671   1.034   0.895
  410TIP3    H1 1171   7.722   0.954   0.907
  410TIP3    H2 1172   7.596   1.024   0.954
  411TIP3   OH2 1173   0.305   1.585   0.396
  411TIP3    H1 1174   0.335   1.510   0.344
  411TIP3    H2 1175   0.385   1.632   0.419
  412TIP3   OH2 1176   5.484   3.569   5.574
  412TIP3    H1 1177   5.577   3.582   5.557
  412TIP3    H2 1178   5.449   3.531   5.493
  413TIP3   OH2 1179   7.294   0.570   3.984
  413TIP3    H1 1180   7.298   0.517   4.063
  413TIP3    H2 1181   7.203   0.599   3.978
  414TIP3   OH2 1182   7.067   1.845   1.010
  414TIP3    H1 1183   7.045   1.798   1.090
  414TIP3    H2 1184   7.098   1.930   1.041
  415TIP3   OH2 1185   4.027   0.982   0.768
  415TIP3    H1 1186   4.105   0.974   0.713
  415TIP3    H2 1187   4.043   1.061   0.820
  416TIP3   OH2 1188   4.597   2.750   5.004
  416TIP3    H1 1189   4.677   2.783   4.962
  416TIP3    H2 1190   4.622   2.737   5.095
  417TIP3   OH2 1191   4.087   3.646   6.338
  417TIP3    H1 1192   4.019   3.582   6.357
  417TIP3    H2 1193   4.169   3.603   6.364
  418TIP3   OH2 1194   3.730   1.459   1.094
  418TIP3    H1 1195   3.752   1.383   1.040
  418TIP3    H2 1196   3.780   1.531   1.055
  419TIP3   OH2 1197   6.340   1.890   0.808
  419TIP3    H1 1198   6.365   1.868   0.898
  419TIP3    H2 1199   6.423   1.905   0.763
  420TIP3   OH2 1200   8.373   7.893   4.775
  420TIP3    H1 1201   8.410   7.826   4.718
  420TIP3    H2 1202   8.429   7.969   4.762
  421TIP3   OH2 1203   4.441   6.346   2.863
  421TIP3    H1 1204   4.373   6.413   2.857
  421TIP3    H2 1205   4.430   6.309   2.951
  422TIP3   OH2 1206   6.325   4.701   1.146
  422TIP3    H1 1207   6.283   4.615   1.146
  422TIP3    H2 1208   6.279   4.751   1.079
  423TIP3   OH2 1209   1.011   5.123   5.441
  423TIP3    H1 1210   1.051   5.102   5.526
  423TIP3    H2 1211   1.066   5.192   5.405
  424TIP3   OH2 1212   4.575   1.522   1.144
  424TIP3    H1 1213   4.571   1.473   1.062
  424TIP3    H2 1214   4.637   1.472   1.199
  425TIP3   OH2 1215   0.319   7.373   0.170
  425TIP3    H1 1216   0.290   7.460   0.199
  425TIP3    H2 1217   0.414   7.382   0.159
  426TIP3   OH2 1218   3.983   2.359   1.922
  426TIP3    H1 1219   4.022   2.412   1.991
  426TIP3    H2 1220   3.969   2.421   1.850
  427TIP3   OH2 1221   7.738   5.308   6.662
  427TIP3    H1 1222   7.679   5.339   6.594
  427TIP3    H2 1223   7.819   5.284   6.616
  428TIP3   OH2 1224   2.072   4.175   1.739
  428TIP3    H1 1225   2.017   4.117   1.685
  428TIP3    H2 1226   2.013   4.205   1.808
  429TIP3   OH2 1227   1.091   1.854   5.845
  429TIP3    H1 1228   1.003   1.885   5.863
  429TIP3    H2 1229   1.138   1.933   5.814
  430TIP3   OH2 1230   5.130   0.367   1.939
  430TIP3    H1 1231   5.121   0.449   1.987
  430TIP3    H2 1232   5.104   0.300   2.003
  431TIP3   OH2 1233   8.260   0.265   0.037
  431TIP3    H1 1234   8.308   0.262   0.119
  431TIP3    H2 1235   8.261   0.175   0.005
  432TIP3   OH2 1236   8.334   1.867   3.114
  432TIP3    H1 1237   8.413   1.834   3.156
  432TIP3    H2 1238   8.262   1.823   3.159
  433TIP3   OH2 1239   6.566   1.601   6.641
  433TIP3    H1 1240   6.544   1.509   6.653
  433TIP3    H2 1241   6.482   1.646   6.647
  434TIP3   OH2 1242   1.013   4.460   0.007
  434TIP3    H1 1243   0.988   4.495   0.093
  434TIP3    H2 1244   1.085   4.400   0.026
  435TIP3   OH2 1245   5.824   5.572   6.461
  435TIP3    H1 1246   5.759   5.573   6.390
  435TIP3    H2 1247   5.892   5.511   6.431
  436TIP3   OH2 1248   7.355   1.778   2.501
  436TIP3    H1 1249   7.262   1.765   2.518
  436TIP3    H2 1250   7.379   1.853   2.556
  437TIP3   OH2 1251   6.952   7.863   3.132
  437TIP3    H1 1252   6.906   7.812   3.198
  437TIP3    H2 1253   7.002   7.928   3.182
  438TIP3   OH2 1254   5.817   7.785   6.309
  438TIP3    H1 1255   5.838   7.878   6.300
  438TIP3    H2 1256   5.725   7.784   6.337
  439TIP3   OH2 1257   3.991   0.799   6.723
  439TIP3    H1 1258   3.921   0.738   6.746
  439TIP3    H2 1259   3.948   0.883   6.715
  440TIP3   OH2 1260   7.477   7.103   3.247
  440TIP3    H1 1261   7.396   7.153   3.253
  440TIP3    H2 1262   7.529   7.150   3.182
  441TIP3   OH2 1263   5.009   5.041   4.205
  441TIP3    H1 1264   5.037   5.049   4.114
  441TIP3    H2 1265   5.090   5.039   4.256
  442TIP3   OH2 1266   4.082   4.096   2.021
  442TIP3    H1 1267   4.025   4.021   2.040
  442TIP3    H2 1268   4.066   4.157   2.093
  443TIP3   OH2 1269   6.286   4.313   0.129
  443TIP3    H1 1270   6.272   4.363   0.049
  443TIP3    H2 1271   6.338   4.371   0.185
  444TIP3   OH2 1272   5.141   0.123   6.504
  444TIP3    H1 1273   5.195   0.053   6.468
  444TIP3    H2 1274   5.198   0.167   6.567
  445TIP3   OH2 1275   0.561   2.934   2.224
  445TIP3    H1 1276   0.632   2.918   2.286
  445TIP3    H2 1277   0.521   3.015   2.253
  446TIP3   OH2 1278   5.913   1.204   5.927
  446TIP3    H1 1279   5.964   1.146   5.984
  446TIP3    H2 1280   5.829   1.214   5.974
  447TIP3   OH2 1281   3.133   1.948   4.982
  447TIP3    H1 1282   3.191   1.899   5.040
  447TIP3    H2 1283   3.188   1.970   4.907
  448TIP3   OH2 1284   7.916   0.619   6.334
  448TIP3    H1 1285   7.974   0.609   6.410
  448TIP3    H2 1286   7.920   0.712   6.313
  449TIP3   OH2 1287   5.485   0.110   1.343
  449TIP3    H1 1288   5.437   0.192   1.335
  449TIP3    H2 1289   5.424   0.043   1.312
  450TIP3   OH2 1290   0.999   0.533   1.352
  450TIP3    H1 1291   1.034   0.562   1.436
  450TIP3    H2 1292   0.912   0.499   1.372
  451TIP3   OH2 1293   2.534   4.493   3.211
  451TIP3    H1 1294   2.569   4.430   3.275
  451TIP3    H2 1295   2.563   4.460   3.126
  452TIP3   OH2 1296   1.404   6.091   3.436
  452TIP3    H1 1297   1.317   6.060   3.411
  452TIP3    H2 1298   1.444   6.017   3.481
  453TIP3   OH2 1299   5.905   2.685   1.452
  453TIP3    H1 1300   5.962   2.688   1.529
  453TIP3    H2 1301   5.879   2.777   1.437
  454TIP3   OH2 1302   7.704   1.085   3.217
  454TIP3    H1 1303   7.694   1.072   3.123
  454TIP3    H2 1304   7.710   1.180   3.228
  455TIP3   OH2 1305   2.841   4.469   6.671
  455TIP3    H1 1306   2.753   4.508   6.669
  455TIP3    H2 1307   2.898   4.537   6.635
  456TIP3   OH2 1308   3.413   0.420   0.724
  456TIP3    H1 1309   3.422   0.386   0.813
  456TIP3    H2 1310   3.325   0.457   0.722
  457TIP3   OH2 1311   1.095   3.236   5.007
  457TIP3    H1 1312   1.059   3.150   4.983
  457TIP3    H2 1313   1.019   3.289   5.029
  458TIP3   OH2 1314   3.797   7.850   1.018
  458TIP3    H1 1315   3.847   7.932   1.015
  458TIP3    H2 1316   3.770   7.835   0.927
  459TIP3   OH2 1317   8.019   4.126   3.247
  459TIP3    H1 1318   8.010   4.137   3.152
  459TIP3    H2 1319   7.935   4.156   3.283
  460TIP3   OH2 1320   2.672   7.885   3.079
  460TIP3    H1 1321   2.750   7.874   3.133
  460TIP3    H2 1322   2.690   7.833   3.000
  461TIP3   OH2 1323   4.019   0.585   4.787
  461TIP3    H1 1324   3.974   0.655   4.833
  461TIP3    H2 1325   4.032   0.618   4.698
  462TIP3   OH2 1326   7.298   6.910   1.845
  462TIP3    H1 1327   7.211   6.903   1.884
  462TIP3    H2 1328   7.357   6.869   1.908
  463TIP3   OH2 1329   8.035   0.789   3.219
  463TIP3    H1 1330   7.970   0.843   3.264
  463TIP3    H2 1331   8.071   0.847   3.152
  464TIP3   OH2 1332   5.207   2.455   5.238
  464TIP3    H1 1333   5.245   2.410   5.314
  464TIP3    H2 1334   5.238   2.404   5.163
  465TIP3   OH2 1335   1.537   4.631   5.557
  465TIP3    H1 1336   1.470   4.626   5.625
  465TIP3    H2 1337   1.611   4.674   5.599
  466TIP3   OH2 1338   5.220   1.546   4.656
  466TIP3    H1 1339   5.200   1.467   4.706
  466TIP3    H2 1340   5.217   1.518   4.564
  467TIP3   OH2 1341   3.714   5.320   5.009
  467TIP3    H1 1342   3.785   5.261   5.035
  467TIP3    H2 1343   3.691   5.367   5.089
  468TIP3   OH2 1344   6.417   3.639   2.726
  468TIP3    H1 1345   6.409   3.683   2.641
  468TIP3    H2 1346   6.445   3.550   2.704
  469TIP3   OH2 1347   2.698   2.537   3.113
  469TIP3    H1 1348   2.731   2.557   3.201
  469TIP3    H2 1349   2.705   2.620   3.065
  470TIP3   OH2 1350   7.737   6.711   0.000
  470TIP3    H1 1351   7.700   6.632   0.041
  470TIP3    H2 1352   7.830   6.690  -0.011
  471TIP3   OH2 1353   0.779   4.149   3.587
  471TIP3    H1 1354   0.760   4.242   3.589
  471TIP3    H2 1355   0.754   4.120   3.499
  472TIP3   OH2 1356   2.973   0.321   2.084
  472TIP3    H1 1357   3.021   0.396   2.120
  472TIP3    H2 1358   3.026   0.245   2.109
  473TIP3   OH2 1359   4.420   5.544   1.120
  473TIP3    H1 1360   4.389   5.501   1.200
  473TIP3    H2 1361   4.515   5.539   1.125
  474TIP3   OH2 1362   5.872   2.922   6.124
  474TIP3    H1 1363   5.896   2.984   6.055
  474TIP3    H2 1364   5.954   2.906   6.170
  475TIP3   OH2 1365   4.381   1.143   2.327
  475TIP3    H1 1366   4.324   1.068   2.342
  475TIP3    H2 1367   4.466   1.117   2.361
  476TIP3   OH2 1368   6.320   0.339   1.636
  476TIP3    H1 1369   6.269   0.324   1.556
  476TIP3    H2 1370   6.266   0.399   1.687
  477TIP3   OH2 1371   2.565   1.815   5.753
  477TIP3    H1 1372   2.513   1.748   5.707
  477TIP3    H2 1373   2.500   1.866   5.802
  478TIP3   OH2 1374   7.917   2.598   1.462
  478TIP3    H1 1375   7.959   2.645   1.534
  478TIP3    H2 1376   7.988   2.549   1.421
  479TIP3   OH2 1377   6.669   0.972   4.062
  479TIP3    H1 1378   6.597   0.909   4.057
  479TIP3    H2 1379   6.683   0.986   4.156
  480TIP3   OH2 1380   6.853   4.340   3.745
  480TIP3    H1 1381   6.780   4.398   3.724
  480TIP3    H2 1382   6.925   4.372   3.690
  481TIP3   OH2 1383   1.360   7.033   3.067
  481TIP3    H1 1384   1.454   7.034   3.053
  481TIP3    H2 1385   1.338   6.940   3.075
  482TIP3   OH2 1386   2.190   4.705   0.099
  482TIP3    H1 1387   2.274   4.713   0.145
  482TIP3    H2 1388   2.214   4.703   0.006
  483TIP3   OH2 1389   1.400   1.113   0.792
  483TIP3    H1 1390   1.328   1.148   0.845
  483TIP3    H2 1391   1.479   1.144   0.835
  484TIP3   OH2 1392   7.613   0.241   3.351
  484TIP3    H1 1393   7.586   0.331   3.333
  484TIP3    H2 1394   7.533   0.198   3.383
  485TIP3   OH2 1395   6.968   7.303   1.989
  485TIP3    H1 1396   7.039   7.339   2.043
  485TIP3    H2 1397   6.929   7.234   2.044
  486TIP3   OH2 1398   0.754   2.163   5.588
  486TIP3    H1 1399   0.828   2.195   5.640
  486TIP3    H2 1400   0.698   2.118   5.651
  487TIP3   OH2 1401   6.532   7.080   2.344
  487TIP3    H1 1402   6.577   7.021   2.404
  487TIP3    H2 1403   6.461   7.026   2.307
  488TIP3   OH2 1404   2.066   1.687   6.280
  488TIP3    H1 1405   2.156   1.656   6.289
  488TIP3    H2 1406   2.030   1.681   6.368
  489TIP3   OH2 1407   0.080   5.343   6.114
  489TIP3    H1 1408   0.076   5.412   6.047
  489TIP3    H2 1409   0.123   5.384   6.189
  490TIP3   OH2 1410   1.713   0.813   4.934
  490TIP3    H1 1411   1.786   0.837   4.877
  490TIP3    H2 1412   1.648   0.882   4.920
  491TIP3   OH2 1413   1.201   1.732   0.044
  491TIP3    H1 1414   1.182   1.800  -0.020
  491TIP3    H2 1415   1.295   1.715   0.034
  492TIP3   OH2 1416   4.391   0.181   0.293
  492TIP3    H1 1417   4.315   0.192   0.349
  492TIP3    H2 1418   4.374   0.236   0.217
  493TIP3   OH2 1419   0.941   5.029   1.078
  493TIP3    H1 1420   0.926   5.110   1.126
  493TIP3    H2 1421   0.929   5.053   0.986
  494TIP3   OH2 1422   3.247   0.872   4.203
  494TIP3    H1 1423   3.181   0.879   4.272
  494TIP3    H2 1424   3.246   0.779   4.178
  495TIP3   OH2 1425   6.590   1.863   4.788
  495TIP3    H1 1426   6.592   1.807   4.866
  495TIP3    H2 1427   6.513   1.919   4.802
  496TIP3   OH2 1428   2.973   1.213   4.152
  496TIP3    H1 1429   2.944   1.285   4.096
  496TIP3    H2 1430   2.894   1.161   4.166
  497TIP3   OH2 1431   1.824   6.527   5.897
  497TIP3    H1 1432   1.748   6.485   5.938
  497TIP3    H2 1433   1.811   6.620   5.912
  498TIP3   OH2 1434   1.421   0.316   3.414
  498TIP3    H1 1435   1.416   0.367   3.495
  498TIP3    H2 1436   1.515   0.313   3.394
  499TIP3   OH2 1437   1.630   2.535   6.496
  499TIP3    H1 1438   1.717   2.513   6.461
  499TIP3    H2 1439   1.648   2.584   6.576
  500TIP3   OH2 1440   7.512   3.842   3.845
  500TIP3    H1 1441   7.518   3.763   3.900
  500TIP3    H2 1442   7.469   3.811   3.765
  501TIP3   OH2 1443   2.342   3.136   4.855
  501TIP3    H1 1444   2.348   3.080   4.777
  501TIP3    H2 1445   2.407   3.204   4.839
  502TIP3   OH2 1446   1.547   1.732   1.235
  502TIP3    H1 1447   1.631   1.726   1.191
  502TIP3    H2 1448   1.535   1.826   1.252
  503TIP3   OH2 1449   4.389   2.658   3.468
  503TIP3    H1 1450   4.430   2.605   3.537
  503TIP3    H2 1451   4.445   2.644   3.392
  504TIP3   OH2 1452   4.126   1.980   1.875
  504TIP3    H1 1453   4.057   1.998   1.939
  504TIP3    H2 1454   4.202   1.956   1.929
  505TIP3   OH2 1455   5.608   6.422   3.916
  505TIP3    H1 1456   5.549   6.383   3.980
  505TIP3    H2 1457   5.597   6.517   3.928
  506TIP3   OH2 1458   7.790   7.682   5.031
  506TIP3    H1 1459   7.874   7.691   4.985
  506TIP3    H2 1460   7.806   7.616   5.098
  507TIP3   OH2 1461   5.963   2.353   6.310
  507TIP3    H1 1462   5.997   2.436   6.275
  507TIP3    H2 1463   5.940   2.373   6.401
  508TIP3   OH2 1464   2.325   3.983   0.086
  508TIP3    H1 1465   2.330   4.066   0.134
  508TIP3    H2 1466   2.249   3.993   0.028
  509TIP3   OH2 1467   1.991   2.760   5.500
  509TIP3    H1 1468   2.043   2.818   5.556
  509TIP3    H2 1469   2.005   2.793   5.412
  510TIP3   OH2 1470   2.250   0.830   1.614
  510TIP3    H1 1471   2.197   0.751   1.602
  510TIP3    H2 1472   2.334   0.798   1.646
  511TIP3   OH2 1473   4.717   6.694   1.441
  511TIP3    H1 1474   4.747   6.745   1.516
  511TIP3    H2 1475   4.638   6.650   1.472
  512TIP3   OH2 1476   2.908   0.844   2.689
  512TIP3    H1 1477   2.949   0.921   2.649
  512TIP3    H2 1478   2.827   0.877   2.728
  513TIP3   OH2 1479   5.132   6.437   1.872
  513TIP3    H1 1480   5.131   6.349   1.910
  513TIP3    H2 1481   5.040   6.466   1.876
  514TIP3   OH2 1482   2.728   3.162   1.316
  514TIP3    H1 1483   2.633   3.173   1.322
  514TIP3    H2 1484   2.741   3.068   1.304
  515TIP3   OH2 1485   2.154   4.457   0.231
  515TIP3    H1 1486   2.168   4.541   0.187
  515TIP3    H2 1487   2.120   4.399   0.163
  516TIP3   OH2 1488   6.733   7.401   5.653
  516TIP3    H1 1489   6.668   7.461   5.691
  516TIP3    H2 1490   6.797   7.459   5.612
  517TIP3   OH2 1491   1.708   5.159   6.738
  517TIP3    H1 1492   1.769   5.228   6.713
  517TIP3    H2 1493   1.645   5.202   6.795
  518TIP3   OH2 1494   1.789   5.946   3.153
  518TIP3    H1 1495   1.744   6.003   3.215
  518TIP3    H2 1496   1.758   5.858   3.173
  519TIP3   OH2 1497   4.270   3.186   1.940
  519TIP3    H1 1498   4.212   3.150   2.007
  519TIP3    H2 1499   4.358   3.174   1.975
  520TIP3   OH2 1500   0.594   1.006   4.393
  520TIP3    H1 1501   0.642   0.935   4.351
  520TIP3    H2 1502   0.638   1.018   4.477
  521TIP3   OH2 1503   3.132   5.578   6.544
  521TIP3    H1 1504   3.061   5.541   6.596
  521TIP3    H2 1505   3.192   5.505   6.529
  522TIP3   OH2 1506   1.881   7.266   1.655
  522TIP3    H1 1507   1.815   7.225   1.598
  522TIP3    H2 1508   1.915   7.193   1.707
  523TIP3   OH2 1509   3.720   5.048   2.085
  523TIP3    H1 1510   3.724   5.107   2.010
  523TIP3    H2 1511   3.721   4.960   2.047
  524TIP3   OH2 1512   5.791   0.016   4.272
  524TIP3    H1 1513   5.763  -0.006   4.183
  524TIP3    H2 1514   5.874   0.061   4.261
  525TIP3   OH2 1515   3.838  -0.013   1.337
  525TIP3    H1 1516   3.903   0.052   1.363
  525TIP3    H2 1517   3.810   0.016   1.249
  526TIP3   OH2 1518   2.188   2.990   5.006
  526TIP3    H1 1519   2.255   3.030   4.950
  526TIP3    H2 1520   2.115   2.973   4.947
  527TIP3   OH2 1521   3.813   3.177   0.948
  527TIP3    H1 1522   3.833   3.083   0.946
  527TIP3    H2 1523   3.879   3.217   0.891
  528TIP3   OH2 1524   7.339   7.545   2.977
  528TIP3    H1 1525   7.429   7.565   3.004
  528TIP3    H2 1526   7.346   7.517   2.886
  529TIP3   OH2 1527   8.268   1.044   3.261
  529TIP3    H1 1528   8.221   1.049   3.178
  529TIP3    H2 1529   8.239   1.122   3.310
  530TIP3   OH2 1530   0.403   5.262   2.458
  530TIP3    H1 1531   0.322   5.309   2.435
  530TIP3    H2 1532   0.392   5.239   2.550
  531TIP3   OH2 1533   5.835   4.886   1.496
  531TIP3    H1 1534   5.849   4.974   1.532
  531TIP3    H2 1535   5.739   4.877   1.495
  532TIP3   OH2 1536   7.793   6.221   4.874
  532TIP3    H1 1537   7.812   6.155   4.807
  532TIP3    H2 1538   7.699   6.210   4.892
  533TIP3   OH2 1539   3.432   7.583   5.741
  533TIP3    H1 1540   3.343   7.549   5.732
  533TIP3    H2 1541   3.443   7.643   5.668
  534TIP3   OH2 1542   0.255   3.299   2.545
  534TIP3    H1 1543   0.274   3.206   2.559
  534TIP3    H2 1544   0.179   3.317   2.600
  535TIP3   OH2 1545   3.091   1.462   6.625
  535TIP3    H1 1546   3.069   1.380   6.669
  535TIP3    H2 1547   3.119   1.435   6.537
  536TIP3   OH2 1548   5.233   0.804   6.623
  536TIP3    H1 1549   5.214   0.871   6.557
  536TIP3    H2 1550   5.282   0.850   6.691
  537TIP3   OH2 1551   4.700   6.848   5.289
  537TIP3    H1 1552   4.739   6.761   5.281
  537TIP3    H2 1553   4.624   6.835   5.345
  538TIP3   OH2 1554   0.891   0.970   0.615
  538TIP3    H1 1555   0.876   1.062   0.594
  538TIP3    H2 1556   0.898   0.927   0.529
  539TIP3   OH2 1557   7.190   4.597   1.356
  539TIP3    H1 1558   7.270   4.567   1.399
  539TIP3    H2 1559   7.204   4.691   1.344
  540TIP3   OH2 1560   7.929   4.896   1.693
  540TIP3    H1 1561   7.946   4.853   1.609
  540TIP3    H2 1562   7.991   4.857   1.754
  541TIP3   OH2 1563   6.717   1.066   5.919
  541TIP3    H1 1564   6.639   1.114   5.946
  541TIP3    H2 1565   6.780   1.134   5.896
  542TIP3   OH2 1566   0.337   6.119   1.805
  542TIP3    H1 1567   0.273   6.125   1.734
  542TIP3    H2 1568   0.362   6.209   1.824
  543TIP3   OH2 1569   4.934   6.394   3.176
  543TIP3    H1 1570   4.886   6.335   3.118
  543TIP3    H2 1571   4.956   6.469   3.121
  544TIP3   OH2 1572   0.815   7.292   0.121
  544TIP3    H1 1573   0.860   7.248   0.193
  544TIP3    H2 1574   0.768   7.222   0.075
  545TIP3   OH2 1575   1.906   5.094   0.552
  545TIP3    H1 1576   1.984   5.127   0.597
  545TIP3    H2 1577   1.901   5.147   0.472
  546TIP3   OH2 1578   5.696   2.539   0.323
  546TIP3    H1 1579   5.684   2.571   0.412
  546TIP3    H2 1580   5.723   2.448   0.334
  547TIP3   OH2 1581   1.883   2.730   2.315
  547TIP3    H1 1582   1.811   2.689   2.362
  547TIP3    H2 1583   1.843   2.803   2.268
  548TIP3   OH2 1584   7.519   5.501   0.263
  548TIP3    H1 1585   7.558   5.582   0.230
  548TIP3    H2 1586   7.476   5.462   0.187
  549TIP3   OH2 1587   4.306   2.608   6.059
  549TIP3    H1 1588   4.354   2.570   5.985
  549TIP3    H2 1589   4.214   2.589   6.040
  550TIP3   OH2 1590   2.527   7.315   2.302
  550TIP3    H1 1591   2.552   7.378   2.370
  550TIP3    H2 1592   2.527   7.366   2.221
  551TIP3   OH2 1593   0.288   4.450   2.345
  551TIP3    H1 1594   0.381   4.447   2.322
  551TIP3    H2 1595   0.243   4.431   2.263
  552TIP3   OH2 1596   1.496   3.474   6.007
  552TIP3    H1 1597   1.570   3.507   6.059
  552TIP3    H2 1598   1.427   3.458   6.071
  553TIP3   OH2 1599   2.612   7.499   2.480
  553TIP3    H1 1600   2.690   7.455   2.514
  553TIP3    H2 1601   2.559   7.517   2.558
  554TIP3   OH2 1602   2.398   2.546   1.977
  554TIP3    H1 1603   2.380   2.543   1.883
  554TIP3    H2 1604   2.403   2.639   1.998
  555TIP3   OH2 1605   0.118   2.166   5.332
  555TIP3    H1 1606   0.084   2.198   5.249
  555TIP3    H2 1607   0.197   2.118   5.309
  556TIP3   OH2 1608   7.802   1.381   1.903
  556TIP3    H1 1609   7.872   1.373   1.838
  556TIP3    H2 1610   7.753   1.458   1.876
  557TIP3   OH2 1611   1.162   7.131   5.603
  557TIP3    H1 1612   1.088   7.116   5.662
  557TIP3    H2 1613   1.165   7.226   5.592
  558TIP3   OH2 1614   7.910   4.421   1.856
  558TIP3    H1 1615   7.835   4.377   1.815
  558TIP3    H2 1616   7.871   4.496   1.902
  559TIP3   OH2 1617   2.600   4.001   6.493
  559TIP3    H1 1618   2.547   3.933   6.451
  559TIP3    H2 1619   2.615   4.065   6.424
  560TIP3   OH2 1620   3.306   0.736   2.596
  560TIP3    H1 1621   3.262   0.815   2.628
  560TIP3    H2 1622   3.312   0.678   2.672
  561TIP3   OH2 1623   1.302   1.143   3.315
  561TIP3    H1 1624   1.273   1.225   3.273
  561TIP3    H2 1625   1.277   1.153   3.407
  562TIP3   OH2 1626   2.659   0.764   6.067
  562TIP3    H1 1627   2.684   0.686   6.018
  562TIP3    H2 1628   2.564   0.771   6.055
  563TIP3   OH2 1629   0.469   0.066   2.842
  563TIP3    H1 1630   0.543   0.018   2.877
  563TIP3    H2 1631   0.466   0.042   2.749
  564TIP3   OH2 1632   4.960   6.908   1.374
  564TIP3    H1 1633   5.006   6.837   1.419
  564TIP3    H2 1634   4.996   6.988   1.412
  565TIP3   OH2 1635   1.731   7.494   0.354
  565TIP3    H1 1636   1.783   7.445   0.418
  565TIP3    H2 1637   1.640   7.482   0.382
  566TIP3   OH2 1638   0.885   4.708   0.756
  566TIP3    H1 1639   0.955   4.758   0.713
  566TIP3    H2 1640   0.840   4.663   0.685
  567TIP3   OH2 1641   7.507   3.137   0.469
  567TIP3    H1 1642   7.461   3.054   0.477
  567TIP3    H2 1643   7.439   3.200   0.444
  568TIP3   OH2 1644   6.825   7.921   1.733
  568TIP3    H1 1645   6.741   7.876   1.736
  568TIP3    H2 1646   6.870   7.883   1.657
  569TIP3   OH2 1647   1.337   7.642   1.741
  569TIP3    H1 1648   1.265   7.595   1.782
  569TIP3    H2 1649   1.395   7.667   1.813
  570TIP3   OH2 1650   7.650   7.228   4.307
  570TIP3    H1 1651   7.741   7.231   4.335
  570TIP3    H2 1652   7.653   7.199   4.216
  571TIP3   OH2 1653   6.732   1.090   6.402
  571TIP3    H1 1654   6.724   1.075   6.497
  571TIP3    H2 1655   6.719   1.004   6.363
  572TIP3   OH2 1656   6.935   6.578   2.316
  572TIP3    H1 1657   6.950   6.526   2.238
  572TIP3    H2 1658   6.852   6.545   2.351
  573TIP3   OH2 1659   4.736   3.022   2.717
  573TIP3    H1 1660   4.790   3.090   2.677
  573TIP3    H2 1661   4.766   3.018   2.808
  574TIP3   OH2 1662   4.860   4.348   3.082
  574TIP3    H1 1663   4.867   4.353   3.177
  574TIP3    H2 1664   4.949   4.330   3.052
  575TIP3   OH2 1665   6.729   7.773   0.057
  575TIP3    H1 1666   6.744   7.693   0.007
  575TIP3    H2 1667   6.694   7.835  -0.007
  576TIP3   OH2 1668   4.175   6.817   5.405
  576TIP3    H1 1669   4.092   6.771   5.388
  576TIP3    H2 1670   4.148   6.895   5.454
  577TIP3   OH2 1671   6.386   5.733   1.526
  577TIP3    H1 1672   6.456   5.788   1.560
  577TIP3    H2 1673   6.311   5.752   1.581
  578TIP3   OH2 1674   1.296   1.593   6.486
  578TIP3    H1 1675   1.224   1.550   6.440
  578TIP3    H2 1676   1.273   1.686   6.486
  579TIP3   OH2 1677   3.225   1.293   4.216
  579TIP3    H1 1678   3.234   1.347   4.138
  579TIP3    H2 1679   3.131   1.278   4.225
  580TIP3   OH2 1680   5.066   3.731   4.400
  580TIP3    H1 1681   5.020   3.648   4.385
  580TIP3    H2 1682   5.158   3.706   4.411
  581TIP3   OH2 1683   2.731   2.251   4.702
  581TIP3    H1 1684   2.727   2.175   4.644
  581TIP3    H2 1685   2.805   2.235   4.759
  582TIP3   OH2 1686   3.160   2.789   3.641
  582TIP3    H1 1687   3.237   2.736   3.662
  582TIP3    H2 1688   3.164   2.862   3.703
  583TIP3   OH2 1689   0.372   4.197   0.180
  583TIP3    H1 1690   0.411   4.117   0.215
  583TIP3    H2 1691   0.296   4.213   0.237
  584TIP3   OH2 1692   4.971   2.897   1.856
  584TIP3    H1 1693   5.042   2.862   1.910
  584TIP3    H2 1694   4.976   2.847   1.775
  585TIP3   OH2 1695   1.446   6.856   3.813
  585TIP3    H1 1696   1.432   6.762   3.821
  585TIP3    H2 1697   1.421   6.892   3.898
  586TIP3   OH2 1698   2.292   5.802   0.296
  586TIP3    H1 1699   2.290   5.771   0.205
  586TIP3    H2 1700   2.201   5.797   0.325
  587TIP3   OH2 1701   1.563   5.295   4.447
  587TIP3    H1 1702   1.586   5.214   4.401
  587TIP3    H2 1703   1.635   5.355   4.428
  588TIP3   OH2 1704   6.983   0.238   4.641
  588TIP3    H1 1705   7.055   0.201   4.691
  588TIP3    H2 1706   6.906   0.187   4.667
  589TIP3   OH2 1707   1.721   3.757   3.771
  589TIP3    H1 1708   1.753   3.747   3.682
  589TIP3    H2 1709   1.709   3.667   3.802
  590TIP3   OH2 1710   7.612   4.149   0.514
  590TIP3    H1 1711   7.570   4.196   0.442
  590TIP3    H2 1712   7.699   4.126   0.482
  591TIP3   OH2 1713   4.443   3.812   3.039
  591TIP3    H1 1714   4.433   3.799   2.944
  591TIP3    H2 1715   4.442   3.907   3.050
  592TIP3   OH2 1716   1.551   6.778   2.576
  592TIP3    H1 1717   1.544   6.868   2.544
  592TIP3    H2 1718   1.527   6.723   2.502
  593TIP3   OH2 1719   2.635   5.451   0.904
  593TIP3    H1 1720   2.597   5.363   0.907
  593TIP3    H2 1721   2.650   5.467   0.811
  594TIP3   OH2 1722   0.481   5.408   4.824
  594TIP3    H1 1723   0.500   5.447   4.738
  594TIP3    H2 1724   0.566   5.377   4.855
  595TIP3   OH2 1725   4.876   6.580   1.244
  595TIP3    H1 1726   4.957   6.631   1.241
  595TIP3    H2 1727   4.821   6.626   1.307
  596TIP3   OH2 1728   7.318   6.980   0.686
  596TIP3    H1 1729   7.309   6.887   0.664
  596TIP3    H2 1730   7.412   6.993   0.696
  597TIP3   OH2 1731   2.622   2.115   6.115
  597TIP3    H1 1732   2.661   2.030   6.098
  597TIP3    H2 1733   2.534   2.110   6.076
  598TIP3   OH2 1734   1.270   1.113   4.533
  598TIP3    H1 1735   1.217   1.161   4.596
  598TIP3    H2 1736   1.259   1.021   4.557
  599TIP3   OH2 1737   3.254   4.695   5.842
  599TIP3    H1 1738   3.240   4.606   5.809
  599TIP3    H2 1739   3.207   4.697   5.926
  600TIP3   OH2 1740   7.269   0.426   6.148
  600TIP3    H1 1741   7.289   0.519   6.149
  600TIP3    H2 1742   7.189   0.417   6.199
  601TIP3   OH2 1743   0.227   6.169   6.277
  601TIP3    H1 1744   0.262   6.192   6.191
  601TIP3    H2 1745   0.198   6.079   6.267
  602TIP3   OH2 1746   4.679   5.401   5.858
  602TIP3    H1 1747   4.649   5.366   5.942
  602TIP3    H2 1748   4.773   5.412   5.869
  603TIP3   OH2 1749   2.871   4.288   5.916
  603TIP3    H1 1750   2.779   4.291   5.887
  603TIP3    H2 1751   2.869   4.328   6.003
  604TIP3   OH2 1752   2.143   7.317   5.304
  604TIP3    H1 1753   2.102   7.366   5.232
  604TIP3    H2 1754   2.076   7.255   5.332
  605TIP3   OH2 1755   7.678   2.424   5.373
  605TIP3    H1 1756   7.675   2.328   5.382
  605TIP3    H2 1757   7.771   2.446   5.380
  606TIP3   OH2 1758   6.231   4.702   0.860
  606TIP3    H1 1759   6.291   4.628   0.870
  606TIP3    H2 1760   6.214   4.707   0.766
  607TIP3   OH2 1761   5.271   1.868   3.746
  607TIP3    H1 1762   5.188   1.822   3.732
  607TIP3    H2 1763   5.298   1.898   3.659
  608TIP3   OH2 1764   7.214   2.654   6.396
  608TIP3    H1 1765   7.269   2.650   6.474
  608TIP3    H2 1766   7.125   2.642   6.428
  609TIP3   OH2 1767   3.987   0.326   4.924
  609TIP3    H1 1768   4.012   0.414   4.895
  609TIP3    H2 1769   3.920   0.342   4.991
  610TIP3   OH2 1770   6.968   4.644   6.153
  610TIP3    H1 1771   7.003   4.572   6.205
  610TIP3    H2 1772   6.979   4.722   6.208
  611TIP3   OH2 1773   6.129   0.193   0.085
  611TIP3    H1 1774   6.034   0.207   0.085
  611TIP3    H2 1775   6.142   0.113   0.034
  612TIP3   OH2 1776   7.303   7.775   1.170
  612TIP3    H1 1777   7.219   7.803   1.133
  612TIP3    H2 1778   7.369   7.813   1.112
  613TIP3   OH2 1779   5.525   4.924   5.574
  613TIP3    H1 1780   5.616   4.951   5.584
  613TIP3    H2 1781   5.529   4.829   5.565
  614TIP3   OH2 1782   0.638   2.527   1.803
  614TIP3    H1 1783   0.565   2.464   1.803
  614TIP3    H2 1784   0.641   2.560   1.713
  615TIP3   OH2 1785   7.854   0.863   5.164
  615TIP3    H1 1786   7.887   0.791   5.218
  615TIP3    H2 1787   7.845   0.825   5.077
  616TIP3   OH2 1788   3.947   1.484   1.934
  616TIP3    H1 1789   3.957   1.517   1.845
  616TIP3    H2 1790   3.881   1.415   1.926
  617TIP3   OH2 1791   1.994   3.794   5.358
  617TIP3    H1 1792   2.008   3.742   5.437
  617TIP3    H2 1793   1.921   3.851   5.380
  618TIP3   OH2 1794   1.699   7.265   3.889
  618TIP3    H1 1795   1.698   7.172   3.909
  618TIP3    H2 1796   1.760   7.273   3.815
  619TIP3   OH2 1797   4.834   7.521   0.828
  619TIP3    H1 1798   4.871   7.489   0.910
  619TIP3    H2 1799   4.903   7.505   0.763
  620TIP3   OH2 1800   3.713   3.747   4.091
  620TIP3    H1 1801   3.695   3.829   4.044
  620TIP3    H2 1802   3.800   3.761   4.129
  621TIP3   OH2 1803   2.814   3.595   2.173
  621TIP3    H1 1804   2.880   3.530   2.150
  621TIP3    H2 1805   2.731   3.555   2.148
  622TIP3   OH2 1806   5.934   5.651   2.898
  622TIP3    H1 1807   5.982   5.703   2.833
  622TIP3    H2 1808   5.866   5.710   2.930
  623TIP3   OH2 1809   3.861   4.819   3.273
  623TIP3    H1 1810   3.780   4.849   3.315
  623TIP3    H2 1811   3.853   4.724   3.270
  624TIP3   OH2 1812   4.615   3.302   3.354
  624TIP3    H1 1813   4.574   3.295   3.268
  624TIP3    H2 1814   4.673   3.378   3.347
  625TIP3   OH2 1815   8.391   4.595   4.770
  625TIP3    H1 1816   8.394   4.655   4.696
  625TIP3    H2 1817   8.297   4.585   4.789
  626TIP3   OH2 1818   7.259   4.515   4.864
  626TIP3    H1 1819   7.206   4.442   4.897
  626TIP3    H2 1820   7.330   4.524   4.928
  627TIP3   OH2 1821   6.254   2.333   5.159
  627TIP3    H1 1822   6.338   2.330   5.206
  627TIP3    H2 1823   6.189   2.306   5.223
  628TIP3   OH2 1824   0.388   0.131   0.817
  628TIP3    H1 1825   0.477   0.098   0.809
  628TIP3    H2 1826   0.384   0.206   0.757
  629TIP3   OH2 1827   7.677   5.562   6.230
  629TIP3    H1 1828   7.741   5.566   6.159
  629TIP3    H2 1829   7.684   5.647   6.274
  630TIP3   OH2 1830   3.991   0.701   0.691
  630TIP3    H1 1831   4.017   0.701   0.599
  630TIP3    H2 1832   4.053   0.760   0.733
  631TIP3   OH2 1833   3.002   0.542   0.094
  631TIP3    H1 1834   2.941   0.536   0.020
  631TIP3    H2 1835   2.983   0.628   0.133
  632TIP3   OH2 1836   0.766   2.386   4.681
  632TIP3    H1 1837   0.799   2.365   4.769
  632TIP3    H2 1838   0.746   2.480   4.685
  633TIP3   OH2 1839   3.641   3.994   2.920
  633TIP3    H1 1840   3.657   4.031   3.007
  633TIP3    H2 1841   3.714   4.026   2.866
  634TIP3   OH2 1842   7.630   0.609   2.697
  634TIP3    H1 1843   7.693   0.648   2.637
  634TIP3    H2 1844   7.546   0.616   2.652
  635TIP3   OH2 1845   1.048   3.193   1.084
  635TIP3    H1 1846   1.060   3.287   1.065
  635TIP3    H2 1847   0.955   3.177   1.065
  636TIP3   OH2 1848   6.568   4.983   2.621
  636TIP3    H1 1849   6.590   4.917   2.556
  636TIP3    H2 1850   6.473   4.992   2.615
  637TIP3   OH2 1851   2.918   0.237   6.130
  637TIP3    H1 1852   2.933   0.190   6.048
  637TIP3    H2 1853   2.844   0.192   6.170
  638TIP3   OH2 1854   6.669   3.287   5.951
  638TIP3    H1 1855   6.607   3.328   6.011
  638TIP3    H2 1856   6.740   3.256   6.008
  639TIP3   OH2 1857   8.123   6.238   0.880
  639TIP3    H1 1858   8.086   6.277   0.801
  639TIP3    H2 1859   8.047   6.214   0.933
  640TIP3   OH2 1860   0.687   4.554   4.933
  640TIP3    H1 1861   0.683   4.496   4.857
  640TIP3    H2 1862   0.599   4.592   4.938
  641TIP3   OH2 1863   5.609   3.294   5.295
  641TIP3    H1 1864   5.551   3.370   5.286
  641TIP3    H2 1865   5.697   3.330   5.283
  642TIP3   OH2 1866   6.292   5.613   5.418
  642TIP3    H1 1867   6.198   5.623   5.404
  642TIP3    H2 1868   6.332   5.638   5.335
  643TIP3   OH2 1869   4.862   4.262   4.325
  643TIP3    H1 1870   4.777   4.289   4.290
  643TIP3    H2 1871   4.872   4.171   4.298
  644TIP3   OH2 1872   3.440   0.507   5.847
  644TIP3    H1 1873   3.424   0.570   5.918
  644TIP3    H2 1874   3.536   0.503   5.840
  645TIP3   OH2 1875   4.876   1.927   5.185
  645TIP3    H1 1876   4.879   1.986   5.109
  645TIP3    H2 1877   4.964   1.889   5.189
  646TIP3   OH2 1878   1.828   5.226   4.824
  646TIP3    H1 1879   1.754   5.284   4.837
  646TIP3    H2 1880   1.850   5.235   4.731
  647TIP3   OH2 1881   2.101   6.501   2.544
  647TIP3    H1 1882   2.032   6.476   2.483
  647TIP3    H2 1883   2.054   6.523   2.625
  648TIP3   OH2 1884   6.953   7.388   6.515
  648TIP3    H1 1885   6.986   7.427   6.434
  648TIP3    H2 1886   6.883   7.329   6.487
  649TIP3   OH2 1887   4.098   5.034   6.510
  649TIP3    H1 1888   4.051   5.064   6.432
  649TIP3    H2 1889   4.168   4.978   6.475
  650TIP3   OH2 1890   7.579   7.338   6.314
  650TIP3    H1 1891   7.671   7.361   6.325
  650TIP3    H2 1892   7.581   7.258   6.261
  651TIP3   OH2 1893   4.157   5.293   4.818
  651TIP3    H1 1894   4.099   5.347   4.871
  651TIP3    H2 1895   4.108   5.279   4.736
  652TIP3   OH2 1896   4.542   1.687   5.702
  652TIP3    H1 1897   4.599   1.755   5.738
  652TIP3    H2 1898   4.512   1.639   5.779
  653TIP3   OH2 1899   2.793   1.298   6.121
  653TIP3    H1 1900   2.888   1.311   6.113
  653TIP3    H2 1901   2.780   1.206   6.099
  654TIP3   OH2 1902   1.480   6.725   3.384
  654TIP3    H1 1903   1.448   6.802   3.431
  654TIP3    H2 1904   1.525   6.761   3.307
  655TIP3   OH2 1905   3.143   3.892   1.087
  655TIP3    H1 1906   3.098   3.894   1.171
  655TIP3    H2 1907   3.132   3.980   1.051
  656TIP3   OH2 1908   6.754   3.730   6.524
  656TIP3    H1 1909   6.810   3.718   6.601
  656TIP3    H2 1910   6.687   3.793   6.553
  657TIP3   OH2 1911   2.488   3.204   2.401
  657TIP3    H1 1912   2.396   3.178   2.391
  657TIP3    H2 1913   2.537   3.124   2.383
  658TIP3   OH2 1914   1.635   7.786   3.396
  658TIP3    H1 1915   1.723   7.755   3.373
  658TIP3    H2 1916   1.615   7.852   3.329
  659TIP3   OH2 1917   6.190   7.243   6.239
  659TIP3    H1 1918   6.272   7.207   6.273
  659TIP3    H2 1919   6.162   7.306   6.306
  660TIP3   OH2 1920   3.273   2.618   2.175
  660TIP3    H1 1921   3.325   2.660   2.107
  660TIP3    H2 1922   3.319   2.536   2.194
  661TIP3   OH2 1923   4.040   2.582   5.980
  661TIP3    H1 1924   4.023   2.600   6.072
  661TIP3    H2 1925   3.962   2.614   5.934
  662TIP3   OH2 1926   3.929   1.462   3.754
  662TIP3    H1 1927   3.937   1.557   3.747
  662TIP3    H2 1928   4.001   1.437   3.812
  663TIP3   OH2 1929   1.143   1.489   2.822
  663TIP3    H1 1930   1.116   1.581   2.828
  663TIP3    H2 1931   1.238   1.491   2.816
  664TIP3   OH2 1932   2.347   4.406   0.708
  664TIP3    H1 1933   2.290   4.387   0.782
  664TIP3    H2 1934   2.338   4.329   0.651
  665TIP3   OH2 1935   8.357   3.725   4.743
  665TIP3    H1 1936   8.410   3.758   4.669
  665TIP3    H2 1937   8.280   3.687   4.702
  666TIP3   OH2 1938   4.940   0.883   6.780
  666TIP3    H1 1939   5.023   0.877   6.732
  666TIP3    H2 1940   4.925   0.977   6.791
  667TIP3   OH2 1941   7.186   4.267   4.987
  667TIP3    H1 1942   7.185   4.186   4.936
  667TIP3    H2 1943   7.172   4.239   5.077
  668TIP3   OH2 1944   6.283   4.699   6.794
  668TIP3    H1 1945   6.276   4.716   6.887
  668TIP3    H2 1946   6.325   4.777   6.758
  669TIP3   OH2 1947   7.994   2.140   1.486
  669TIP3    H1 1948   8.007   2.203   1.557
  669TIP3    H2 1949   7.908   2.162   1.450
  670TIP3   OH2 1950   2.492   5.549   3.000
  670TIP3    H1 1951   2.585   5.550   3.020
  670TIP3    H2 1952   2.471   5.456   2.987
  671TIP3   OH2 1953   6.208   5.326   1.493
  671TIP3    H1 1954   6.183   5.416   1.472
  671TIP3    H2 1955   6.291   5.335   1.540
  672TIP3   OH2 1956   1.500   3.881   6.332
  672TIP3    H1 1957   1.585   3.838   6.335
  672TIP3    H2 1958   1.498   3.925   6.247
  673TIP3   OH2 1959   3.845   2.307   1.403
  673TIP3    H1 1960   3.827   2.274   1.315
  673TIP3    H2 1961   3.925   2.262   1.430
  674TIP3   OH2 1962   3.075   2.865   5.330
  674TIP3    H1 1963   3.074   2.860   5.234
  674TIP3    H2 1964   2.984   2.883   5.354
  675TIP3   OH2 1965   0.982   5.126   6.791
  675TIP3    H1 1966   0.991   5.036   6.762
  675TIP3    H2 1967   1.072   5.160   6.792
  676TIP3   OH2 1968   5.504   7.684   2.251
  676TIP3    H1 1969   5.535   7.702   2.162
  676TIP3    H2 1970   5.448   7.607   2.242
  677TIP3   OH2 1971   6.542   6.340   3.160
  677TIP3    H1 1972   6.447   6.351   3.166
  677TIP3    H2 1973   6.555   6.256   3.117
  678TIP3   OH2 1974   4.379   5.496   5.001
  678TIP3    H1 1975   4.412   5.407   4.988
  678TIP3    H2 1976   4.315   5.487   5.071
  679TIP3   OH2 1977   0.919   3.963   6.466
  679TIP3    H1 1978   0.976   3.953   6.390
  679TIP3    H2 1979   0.831   3.948   6.433
  680TIP3   OH2 1980   2.726   0.629   4.645
  680TIP3    H1 1981   2.750   0.657   4.733
  680TIP3    H2 1982   2.809   0.610   4.602
  681TIP3   OH2 1983   2.878   0.553   6.791
  681TIP3    H1 1984   2.817   0.627   6.787
  681TIP3    H2 1985   2.880   0.518   6.702
  682TIP3   OH2 1986   5.807   7.076   5.578
  682TIP3    H1 1987   5.821   7.002   5.638
  682TIP3    H2 1988   5.720   7.107   5.599
  683TIP3   OH2 1989   6.974   6.305   6.007
  683TIP3    H1 1990   7.058   6.259   5.999
  683TIP3    H2 1991   6.926   6.256   6.072
  684TIP3   OH2 1992   4.547   7.283   1.778
  684TIP3    H1 1993   4.461   7.301   1.742
  684TIP3    H2 1994   4.606   7.286   1.702
  685TIP3   OH2 1995   8.176   4.932  -0.009
  685TIP3    H1 1996   8.108   4.971   0.046
  685TIP3    H2 1997   8.228   5.007  -0.037
  686TIP3   OH2 1998   6.909   7.372   4.643
  686TIP3    H1 1999   6.874   7.406   4.561
  686TIP3    H2 2000   6.847   7.403   4.710
  687TIP3   OH2 2001   1.405   0.556   0.570
  687TIP3    H1 2002   1.459   0.481   0.547
  687TIP3    H2 2003   1.423   0.621   0.501
  688TIP3   OH2 2004   2.759   0.671   1.186
  688TIP3    H1 2005   2.765   0.767   1.182
  688TIP3    H2 2006   2.674   0.651   1.146
  689TIP3   OH2 2007   4.571   4.675   1.594
  689TIP3    H1 2008   4.584   4.634   1.509
  689TIP3    H2 2009   4.614   4.615   1.656
  690TIP3   OH2 2010   7.446   7.236   5.118
  690TIP3    H1 2011   7.453   7.212   5.210
  690TIP3    H2 2012   7.352   7.237   5.101
  691TIP3   OH2 2013   2.496   2.391   5.093
  691TIP3    H1 2014   2.568   2.352   5.044
  691TIP3    H2 2015   2.508   2.486   5.083
  692TIP3   OH2 2016   0.167   1.766   3.572
  692TIP3    H1 2017   0.226   1.696   3.601
  692TIP3    H2 2018   0.225   1.841   3.559
  693TIP3   OH2 2019   4.400   0.674   1.497
  693TIP3    H1 2020   4.418   0.748   1.554
  693TIP3    H2 2021   4.369   0.605   1.555
  694TIP3   OH2 2022   7.121   3.062   0.048
  694TIP3    H1 2023   7.204   3.062   0.000
  694TIP3    H2 2024   7.142   3.103   0.132
  695TIP3   OH2 2025   2.891   1.496   2.747
  695TIP3    H1 2026   2.957   1.469   2.811
  695TIP3    H2 2027   2.807   1.474   2.789
  696TIP3   OH2 2028   4.340   1.121   6.444
  696TIP3    H1 2029   4.392   1.067   6.504
  696TIP3    H2 2030   4.298   1.057   6.386
  697TIP3   OH2 2031   4.561   5.932   2.436
  697TIP3    H1 2032   4.638   5.979   2.404
  697TIP3    H2 2033   4.518   5.900   2.357
  698TIP3   OH2 2034   6.677   6.364   4.323
  698TIP3    H1 2035   6.619   6.388   4.395
  698TIP3    H2 2036   6.664   6.269   4.312
  699TIP3   OH2 2037   4.584   1.255   6.156
  699TIP3    H1 2038   4.580   1.161   6.169
  699TIP3    H2 2039   4.504   1.289   6.197
  700TIP3   OH2 2040   6.895   3.032   2.968
  700TIP3    H1 2041   6.844   2.974   3.025
  700TIP3    H2 2042   6.940   3.091   3.028
  701TIP3   OH2 2043   1.045   1.703   1.492
  701TIP3    H1 2044   1.043   1.641   1.419
  701TIP3    H2 2045   1.032   1.648   1.570
  702TIP3   OH2 2046   3.643   2.905   1.347
  702TIP3    H1 2047   3.605   2.888   1.261
  702TIP3    H2 2048   3.718   2.963   1.329
  703TIP3   OH2 2049   7.200   6.039   3.632
  703TIP3    H1 2050   7.134   6.087   3.582
  703TIP3    H2 2051   7.271   6.102   3.644
  704TIP3   OH2 2052   6.526   4.854   3.836
  704TIP3    H1 2053   6.431   4.849   3.841
  704TIP3    H2 2054   6.549   4.937   3.878
  705TIP3   OH2 2055   7.265   4.436   3.240
  705TIP3    H1 2056   7.235   4.352   3.274
  705TIP3    H2 2057   7.330   4.413   3.174
  706TIP3   OH2 2058   0.558   2.048   6.101
  706TIP3    H1 2059   0.510   2.003   6.032
  706TIP3    H2 2060   0.546   1.993   6.179
  707TIP3   OH2 2061   1.782   0.732   4.119
  707TIP3    H1 2062   1.813   0.770   4.201
  707TIP3    H2 2063   1.826   0.783   4.051
  708TIP3   OH2 2064   5.567   0.725   0.751
  708TIP3    H1 2065   5.652   0.681   0.754
  708TIP3    H2 2066   5.538   0.729   0.842
  709TIP3   OH2 2067   6.659   2.045   2.126
  709TIP3    H1 2068   6.665   2.098   2.206
  709TIP3    H2 2069   6.577   1.997   2.135
  710TIP3   OH2 2070   2.619   7.408   2.050
  710TIP3    H1 2071   2.537   7.405   2.000
  710TIP3    H2 2072   2.646   7.500   2.045
  711TIP3   OH2 2073   0.052   3.748   3.261
  711TIP3    H1 2074   0.046   3.755   3.356
  711TIP3    H2 2075   0.129   3.800   3.237
  712TIP3   OH2 2076   3.783   1.940   3.923
  712TIP3    H1 2077   3.837   1.864   3.904
  712TIP3    H2 2078   3.725   1.911   3.993
  713TIP3   OH2 2079   4.736   4.036   1.911
  713TIP3    H1 2080   4.759   4.062   1.822
  713TIP3    H2 2081   4.798   3.966   1.932
  714TIP3   OH2 2082   7.294   0.890   5.556
  714TIP3    H1 2083   7.363   0.864   5.495
  714TIP3    H2 2084   7.276   0.981   5.533
  715TIP3   OH2 2085   3.286   2.790   1.354
  715TIP3    H1 2086   3.354   2.756   1.412
  715TIP3    H2 2087   3.298   2.744   1.271
  716TIP3   OH2 2088   0.724   2.158   6.371
  716TIP3    H1 2089   0.671   2.237   6.363
  716TIP3    H2 2090   0.693   2.115   6.451
  717TIP3   OH2 2091   5.485   6.176   2.835
  717TIP3    H1 2092   5.515   6.204   2.922
  717TIP3    H2 2093   5.557   6.198   2.777
  718TIP3   OH2 2094   4.848   2.820   2.563
  718TIP3    H1 2095   4.786   2.755   2.596
  718TIP3    H2 2096   4.848   2.890   2.628
  719TIP3   OH2 2097   6.303   5.797   4.286
  719TIP3    H1 2098   6.319   5.782   4.193
  719TIP3    H2 2099   6.247   5.725   4.313
  720TIP3   OH2 2100   1.564   4.003   4.233
  720TIP3    H1 2101   1.633   4.003   4.166
  720TIP3    H2 2102   1.537   4.094   4.239
  721TIP3   OH2 2103   3.248   7.396   1.758
  721TIP3    H1 2104   3.184   7.422   1.824
  721TIP3    H2 2105   3.271   7.477   1.713
  722TIP3   OH2 2106   6.942   1.992   0.263
  722TIP3    H1 2107   6.913   1.906   0.232
  722TIP3    H2 2108   7.022   2.010   0.214
  723TIP3   OH2 2109   3.692   0.221   4.266
  723TIP3    H1 2110   3.761   0.259   4.320
  723TIP3    H2 2111   3.722   0.234   4.176
  724TIP3   OH2 2112   0.175   3.714   1.491
  724TIP3    H1 2113   0.139   3.673   1.570
  724TIP3    H2 2114   0.233   3.783   1.524
  725TIP3   OH2 2115   2.772   5.159   0.387
  725TIP3    H1 2116   2.721   5.107   0.449
  725TIP3    H2 2117   2.831   5.210   0.442
  726TIP3   OH2 2118   6.475   3.112   3.920
  726TIP3    H1 2119   6.538   3.162   3.972
  726TIP3    H2 2120   6.426   3.060   3.984
  727TIP3   OH2 2121   7.280   7.633   6.338
  727TIP3    H1 2122   7.212   7.588   6.387
  727TIP3    H2 2123   7.276   7.724   6.370
  728TIP3   OH2 2124   4.649   0.180   0.094
  728TIP3    H1 2125   4.678   0.111   0.154
  728TIP3    H2 2126   4.586   0.137   0.036
  729TIP3   OH2 2127   2.978   7.687   6.258
  729TIP3    H1 2128   3.066   7.650   6.264
  729TIP3    H2 2129   2.928   7.643   6.326
  730TIP3   OH2 2130   5.665   4.079   3.741
  730TIP3    H1 2131   5.728   4.008   3.753
  730TIP3    H2 2132   5.600   4.043   3.680
  731TIP3   OH2 2133   4.272   0.161   6.417
  731TIP3    H1 2134   4.282   0.211   6.336
  731TIP3    H2 2135   4.181   0.177   6.443
  732TIP3   OH2 2136   0.059   3.045   5.328
  732TIP3    H1 2137  -0.016   2.996   5.360
  732TIP3    H2 2138   0.127   2.978   5.314
  733TIP3   OH2 2139   7.529   4.847   6.513
  733TIP3    H1 2140   7.553   4.755   6.524
  733TIP3    H2 2141   7.612   4.894   6.522
  734TIP3   OH2 2142   1.487   2.304   6.551
  734TIP3    H1 2143   1.568   2.254   6.538
  734TIP3    H2 2144   1.510   2.393   6.524
  735TIP3   OH2 2145   2.375   6.633   1.032
  735TIP3    H1 2146   2.337   6.584   1.105
  735TIP3    H2 2147   2.469   6.624   1.044
  736TIP3   OH2 2148   3.595   4.328   3.883
  736TIP3    H1 2149   3.622   4.259   3.944
  736TIP3    H2 2150   3.643   4.308   3.802
  737TIP3   OH2 2151   4.207   2.708   5.228
  737TIP3    H1 2152   4.284   2.760   5.207
  737TIP3    H2 2153   4.133   2.768   5.213
  738TIP3   OH2 2154   3.092   6.447   3.475
  738TIP3    H1 2155   3.176   6.493   3.479
  738TIP3    H2 2156   3.100   6.379   3.542
  739TIP3   OH2 2157   6.742   5.358   1.455
  739TIP3    H1 2158   6.824   5.343   1.408
  739TIP3    H2 2159   6.746   5.449   1.482
  740TIP3   OH2 2160   1.000   0.341   5.213
  740TIP3    H1 2161   0.994   0.346   5.118
  740TIP3    H2 2162   1.089   0.310   5.229
  741TIP3   OH2 2163   4.167   2.915   6.579
  741TIP3    H1 2164   4.252   2.913   6.535
  741TIP3    H2 2165   4.128   2.830   6.558
  742TIP3   OH2 2166   7.831   6.549   4.060
  742TIP3    H1 2167   7.889   6.473   4.066
  742TIP3    H2 2168   7.846   6.597   4.142
  743TIP3   OH2 2169   1.655   1.672   2.149
  743TIP3    H1 2170   1.669   1.743   2.211
  743TIP3    H2 2171   1.707   1.599   2.183
  744TIP3   OH2 2172   7.629   4.274   6.543
  744TIP3    H1 2173   7.550   4.229   6.573
  744TIP3    H2 2174   7.660   4.321   6.619
  745TIP3   OH2 2175   6.934   3.697   1.547
  745TIP3    H1 2176   7.006   3.690   1.485
  745TIP3    H2 2177   6.856   3.707   1.493
  746TIP3   OH2 2178   5.674   6.516   3.545
  746TIP3    H1 2179   5.657   6.437   3.494
  746TIP3    H2 2180   5.722   6.484   3.622
  747TIP3   OH2 2181   3.048   1.301   1.191
  747TIP3    H1 2182   2.970   1.250   1.213
  747TIP3    H2 2183   3.063   1.356   1.268
  748TIP3   OH2 2184   8.338   0.721   4.693
  748TIP3    H1 2185   8.294   0.777   4.630
  748TIP3    H2 2186   8.383   0.782   4.752
  749TIP3   OH2 2187   1.015   3.186   0.422
  749TIP3    H1 2188   1.003   3.149   0.510
  749TIP3    H2 2189   1.055   3.272   0.438
  750TIP3   OH2 2190   6.283   3.102   0.653
  750TIP3    H1 2191   6.341   3.172   0.624
  750TIP3    H2 2192   6.212   3.147   0.698
  751TIP3   OH2 2193   8.254   0.605   1.844
  751TIP3    H1 2194   8.300   0.660   1.780
  751TIP3    H2 2195   8.325   0.562   1.893
  752TIP3   OH2 2196   5.532   3.022   3.268
  752TIP3    H1 2197   5.602   3.066   3.317
  752TIP3    H2 2198   5.455   3.032   3.322
  753TIP3   OH2 2199   6.735   2.831   3.082
  753TIP3    H1 2200   6.779   2.752   3.113
  753TIP3    H2 2201   6.643   2.805   3.074
  754TIP3   OH2 2202   2.206   5.957   3.918
  754TIP3    H1 2203   2.173   5.943   3.830
  754TIP3    H2 2204   2.215   5.869   3.955
  755TIP3   OH2 2205   0.758   3.401   2.789
  755TIP3    H1 2206   0.687   3.424   2.849
  755TIP3    H2 2207   0.831   3.378   2.846
  756TIP3   OH2 2208   0.159   6.428   4.978
  756TIP3    H1 2209   0.102   6.498   4.947
  756TIP3    H2 2210   0.119   6.348   4.945
  757TIP3   OH2 2211   5.121   3.517   6.542
  757TIP3    H1 2212   5.159   3.552   6.624
  757TIP3    H2 2213   5.194   3.471   6.500
  758TIP3   OH2 2214   8.303   1.193   6.643
  758TIP3    H1 2215   8.346   1.113   6.672
  758TIP3    H2 2216   8.374   1.252   6.620
  759TIP3   OH2 2217   1.978   0.655   2.215
  759TIP3    H1 2218   2.059   0.604   2.210
  759TIP3    H2 2219   1.911   0.592   2.240
  760TIP3   OH2 2220   7.317   3.859   3.548
  760TIP3    H1 2221   7.264   3.893   3.620
  760TIP3    H2 2222   7.304   3.764   3.551
  761TIP3   OH2 2223   3.459   0.621   1.378
  761TIP3    H1 2224   3.534   0.654   1.329
  761TIP3    H2 2225   3.385   0.671   1.344
  762TIP3   OH2 2226   6.627   6.479   5.489
  762TIP3    H1 2227   6.582   6.559   5.460
  762TIP3    H2 2228   6.590   6.410   5.433
  763TIP3   OH2 2229   7.328   5.106   2.325
  763TIP3    H1 2230   7.421   5.120   2.304
  763TIP3    H2 2231   7.323   5.119   2.419
  764TIP3   OH2 2232   3.164   0.636   4.773
  764TIP3    H1 2233   3.115   0.699   4.826
  764TIP3    H2 2234   3.210   0.690   4.709
  765TIP3   OH2 2235   2.003   1.609   4.280
  765TIP3    H1 2236   2.019   1.701   4.262
  765TIP3    H2 2237   1.959   1.608   4.364
  766TIP3   OH2 2238   6.629   6.491   3.440
  766TIP3    H1 2239   6.544   6.461   3.472
  766TIP3    H2 2240   6.688   6.418   3.456
  767TIP3   OH2 2241   2.867   3.357   3.886
  767TIP3    H1 2242   2.857   3.302   3.964
  767TIP3    H2 2243   2.940   3.416   3.908
  768TIP3   OH2 2244   2.614   1.497   2.838
  768TIP3    H1 2245   2.600   1.581   2.883
  768TIP3    H2 2246   2.622   1.520   2.746
  769TIP3   OH2 2247   1.261   3.604   3.118
  769TIP3    H1 2248   1.248   3.650   3.035
  769TIP3    H2 2249   1.259   3.673   3.185
  770TIP3   OH2 2250   7.690   1.102   3.814
  770TIP3    H1 2251   7.594   1.104   3.810
  770TIP3    H2 2252   7.711   1.008   3.819
  771TIP3   OH2 2253   2.522   5.484   2.162
  771TIP3    H1 2254   2.596   5.492   2.103
  771TIP3    H2 2255   2.531   5.557   2.223
  772TIP3   OH2 2256   0.740   1.982   3.714
  772TIP3    H1 2257   0.804   1.946   3.775
  772TIP3    H2 2258   0.783   2.060   3.677
  773TIP3   OH2 2259   1.588   2.329   5.350
  773TIP3    H1 2260   1.573   2.305   5.258
  773TIP3    H2 2261   1.579   2.247   5.398
  774TIP3   OH2 2262   3.300   4.653   1.490
  774TIP3    H1 2263   3.257   4.663   1.574
  774TIP3    H2 2264   3.256   4.717   1.433
  775TIP3   OH2 2265   5.327   6.856   2.589
  775TIP3    H1 2266   5.406   6.840   2.537
  775TIP3    H2 2267   5.259   6.871   2.524
  776TIP3   OH2 2268   0.524   6.814   3.343
  776TIP3    H1 2269   0.455   6.818   3.276
  776TIP3    H2 2270   0.599   6.776   3.297
  777TIP3   OH2 2271   3.601   2.069   3.067
  777TIP3    H1 2272   3.584   2.160   3.043
  777TIP3    H2 2273   3.628   2.073   3.159
  778TIP3   OH2 2274   1.944   3.432   2.863
  778TIP3    H1 2275   1.975   3.499   2.801
  778TIP3    H2 2276   1.855   3.460   2.885
  779TIP3   OH2 2277   5.751   2.532   3.632
  779TIP3    H1 2278   5.826   2.477   3.612
  779TIP3    H2 2279   5.705   2.543   3.549
  780TIP3   OH2 2280   6.116   3.727   3.748
  780TIP3    H1 2281   6.106   3.822   3.740
  780TIP3    H2 2282   6.160   3.700   3.668
  781TIP3   OH2 2283   6.755   5.215   4.747
  781TIP3    H1 2284   6.792   5.184   4.830
  781TIP3    H2 2285   6.810   5.176   4.680
  782TIP3   OH2 2286   0.490   2.187   0.170
  782TIP3    H1 2287   0.478   2.110   0.114
  782TIP3    H2 2288   0.585   2.198   0.175
  783TIP3   OH2 2289   3.967   3.561   4.662
  783TIP3    H1 2290   4.030   3.571   4.733
  783TIP3    H2 2291   4.021   3.543   4.585
  784TIP3   OH2 2292   8.250   5.723   2.896
  784TIP3    H1 2293   8.271   5.633   2.870
  784TIP3    H2 2294   8.216   5.764   2.816
  785TIP3   OH2 2295   1.481   1.738   0.064
  785TIP3    H1 2296   1.536   1.812   0.088
  785TIP3    H2 2297   1.543   1.667   0.045
  786TIP3   OH2 2298   7.563   0.752   0.352
  786TIP3    H1 2299   7.515   0.803   0.417
  786TIP3    H2 2300   7.621   0.696   0.404
  787TIP3   OH2 2301   1.408   1.912   3.853
  787TIP3    H1 2302   1.315   1.896   3.833
  787TIP3    H2 2303   1.420   1.873   3.940
  788TIP3   OH2 2304   0.478   5.460   5.698
  788TIP3    H1 2305   0.496   5.552   5.680
  788TIP3    H2 2306   0.561   5.424   5.730
  789TIP3   OH2 2307   4.151   3.155   6.340
  789TIP3    H1 2308   4.219   3.087   6.339
  789TIP3    H2 2309   4.179   3.215   6.409
  790TIP3   OH2 2310   1.659   5.419   5.151
  790TIP3    H1 2311   1.674   5.421   5.246
  790TIP3    H2 2312   1.574   5.460   5.139
  791TIP3   OH2 2313   4.985   5.955   1.163
  791TIP3    H1 2314   5.004   5.911   1.080
  791TIP3    H2 2315   4.967   6.046   1.138
  792TIP3   OH2 2316   4.798   2.450   6.022
  792TIP3    H1 2317   4.745   2.516   5.978
  792TIP3    H2 2318   4.884   2.458   5.981
  793TIP3   OH2 2319   4.653   4.157   3.156
  793TIP3    H1 2320   4.605   4.214   3.216
  793TIP3    H2 2321   4.735   4.204   3.140
  794TIP3   OH2 2322   8.229   5.370   4.886
  794TIP3    H1 2323   8.138   5.402   4.889
  794TIP3    H2 2324   8.254   5.362   4.978
  795TIP3   OH2 2325   7.368   6.210   5.375
  795TIP3    H1 2326   7.384   6.148   5.446
  795TIP3    H2 2327   7.290   6.178   5.331
  796TIP3   OH2 2328   7.678   2.533   2.659
  796TIP3    H1 2329   7.588   2.521   2.628
  796TIP3    H2 2330   7.670   2.587   2.737
  797TIP3   OH2 2331   6.755   7.230   6.418
  797TIP3    H1 2332   6.676   7.284   6.423
  797TIP3    H2 2333   6.723   7.140   6.426
  798TIP3   OH2 2334   1.178   4.378   6.710
  798TIP3    H1 2335   1.149   4.287   6.713
  798TIP3    H2 2336   1.269   4.375   6.739
  799TIP3   OH2 2337   6.272   5.128   5.854
  799TIP3    H1 2338   6.356   5.083   5.860
  799TIP3    H2 2339   6.255   5.158   5.944
  800TIP3   OH2 2340   2.119   2.043   4.796
  800TIP3    H1 2341   2.094   1.963   4.749
  800TIP3    H2 2342   2.204   2.067   4.758
  801TIP3   OH2 2343   4.833   1.686   5.550
  801TIP3    H1 2344   4.914   1.644   5.523
  801TIP3    H2 2345   4.766   1.651   5.491
  802TIP3   OH2 2346   0.820   0.819   6.472
  802TIP3    H1 2347   0.772   0.895   6.441
  802TIP3    H2 2348   0.912   0.839   6.455
  803TIP3   OH2 2349   7.617   6.834   2.413
  803TIP3    H1 2350   7.688   6.801   2.468
  803TIP3    H2 2351   7.538   6.812   2.461
  804TIP3   OH2 2352   5.979   2.783   2.345
  804TIP3    H1 2353   6.070   2.754   2.345
  804TIP3    H2 2354   5.945   2.757   2.260
  805TIP3   OH2 2355   3.532   7.050   0.019
  805TIP3    H1 2356   3.483   6.983   0.066
  805TIP3    H2 2357   3.493   7.133   0.046
  806TIP3   OH2 2358   3.010   3.981   6.611
  806TIP3    H1 2359   2.994   3.948   6.700
  806TIP3    H2 2360   3.024   4.075   6.623
  807TIP3   OH2 2361   5.766   7.074   3.998
  807TIP3    H1 2362   5.859   7.061   4.016
  807TIP3    H2 2363   5.757   7.169   3.990
  808TIP3   OH2 2364   5.103   2.202   6.729
  808TIP3    H1 2365   5.168   2.140   6.697
  808TIP3    H2 2366   5.126   2.285   6.688
  809TIP3   OH2 2367   6.630   7.257   0.997
  809TIP3    H1 2368   6.568   7.267   0.924
  809TIP3    H2 2369   6.657   7.347   1.018
  810TIP3   OH2 2370   3.698   1.368   0.697
  810TIP3    H1 2371   3.732   1.349   0.784
  810TIP3    H2 2372   3.658   1.455   0.706
  811TIP3   OH2 2373   7.068   3.651   0.375
  811TIP3    H1 2374   6.978   3.639   0.405
  811TIP3    H2 2375   7.093   3.738   0.408
  812TIP3   OH2 2376   1.952   4.462   5.134
  812TIP3    H1 2377   1.939   4.375   5.096
  812TIP3    H2 2378   1.913   4.522   5.071
  813TIP3   OH2 2379   4.059   2.431   3.101
  813TIP3    H1 2380   4.145   2.469   3.119
  813TIP3    H2 2381   4.027   2.402   3.186
  814TIP3   OH2 2382   1.272   3.501   5.041
  814TIP3    H1 2383   1.258   3.408   5.025
  814TIP3    H2 2384   1.205   3.545   4.989
  815TIP3   OH2 2385   0.491   0.563   4.979
  815TIP3    H1 2386   0.419   0.625   4.992
  815TIP3    H2 2387   0.448   0.480   4.957
  816TIP3   OH2 2388   6.442   7.272   4.972
  816TIP3    H1 2389   6.535   7.273   4.996
  816TIP3    H2 2390   6.408   7.191   5.009
  817TIP3   OH2 2391   6.384   4.853   5.574
  817TIP3    H1 2392   6.386   4.760   5.600
  817TIP3    H2 2393   6.291   4.870   5.557
  818TIP3   OH2 2394   4.710   7.106   0.805
  818TIP3    H1 2395   4.672   7.103   0.718
  818TIP3    H2 2396   4.645   7.153   0.858
  819TIP3   OH2 2397   7.515   5.818   0.172
  819TIP3    H1 2398   7.463   5.898   0.169
  819TIP3    H2 2399   7.535   5.799   0.081
  820TIP3   OH2 2400   8.126   5.459   2.498
  820TIP3    H1 2401   8.104   5.374   2.460
  820TIP3    H2 2402   8.157   5.511   2.424
  821TIP3   OH2 2403   5.519   5.268   4.344
  821TIP3    H1 2404   5.611   5.241   4.347
  821TIP3    H2 2405   5.487   5.234   4.260
  822TIP3   OH2 2406   4.698   0.402   5.134
  822TIP3    H1 2407   4.705   0.429   5.042
  822TIP3    H2 2408   4.606   0.417   5.156
  823TIP3   OH2 2409   3.382   3.303   4.826
  823TIP3    H1 2410   3.344   3.304   4.738
  823TIP3    H2 2411   3.477   3.300   4.812
  824TIP3   OH2 2412   3.562  -0.030   1.764
  824TIP3    H1 2413   3.483  -0.061   1.808
  824TIP3    H2 2414   3.556   0.065   1.767
  825TIP3   OH2 2415   4.332   3.916   4.431
  825TIP3    H1 2416   4.385   3.966   4.493
  825TIP3    H2 2417   4.257   3.886   4.481
  826TIP3   OH2 2418   6.747   7.069   3.532
  826TIP3    H1 2419   6.818   7.125   3.562
  826TIP3    H2 2420   6.673   7.128   3.521
  827TIP3   OH2 2421   2.667   2.834   4.688
  827TIP3    H1 2422   2.739   2.772   4.691
  827TIP3    H2 2423   2.640   2.845   4.779
  828TIP3   OH2 2424   2.061   0.621   3.553
  828TIP3    H1 2425   1.978   0.646   3.513
  828TIP3    H2 2426   2.038   0.603   3.644
  829TIP3   OH2 2427   6.076   1.057   0.583
  829TIP3    H1 2428   6.120   1.087   0.663
  829TIP3    H2 2429   5.985   1.047   0.609
  830TIP3   OH2 2430   0.014   0.548   6.264
  830TIP3    H1 2431  -0.042   0.614   6.306
  830TIP3    H2 2432   0.079   0.525   6.330
  831TIP3   OH2 2433   7.220   0.310   0.633
  831TIP3    H1 2434   7.232   0.379   0.698
  831TIP3    H2 2435   7.259   0.346   0.553
  832TIP3   OH2 2436   2.811   2.330   1.506
  832TIP3    H1 2437   2.858   2.251   1.481
  832TIP3    H2 2438   2.747   2.343   1.436
  833TIP3   OH2 2439   5.229   2.902   5.993
  833TIP3    H1 2440   5.250   2.810   6.006
  833TIP3    H2 2441   5.168   2.924   6.064
  834TIP3   OH2 2442   0.541   7.281   0.535
  834TIP3    H1 2443   0.478   7.353   0.527
  834TIP3    H2 2444   0.585   7.297   0.619
  835TIP3   OH2 2445   4.714   4.754   3.642
  835TIP3    H1 2446   4.635   4.805   3.658
  835TIP3    H2 2447   4.695   4.667   3.676
  836TIP3   OH2 2448   5.866   4.940   2.005
  836TIP3    H1 2449   5.926   5.014   1.991
  836TIP3    H2 2450   5.896   4.901   2.088
  837TIP3   OH2 2451   6.622   6.791   0.825
  837TIP3    H1 2452   6.614   6.863   0.763
  837TIP3    H2 2453   6.613   6.712   0.771
  838TIP3   OH2 2454   4.033   6.608   1.647
  838TIP3    H1 2455   3.942   6.630   1.666
  838TIP3    H2 2456   4.072   6.590   1.732
  839TIP3   OH2 2457   7.537   2.795   3.543
  839TIP3    H1 2458   7.493   2.731   3.598
  839TIP3    H2 2459   7.629   2.792   3.572
  840TIP3   OH2 2460   4.805   1.543   0.300
  840TIP3    H1 2461   4.827   1.544   0.393
  840TIP3    H2 2462   4.742   1.471   0.291
  841TIP3   OH2 2463   4.227   3.760   3.566
  841TIP3    H1 2464   4.281   3.771   3.487
  841TIP3    H2 2465   4.201   3.667   3.564
  842TIP3   OH2 2466   3.932   7.287   5.570
  842TIP3    H1 2467   3.989   7.346   5.521
  842TIP3    H2 2468   3.845   7.325   5.562
  843TIP3   OH2 2469   2.510   4.378   2.946
  843TIP3    H1 2470   2.471   4.317   3.009
  843TIP3    H2 2471   2.461   4.363   2.865
  844TIP3   OH2 2472   1.203   7.320   6.647
  844TIP3    H1 2473   1.216   7.229   6.676
  844TIP3    H2 2474   1.109   7.327   6.632
  845TIP3   OH2 2475   8.287   5.730   0.634
  845TIP3    H1 2476   8.305   5.797   0.567
  845TIP3    H2 2477   8.224   5.771   0.692
  846TIP3   OH2 2478   0.562   7.538   6.200
  846TIP3    H1 2479   0.528   7.452   6.228
  846TIP3    H2 2480   0.544   7.596   6.274
  847TIP3   OH2 2481   2.018   3.488   4.485
  847TIP3    H1 2482   2.017   3.410   4.541
  847TIP3    H2 2483   1.952   3.545   4.524
  848TIP3   OH2 2484   2.260   0.430   6.004
  848TIP3    H1 2485   2.269   0.340   5.971
  848TIP3    H2 2486   2.184   0.465   5.957
  849TIP3   OH2 2487   6.897   2.076   5.241
  849TIP3    H1 2488   6.964   2.121   5.292
  849TIP3    H2 2489   6.837   2.040   5.306
  850TIP3   OH2 2490   7.655   1.879   6.207
  850TIP3    H1 2491   7.567   1.916   6.204
  850TIP3    H2 2492   7.713   1.954   6.206
  851TIP3   OH2 2493   8.283   6.529   4.437
  851TIP3    H1 2494   8.297   6.507   4.529
  851TIP3    H2 2495   8.289   6.446   4.391
  852TIP3   OH2 2496   5.868   7.457   1.466
  852TIP3    H1 2497   5.776   7.464   1.493
  852TIP3    H2 2498   5.878   7.522   1.396
  853TIP3   OH2 2499   5.987   0.627   1.170
  853TIP3    H1 2500   6.029   0.629   1.084
  853TIP3    H2 2501   5.991   0.536   1.198
  854TIP3   OH2 2502   5.085   5.468   0.544
  854TIP3    H1 2503   5.159   5.408   0.537
  854TIP3    H2 2504   5.125   5.553   0.565
  855TIP3   OH2 2505   5.637   6.461   5.602
  855TIP3    H1 2506   5.648   6.425   5.690
  855TIP3    H2 2507   5.665   6.552   5.610
  856TIP3   OH2 2508   4.645   1.015   1.703
  856TIP3    H1 2509   4.692   1.088   1.743
  856TIP3    H2 2510   4.710   0.945   1.698
  857TIP3   OH2 2511   8.345   2.501   5.013
  857TIP3    H1 2512   8.337   2.477   4.921
  857TIP3    H2 2513   8.339   2.596   5.014
  858TIP3   OH2 2514   6.810   2.586   3.160
  858TIP3    H1 2515   6.723   2.564   3.193
  858TIP3    H2 2516   6.857   2.502   3.158
  859TIP3   OH2 2517   1.074   2.633   3.296
  859TIP3    H1 2518   1.059   2.600   3.208
  859TIP3    H2 2519   1.151   2.689   3.288
  860TIP3   OH2 2520   0.431   5.866   6.721
  860TIP3    H1 2521   0.470   5.924   6.657
  860TIP3    H2 2522   0.359   5.823   6.674
  861TIP3   OH2 2523   7.410   3.371   5.982
  861TIP3    H1 2524   7.328   3.422   5.986
  861TIP3    H2 2525   7.442   3.370   6.072
  862TIP3   OH2 2526   6.072   3.089   2.742
  862TIP3    H1 2527   6.056   2.996   2.758
  862TIP3    H2 2528   6.104   3.123   2.825
  863TIP3   OH2 2529   5.309   6.505   6.192
  863TIP3    H1 2530   5.228   6.499   6.242
  863TIP3    H2 2531   5.377   6.524   6.258
  864TIP3   OH2 2532   0.851   0.031   4.851
  864TIP3    H1 2533   0.930   0.073   4.818
  864TIP3    H2 2534   0.867   0.019   4.945
  865TIP3   OH2 2535   4.684   1.094   3.714
  865TIP3    H1 2536   4.590   1.088   3.734
  865TIP3    H2 2537   4.715   1.169   3.765
  866TIP3   OH2 2538   3.184   1.813   0.590
  866TIP3    H1 2539   3.114   1.749   0.604
  866TIP3    H2 2540   3.216   1.832   0.678
  867TIP3   OH2 2541   2.009   3.730   0.497
  867TIP3    H1 2542   2.090   3.694   0.532
  867TIP3    H2 2543   2.024   3.736   0.402
  868TIP3   OH2 2544   3.754   4.446   5.700
  868TIP3    H1 2545   3.752   4.491   5.616
  868TIP3    H2 2546   3.769   4.516   5.764
  869TIP3   OH2 2547   1.939   6.976   2.711
  869TIP3    H1 2548   2.004   7.012   2.651
  869TIP3    H2 2549   1.855   6.991   2.668
  870TIP3   OH2 2550   8.042   6.853   0.149
  870TIP3    H1 2551   8.041   6.769   0.103
  870TIP3    H2 2552   8.052   6.918   0.080
  871TIP3   OH2 2553   3.571   4.070   1.702
  871TIP3    H1 2554   3.531   4.149   1.739
  871TIP3    H2 2555   3.652   4.102   1.661
  872TIP3   OH2 2556   1.868   1.118   2.807
  872TIP3    H1 2557   1.892   1.127   2.714
  872TIP3    H2 2558   1.831   1.030   2.813
  873TIP3   OH2 2559   3.163   0.715   5.945
  873TIP3    H1 2560   3.247   0.685   5.981
  873TIP3    H2 2561   3.101   0.707   6.017
  874TIP3   OH2 2562   2.630   6.647   1.775
  874TIP3    H1 2563   2.676   6.729   1.758
  874TIP3    H2 2564   2.540   6.663   1.747
  875TIP3   OH2 2565   3.280   2.262   0.417
  875TIP3    H1 2566   3.211   2.288   0.356
  875TIP3    H2 2567   3.233   2.235   0.497
  876TIP3   OH2 2568   5.288   7.725   3.167
  876TIP3    H1 2569   5.371   7.679   3.160
  876TIP3    H2 2570   5.225   7.668   3.121
  877TIP3   OH2 2571   1.189   4.775   6.094
  877TIP3    H1 2572   1.192   4.725   6.012
  877TIP3    H2 2573   1.226   4.861   6.071
  878TIP3   OH2 2574   1.953  -0.015   4.658
  878TIP3    H1 2575   1.864   0.019   4.654
  878TIP3    H2 2576   1.982  -0.018   4.567
  879TIP3   OH2 2577   7.074   6.839   1.947
  879TIP3    H1 2578   7.046   6.761   1.995
  879TIP3    H2 2579   7.023   6.836   1.866
  880TIP3   OH2 2580   1.709   3.626   6.565
  880TIP3    H1 2581   1.624   3.598   6.532
  880TIP3    H2 2582   1.699   3.628   6.660
  881TIP3   OH2 2583   4.827   5.569   4.221
  881TIP3    H1 2584   4.867   5.508   4.158
  881TIP3    H2 2585   4.751   5.604   4.175
  882TIP3   OH2 2586   2.368   4.344   1.086
  882TIP3    H1 2587   2.435   4.297   1.136
  882TIP3    H2 2588   2.312   4.274   1.051
  883TIP3   OH2 2589   4.220   2.520   1.005
  883TIP3    H1 2590   4.140   2.485   1.044
  883TIP3    H2 2591   4.281   2.529   1.078
  884TIP3   OH2 2592   2.135   4.479   1.180
  884TIP3    H1 2593   2.208   4.492   1.119
  884TIP3    H2 2594   2.169   4.509   1.264
  885TIP3   OH2 2595   2.568   7.596   6.506
  885TIP3    H1 2596   2.592   7.584   6.598
  885TIP3    H2 2597   2.652   7.600   6.460
  886TIP3   OH2 2598   6.413   3.802   1.417
  886TIP3    H1 2599   6.425   3.778   1.509
  886TIP3    H2 2600   6.320   3.824   1.409
  887TIP3   OH2 2601   3.081   3.655   5.508
  887TIP3    H1 2602   3.040   3.569   5.498
  887TIP3    H2 2603   3.136   3.664   5.430
  888TIP3   OH2 2604   2.191   2.289   0.563
  888TIP3    H1 2605   2.212   2.197   0.582
  888TIP3    H2 2606   2.178   2.292   0.468
  889TIP3   OH2 2607   0.067   4.979   5.038
  889TIP3    H1 2608   0.004   4.910   5.058
  889TIP3    H2 2609   0.061   5.039   5.113
  890TIP3   OH2 2610   6.166   6.359   4.947
  890TIP3    H1 2611   6.121   6.375   5.030
  890TIP3    H2 2612   6.098   6.322   4.890
  891TIP3   OH2 2613   3.710   4.014   5.863
  891TIP3    H1 2614   3.724   3.941   5.803
  891TIP3    H2 2615   3.614   4.019   5.872
  892TIP3   OH2 2616   6.593   2.253   6.331
  892TIP3    H1 2617   6.662   2.186   6.329
  892TIP3    H2 2618   6.548   2.243   6.247
  893TIP3   OH2 2619   7.830   6.648   1.053
  893TIP3    H1 2620   7.889   6.622   0.982
  893TIP3    H2 2621   7.889   6.675   1.124
  894TIP3   OH2 2622   6.370   2.090   3.556
  894TIP3    H1 2623   6.464   2.077   3.566
  894TIP3    H2 2624   6.336   2.003   3.534
  895TIP3   OH2 2625   0.147   5.791   5.647
  895TIP3    H1 2626   0.075   5.852   5.632
  895TIP3    H2 2627   0.180   5.815   5.734
  896TIP3   OH2 2628   7.942   1.303   1.218
  896TIP3    H1 2629   7.977   1.257   1.295
  896TIP3    H2 2630   7.993   1.383   1.213
  897TIP3   OH2 2631   1.463   1.908   4.382
  897TIP3    H1 2632   1.394   1.884   4.443
  897TIP3    H2 2633   1.517   1.971   4.430
  898TIP3   OH2 2634   6.195   2.374   4.692
  898TIP3    H1 2635   6.267   2.427   4.657
  898TIP3    H2 2636   6.191   2.396   4.785
  899TIP3   OH2 2637   2.745   3.616   2.596
  899TIP3    H1 2638   2.697   3.578   2.523
  899TIP3    H2 2639   2.710   3.572   2.673
  900TIP3   OH2 2640   3.880   7.837   4.425
  900TIP3    H1 2641   3.827   7.914   4.404
  900TIP3    H2 2642   3.927   7.817   4.343
  901TIP3   OH2 2643   1.370   4.840   4.173
  901TIP3    H1 2644   1.301   4.827   4.108
  901TIP3    H2 2645   1.360   4.766   4.234
  902TIP3   OH2 2646   5.430   0.546   4.146
  902TIP3    H1 2647   5.378   0.581   4.074
  902TIP3    H2 2648   5.486   0.620   4.173
  903TIP3   OH2 2649   0.680   7.415   5.859
  903TIP3    H1 2650   0.610   7.461   5.905
  903TIP3    H2 2651   0.637   7.340   5.817
  904TIP3   OH2 2652   1.595   2.579   2.981
  904TIP3    H1 2653   1.521   2.521   2.998
  904TIP3    H2 2654   1.611   2.622   3.065
  905TIP3   OH2 2655   0.556   0.713   2.680
  905TIP3    H1 2656   0.514   0.658   2.746
  905TIP3    H2 2657   0.632   0.663   2.651
  906TIP3   OH2 2658   4.227   0.918   6.795
  906TIP3    H1 2659   4.140   0.897   6.763
  906TIP3    H2 2660   4.244   0.852   6.863
  907TIP3   OH2 2661   2.067   0.584   1.631
  907TIP3    H1 2662   2.060   0.490   1.645
  907TIP3    H2 2663   2.003   0.622   1.691
  908TIP3   OH2 2664   7.278   7.171   1.762
  908TIP3    H1 2665   7.313   7.111   1.827
  908TIP3    H2 2666   7.186   7.146   1.752
  909TIP3   OH2 2667   4.881   0.045   1.662
  909TIP3    H1 2668   4.932   0.086   1.593
  909TIP3    H2 2669   4.935  -0.029   1.692
  910TIP3   OH2 2670   5.266   6.603   5.855
  910TIP3    H1 2671   5.244   6.563   5.771
  910TIP3    H2 2672   5.184   6.601   5.904
  911TIP3   OH2 2673   4.413   3.713   5.115
  911TIP3    H1 2674   4.353   3.640   5.106
  911TIP3    H2 2675   4.491   3.676   5.156
  912TIP3   OH2 2676   6.788   5.958   5.389
  912TIP3    H1 2677   6.882   5.941   5.381
  912TIP3    H2 2678   6.751   5.873   5.412
  913TIP3   OH2 2679   1.008   4.694   3.335
  913TIP3    H1 2680   0.929   4.747   3.321
  913TIP3    H2 2681   0.975   4.605   3.348
  914TIP3   OH2 2682   4.168   7.868   6.123
  914TIP3    H1 2683   4.213   7.910   6.050
  914TIP3    H2 2684   4.197   7.777   6.120
  915TIP3   OH2 2685   7.614   5.045   5.660
  915TIP3    H1 2686   7.666   5.126   5.661
  915TIP3    H2 2687   7.534   5.067   5.707
  916TIP3   OH2 2688   6.750   3.548   4.091
  916TIP3    H1 2689   6.774   3.614   4.025
  916TIP3    H2 2690   6.679   3.589   4.141
  917TIP3   OH2 2691   1.837   6.033   2.808
  917TIP3    H1 2692   1.926   6.041   2.843
  917TIP3    H2 2693   1.785   6.093   2.861
  918TIP3   OH2 2694   6.534   0.060   3.347
  918TIP3    H1 2695   6.625   0.069   3.319
  918TIP3    H2 2696   6.494   0.004   3.280
  919TIP3   OH2 2697   4.747   0.152   3.152
  919TIP3    H1 2698   4.680   0.153   3.084
  919TIP3    H2 2699   4.825   0.187   3.109
  920TIP3   OH2 2700   3.454   7.455   6.141
  920TIP3    H1 2701   3.496   7.538   6.166
  920TIP3    H2 2702   3.505   7.425   6.066
  921TIP3   OH2 2703   4.994   7.330   1.398
  921TIP3    H1 2704   5.036   7.315   1.313
  921TIP3    H2 2705   5.029   7.414   1.428
  922TIP3   OH2 2706   2.616   6.521   0.022
  922TIP3    H1 2707   2.701   6.547   0.057
  922TIP3    H2 2708   2.581   6.600  -0.018
  923TIP3   OH2 2709   6.499   4.829   6.700
  923TIP3    H1 2710   6.558   4.810   6.773
  923TIP3    H2 2711   6.514   4.922   6.681
  924TIP3   OH2 2712   2.617   5.730   2.657
  924TIP3    H1 2713   2.675   5.686   2.718
  924TIP3    H2 2714   2.676   5.772   2.594
  925TIP3   OH2 2715   1.423   6.413   4.181
  925TIP3    H1 2716   1.427   6.499   4.140
  925TIP3    H2 2717   1.376   6.428   4.264
  926TIP3   OH2 2718   7.896   5.532   2.628
  926TIP3    H1 2719   7.961   5.493   2.571
  926TIP3    H2 2720   7.815   5.530   2.577
  927TIP3   OH2 2721   6.832   3.614   5.033
  927TIP3    H1 2722   6.921   3.589   5.058
  927TIP3    H2 2723   6.835   3.621   4.937
  928TIP3   OH2 2724   2.611   4.477   0.622
  928TIP3    H1 2725   2.573   4.478   0.535
  928TIP3    H2 2726   2.537   4.463   0.681
  929TIP3   OH2 2727   2.570   4.889   5.755
  929TIP3    H1 2728   2.584   4.813   5.811
  929TIP3    H2 2729   2.501   4.938   5.798
  930TIP3   OH2 2730   5.368   4.206   2.592
  930TIP3    H1 2731   5.415   4.148   2.652
  930TIP3    H2 2732   5.331   4.149   2.526
  931TIP3   OH2 2733   6.963   7.450   3.052
  931TIP3    H1 2734   6.970   7.387   2.980
  931TIP3    H2 2735   6.939   7.532   3.008
  932TIP3   OH2 2736   2.734   6.246   1.360
  932TIP3    H1 2737   2.774   6.183   1.301
  932TIP3    H2 2738   2.799   6.258   1.429
  933TIP3   OH2 2739   6.190   0.992   4.136
  933TIP3    H1 2740   6.132   0.947   4.198
  933TIP3    H2 2741   6.181   1.084   4.159
  934TIP3   OH2 2742   7.814   5.158   3.042
  934TIP3    H1 2743   7.852   5.082   3.087
  934TIP3    H2 2744   7.852   5.233   3.087
  935TIP3   OH2 2745   6.019   0.249   0.485
  935TIP3    H1 2746   6.040   0.323   0.542
  935TIP3    H2 2747   5.975   0.186   0.542
  936TIP3   OH2 2748   3.618   4.281   3.231
  936TIP3    H1 2749   3.582   4.352   3.177
  936TIP3    H2 2750   3.563   4.205   3.210
  937TIP3   OH2 2751   2.463   0.101   6.531
  937TIP3    H1 2752   2.442   0.185   6.489
  937TIP3    H2 2753   2.551   0.114   6.566
  938TIP3   OH2 2754   0.377   2.519   2.756
  938TIP3    H1 2755   0.357   2.584   2.688
  938TIP3    H2 2756   0.473   2.517   2.760
  939TIP3   OH2 2757   1.750   6.640   0.978
  939TIP3    H1 2758   1.828   6.625   0.926
  939TIP3    H2 2759   1.729   6.733   0.964
  940TIP3   OH2 2760   7.850   5.068   0.584
  940TIP3    H1 2761   7.774   5.071   0.526
  940TIP3    H2 2762   7.908   5.137   0.550
  941TIP3   OH2 2763   5.922   3.127   3.560
  941TIP3    H1 2764   5.932   3.209   3.511
  941TIP3    H2 2765   6.002   3.120   3.612
  942TIP3   OH2 2766   2.562   1.870   4.768
  942TIP3    H1 2767   2.538   1.855   4.859
  942TIP3    H2 2768   2.478   1.864   4.721
  943TIP3   OH2 2769   1.221   7.278   3.908
  943TIP3    H1 2770   1.256   7.283   3.997
  943TIP3    H2 2771   1.297   7.298   3.853
  944TIP3   OH2 2772   1.595   0.141   2.779
  944TIP3    H1 2773   1.578   0.075   2.847
  944TIP3    H2 2774   1.511   0.187   2.770
  945TIP3   OH2 2775   7.879   4.539   6.509
  945TIP3    H1 2776   7.954   4.557   6.453
  945TIP3    H2 2777   7.888   4.447   6.533
  946TIP3   OH2 2778   0.049   3.694   2.520
  946TIP3    H1 2779   0.073   3.635   2.448
  946TIP3    H2 2780   0.133   3.725   2.554
  947TIP3   OH2 2781   7.449   4.564   5.562
  947TIP3    H1 2782   7.495   4.646   5.543
  947TIP3    H2 2783   7.511   4.495   5.537
  948TIP3   OH2 2784   4.778   3.806   6.049
  948TIP3    H1 2785   4.778   3.811   6.144
  948TIP3    H2 2786   4.834   3.730   6.029
  949TIP3   OH2 2787   2.398   4.653   3.404
  949TIP3    H1 2788   2.445   4.618   3.328
  949TIP3    H2 2789   2.467   4.669   3.469
  950TIP3   OH2 2790   6.333   0.502   5.425
  950TIP3    H1 2791   6.352   0.456   5.507
  950TIP3    H2 2792   6.381   0.454   5.358
  951TIP3   OH2 2793   1.314   6.924   5.642
  951TIP3    H1 2794   1.279   7.012   5.631
  951TIP3    H2 2795   1.238   6.867   5.640
  952TIP3   OH2 2796   7.824   6.267   2.329
  952TIP3    H1 2797   7.856   6.287   2.416
  952TIP3    H2 2798   7.865   6.183   2.306
  953TIP3   OH2 2799   3.675   4.221   6.037
  953TIP3    H1 2800   3.631   4.167   6.103
  953TIP3    H2 2801   3.714   4.157   5.977
  954TIP3   OH2 2802   5.719   3.241   1.276
  954TIP3    H1 2803   5.717   3.149   1.304
  954TIP3    H2 2804   5.702   3.236   1.181
  955TIP3   OH2 2805   3.513   3.584   3.834
  955TIP3    H1 2806   3.574   3.524   3.790
  955TIP3    H2 2807   3.479   3.534   3.908
  956TIP3   OH2 2808   3.602   2.000   6.193
  956TIP3    H1 2809   3.645   2.043   6.119
  956TIP3    H2 2810   3.646   2.036   6.270
  957TIP3   OH2 2811   4.844   0.160   4.054
  957TIP3    H1 2812   4.930   0.182   4.020
  957TIP3    H2 2813   4.788   0.151   3.977
  958TIP3   OH2 2814   0.880   3.113   3.683
  958TIP3    H1 2815   0.799   3.126   3.731
  958TIP3    H2 2816   0.947   3.104   3.750
  959TIP3   OH2 2817   6.815   4.043   4.609
  959TIP3    H1 2818   6.750   4.046   4.679
  959TIP3    H2 2819   6.888   4.096   4.642
  960TIP3   OH2 2820  -0.018   7.686   0.770
  960TIP3    H1 2821   0.035   7.609   0.748
  960TIP3    H2 2822  -0.003   7.699   0.864
  961TIP3   OH2 2823   0.833   6.376   6.751
  961TIP3    H1 2824   0.860   6.299   6.802
  961TIP3    H2 2825   0.738   6.374   6.753
  962TIP3   OH2 2826   6.968   7.816   4.115
  962TIP3    H1 2827   6.892   7.787   4.166
  962TIP3    H2 2828   6.981   7.907   4.141
  963TIP3   OH2 2829   5.488   6.649   0.195
  963TIP3    H1 2830   5.426   6.721   0.186
  963TIP3    H2 2831   5.497   6.637   0.290
  964TIP3   OH2 2832   2.078   3.019   0.696
  964TIP3    H1 2833   1.983   3.021   0.706
  964TIP3    H2 2834   2.091   2.978   0.610
  965TIP3   OH2 2835   0.657   5.646   5.414
  965TIP3    H1 2836   0.672   5.553   5.399
  965TIP3    H2 2837   0.737   5.689   5.385
  966TIP3   OH2 2838   8.123   5.715   1.824
  966TIP3    H1 2839   8.077   5.640   1.787
  966TIP3    H2 2840   8.063   5.751   1.890
  967TIP3   OH2 2841   1.512   2.102   3.051
  967TIP3    H1 2842   1.591   2.153   3.031
  967TIP3    H2 2843   1.545   2.018   3.083
  968TIP3   OH2 2844   2.065   2.465   5.478
  968TIP3    H1 2845   2.054   2.412   5.399
  968TIP3    H2 2846   2.157   2.457   5.501
  969TIP3   OH2 2847   5.070   2.712   5.159
  969TIP3    H1 2848   5.139   2.714   5.092
  969TIP3    H2 2849   5.101   2.649   5.224
  970TIP3   OH2 2850   6.789   7.791   3.704
  970TIP3    H1 2851   6.842   7.769   3.628
  970TIP3    H2 2852   6.841   7.856   3.751
  971TIP3   OH2 2853   4.432   4.204   2.225
  971TIP3    H1 2854   4.479   4.233   2.303
  971TIP3    H2 2855   4.404   4.284   2.182
  972TIP3   OH2 2856   0.122   3.891   2.906
  972TIP3    H1 2857   0.174   3.966   2.877
  972TIP3    H2 2858   0.127   3.828   2.834
  973TIP3   OH2 2859   4.917   6.732   4.226
  973TIP3    H1 2860   4.948   6.822   4.220
  973TIP3    H2 2861   4.828   6.739   4.260
  974TIP3   OH2 2862   6.189   7.814   6.601
  974TIP3    H1 2863   6.250   7.837   6.672
  974TIP3    H2 2864   6.102   7.827   6.640
  975TIP3   OH2 2865   3.430   5.923   4.414
  975TIP3    H1 2866   3.383   6.004   4.395
  975TIP3    H2 2867   3.399   5.897   4.500
  976TIP3   OH2 2868   1.956   0.998   3.701
  976TIP3    H1 2869   1.926   1.040   3.620
  976TIP3    H2 2870   2.049   1.021   3.706
  977TIP3   OH2 2871   3.502   2.305   2.990
  977TIP3    H1 2872   3.411   2.332   2.977
  977TIP3    H2 2873   3.545   2.382   3.027
  978TIP3   OH2 2874   5.045   3.492   5.295
  978TIP3    H1 2875   4.977   3.509   5.360
  978TIP3    H2 2876   5.056   3.397   5.297
  979TIP3   OH2 2877   1.419   0.797   6.002
  979TIP3    H1 2878   1.497   0.850   5.986
  979TIP3    H2 2879   1.355   0.829   5.938
  980TIP3   OH2 2880   1.205   2.922   1.451
  980TIP3    H1 2881   1.116   2.895   1.472
  980TIP3    H2 2882   1.252   2.839   1.437
  981TIP3   OH2 2883   5.909   4.346   5.189
  981TIP3    H1 2884   5.825   4.301   5.190
  981TIP3    H2 2885   5.965   4.292   5.133
  982TIP3   OH2 2886   2.609   4.282   5.873
  982TIP3    H1 2887   2.575   4.299   5.961
  982TIP3    H2 2888   2.545   4.223   5.833
  983TIP3   OH2 2889   2.975   2.503   3.762
  983TIP3    H1 2890   2.933   2.457   3.690
  983TIP3    H2 2891   3.064   2.520   3.730
  984TIP3   OH2 2892   1.172   2.582   6.474
  984TIP3    H1 2893   1.230   2.578   6.550
  984TIP3    H2 2894   1.088   2.550   6.507
  985TIP3   OH2 2895   5.123   1.154   6.718
  985TIP3    H1 2896   5.139   1.199   6.802
  985TIP3    H2 2897   5.181   1.200   6.656
  986TIP3   OH2 2898   3.237   3.705   6.054
  986TIP3    H1 2899   3.154   3.725   6.010
  986TIP3    H2 2900   3.275   3.635   6.002
  987TIP3   OH2 2901   8.368   5.940   0.473
  987TIP3    H1 2902   8.398   6.006   0.410
  987TIP3    H2 2903   8.349   5.990   0.552
  988TIP3   OH2 2904   7.803   6.447   6.372
  988TIP3    H1 2905   7.893   6.468   6.346
  988TIP3    H2 2906   7.808   6.434   6.466
  989TIP3   OH2 2907   5.105   5.606   3.680
  989TIP3    H1 2908   5.069   5.525   3.645
  989TIP3    H2 2909   5.196   5.584   3.702
  990TIP3   OH2 2910   6.185   5.787   0.447
  990TIP3    H1 2911   6.222   5.764   0.362
  990TIP3    H2 2912   6.160   5.703   0.486
  991TIP3   OH2 2913   3.801   4.568   5.183
  991TIP3    H1 2914   3.749   4.636   5.140
  991TIP3    H2 2915   3.889   4.581   5.149
  992TIP3   OH2 2916   6.361   4.886   0.584
  992TIP3    H1 2917   6.295   4.817   0.580
  992TIP3    H2 2918   6.415   4.871   0.507
  993TIP3   OH2 2919   4.630   2.309   0.387
  993TIP3    H1 2920   4.622   2.260   0.469
  993TIP3    H2 2921   4.705   2.268   0.343
  994TIP3   OH2 2922   3.986   0.135   4.128
  994TIP3    H1 2923   4.039   0.111   4.204
  994TIP3    H2 2924   3.970   0.229   4.139
  995TIP3   OH2 2925   5.426   3.627   1.705
  995TIP3    H1 2926   5.376   3.679   1.642
  995TIP3    H2 2927   5.437   3.684   1.781
  996TIP3   OH2 2928   6.733   0.175   4.706
  996TIP3    H1 2929   6.658   0.192   4.648
  996TIP3    H2 2930   6.750   0.260   4.748
  997TIP3   OH2 2931   8.125   1.327   6.790
  997TIP3    H1 2932   8.146   1.290   6.875
  997TIP3    H2 2933   8.170   1.270   6.727
  998TIP3   OH2 2934   5.687   3.338   4.486
  998TIP3    H1 2935   5.708   3.279   4.413
  998TIP3    H2 2936   5.736   3.303   4.560
  999TIP3   OH2 2937   7.916   5.517   6.410
  999TIP3    H1 2938   7.825   5.503   6.436
  999TIP3    H2 2939   7.967   5.496   6.488
 1000TIP3   OH2 2940   7.549   4.041   5.132
 1000TIP3    H1 2941   7.586   3.965   5.087
 1000TIP3    H2 2942   7.584   4.035   5.221
 1001TIP3   OH2 2943   3.535   3.597   4.255
 1001TIP3    H1 2944   3.596   3.642   4.197
 1001TIP3    H2 2945   3.590   3.540   4.309
 1002TIP3   OH2 2946   5.540   2.258   5.928
 1002TIP3    H1 2947   5.491   2.217   5.999
 1002TIP3    H2 2948   5.624   2.211   5.926
 1003TIP3   OH2 2949   5.107   2.942   3.262
 1003TIP3    H1 2950   5.124   3.035   3.270
 1003TIP3    H2 2951   5.066   2.918   3.345
 1004TIP3   OH2 2952   0.541   7.456   3.808
 1004TIP3    H1 2953   0.463   7.472   3.755
 1004TIP3    H2 2954   0.594   7.395   3.757
 1005TIP3   OH2 2955   7.629   5.680   3.958
 1005TIP3    H1 2956   7.665   5.614   4.016
 1005TIP3    H2 2957   7.705   5.720   3.916
 1006TIP3   OH2 2958   8.056   1.045   1.082
 1006TIP3    H1 2959   7.997   1.116   1.057
 1006TIP3    H2 2960   8.089   1.070   1.168
 1007TIP3   OH2 2961   5.936   3.169   2.237
 1007TIP3    H1 2962   5.940   3.178   2.333
 1007TIP3    H2 2963   6.014   3.213   2.205
 1008TIP3   OH2 2964   6.562   4.679   0.032
 1008TIP3    H1 2965   6.491   4.733  -0.003
 1008TIP3    H2 2966   6.597   4.729   0.105
 1009TIP3   OH2 2967   4.661   4.406   5.047
 1009TIP3    H1 2968   4.630   4.433   5.133
 1009TIP3    H2 2969   4.700   4.320   5.061
 1010TIP3   OH2 2970   3.923   5.158   6.296
 1010TIP3    H1 2971   3.839   5.156   6.252
 1010TIP3    H2 2972   3.963   5.074   6.275
 1011TIP3   OH2 2973   5.218   4.077   1.897
 1011TIP3    H1 2974   5.245   4.120   1.978
 1011TIP3    H2 2975   5.205   3.985   1.922
 1012TIP3   OH2 2976   5.516   7.392   5.918
 1012TIP3    H1 2977   5.517   7.415   5.825
 1012TIP3    H2 2978   5.608   7.396   5.945
 1013TIP3   OH2 2979   4.459   0.961   1.288
 1013TIP3    H1 2980   4.382   0.968   1.344
 1013TIP3    H2 2981   4.482   1.052   1.267
 1014TIP3   OH2 2982   2.509   7.658   5.374
 1014TIP3    H1 2983   2.450   7.626   5.306
 1014TIP3    H2 2984   2.503   7.592   5.443
 1015TIP3   OH2 2985   2.178   5.741   5.479
 1015TIP3    H1 2986   2.229   5.724   5.558
 1015TIP3    H2 2987   2.231   5.706   5.407
 1016TIP3   OH2 2988   2.280   5.237   3.705
 1016TIP3    H1 2989   2.258   5.303   3.639
 1016TIP3    H2 2990   2.326   5.169   3.656
 1017TIP3   OH2 2991   4.162   7.492   4.709
 1017TIP3    H1 2992   4.178   7.495   4.615
 1017TIP3    H2 2993   4.228   7.551   4.746
 1018TIP3   OH2 2994   0.976   7.506   6.090
 1018TIP3    H1 2995   0.934   7.463   6.164
 1018TIP3    H2 2996   0.916   7.576   6.065
 1019TIP3   OH2 2997   8.243   3.753   2.692
 1019TIP3    H1 2998   8.336   3.745   2.667
 1019TIP3    H2 2999   8.202   3.796   2.617
 1020TIP3   OH2 3000   7.648   7.677   4.140
 1020TIP3    H1 3001   7.682   7.596   4.101
 1020TIP3    H2 3002   7.613   7.726   4.065
 1021TIP3   OH2 3003   4.411   6.884   5.005
 1021TIP3    H1 3004   4.480   6.887   4.938
 1021TIP3    H2 3005   4.437   6.814   5.064
 1022TIP3   OH2 3006   7.134   1.376   1.627
 1022TIP3    H1 3007   7.221   1.361   1.662
 1022TIP3    H2 3008   7.099   1.449   1.678
 1023TIP3   OH2 3009   5.347   3.915   3.075
 1023TIP3    H1 3010   5.378   3.835   3.032
 1023TIP3    H2 3011   5.298   3.962   3.008
 1024TIP3   OH2 3012   3.502   3.693   5.514
 1024TIP3    H1 3013   3.507   3.787   5.498
 1024TIP3    H2 3014   3.418   3.681   5.559
 1025TIP3   OH2 3015   6.568   3.720   3.811
 1025TIP3    H1 3016   6.660   3.712   3.837
 1025TIP3    H2 3017   6.534   3.792   3.864
 1026TIP3   OH2 3018   5.722   7.544   1.214
 1026TIP3    H1 3019   5.667   7.610   1.172
 1026TIP3    H2 3020   5.809   7.583   1.216
 1027TIP3   OH2 3021   4.103   2.031   0.446
 1027TIP3    H1 3022   4.157   1.997   0.375
 1027TIP3    H2 3023   4.158   2.023   0.524
 1028TIP3   OH2 3024   1.917   5.287   4.432
 1028TIP3    H1 3025   1.979   5.294   4.505
 1028TIP3    H2 3026   1.884   5.376   4.420
 1029TIP3   OH2 3027   5.737   6.212   6.754
 1029TIP3    H1 3028   5.682   6.144   6.793
 1029TIP3    H2 3029   5.696   6.294   6.780
 1030TIP3   OH2 3030   0.508   5.348   4.451
 1030TIP3    H1 3031   0.529   5.417   4.515
 1030TIP3    H2 3032   0.480   5.274   4.505
 1031TIP3   OH2 3033   4.250   7.720   3.191
 1031TIP3    H1 3034   4.297   7.654   3.141
 1031TIP3    H2 3035   4.255   7.799   3.137
 1032TIP3   OH2 3036   2.520   4.254   6.425
 1032TIP3    H1 3037   2.427   4.261   6.449
 1032TIP3    H2 3038   2.566   4.290   6.501
 1033TIP3   OH2 3039   1.606   1.988   0.452
 1033TIP3    H1 3040   1.672   2.052   0.477
 1033TIP3    H2 3041   1.612   1.984   0.356
 1034TIP3   OH2 3042   5.272   5.568   5.615
 1034TIP3    H1 3043   5.241   5.479   5.602
 1034TIP3    H2 3044   5.302   5.597   5.529
 1035TIP3   OH2 3045   0.478   1.736   0.508
 1035TIP3    H1 3046   0.552   1.785   0.543
 1035TIP3    H2 3047   0.402   1.776   0.551
 1036TIP3   OH2 3048   4.828   7.889   5.903
 1036TIP3    H1 3049   4.801   7.977   5.877
 1036TIP3    H2 3050   4.780   7.872   5.984
 1037TIP3   OH2 3051   0.501   0.462   3.582
 1037TIP3    H1 3052   0.452   0.432   3.506
 1037TIP3    H2 3053   0.573   0.400   3.591
 1038TIP3   OH2 3054   6.365   0.142   2.347
 1038TIP3    H1 3055   6.293   0.087   2.378
 1038TIP3    H2 3056   6.341   0.166   2.258
 1039TIP3   OH2 3057   1.476   5.396   6.612
 1039TIP3    H1 3058   1.516   5.417   6.527
 1039TIP3    H2 3059   1.463   5.301   6.610
 1040TIP3   OH2 3060   5.013   6.113   2.488
 1040TIP3    H1 3061   4.983   6.095   2.577
 1040TIP3    H2 3062   5.064   6.037   2.464
 1041TIP3   OH2 3063   8.418   6.540   1.018
 1041TIP3    H1 3064   8.390   6.461   1.065
 1041TIP3    H2 3065   8.363   6.542   0.939
 1042TIP3   OH2 3066   3.737   5.040   2.982
 1042TIP3    H1 3067   3.743   5.129   2.948
 1042TIP3    H2 3068   3.646   5.014   2.966
 1043TIP3   OH2 3069   3.384   3.317   1.591
 1043TIP3    H1 3070   3.426   3.259   1.527
 1043TIP3    H2 3071   3.349   3.389   1.539
 1044TIP3   OH2 3072   1.258   0.403   6.795
 1044TIP3    H1 3073   1.163   0.409   6.781
 1044TIP3    H2 3074   1.282   0.488   6.832
 1045TIP3   OH2 3075   4.511   1.342   4.701
 1045TIP3    H1 3076   4.596   1.345   4.658
 1045TIP3    H2 3077   4.461   1.413   4.661
 1046TIP3   OH2 3078   3.124   7.671   6.589
 1046TIP3    H1 3079   3.167   7.634   6.512
 1046TIP3    H2 3080   3.128   7.766   6.575
 1047TIP3   OH2 3081   2.414   0.546   1.888
 1047TIP3    H1 3082   2.392   0.510   1.802
 1047TIP3    H2 3083   2.464   0.626   1.868
 1048TIP3   OH2 3084   3.419   6.233   4.012
 1048TIP3    H1 3085   3.368   6.230   4.094
 1048TIP3    H2 3086   3.437   6.326   3.998
 1049TIP3   OH2 3087   5.413   5.474   2.108
 1049TIP3    H1 3088   5.327   5.435   2.093
 1049TIP3    H2 3089   5.451   5.481   2.020
 1050TIP3   OH2 3090   8.076   4.871   5.542
 1050TIP3    H1 3091   8.095   4.885   5.635
 1050TIP3    H2 3092   8.161   4.856   5.502
 1051TIP3   OH2 3093   7.885   5.496   0.704
 1051TIP3    H1 3094   7.948   5.544   0.758
 1051TIP3    H2 3095   7.928   5.487   0.619
 1052TIP3   OH2 3096   2.345   6.085   2.050
 1052TIP3    H1 3097   2.440   6.085   2.062
 1052TIP3    H2 3098   2.321   6.178   2.049
 1053TIP3   OH2 3099   2.279   6.511   1.264
 1053TIP3    H1 3100   2.345   6.445   1.283
 1053TIP3    H2 3101   2.290   6.577   1.332
 1054TIP3   OH2 3102   6.341   3.935   1.947
 1054TIP3    H1 3103   6.297   4.002   1.895
 1054TIP3    H2 3104   6.309   3.948   2.036
 1055TIP3   OH2 3105   0.748   1.623   1.712
 1055TIP3    H1 3106   0.801   1.582   1.643
 1055TIP3    H2 3107   0.759   1.717   1.698
 1056TIP3   OH2 3108   7.524   2.864   1.718
 1056TIP3    H1 3109   7.561   2.799   1.778
 1056TIP3    H2 3110   7.592   2.875   1.651
 1057TIP3   OH2 3111   6.997   1.330   4.159
 1057TIP3    H1 3112   7.013   1.416   4.196
 1057TIP3    H2 3113   7.029   1.336   4.069
 1058TIP3   OH2 3114   3.392   2.297   1.196
 1058TIP3    H1 3115   3.388   2.392   1.202
 1058TIP3    H2 3116   3.470   2.273   1.247
 1059TIP3   OH2 3117   7.075   4.061   2.061
 1059TIP3    H1 3118   7.118   4.097   1.983
 1059TIP3    H2 3119   7.108   3.972   2.067
 1060TIP3   OH2 3120   7.796   1.139   0.144
 1060TIP3    H1 3121   7.756   1.052   0.135
 1060TIP3    H2 3122   7.768   1.169   0.231
 1061TIP3   OH2 3123   0.461   4.340   0.444
 1061TIP3    H1 3124   0.481   4.258   0.490
 1061TIP3    H2 3125   0.474   4.320   0.352
 1062TIP3   OH2 3126   7.079   3.750   6.301
 1062TIP3    H1 3127   7.036   3.685   6.357
 1062TIP3    H2 3128   7.159   3.706   6.272
 1063TIP3   OH2 3129   3.647   4.152   0.118
 1063TIP3    H1 3130   3.574   4.208   0.092
 1063TIP3    H2 3131   3.709   4.158   0.045
 1064TIP3   OH2 3132   7.753   0.494   2.198
 1064TIP3    H1 3133   7.683   0.461   2.255
 1064TIP3    H2 3134   7.807   0.547   2.257
 1065TIP3   OH2 3135   6.839   0.887   6.092
 1065TIP3    H1 3136   6.802   0.958   6.039
 1065TIP3    H2 3137   6.917   0.860   6.044
 1066TIP3   OH2 3138   8.034   7.715   2.373
 1066TIP3    H1 3139   8.050   7.741   2.282
 1066TIP3    H2 3140   7.952   7.759   2.396
 1067TIP3   OH2 3141   7.177   2.333   0.564
 1067TIP3    H1 3142   7.236   2.409   0.561
 1067TIP3    H2 3143   7.235   2.258   0.546
 1068TIP3   OH2 3144   4.699   5.337   0.031
 1068TIP3    H1 3145   4.769   5.382  -0.016
 1068TIP3    H2 3146   4.693   5.251  -0.011
 1069TIP3   OH2 3147   3.099   3.456   4.462
 1069TIP3    H1 3148   3.140   3.518   4.402
 1069TIP3    H2 3149   3.014   3.437   4.421
 1070TIP3   OH2 3150   6.525   4.509   6.299
 1070TIP3    H1 3151   6.543   4.564   6.375
 1070TIP3    H2 3152   6.605   4.511   6.248
 1071TIP3   OH2 3153   6.342   2.668   1.682
 1071TIP3    H1 3154   6.372   2.678   1.591
 1071TIP3    H2 3155   6.411   2.617   1.724
 1072TIP3   OH2 3156   1.983   1.832   4.143
 1072TIP3    H1 3157   1.904   1.829   4.089
 1072TIP3    H2 3158   2.055   1.836   4.080
 1073TIP3   OH2 3159   0.948   2.009   4.558
 1073TIP3    H1 3160   0.945   2.087   4.503
 1073TIP3    H2 3161   0.875   1.955   4.528
 1074TIP3   OH2 3162   2.412   4.721   0.316
 1074TIP3    H1 3163   2.343   4.686   0.373
 1074TIP3    H2 3164   2.491   4.676   0.344
 1075TIP3   OH2 3165   7.896   2.403   2.434
 1075TIP3    H1 3166   7.830   2.472   2.426
 1075TIP3    H2 3167   7.948   2.410   2.354
 1076TIP3   OH2 3168   1.488   2.978   2.592
 1076TIP3    H1 3169   1.454   2.904   2.542
 1076TIP3    H2 3170   1.581   2.982   2.568
 1077TIP3   OH2 3171   5.144   0.456   1.641
 1077TIP3    H1 3172   5.093   0.536   1.629
 1077TIP3    H2 3173   5.151   0.446   1.736
 1078TIP3   OH2 3174   4.681   3.954   2.441
 1078TIP3    H1 3175   4.640   3.976   2.358
 1078TIP3    H2 3176   4.767   3.919   2.418
 1079TIP3   OH2 3177   0.715   5.805   5.111
 1079TIP3    H1 3178   0.707   5.894   5.076
 1079TIP3    H2 3179   0.766   5.815   5.191
 1080TIP3   OH2 3180   3.330   7.422   6.730
 1080TIP3    H1 3181   3.254   7.469   6.696
 1080TIP3    H2 3182   3.325   7.335   6.689
 1081TIP3   OH2 3183   6.749   6.214   5.865
 1081TIP3    H1 3184   6.740   6.306   5.842
 1081TIP3    H2 3185   6.828   6.210   5.918
 1082TIP3   OH2 3186   5.516   6.167   0.697
 1082TIP3    H1 3187   5.471   6.101   0.750
 1082TIP3    H2 3188   5.598   6.183   0.744
 1083TIP3   OH2 3189   2.752   7.828   0.884
 1083TIP3    H1 3190   2.678   7.772   0.905
 1083TIP3    H2 3191   2.793   7.786   0.808
 1084TIP3   OH2 3192   3.462   2.970   4.492
 1084TIP3    H1 3193   3.467   2.878   4.468
 1084TIP3    H2 3194   3.379   2.978   4.539
 1085TIP3   OH2 3195   4.130   0.945   4.096
 1085TIP3    H1 3196   4.190   0.893   4.149
 1085TIP3    H2 3197   4.110   0.889   4.021
 1086TIP3   OH2 3198   6.344   3.228   2.658
 1086TIP3    H1 3199   6.258   3.197   2.629
 1086TIP3    H2 3200   6.324   3.288   2.731
 1087TIP3   OH2 3201   8.176   5.669   3.995
 1087TIP3    H1 3202   8.237   5.737   3.965
 1087TIP3    H2 3203   8.193   5.662   4.089
 1088TIP3   OH2 3204   0.258   0.758   6.227
 1088TIP3    H1 3205   0.221   0.846   6.218
 1088TIP3    H2 3206   0.328   0.768   6.292
 1089TIP3   OH2 3207   0.749   6.018   3.763
 1089TIP3    H1 3208   0.655   6.006   3.746
 1089TIP3    H2 3209   0.785   5.930   3.763
 1090TIP3   OH2 3210   5.349   6.335   5.509
 1090TIP3    H1 3211   5.395   6.319   5.426
 1090TIP3    H2 3212   5.281   6.268   5.513
 1091TIP3   OH2 3213   0.591   4.514   5.739
 1091TIP3    H1 3214   0.521   4.526   5.675
 1091TIP3    H2 3215   0.549   4.471   5.813
 1092TIP3   OH2 3216   1.253   3.654   0.911
 1092TIP3    H1 3217   1.323   3.632   0.972
 1092TIP3    H2 3218   1.209   3.729   0.951
 1093TIP3   OH2 3219   5.690   0.834   2.090
 1093TIP3    H1 3220   5.680   0.818   1.996
 1093TIP3    H2 3221   5.636   0.912   2.106
 1094TIP3   OH2 3222   2.444   7.485   5.119
 1094TIP3    H1 3223   2.536   7.488   5.147
 1094TIP3    H2 3224   2.418   7.394   5.131
 1095TIP3   OH2 3225   6.700   6.900   4.138
 1095TIP3    H1 3226   6.622   6.845   4.132
 1095TIP3    H2 3227   6.686   6.969   4.074
 1096TIP3   OH2 3228   6.626   2.016   4.322
 1096TIP3    H1 3229   6.545   1.975   4.351
 1096TIP3    H2 3230   6.675   1.945   4.280
 1097TIP3   OH2 3231   1.520   4.082   0.567
 1097TIP3    H1 3232   1.615   4.073   0.571
 1097TIP3    H2 3233   1.493   4.013   0.507
 1098TIP3   OH2 3234   7.813   1.586   0.055
 1098TIP3    H1 3235   7.769   1.565  -0.027
 1098TIP3    H2 3236   7.906   1.571   0.037
 1099TIP3   OH2 3237   1.180   3.639   4.263
 1099TIP3    H1 3238   1.086   3.622   4.262
 1099TIP3    H2 3239   1.188   3.728   4.228
 1100TIP3   OH2 3240   2.037   3.589   2.644
 1100TIP3    H1 3241   2.072   3.525   2.582
 1100TIP3    H2 3242   2.094   3.666   2.634
 1101TIP3   OH2 3243   2.460   1.483   5.934
 1101TIP3    H1 3244   2.517   1.498   6.010
 1101TIP3    H2 3245   2.462   1.388   5.921
 1102TIP3   OH2 3246   0.778   6.597   4.759
 1102TIP3    H1 3247   0.707   6.644   4.716
 1102TIP3    H2 3248   0.858   6.634   4.719
 1103TIP3   OH2 3249   1.926   1.477   4.936
 1103TIP3    H1 3250   1.835   1.447   4.939
 1103TIP3    H2 3251   1.967   1.438   5.013
 1104TIP3   OH2 3252   4.007   4.392   0.669
 1104TIP3    H1 3253   4.079   4.455   0.668
 1104TIP3    H2 3254   3.970   4.396   0.581
 1105TIP3   OH2 3255   7.436   2.276   5.654
 1105TIP3    H1 3256   7.451   2.187   5.622
 1105TIP3    H2 3257   7.362   2.308   5.601
 1106TIP3   OH2 3258   4.197   3.570   4.877
 1106TIP3    H1 3259   4.259   3.643   4.871
 1106TIP3    H2 3260   4.175   3.565   4.970
 1107TIP3   OH2 3261   4.312   5.401   3.948
 1107TIP3    H1 3262   4.289   5.494   3.940
 1107TIP3    H2 3263   4.359   5.381   3.867
 1108TIP3   OH2 3264   4.246   2.355   3.449
 1108TIP3    H1 3265   4.210   2.434   3.490
 1108TIP3    H2 3266   4.259   2.294   3.521
 1109TIP3   OH2 3267   7.795   0.419   6.541
 1109TIP3    H1 3268   7.717   0.474   6.535
 1109TIP3    H2 3269   7.784   0.353   6.472
 1110TIP3   OH2 3270   5.072   2.508   5.934
 1110TIP3    H1 3271   5.100   2.420   5.907
 1110TIP3    H2 3272   5.154   2.554   5.952
 1111TIP3   OH2 3273   4.092   2.853   4.513
 1111TIP3    H1 3274   4.130   2.780   4.561
 1111TIP3    H2 3275   4.113   2.930   4.567
 1112TIP3   OH2 3276   8.060   7.092   5.830
 1112TIP3    H1 3277   8.047   6.999   5.847
 1112TIP3    H2 3278   8.129   7.118   5.890
 1113TIP3   OH2 3279   2.501   1.558   5.217
 1113TIP3    H1 3280   2.482   1.587   5.307
 1113TIP3    H2 3281   2.595   1.544   5.215
 1114TIP3   OH2 3282   4.732   2.172   3.886
 1114TIP3    H1 3283   4.787   2.238   3.928
 1114TIP3    H2 3284   4.646   2.212   3.879
 1115TIP3   OH2 3285   2.924   5.206   0.967
 1115TIP3    H1 3286   2.904   5.276   0.905
 1115TIP3    H2 3287   2.868   5.133   0.939
 1116TIP3   OH2 3288   4.666   7.422   4.789
 1116TIP3    H1 3289   4.723   7.438   4.865
 1116TIP3    H2 3290   4.623   7.506   4.773
 1117TIP3   OH2 3291   2.769   5.144   4.196
 1117TIP3    H1 3292   2.733   5.079   4.257
 1117TIP3    H2 3293   2.757   5.104   4.109
 1118TIP3   OH2 3294   5.304   3.490   2.673
 1118TIP3    H1 3295   5.277   3.435   2.747
 1118TIP3    H2 3296   5.226   3.500   2.620
 1119TIP3   OH2 3297   4.871   4.216   2.457
 1119TIP3    H1 3298   4.852   4.265   2.377
 1119TIP3    H2 3299   4.958   4.179   2.443
 1120TIP3   OH2 3300   1.506   3.317   0.251
 1120TIP3    H1 3301   1.532   3.331   0.342
 1120TIP3    H2 3302   1.574   3.261   0.215
 1121TIP3   OH2 3303   4.133   3.070   4.711
 1121TIP3    H1 3304   4.136   3.006   4.782
 1121TIP3    H2 3305   4.194   3.139   4.738
 1122TIP3   OH2 3306   6.306   7.173   0.108
 1122TIP3    H1 3307   6.358   7.093   0.114
 1122TIP3    H2 3308   6.230   7.149   0.056
 1123TIP3   OH2 3309   1.077   7.345   2.004
 1123TIP3    H1 3310   0.998   7.292   2.014
 1123TIP3    H2 3311   1.087   7.390   2.087
 1124TIP3   OH2 3312   0.212   3.668   2.096
 1124TIP3    H1 3313   0.166   3.681   2.179
 1124TIP3    H2 3314   0.249   3.754   2.076
 1125TIP3   OH2 3315   8.210   7.141   2.120
 1125TIP3    H1 3316   8.189   7.087   2.196
 1125TIP3    H2 3317   8.154   7.108   2.051
 1126TIP3   OH2 3318   0.863   4.604   6.785
 1126TIP3    H1 3319   0.805   4.656   6.842
 1126TIP3    H2 3320   0.887   4.664   6.715
 1127TIP3   OH2 3321   5.396   4.006   6.433
 1127TIP3    H1 3322   5.317   4.060   6.433
 1127TIP3    H2 3323   5.468   4.069   6.435
 1128TIP3   OH2 3324   5.606   4.213   0.358
 1128TIP3    H1 3325   5.686   4.162   0.350
 1128TIP3    H2 3326   5.542   4.167   0.305
 1129TIP3   OH2 3327   7.010   6.609   3.637
 1129TIP3    H1 3328   6.990   6.697   3.668
 1129TIP3    H2 3329   6.985   6.610   3.545
 1130TIP3   OH2 3330   3.607   0.202   6.569
 1130TIP3    H1 3331   3.575   0.130   6.513
 1130TIP3    H2 3332   3.651   0.158   6.642
 1131TIP3   OH2 3333   1.789   3.386   5.602
 1131TIP3    H1 3334   1.769   3.431   5.684
 1131TIP3    H2 3335   1.794   3.456   5.536
 1132TIP3   OH2 3336   2.045   0.310   1.601
 1132TIP3    H1 3337   1.994   0.264   1.668
 1132TIP3    H2 3338   2.135   0.308   1.634
 1133TIP3   OH2 3339   6.676   4.137   6.749
 1133TIP3    H1 3340   6.635   4.052   6.736
 1133TIP3    H2 3341   6.630   4.174   6.825
 1134TIP3   OH2 3342   7.064   3.222   2.451
 1134TIP3    H1 3343   6.982   3.201   2.406
 1134TIP3    H2 3344   7.093   3.139   2.488
 1135TIP3   OH2 3345   7.965   5.179   2.084
 1135TIP3    H1 3346   7.961   5.230   2.004
 1135TIP3    H2 3347   7.884   5.199   2.131
 1136TIP3   OH2 3348   8.274   4.939   1.651
 1136TIP3    H1 3349   8.364   4.924   1.680
 1136TIP3    H2 3350   8.224   4.865   1.688
 1137TIP3   OH2 3351   5.574   5.688   6.354
 1137TIP3    H1 3352   5.506   5.700   6.288
 1137TIP3    H2 3353   5.605   5.777   6.372
 1138TIP3   OH2 3354   3.595   4.186   4.656
 1138TIP3    H1 3355   3.616   4.116   4.718
 1138TIP3    H2 3356   3.677   4.203   4.610
 1139TIP3   OH2 3357   5.778   3.265   4.994
 1139TIP3    H1 3358   5.705   3.227   5.042
 1139TIP3    H2 3359   5.780   3.357   5.022
 1140TIP3   OH2 3360   6.179   2.434   3.940
 1140TIP3    H1 3361   6.210   2.454   4.028
 1140TIP3    H2 3362   6.215   2.348   3.921
 1141TIP3   OH2 3363   7.552   7.432   3.623
 1141TIP3    H1 3364   7.645   7.447   3.603
 1141TIP3    H2 3365   7.505   7.472   3.549
 1142TIP3   OH2 3366   0.712   4.421   6.625
 1142TIP3    H1 3367   0.757   4.496   6.664
 1142TIP3    H2 3368   0.776   4.383   6.565
 1143TIP3   OH2 3369   8.380   1.629   2.716
 1143TIP3    H1 3370   8.313   1.674   2.767
 1143TIP3    H2 3371   8.373   1.538   2.742
 1144TIP3   OH2 3372   4.447   5.621   1.987
 1144TIP3    H1 3373   4.535   5.631   1.950
 1144TIP3    H2 3374   4.389   5.617   1.911
 1145TIP3   OH2 3375   1.869   5.538   4.750
 1145TIP3    H1 3376   1.827   5.582   4.824
 1145TIP3    H2 3377   1.827   5.576   4.673
 1146TIP3   OH2 3378   6.630   5.694   0.904
 1146TIP3    H1 3379   6.623   5.719   0.996
 1146TIP3    H2 3380   6.717   5.725   0.877
 1147TIP3   OH2 3381   1.456   6.504   1.260
 1147TIP3    H1 3382   1.371   6.516   1.303
 1147TIP3    H2 3383   1.473   6.589   1.219
 1148TIP3   OH2 3384   8.317   3.064   4.095
 1148TIP3    H1 3385   8.265   3.145   4.090
 1148TIP3    H2 3386   8.406   3.094   4.113
 1149TIP3   OH2 3387   3.346   5.042   6.366
 1149TIP3    H1 3388   3.365   5.135   6.358
 1149TIP3    H2 3389   3.417   5.007   6.420
 1150TIP3   OH2 3390   4.469   1.277   3.216
 1150TIP3    H1 3391   4.552   1.322   3.200
 1150TIP3    H2 3392   4.486   1.220   3.291
 1151TIP3   OH2 3393   7.394   2.400   1.685
 1151TIP3    H1 3394   7.373   2.380   1.594
 1151TIP3    H2 3395   7.368   2.491   1.696
 1152TIP3   OH2 3396   0.409   6.273   4.888
 1152TIP3    H1 3397   0.504   6.284   4.886
 1152TIP3    H2 3398   0.381   6.320   4.967
 1153TIP3   OH2 3399   5.625   5.241   2.766
 1153TIP3    H1 3400   5.579   5.207   2.843
 1153TIP3    H2 3401   5.703   5.283   2.802
 1154TIP3   OH2 3402   2.265   0.035   3.680
 1154TIP3    H1 3403   2.360   0.039   3.690
 1154TIP3    H2 3404   2.231   0.035   3.769
 1155TIP3   OH2 3405   5.061   2.800   1.608
 1155TIP3    H1 3406   5.020   2.733   1.553
 1155TIP3    H2 3407   5.061   2.879   1.554
 1156TIP3   OH2 3408   2.997   7.721   5.942
 1156TIP3    H1 3409   2.991   7.813   5.967
 1156TIP3    H2 3410   3.062   7.684   6.003
 1157TIP3   OH2 3411   3.414   6.562   2.936
 1157TIP3    H1 3412   3.331   6.600   2.963
 1157TIP3    H2 3413   3.396   6.469   2.922
 1158TIP3   OH2 3414   3.542   1.835   6.558
 1158TIP3    H1 3415   3.447   1.832   6.568
 1158TIP3    H2 3416   3.562   1.927   6.540
 1159TIP3   OH2 3417   5.628   3.827   0.300
 1159TIP3    H1 3418   5.672   3.878   0.368
 1159TIP3    H2 3419   5.696   3.809   0.235
 1160TIP3   OH2 3420   6.254   4.255   6.751
 1160TIP3    H1 3421   6.209   4.337   6.773
 1160TIP3    H2 3422   6.202   4.217   6.680
 1161TIP3   OH2 3423   7.503   2.108   2.363
 1161TIP3    H1 3424   7.485   2.162   2.440
 1161TIP3    H2 3425   7.505   2.170   2.290
 1162TIP3   OH2 3426   7.895   4.600   4.582
 1162TIP3    H1 3427   7.888   4.689   4.547
 1162TIP3    H2 3428   7.954   4.608   4.657
 1163TIP3   OH2 3429   5.131   0.698   3.109
 1163TIP3    H1 3430   5.143   0.610   3.145
 1163TIP3    H2 3431   5.181   0.755   3.167
 1164TIP3   OH2 3432   5.720   4.929   4.872
 1164TIP3    H1 3433   5.702   5.009   4.921
 1164TIP3    H2 3434   5.653   4.928   4.803
 1165TIP3   OH2 3435   5.466   2.762   3.648
 1165TIP3    H1 3436   5.489   2.854   3.662
 1165TIP3    H2 3437   5.415   2.738   3.726
 1166TIP3   OH2 3438   7.574   4.808   4.371
 1166TIP3    H1 3439   7.633   4.818   4.296
 1166TIP3    H2 3440   7.573   4.713   4.388
 1167TIP3   OH2 3441   3.891   4.115   1.071
 1167TIP3    H1 3442   3.947   4.129   1.147
 1167TIP3    H2 3443   3.835   4.042   1.096
 1168TIP3   OH2 3444   3.229   4.415   2.291
 1168TIP3    H1 3445   3.197   4.382   2.207
 1168TIP3    H2 3446   3.320   4.385   2.295
 1169TIP3   OH2 3447   5.057   0.603   6.214
 1169TIP3    H1 3448   5.124   0.582   6.279
 1169TIP3    H2 3449   5.032   0.694   6.233
 1170TIP3   OH2 3450   0.527   1.699   3.060
 1170TIP3    H1 3451   0.515   1.727   2.969
 1170TIP3    H2 3452   0.456   1.636   3.075
 1171TIP3   OH2 3453   8.207   4.262   4.554
 1171TIP3    H1 3454   8.166   4.347   4.537
 1171TIP3    H2 3455   8.179   4.206   4.482
 1172TIP3   OH2 3456   1.711   3.377   4.520
 1172TIP3    H1 3457   1.694   3.468   4.496
 1172TIP3    H2 3458   1.704   3.329   4.438
 1173TIP3   OH2 3459   1.647   3.043   4.195
 1173TIP3    H1 3460   1.684   2.959   4.169
 1173TIP3    H2 3461   1.556   3.040   4.165
 1174TIP3   OH2 3462   0.792   3.354   6.582
 1174TIP3    H1 3463   0.779   3.398   6.497
 1174TIP3    H2 3464   0.754   3.414   6.646
 1175TIP3   OH2 3465   5.996   1.060   4.756
 1175TIP3    H1 3466   5.999   1.015   4.841
 1175TIP3    H2 3467   6.087   1.078   4.735
 1176TIP3   OH2 3468   7.296   1.357   6.414
 1176TIP3    H1 3469   7.297   1.326   6.505
 1176TIP3    H2 3470   7.233   1.429   6.414
 1177TIP3   OH2 3471   0.780   5.315   2.980
 1177TIP3    H1 3472   0.724   5.245   3.013
 1177TIP3    H2 3473   0.869   5.286   3.000
 1178TIP3   OH2 3474   7.520   1.130   2.758
 1178TIP3    H1 3475   7.448   1.105   2.700
 1178TIP3    H2 3476   7.478   1.153   2.841
 1179TIP3   OH2 3477   5.675   1.905   5.721
 1179TIP3    H1 3478   5.714   1.989   5.748
 1179TIP3    H2 3479   5.659   1.858   5.803
 1180TIP3   OH2 3480   0.224   4.440   3.167
 1180TIP3    H1 3481   0.188   4.364   3.213
 1180TIP3    H2 3482   0.202   4.425   3.075
 1181TIP3   OH2 3483   2.899   3.259   5.725
 1181TIP3    H1 3484   2.823   3.277   5.669
 1181TIP3    H2 3485   2.971   3.242   5.664
 1182TIP3   OH2 3486   6.436   6.764   1.699
 1182TIP3    H1 3487   6.461   6.807   1.617
 1182TIP3    H2 3488   6.512   6.713   1.725
 1183TIP3   OH2 3489   8.226   6.887   3.315
 1183TIP3    H1 3490   8.288   6.913   3.383
 1183TIP3    H2 3491   8.169   6.823   3.359
 1184TIP3   OH2 3492   4.671   1.675   0.873
 1184TIP3    H1 3493   4.584   1.693   0.909
 1184TIP3    H2 3494   4.723   1.645   0.948
 1185TIP3   OH2 3495   6.164   5.090   4.271
 1185TIP3    H1 3496   6.090   5.037   4.302
 1185TIP3    H2 3497   6.212   5.112   4.351
 1186TIP3   OH2 3498   0.985   7.903   4.546
 1186TIP3    H1 3499   0.891   7.922   4.547
 1186TIP3    H2 3500   1.019   7.951   4.622
 1187TIP3   OH2 3501   3.558   1.642   3.876
 1187TIP3    H1 3502   3.634   1.585   3.875
 1187TIP3    H2 3503   3.485   1.586   3.851
 1188TIP3   OH2 3504   5.058   3.978   4.292
 1188TIP3    H1 3505   5.138   3.992   4.241
 1188TIP3    H2 3506   5.060   3.885   4.314
 1189TIP3   OH2 3507   4.144   1.908   5.401
 1189TIP3    H1 3508   4.176   1.819   5.418
 1189TIP3    H2 3509   4.205   1.944   5.337
 1190TIP3   OH2 3510   6.420   5.568   4.802
 1190TIP3    H1 3511   6.446   5.602   4.716
 1190TIP3    H2 3512   6.404   5.475   4.788
 1191TIP3   OH2 3513   2.527   5.458   1.696
 1191TIP3    H1 3514   2.460   5.405   1.739
 1191TIP3    H2 3515   2.549   5.409   1.617
 1192TIP3   OH2 3516   4.623   5.637   6.804
 1192TIP3    H1 3517   4.684   5.690   6.753
 1192TIP3    H2 3518   4.543   5.635   6.752
 1193TIP3   OH2 3519   5.591   1.979   5.433
 1193TIP3    H1 3520   5.657   2.049   5.427
 1193TIP3    H2 3521   5.553   1.975   5.345
 1194TIP3   OH2 3522   6.467   4.963   1.117
 1194TIP3    H1 3523   6.470   5.052   1.151
 1194TIP3    H2 3524   6.377   4.934   1.134
 1195TIP3   OH2 3525   4.438   2.395   0.902
 1195TIP3    H1 3526   4.405   2.305   0.909
 1195TIP3    H2 3527   4.363   2.450   0.921
 1196TIP3   OH2 3528   0.811   5.206   2.366
 1196TIP3    H1 3529   0.755   5.281   2.347
 1196TIP3    H2 3530   0.900   5.239   2.355
 1197TIP3   OH2 3531   3.798   0.142   0.232
 1197TIP3    H1 3532   3.759   0.207   0.173
 1197TIP3    H2 3533   3.726   0.083   0.254
 1198TIP3   OH2 3534   2.042   1.279   3.310
 1198TIP3    H1 3535   2.009   1.304   3.223
 1198TIP3    H2 3536   2.073   1.361   3.348
 1199TIP3   OH2 3537   3.908   3.668   5.284
 1199TIP3    H1 3538   3.895   3.725   5.209
 1199TIP3    H2 3539   3.852   3.704   5.352
 1200TIP3   OH2 3540   3.675   5.434   2.145
 1200TIP3    H1 3541   3.652   5.488   2.069
 1200TIP3    H2 3542   3.771   5.438   2.149
 1201TIP3   OH2 3543   5.865   4.747   2.722
 1201TIP3    H1 3544   5.925   4.814   2.757
 1201TIP3    H2 3545   5.818   4.715   2.799
 1202TIP3   OH2 3546   2.423   1.253   0.785
 1202TIP3    H1 3547   2.333   1.249   0.754
 1202TIP3    H2 3548   2.457   1.164   0.773
 1203TIP3   OH2 3549   6.301   4.341   6.096
 1203TIP3    H1 3550   6.383   4.306   6.129
 1203TIP3    H2 3551   6.243   4.344   6.172
 1204TIP3   OH2 3552   5.514   6.240   1.978
 1204TIP3    H1 3553   5.541   6.287   1.900
 1204TIP3    H2 3554   5.512   6.306   2.047
 1205TIP3   OH2 3555   5.762   1.871   4.323
 1205TIP3    H1 3556   5.731   1.781   4.314
 1205TIP3    H2 3557   5.772   1.884   4.418
 1206TIP3   OH2 3558   0.441   7.045   6.293
 1206TIP3    H1 3559   0.513   7.006   6.243
 1206TIP3    H2 3560   0.378   6.973   6.303
 1207TIP3   OH2 3561   4.109   1.708   0.160
 1207TIP3    H1 3562   4.094   1.636   0.222
 1207TIP3    H2 3563   4.157   1.774   0.211
 1208TIP3   OH2 3564   4.869   3.032   1.580
 1208TIP3    H1 3565   4.819   2.982   1.645
 1208TIP3    H2 3566   4.898   3.110   1.627
 1209TIP3   OH2 3567   0.884   0.037   6.300
 1209TIP3    H1 3568   0.952   0.032   6.368
 1209TIP3    H2 3569   0.895  -0.043   6.249
 1210TIP3   OH2 3570   2.327   6.321   4.550
 1210TIP3    H1 3571   2.326   6.280   4.464
 1210TIP3    H2 3572   2.346   6.413   4.533
 1211TIP3   OH2 3573   7.894   4.214   5.096
 1211TIP3    H1 3574   7.943   4.296   5.092
 1211TIP3    H2 3575   7.952   4.150   5.054
 1212TIP3   OH2 3576   1.877   2.527   3.166
 1212TIP3    H1 3577   1.945   2.564   3.222
 1212TIP3    H2 3578   1.923   2.468   3.107
 1213TIP3   OH2 3579   4.317   5.068   3.087
 1213TIP3    H1 3580   4.302   5.143   3.144
 1213TIP3    H2 3581   4.351   5.000   3.145
 1214TIP3   OH2 3582   7.820   7.315   5.926
 1214TIP3    H1 3583   7.733   7.353   5.939
 1214TIP3    H2 3584   7.858   7.367   5.856
 1215TIP3   OH2 3585   5.267   7.375   4.610
 1215TIP3    H1 3586   5.217   7.455   4.590
 1215TIP3    H2 3587   5.207   7.304   4.587
 1216TIP3   OH2 3588   7.583   1.366   4.146
 1216TIP3    H1 3589   7.596   1.458   4.123
 1216TIP3    H2 3590   7.518   1.334   4.084
 1217TIP3   OH2 3591   4.681   0.838   2.600
 1217TIP3    H1 3592   4.633   0.758   2.580
 1217TIP3    H2 3593   4.672   0.850   2.694
 1218TIP3   OH2 3594   0.812   3.287   4.288
 1218TIP3    H1 3595   0.868   3.250   4.357
 1218TIP3    H2 3596   0.843   3.377   4.278
 1219TIP3   OH2 3597   7.932   7.443   5.632
 1219TIP3    H1 3598   7.994   7.372   5.618
 1219TIP3    H2 3599   7.970   7.518   5.586
 1220TIP3   OH2 3600   6.731   3.187   3.510
 1220TIP3    H1 3601   6.641   3.165   3.537
 1220TIP3    H2 3602   6.757   3.115   3.453
 1221TIP3   OH2 3603   2.805   5.568   6.687
 1221TIP3    H1 3604   2.829   5.484   6.724
 1221TIP3    H2 3605   2.854   5.632   6.739
 1222TIP3   OH2 3606   5.414   0.193   2.073
 1222TIP3    H1 3607   5.346   0.201   2.140
 1222TIP3    H2 3608   5.372   0.227   1.994
 1223TIP3   OH2 3609   5.589   7.046   5.876
 1223TIP3    H1 3610   5.622   7.094   5.952
 1223TIP3    H2 3611   5.657   6.982   5.856
 1224TIP3   OH2 3612   0.909   4.427   5.056
 1224TIP3    H1 3613   0.814   4.436   5.053
 1224TIP3    H2 3614   0.933   4.400   4.967
 1225TIP3   OH2 3615   1.640   3.522   0.859
 1225TIP3    H1 3616   1.654   3.428   0.843
 1225TIP3    H2 3617   1.603   3.526   0.947
 1226TIP3   OH2 3618   4.232   4.009   1.505
 1226TIP3    H1 3619   4.317   4.042   1.474
 1226TIP3    H2 3620   4.167   4.055   1.452
 1227TIP3   OH2 3621   4.321   4.656   3.372
 1227TIP3    H1 3622   4.275   4.630   3.292
 1227TIP3    H2 3623   4.404   4.609   3.367
 1228TIP3   OH2 3624   4.318   7.250   4.800
 1228TIP3    H1 3625   4.370   7.224   4.876
 1228TIP3    H2 3626   4.278   7.334   4.825
 1229TIP3   OH2 3627   7.376   6.023   5.581
 1229TIP3    H1 3628   7.364   6.042   5.674
 1229TIP3    H2 3629   7.471   6.015   5.571
 1230TIP3   OH2 3630   4.376   1.212   4.900
 1230TIP3    H1 3631   4.413   1.264   4.830
 1230TIP3    H2 3632   4.434   1.136   4.908
 1231TIP3   OH2 3633   0.348   3.831   5.675
 1231TIP3    H1 3634   0.412   3.901   5.662
 1231TIP3    H2 3635   0.332   3.832   5.770
 1232TIP3   OH2 3636   1.181   2.363   6.296
 1232TIP3    H1 3637   1.092   2.363   6.262
 1232TIP3    H2 3638   1.185   2.439   6.354
 1233TIP3   OH2 3639   3.055   2.994   4.888
 1233TIP3    H1 3640   3.012   2.916   4.924
 1233TIP3    H2 3641   3.140   2.996   4.930
 1234TIP3   OH2 3642   5.080   4.465   6.391
 1234TIP3    H1 3643   5.073   4.560   6.379
 1234TIP3    H2 3644   5.007   4.429   6.341
 1235TIP3   OH2 3645   3.045   5.258   4.184
 1235TIP3    H1 3646   2.951   5.251   4.169
 1235TIP3    H2 3647   3.053   5.291   4.274
 1236TIP3   OH2 3648   7.230   1.599   6.658
 1236TIP3    H1 3649   7.182   1.616   6.576
 1236TIP3    H2 3650   7.184   1.526   6.698
 1237TIP3   OH2 3651   0.135   1.201   3.186
 1237TIP3    H1 3652   0.080   1.261   3.237
 1237TIP3    H2 3653   0.084   1.121   3.179
 1238TIP3   OH2 3654   1.475   3.765   2.443
 1238TIP3    H1 3655   1.510   3.801   2.524
 1238TIP3    H2 3656   1.386   3.802   2.436
 1239TIP3   OH2 3657   0.682   3.093   6.611
 1239TIP3    H1 3658   0.694   3.076   6.704
 1239TIP3    H2 3659   0.716   3.182   6.598
 1240TIP3   OH2 3660   6.965   7.830   5.495
 1240TIP3    H1 3661   6.920   7.906   5.531
 1240TIP3    H2 3662   7.020   7.865   5.425
 1241TIP3   OH2 3663   8.029   4.906   2.761
 1241TIP3    H1 3664   7.973   4.966   2.711
 1241TIP3    H2 3665   7.973   4.873   2.831
 1242TIP3   OH2 3666   1.927   1.311   2.577
 1242TIP3    H1 3667   2.009   1.274   2.545
 1242TIP3    H2 3668   1.952   1.395   2.616
 1243TIP3   OH2 3669   0.794   4.217   2.250
 1243TIP3    H1 3670   0.884   4.246   2.268
 1243TIP3    H2 3671   0.779   4.147   2.313
 1244TIP3   OH2 3672   0.862   1.217   2.761
 1244TIP3    H1 3673   0.824   1.243   2.677
 1244TIP3    H2 3674   0.787   1.187   2.813
 1245TIP3   OH2 3675   4.930   5.306   3.243
 1245TIP3    H1 3676   4.835   5.299   3.236
 1245TIP3    H2 3677   4.945   5.330   3.335
 1246TIP3   OH2 3678   6.880   0.024   0.904
 1246TIP3    H1 3679   6.801   0.065   0.869
 1246TIP3    H2 3680   6.946   0.040   0.836
 1247TIP3   OH2 3681   1.589   2.001   6.455
 1247TIP3    H1 3682   1.611   1.918   6.413
 1247TIP3    H2 3683   1.605   2.067   6.388
 1248TIP3   OH2 3684   7.864   2.774   0.183
 1248TIP3    H1 3685   7.798   2.745   0.120
 1248TIP3    H2 3686   7.946   2.772   0.135
 1249TIP3   OH2 3687   6.071   6.976   5.843
 1249TIP3    H1 3688   6.126   6.911   5.885
 1249TIP3    H2 3689   6.040   7.031   5.915
 1250TIP3   OH2 3690   2.175   3.502   1.768
 1250TIP3    H1 3691   2.155   3.521   1.677
 1250TIP3    H2 3692   2.120   3.427   1.790
 1251TIP3   OH2 3693   5.183   2.387   1.656
 1251TIP3    H1 3694   5.227   2.381   1.741
 1251TIP3    H2 3695   5.229   2.456   1.609
 1252TIP3   OH2 3696   0.194   5.766   0.502
 1252TIP3    H1 3697   0.202   5.847   0.551
 1252TIP3    H2 3698   0.100   5.747   0.503
 1253TIP3   OH2 3699   6.858   0.054   5.550
 1253TIP3    H1 3700   6.949   0.059   5.580
 1253TIP3    H2 3701   6.852  -0.029   5.503
 1254TIP3   OH2 3702   0.930   4.753   3.865
 1254TIP3    H1 3703   0.881   4.803   3.799
 1254TIP3    H2 3704   0.933   4.664   3.829
 1255TIP3   OH2 3705   4.728   5.514   1.803
 1255TIP3    H1 3706   4.777   5.588   1.839
 1255TIP3    H2 3707   4.732   5.527   1.708
 1256TIP3   OH2 3708  -0.005   0.753   6.052
 1256TIP3    H1 3709   0.068   0.775   6.110
 1256TIP3    H2 3710  -0.031   0.665   6.078
 1257TIP3   OH2 3711   4.749   7.306   1.522
 1257TIP3    H1 3712   4.814   7.302   1.452
 1257TIP3    H2 3713   4.667   7.330   1.478
 1258TIP3   OH2 3714   4.011   5.437   4.386
 1258TIP3    H1 3715   3.959   5.512   4.415
 1258TIP3    H2 3716   3.961   5.399   4.314
 1259TIP3   OH2 3717   3.359   5.641   1.198
 1259TIP3    H1 3718   3.283   5.635   1.140
 1259TIP3    H2 3719   3.393   5.730   1.183
 1260TIP3   OH2 3720   4.727   3.229   1.869
 1260TIP3    H1 3721   4.697   3.276   1.948
 1260TIP3    H2 3722   4.729   3.137   1.895
 1261TIP3   OH2 3723   1.144   1.746   5.529
 1261TIP3    H1 3724   1.136   1.691   5.451
 1261TIP3    H2 3725   1.090   1.701   5.595
 1262TIP3   OH2 3726   0.732   4.860   3.097
 1262TIP3    H1 3727   0.765   4.855   3.186
 1262TIP3    H2 3728   0.800   4.818   3.044
 1263TIP3   OH2 3729   1.216   4.868   6.821
 1263TIP3    H1 3730   1.237   4.814   6.745
 1263TIP3    H2 3731   1.290   4.928   6.830
 1264TIP3   OH2 3732   8.296   2.478   4.697
 1264TIP3    H1 3733   8.200   2.470   4.702
 1264TIP3    H2 3734   8.323   2.405   4.642
 1265TIP3   OH2 3735   3.707   7.031   3.488
 1265TIP3    H1 3736   3.683   7.090   3.416
 1265TIP3    H2 3737   3.666   7.071   3.565
 1266TIP3   OH2 3738   3.547   5.780   6.018
 1266TIP3    H1 3739   3.472   5.791   5.959
 1266TIP3    H2 3740   3.517   5.717   6.083
 1267TIP3   OH2 3741   5.224   6.214   1.560
 1267TIP3    H1 3742   5.251   6.305   1.572
 1267TIP3    H2 3743   5.129   6.219   1.546
 1268TIP3   OH2 3744   0.472   0.735   6.443
 1268TIP3    H1 3745   0.425   0.679   6.504
 1268TIP3    H2 3746   0.565   0.722   6.464
 1269TIP3   OH2 3747   1.549   5.941   0.223
 1269TIP3    H1 3748   1.557   5.985   0.308
 1269TIP3    H2 3749   1.473   5.884   0.234
 1270TIP3   OH2 3750   8.290   0.037   4.497
 1270TIP3    H1 3751   8.301   0.131   4.478
 1270TIP3    H2 3752   8.379   0.001   4.489
 1271TIP3   OH2 3753   5.577   6.888   4.112
 1271TIP3    H1 3754   5.582   6.895   4.207
 1271TIP3    H2 3755   5.642   6.952   4.080
 1272TIP3   OH2 3756   3.827   1.137   5.523
 1272TIP3    H1 3757   3.775   1.056   5.520
 1272TIP3    H2 3758   3.765   1.206   5.499
 1273TIP3   OH2 3759   7.203   7.728   3.714
 1273TIP3    H1 3760   7.120   7.716   3.668
 1273TIP3    H2 3761   7.221   7.822   3.706
 1274TIP3   OH2 3762   5.304   4.225   4.400
 1274TIP3    H1 3763   5.321   4.136   4.430
 1274TIP3    H2 3764   5.272   4.271   4.478
 1275TIP3   OH2 3765   6.130   0.690   5.430
 1275TIP3    H1 3766   6.201   0.626   5.423
 1275TIP3    H2 3767   6.050   0.638   5.425
 1276TIP3   OH2 3768   1.057   1.460   6.430
 1276TIP3    H1 3769   0.998   1.433   6.502
 1276TIP3    H2 3770   1.008   1.440   6.351
 1277TIP3   OH2 3771   0.461   7.701   4.810
 1277TIP3    H1 3772   0.463   7.718   4.716
 1277TIP3    H2 3773   0.391   7.757   4.843
 1278TIP3   OH2 3774   1.751   6.140   3.819
 1278TIP3    H1 3775   1.689   6.208   3.792
 1278TIP3    H2 3776   1.792   6.112   3.738
 1279TIP3   OH2 3777   7.846   3.058   5.185
 1279TIP3    H1 3778   7.925   3.007   5.203
 1279TIP3    H2 3779   7.797   3.005   5.123
 1280TIP3   OH2 3780   7.931   4.607   3.135
 1280TIP3    H1 3781   8.018   4.625   3.171
 1280TIP3    H2 3782   7.890   4.548   3.199
 1281TIP3   OH2 3783   3.536   0.677   1.756
 1281TIP3    H1 3784   3.586   0.697   1.676
 1281TIP3    H2 3785   3.590   0.711   1.827
 1282TIP3   OH2 3786   3.462   1.191   4.316
 1282TIP3    H1 3787   3.526   1.263   4.310
 1282TIP3    H2 3788   3.403   1.205   4.242
 1283TIP3   OH2 3789   1.159   2.993   2.028
 1283TIP3    H1 3790   1.087   3.031   2.079
 1283TIP3    H2 3791   1.187   3.063   1.970
 1284TIP3   OH2 3792   6.129   1.083   6.498
 1284TIP3    H1 3793   6.059   1.083   6.432
 1284TIP3    H2 3794   6.130   0.994   6.532
 1285TIP3   OH2 3795   6.297   5.095   2.565
 1285TIP3    H1 3796   6.330   5.185   2.555
 1285TIP3    H2 3797   6.207   5.106   2.594
 1286TIP3   OH2 3798   1.288   4.596   2.562
 1286TIP3    H1 3799   1.265   4.594   2.469
 1286TIP3    H2 3800   1.363   4.656   2.566
 1287TIP3   OH2 3801   0.761   1.955   1.344
 1287TIP3    H1 3802   0.838   1.898   1.335
 1287TIP3    H2 3803   0.795   2.044   1.335
 1288TIP3   OH2 3804   2.818   6.625   2.737
 1288TIP3    H1 3805   2.745   6.601   2.794
 1288TIP3    H2 3806   2.896   6.602   2.786
 1289TIP3   OH2 3807   8.005   5.067   1.288
 1289TIP3    H1 3808   7.961   5.061   1.373
 1289TIP3    H2 3809   8.086   5.115   1.307
 1290TIP3   OH2 3810   3.889   3.614   3.136
 1290TIP3    H1 3811   3.973   3.617   3.182
 1290TIP3    H2 3812   3.827   3.655   3.196
 1291TIP3   OH2 3813   1.960   3.404   0.090
 1291TIP3    H1 3814   2.028   3.432   0.028
 1291TIP3    H2 3815   1.901   3.350   0.038
 1292TIP3   OH2 3816   6.676   0.757   0.142
 1292TIP3    H1 3817   6.729   0.800   0.075
 1292TIP3    H2 3818   6.673   0.666   0.115
 1293TIP3   OH2 3819   2.909   0.752   2.367
 1293TIP3    H1 3820   2.917   0.656   2.374
 1293TIP3    H2 3821   2.901   0.781   2.458
 1294TIP3   OH2 3822   5.620   4.487   2.903
 1294TIP3    H1 3823   5.589   4.451   2.820
 1294TIP3    H2 3824   5.541   4.514   2.948
 1295TIP3   OH2 3825   2.832   3.402   4.326
 1295TIP3    H1 3826   2.837   3.331   4.261
 1295TIP3    H2 3827   2.852   3.481   4.277
 1296TIP3   OH2 3828   6.165   2.497   1.102
 1296TIP3    H1 3829   6.186   2.586   1.075
 1296TIP3    H2 3830   6.129   2.456   1.024
 1297TIP3   OH2 3831   3.578   2.370   1.457
 1297TIP3    H1 3832   3.663   2.345   1.421
 1297TIP3    H2 3833   3.558   2.301   1.521
 1298TIP3   OH2 3834   4.518   1.870   0.097
 1298TIP3    H1 3835   4.462   1.799   0.065
 1298TIP3    H2 3836   4.604   1.828   0.110
 1299TIP3   OH2 3837   4.315   4.768   5.784
 1299TIP3    H1 3838   4.318   4.677   5.757
 1299TIP3    H2 3839   4.322   4.766   5.879
 1300TIP3   OH2 3840   6.585   1.603   3.319
 1300TIP3    H1 3841   6.585   1.547   3.242
 1300TIP3    H2 3842   6.506   1.656   3.310
 1301TIP3   OH2 3843   2.554   4.241   1.263
 1301TIP3    H1 3844   2.504   4.228   1.344
 1301TIP3    H2 3845   2.619   4.171   1.263
 1302TIP3   OH2 3846   5.048   2.101   4.107
 1302TIP3    H1 3847   5.071   2.192   4.126
 1302TIP3    H2 3848   4.956   2.093   4.134
 1303TIP3   OH2 3849   3.357   4.615   3.626
 1303TIP3    H1 3850   3.409   4.640   3.550
 1303TIP3    H2 3851   3.336   4.523   3.612
 1304TIP3   OH2 3852   6.465   6.897   3.788
 1304TIP3    H1 3853   6.433   6.810   3.764
 1304TIP3    H2 3854   6.392   6.956   3.768
 1305TIP3   OH2 3855   4.923   2.570   4.930
 1305TIP3    H1 3856   5.015   2.596   4.918
 1305TIP3    H2 3857   4.873   2.643   4.893
 1306TIP3   OH2 3858   3.461   4.986   5.455
 1306TIP3    H1 3859   3.403   4.921   5.415
 1306TIP3    H2 3860   3.495   4.942   5.533
 1307TIP3   OH2 3861   5.058   5.122   5.009
 1307TIP3    H1 3862   4.982   5.071   4.982
 1307TIP3    H2 3863   5.116   5.121   4.932
 1308TIP3   OH2 3864   7.567   2.667   3.798
 1308TIP3    H1 3865   7.658   2.660   3.825
 1308TIP3    H2 3866   7.525   2.589   3.835
 1309TIP3   OH2 3867   8.113   6.769   4.769
 1309TIP3    H1 3868   8.157   6.787   4.685
 1309TIP3    H2 3869   8.020   6.780   4.750
 1310TIP3   OH2 3870   0.644   0.974   3.187
 1310TIP3    H1 3871   0.661   1.067   3.174
 1310TIP3    H2 3872   0.730   0.935   3.202
 1311TIP3   OH2 3873   8.239   3.852   6.146
 1311TIP3    H1 3874   8.266   3.943   6.153
 1311TIP3    H2 3875   8.199   3.845   6.060
 1312TIP3   OH2 3876   5.644   5.060   2.283
 1312TIP3    H1 3877   5.645   5.140   2.230
 1312TIP3    H2 3878   5.551   5.043   2.298
 1313TIP3   OH2 3879   0.862   1.417   4.838
 1313TIP3    H1 3880   0.854   1.464   4.920
 1313TIP3    H2 3881   0.947   1.443   4.803
 1314TIP3   OH2 3882   7.234   4.527   0.784
 1314TIP3    H1 3883   7.227   4.618   0.812
 1314TIP3    H2 3884   7.314   4.525   0.731
 1315TIP3   OH2 3885   8.213   2.565   0.477
 1315TIP3    H1 3886   8.137   2.510   0.498
 1315TIP3    H2 3887   8.182   2.620   0.405
 1316TIP3   OH2 3888   5.038   7.601   4.619
 1316TIP3    H1 3889   4.993   7.569   4.541
 1316TIP3    H2 3890   5.109   7.655   4.584
 1317TIP3   OH2 3891   0.480   4.934   3.369
 1317TIP3    H1 3892   0.463   4.855   3.420
 1317TIP3    H2 3893   0.398   4.953   3.324
 1318TIP3   OH2 3894   7.202   4.940   5.365
 1318TIP3    H1 3895   7.153   4.948   5.282
 1318TIP3    H2 3896   7.163   5.006   5.422
 1319TIP3   OH2 3897   1.525   0.966   3.575
 1319TIP3    H1 3898   1.500   1.058   3.560
 1319TIP3    H2 3899   1.588   0.947   3.506
 1320TIP3   OH2 3900   2.486   2.417   3.273
 1320TIP3    H1 3901   2.560   2.445   3.220
 1320TIP3    H2 3902   2.477   2.323   3.254
 1321TIP3   OH2 3903   6.442   4.327   4.886
 1321TIP3    H1 3904   6.481   4.414   4.884
 1321TIP3    H2 3905   6.354   4.340   4.921
 1322TIP3   OH2 3906   5.856   7.051   1.865
 1322TIP3    H1 3907   5.868   6.958   1.886
 1322TIP3    H2 3908   5.915   7.097   1.926
 1323TIP3   OH2 3909   5.961   6.932   0.048
 1323TIP3    H1 3910   5.959   6.858  -0.014
 1323TIP3    H2 3911   5.881   6.921   0.099
 1324TIP3   OH2 3912   5.132   2.033   4.658
 1324TIP3    H1 3913   5.092   1.970   4.717
 1324TIP3    H2 3914   5.058   2.073   4.611
 1325TIP3   OH2 3915   4.203   6.636   2.149
 1325TIP3    H1 3916   4.156   6.696   2.208
 1325TIP3    H2 3917   4.253   6.579   2.207
 1326TIP3   OH2 3918   7.175   5.954   6.706
 1326TIP3    H1 3919   7.263   5.982   6.731
 1326TIP3    H2 3920   7.118   5.988   6.776
 1327TIP3   OH2 3921   5.008   0.014   5.217
 1327TIP3    H1 3922   5.096  -0.011   5.247
 1327TIP3    H2 3923   4.997   0.104   5.248
 1328TIP3   OH2 3924   5.954   6.207   4.833
 1328TIP3    H1 3925   5.943   6.165   4.748
 1328TIP3    H2 3926   5.866   6.233   4.859
 1329TIP3   OH2 3927   5.299   3.780   6.568
 1329TIP3    H1 3928   5.390   3.790   6.541
 1329TIP3    H2 3929   5.303   3.720   6.642
 1330TIP3   OH2 3930   4.300   3.268   6.686
 1330TIP3    H1 3931   4.319   3.301   6.774
 1330TIP3    H2 3932   4.311   3.173   6.694
 1331TIP3   OH2 3933   6.349   0.551   6.802
 1331TIP3    H1 3934   6.420   0.510   6.851
 1331TIP3    H2 3935   6.311   0.479   6.751
 1332TIP3   OH2 3936   4.122   0.407   0.471
 1332TIP3    H1 3937   4.084   0.348   0.406
 1332TIP3    H2 3938   4.086   0.493   0.449
 1333TIP3   OH2 3939   6.923   5.600   5.775
 1333TIP3    H1 3940   7.017   5.614   5.788
 1333TIP3    H2 3941   6.889   5.686   5.749
 1334TIP3   OH2 3942   5.312   7.037   5.979
 1334TIP3    H1 3943   5.406   7.050   5.967
 1334TIP3    H2 3944   5.274   7.123   5.964
 1335TIP3   OH2 3945   4.663   0.493   2.184
 1335TIP3    H1 3946   4.702   0.417   2.227
 1335TIP3    H2 3947   4.716   0.507   2.106
 1336TIP3   OH2 3948   5.159   6.923   6.777
 1336TIP3    H1 3949   5.083   6.875   6.745
 1336TIP3    H2 3950   5.192   6.971   6.701
 1337TIP3   OH2 3951   4.814   7.914   5.387
 1337TIP3    H1 3952   4.887   7.888   5.443
 1337TIP3    H2 3953   4.751   7.842   5.396
 1338TIP3   OH2 3954   8.058   6.960   6.145
 1338TIP3    H1 3955   8.065   6.900   6.070
 1338TIP3    H2 3956   7.980   6.931   6.192
 1339TIP3   OH2 3957   3.520  -0.001   4.193
 1339TIP3    H1 3958   3.572  -0.060   4.137
 1339TIP3    H2 3959   3.582   0.066   4.222
 1340TIP3   OH2 3960   7.852   5.446   3.089
 1340TIP3    H1 3961   7.823   5.467   3.178
 1340TIP3    H2 3962   7.944   5.422   3.099
 1341TIP3   OH2 3963   8.165   0.964   2.676
 1341TIP3    H1 3964   8.230   1.016   2.629
 1341TIP3    H2 3965   8.197   0.874   2.668
 1342TIP3   OH2 3966   0.114   5.211   5.213
 1342TIP3    H1 3967   0.124   5.208   5.308
 1342TIP3    H2 3968   0.051   5.282   5.198
 1343TIP3   OH2 3969   3.701   5.749   2.293
 1343TIP3    H1 3970   3.686   5.656   2.313
 1343TIP3    H2 3971   3.622   5.776   2.246
 1344TIP3   OH2 3972   6.791   0.671   0.954
 1344TIP3    H1 3973   6.807   0.655   1.047
 1344TIP3    H2 3974   6.804   0.585   0.912
 1345TIP3   OH2 3975   0.151   0.858   4.316
 1345TIP3    H1 3976   0.085   0.901   4.369
 1345TIP3    H2 3977   0.212   0.928   4.291
 1346TIP3   OH2 3978   5.640   5.707   0.116
 1346TIP3    H1 3979   5.698   5.749   0.179
 1346TIP3    H2 3980   5.668   5.616   0.114
 1347TIP3   OH2 3981   6.159   3.153   1.916
 1347TIP3    H1 3982   6.175   3.126   1.826
 1347TIP3    H2 3983   6.072   3.193   1.915
 1348TIP3   OH2 3984   4.713   2.630   2.715
 1348TIP3    H1 3985   4.716   2.539   2.743
 1348TIP3    H2 3986   4.731   2.680   2.795
 1349TIP3   OH2 3987   4.951   6.225   2.207
 1349TIP3    H1 3988   5.022   6.189   2.260
 1349TIP3    H2 3989   4.991   6.243   2.122
 1350TIP3   OH2 3990   6.768   3.443   3.813
 1350TIP3    H1 3991   6.820   3.408   3.741
 1350TIP3    H2 3992   6.832   3.480   3.874
 1351TIP3   OH2 3993   2.559   6.781   4.499
 1351TIP3    H1 3994   2.634   6.827   4.462
 1351TIP3    H2 3995   2.574   6.781   4.593
 1352TIP3   OH2 3996   7.203   2.001   4.245
 1352TIP3    H1 3997   7.274   2.063   4.261
 1352TIP3    H2 3998   7.127   2.039   4.287
 1353TIP3   OH2 3999   8.258   1.519   2.213
 1353TIP3    H1 4000   8.292   1.563   2.291
 1353TIP3    H2 4001   8.174   1.482   2.242
 1354TIP3   OH2 4002   7.361   7.714   5.756
 1354TIP3    H1 4003   7.277   7.743   5.719
 1354TIP3    H2 4004   7.363   7.620   5.739
 1355TIP3   OH2 4005   2.110   4.367   2.894
 1355TIP3    H1 4006   2.054   4.435   2.931
 1355TIP3    H2 4007   2.175   4.415   2.842
 1356TIP3   OH2 4008   5.033   0.211   1.445
 1356TIP3    H1 4009   5.115   0.241   1.485
 1356TIP3    H2 4010   5.056   0.186   1.356
 1357TIP3   OH2 4011   1.812   4.992   6.112
 1357TIP3    H1 4012   1.810   5.076   6.158
 1357TIP3    H2 4013   1.846   4.930   6.176
 1358TIP3   OH2 4014   5.095   1.660   1.434
 1358TIP3    H1 4015   5.070   1.649   1.343
 1358TIP3    H2 4016   5.157   1.733   1.433
 1359TIP3   OH2 4017   6.441   7.374   6.170
 1359TIP3    H1 4018   6.421   7.289   6.129
 1359TIP3    H2 4019   6.375   7.434   6.134
 1360TIP3   OH2 4020   5.676   4.428   3.323
 1360TIP3    H1 4021   5.595   4.447   3.370
 1360TIP3    H2 4022   5.674   4.333   3.309
 1361TIP3   OH2 4023   0.164   2.217   6.583
 1361TIP3    H1 4024   0.183   2.284   6.517
 1361TIP3    H2 4025   0.091   2.168   6.546
 1362TIP3   OH2 4026   2.360   4.413   6.044
 1362TIP3    H1 4027   2.266   4.397   6.051
 1362TIP3    H2 4028   2.397   4.379   6.125
 1363TIP3   OH2 4029   0.657   2.015   4.804
 1363TIP3    H1 4030   0.655   2.107   4.830
 1363TIP3    H2 4031   0.652   1.967   4.886
 1364TIP3   OH2 4032   6.007   4.468   2.041
 1364TIP3    H1 4033   5.999   4.527   2.116
 1364TIP3    H2 4034   6.068   4.513   1.982
 1365TIP3   OH2 4035   4.054   4.695   6.379
 1365TIP3    H1 4036   4.079   4.657   6.463
 1365TIP3    H2 4037   3.988   4.634   6.344
 1366TIP3   OH2 4038   4.959   5.227   4.556
 1366TIP3    H1 4039   4.970   5.132   4.561
 1366TIP3    H2 4040   5.047   5.261   4.572
 1367TIP3   OH2 4041   6.170   0.964   5.307
 1367TIP3    H1 4042   6.140   0.886   5.353
 1367TIP3    H2 4043   6.266   0.958   5.309
 1368TIP3   OH2 4044   5.389   7.192   5.195
 1368TIP3    H1 4045   5.472   7.145   5.210
 1368TIP3    H2 4046   5.363   7.167   5.107
 1369TIP3   OH2 4047   8.040   0.602   2.654
 1369TIP3    H1 4048   7.966   0.657   2.630
 1369TIP3    H2 4049   8.042   0.604   2.750
 1370TIP3   OH2 4050   2.391   1.766   0.942
 1370TIP3    H1 4051   2.322   1.824   0.909
 1370TIP3    H2 4052   2.353   1.678   0.937
 1371TIP3   OH2 4053   3.607   0.818   0.635
 1371TIP3    H1 4054   3.640   0.754   0.572
 1371TIP3    H2 4055   3.676   0.885   0.638
 1372TIP3   OH2 4056   4.980   0.713   4.303
 1372TIP3    H1 4057   4.982   0.781   4.370
 1372TIP3    H2 4058   5.019   0.754   4.226
 1373TIP3   OH2 4059   8.117   0.974   1.602
 1373TIP3    H1 4060   8.080   0.941   1.684
 1373TIP3    H2 4061   8.153   0.897   1.559
 1374TIP3   OH2 4062   4.078   3.247   4.237
 1374TIP3    H1 4063   4.131   3.170   4.215
 1374TIP3    H2 4064   4.040   3.227   4.322
 1375TIP3   OH2 4065   4.049   2.496   3.600
 1375TIP3    H1 4066   4.030   2.581   3.558
 1375TIP3    H2 4067   4.064   2.517   3.692
 1376TIP3   OH2 4068   2.877   6.565   3.602
 1376TIP3    H1 4069   2.941   6.527   3.542
 1376TIP3    H2 4070   2.843   6.642   3.557
 1377TIP3   OH2 4071   0.370   7.333   4.121
 1377TIP3    H1 4072   0.373   7.310   4.214
 1377TIP3    H2 4073   0.327   7.259   4.079
 1378TIP3   OH2 4074   0.634   4.541   3.925
 1378TIP3    H1 4075   0.576   4.549   3.849
 1378TIP3    H2 4076   0.719   4.519   3.888
 1379TIP3   OH2 4077   7.723   4.041   6.380
 1379TIP3    H1 4078   7.693   4.124   6.416
 1379TIP3    H2 4079   7.682   3.975   6.435
 1380TIP3   OH2 4080   3.109   4.069   0.147
 1380TIP3    H1 4081   3.172   4.128   0.189
 1380TIP3    H2 4082   3.143   3.981   0.164
 1381TIP3   OH2 4083   1.454   6.641   2.362
 1381TIP3    H1 4084   1.366   6.659   2.329
 1381TIP3    H2 4085   1.463   6.545   2.357
 1382TIP3   OH2 4086   4.146   3.598   5.727
 1382TIP3    H1 4087   4.094   3.524   5.756
 1382TIP3    H2 4088   4.175   3.640   5.808
 1383TIP3   OH2 4089   6.714   0.589   2.012
 1383TIP3    H1 4090   6.638   0.638   2.044
 1383TIP3    H2 4091   6.686   0.554   1.928
 1384TIP3   OH2 4092   7.968   3.609   4.980
 1384TIP3    H1 4093   8.050   3.566   4.959
 1384TIP3    H2 4094   7.900   3.546   4.955
 1385TIP3   OH2 4095   1.705   0.161   4.171
 1385TIP3    H1 4096   1.686   0.068   4.182
 1385TIP3    H2 4097   1.678   0.202   4.253
 1386TIP3   OH2 4098   6.116   2.053   4.184
 1386TIP3    H1 4099   6.101   1.971   4.230
 1386TIP3    H2 4100   6.195   2.088   4.224
 1387TIP3   OH2 4101   7.473   1.487   6.189
 1387TIP3    H1 4102   7.556   1.449   6.218
 1387TIP3    H2 4103   7.406   1.425   6.219
 1388TIP3   OH2 4104   6.479   3.142   5.192
 1388TIP3    H1 4105   6.444   3.225   5.223
 1388TIP3    H2 4106   6.456   3.140   5.099
 1389TIP3   OH2 4107   7.825   7.194   6.603
 1389TIP3    H1 4108   7.838   7.125   6.537
 1389TIP3    H2 4109   7.809   7.273   6.551
 1390TIP3   OH2 4110   7.093   6.210   5.729
 1390TIP3    H1 4111   7.040   6.278   5.689
 1390TIP3    H2 4112   7.183   6.233   5.706
 1391TIP3   OH2 4113   2.433   7.278   6.003
 1391TIP3    H1 4114   2.434   7.183   6.006
 1391TIP3    H2 4115   2.465   7.306   6.089
 1392TIP3   OH2 4116   7.143   4.290   6.228
 1392TIP3    H1 4117   7.061   4.331   6.256
 1392TIP3    H2 4118   7.178   4.250   6.308
 1393TIP3   OH2 4119   6.538   4.342   4.022
 1393TIP3    H1 4120   6.476   4.314   3.954
 1393TIP3    H2 4121   6.578   4.261   4.054
 1394TIP3   OH2 4122   5.131   5.645   5.826
 1394TIP3    H1 4123   5.115   5.740   5.829
 1394TIP3    H2 4124   5.182   5.632   5.747
 1395TIP3   OH2 4125   1.469   1.651   3.070
 1395TIP3    H1 4126   1.436   1.711   3.004
 1395TIP3    H2 4127   1.485   1.569   3.022
 1396TIP3   OH2 4128   1.392   1.447   2.308
 1396TIP3    H1 4129   1.483   1.432   2.285
 1396TIP3    H2 4130   1.357   1.498   2.235
 1397TIP3   OH2 4131   7.076   0.977   0.033
 1397TIP3    H1 4132   7.119   0.911  -0.020
 1397TIP3    H2 4133   7.058   0.934   0.117
 1398TIP3   OH2 4134   6.403   0.137   6.172
 1398TIP3    H1 4135   6.403   0.217   6.119
 1398TIP3    H2 4136   6.489   0.098   6.156
 1399TIP3   OH2 4137   6.524   1.590   2.584
 1399TIP3    H1 4138   6.458   1.653   2.556
 1399TIP3    H2 4139   6.549   1.619   2.672
 1400TIP3   OH2 4140   0.623   5.832   2.164
 1400TIP3    H1 4141   0.569   5.855   2.088
 1400TIP3    H2 4142   0.707   5.875   2.148
 1401TIP3   OH2 4143   5.747   0.659   4.192
 1401TIP3    H1 4144   5.744   0.700   4.105
 1401TIP3    H2 4145   5.738   0.565   4.174
 1402TIP3   OH2 4146   0.991   1.447   2.592
 1402TIP3    H1 4147   0.985   1.437   2.687
 1402TIP3    H2 4148   1.073   1.405   2.568
 1403TIP3   OH2 4149   2.740   5.775   6.277
 1403TIP3    H1 4150   2.806   5.707   6.260
 1403TIP3    H2 4151   2.673   5.729   6.328
 1404TIP3   OH2 4152   5.735   0.897   3.573
 1404TIP3    H1 4153   5.803   0.857   3.627
 1404TIP3    H2 4154   5.741   0.851   3.489
 1405TIP3   OH2 4155   5.821   3.896   0.116
 1405TIP3    H1 4156   5.909   3.867   0.141
 1405TIP3    H2 4157   5.806   3.855   0.031
 1406TIP3   OH2 4158   0.629   7.430   4.057
 1406TIP3    H1 4159   0.631   7.481   3.975
 1406TIP3    H2 4160   0.539   7.398   4.063
 1407TIP3   OH2 4161   1.545   5.141   2.215
 1407TIP3    H1 4162   1.504   5.194   2.146
 1407TIP3    H2 4163   1.473   5.119   2.274
 1408TIP3   OH2 4164   0.141   3.240   0.672
 1408TIP3    H1 4165   0.182   3.208   0.592
 1408TIP3    H2 4166   0.074   3.302   0.641
 1409TIP3   OH2 4167   1.657   3.063   3.856
 1409TIP3    H1 4168   1.727   3.050   3.793
 1409TIP3    H2 4169   1.590   2.999   3.831
 1410TIP3   OH2 4170   6.239   6.558   0.293
 1410TIP3    H1 4171   6.304   6.494   0.323
 1410TIP3    H2 4172   6.291   6.628   0.253
 1411TIP3   OH2 4173   2.766   7.361   1.408
 1411TIP3    H1 4174   2.836   7.375   1.472
 1411TIP3    H2 4175   2.704   7.303   1.453
 1412TIP3   OH2 4176   4.025   7.719   5.410
 1412TIP3    H1 4177   4.101   7.667   5.384
 1412TIP3    H2 4178   3.968   7.719   5.333
 1413TIP3   OH2 4179   4.808   6.030   5.931
 1413TIP3    H1 4180   4.852   6.053   5.849
 1413TIP3    H2 4181   4.839   6.094   5.995
 1414TIP3   OH2 4182   6.487   7.171   3.464
 1414TIP3    H1 4183   6.458   7.092   3.417
 1414TIP3    H2 4184   6.416   7.189   3.525
 1415TIP3   OH2 4185   4.869   2.084   5.712
 1415TIP3    H1 4186   4.928   2.075   5.787
 1415TIP3    H2 4187   4.921   2.054   5.637
 1416TIP3   OH2 4188   5.601   1.962   5.140
 1416TIP3    H1 4189   5.677   1.905   5.126
 1416TIP3    H2 4190   5.634   2.050   5.122
 1417TIP3   OH2 4191   3.763   6.535   1.269
 1417TIP3    H1 4192   3.741   6.462   1.327
 1417TIP3    H2 4193   3.727   6.612   1.311
 1418TIP3   OH2 4194   2.421   7.627   5.804
 1418TIP3    H1 4195   2.351   7.565   5.820
 1418TIP3    H2 4196   2.402   7.700   5.863
 1419TIP3   OH2 4197   7.872   7.717   1.840
 1419TIP3    H1 4198   7.804   7.760   1.892
 1419TIP3    H2 4199   7.860   7.624   1.856
 1420TIP3   OH2 4200   4.492   0.712   6.727
 1420TIP3    H1 4201   4.585   0.704   6.702
 1420TIP3    H2 4202   4.492   0.706   6.822
 1421TIP3   OH2 4203   0.472   1.117   0.247
 1421TIP3    H1 4204   0.530   1.159   0.311
 1421TIP3    H2 4205   0.508   1.029   0.235
 1422TIP3   OH2 4206   4.363   3.658   0.027
 1422TIP3    H1 4207   4.374   3.563   0.022
 1422TIP3    H2 4208   4.452   3.693   0.013
 1423TIP3   OH2 4209   3.427   3.511   5.049
 1423TIP3    H1 4210   3.401   3.421   5.067
 1423TIP3    H2 4211   3.490   3.532   5.118
 1424TIP3   OH2 4212   4.313   7.808   2.409
 1424TIP3    H1 4213   4.394   7.781   2.453
 1424TIP3    H2 4214   4.320   7.903   2.403
 1425TIP3   OH2 4215   4.369   0.210   2.513
 1425TIP3    H1 4216   4.348   0.158   2.435
 1425TIP3    H2 4217   4.446   0.261   2.488
 1426TIP3   OH2 4218   8.239   6.082   1.885
 1426TIP3    H1 4219   8.160   6.136   1.891
 1426TIP3    H2 4220   8.244   6.038   1.970
 1427TIP3   OH2 4221   6.483   2.480   1.803
 1427TIP3    H1 4222   6.434   2.425   1.741
 1427TIP3    H2 4223   6.509   2.419   1.872
 1428TIP3   OH2 4224   3.926   1.230   5.296
 1428TIP3    H1 4225   4.002   1.289   5.300
 1428TIP3    H2 4226   3.925   1.187   5.382
 1429TIP3   OH2 4227   2.250   0.664   6.218
 1429TIP3    H1 4228   2.306   0.590   6.241
 1429TIP3    H2 4229   2.162   0.627   6.210
 1430TIP3   OH2 4230   4.050   6.082   4.023
 1430TIP3    H1 4231   4.082   6.138   4.094
 1430TIP3    H2 4232   3.988   6.137   3.975
 1431TIP3   OH2 4233   2.824   2.676   4.287
 1431TIP3    H1 4234   2.766   2.746   4.315
 1431TIP3    H2 4235   2.863   2.709   4.206
 1432TIP3   OH2 4236   8.356   2.107   3.437
 1432TIP3    H1 4237   8.298   2.109   3.361
 1432TIP3    H2 4238   8.443   2.127   3.401
 1433TIP3   OH2 4239   4.106   5.723   1.276
 1433TIP3    H1 4240   4.016   5.721   1.243
 1433TIP3    H2 4241   4.155   5.770   1.208
 1434TIP3   OH2 4242   2.570   0.781   1.873
 1434TIP3    H1 4243   2.635   0.823   1.929
 1434TIP3    H2 4244   2.487   0.824   1.896
 1435TIP3   OH2 4245   0.500   3.522   4.190
 1435TIP3    H1 4246   0.444   3.518   4.113
 1435TIP3    H2 4247   0.581   3.562   4.157
 1436TIP3   OH2 4248   4.443   7.246   2.521
 1436TIP3    H1 4249   4.525   7.295   2.524
 1436TIP3    H2 4250   4.470   7.155   2.507
 1437TIP3   OH2 4251   6.900   4.485   3.246
 1437TIP3    H1 4252   6.967   4.468   3.313
 1437TIP3    H2 4253   6.823   4.512   3.297
 1438TIP3   OH2 4254   6.678   4.741   5.079
 1438TIP3    H1 4255   6.601   4.740   5.022
 1438TIP3    H2 4256   6.646   4.772   5.164
 1439TIP3   OH2 4257   1.755   2.510   1.673
 1439TIP3    H1 4258   1.825   2.558   1.630
 1439TIP3    H2 4259   1.696   2.577   1.706
 1440TIP3   OH2 4260   7.118   2.701   0.277
 1440TIP3    H1 4261   7.050   2.764   0.301
 1440TIP3    H2 4262   7.198   2.753   0.270
 1441TIP3   OH2 4263   0.293   2.111   4.501
 1441TIP3    H1 4264   0.307   2.033   4.554
 1441TIP3    H2 4265   0.374   2.161   4.509
 1442TIP3   OH2 4266   1.714   7.691   0.102
 1442TIP3    H1 4267   1.767   7.676   0.181
 1442TIP3    H2 4268   1.632   7.644   0.118
 1443TIP3   OH2 4269   8.310   6.741   4.088
 1443TIP3    H1 4270   8.215   6.747   4.092
 1443TIP3    H2 4271   8.336   6.815   4.033
 1444TIP3   OH2 4272   7.319   6.060   6.111
 1444TIP3    H1 4273   7.269   6.091   6.187
 1444TIP3    H2 4274   7.253   6.034   6.047
 1445TIP3   OH2 4275   3.957   1.582   0.754
 1445TIP3    H1 4276   3.959   1.642   0.680
 1445TIP3    H2 4277   3.955   1.495   0.714
 1446TIP3   OH2 4278   1.603   6.866   0.908
 1446TIP3    H1 4279   1.667   6.869   0.837
 1446TIP3    H2 4280   1.524   6.832   0.866
 1447TIP3   OH2 4281   2.075   5.801   2.825
 1447TIP3    H1 4282   2.093   5.884   2.869
 1447TIP3    H2 4283   2.147   5.790   2.764
 1448TIP3   OH2 4284   4.577   7.017   4.196
 1448TIP3    H1 4285   4.596   7.106   4.226
 1448TIP3    H2 4286   4.651   6.994   4.139
 1449TIP3   OH2 4287   6.378   5.822   6.169
 1449TIP3    H1 4288   6.362   5.797   6.078
 1449TIP3    H2 4289   6.331   5.757   6.221
 1450TIP3   OH2 4290   6.626   6.895   5.766
 1450TIP3    H1 4291   6.715   6.870   5.740
 1450TIP3    H2 4292   6.608   6.973   5.714
 1451TIP3   OH2 4293   7.425   2.407   3.798
 1451TIP3    H1 4294   7.398   2.356   3.874
 1451TIP3    H2 4295   7.344   2.438   3.759
 1452TIP3   OH2 4296   0.053   6.733   6.226
 1452TIP3    H1 4297   0.088   6.696   6.145
 1452TIP3    H2 4298   0.130   6.750   6.280
 1453TIP3   OH2 4299   6.744   1.495   5.690
 1453TIP3    H1 4300   6.675   1.441   5.727
 1453TIP3    H2 4301   6.795   1.524   5.765
 1454TIP3   OH2 4302   6.794   7.446   6.085
 1454TIP3    H1 4303   6.774   7.358   6.118
 1454TIP3    H2 4304   6.711   7.479   6.051
 1455TIP3   OH2 4305   1.626   4.630   3.940
 1455TIP3    H1 4306   1.696   4.571   3.969
 1455TIP3    H2 4307   1.545   4.580   3.953
 1456TIP3   OH2 4308   3.274   0.472   2.102
 1456TIP3    H1 4309   3.320   0.457   2.184
 1456TIP3    H2 4310   3.295   0.562   2.078
 1457TIP3   OH2 4311   5.360   2.556   1.514
 1457TIP3    H1 4312   5.292   2.561   1.447
 1457TIP3    H2 4313   5.442   2.565   1.465
 1458TIP3   OH2 4314   7.340   5.862   4.090
 1458TIP3    H1 4315   7.297   5.946   4.107
 1458TIP3    H2 4316   7.332   5.849   3.995
 1459TIP3   OH2 4317   3.737   1.764   6.769
 1459TIP3    H1 4318   3.666   1.785   6.708
 1459TIP3    H2 4319   3.696   1.704   6.832
 1460TIP3   OH2 4320   1.828   7.851   2.512
 1460TIP3    H1 4321   1.906   7.811   2.473
 1460TIP3    H2 4322   1.755   7.805   2.470
 1461TIP3   OH2 4323   1.000   6.811   2.811
 1461TIP3    H1 4324   1.043   6.784   2.730
 1461TIP3    H2 4325   1.044   6.892   2.836
 1462TIP3   OH2 4326   7.087   4.908   1.056
 1462TIP3    H1 4327   7.003   4.893   1.013
 1462TIP3    H2 4328   7.095   5.003   1.061
 1463TIP3   OH2 4329   0.963   6.304   6.151
 1463TIP3    H1 4330   0.910   6.319   6.229
 1463TIP3    H2 4331   1.021   6.380   6.146
 1464TIP3   OH2 4332   5.690   2.058   2.752
 1464TIP3    H1 4333   5.660   2.045   2.661
 1464TIP3    H2 4334   5.629   2.123   2.788
 1465TIP3   OH2 4335   8.123   5.027   6.479
 1465TIP3    H1 4336   8.152   4.962   6.416
 1465TIP3    H2 4337   8.029   5.037   6.462
 1466TIP3   OH2 4338   5.986   1.829   5.698
 1466TIP3    H1 4339   5.943   1.898   5.748
 1466TIP3    H2 4340   6.072   1.819   5.738
 1467TIP3   OH2 4341   3.481   3.144   0.097
 1467TIP3    H1 4342   3.434   3.061   0.097
 1467TIP3    H2 4343   3.420   3.207   0.058
 1468TIP3   OH2 4344   1.434   2.867   0.952
 1468TIP3    H1 4345   1.478   2.867   1.037
 1468TIP3    H2 4346   1.352   2.914   0.968
 1469TIP3   OH2 4347   1.749   6.272   1.084
 1469TIP3    H1 4348   1.790   6.186   1.092
 1469TIP3    H2 4349   1.710   6.288   1.170
 1470TIP3   OH2 4350   7.814   2.702   4.734
 1470TIP3    H1 4351   7.730   2.655   4.740
 1470TIP3    H2 4352   7.857   2.685   4.818
 1471TIP3   OH2 4353   5.145   4.264   5.356
 1471TIP3    H1 4354   5.130   4.173   5.382
 1471TIP3    H2 4355   5.063   4.291   5.315
 1472TIP3   OH2 4356   7.278   6.669   1.659
 1472TIP3    H1 4357   7.264   6.757   1.625
 1472TIP3    H2 4358   7.373   6.656   1.656
 1473TIP3   OH2 4359   4.450   2.229   3.321
 1473TIP3    H1 4360   4.381   2.269   3.374
 1473TIP3    H2 4361   4.420   2.239   3.231
 1474TIP3   OH2 4362   3.684   7.673   0.468
 1474TIP3    H1 4363   3.700   7.715   0.383
 1474TIP3    H2 4364   3.768   7.633   0.491
 1475TIP3   OH2 4365   0.900   6.100   1.618
 1475TIP3    H1 4366   0.857   6.186   1.619
 1475TIP3    H2 4367   0.828   6.038   1.627
 1476TIP3   OH2 4368   2.259   2.990   6.495
 1476TIP3    H1 4369   2.262   3.002   6.400
 1476TIP3    H2 4370   2.184   2.933   6.509
 1477TIP3   OH2 4371   6.948   3.414   4.627
 1477TIP3    H1 4372   6.937   3.508   4.638
 1477TIP3    H2 4373   7.041   3.404   4.605
 1478TIP3   OH2 4374   8.294   0.563   0.869
 1478TIP3    H1 4375   8.219   0.623   0.867
 1478TIP3    H2 4376   8.362   0.611   0.917
 1479TIP3   OH2 4377   5.982   5.026   3.424
 1479TIP3    H1 4378   6.033   5.104   3.445
 1479TIP3    H2 4379   6.000   4.966   3.497
 1480TIP3   OH2 4380   0.316   0.473   2.210
 1480TIP3    H1 4381   0.293   0.553   2.162
 1480TIP3    H2 4382   0.235   0.447   2.253
 1481TIP3   OH2 4383   5.536   1.696   4.428
 1481TIP3    H1 4384   5.535   1.611   4.472
 1481TIP3    H2 4385   5.539   1.674   4.335
 1482TIP3   OH2 4386   1.214   6.475   2.676
 1482TIP3    H1 4387   1.271   6.546   2.706
 1482TIP3    H2 4388   1.257   6.395   2.706
 1483TIP3   OH2 4389   3.732   2.717   1.001
 1483TIP3    H1 4390   3.699   2.744   0.915
 1483TIP3    H2 4391   3.827   2.724   0.993
 1484TIP3   OH2 4392   0.393   5.755   4.218
 1484TIP3    H1 4393   0.323   5.723   4.162
 1484TIP3    H2 4394   0.379   5.711   4.302
 1485TIP3   OH2 4395   7.365   1.248   6.665
 1485TIP3    H1 4396   7.376   1.154   6.648
 1485TIP3    H2 4397   7.454   1.280   6.678
 1486TIP3   OH2 4398   0.320   0.617   6.669
 1486TIP3    H1 4399   0.319   0.542   6.728
 1486TIP3    H2 4400   0.274   0.686   6.717
 1487TIP3   OH2 4401   0.637   1.745   4.645
 1487TIP3    H1 4402   0.694   1.785   4.711
 1487TIP3    H2 4403   0.595   1.672   4.691
 1488TIP3   OH2 4404   5.530   0.202   0.031
 1488TIP3    H1 4405   5.533   0.108   0.053
 1488TIP3    H2 4406   5.464   0.208  -0.038
 1489TIP3   OH2 4407   6.380   3.070   5.566
 1489TIP3    H1 4408   6.330   3.019   5.629
 1489TIP3    H2 4409   6.464   3.025   5.560
 1490TIP3   OH2 4410   3.429   0.368   4.055
 1490TIP3    H1 4411   3.510   0.318   4.051
 1490TIP3    H2 4412   3.395   0.367   3.966
 1491TIP3   OH2 4413   7.592   1.622   4.941
 1491TIP3    H1 4414   7.641   1.646   4.861
 1491TIP3    H2 4415   7.530   1.555   4.911
 1492TIP3   OH2 4416   8.431   7.429   5.191
 1492TIP3    H1 4417   8.484   7.505   5.211
 1492TIP3    H2 4418   8.356   7.464   5.143
 1493TIP3   OH2 4419   1.453   5.271   1.129
 1493TIP3    H1 4420   1.422   5.191   1.171
 1493TIP3    H2 4421   1.401   5.278   1.049
 1494TIP3   OH2 4422   6.857   7.368   4.299
 1494TIP3    H1 4423   6.856   7.434   4.368
 1494TIP3    H2 4424   6.941   7.324   4.310
 1495TIP3   OH2 4425   5.352   2.212   4.578
 1495TIP3    H1 4426   5.413   2.139   4.571
 1495TIP3    H2 4427   5.302   2.193   4.658
 1496TIP3   OH2 4428   6.302   4.232   4.657
 1496TIP3    H1 4429   6.350   4.265   4.581
 1496TIP3    H2 4430   6.336   4.283   4.731
 1497TIP3   OH2 4431   0.679   3.714   1.472
 1497TIP3    H1 4432   0.668   3.664   1.553
 1497TIP3    H2 4433   0.636   3.660   1.405
 1498TIP3   OH2 4434   1.461   5.473   6.339
 1498TIP3    H1 4435   1.475   5.388   6.296
 1498TIP3    H2 4436   1.529   5.529   6.303
 1499TIP3   OH2 4437   3.115   6.685   4.306
 1499TIP3    H1 4438   3.120   6.718   4.216
 1499TIP3    H2 4439   3.184   6.620   4.311
 1500TIP3   OH2 4440   7.700   1.507   3.427
 1500TIP3    H1 4441   7.686   1.566   3.353
 1500TIP3    H2 4442   7.793   1.514   3.447
 1501TIP3   OH2 4443   0.676   2.328   6.737
 1501TIP3    H1 4444   0.758   2.349   6.781
 1501TIP3    H2 4445   0.687   2.238   6.707
 1502TIP3   OH2 4446   6.810   5.627   5.373
 1502TIP3    H1 4447   6.790   5.575   5.451
 1502TIP3    H2 4448   6.729   5.675   5.355
 1503TIP3   OH2 4449   5.917   2.199   4.097
 1503TIP3    H1 4450   5.868   2.227   4.175
 1503TIP3    H2 4451   5.996   2.158   4.132
 1504TIP3   OH2 4452   5.930   5.728   5.604
 1504TIP3    H1 4453   5.970   5.688   5.527
 1504TIP3    H2 4454   5.852   5.676   5.620
 1505TIP3   OH2 4455   3.361   7.026   2.672
 1505TIP3    H1 4456   3.284   7.079   2.653
 1505TIP3    H2 4457   3.334   6.936   2.654
 1506TIP3   OH2 4458   1.879   2.017   1.659
 1506TIP3    H1 4459   1.842   2.105   1.664
 1506TIP3    H2 4460   1.948   2.016   1.725
 1507TIP3   OH2 4461   6.784   5.468   4.407
 1507TIP3    H1 4462   6.702   5.502   4.371
 1507TIP3    H2 4463   6.850   5.493   4.343
 1508TIP3   OH2 4464   3.070   0.355   5.247
 1508TIP3    H1 4465   3.092   0.291   5.179
 1508TIP3    H2 4466   3.145   0.413   5.250
 1509TIP3   OH2 4467   3.374   5.659   3.513
 1509TIP3    H1 4468   3.466   5.654   3.485
 1509TIP3    H2 4469   3.378   5.651   3.608
 1510TIP3   OH2 4470   7.280   2.342   1.205
 1510TIP3    H1 4471   7.262   2.340   1.299
 1510TIP3    H2 4472   7.234   2.419   1.173
 1511TIP3   OH2 4473   6.071   2.672   4.772
 1511TIP3    H1 4474   5.995   2.707   4.726
 1511TIP3    H2 4475   6.074   2.580   4.748
 1512TIP3   OH2 4476   7.164   3.603   1.437
 1512TIP3    H1 4477   7.250   3.604   1.480
 1512TIP3    H2 4478   7.134   3.512   1.446
 1513TIP3   OH2 4479   5.015   2.038   2.871
 1513TIP3    H1 4480   4.956   1.965   2.887
 1513TIP3    H2 4481   5.035   2.072   2.959
 1514TIP3   OH2 4482   6.213   1.336   4.886
 1514TIP3    H1 4483   6.169   1.252   4.903
 1514TIP3    H2 4484   6.158   1.401   4.930
 1515TIP3   OH2 4485   5.832   3.723   1.290
 1515TIP3    H1 4486   5.821   3.698   1.198
 1515TIP3    H2 4487   5.861   3.814   1.287
 1516TIP3   OH2 4488   1.908   2.265   2.579
 1516TIP3    H1 4489   1.841   2.209   2.618
 1516TIP3    H2 4490   1.980   2.205   2.557
 1517TIP3   OH2 4491   2.042   5.362   5.223
 1517TIP3    H1 4492   2.045   5.343   5.130
 1517TIP3    H2 4493   2.072   5.453   5.230
 1518TIP3   OH2 4494   3.768   4.587   2.672
 1518TIP3    H1 4495   3.824   4.663   2.657
 1518TIP3    H2 4496   3.762   4.580   2.767
 1519TIP3   OH2 4497   8.191   6.472   3.883
 1519TIP3    H1 4498   8.256   6.481   3.953
 1519TIP3    H2 4499   8.154   6.560   3.874
 1520TIP3   OH2 4500   5.661   2.367   4.689
 1520TIP3    H1 4501   5.668   2.284   4.642
 1520TIP3    H2 4502   5.728   2.361   4.757
 1521TIP3   OH2 4503   1.024   2.912   0.364
 1521TIP3    H1 4504   0.948   2.935   0.309
 1521TIP3    H2 4505   1.047   2.994   0.408
 1522TIP3   OH2 4506   2.755   7.566   4.948
 1522TIP3    H1 4507   2.847   7.538   4.942
 1522TIP3    H2 4508   2.711   7.492   4.990
 1523TIP3   OH2 4509   4.604   7.436   6.316
 1523TIP3    H1 4510   4.511   7.458   6.322
 1523TIP3    H2 4511   4.635   7.487   6.241
 1524TIP3   OH2 4512   1.780   2.646   5.136
 1524TIP3    H1 4513   1.874   2.634   5.121
 1524TIP3    H2 4514   1.761   2.733   5.102
 1525TIP3   OH2 4515   1.649   0.457   6.042
 1525TIP3    H1 4516   1.679   0.532   6.094
 1525TIP3    H2 4517   1.568   0.487   6.002
 1526TIP3   OH2 4518   6.229   3.529   1.423
 1526TIP3    H1 4519   6.272   3.490   1.499
 1526TIP3    H2 4520   6.266   3.482   1.348
 1527TIP3   OH2 4521   5.857   2.624   1.181
 1527TIP3    H1 4522   5.890   2.658   1.264
 1527TIP3    H2 4523   5.917   2.658   1.115
 1528TIP3   OH2 4524   1.310   7.195   3.525
 1528TIP3    H1 4525   1.350   7.211   3.611
 1528TIP3    H2 4526   1.216   7.206   3.540
 1529TIP3   OH2 4527   7.025   7.065   6.280
 1529TIP3    H1 4528   6.966   7.136   6.305
 1529TIP3    H2 4529   7.064   7.036   6.362
 1530TIP3   OH2 4530   3.731   5.530   6.383
 1530TIP3    H1 4531   3.757   5.620   6.402
 1530TIP3    H2 4532   3.653   5.538   6.329
 1531TIP3   OH2 4533   3.141   7.120   5.945
 1531TIP3    H1 4534   3.219   7.067   5.925
 1531TIP3    H2 4535   3.174   7.210   5.948
 1532TIP3   OH2 4536   3.450   6.915   3.333
 1532TIP3    H1 4537   3.479   6.824   3.326
 1532TIP3    H2 4538   3.368   6.911   3.382
 1533TIP3   OH2 4539   3.132   1.447   2.159
 1533TIP3    H1 4540   3.223   1.478   2.163
 1533TIP3    H2 4541   3.117   1.408   2.245
 1534TIP3   OH2 4542   1.606   1.586   2.446
 1534TIP3    H1 4543   1.514   1.594   2.468
 1534TIP3    H2 4544   1.633   1.675   2.421
 1535TIP3   OH2 4545   2.300   1.931   3.496
 1535TIP3    H1 4546   2.213   1.969   3.506
 1535TIP3    H2 4547   2.353   1.974   3.563
 1536TIP3   OH2 4548   2.160   1.331   3.922
 1536TIP3    H1 4549   2.107   1.331   3.842
 1536TIP3    H2 4550   2.107   1.379   3.986
 1537TIP3   OH2 4551   3.674   0.534   2.841
 1537TIP3    H1 4552   3.688   0.495   2.754
 1537TIP3    H2 4553   3.713   0.621   2.834
 1538TIP3   OH2 4554   7.363   7.883   3.008
 1538TIP3    H1 4555   7.289   7.849   2.957
 1538TIP3    H2 4556   7.430   7.815   3.001
 1539TIP3   OH2 4557   5.218   0.692   4.539
 1539TIP3    H1 4558   5.204   0.598   4.527
 1539TIP3    H2 4559   5.284   0.716   4.475
 1540TIP3   OH2 4560   3.700   3.997   4.887
 1540TIP3    H1 4561   3.643   4.027   4.958
 1540TIP3    H2 4562   3.778   4.052   4.894
 1541TIP3   OH2 4563   5.421   7.253   1.411
 1541TIP3    H1 4564   5.480   7.321   1.442
 1541TIP3    H2 4565   5.402   7.276   1.320
 1542TIP3   OH2 4566   0.933   3.125   6.373
 1542TIP3    H1 4567   0.969   3.172   6.297
 1542TIP3    H2 4568   0.853   3.172   6.394
 1543TIP3   OH2 4569   4.517   1.632   3.540
 1543TIP3    H1 4570   4.610   1.628   3.519
 1543TIP3    H2 4571   4.477   1.566   3.484
 1544TIP3   OH2 4572   4.470   7.889   2.814
 1544TIP3    H1 4573   4.511   7.972   2.788
 1544TIP3    H2 4574   4.478   7.833   2.737
 1545TIP3   OH2 4575   6.139   1.893   3.831
 1545TIP3    H1 4576   6.136   1.799   3.851
 1545TIP3    H2 4577   6.212   1.926   3.883
 1546TIP3   OH2 4578   4.382   3.013   6.381
 1546TIP3    H1 4579   4.466   3.016   6.427
 1546TIP3    H2 4580   4.403   2.985   6.292
 1547TIP3   OH2 4581   3.945   2.115   2.042
 1547TIP3    H1 4582   3.950   2.196   1.991
 1547TIP3    H2 4583   3.888   2.136   2.116
 1548TIP3   OH2 4584   6.931   2.712   0.595
 1548TIP3    H1 4585   7.026   2.709   0.597
 1548TIP3    H2 4586   6.910   2.789   0.543
 1549TIP3   OH2 4587   8.099   7.298   0.794
 1549TIP3    H1 4588   8.151   7.242   0.852
 1549TIP3    H2 4589   8.055   7.359   0.853
 1550TIP3   OH2 4590   3.250   0.139   2.136
 1550TIP3    H1 4591   3.278   0.230   2.141
 1550TIP3    H2 4592   3.315   0.091   2.188
 1551TIP3   OH2 4593   5.042   2.543   3.156
 1551TIP3    H1 4594   5.113   2.606   3.142
 1551TIP3    H2 4595   4.991   2.580   3.227
 1552TIP3   OH2 4596   2.785   1.460   4.868
 1552TIP3    H1 4597   2.775   1.547   4.906
 1552TIP3    H2 4598   2.833   1.410   4.934
 1553TIP3   OH2 4599   4.601   5.252   5.466
 1553TIP3    H1 4600   4.685   5.225   5.502
 1553TIP3    H2 4601   4.608   5.235   5.372
 1554TIP3   OH2 4602   4.567   6.323   4.818
 1554TIP3    H1 4603   4.650   6.332   4.771
 1554TIP3    H2 4604   4.591   6.330   4.911
 1555TIP3   OH2 4605   6.390   3.423   1.944
 1555TIP3    H1 4606   6.424   3.426   1.854
 1555TIP3    H2 4607   6.318   3.486   1.944
 1556TIP3   OH2 4608   3.120   4.991   1.579
 1556TIP3    H1 4609   3.070   5.045   1.640
 1556TIP3    H2 4610   3.149   4.917   1.632
 1557TIP3   OH2 4611   4.826   5.260   4.156
 1557TIP3    H1 4612   4.882   5.185   4.173
 1557TIP3    H2 4613   4.885   5.328   4.125
 1558TIP3   OH2 4614   1.821   7.159   6.234
 1558TIP3    H1 4615   1.870   7.197   6.307
 1558TIP3    H2 4616   1.729   7.165   6.260
 1559TIP3   OH2 4617   1.337   1.089   2.358
 1559TIP3    H1 4618   1.337   1.065   2.265
 1559TIP3    H2 4619   1.428   1.111   2.377
 1560TIP3   OH2 4620   0.742   7.197   0.711
 1560TIP3    H1 4621   0.797   7.174   0.786
 1560TIP3    H2 4622   0.802   7.228   0.644
 1561TIP3   OH2 4623   2.636   5.004   4.428
 1561TIP3    H1 4624   2.549   5.011   4.389
 1561TIP3    H2 4625   2.621   5.015   4.522
 1562TIP3   OH2 4626   3.840   6.820   5.982
 1562TIP3    H1 4627   3.797   6.777   6.057
 1562TIP3    H2 4628   3.767   6.859   5.933
 1563TIP3   OH2 4629   4.010   6.338   5.475
 1563TIP3    H1 4630   4.003   6.371   5.385
 1563TIP3    H2 4631   3.937   6.379   5.521
 1564TIP3   OH2 4632   0.121   2.893   2.616
 1564TIP3    H1 4633   0.128   2.919   2.708
 1564TIP3    H2 4634   0.027   2.879   2.603
 1565TIP3   OH2 4635   0.252   1.188   2.090
 1565TIP3    H1 4636   0.317   1.256   2.110
 1565TIP3    H2 4637   0.268   1.165   1.998
 1566TIP3   OH2 4638   1.106   5.924   6.104
 1566TIP3    H1 4639   1.062   5.840   6.089
 1566TIP3    H2 4640   1.105   5.935   6.199
 1567TIP3   OH2 4641   3.382   4.725   0.998
 1567TIP3    H1 4642   3.390   4.644   0.947
 1567TIP3    H2 4643   3.450   4.718   1.065
 1568TIP3   OH2 4644   7.715   4.599   6.018
 1568TIP3    H1 4645   7.790   4.546   5.991
 1568TIP3    H2 4646   7.653   4.592   5.946
 1569TIP3   OH2 4647   4.157   0.375   3.021
 1569TIP3    H1 4648   4.161   0.371   3.116
 1569TIP3    H2 4649   4.189   0.290   2.992
 1570TIP3   OH2 4650   6.607   7.808   2.864
 1570TIP3    H1 4651   6.650   7.886   2.830
 1570TIP3    H2 4652   6.639   7.737   2.810
 1571TIP3   OH2 4653   1.376   0.676   5.342
 1571TIP3    H1 4654   1.411   0.645   5.258
 1571TIP3    H2 4655   1.442   0.737   5.374
 1572TIP3   OH2 4656   2.042   6.949   6.304
 1572TIP3    H1 4657   2.010   6.864   6.274
 1572TIP3    H2 4658   2.129   6.930   6.341
 1573TIP3   OH2 4659   1.944   6.073   1.186
 1573TIP3    H1 4660   1.988   6.141   1.236
 1573TIP3    H2 4661   1.892   6.025   1.251
 1574TIP3   OH2 4662   6.622   1.186   0.686
 1574TIP3    H1 4663   6.714   1.204   0.706
 1574TIP3    H2 4664   6.573   1.242   0.745
 1575TIP3   OH2 4665   1.803   2.175   0.535
 1575TIP3    H1 4666   1.805   2.245   0.470
 1575TIP3    H2 4667   1.893   2.169   0.567
 1576TIP3   OH2 4668   1.156   3.902   0.954
 1576TIP3    H1 4669   1.232   3.914   1.011
 1576TIP3    H2 4670   1.089   3.961   0.990
 1577TIP3   OH2 4671   0.148   2.112   0.975
 1577TIP3    H1 4672   0.203   2.181   1.010
 1577TIP3    H2 4673   0.157   2.120   0.880
 1578TIP3   OH2 4674   8.101   5.602   3.235
 1578TIP3    H1 4675   8.087   5.690   3.199
 1578TIP3    H2 4676   8.118   5.547   3.158
 1579TIP3   OH2 4677   4.628   4.885   4.758
 1579TIP3    H1 4678   4.600   4.946   4.690
 1579TIP3    H2 4679   4.646   4.804   4.711
 1580TIP3   OH2 4680   7.848   7.021   3.545
 1580TIP3    H1 4681   7.752   7.021   3.542
 1580TIP3    H2 4682   7.872   6.936   3.506
 1581TIP3   OH2 4683   3.382   6.589   0.929
 1581TIP3    H1 4684   3.373   6.674   0.885
 1581TIP3    H2 4685   3.300   6.544   0.911
 1582TIP3   OH2 4686   7.164   2.431   1.457
 1582TIP3    H1 4687   7.103   2.503   1.442
 1582TIP3    H2 4688   7.124   2.379   1.527
 1583TIP3   OH2 4689   3.976   4.080   6.465
 1583TIP3    H1 4690   3.943   4.018   6.531
 1583TIP3    H2 4691   3.993   4.026   6.388
 1584TIP3   OH2 4692   4.352   1.889   6.356
 1584TIP3    H1 4693   4.418   1.952   6.325
 1584TIP3    H2 4694   4.333   1.916   6.446
 1585TIP3   OH2 4695   8.250   7.331   0.560
 1585TIP3    H1 4696   8.187   7.330   0.633
 1585TIP3    H2 4697   8.199   7.306   0.484
 1586TIP3   OH2 4698   7.091   6.399   3.068
 1586TIP3    H1 4699   7.101   6.305   3.058
 1586TIP3    H2 4700   7.016   6.422   3.013
 1587TIP3   OH2 4701   7.725   0.039   6.408
 1587TIP3    H1 4702   7.722  -0.056   6.413
 1587TIP3    H2 4703   7.737   0.068   6.498
 1588TIP3   OH2 4704   1.371   1.312   4.060
 1588TIP3    H1 4705   1.405   1.227   4.031
 1588TIP3    H2 4706   1.301   1.290   4.122
 1589TIP3   OH2 4707   5.473   6.445   4.975
 1589TIP3    H1 4708   5.406   6.509   4.997
 1589TIP3    H2 4709   5.431   6.360   4.989
 1590TIP3   OH2 4710   8.298   7.230   6.634
 1590TIP3    H1 4711   8.215   7.277   6.641
 1590TIP3    H2 4712   8.310   7.214   6.541
 1591TIP3   OH2 4713   3.632   0.633   3.649
 1591TIP3    H1 4714   3.672   0.697   3.707
 1591TIP3    H2 4715   3.671   0.649   3.563
 1592TIP3   OH2 4716   8.231   0.081   5.611
 1592TIP3    H1 4717   8.198   0.058   5.697
 1592TIP3    H2 4718   8.159   0.060   5.551
 1593TIP3   OH2 4719   2.613   2.867   0.970
 1593TIP3    H1 4720   2.526   2.854   1.009
 1593TIP3    H2 4721   2.667   2.899   1.042
 1594TIP3   OH2 4722   4.613   5.768   5.052
 1594TIP3    H1 4723   4.576   5.847   5.089
 1594TIP3    H2 4724   4.541   5.705   5.051
 1595TIP3   OH2 4725   0.728   5.814   1.029
 1595TIP3    H1 4726   0.805   5.761   1.007
 1595TIP3    H2 4727   0.737   5.893   0.977
 1596TIP3   OH2 4728   2.076   4.117   2.770
 1596TIP3    H1 4729   2.123   4.192   2.805
 1596TIP3    H2 4730   2.060   4.139   2.678
 1597TIP3   OH2 4731   0.377   7.254   5.070
 1597TIP3    H1 4732   0.331   7.271   5.152
 1597TIP3    H2 4733   0.307   7.246   5.005
 1598TIP3   OH2 4734   2.129   4.736   0.982
 1598TIP3    H1 4735   2.050   4.705   0.939
 1598TIP3    H2 4736   2.098   4.778   1.063
 1599TIP3   OH2 4737   5.830   2.976   4.798
 1599TIP3    H1 4738   5.776   3.039   4.751
 1599TIP3    H2 4739   5.846   2.906   4.734
 1600TIP3   OH2 4740   0.122   5.202   1.667
 1600TIP3    H1 4741   0.182   5.241   1.604
 1600TIP3    H2 4742   0.038   5.244   1.649
 1601TIP3   OH2 4743   8.230   2.194   2.166
 1601TIP3    H1 4744   8.308   2.180   2.220
 1601TIP3    H2 4745   8.170   2.125   2.194
 1602TIP3   OH2 4746   5.409   1.747   5.100
 1602TIP3    H1 4747   5.465   1.674   5.125
 1602TIP3    H2 4748   5.469   1.822   5.097
 1603TIP3   OH2 4749   0.243   4.283   4.293
 1603TIP3    H1 4750   0.263   4.337   4.370
 1603TIP3    H2 4751   0.149   4.268   4.298
 1604TIP3   OH2 4752   7.317   5.401   3.863
 1604TIP3    H1 4753   7.310   5.496   3.865
 1604TIP3    H2 4754   7.343   5.377   3.952
 1605TIP3   OH2 4755   3.054   0.144   0.273
 1605TIP3    H1 4756   2.969   0.099   0.274
 1605TIP3    H2 4757   3.035   0.232   0.305
 1606TIP3   OH2 4758   7.022   7.470   1.686
 1606TIP3    H1 4759   7.043   7.511   1.602
 1606TIP3    H2 4760   7.061   7.383   1.681
 1607TIP3   OH2 4761   1.882   7.892   1.968
 1607TIP3    H1 4762   1.951   7.944   2.010
 1607TIP3    H2 4763   1.903   7.801   1.991
 1608TIP3   OH2 4764   2.212   0.442   3.431
 1608TIP3    H1 4765   2.274   0.475   3.366
 1608TIP3    H2 4766   2.158   0.517   3.453
 1609TIP3   OH2 4767   4.471   2.883   1.978
 1609TIP3    H1 4768   4.462   2.914   2.068
 1609TIP3    H2 4769   4.564   2.897   1.957
 1610TIP3   OH2 4770   3.788   3.017   1.757
 1610TIP3    H1 4771   3.873   2.983   1.728
 1610TIP3    H2 4772   3.725   2.979   1.696
 1611TIP3   OH2 4773   3.461   1.274   5.411
 1611TIP3    H1 4774   3.458   1.300   5.319
 1611TIP3    H2 4775   3.473   1.356   5.458
 1612TIP3   OH2 4776   3.092   3.783   0.236
 1612TIP3    H1 4777   3.036   3.810   0.308
 1612TIP3    H2 4778   3.170   3.746   0.278
 1613TIP3   OH2 4779   5.554   6.860   4.378
 1613TIP3    H1 4780   5.519   6.776   4.349
 1613TIP3    H2 4781   5.555   6.854   4.474
 1614TIP3   OH2 4782   8.065   5.549   0.509
 1614TIP3    H1 4783   8.079   5.640   0.535
 1614TIP3    H2 4784   8.150   5.519   0.478
 1615TIP3   OH2 4785   4.456   5.665   2.820
 1615TIP3    H1 4786   4.422   5.714   2.894
 1615TIP3    H2 4787   4.469   5.576   2.853
 1616TIP3   OH2 4788   7.210   2.731   0.617
 1616TIP3    H1 4789   7.304   2.717   0.606
 1616TIP3    H2 4790   7.201   2.826   0.628
 1617TIP3   OH2 4791   0.063   2.697   4.731
 1617TIP3    H1 4792  -0.003   2.629   4.721
 1617TIP3    H2 4793   0.015   2.779   4.723
 1618TIP3   OH2 4794   5.627   7.232   0.148
 1618TIP3    H1 4795   5.627   7.174   0.072
 1618TIP3    H2 4796   5.696   7.198   0.205
 1619TIP3   OH2 4797   5.875   4.612   3.360
 1619TIP3    H1 4798   5.952   4.582   3.312
 1619TIP3    H2 4799   5.803   4.560   3.324
 1620TIP3   OH2 4800   2.549   3.026   6.451
 1620TIP3    H1 4801   2.469   3.078   6.467
 1620TIP3    H2 4802   2.616   3.092   6.433
 1621TIP3   OH2 4803   3.210   5.845   4.996
 1621TIP3    H1 4804   3.129   5.893   4.978
 1621TIP3    H2 4805   3.277   5.892   4.947
 1622TIP3   OH2 4806   7.211   3.954   2.498
 1622TIP3    H1 4807   7.229   3.998   2.581
 1622TIP3    H2 4808   7.277   3.989   2.438
 1623TIP3   OH2 4809   7.889   1.888   0.765
 1623TIP3    H1 4810   7.837   1.963   0.735
 1623TIP3    H2 4811   7.980   1.916   0.755
 1624TIP3   OH2 4812   6.941   5.652   5.119
 1624TIP3    H1 4813   6.996   5.580   5.089
 1624TIP3    H2 4814   6.910   5.625   5.205
 1625TIP3   OH2 4815   5.578   7.479   3.824
 1625TIP3    H1 4816   5.584   7.390   3.789
 1625TIP3    H2 4817   5.484   7.493   3.837
 1626TIP3   OH2 4818   3.873   0.441   1.868
 1626TIP3    H1 4819   3.892   0.521   1.817
 1626TIP3    H2 4820   3.953   0.423   1.915
 1627TIP3   OH2 4821   0.653   0.404   4.316
 1627TIP3    H1 4822   0.635   0.314   4.342
 1627TIP3    H2 4823   0.641   0.405   4.221
 1628TIP3   OH2 4824   6.263   7.152   5.741
 1628TIP3    H1 4825   6.185   7.115   5.781
 1628TIP3    H2 4826   6.270   7.108   5.656
 1629TIP3   OH2 4827   2.994   6.018   4.930
 1629TIP3    H1 4828   2.994   5.987   4.840
 1629TIP3    H2 4829   2.914   5.982   4.968
 1630TIP3   OH2 4830   0.631   4.455   2.505
 1630TIP3    H1 4831   0.658   4.546   2.511
 1630TIP3    H2 4832   0.626   4.425   2.596
 1631TIP3   OH2 4833   6.739   4.901   0.193
 1631TIP3    H1 4834   6.810   4.930   0.250
 1631TIP3    H2 4835   6.709   4.982   0.150
 1632TIP3   OH2 4836   0.087   4.640   0.798
 1632TIP3    H1 4837  -0.005   4.665   0.810
 1632TIP3    H2 4838   0.114   4.609   0.884
 1633TIP3   OH2 4839   2.532   7.863   6.757
 1633TIP3    H1 4840   2.451   7.833   6.799
 1633TIP3    H2 4841   2.517   7.955   6.738
 1634TIP3   OH2 4842   2.851   4.112   4.142
 1634TIP3    H1 4843   2.882   4.202   4.146
 1634TIP3    H2 4844   2.757   4.118   4.158
 1635TIP3   OH2 4845   4.052   5.215   4.575
 1635TIP3    H1 4846   4.063   5.292   4.518
 1635TIP3    H2 4847   4.095   5.144   4.527
 1636TIP3   OH2 4848   1.819   5.697   6.728
 1636TIP3    H1 4849   1.858   5.645   6.658
 1636TIP3    H2 4850   1.724   5.689   6.715
 1637TIP3   OH2 4851   8.052   0.484   5.177
 1637TIP3    H1 4852   7.968   0.521   5.205
 1637TIP3    H2 4853   8.095   0.458   5.258
 1638TIP3   OH2 4854   7.561   2.907   1.249
 1638TIP3    H1 4855   7.468   2.920   1.233
 1638TIP3    H2 4856   7.569   2.899   1.344
 1639TIP3   OH2 4857   1.163   7.256   4.495
 1639TIP3    H1 4858   1.217   7.180   4.517
 1639TIP3    H2 4859   1.226   7.323   4.469
 1640TIP3   OH2 4860   4.133   5.360   1.094
 1640TIP3    H1 4861   4.086   5.289   1.051
 1640TIP3    H2 4862   4.145   5.426   1.025
 1641TIP3   OH2 4863   1.011   3.082   0.675
 1641TIP3    H1 4864   0.968   3.110   0.756
 1641TIP3    H2 4865   0.954   3.016   0.638
 1642TIP3   OH2 4866   0.638   0.785   2.058
 1642TIP3    H1 4867   0.730   0.766   2.042
 1642TIP3    H2 4868   0.609   0.832   1.981
 1643TIP3   OH2 4869   7.630   6.027   5.492
 1643TIP3    H1 4870   7.662   5.954   5.544
 1643TIP3    H2 4871   7.707   6.059   5.445
 1644TIP3   OH2 4872   5.346   3.944   5.724
 1644TIP3    H1 4873   5.441   3.945   5.727
 1644TIP3    H2 4874   5.324   3.894   5.646
 1645TIP3   OH2 4875   0.928   6.603   1.164
 1645TIP3    H1 4876   0.848   6.641   1.201
 1645TIP3    H2 4877   0.952   6.534   1.226
 1646TIP3   OH2 4878   1.893   2.137   3.882
 1646TIP3    H1 4879   1.816   2.154   3.827
 1646TIP3    H2 4880   1.882   2.195   3.957
 1647TIP3   OH2 4881   6.029   2.821   2.746
 1647TIP3    H1 4882   6.073   2.786   2.824
 1647TIP3    H2 4883   5.948   2.772   2.740
 1648TIP3   OH2 4884   7.939   5.472   1.112
 1648TIP3    H1 4885   7.959   5.402   1.050
 1648TIP3    H2 4886   8.018   5.526   1.114
 1649TIP3   OH2 4887   6.823   0.442   5.236
 1649TIP3    H1 4888   6.766   0.519   5.239
 1649TIP3    H2 4889   6.902   0.468   5.282
 1650TIP3   OH2 4890   2.165   4.791   4.981
 1650TIP3    H1 4891   2.087   4.735   4.973
 1650TIP3    H2 4892   2.139   4.858   5.043
 1651TIP3   OH2 4893   2.207   0.223   2.773
 1651TIP3    H1 4894   2.205   0.161   2.700
 1651TIP3    H2 4895   2.190   0.169   2.850
 1652TIP3   OH2 4896   0.282   5.365   0.664
 1652TIP3    H1 4897   0.282   5.273   0.690
 1652TIP3    H2 4898   0.192   5.383   0.637
 1653TIP3   OH2 4899   8.072   6.245   6.581
 1653TIP3    H1 4900   8.164   6.268   6.598
 1653TIP3    H2 4901   8.070   6.224   6.487
 1654TIP3   OH2 4902   3.319   7.200   5.627
 1654TIP3    H1 4903   3.384   7.191   5.697
 1654TIP3    H2 4904   3.363   7.165   5.550
 1655TIP3   OH2 4905   4.322   6.285   5.108
 1655TIP3    H1 4906   4.291   6.365   5.066
 1655TIP3    H2 4907   4.276   6.214   5.063
 1656TIP3   OH2 4908   1.302   2.644   2.714
 1656TIP3    H1 4909   1.358   2.714   2.747
 1656TIP3    H2 4910   1.335   2.564   2.756
 1657TIP3   OH2 4911   3.601   0.991   0.916
 1657TIP3    H1 4912   3.619   1.022   0.827
 1657TIP3    H2 4913   3.505   0.986   0.921
 1658TIP3   OH2 4914   6.841   0.420   0.914
 1658TIP3    H1 4915   6.804   0.353   0.971
 1658TIP3    H2 4916   6.868   0.373   0.835
 1659TIP3   OH2 4917   4.574   2.009   6.291
 1659TIP3    H1 4918   4.573   2.007   6.387
 1659TIP3    H2 4919   4.629   1.935   6.266
 1660TIP3   OH2 4920   0.724   2.677   4.654
 1660TIP3    H1 4921   0.689   2.731   4.725
 1660TIP3    H2 4922   0.648   2.632   4.618
 1661TIP3   OH2 4923   5.121   4.089   6.247
 1661TIP3    H1 4924   5.105   4.068   6.155
 1661TIP3    H2 4925   5.129   4.004   6.290
 1662TIP3   OH2 4926   6.415   6.395   2.227
 1662TIP3    H1 4927   6.366   6.352   2.156
 1662TIP3    H2 4928   6.350   6.408   2.296
 1663TIP3   OH2 4929   3.929   7.398   3.643
 1663TIP3    H1 4930   3.916   7.488   3.614
 1663TIP3    H2 4931   3.946   7.349   3.563
 1664TIP3   OH2 4932   4.375   2.898   5.031
 1664TIP3    H1 4933   4.415   2.958   5.094
 1664TIP3    H2 4934   4.449   2.855   4.988
 1665TIP3   OH2 4935   2.837   4.001   5.610
 1665TIP3    H1 4936   2.916   4.013   5.663
 1665TIP3    H2 4937   2.811   3.910   5.626
 1666TIP3   OH2 4938   7.815   0.056   4.353
 1666TIP3    H1 4939   7.909   0.052   4.334
 1666TIP3    H2 4940   7.778   0.109   4.282
 1667TIP3   OH2 4941   0.614   0.913   0.723
 1667TIP3    H1 4942   0.662   0.963   0.788
 1667TIP3    H2 4943   0.554   0.977   0.683
 1668TIP3   OH2 4944   5.246   5.805   4.464
 1668TIP3    H1 4945   5.286   5.853   4.391
 1668TIP3    H2 4946   5.169   5.857   4.488
 1669TIP3   OH2 4947   2.174   2.711   1.706
 1669TIP3    H1 4948   2.260   2.702   1.747
 1669TIP3    H2 4949   2.174   2.799   1.668
 1670TIP3   OH2 4950   4.595   2.516   2.155
 1670TIP3    H1 4951   4.601   2.521   2.250
 1670TIP3    H2 4952   4.501   2.513   2.137
 1671TIP3   OH2 4953   2.614   2.302   2.739
 1671TIP3    H1 4954   2.546   2.362   2.708
 1671TIP3    H2 4955   2.662   2.277   2.660
 1672TIP3   OH2 4956   5.476   1.634   6.623
 1672TIP3    H1 4957   5.408   1.573   6.597
 1672TIP3    H2 4958   5.430   1.702   6.672
 1673TIP3   OH2 4959   1.039   2.761   0.874
 1673TIP3    H1 4960   0.944   2.772   0.871
 1673TIP3    H2 4961   1.068   2.779   0.784
 1674TIP3   OH2 4962   0.294   4.599   4.738
 1674TIP3    H1 4963   0.223   4.586   4.801
 1674TIP3    H2 4964   0.360   4.534   4.763
 1675TIP3   OH2 4965   6.509   1.899   0.053
 1675TIP3    H1 4966   6.563   1.977   0.047
 1675TIP3    H2 4967   6.565   1.833   0.094
 1676TIP3   OH2 4968   4.371   1.239   5.868
 1676TIP3    H1 4969   4.379   1.214   5.775
 1676TIP3    H2 4970   4.396   1.159   5.916
 1677TIP3   OH2 4971   1.166   1.109   1.739
 1677TIP3    H1 4972   1.245   1.054   1.739
 1677TIP3    H2 4973   1.183   1.175   1.806
 1678TIP3   OH2 4974   7.314   7.541   4.751
 1678TIP3    H1 4975   7.374   7.587   4.810
 1678TIP3    H2 4976   7.368   7.516   4.676
 1679TIP3   OH2 4977   4.821   6.341   3.850
 1679TIP3    H1 4978   4.877   6.410   3.885
 1679TIP3    H2 4979   4.732   6.376   3.857
 1680TIP3   OH2 4980   5.740   3.146   4.313
 1680TIP3    H1 4981   5.784   3.095   4.380
 1680TIP3    H2 4982   5.752   3.096   4.233
 1681TIP3   OH2 4983   1.056   0.282   0.501
 1681TIP3    H1 4984   1.099   0.197   0.511
 1681TIP3    H2 4985   1.065   0.324   0.587
 1682TIP3   OH2 4986   3.978   2.085   6.681
 1682TIP3    H1 4987   4.024   2.145   6.739
 1682TIP3    H2 4988   3.886   2.107   6.692
 1683TIP3   OH2 4989   4.748   6.368   1.409
 1683TIP3    H1 4990   4.794   6.412   1.337
 1683TIP3    H2 4991   4.663   6.345   1.373
 1684TIP3   OH2 4992   7.992   5.205   5.855
 1684TIP3    H1 4993   8.046   5.274   5.891
 1684TIP3    H2 4994   8.017   5.201   5.762
 1685TIP3   OH2 4995   6.881   1.819   1.744
 1685TIP3    H1 4996   6.958   1.856   1.788
 1685TIP3    H2 4997   6.918   1.761   1.678
 1686TIP3   OH2 4998   2.439   0.729   4.212
 1686TIP3    H1 4999   2.462   0.692   4.297
 1686TIP3    H2 5000   2.442   0.824   4.225
 1687TIP3   OH2 5001   3.646   5.835   0.362
 1687TIP3    H1 5002   3.631   5.880   0.445
 1687TIP3    H2 5003   3.644   5.904   0.296
 1688TIP3   OH2 5004   1.132   6.291   3.665
 1688TIP3    H1 5005   1.101   6.382   3.657
 1688TIP3    H2 5006   1.219   6.292   3.626
 1689TIP3   OH2 5007   6.064   5.156   3.071
 1689TIP3    H1 5008   6.050   5.221   3.003
 1689TIP3    H2 5009   5.976   5.133   3.101
 1690TIP3   OH2 5010   1.416   1.593   4.928
 1690TIP3    H1 5011   1.335   1.631   4.962
 1690TIP3    H2 5012   1.390   1.546   4.849
 1691TIP3   OH2 5013   4.457   3.146   1.068
 1691TIP3    H1 5014   4.383   3.185   1.021
 1691TIP3    H2 5015   4.501   3.092   1.002
 1692TIP3   OH2 5016   5.143   6.484   5.117
 1692TIP3    H1 5017   5.056   6.491   5.077
 1692TIP3    H2 5018   5.159   6.390   5.123
 1693TIP3   OH2 5019   1.031   4.807   4.447
 1693TIP3    H1 5020   0.970   4.820   4.374
 1693TIP3    H2 5021   1.011   4.879   4.507
 1694TIP3   OH2 5022   1.259   7.453   6.064
 1694TIP3    H1 5023   1.287   7.463   5.973
 1694TIP3    H2 5024   1.164   7.462   6.061
 1695TIP3   OH2 5025   4.953   7.637   1.170
 1695TIP3    H1 5026   5.023   7.700   1.149
 1695TIP3    H2 5027   4.876   7.692   1.186
 1696TIP3   OH2 5028   1.720   5.684   3.392
 1696TIP3    H1 5029   1.656   5.617   3.414
 1696TIP3    H2 5030   1.731   5.676   3.298
 1697TIP3   OH2 5031   8.175   3.797   4.113
 1697TIP3    H1 5032   8.083   3.774   4.126
 1697TIP3    H2 5033   8.173   3.887   4.082
 1698TIP3   OH2 5034   6.193   4.474   0.416
 1698TIP3    H1 5035   6.252   4.437   0.350
 1698TIP3    H2 5036   6.106   4.447   0.387
 1699TIP3   OH2 5037   1.048   7.336   5.865
 1699TIP3    H1 5038   1.015   7.309   5.951
 1699TIP3    H2 5039   1.035   7.431   5.864
 1700TIP3   OH2 5040   7.421   5.390   0.002
 1700TIP3    H1 5041   7.326   5.399   0.012
 1700TIP3    H2 5042   7.434   5.372  -0.091
 1701TIP3   OH2 5043   5.803   5.994   2.147
 1701TIP3    H1 5044   5.778   6.087   2.145
 1701TIP3    H2 5045   5.723   5.949   2.174
 1702TIP3   OH2 5046   5.079   4.653   3.516
 1702TIP3    H1 5047   5.141   4.670   3.587
 1702TIP3    H2 5048   5.103   4.566   3.483
 1703TIP3   OH2 5049   8.006   0.531   3.202
 1703TIP3    H1 5050   8.010   0.626   3.184
 1703TIP3    H2 5051   8.094   0.508   3.232
 1704TIP3   OH2 5052   7.003   7.751   3.526
 1704TIP3    H1 5053   6.965   7.830   3.488
 1704TIP3    H2 5054   7.064   7.719   3.459
 1705TIP3   OH2 5055   7.459   3.422   1.251
 1705TIP3    H1 5056   7.452   3.384   1.163
 1705TIP3    H2 5057   7.405   3.366   1.306
 1706TIP3   OH2 5058   6.719   5.157   3.765
 1706TIP3    H1 5059   6.694   5.235   3.716
 1706TIP3    H2 5060   6.746   5.094   3.698
 1707TIP3   OH2 5061   0.855   4.914   0.492
 1707TIP3    H1 5062   0.793   4.976   0.531
 1707TIP3    H2 5063   0.938   4.933   0.535
 1708TIP3   OH2 5064   3.531   5.715   2.887
 1708TIP3    H1 5065   3.520   5.643   2.826
 1708TIP3    H2 5066   3.604   5.766   2.852
 1709TIP3   OH2 5067   7.792   0.201   2.961
 1709TIP3    H1 5068   7.801   0.277   3.019
 1709TIP3    H2 5069   7.793   0.126   3.020
 1710TIP3   OH2 5070   4.921   3.800   6.457
 1710TIP3    H1 5071   4.844   3.816   6.404
 1710TIP3    H2 5072   4.887   3.761   6.538
 1711TIP3   OH2 5073   6.676   7.369   5.090
 1711TIP3    H1 5074   6.607   7.406   5.144
 1711TIP3    H2 5075   6.722   7.308   5.147
 1712TIP3   OH2 5076   6.273   6.096   2.605
 1712TIP3    H1 5077   6.304   6.033   2.540
 1712TIP3    H2 5078   6.349   6.149   2.626
 1713TIP3   OH2 5079   5.866   3.036   5.402
 1713TIP3    H1 5080   5.917   2.972   5.353
 1713TIP3    H2 5081   5.855   2.997   5.489
 1714TIP3   OH2 5082   2.752   3.313   4.713
 1714TIP3    H1 5083   2.834   3.263   4.719
 1714TIP3    H2 5084   2.780   3.405   4.721
 1715TIP3   OH2 5085   2.913   1.346   0.443
 1715TIP3    H1 5086   2.871   1.326   0.527
 1715TIP3    H2 5087   3.001   1.377   0.467
 1716TIP3   OH2 5088   6.637   1.421   3.103
 1716TIP3    H1 5089   6.563   1.407   3.045
 1716TIP3    H2 5090   6.696   1.348   3.086
 1717TIP3   OH2 5091   6.479   5.720   6.595
 1717TIP3    H1 5092   6.465   5.702   6.688
 1717TIP3    H2 5093   6.563   5.766   6.592
 1718TIP3   OH2 5094   5.987   7.068   2.634
 1718TIP3    H1 5095   6.019   6.981   2.653
 1718TIP3    H2 5096   5.892   7.057   2.626
 1719TIP3   OH2 5097   7.333   5.390   2.703
 1719TIP3    H1 5098   7.260   5.330   2.719
 1719TIP3    H2 5099   7.319   5.421   2.614
 1720TIP3   OH2 5100   4.288   5.881   4.696
 1720TIP3    H1 5101   4.338   5.814   4.742
 1720TIP3    H2 5102   4.342   5.960   4.702
 1721TIP3   OH2 5103   4.358   6.141   0.790
 1721TIP3    H1 5104   4.330   6.089   0.715
 1721TIP3    H2 5105   4.307   6.222   0.783
 1722TIP3   OH2 5106   6.503   3.942   3.343
 1722TIP3    H1 5107   6.578   3.890   3.369
 1722TIP3    H2 5108   6.533   4.033   3.351
 1723TIP3   OH2 5109   8.203   0.869   3.005
 1723TIP3    H1 5110   8.269   0.820   3.053
 1723TIP3    H2 5111   8.241   0.882   2.918
 1724TIP3   OH2 5112   3.488   5.929   5.199
 1724TIP3    H1 5113   3.422   5.965   5.139
 1724TIP3    H2 5114   3.533   6.005   5.234
 1725TIP3   OH2 5115   6.003   4.979   2.839
 1725TIP3    H1 5116   6.090   4.982   2.881
 1725TIP3    H2 5117   6.016   5.020   2.754
 1726TIP3   OH2 5118   2.256   0.761   0.868
 1726TIP3    H1 5119   2.246   0.703   0.943
 1726TIP3    H2 5120   2.290   0.843   0.904
 1727TIP3   OH2 5121   4.890   6.258   3.560
 1727TIP3    H1 5122   4.832   6.250   3.635
 1727TIP3    H2 5123   4.975   6.226   3.592
 1728TIP3   OH2 5124   8.026   2.832   5.237
 1728TIP3    H1 5125   8.000   2.781   5.160
 1728TIP3    H2 5126   7.951   2.825   5.296
 1729TIP3   OH2 5127   3.119   4.482   0.276
 1729TIP3    H1 5128   3.095   4.557   0.330
 1729TIP3    H2 5129   3.201   4.451   0.312
 1730TIP3   OH2 5130   0.911   3.298   4.566
 1730TIP3    H1 5131   0.930   3.392   4.566
 1730TIP3    H2 5132   0.976   3.260   4.626
 1731TIP3   OH2 5133   5.579   4.556   6.808
 1731TIP3    H1 5134   5.521   4.479   6.810
 1731TIP3    H2 5135   5.532   4.620   6.754
 1732TIP3   OH2 5136   0.187   6.169   3.257
 1732TIP3    H1 5137   0.192   6.096   3.318
 1732TIP3    H2 5138   0.126   6.231   3.297
 1733TIP3   OH2 5139   6.075   0.136   4.292
 1733TIP3    H1 5140   6.135   0.064   4.312
 1733TIP3    H2 5141   6.120   0.214   4.323
 1734TIP3   OH2 5142   1.158   7.323   5.202
 1734TIP3    H1 5143   1.139   7.238   5.242
 1734TIP3    H2 5144   1.253   7.330   5.203
 1735TIP3   OH2 5145   2.594   5.873   4.281
 1735TIP3    H1 5146   2.651   5.863   4.205
 1735TIP3    H2 5147   2.638   5.938   4.336
 1736TIP3   OH2 5148   6.453   1.371   6.279
 1736TIP3    H1 5149   6.387   1.368   6.210
 1736TIP3    H2 5150   6.417   1.318   6.350
 1737TIP3   OH2 5151   4.479   6.633   5.142
 1737TIP3    H1 5152   4.539   6.620   5.069
 1737TIP3    H2 5153   4.535   6.631   5.220
 1738TIP3   OH2 5154   5.267   4.805   0.419
 1738TIP3    H1 5155   5.276   4.882   0.363
 1738TIP3    H2 5156   5.258   4.732   0.358
 1739TIP3   OH2 5157   0.856   1.191   3.092
 1739TIP3    H1 5158   0.794   1.236   3.035
 1739TIP3    H2 5159   0.942   1.212   3.056
 1740TIP3   OH2 5160   4.572   6.488   4.494
 1740TIP3    H1 5161   4.531   6.453   4.415
 1740TIP3    H2 5162   4.510   6.554   4.526
 1741TIP3   OH2 5163   2.775   0.629   5.868
 1741TIP3    H1 5164   2.817   0.709   5.836
 1741TIP3    H2 5165   2.828   0.602   5.942
 1742TIP3   OH2 5166   6.732   1.772   0.126
 1742TIP3    H1 5167   6.777   1.725   0.056
 1742TIP3    H2 5168   6.771   1.738   0.207
 1743TIP3   OH2 5169   5.073   1.630   1.878
 1743TIP3    H1 5170   5.045   1.703   1.934
 1743TIP3    H2 5171   5.070   1.553   1.935
 1744TIP3   OH2 5172   7.291   5.616   0.432
 1744TIP3    H1 5173   7.241   5.640   0.354
 1744TIP3    H2 5174   7.301   5.521   0.425
 1745TIP3   OH2 5175   7.102   6.471   3.350
 1745TIP3    H1 5176   7.017   6.508   3.375
 1745TIP3    H2 5177   7.096   6.460   3.255
 1746TIP3   OH2 5178   5.175   7.416   5.595
 1746TIP3    H1 5179   5.152   7.508   5.602
 1746TIP3    H2 5180   5.219   7.409   5.510
 1747TIP3   OH2 5181   1.448   6.093   3.124
 1747TIP3    H1 5182   1.450   6.184   3.094
 1747TIP3    H2 5183   1.489   6.096   3.211
 1748TIP3   OH2 5184   0.929   6.696   2.511
 1748TIP3    H1 5185   0.884   6.668   2.431
 1748TIP3    H2 5186   1.022   6.697   2.487
 1749TIP3   OH2 5187   8.321   5.227   6.866
 1749TIP3    H1 5188   8.374   5.171   6.809
 1749TIP3    H2 5189   8.334   5.315   6.831
 1750TIP3   OH2 5190   7.433   4.141   3.739
 1750TIP3    H1 5191   7.367   4.207   3.758
 1750TIP3    H2 5192   7.399   4.060   3.778
 1751TIP3   OH2 5193   7.548   5.902   4.638
 1751TIP3    H1 5194   7.511   5.990   4.631
 1751TIP3    H2 5195   7.530   5.862   4.554
 1752TIP3   OH2 5196   6.844   6.339   3.513
 1752TIP3    H1 5197   6.881   6.259   3.474
 1752TIP3    H2 5198   6.849   6.324   3.607
 1753TIP3   OH2 5199   3.500   4.241   4.275
 1753TIP3    H1 5200   3.552   4.321   4.276
 1753TIP3    H2 5201   3.412   4.270   4.249
 1754TIP3   OH2 5202   1.867   4.184   4.182
 1754TIP3    H1 5203   1.869   4.126   4.258
 1754TIP3    H2 5204   1.816   4.136   4.117
 1755TIP3   OH2 5205   5.083   4.667   4.631
 1755TIP3    H1 5206   5.012   4.664   4.696
 1755TIP3    H2 5207   5.044   4.631   4.552
 1756TIP3   OH2 5208   4.772   4.130   6.401
 1756TIP3    H1 5209   4.854   4.101   6.442
 1756TIP3    H2 5210   4.728   4.048   6.377
 1757TIP3   OH2 5211   0.503   0.629   2.346
 1757TIP3    H1 5212   0.453   0.558   2.304
 1757TIP3    H2 5213   0.476   0.626   2.438
 1758TIP3   OH2 5214   4.571   5.095   3.327
 1758TIP3    H1 5215   4.648   5.039   3.331
 1758TIP3    H2 5216   4.595   5.174   3.375
 1759TIP3   OH2 5217   2.754   6.833   6.561
 1759TIP3    H1 5218   2.767   6.927   6.548
 1759TIP3    H2 5219   2.762   6.795   6.474
 1760TIP3   OH2 5220   1.501   1.023   2.750
 1760TIP3    H1 5221   1.457   0.962   2.691
 1760TIP3    H2 5222   1.549   1.082   2.692
 1761TIP3   OH2 5223   1.896   1.888   5.519
 1761TIP3    H1 5224   1.980   1.861   5.482
 1761TIP3    H2 5225   1.886   1.980   5.492
 1762TIP3   OH2 5226   0.309   4.886   6.051
 1762TIP3    H1 5227   0.226   4.842   6.032
 1762TIP3    H2 5228   0.284   4.971   6.086
 1763TIP3   OH2 5229   8.252   0.234   0.337
 1763TIP3    H1 5230   8.267   0.165   0.402
 1763TIP3    H2 5231   8.170   0.276   0.365
 1764TIP3   OH2 5232   0.692   4.195   4.576
 1764TIP3    H1 5233   0.604   4.187   4.612
 1764TIP3    H2 5234   0.692   4.279   4.529
 1765TIP3   OH2 5235   0.626   6.405   2.250
 1765TIP3    H1 5236   0.550   6.353   2.224
 1765TIP3    H2 5237   0.666   6.432   2.167
 1766TIP3   OH2 5238   0.596   3.983   1.785
 1766TIP3    H1 5239   0.623   4.056   1.840
 1766TIP3    H2 5240   0.540   4.022   1.718
 1767TIP3   OH2 5241   3.725   7.472   2.130
 1767TIP3    H1 5242   3.685   7.386   2.147
 1767TIP3    H2 5243   3.786   7.456   2.058
 1768TIP3   OH2 5244   5.685   5.338   5.294
 1768TIP3    H1 5245   5.721   5.383   5.218
 1768TIP3    H2 5246   5.591   5.332   5.275
 1769TIP3   OH2 5247   2.908   3.665   0.034
 1769TIP3    H1 5248   2.933   3.698   0.121
 1769TIP3    H2 5249   2.813   3.655   0.039
 1770TIP3   OH2 5250   6.304   0.052   4.619
 1770TIP3    H1 5251   6.284   0.048   4.713
 1770TIP3    H2 5252   6.376   0.115   4.612
 1771TIP3   OH2 5253   0.404   5.880   1.411
 1771TIP3    H1 5254   0.355   5.871   1.328
 1771TIP3    H2 5255   0.337   5.867   1.479
 1772TIP3   OH2 5256   3.838   4.367   4.816
 1772TIP3    H1 5257   3.749   4.351   4.848
 1772TIP3    H2 5258   3.876   4.427   4.880
 1773TIP3   OH2 5259   5.795   0.042   0.091
 1773TIP3    H1 5260   5.779   0.134   0.110
 1773TIP3    H2 5261   5.710  -0.001   0.106
 1774TIP3   OH2 5262   4.827   3.511   3.130
 1774TIP3    H1 5263   4.776   3.542   3.055
 1774TIP3    H2 5264   4.784   3.550   3.206
 1775TIP3   OH2 5265   7.603   7.121   2.804
 1775TIP3    H1 5266   7.534   7.080   2.856
 1775TIP3    H2 5267   7.662   7.049   2.780
 1776TIP3   OH2 5268   3.006   2.444   3.098
 1776TIP3    H1 5269   3.020   2.538   3.109
 1776TIP3    H2 5270   2.940   2.437   3.029
 1777TIP3   OH2 5271   3.765   3.794   6.078
 1777TIP3    H1 5272   3.791   3.708   6.045
 1777TIP3    H2 5273   3.797   3.856   6.012
 1778TIP3   OH2 5274   6.586   0.475   0.090
 1778TIP3    H1 5275   6.640   0.414   0.041
 1778TIP3    H2 5276   6.537   0.524   0.024
 1779TIP3   OH2 5277   2.969   6.995   1.130
 1779TIP3    H1 5278   2.888   6.952   1.102
 1779TIP3    H2 5279   3.014   7.019   1.049
 1780TIP3   OH2 5280   6.667   3.927   0.548
 1780TIP3    H1 5281   6.679   3.865   0.620
 1780TIP3    H2 5282   6.745   3.984   0.552
 1781TIP3   OH2 5283   4.415   1.734   4.414
 1781TIP3    H1 5284   4.434   1.816   4.369
 1781TIP3    H2 5285   4.399   1.671   4.344
 1782TIP3   OH2 5286   2.364   7.682   1.080
 1782TIP3    H1 5287   2.308   7.650   1.009
 1782TIP3    H2 5288   2.312   7.748   1.124
 1783TIP3   OH2 5289   7.179   6.906   0.337
 1783TIP3    H1 5290   7.239   6.917   0.263
 1783TIP3    H2 5291   7.183   6.813   0.358
 1784TIP3   OH2 5292   0.794   4.814   1.000
 1784TIP3    H1 5293   0.865   4.869   1.034
 1784TIP3    H2 5294   0.827   4.780   0.917
 1785TIP3   OH2 5295   8.343   1.882   3.627
 1785TIP3    H1 5296   8.336   1.938   3.550
 1785TIP3    H2 5297   8.427   1.839   3.618
 1786TIP3   OH2 5298   1.290   7.355   3.102
 1786TIP3    H1 5299   1.327   7.272   3.070
 1786TIP3    H2 5300   1.237   7.330   3.178
 1787TIP3   OH2 5301   6.944   0.184   2.756
 1787TIP3    H1 5302   7.016   0.203   2.816
 1787TIP3    H2 5303   6.950   0.251   2.688
 1788TIP3   OH2 5304   1.948   2.734   0.772
 1788TIP3    H1 5305   1.985   2.723   0.685
 1788TIP3    H2 5306   2.023   2.732   0.831
 1789TIP3   OH2 5307   1.527   2.696   6.285
 1789TIP3    H1 5308   1.555   2.651   6.365
 1789TIP3    H2 5309   1.440   2.730   6.306
 1790TIP3   OH2 5310   0.519   5.279   3.597
 1790TIP3    H1 5311   0.538   5.187   3.618
 1790TIP3    H2 5312   0.597   5.310   3.551
 1791TIP3   OH2 5313   1.239   1.173   0.305
 1791TIP3    H1 5314   1.268   1.154   0.395
 1791TIP3    H2 5315   1.257   1.092   0.257
 1792TIP3   OH2 5316   7.742   6.501   2.919
 1792TIP3    H1 5317   7.726   6.407   2.929
 1792TIP3    H2 5318   7.655   6.540   2.918
 1793TIP3   OH2 5319   5.387   5.252   4.952
 1793TIP3    H1 5320   5.374   5.346   4.970
 1793TIP3    H2 5321   5.413   5.249   4.860
 1794TIP3   OH2 5322   2.230   4.673   2.388
 1794TIP3    H1 5323   2.306   4.615   2.385
 1794TIP3    H2 5324   2.244   4.735   2.316
 1795TIP3   OH2 5325   0.647   5.079   0.605
 1795TIP3    H1 5326   0.580   5.114   0.546
 1795TIP3    H2 5327   0.660   5.147   0.671
 1796TIP3   OH2 5328   7.228   0.195   6.561
 1796TIP3    H1 5329   7.148   0.158   6.526
 1796TIP3    H2 5330   7.200   0.273   6.609
 1797TIP3   OH2 5331   2.733   2.903   1.235
 1797TIP3    H1 5332   2.698   2.828   1.283
 1797TIP3    H2 5333   2.821   2.877   1.210
 1798TIP3   OH2 5334   3.069   3.275   1.400
 1798TIP3    H1 5335   3.017   3.233   1.469
 1798TIP3    H2 5336   3.077   3.208   1.332
 1799TIP3   OH2 5337   3.299   0.679   1.004
 1799TIP3    H1 5338   3.263   0.592   1.024
 1799TIP3    H2 5339   3.392   0.671   1.026
 1800TIP3   OH2 5340   5.102   5.373   2.906
 1800TIP3    H1 5341   5.181   5.384   2.959
 1800TIP3    H2 5342   5.055   5.301   2.949
 1801TIP3   OH2 5343   1.314   1.221   6.526
 1801TIP3    H1 5344   1.249   1.265   6.582
 1801TIP3    H2 5345   1.290   1.246   6.437
 1802TIP3   OH2 5346   1.749   1.000   6.158
 1802TIP3    H1 5347   1.714   1.075   6.110
 1802TIP3    H2 5348   1.834   0.983   6.118
 1803TIP3   OH2 5349   3.884   0.714   3.389
 1803TIP3    H1 5350   3.831   0.789   3.362
 1803TIP3    H2 5351   3.889   0.659   3.311
 1804TIP3   OH2 5352   0.040   4.919   0.636
 1804TIP3    H1 5353   0.117   4.871   0.665
 1804TIP3    H2 5354  -0.022   4.910   0.708
 1805TIP3   OH2 5355   4.506   5.529   4.486
 1805TIP3    H1 5356   4.440   5.540   4.417
 1805TIP3    H2 5357   4.500   5.436   4.510
 1806TIP3   OH2 5358   3.656   5.840   5.578
 1806TIP3    H1 5359   3.569   5.870   5.550
 1806TIP3    H2 5360   3.639   5.762   5.631
 1807TIP3   OH2 5361   7.054   1.069   1.287
 1807TIP3    H1 5362   6.984   1.127   1.318
 1807TIP3    H2 5363   7.012   0.983   1.281
 1808TIP3   OH2 5364   3.224   3.143   5.053
 1808TIP3    H1 5365   3.293   3.093   5.009
 1808TIP3    H2 5366   3.213   3.221   4.999
 1809TIP3   OH2 5367   5.853   3.752   3.948
 1809TIP3    H1 5368   5.890   3.789   3.868
 1809TIP3    H2 5369   5.838   3.660   3.928
 1810TIP3   OH2 5370   1.217   3.429   1.487
 1810TIP3    H1 5371   1.139   3.485   1.478
 1810TIP3    H2 5372   1.187   3.342   1.462
 1811TIP3   OH2 5373   6.853   5.513   1.139
 1811TIP3    H1 5374   6.856   5.429   1.184
 1811TIP3    H2 5375   6.783   5.503   1.075
 1812TIP3   OH2 5376   3.878   6.829   6.376
 1812TIP3    H1 5377   3.803   6.848   6.318
 1812TIP3    H2 5378   3.838   6.796   6.456
 1813TIP3   OH2 5379   3.694   5.763   6.767
 1813TIP3    H1 5380   3.737   5.688   6.807
 1813TIP3    H2 5381   3.725   5.838   6.817
 1814TIP3   OH2 5382   5.596   2.886   2.300
 1814TIP3    H1 5383   5.652   2.847   2.367
 1814TIP3    H2 5384   5.649   2.956   2.262
 1815TIP3   OH2 5385   5.418   2.483   5.834
 1815TIP3    H1 5386   5.343   2.431   5.805
 1815TIP3    H2 5387   5.480   2.418   5.868
 1816TIP3   OH2 5388   7.217   4.842   0.537
 1816TIP3    H1 5389   7.262   4.791   0.470
 1816TIP3    H2 5390   7.198   4.779   0.607
 1817TIP3   OH2 5391   4.778   2.548   1.290
 1817TIP3    H1 5392   4.726   2.628   1.288
 1817TIP3    H2 5393   4.745   2.499   1.365
 1818TIP3   OH2 5394   8.404   7.039   0.483
 1818TIP3    H1 5395   8.338   7.046   0.414
 1818TIP3    H2 5396   8.367   6.977   0.546
 1819TIP3   OH2 5397   4.234   7.577   1.790
 1819TIP3    H1 5398   4.239   7.482   1.800
 1819TIP3    H2 5399   4.169   7.590   1.721
 1820TIP3   OH2 5400   0.344   7.646   3.418
 1820TIP3    H1 5401   0.366   7.738   3.406
 1820TIP3    H2 5402   0.291   7.623   3.342
 1821TIP3   OH2 5403   4.949   0.006   3.597
 1821TIP3    H1 5404   4.900  -0.032   3.524
 1821TIP3    H2 5405   4.934   0.100   3.590
 1822TIP3   OH2 5406   6.361   7.290   0.873
 1822TIP3    H1 5407   6.349   7.197   0.856
 1822TIP3    H2 5408   6.278   7.330   0.848
 1823TIP3   OH2 5409   8.011   5.937   1.651
 1823TIP3    H1 5410   8.050   5.871   1.710
 1823TIP3    H2 5411   7.958   5.886   1.590
 1824TIP3   OH2 5412   8.328   3.994   0.483
 1824TIP3    H1 5413   8.269   4.045   0.427
 1824TIP3    H2 5414   8.380   4.059   0.530
 1825TIP3   OH2 5415   0.196   1.134   4.443
 1825TIP3    H1 5416   0.249   1.136   4.363
 1825TIP3    H2 5417   0.124   1.075   4.423
 1826TIP3   OH2 5418   1.970   0.687   4.653
 1826TIP3    H1 5419   1.933   0.740   4.724
 1826TIP3    H2 5420   2.024   0.747   4.603
 1827TIP3   OH2 5421   0.960   4.182   5.723
 1827TIP3    H1 5422   1.010   4.253   5.763
 1827TIP3    H2 5423   1.006   4.102   5.749
 1828TIP3   OH2 5424   5.275   1.314   1.406
 1828TIP3    H1 5425   5.191   1.360   1.410
 1828TIP3    H2 5426   5.306   1.328   1.316
 1829TIP3   OH2 5427   0.867   7.383   6.342
 1829TIP3    H1 5428   0.824   7.320   6.285
 1829TIP3    H2 5429   0.927   7.331   6.395
 1830TIP3   OH2 5430   0.120   3.486   6.480
 1830TIP3    H1 5431   0.088   3.406   6.438
 1830TIP3    H2 5432   0.052   3.551   6.463
 1831TIP3   OH2 5433   2.755   7.259   0.349
 1831TIP3    H1 5434   2.667   7.222   0.339
 1831TIP3    H2 5435   2.742   7.335   0.407
 1832TIP3   OH2 5436   6.718   7.432   4.044
 1832TIP3    H1 5437   6.768   7.427   4.126
 1832TIP3    H2 5438   6.732   7.522   4.013
 1833TIP3   OH2 5439   0.650   2.961   1.351
 1833TIP3    H1 5440   0.593   2.927   1.420
 1833TIP3    H2 5441   0.590   2.995   1.285
 1834TIP3   OH2 5442   3.534   3.033   4.121
 1834TIP3    H1 5443   3.504   3.047   4.210
 1834TIP3    H2 5444   3.521   2.940   4.105
 1835TIP3   OH2 5445   1.665   2.017   3.771
 1835TIP3    H1 5446   1.696   1.971   3.693
 1835TIP3    H2 5447   1.578   1.979   3.788
 1836TIP3   OH2 5448   7.094   3.183   6.776
 1836TIP3    H1 5449   7.093   3.171   6.681
 1836TIP3    H2 5450   7.167   3.128   6.806
 1837TIP3   OH2 5451   4.316   5.130   2.554
 1837TIP3    H1 5452   4.301   5.036   2.544
 1837TIP3    H2 5453   4.319   5.144   2.648
 1838TIP3   OH2 5454   3.571   3.315   4.331
 1838TIP3    H1 5455   3.619   3.262   4.268
 1838TIP3    H2 5456   3.631   3.326   4.405
 1839TIP3   OH2 5457   3.978   4.832   4.704
 1839TIP3    H1 5458   3.985   4.800   4.794
 1839TIP3    H2 5459   4.054   4.890   4.694
 1840TIP3   OH2 5460   8.051   5.811   0.755
 1840TIP3    H1 5461   7.960   5.814   0.783
 1840TIP3    H2 5462   8.101   5.828   0.834
 1841TIP3   OH2 5463   0.320   4.613   5.921
 1841TIP3    H1 5464   0.338   4.678   5.853
 1841TIP3    H2 5465   0.253   4.654   5.976
 1842TIP3   OH2 5466   3.502   1.905   2.404
 1842TIP3    H1 5467   3.455   1.876   2.481
 1842TIP3    H2 5468   3.590   1.925   2.436
 1843TIP3   OH2 5469   4.774   0.384   4.232
 1843TIP3    H1 5470   4.779   0.313   4.168
 1843TIP3    H2 5471   4.821   0.350   4.309
 1844TIP3   OH2 5472   8.165   4.480   6.550
 1844TIP3    H1 5473   8.090   4.480   6.610
 1844TIP3    H2 5474   8.182   4.572   6.532
 1845TIP3   OH2 5475   2.296   4.504   1.395
 1845TIP3    H1 5476   2.318   4.411   1.403
 1845TIP3    H2 5477   2.248   4.524   1.476
 1846TIP3   OH2 5478   7.298   2.279   2.049
 1846TIP3    H1 5479   7.268   2.295   2.139
 1846TIP3    H2 5480   7.239   2.330   1.994
 1847TIP3   OH2 5481   7.578   2.322   0.054
 1847TIP3    H1 5482   7.658   2.327   0.106
 1847TIP3    H2 5483   7.568   2.228   0.035
 1848TIP3   OH2 5484   3.333   2.216   3.213
 1848TIP3    H1 5485   3.330   2.305   3.247
 1848TIP3    H2 5486   3.403   2.217   3.147
 1849TIP3   OH2 5487   8.026   3.575   4.385
 1849TIP3    H1 5488   7.979   3.655   4.362
 1849TIP3    H2 5489   7.987   3.508   4.329
 1850TIP3   OH2 5490   7.077   1.612   2.267
 1850TIP3    H1 5491   7.025   1.684   2.233
 1850TIP3    H2 5492   7.015   1.540   2.277
 1851TIP3   OH2 5493   3.863   4.853   4.076
 1851TIP3    H1 5494   3.856   4.948   4.072
 1851TIP3    H2 5495   3.949   4.837   4.115
 1852TIP3   OH2 5496   7.529   5.446   1.575
 1852TIP3    H1 5497   7.510   5.460   1.482
 1852TIP3    H2 5498   7.452   5.401   1.609
 1853TIP3   OH2 5499   5.267   3.694   2.941
 1853TIP3    H1 5500   5.223   3.609   2.942
 1853TIP3    H2 5501   5.249   3.728   2.853
 1854TIP3   OH2 5502   6.607   0.272   6.615
 1854TIP3    H1 5503   6.563   0.307   6.537
 1854TIP3    H2 5504   6.610   0.345   6.676
 1855TIP3   OH2 5505   4.975   3.086   6.301
 1855TIP3    H1 5506   4.987   3.158   6.238
 1855TIP3    H2 5507   4.897   3.111   6.351
 1856TIP3   OH2 5508   0.135   6.418   6.380
 1856TIP3    H1 5509   0.132   6.327   6.352
 1856TIP3    H2 5510   0.192   6.462   6.316
 1857TIP3   OH2 5511   5.238   6.849   3.376
 1857TIP3    H1 5512   5.159   6.806   3.342
 1857TIP3    H2 5513   5.288   6.778   3.416
 1858TIP3   OH2 5514   0.317   6.770   1.945
 1858TIP3    H1 5515   0.316   6.849   1.890
 1858TIP3    H2 5516   0.410   6.751   1.958
 1859TIP3   OH2 5517   5.564   3.733   4.791
 1859TIP3    H1 5518   5.539   3.653   4.745
 1859TIP3    H2 5519   5.639   3.766   4.741
 1860TIP3   OH2 5520   0.653   2.238   1.519
 1860TIP3    H1 5521   0.589   2.189   1.570
 1860TIP3    H2 5522   0.723   2.259   1.582
 1861TIP3   OH2 5523   1.711   0.587   1.673
 1861TIP3    H1 5524   1.758   0.668   1.651
 1861TIP3    H2 5525   1.735   0.570   1.764
 1862TIP3   OH2 5526   2.964   3.888   4.762
 1862TIP3    H1 5527   3.045   3.919   4.803
 1862TIP3    H2 5528   2.993   3.824   4.697
 1863TIP3   OH2 5529   4.189   6.845   5.831
 1863TIP3    H1 5530   4.150   6.906   5.894
 1863TIP3    H2 5531   4.281   6.871   5.827
 1864TIP3   OH2 5532   8.088   4.696   6.747
 1864TIP3    H1 5533   8.055   4.674   6.834
 1864TIP3    H2 5534   8.180   4.716   6.760
 1865TIP3   OH2 5535   2.246   4.425   3.356
 1865TIP3    H1 5536   2.287   4.349   3.398
 1865TIP3    H2 5537   2.311   4.494   3.362
 1866TIP3   OH2 5538   0.646   2.663   5.895
 1866TIP3    H1 5539   0.661   2.686   5.803
 1866TIP3    H2 5540   0.551   2.665   5.905
 1867TIP3   OH2 5541   2.365   7.490   3.797
 1867TIP3    H1 5542   2.422   7.422   3.763
 1867TIP3    H2 5543   2.324   7.529   3.719
 1868TIP3   OH2 5544   1.390   1.084   0.517
 1868TIP3    H1 5545   1.459   1.078   0.452
 1868TIP3    H2 5546   1.435   1.100   0.600
 1869TIP3   OH2 5547   3.811   7.670   5.571
 1869TIP3    H1 5548   3.762   7.752   5.583
 1869TIP3    H2 5549   3.891   7.697   5.526
 1870TIP3   OH2 5550   4.331   3.719   0.869
 1870TIP3    H1 5551   4.308   3.812   0.862
 1870TIP3    H2 5552   4.392   3.704   0.797
 1871TIP3   OH2 5553   4.852   4.354   5.636
 1871TIP3    H1 5554   4.828   4.294   5.564
 1871TIP3    H2 5555   4.885   4.296   5.705
 1872TIP3   OH2 5556   0.653   2.589   2.767
 1872TIP3    H1 5557   0.671   2.540   2.847
 1872TIP3    H2 5558   0.702   2.543   2.699
 1873TIP3   OH2 5559   1.595   2.606   1.097
 1873TIP3    H1 5560   1.604   2.583   1.189
 1873TIP3    H2 5561   1.502   2.595   1.078
 1874TIP3   OH2 5562   3.243   2.390   2.953
 1874TIP3    H1 5563   3.154   2.405   2.986
 1874TIP3    H2 5564   3.265   2.471   2.908
 1875TIP3   OH2 5565   2.511   4.985   3.333
 1875TIP3    H1 5566   2.507   4.913   3.270
 1875TIP3    H2 5567   2.450   5.051   3.298
 1876TIP3   OH2 5568   5.025   3.278   1.646
 1876TIP3    H1 5569   4.955   3.340   1.665
 1876TIP3    H2 5570   5.098   3.332   1.618
 1877TIP3   OH2 5571   7.321   3.565   3.597
 1877TIP3    H1 5572   7.322   3.554   3.692
 1877TIP3    H2 5573   7.279   3.485   3.564
 1878TIP3   OH2 5574   2.022   7.116   0.619
 1878TIP3    H1 5575   2.114   7.090   0.618
 1878TIP3    H2 5576   1.989   7.083   0.703
 1879TIP3   OH2 5577   1.797   3.675   2.482
 1879TIP3    H1 5578   1.843   3.653   2.563
 1879TIP3    H2 5579   1.773   3.590   2.444
 1880TIP3   OH2 5580   0.884   0.262   0.846
 1880TIP3    H1 5581   0.821   0.270   0.917
 1880TIP3    H2 5582   0.896   0.352   0.814
 1881TIP3   OH2 5583   3.864   4.851   4.959
 1881TIP3    H1 5584   3.897   4.941   4.965
 1881TIP3    H2 5585   3.774   4.857   4.991
 1882TIP3   OH2 5586   3.137   3.305   0.994
 1882TIP3    H1 5587   3.212   3.263   0.951
 1882TIP3    H2 5588   3.075   3.233   1.009
 1883TIP3   OH2 5589   5.736   2.506   2.268
 1883TIP3    H1 5590   5.793   2.452   2.324
 1883TIP3    H2 5591   5.797   2.551   2.209
 1884TIP3   OH2 5592   6.131   0.356   0.944
 1884TIP3    H1 5593   6.208   0.376   0.997
 1884TIP3    H2 5594   6.167   0.331   0.858
 1885TIP3   OH2 5595   6.502   1.819   4.491
 1885TIP3    H1 5596   6.496   1.728   4.519
 1885TIP3    H2 5597   6.443   1.867   4.549
 1886TIP3   OH2 5598   1.609   4.342   4.502
 1886TIP3    H1 5599   1.641   4.386   4.423
 1886TIP3    H2 5600   1.684   4.293   4.534
 1887TIP3   OH2 5601   3.839   6.037   5.005
 1887TIP3    H1 5602   3.776   6.019   4.935
 1887TIP3    H2 5603   3.899   5.962   5.002
 1888TIP3   OH2 5604   1.984   2.735   4.836
 1888TIP3    H1 5605   2.009   2.690   4.755
 1888TIP3    H2 5606   2.019   2.679   4.906
 1889TIP3   OH2 5607   1.850   1.863   6.116
 1889TIP3    H1 5608   1.814   1.819   6.192
 1889TIP3    H2 5609   1.781   1.859   6.050
 1890TIP3   OH2 5610   2.042   0.177   5.098
 1890TIP3    H1 5611   1.986   0.100   5.090
 1890TIP3    H2 5612   2.070   0.177   5.189
 1891TIP3   OH2 5613   4.850   4.218   1.413
 1891TIP3    H1 5614   4.876   4.301   1.374
 1891TIP3    H2 5615   4.883   4.151   1.353
 1892TIP3   OH2 5616   4.744   2.682   0.836
 1892TIP3    H1 5617   4.654   2.657   0.855
 1892TIP3    H2 5618   4.796   2.636   0.902
 1893TIP3   OH2 5619   7.208   1.607   0.523
 1893TIP3    H1 5620   7.191   1.648   0.438
 1893TIP3    H2 5621   7.281   1.548   0.507
 1894TIP3   OH2 5622   7.573   0.915   4.097
 1894TIP3    H1 5623   7.605   0.864   4.023
 1894TIP3    H2 5624   7.637   0.986   4.107
 1895TIP3   OH2 5625   3.971   1.638   4.112
 1895TIP3    H1 5626   3.918   1.629   4.191
 1895TIP3    H2 5627   4.052   1.591   4.132
 1896TIP3   OH2 5628   7.601   2.710   2.883
 1896TIP3    H1 5629   7.620   2.743   2.971
 1896TIP3    H2 5630   7.580   2.788   2.832
 1897TIP3   OH2 5631   2.805   6.600   3.100
 1897TIP3    H1 5632   2.882   6.557   3.138
 1897TIP3    H2 5633   2.761   6.530   3.052
 1898TIP3   OH2 5634   1.821   1.654   3.404
 1898TIP3    H1 5635   1.729   1.636   3.387
 1898TIP3    H2 5636   1.867   1.576   3.373
 1899TIP3   OH2 5637   5.301   3.319   3.513
 1899TIP3    H1 5638   5.330   3.229   3.495
 1899TIP3    H2 5639   5.324   3.333   3.605
 1900TIP3   OH2 5640   8.395   2.847   0.416
 1900TIP3    H1 5641   8.429   2.759   0.403
 1900TIP3    H2 5642   8.472   2.900   0.438
 1901TIP3   OH2 5643   4.975   3.122   1.267
 1901TIP3    H1 5644   4.898   3.161   1.227
 1901TIP3    H2 5645   4.943   3.084   1.349
 1902TIP3   OH2 5646   2.005   6.199   5.629
 1902TIP3    H1 5647   1.942   6.268   5.647
 1902TIP3    H2 5648   2.006   6.145   5.708
 1903TIP3   OH2 5649   0.225   1.394   3.683
 1903TIP3    H1 5650   0.197   1.385   3.774
 1903TIP3    H2 5651   0.285   1.468   3.683
 1904TIP3   OH2 5652   5.414   4.410   3.850
 1904TIP3    H1 5653   5.397   4.318   3.830
 1904TIP3    H2 5654   5.333   4.455   3.826
 1905TIP3   OH2 5655   6.092   6.971   6.238
 1905TIP3    H1 5656   6.141   7.050   6.264
 1905TIP3    H2 5657   6.000   6.995   6.247
 1906TIP3   OH2 5658   7.476   0.489   3.240
 1906TIP3    H1 5659   7.497   0.470   3.149
 1906TIP3    H2 5660   7.382   0.505   3.241
 1907TIP3   OH2 5661   5.675   4.751   1.953
 1907TIP3    H1 5662   5.712   4.663   1.945
 1907TIP3    H2 5663   5.751   4.809   1.949
 1908TIP3   OH2 5664   8.194   2.961   3.303
 1908TIP3    H1 5665   8.195   2.877   3.258
 1908TIP3    H2 5666   8.117   2.957   3.361
 1909TIP3   OH2 5667   4.009   2.153   2.368
 1909TIP3    H1 5668   4.000   2.168   2.462
 1909TIP3    H2 5669   3.919   2.141   2.337
 1910TIP3   OH2 5670   5.803   6.562   4.614
 1910TIP3    H1 5671   5.844   6.541   4.698
 1910TIP3    H2 5672   5.767   6.650   4.626
 1911TIP3   OH2 5673   5.612   1.639   6.274
 1911TIP3    H1 5674   5.683   1.702   6.266
 1911TIP3    H2 5675   5.540   1.689   6.312
 1912TIP3   OH2 5676   7.936   7.045   6.386
 1912TIP3    H1 5677   7.845   7.044   6.356
 1912TIP3    H2 5678   7.981   7.101   6.322
 1913TIP3   OH2 5679   5.344   6.789   6.111
 1913TIP3    H1 5680   5.325   6.713   6.056
 1913TIP3    H2 5681   5.340   6.864   6.051
 1914TIP3   OH2 5682   6.087   2.763   5.043
 1914TIP3    H1 5683   5.994   2.785   5.052
 1914TIP3    H2 5684   6.093   2.720   4.958
 1915TIP3   OH2 5685   6.973   7.832   0.216
 1915TIP3    H1 5686   7.032   7.822   0.142
 1915TIP3    H2 5687   6.896   7.779   0.193
 1916TIP3   OH2 5688   1.170   3.642   1.196
 1916TIP3    H1 5689   1.110   3.700   1.244
 1916TIP3    H2 5690   1.253   3.689   1.197
 1917TIP3   OH2 5691   4.499   1.352   4.022
 1917TIP3    H1 5692   4.485   1.348   3.927
 1917TIP3    H2 5693   4.532   1.265   4.044
 1918TIP3   OH2 5694   6.401   6.417   0.745
 1918TIP3    H1 5695   6.475   6.467   0.778
 1918TIP3    H2 5696   6.332   6.482   0.731
 1919TIP3   OH2 5697   8.191   5.069   2.913
 1919TIP3    H1 5698   8.145   5.152   2.896
 1919TIP3    H2 5699   8.149   5.006   2.854
 1920TIP3   OH2 5700   1.035   5.352   2.364
 1920TIP3    H1 5701   1.121   5.393   2.357
 1920TIP3    H2 5702   1.008   5.370   2.454
 1921TIP3   OH2 5703   1.797   5.540   2.608
 1921TIP3    H1 5704   1.825   5.582   2.689
 1921TIP3    H2 5705   1.737   5.603   2.568
 1922TIP3   OH2 5706   2.746   4.013   4.629
 1922TIP3    H1 5707   2.830   3.974   4.654
 1922TIP3    H2 5708   2.690   4.003   4.705
 1923TIP3   OH2 5709   5.408   4.679   3.277
 1923TIP3    H1 5710   5.377   4.589   3.273
 1923TIP3    H2 5711   5.443   4.688   3.366
 1924TIP3   OH2 5712   1.534   3.944   3.674
 1924TIP3    H1 5713   1.482   3.910   3.746
 1924TIP3    H2 5714   1.601   3.877   3.659
 1925TIP3   OH2 5715   5.267   2.240   0.112
 1925TIP3    H1 5716   5.237   2.149   0.110
 1925TIP3    H2 5717   5.199   2.288   0.065
 1926TIP3   OH2 5718   6.019   3.222   6.813
 1926TIP3    H1 5719   5.981   3.302   6.847
 1926TIP3    H2 5720   5.968   3.151   6.852
 1927TIP3   OH2 5721   7.356   2.983   6.643
 1927TIP3    H1 5722   7.403   3.066   6.633
 1927TIP3    H2 5723   7.412   2.919   6.599
 1928TIP3   OH2 5724   1.759   6.133   5.466
 1928TIP3    H1 5725   1.808   6.211   5.439
 1928TIP3    H2 5726   1.805   6.103   5.546
 1929TIP3   OH2 5727   7.226   2.081   3.636
 1929TIP3    H1 5728   7.319   2.057   3.637
 1929TIP3    H2 5729   7.185   2.022   3.699
 1930TIP3   OH2 5730   1.551   4.088   0.182
 1930TIP3    H1 5731   1.635   4.126   0.156
 1930TIP3    H2 5732   1.575   4.018   0.243
 1931TIP3   OH2 5733   0.342   5.672   4.485
 1931TIP3    H1 5734   0.277   5.692   4.552
 1931TIP3    H2 5735   0.426   5.684   4.529
 1932TIP3   OH2 5736   1.760   4.761   2.953
 1932TIP3    H1 5737   1.843   4.730   2.917
 1932TIP3    H2 5738   1.722   4.685   2.996
 1933TIP3   OH2 5739   2.991   4.954   2.513
 1933TIP3    H1 5740   2.936   4.880   2.535
 1933TIP3    H2 5741   3.002   5.002   2.595
 1934TIP3   OH2 5742   4.586   3.564   2.983
 1934TIP3    H1 5743   4.521   3.551   3.053
 1934TIP3    H2 5744   4.573   3.655   2.956
 1935TIP3   OH2 5745   1.579   6.726   3.125
 1935TIP3    H1 5746   1.598   6.727   3.031
 1935TIP3    H2 5747   1.627   6.650   3.158
 1936TIP3   OH2 5748   6.557   0.551   0.750
 1936TIP3    H1 5749   6.534   0.483   0.813
 1936TIP3    H2 5750   6.638   0.589   0.785
 1937TIP3   OH2 5751   7.582   5.831   2.778
 1937TIP3    H1 5752   7.611   5.808   2.866
 1937TIP3    H2 5753   7.492   5.798   2.772
 1938TIP3   OH2 5754   8.346   3.999   3.436
 1938TIP3    H1 5755   8.375   3.962   3.520
 1938TIP3    H2 5756   8.252   4.009   3.446
 1939TIP3   OH2 5757   2.110   0.899   4.508
 1939TIP3    H1 5758   2.196   0.902   4.551
 1939TIP3    H2 5759   2.106   0.981   4.458
 1940TIP3   OH2 5760   7.902   6.064   2.013
 1940TIP3    H1 5761   7.936   6.043   2.100
 1940TIP3    H2 5762   7.825   6.118   2.030
 1941TIP3   OH2 5763   1.018   5.399   0.882
 1941TIP3    H1 5764   0.945   5.355   0.837
 1941TIP3    H2 5765   0.975   5.450   0.951
 1942TIP3   OH2 5766   1.814   0.821   2.799
 1942TIP3    H1 5767   1.864   0.852   2.722
 1942TIP3    H2 5768   1.861   0.743   2.827
 1943TIP3   OH2 5769   0.847   2.829   2.767
 1943TIP3    H1 5770   0.845   2.925   2.774
 1943TIP3    H2 5771   0.757   2.802   2.782
 1944TIP3   OH2 5772   5.849   0.332   0.882
 1944TIP3    H1 5773   5.935   0.303   0.914
 1944TIP3    H2 5774   5.796   0.253   0.883
 1945TIP3   OH2 5775   0.852   7.351   3.594
 1945TIP3    H1 5776   0.928   7.297   3.613
 1945TIP3    H2 5777   0.829   7.329   3.504
 1946TIP3   OH2 5778   5.934   5.155   1.577
 1946TIP3    H1 5779   6.012   5.208   1.560
 1946TIP3    H2 5780   5.887   5.201   1.646
 1947TIP3   OH2 5781   8.064   4.786   5.258
 1947TIP3    H1 5782   8.012   4.715   5.296
 1947TIP3    H2 5783   8.022   4.866   5.290
 1948TIP3   OH2 5784   6.127   1.187   3.698
 1948TIP3    H1 5785   6.069   1.174   3.774
 1948TIP3    H2 5786   6.191   1.117   3.704
 1949TIP3   OH2 5787   3.355   1.604   6.457
 1949TIP3    H1 5788   3.330   1.522   6.414
 1949TIP3    H2 5789   3.357   1.668   6.387
 1950TIP3   OH2 5790   1.670   6.959   4.251
 1950TIP3    H1 5791   1.709   6.890   4.197
 1950TIP3    H2 5792   1.735   6.977   4.319
 1951TIP3   OH2 5793   4.938   3.614   2.111
 1951TIP3    H1 5794   4.950   3.527   2.073
 1951TIP3    H2 5795   4.973   3.607   2.200
 1952TIP3   OH2 5796   6.383   5.759   0.233
 1952TIP3    H1 5797   6.357   5.672   0.202
 1952TIP3    H2 5798   6.479   5.754   0.241
 1953TIP3   OH2 5799   0.187   3.681   6.804
 1953TIP3    H1 5800   0.243   3.603   6.800
 1953TIP3    H2 5801   0.110   3.653   6.854
 1954TIP3   OH2 5802   7.678   4.903   1.792
 1954TIP3    H1 5803   7.678   4.997   1.775
 1954TIP3    H2 5804   7.761   4.872   1.753
 1955TIP3   OH2 5805   3.471   6.371   1.097
 1955TIP3    H1 5806   3.547   6.367   1.039
 1955TIP3    H2 5807   3.411   6.432   1.055
 1956TIP3   OH2 5808   5.240   1.873   2.955
 1956TIP3    H1 5809   5.210   1.964   2.961
 1956TIP3    H2 5810   5.161   1.821   2.971
 1957TIP3   OH2 5811   3.609   1.939   5.820
 1957TIP3    H1 5812   3.606   2.022   5.773
 1957TIP3    H2 5813   3.701   1.927   5.843
 1958TIP3   OH2 5814   7.845   4.573   2.069
 1958TIP3    H1 5815   7.908   4.644   2.081
 1958TIP3    H2 5816   7.888   4.497   2.107
 1959TIP3   OH2 5817   1.403   1.292   1.105
 1959TIP3    H1 5818   1.394   1.273   1.199
 1959TIP3    H2 5819   1.494   1.268   1.085
 1960TIP3   OH2 5820   4.620   4.062   0.245
 1960TIP3    H1 5821   4.531   4.084   0.217
 1960TIP3    H2 5822   4.622   4.084   0.338
 1961TIP3   OH2 5823   5.504   7.180   4.707
 1961TIP3    H1 5824   5.476   7.148   4.622
 1961TIP3    H2 5825   5.565   7.252   4.687
 1962TIP3   OH2 5826   3.979   2.430   5.628
 1962TIP3    H1 5827   4.022   2.368   5.569
 1962TIP3    H2 5828   3.973   2.383   5.711
 1963TIP3   OH2 5829   3.166   0.117   3.781
 1963TIP3    H1 5830   3.190   0.027   3.804
 1963TIP3    H2 5831   3.084   0.133   3.827
 1964TIP3   OH2 5832   2.795   1.774   0.233
 1964TIP3    H1 5833   2.784   1.716   0.309
 1964TIP3    H2 5834   2.740   1.736   0.166
 1965TIP3   OH2 5835   4.251   7.608   6.128
 1965TIP3    H1 5836   4.189   7.535   6.123
 1965TIP3    H2 5837   4.312   7.582   6.198
 1966TIP3   OH2 5838   5.894   7.055   6.387
 1966TIP3    H1 5839   5.945   7.065   6.468
 1966TIP3    H2 5840   5.803   7.058   6.416
 1967TIP3   OH2 5841   6.276   0.487   2.136
 1967TIP3    H1 5842   6.322   0.521   2.213
 1967TIP3    H2 5843   6.200   0.440   2.172
 1968TIP3   OH2 5844   7.621   5.010   3.262
 1968TIP3    H1 5845   7.548   5.031   3.321
 1968TIP3    H2 5846   7.599   5.055   3.181
 1969TIP3   OH2 5847   4.988   3.114   3.813
 1969TIP3    H1 5848   5.047   3.093   3.885
 1969TIP3    H2 5849   4.911   3.059   3.827
 1970TIP3   OH2 5850   1.667   4.539   3.146
 1970TIP3    H1 5851   1.646   4.475   3.214
 1970TIP3    H2 5852   1.585   4.587   3.133
 1971TIP3   OH2 5853   4.870   3.839   5.712
 1971TIP3    H1 5854   4.853   3.754   5.753
 1971TIP3    H2 5855   4.784   3.870   5.686
 1972TIP3   OH2 5856   8.013   3.393   1.475
 1972TIP3    H1 5857   8.038   3.375   1.566
 1972TIP3    H2 5858   7.948   3.326   1.454
 1973TIP3   OH2 5859   2.422   3.768   5.398
 1973TIP3    H1 5860   2.496   3.736   5.448
 1973TIP3    H2 5861   2.409   3.858   5.428
 1974TIP3   OH2 5862   4.513   0.292   4.208
 1974TIP3    H1 5863   4.586   0.353   4.206
 1974TIP3    H2 5864   4.452   0.328   4.272
 1975TIP3   OH2 5865   1.070   1.522   0.960
 1975TIP3    H1 5866   0.988   1.473   0.959
 1975TIP3    H2 5867   1.116   1.493   0.881
 1976TIP3   OH2 5868   3.666   3.879   1.910
 1976TIP3    H1 5869   3.676   3.795   1.866
 1976TIP3    H2 5870   3.668   3.944   1.840
 1977TIP3   OH2 5871   4.086   7.111   3.910
 1977TIP3    H1 5872   4.057   7.043   3.970
 1977TIP3    H2 5873   4.161   7.151   3.955
 1978TIP3   OH2 5874   5.180   4.631   0.153
 1978TIP3    H1 5875   5.098   4.598   0.116
 1978TIP3    H2 5876   5.247   4.571   0.122
 1979TIP3   OH2 5877   2.335   6.055   1.774
 1979TIP3    H1 5878   2.267   5.998   1.740
 1979TIP3    H2 5879   2.330   6.044   1.869
 1980TIP3   OH2 5880   6.082   0.129   2.439
 1980TIP3    H1 5881   5.996   0.163   2.461
 1980TIP3    H2 5882   6.077   0.035   2.459
 1981TIP3   OH2 5883   5.580   4.792   6.487
 1981TIP3    H1 5884   5.617   4.711   6.452
 1981TIP3    H2 5885   5.651   4.831   6.538
 1982TIP3   OH2 5886   6.893   0.251   2.476
 1982TIP3    H1 5887   6.803   0.220   2.488
 1982TIP3    H2 5888   6.888   0.346   2.490
 1983TIP3   OH2 5889   2.531   5.212   0.879
 1983TIP3    H1 5890   2.522   5.118   0.862
 1983TIP3    H2 5891   2.463   5.252   0.825
 1984TIP3   OH2 5892   0.390   3.823   3.963
 1984TIP3    H1 5893   0.471   3.865   3.993
 1984TIP3    H2 5894   0.382   3.849   3.872
 1985TIP3   OH2 5895   2.984   0.708   0.980
 1985TIP3    H1 5896   2.925   0.671   1.046
 1985TIP3    H2 5897   2.952   0.673   0.897
 1986TIP3   OH2 5898   3.814   6.830   2.302
 1986TIP3    H1 5899   3.791   6.911   2.348
 1986TIP3    H2 5900   3.730   6.794   2.274
 1987TIP3   OH2 5901   3.000   0.165   0.607
 1987TIP3    H1 5902   3.045   0.214   0.538
 1987TIP3    H2 5903   3.067   0.107   0.643
 1988TIP3   OH2 5904   5.048   1.251   5.360
 1988TIP3    H1 5905   5.013   1.163   5.347
 1988TIP3    H2 5906   5.106   1.243   5.436
 1989TIP3   OH2 5907   3.683   2.776   2.144
 1989TIP3    H1 5908   3.706   2.784   2.236
 1989TIP3    H2 5909   3.734   2.701   2.112
 1990TIP3   OH2 5910   6.052   4.504   6.575
 1990TIP3    H1 5911   6.110   4.435   6.546
 1990TIP3    H2 5912   6.053   4.498   6.671
 1991TIP3   OH2 5913   8.062   4.352   2.082
 1991TIP3    H1 5914   8.043   4.380   1.993
 1991TIP3    H2 5915   7.991   4.293   2.105
 1992TIP3   OH2 5916   0.385   3.729   5.997
 1992TIP3    H1 5917   0.383   3.643   5.954
 1992TIP3    H2 5918   0.296   3.762   5.990
 1993TIP3   OH2 5919   8.248   1.296   4.551
 1993TIP3    H1 5920   8.258   1.278   4.457
 1993TIP3    H2 5921   8.161   1.262   4.572
 1994TIP3   OH2 5922   3.290   5.228   3.438
 1994TIP3    H1 5923   3.240   5.157   3.398
 1994TIP3    H2 5924   3.232   5.264   3.505
 1995TIP3   OH2 5925   7.631   1.713   2.624
 1995TIP3    H1 5926   7.566   1.783   2.620
 1995TIP3    H2 5927   7.591   1.640   2.576
 1996TIP3   OH2 5928   2.383   1.744   6.109
 1996TIP3    H1 5929   2.441   1.696   6.050
 1996TIP3    H2 5930   2.326   1.676   6.146
 1997TIP3   OH2 5931   0.522   0.251   1.248
 1997TIP3    H1 5932   0.521   0.194   1.325
 1997TIP3    H2 5933   0.527   0.340   1.284
 1998TIP3   OH2 5934   7.258   3.260   0.582
 1998TIP3    H1 5935   7.169   3.248   0.548
 1998TIP3    H2 5936   7.272   3.355   0.579
 1999TIP3   OH2 5937   6.844   5.967   1.451
 1999TIP3    H1 5938   6.754   5.968   1.419
 1999TIP3    H2 5939   6.887   5.898   1.400
 2000TIP3   OH2 5940   5.720   1.680   1.838
 2000TIP3    H1 5941   5.652   1.612   1.837
 2000TIP3    H2 5942   5.679   1.753   1.883
 2001TIP3   OH2 5943   5.486   5.006   6.329
 2001TIP3    H1 5944   5.533   4.950   6.391
 2001TIP3    H2 5945   5.435   5.065   6.385
 2002TIP3   OH2 5946   6.901   7.456   2.405
 2002TIP3    H1 5947   6.808   7.474   2.421
 2002TIP3    H2 5948   6.939   7.448   2.493
 2003TIP3   OH2 5949   7.615   0.363   1.770
 2003TIP3    H1 5950   7.534   0.409   1.794
 2003TIP3    H2 5951   7.652   0.335   1.853
 2004TIP3   OH2 5952   6.477   1.219   5.932
 2004TIP3    H1 5953   6.544   1.282   5.905
 2004TIP3    H2 5954   6.430   1.263   6.003
 2005TIP3   OH2 5955   1.301   7.674   2.749
 2005TIP3    H1 5956   1.259   7.727   2.817
 2005TIP3    H2 5957   1.228   7.633   2.703
 2006TIP3   OH2 5958   0.039   0.100   5.937
 2006TIP3    H1 5959   0.096   0.174   5.958
 2006TIP3    H2 5960  -0.041   0.116   5.987
 2007TIP3   OH2 5961   0.470   6.048   0.568
 2007TIP3    H1 5962   0.435   6.033   0.481
 2007TIP3    H2 5963   0.527   6.124   0.559
 2008TIP3   OH2 5964   8.149   3.084   6.426
 2008TIP3    H1 5965   8.223   3.027   6.407
 2008TIP3    H2 5966   8.119   3.057   6.513
 2009TIP3   OH2 5967   4.690   1.605   1.528
 2009TIP3    H1 5968   4.680   1.698   1.505
 2009TIP3    H2 5969   4.725   1.565   1.448
 2010TIP3   OH2 5970   1.925   2.971   4.497
 2010TIP3    H1 5971   1.955   3.024   4.424
 2010TIP3    H2 5972   1.931   2.881   4.466
 2011TIP3   OH2 5973   0.605   7.650   2.948
 2011TIP3    H1 5974   0.617   7.712   3.020
 2011TIP3    H2 5975   0.510   7.635   2.945
 2012TIP3   OH2 5976   3.019   3.076   6.361
 2012TIP3    H1 5977   2.966   3.137   6.309
 2012TIP3    H2 5978   2.969   2.995   6.361
 2013TIP3   OH2 5979   2.835   4.442   2.356
 2013TIP3    H1 5980   2.903   4.375   2.351
 2013TIP3    H2 5981   2.841   4.487   2.271
 2014TIP3   OH2 5982   7.984   2.166   1.007
 2014TIP3    H1 5983   8.048   2.197   0.943
 2014TIP3    H2 5984   7.979   2.236   1.072
 2015TIP3   OH2 5985   3.797   7.600   3.367
 2015TIP3    H1 5986   3.776   7.653   3.444
 2015TIP3    H2 5987   3.876   7.639   3.332
 2016TIP3   OH2 5988   6.851   0.389   6.825
 2016TIP3    H1 5989   6.904   0.430   6.893
 2016TIP3    H2 5990   6.899   0.309   6.802
 2017TIP3   OH2 5991   5.063   7.581   0.162
 2017TIP3    H1 5992   5.132   7.593   0.097
 2017TIP3    H2 5993   5.110   7.556   0.242
 2018TIP3   OH2 5994   7.769   6.263   6.183
 2018TIP3    H1 5995   7.789   6.333   6.246
 2018TIP3    H2 5996   7.765   6.307   6.099
 2019TIP3   OH2 5997   5.799   0.375   5.988
 2019TIP3    H1 5998   5.782   0.425   6.068
 2019TIP3    H2 5999   5.735   0.410   5.925
 2020TIP3   OH2 6000   5.196   0.764   5.434
 2020TIP3    H1 6001   5.181   0.767   5.529
 2020TIP3    H2 6002   5.264   0.697   5.423
 2021TIP3   OH2 6003   5.969   3.582   3.222
 2021TIP3    H1 6004   5.881   3.596   3.255
 2021TIP3    H2 6005   5.964   3.608   3.130
 2022TIP3   OH2 6006   2.352   4.816   4.031
 2022TIP3    H1 6007   2.356   4.910   4.052
 2022TIP3    H2 6008   2.291   4.780   4.095
 2023TIP3   OH2 6009   7.672   3.811   5.801
 2023TIP3    H1 6010   7.731   3.747   5.761
 2023TIP3    H2 6011   7.713   3.832   5.885
 2024TIP3   OH2 6012   0.022   3.095   1.791
 2024TIP3    H1 6013   0.106   3.119   1.830
 2024TIP3    H2 6014  -0.043   3.133   1.849
 2025TIP3   OH2 6015   4.764   3.879   4.886
 2025TIP3    H1 6016   4.699   3.899   4.954
 2025TIP3    H2 6017   4.805   3.798   4.915
 2026TIP3   OH2 6018   3.757   2.654   1.411
 2026TIP3    H1 6019   3.682   2.596   1.423
 2026TIP3    H2 6020   3.719   2.739   1.390
 2027TIP3   OH2 6021   1.873   5.752   4.332
 2027TIP3    H1 6022   1.956   5.795   4.353
 2027TIP3    H2 6023   1.817   5.823   4.300
 2028TIP3   OH2 6024   7.142   0.409   1.215
 2028TIP3    H1 6025   7.126   0.347   1.144
 2028TIP3    H2 6026   7.154   0.355   1.292
 2029TIP3   OH2 6027   8.422   7.093   2.775
 2029TIP3    H1 6028   8.427   7.023   2.839
 2029TIP3    H2 6029   8.334   7.130   2.787
 2030TIP3   OH2 6030   5.973   2.628   0.257
 2030TIP3    H1 6031   5.882   2.602   0.268
 2030TIP3    H2 6032   5.971   2.724   0.257
 2031TIP3   OH2 6033   4.638   1.098   4.064
 2031TIP3    H1 6034   4.685   1.051   3.995
 2031TIP3    H2 6035   4.618   1.031   4.130
 2032TIP3   OH2 6036   4.265   3.464   2.499
 2032TIP3    H1 6037   4.239   3.475   2.407
 2032TIP3    H2 6038   4.191   3.419   2.540
 2033TIP3   OH2 6039   4.675   4.554   3.022
 2033TIP3    H1 6040   4.739   4.623   3.001
 2033TIP3    H2 6041   4.728   4.479   3.047
 2034TIP3   OH2 6042   3.833   1.346   4.174
 2034TIP3    H1 6043   3.802   1.362   4.085
 2034TIP3    H2 6044   3.799   1.420   4.225
 2035TIP3   OH2 6045   8.184   2.618   1.343
 2035TIP3    H1 6046   8.126   2.694   1.349
 2035TIP3    H2 6047   8.237   2.634   1.265
 2036TIP3   OH2 6048   4.424   4.277   1.438
 2036TIP3    H1 6049   4.519   4.281   1.443
 2036TIP3    H2 6050   4.395   4.262   1.528
 2037TIP3   OH2 6051   5.659   1.375   2.894
 2037TIP3    H1 6052   5.696   1.461   2.874
 2037TIP3    H2 6053   5.670   1.365   2.988
 2038TIP3   OH2 6054   3.600   0.301   4.834
 2038TIP3    H1 6055   3.535   0.305   4.904
 2038TIP3    H2 6056   3.646   0.385   4.839
 2039TIP3   OH2 6057   4.868   0.580   4.044
 2039TIP3    H1 6058   4.831   0.522   4.111
 2039TIP3    H2 6059   4.877   0.525   3.967
 2040TIP3   OH2 6060   0.103   5.100   2.857
 2040TIP3    H1 6061   0.067   5.147   2.782
 2040TIP3    H2 6062   0.028   5.080   2.912
 2041TIP3   OH2 6063   3.907   6.152   4.389
 2041TIP3    H1 6064   3.904   6.217   4.459
 2041TIP3    H2 6065   3.837   6.090   4.411
 2042TIP3   OH2 6066   2.217   5.069   0.540
 2042TIP3    H1 6067   2.296   5.014   0.548
 2042TIP3    H2 6068   2.160   5.019   0.482
 2043TIP3   OH2 6069   4.260   0.837   4.739
 2043TIP3    H1 6070   4.317   0.761   4.754
 2043TIP3    H2 6071   4.226   0.824   4.651
 2044TIP3   OH2 6072   0.352   0.388   1.888
 2044TIP3    H1 6073   0.312   0.352   1.967
 2044TIP3    H2 6074   0.364   0.481   1.906
 2045TIP3   OH2 6075   4.918   2.499   0.284
 2045TIP3    H1 6076   4.855   2.456   0.226
 2045TIP3    H2 6077   4.973   2.551   0.226
 2046TIP3   OH2 6078   6.452   7.299   3.151
 2046TIP3    H1 6079   6.449   7.279   3.245
 2046TIP3    H2 6080   6.393   7.374   3.142
 2047TIP3   OH2 6081   7.122   5.999   0.347
 2047TIP3    H1 6082   7.144   5.975   0.437
 2047TIP3    H2 6083   7.123   5.916   0.300
 2048TIP3   OH2 6084   6.834   3.592   5.960
 2048TIP3    H1 6085   6.869   3.521   6.014
 2048TIP3    H2 6086   6.910   3.647   5.941
 2049TIP3   OH2 6087   8.104   1.037   6.453
 2049TIP3    H1 6088   8.127   1.113   6.506
 2049TIP3    H2 6089   8.098   0.964   6.516
 2050TIP3   OH2 6090   2.991   1.859   4.673
 2050TIP3    H1 6091   2.937   1.785   4.645
 2050TIP3    H2 6092   3.077   1.820   4.689
 2051TIP3   OH2 6093   8.322   7.907   2.419
 2051TIP3    H1 6094   8.312   7.928   2.327
 2051TIP3    H2 6095   8.406   7.861   2.425
 2052TIP3   OH2 6096   6.541   1.791   2.223
 2052TIP3    H1 6097   6.462   1.744   2.196
 2052TIP3    H2 6098   6.533   1.796   2.318
 2053TIP3   OH2 6099   1.813   3.697   5.759
 2053TIP3    H1 6100   1.877   3.641   5.802
 2053TIP3    H2 6101   1.733   3.644   5.756
 2054TIP3   OH2 6102   6.111   1.661   2.659
 2054TIP3    H1 6103   6.039   1.626   2.711
 2054TIP3    H2 6104   6.082   1.748   2.632
 2055TIP3   OH2 6105   3.732   2.669   0.420
 2055TIP3    H1 6106   3.797   2.739   0.414
 2055TIP3    H2 6107   3.650   2.711   0.394
 2056TIP3   OH2 6108   6.902   5.431   6.837
 2056TIP3    H1 6109   6.895   5.367   6.766
 2056TIP3    H2 6110   6.989   5.415   6.875
 2057TIP3   OH2 6111   1.596   2.522   0.397
 2057TIP3    H1 6112   1.675   2.478   0.366
 2057TIP3    H2 6113   1.628   2.592   0.453
 2058TIP3   OH2 6114   0.474   4.666   2.789
 2058TIP3    H1 6115   0.428   4.700   2.712
 2058TIP3    H2 6116   0.452   4.726   2.859
 2059TIP3   OH2 6117   7.841   5.407   0.404
 2059TIP3    H1 6118   7.926   5.446   0.424
 2059TIP3    H2 6119   7.800   5.468   0.343
 2060TIP3   OH2 6120   0.578   5.026   2.732
 2060TIP3    H1 6121   0.599   5.064   2.817
 2060TIP3    H2 6122   0.660   5.032   2.682
 2061TIP3   OH2 6123   5.097   6.608   0.068
 2061TIP3    H1 6124   5.012   6.610   0.023
 2061TIP3    H2 6125   5.161   6.617  -0.002
 2062TIP3   OH2 6126   2.317   1.108   0.421
 2062TIP3    H1 6127   2.400   1.067   0.399
 2062TIP3    H2 6128   2.251   1.051   0.382
 2063TIP3   OH2 6129   3.077   7.562   3.368
 2063TIP3    H1 6130   3.038   7.593   3.450
 2063TIP3    H2 6131   3.004   7.557   3.307
 2064TIP3   OH2 6132   7.070   1.376   3.897
 2064TIP3    H1 6133   7.065   1.467   3.868
 2064TIP3    H2 6134   7.097   1.327   3.820
 2065TIP3   OH2 6135   3.809   4.008   1.522
 2065TIP3    H1 6136   3.731   4.025   1.469
 2065TIP3    H2 6137   3.794   3.922   1.561
 2066TIP3   OH2 6138   0.647   5.467   0.461
 2066TIP3    H1 6139   0.619   5.507   0.544
 2066TIP3    H2 6140   0.565   5.444   0.417
 2067TIP3   OH2 6141   2.664   2.202   1.203
 2067TIP3    H1 6142   2.617   2.138   1.257
 2067TIP3    H2 6143   2.644   2.177   1.113
 2068TIP3   OH2 6144   3.032   4.397   4.290
 2068TIP3    H1 6145   3.066   4.350   4.367
 2068TIP3    H2 6146   2.968   4.458   4.325
 2069TIP3   OH2 6147   4.349   4.159   0.223
 2069TIP3    H1 6148   4.290   4.139   0.296
 2069TIP3    H2 6149   4.300   4.133   0.145
 2070TIP3   OH2 6150   8.234   0.511   4.122
 2070TIP3    H1 6151   8.263   0.498   4.212
 2070TIP3    H2 6152   8.306   0.477   4.069
 2071TIP3   OH2 6153   0.338   0.223   4.570
 2071TIP3    H1 6154   0.244   0.223   4.587
 2071TIP3    H2 6155   0.378   0.213   4.656
 2072TIP3   OH2 6156   3.908   2.982   5.481
 2072TIP3    H1 6157   3.845   3.011   5.548
 2072TIP3    H2 6158   3.944   2.900   5.517
 2073TIP3   OH2 6159   8.310   7.844   0.035
 2073TIP3    H1 6160   8.228   7.879  -0.001
 2073TIP3    H2 6161   8.330   7.900   0.110
 2074TIP3   OH2 6162   4.845   5.799   6.064
 2074TIP3    H1 6163   4.825   5.873   6.007
 2074TIP3    H2 6164   4.859   5.837   6.150
 2075TIP3   OH2 6165   5.623   6.296   1.716
 2075TIP3    H1 6166   5.656   6.317   1.629
 2075TIP3    H2 6167   5.682   6.341   1.776
 2076TIP3   OH2 6168   3.097   4.803   4.825
 2076TIP3    H1 6169   3.015   4.754   4.815
 2076TIP3    H2 6170   3.154   4.771   4.756
 2077TIP3   OH2 6171   5.449   1.536   1.548
 2077TIP3    H1 6172   5.379   1.481   1.511
 2077TIP3    H2 6173   5.403   1.605   1.595
 2078TIP3   OH2 6174   6.143   4.397   2.731
 2078TIP3    H1 6175   6.185   4.323   2.687
 2078TIP3    H2 6176   6.123   4.365   2.819
 2079TIP3   OH2 6177   0.476   7.036   4.308
 2079TIP3    H1 6178   0.487   6.995   4.222
 2079TIP3    H2 6179   0.430   6.970   4.360
 2080TIP3   OH2 6180   1.812   7.385   5.075
 2080TIP3    H1 6181   1.776   7.473   5.086
 2080TIP3    H2 6182   1.900   7.399   5.040
 2081TIP3   OH2 6183   5.836   7.379   5.675
 2081TIP3    H1 6184   5.815   7.288   5.655
 2081TIP3    H2 6185   5.752   7.420   5.694
 2082TIP3   OH2 6186   1.032   5.206   2.966
 2082TIP3    H1 6187   1.080   5.280   2.927
 2082TIP3    H2 6188   1.036   5.137   2.899
 2083TIP3   OH2 6189   3.489   4.384   0.128
 2083TIP3    H1 6190   3.433   4.461   0.125
 2083TIP3    H2 6191   3.575   4.416   0.154
 2084TIP3   OH2 6192   8.034   5.286   2.823
 2084TIP3    H1 6193   7.955   5.254   2.779
 2084TIP3    H2 6194   8.068   5.354   2.766
 2085TIP3   OH2 6195   2.342   6.793   3.260
 2085TIP3    H1 6196   2.364   6.806   3.352
 2085TIP3    H2 6197   2.306   6.877   3.231
 2086TIP3   OH2 6198   7.869   1.798   6.342
 2086TIP3    H1 6199   7.787   1.806   6.294
 2086TIP3    H2 6200   7.933   1.846   6.289
 2087TIP3   OH2 6201   8.248   2.907   2.606
 2087TIP3    H1 6202   8.242   2.892   2.700
 2087TIP3    H2 6203   8.173   2.859   2.569
 2088TIP3   OH2 6204   3.511   4.150   1.277
 2088TIP3    H1 6205   3.573   4.204   1.325
 2088TIP3    H2 6206   3.537   4.060   1.296
 2089TIP3   OH2 6207   2.992   4.733   2.826
 2089TIP3    H1 6208   3.027   4.705   2.910
 2089TIP3    H2 6209   3.023   4.823   2.816
 2090TIP3   OH2 6210   7.048   6.179   3.894
 2090TIP3    H1 6211   6.971   6.234   3.906
 2090TIP3    H2 6212   7.070   6.188   3.802
 2091TIP3   OH2 6213   4.486   4.600   6.671
 2091TIP3    H1 6214   4.524   4.588   6.584
 2091TIP3    H2 6215   4.420   4.531   6.679
 2092TIP3   OH2 6216   3.973   2.734   5.614
 2092TIP3    H1 6217   3.928   2.652   5.637
 2092TIP3    H2 6218   4.066   2.712   5.619
 2093TIP3   OH2 6219   2.968   2.974   0.381
 2093TIP3    H1 6220   3.038   2.924   0.423
 2093TIP3    H2 6221   3.011   3.056   0.354
 2094TIP3   OH2 6222   5.538   0.061   3.402
 2094TIP3    H1 6223   5.586   0.057   3.320
 2094TIP3    H2 6224   5.562  -0.019   3.448
 2095TIP3   OH2 6225   0.254   3.144   3.648
 2095TIP3    H1 6226   0.256   3.073   3.712
 2095TIP3    H2 6227   0.259   3.224   3.700
 2096TIP3   OH2 6228   7.387   4.058   2.330
 2096TIP3    H1 6229   7.415   4.143   2.363
 2096TIP3    H2 6230   7.397   4.065   2.235
 2097TIP3   OH2 6231   7.838   2.825   5.444
 2097TIP3    H1 6232   7.822   2.731   5.455
 2097TIP3    H2 6233   7.812   2.863   5.528
 2098TIP3   OH2 6234   5.726   0.464   0.495
 2098TIP3    H1 6235   5.656   0.413   0.455
 2098TIP3    H2 6236   5.806   0.438   0.448
 2099TIP3   OH2 6237   6.463   3.709   3.099
 2099TIP3    H1 6238   6.406   3.714   3.022
 2099TIP3    H2 6239   6.434   3.781   3.155
 2100TIP3   OH2 6240   4.760   1.060   6.378
 2100TIP3    H1 6241   4.747   1.154   6.367
 2100TIP3    H2 6242   4.682   1.021   6.339
 2101TIP3   OH2 6243   8.340   5.869   3.949
 2101TIP3    H1 6244   8.325   5.962   3.931
 2101TIP3    H2 6245   8.410   5.845   3.889
 2102TIP3   OH2 6246   3.393   5.194   0.888
 2102TIP3    H1 6247   3.328   5.125   0.899
 2102TIP3    H2 6248   3.456   5.178   0.958
 2103TIP3   OH2 6249   2.428   6.721   2.119
 2103TIP3    H1 6250   2.461   6.759   2.037
 2103TIP3    H2 6251   2.505   6.716   2.175
 2104TIP3   OH2 6252   1.578   4.405   3.689
 2104TIP3    H1 6253   1.575   4.322   3.642
 2104TIP3    H2 6254   1.496   4.407   3.738
 2105TIP3   OH2 6255   7.328   2.100   1.807
 2105TIP3    H1 6256   7.419   2.125   1.820
 2105TIP3    H2 6257   7.288   2.174   1.761
 2106TIP3   OH2 6258   7.985   0.094   6.602
 2106TIP3    H1 6259   7.892   0.100   6.625
 2106TIP3    H2 6260   8.027   0.064   6.683
 2107TIP3   OH2 6261   6.810   6.776   5.296
 2107TIP3    H1 6262   6.793   6.860   5.337
 2107TIP3    H2 6263   6.723   6.735   5.289
 2108TIP3   OH2 6264   4.678   3.678   5.362
 2108TIP3    H1 6265   4.689   3.610   5.428
 2108TIP3    H2 6266   4.693   3.633   5.278
 2109TIP3   OH2 6267   1.642   7.559   6.787
 2109TIP3    H1 6268   1.642   7.653   6.800
 2109TIP3    H2 6269   1.725   7.541   6.743
 2110TIP3   OH2 6270   4.266   4.151   6.348
 2110TIP3    H1 6271   4.213   4.181   6.422
 2110TIP3    H2 6272   4.290   4.061   6.370
 2111TIP3   OH2 6273   5.027   6.312   4.912
 2111TIP3    H1 6274   5.061   6.395   4.878
 2111TIP3    H2 6275   5.062   6.246   4.853
 2112TIP3   OH2 6276   5.315   5.742   2.187
 2112TIP3    H1 6277   5.273   5.736   2.101
 2112TIP3    H2 6278   5.339   5.652   2.209
 2113TIP3   OH2 6279   5.393   2.904   6.503
 2113TIP3    H1 6280   5.464   2.921   6.441
 2113TIP3    H2 6281   5.349   2.988   6.512
 2114TIP3   OH2 6282   2.022   5.708   3.141
 2114TIP3    H1 6283   2.117   5.701   3.155
 2114TIP3    H2 6284   2.012   5.783   3.082
 2115TIP3   OH2 6285   0.356   1.479   3.109
 2115TIP3    H1 6286   0.360   1.397   3.059
 2115TIP3    H2 6287   0.263   1.492   3.126
 2116TIP3   OH2 6288   6.753   7.843   4.993
 2116TIP3    H1 6289   6.747   7.814   4.902
 2116TIP3    H2 6290   6.827   7.903   4.994
 2117TIP3   OH2 6291   6.587   3.144   2.359
 2117TIP3    H1 6292   6.598   3.197   2.279
 2117TIP3    H2 6293   6.492   3.137   2.369
 2118TIP3   OH2 6294   1.730   2.268   2.990
 2118TIP3    H1 6295   1.776   2.327   2.931
 2118TIP3    H2 6296   1.799   2.214   3.028
 2119TIP3   OH2 6297   4.914   2.573   5.552
 2119TIP3    H1 6298   4.845   2.543   5.611
 2119TIP3    H2 6299   4.905   2.668   5.551
 2120TIP3   OH2 6300   4.330   7.227   5.935
 2120TIP3    H1 6301   4.291   7.249   6.020
 2120TIP3    H2 6302   4.406   7.173   5.957
 2121TIP3   OH2 6303   7.962   2.449   6.253
 2121TIP3    H1 6304   8.034   2.509   6.276
 2121TIP3    H2 6305   7.964   2.382   6.321
 2122TIP3   OH2 6306   6.197   4.040   2.632
 2122TIP3    H1 6307   6.199   4.042   2.728
 2122TIP3    H2 6308   6.140   3.966   2.611
 2123TIP3   OH2 6309   7.789   4.960   5.849
 2123TIP3    H1 6310   7.766   4.972   5.757
 2123TIP3    H2 6311   7.770   5.045   5.889
 2124TIP3   OH2 6312   1.701   7.249   4.224
 2124TIP3    H1 6313   1.775   7.244   4.285
 2124TIP3    H2 6314   1.733   7.206   4.144
 2125TIP3   OH2 6315   3.075   2.275   2.198
 2125TIP3    H1 6316   3.139   2.225   2.249
 2125TIP3    H2 6317   2.998   2.281   2.255
 2126TIP3   OH2 6318   4.752   3.340   0.323
 2126TIP3    H1 6319   4.675   3.369   0.371
 2126TIP3    H2 6320   4.759   3.246   0.342
 2127TIP3   OH2 6321   7.448   5.441   6.802
 2127TIP3    H1 6322   7.431   5.478   6.715
 2127TIP3    H2 6323   7.496   5.360   6.784
 2128TIP3   OH2 6324   3.926   1.270   2.903
 2128TIP3    H1 6325   3.862   1.282   2.833
 2128TIP3    H2 6326   3.885   1.205   2.961
 2129TIP3   OH2 6327   2.400   5.199   1.182
 2129TIP3    H1 6328   2.443   5.139   1.121
 2129TIP3    H2 6329   2.377   5.275   1.129
 2130TIP3   OH2 6330   3.987   2.850   1.045
 2130TIP3    H1 6331   4.028   2.765   1.055
 2130TIP3    H2 6332   3.998   2.872   0.952
 2131TIP3   OH2 6333   6.481   3.058   1.656
 2131TIP3    H1 6334   6.537   3.097   1.723
 2131TIP3    H2 6335   6.532   2.983   1.624
 2132TIP3   OH2 6336   0.871   1.101   5.973
 2132TIP3    H1 6337   0.783   1.134   5.956
 2132TIP3    H2 6338   0.857   1.017   6.016
 2133TIP3   OH2 6339   5.030   6.979   4.216
 2133TIP3    H1 6340   5.067   7.023   4.293
 2133TIP3    H2 6341   5.085   7.009   4.143
 2134TIP3   OH2 6342   1.674   2.429   4.387
 2134TIP3    H1 6343   1.620   2.434   4.466
 2134TIP3    H2 6344   1.754   2.385   4.416
 2135TIP3   OH2 6345   2.781   0.128   5.599
 2135TIP3    H1 6346   2.761   0.221   5.602
 2135TIP3    H2 6347   2.701   0.085   5.631
 2136TIP3   OH2 6348   5.293   4.295   6.328
 2136TIP3    H1 6349   5.273   4.382   6.363
 2136TIP3    H2 6350   5.208   4.254   6.314
 2137TIP3   OH2 6351   0.801   2.693   6.114
 2137TIP3    H1 6352   0.756   2.671   6.032
 2137TIP3    H2 6353   0.837   2.780   6.098
 2138TIP3   OH2 6354   4.558   5.096   0.453
 2138TIP3    H1 6355   4.570   5.056   0.539
 2138TIP3    H2 6356   4.643   5.134   0.433
 2139TIP3   OH2 6357   8.298   4.766   4.569
 2139TIP3    H1 6358   8.223   4.751   4.626
 2139TIP3    H2 6359   8.309   4.861   4.569
 2140TIP3   OH2 6360   2.622   2.870   4.319
 2140TIP3    H1 6361   2.695   2.907   4.369
 2140TIP3    H2 6362   2.625   2.917   4.235
 2141TIP3   OH2 6363   2.062   0.359   5.360
 2141TIP3    H1 6364   2.038   0.449   5.337
 2141TIP3    H2 6365   2.130   0.336   5.296
 2142TIP3   OH2 6366   8.202   5.083   5.179
 2142TIP3    H1 6367   8.115   5.055   5.208
 2142TIP3    H2 6368   8.259   5.069   5.255
 2143TIP3   OH2 6369   0.971   5.643   2.233
 2143TIP3    H1 6370   1.056   5.599   2.240
 2143TIP3    H2 6371   0.965   5.667   2.140
 2144TIP3   OH2 6372   2.411   0.284   6.779
 2144TIP3    H1 6373   2.458   0.202   6.791
 2144TIP3    H2 6374   2.375   0.279   6.691
 2145TIP3   OH2 6375   4.001   0.486   6.117
 2145TIP3    H1 6376   4.077   0.458   6.065
 2145TIP3    H2 6377   4.005   0.581   6.116
 2146TIP3   OH2 6378   6.063   0.494   3.545
 2146TIP3    H1 6379   6.139   0.456   3.590
 2146TIP3    H2 6380   6.012   0.419   3.515
 2147TIP3   OH2 6381   2.003   7.634   4.143
 2147TIP3    H1 6382   2.013   7.618   4.049
 2147TIP3    H2 6383   2.000   7.730   4.150
 2148TIP3   OH2 6384   5.501   3.042   3.693
 2148TIP3    H1 6385   5.550   3.120   3.669
 2148TIP3    H2 6386   5.466   3.061   3.780
 2149TIP3   OH2 6387   8.082   6.453   1.500
 2149TIP3    H1 6388   8.026   6.517   1.543
 2149TIP3    H2 6389   8.136   6.416   1.570
 2150TIP3   OH2 6390   3.614   5.423   5.254
 2150TIP3    H1 6391   3.660   5.423   5.339
 2150TIP3    H2 6392   3.524   5.399   5.276
 2151TIP3   OH2 6393   5.705   1.269   6.551
 2151TIP3    H1 6394   5.769   1.203   6.525
 2151TIP3    H2 6395   5.706   1.333   6.479
 2152TIP3   OH2 6396   7.740   7.765   2.324
 2152TIP3    H1 6397   7.731   7.752   2.229
 2152TIP3    H2 6398   7.662   7.815   2.348
 2153TIP3   OH2 6399   3.002   4.392   2.971
 2153TIP3    H1 6400   3.005   4.485   2.994
 2153TIP3    H2 6401   2.914   4.380   2.934
 2154TIP3   OH2 6402   5.618   1.779   0.445
 2154TIP3    H1 6403   5.527   1.799   0.466
 2154TIP3    H2 6404   5.640   1.837   0.372
 2155TIP3   OH2 6405   7.334   5.953   1.741
 2155TIP3    H1 6406   7.288   6.023   1.788
 2155TIP3    H2 6407   7.290   5.873   1.766
 2156TIP3   OH2 6408   2.611   6.867   4.752
 2156TIP3    H1 6409   2.670   6.941   4.763
 2156TIP3    H2 6410   2.533   6.891   4.801
 2157TIP3   OH2 6411   5.181   3.541   1.328
 2157TIP3    H1 6412   5.091   3.536   1.361
 2157TIP3    H2 6413   5.191   3.633   1.303
 2158TIP3   OH2 6414   0.557   0.655   0.876
 2158TIP3    H1 6415   0.608   0.723   0.831
 2158TIP3    H2 6416   0.606   0.637   0.956
 2159TIP3   OH2 6417   7.991   4.832   4.368
 2159TIP3    H1 6418   8.073   4.839   4.318
 2159TIP3    H2 6419   7.922   4.831   4.301
 2160TIP3   OH2 6420   7.713   0.685   0.846
 2160TIP3    H1 6421   7.650   0.692   0.918
 2160TIP3    H2 6422   7.664   0.710   0.768
 2161TIP3   OH2 6423   5.770   0.752   3.922
 2161TIP3    H1 6424   5.844   0.812   3.920
 2161TIP3    H2 6425   5.779   0.701   3.841
 2162TIP3   OH2 6426   8.260   2.929   1.575
 2162TIP3    H1 6427   8.250   3.021   1.552
 2162TIP3    H2 6428   8.354   2.912   1.569
 2163TIP3   OH2 6429   0.943   5.711   5.999
 2163TIP3    H1 6430   0.972   5.630   5.956
 2163TIP3    H2 6431   0.909   5.764   5.927
 2164TIP3   OH2 6432   7.664   5.456   4.118
 2164TIP3    H1 6433   7.747   5.429   4.157
 2164TIP3    H2 6434   7.634   5.380   4.068
 2165TIP3   OH2 6435   7.802   0.096   4.628
 2165TIP3    H1 6436   7.732   0.161   4.623
 2165TIP3    H2 6437   7.822   0.075   4.537
 2166TIP3   OH2 6438   3.413   4.973   6.652
 2166TIP3    H1 6439   3.351   5.009   6.717
 2166TIP3    H2 6440   3.423   4.882   6.678
 2167TIP3   OH2 6441   1.109   1.558   3.596
 2167TIP3    H1 6442   1.193   1.513   3.581
 2167TIP3    H2 6443   1.099   1.558   3.691
 2168TIP3   OH2 6444   5.995   1.857   4.871
 2168TIP3    H1 6445   5.975   1.931   4.813
 2168TIP3    H2 6446   5.973   1.889   4.959
 2169TIP3   OH2 6447   7.017   6.856   3.783
 2169TIP3    H1 6448   6.984   6.945   3.797
 2169TIP3    H2 6449   7.009   6.814   3.869
 2170TIP3   OH2 6450   2.419   6.101   6.059
 2170TIP3    H1 6451   2.491   6.163   6.072
 2170TIP3    H2 6452   2.460   6.015   6.068
 2171TIP3   OH2 6453   6.503   4.696   1.355
 2171TIP3    H1 6454   6.468   4.710   1.267
 2171TIP3    H2 6455   6.487   4.778   1.400
 2172TIP3   OH2 6456   4.550   4.218   1.936
 2172TIP3    H1 6457   4.603   4.138   1.945
 2172TIP3    H2 6458   4.483   4.209   2.005
 2173TIP3   OH2 6459   5.465   6.540   0.722
 2173TIP3    H1 6460   5.422   6.625   0.731
 2173TIP3    H2 6461   5.511   6.528   0.805
 2174TIP3   OH2 6462   5.007   1.703   4.607
 2174TIP3    H1 6463   5.006   1.775   4.671
 2174TIP3    H2 6464   5.094   1.664   4.617
 2175TIP3   OH2 6465   3.854   1.057   6.701
 2175TIP3    H1 6466   3.854   1.134   6.758
 2175TIP3    H2 6467   3.768   1.058   6.659
 2176TIP3   OH2 6468   2.997   5.734   1.273
 2176TIP3    H1 6469   2.973   5.659   1.327
 2176TIP3    H2 6470   3.067   5.700   1.216
 2177TIP3   OH2 6471   2.986   3.604   6.828
 2177TIP3    H1 6472   3.046   3.531   6.842
 2177TIP3    H2 6473   2.950   3.589   6.740
 2178TIP3   OH2 6474   5.235   0.948   6.169
 2178TIP3    H1 6475   5.262   1.037   6.145
 2178TIP3    H2 6476   5.187   0.959   6.251
 2179TIP3   OH2 6477   5.928   1.751   0.066
 2179TIP3    H1 6478   5.977   1.801   0.002
 2179TIP3    H2 6479   5.938   1.660   0.039
 2180TIP3   OH2 6480   8.086   3.984   1.906
 2180TIP3    H1 6481   8.059   3.899   1.872
 2180TIP3    H2 6482   8.029   4.047   1.861
 2181TIP3   OH2 6483   5.005   2.567   1.471
 2181TIP3    H1 6484   4.934   2.586   1.409
 2181TIP3    H2 6485   4.969   2.502   1.531
 2182TIP3   OH2 6486   4.885   7.826   1.442
 2182TIP3    H1 6487   4.844   7.757   1.493
 2182TIP3    H2 6488   4.829   7.835   1.365
 2183TIP3   OH2 6489   0.801   4.206   0.991
 2183TIP3    H1 6490   0.724   4.240   0.944
 2183TIP3    H2 6491   0.765   4.167   1.070
 2184TIP3   OH2 6492   0.389   3.137   3.162
 2184TIP3    H1 6493   0.436   3.153   3.244
 2184TIP3    H2 6494   0.451   3.161   3.094
 2185TIP3   OH2 6495   5.996   0.106   1.207
 2185TIP3    H1 6496   5.952   0.025   1.231
 2185TIP3    H2 6497   5.964   0.126   1.119
 2186TIP3   OH2 6498   3.772   2.049   0.877
 2186TIP3    H1 6499   3.699   1.988   0.884
 2186TIP3    H2 6500   3.782   2.085   0.965
 2187TIP3   OH2 6501   3.285   4.427   2.975
 2187TIP3    H1 6502   3.329   4.418   2.891
 2187TIP3    H2 6503   3.196   4.395   2.959
 2188TIP3   OH2 6504   5.803   3.434   0.474
 2188TIP3    H1 6505   5.760   3.424   0.389
 2188TIP3    H2 6506   5.881   3.379   0.468
 2189TIP3   OH2 6507   4.496   4.295   3.326
 2189TIP3    H1 6508   4.452   4.331   3.403
 2189TIP3    H2 6509   4.450   4.214   3.307
 2190TIP3   OH2 6510   7.933   3.951   2.151
 2190TIP3    H1 6511   8.004   3.966   2.089
 2190TIP3    H2 6512   7.907   3.860   2.138
 2191TIP3   OH2 6513   0.756   5.988   1.279
 2191TIP3    H1 6514   0.739   5.903   1.238
 2191TIP3    H2 6515   0.706   6.051   1.227
 2192TIP3   OH2 6516   4.010   0.203   1.412
 2192TIP3    H1 6517   4.072   0.258   1.460
 2192TIP3    H2 6518   3.989   0.253   1.333
 2193TIP3   OH2 6519   6.234   7.740   0.889
 2193TIP3    H1 6520   6.255   7.823   0.846
 2193TIP3    H2 6521   6.235   7.675   0.818
 2194TIP3   OH2 6522   8.049   1.341   5.350
 2194TIP3    H1 6523   8.046   1.322   5.444
 2194TIP3    H2 6524   8.142   1.335   5.328
 2195TIP3   OH2 6525   1.895   2.480   6.371
 2195TIP3    H1 6526   1.983   2.502   6.404
 2195TIP3    H2 6527   1.869   2.557   6.321
 2196TIP3   OH2 6528   4.596   4.319   4.702
 2196TIP3    H1 6529   4.642   4.248   4.746
 2196TIP3    H2 6530   4.651   4.396   4.717
 2197TIP3   OH2 6531   0.988   7.692   3.225
 2197TIP3    H1 6532   1.035   7.716   3.305
 2197TIP3    H2 6533   1.051   7.709   3.154
 2198TIP3   OH2 6534   4.323   2.198   3.061
 2198TIP3    H1 6535   4.331   2.161   2.973
 2198TIP3    H2 6536   4.257   2.143   3.104
 2199TIP3   OH2 6537   4.783   7.593   5.792
 2199TIP3    H1 6538   4.856   7.614   5.850
 2199TIP3    H2 6539   4.728   7.671   5.794
 2200TIP3   OH2 6540   3.051   6.416   5.774
 2200TIP3    H1 6541   2.991   6.350   5.738
 2200TIP3    H2 6542   3.027   6.497   5.730
 2201TIP3   OH2 6543   5.274   7.186   0.893
 2201TIP3    H1 6544   5.201   7.225   0.846
 2201TIP3    H2 6545   5.331   7.260   0.914
 2202TIP3   OH2 6546   7.642   5.248   1.262
 2202TIP3    H1 6547   7.567   5.192   1.283
 2202TIP3    H2 6548   7.682   5.208   1.185
 2203TIP3   OH2 6549   8.139   5.491   1.437
 2203TIP3    H1 6550   8.107   5.576   1.407
 2203TIP3    H2 6551   8.065   5.432   1.422
 2204TIP3   OH2 6552   1.694   6.742   6.647
 2204TIP3    H1 6553   1.766   6.737   6.584
 2204TIP3    H2 6554   1.637   6.668   6.624
 2205TIP3   OH2 6555   5.793   6.386   1.531
 2205TIP3    H1 6556   5.808   6.464   1.477
 2205TIP3    H2 6557   5.880   6.358   1.558
 2206TIP3   OH2 6558   1.187   0.027   0.926
 2206TIP3    H1 6559   1.135   0.036   1.006
 2206TIP3    H2 6560   1.181   0.112   0.884
 2207TIP3   OH2 6561   0.339   0.505   0.296
 2207TIP3    H1 6562   0.369   0.574   0.356
 2207TIP3    H2 6563   0.260   0.471   0.338
 2208TIP3   OH2 6564   1.336   4.989   3.561
 2208TIP3    H1 6565   1.330   4.953   3.650
 2208TIP3    H2 6566   1.430   4.999   3.546
 2209TIP3   OH2 6567   4.683   5.091   3.012
 2209TIP3    H1 6568   4.620   5.106   2.941
 2209TIP3    H2 6569   4.675   4.998   3.032
 2210TIP3   OH2 6570   7.400   0.709   6.349
 2210TIP3    H1 6571   7.347   0.713   6.270
 2210TIP3    H2 6572   7.485   0.677   6.319
 2211TIP3   OH2 6573   6.280   2.595   0.059
 2211TIP3    H1 6574   6.268   2.610   0.153
 2211TIP3    H2 6575   6.293   2.501   0.051
 2212TIP3   OH2 6576   4.713   3.560   5.122
 2212TIP3    H1 6577   4.803   3.526   5.127
 2212TIP3    H2 6578   4.693   3.561   5.029
 2213TIP3   OH2 6579   3.785   6.920   3.752
 2213TIP3    H1 6580   3.714   6.860   3.727
 2213TIP3    H2 6581   3.741   7.002   3.773
 2214TIP3   OH2 6582   1.857   6.742   4.193
 2214TIP3    H1 6583   1.894   6.696   4.268
 2214TIP3    H2 6584   1.800   6.678   4.151
 2215TIP3   OH2 6585   1.839   7.268   3.631
 2215TIP3    H1 6586   1.856   7.178   3.602
 2215TIP3    H2 6587   1.788   7.307   3.561
 2216TIP3   OH2 6588   3.962   3.674   0.372
 2216TIP3    H1 6589   3.974   3.583   0.345
 2216TIP3    H2 6590   3.876   3.675   0.415
 2217TIP3   OH2 6591   3.183   7.176   4.768
 2217TIP3    H1 6592   3.216   7.115   4.833
 2217TIP3    H2 6593   3.251   7.177   4.700
 2218TIP3   OH2 6594   4.786   5.553   5.319
 2218TIP3    H1 6595   4.699   5.516   5.305
 2218TIP3    H2 6596   4.774   5.647   5.304
 2219TIP3   OH2 6597   1.422   4.008   0.898
 2219TIP3    H1 6598   1.497   4.058   0.929
 2219TIP3    H2 6599   1.451   3.972   0.814
 2220TIP3   OH2 6600   0.540   6.583   1.918
 2220TIP3    H1 6601   0.474   6.526   1.880
 2220TIP3    H2 6602   0.541   6.660   1.862
 2221TIP3   OH2 6603   7.036   4.593   2.821
 2221TIP3    H1 6604   7.070   4.577   2.733
 2221TIP3    H2 6605   6.994   4.510   2.845
 2222TIP3   OH2 6606   1.140   5.082   5.696
 2222TIP3    H1 6607   1.203   5.120   5.758
 2222TIP3    H2 6608   1.056   5.085   5.741
 2223TIP3   OH2 6609   1.310   6.243   5.924
 2223TIP3    H1 6610   1.357   6.160   5.911
 2223TIP3    H2 6611   1.296   6.249   6.018
 2224TIP3   OH2 6612   0.918   6.803   0.124
 2224TIP3    H1 6613   0.991   6.864   0.133
 2224TIP3    H2 6614   0.959   6.717   0.129
 2225TIP3   OH2 6615   3.837   1.996   1.392
 2225TIP3    H1 6616   3.867   1.905   1.395
 2225TIP3    H2 6617   3.913   2.047   1.419
 2226TIP3   OH2 6618   1.474   4.094   2.455
 2226TIP3    H1 6619   1.395   4.138   2.488
 2226TIP3    H2 6620   1.441   4.015   2.413
 2227TIP3   OH2 6621   2.610   6.336   1.644
 2227TIP3    H1 6622   2.673   6.320   1.574
 2227TIP3    H2 6623   2.534   6.373   1.599
 2228TIP3   OH2 6624   6.164   0.337   1.412
 2228TIP3    H1 6625   6.215   0.417   1.425
 2228TIP3    H2 6626   6.082   0.367   1.374
 2229TIP3   OH2 6627   4.167   2.854   3.526
 2229TIP3    H1 6628   4.113   2.842   3.448
 2229TIP3    H2 6629   4.243   2.798   3.512
 2230TIP3   OH2 6630   6.262   2.056   0.004
 2230TIP3    H1 6631   6.198   2.015   0.062
 2230TIP3    H2 6632   6.346   2.021   0.033
 2231TIP3   OH2 6633   1.576   7.765   3.666
 2231TIP3    H1 6634   1.586   7.766   3.570
 2231TIP3    H2 6635   1.614   7.681   3.693
 2232TIP3   OH2 6636   7.948   1.607   1.135
 2232TIP3    H1 6637   7.958   1.698   1.108
 2232TIP3    H2 6638   7.853   1.593   1.139
 2233TIP3   OH2 6639   7.661   3.830   5.015
 2233TIP3    H1 6640   7.714   3.788   5.083
 2233TIP3    H2 6641   7.690   3.789   4.933
 2234TIP3   OH2 6642   7.656   3.283   1.461
 2234TIP3    H1 6643   7.629   3.191   1.459
 2234TIP3    H2 6644   7.583   3.330   1.422
 2235TIP3   OH2 6645   6.970   5.305   1.277
 2235TIP3    H1 6646   7.016   5.317   1.194
 2235TIP3    H2 6647   6.924   5.222   1.267
 2236TIP3   OH2 6648   1.808   6.852   0.265
 2236TIP3    H1 6649   1.899   6.826   0.271
 2236TIP3    H2 6650   1.762   6.793   0.325
 2237TIP3   OH2 6651   1.820   6.244   0.165
 2237TIP3    H1 6652   1.893   6.183   0.160
 2237TIP3    H2 6653   1.761   6.206   0.231
 2238TIP3   OH2 6654   8.267   3.169   3.632
 2238TIP3    H1 6655   8.220   3.137   3.555
 2238TIP3    H2 6656   8.204   3.158   3.704
 2239TIP3   OH2 6657   6.241   7.030   3.122
 2239TIP3    H1 6658   6.331   7.025   3.155
 2239TIP3    H2 6659   6.214   7.119   3.141
 2240TIP3   OH2 6660   3.201   4.755   5.076
 2240TIP3    H1 6661   3.208   4.754   4.980
 2240TIP3    H2 6662   3.112   4.786   5.092
 2241TIP3   OH2 6663   6.684   4.097   1.736
 2241TIP3    H1 6664   6.682   4.186   1.772
 2241TIP3    H2 6665   6.732   4.046   1.802
 2242TIP3   OH2 6666   6.852   4.170   2.185
 2242TIP3    H1 6667   6.767   4.139   2.153
 2242TIP3    H2 6668   6.916   4.113   2.142
 2243TIP3   OH2 6669   6.993   2.597   2.259
 2243TIP3    H1 6670   7.011   2.534   2.330
 2243TIP3    H2 6671   7.079   2.625   2.230
 2244TIP3   OH2 6672   6.526   7.863   4.031
 2244TIP3    H1 6673   6.458   7.894   4.091
 2244TIP3    H2 6674   6.566   7.943   3.996
 2245TIP3   OH2 6675   1.672   2.051   6.703
 2245TIP3    H1 6676   1.650   2.015   6.617
 2245TIP3    H2 6677   1.722   2.131   6.684
 2246TIP3   OH2 6678   2.500   1.869   3.768
 2246TIP3    H1 6679   2.547   1.883   3.850
 2246TIP3    H2 6680   2.454   1.952   3.752
 2247TIP3   OH2 6681   6.417   4.578   3.614
 2247TIP3    H1 6682   6.384   4.668   3.614
 2247TIP3    H2 6683   6.400   4.546   3.525
 2248TIP3   OH2 6684   4.787   7.614   4.420
 2248TIP3    H1 6685   4.729   7.682   4.385
 2248TIP3    H2 6686   4.869   7.625   4.372
 2249TIP3   OH2 6687   6.736   0.913   2.461
 2249TIP3    H1 6688   6.808   0.857   2.430
 2249TIP3    H2 6689   6.726   0.979   2.393
 2250TIP3   OH2 6690   0.520   5.954   5.937
 2250TIP3    H1 6691   0.435   5.989   5.963
 2250TIP3    H2 6692   0.582   6.025   5.955
 2251TIP3   OH2 6693   1.897   0.682   3.117
 2251TIP3    H1 6694   1.900   0.714   3.026
 2251TIP3    H2 6695   1.986   0.652   3.135
 2252TIP3   OH2 6696   7.935   2.519   0.891
 2252TIP3    H1 6697   7.869   2.493   0.955
 2252TIP3    H2 6698   7.928   2.453   0.822
 2253TIP3   OH2 6699   0.514   0.333   4.024
 2253TIP3    H1 6700   0.462   0.288   3.958
 2253TIP3    H2 6701   0.578   0.384   3.974
 2254TIP3   OH2 6702   1.710   6.247   6.481
 2254TIP3    H1 6703   1.710   6.183   6.552
 2254TIP3    H2 6704   1.803   6.264   6.464
 2255TIP3   OH2 6705   3.062   5.010   5.467
 2255TIP3    H1 6706   3.135   4.988   5.525
 2255TIP3    H2 6707   3.039   5.100   5.492
 2256TIP3   OH2 6708   0.817   2.904   1.961
 2256TIP3    H1 6709   0.854   2.970   2.019
 2256TIP3    H2 6710   0.822   2.944   1.874
 2257TIP3   OH2 6711   3.156   7.568   4.282
 2257TIP3    H1 6712   3.115   7.602   4.362
 2257TIP3    H2 6713   3.147   7.640   4.219
 2258TIP3   OH2 6714   0.915   1.007   4.845
 2258TIP3    H1 6715   0.937   0.918   4.817
 2258TIP3    H2 6716   0.971   1.023   4.921
 2259TIP3   OH2 6717   6.859   5.319   6.599
 2259TIP3    H1 6718   6.850   5.254   6.529
 2259TIP3    H2 6719   6.806   5.393   6.569
 2260TIP3   OH2 6720   3.154   1.858   6.389
 2260TIP3    H1 6721   3.230   1.867   6.446
 2260TIP3    H2 6722   3.187   1.812   6.312
 2261TIP3   OH2 6723   8.261   2.637   1.976
 2261TIP3    H1 6724   8.292   2.655   2.065
 2261TIP3    H2 6725   8.307   2.699   1.921
 2262TIP3   OH2 6726   3.079   7.269   6.638
 2262TIP3    H1 6727   2.985   7.287   6.644
 2262TIP3    H2 6728   3.084   7.186   6.590
 2263TIP3   OH2 6729   0.238   7.512   3.961
 2263TIP3    H1 6730   0.258   7.466   4.042
 2263TIP3    H2 6731   0.316   7.502   3.907
 2264TIP3   OH2 6732   0.121   4.340   2.177
 2264TIP3    H1 6733   0.087   4.283   2.245
 2264TIP3    H2 6734   0.061   4.328   2.103
 2265TIP3   OH2 6735   5.472   0.456   5.016
 2265TIP3    H1 6736   5.388   0.413   5.003
 2265TIP3    H2 6737   5.486   0.508   4.937
 2266TIP3   OH2 6738   0.765   3.541   4.751
 2266TIP3    H1 6739   0.784   3.604   4.681
 2266TIP3    H2 6740   0.675   3.513   4.733
 2267TIP3   OH2 6741   5.779   0.521   2.960
 2267TIP3    H1 6742   5.874   0.533   2.956
 2267TIP3    H2 6743   5.749   0.590   3.019
 2268TIP3   OH2 6744   1.828   3.206   6.284
 2268TIP3    H1 6745   1.892   3.261   6.328
 2268TIP3    H2 6746   1.880   3.140   6.238
 2269TIP3   OH2 6747   2.570   3.827   2.576
 2269TIP3    H1 6748   2.615   3.910   2.564
 2269TIP3    H2 6749   2.640   3.763   2.587
 2270TIP3   OH2 6750   0.649   6.041   2.834
 2270TIP3    H1 6751   0.569   6.094   2.843
 2270TIP3    H2 6752   0.638   5.995   2.751
 2271TIP3   OH2 6753   0.100   7.696   1.029
 2271TIP3    H1 6754   0.120   7.603   1.045
 2271TIP3    H2 6755   0.027   7.715   1.088
 2272TIP3   OH2 6756   0.279   4.823   1.634
 2272TIP3    H1 6757   0.266   4.818   1.729
 2272TIP3    H2 6758   0.358   4.876   1.623
 2273TIP3   OH2 6759   2.699   7.260   5.867
 2273TIP3    H1 6760   2.636   7.315   5.913
 2273TIP3    H2 6761   2.661   7.172   5.870
 2274TIP3   OH2 6762   0.006   2.402   1.771
 2274TIP3    H1 6763   0.053   2.468   1.822
 2274TIP3    H2 6764  -0.004   2.442   1.684
 2275TIP3   OH2 6765   5.570   3.313   1.492
 2275TIP3    H1 6766   5.608   3.275   1.413
 2275TIP3    H2 6767   5.570   3.241   1.555
 2276TIP3   OH2 6768   3.399   6.767   4.833
 2276TIP3    H1 6769   3.456   6.841   4.814
 2276TIP3    H2 6770   3.335   6.767   4.762
 2277TIP3   OH2 6771   2.031   4.015   0.445
 2277TIP3    H1 6772   2.049   3.921   0.450
 2277TIP3    H2 6773   2.012   4.031   0.353
 2278TIP3   OH2 6774   5.310   4.073   5.202
 2278TIP3    H1 6775   5.379   4.037   5.147
 2278TIP3    H2 6776   5.310   4.017   5.280
 2279TIP3   OH2 6777   2.745   7.404   4.286
 2279TIP3    H1 6778   2.804   7.417   4.360
 2279TIP3    H2 6779   2.659   7.390   4.326
 2280TIP3   OH2 6780   5.935   2.532   3.272
 2280TIP3    H1 6781   5.961   2.583   3.349
 2280TIP3    H2 6782   5.890   2.455   3.308
 2281TIP3   OH2 6783   1.838   0.903   1.143
 2281TIP3    H1 6784   1.794   0.987   1.147
 2281TIP3    H2 6785   1.931   0.924   1.135
 2282TIP3   OH2 6786   8.020   0.419   1.040
 2282TIP3    H1 6787   8.114   0.408   1.052
 2282TIP3    H2 6788   8.011   0.503   0.994
 2283TIP3   OH2 6789   3.206   3.152   0.614
 2283TIP3    H1 6790   3.259   3.117   0.685
 2283TIP3    H2 6791   3.240   3.110   0.535
 2284TIP3   OH2 6792   7.050   2.572   2.725
 2284TIP3    H1 6793   7.028   2.496   2.779
 2284TIP3    H2 6794   6.990   2.641   2.754
 2285TIP3   OH2 6795   2.807   0.161   4.363
 2285TIP3    H1 6796   2.811   0.252   4.333
 2285TIP3    H2 6797   2.842   0.163   4.452
 2286TIP3   OH2 6798   1.196   1.776   6.677
 2286TIP3    H1 6799   1.287   1.764   6.704
 2286TIP3    H2 6800   1.188   1.869   6.657
 2287TIP3   OH2 6801   3.897   1.846   3.298
 2287TIP3    H1 6802   3.918   1.753   3.303
 2287TIP3    H2 6803   3.818   1.856   3.352
 2288TIP3   OH2 6804   2.299   6.999   2.829
 2288TIP3    H1 6805   2.270   7.085   2.797
 2288TIP3    H2 6806   2.293   6.942   2.752
 2289TIP3   OH2 6807   4.125   7.809   6.673
 2289TIP3    H1 6808   4.072   7.750   6.727
 2289TIP3    H2 6809   4.062   7.869   6.635
 2290TIP3   OH2 6810   5.414   1.768   5.566
 2290TIP3    H1 6811   5.410   1.683   5.523
 2290TIP3    H2 6812   5.336   1.814   5.537
 2291TIP3   OH2 6813   6.053   1.539   2.402
 2291TIP3    H1 6814   6.066   1.541   2.497
 2291TIP3    H2 6815   5.968   1.581   2.389
 2292TIP3   OH2 6816   7.516   1.034   6.765
 2292TIP3    H1 6817   7.488   0.943   6.764
 2292TIP3    H2 6818   7.602   1.033   6.722
 2293TIP3   OH2 6819   0.076   4.258   6.173
 2293TIP3    H1 6820   0.033   4.340   6.195
 2293TIP3    H2 6821   0.073   4.254   6.077
 2294TIP3   OH2 6822   7.639   3.970   5.409
 2294TIP3    H1 6823   7.723   4.009   5.388
 2294TIP3    H2 6824   7.627   3.988   5.503
 2295TIP3   OH2 6825   2.295   6.574   3.781
 2295TIP3    H1 6826   2.279   6.613   3.867
 2295TIP3    H2 6827   2.377   6.613   3.752
 2296TIP3   OH2 6828   1.163   2.718   2.048
 2296TIP3    H1 6829   1.154   2.812   2.032
 2296TIP3    H2 6830   1.257   2.704   2.060
 2297TIP3   OH2 6831   6.825   4.470   0.290
 2297TIP3    H1 6832   6.878   4.493   0.213
 2297TIP3    H2 6833   6.880   4.492   0.365
 2298TIP3   OH2 6834   5.128   2.602   0.106
 2298TIP3    H1 6835   5.055   2.663   0.093
 2298TIP3    H2 6836   5.197   2.636   0.050
 2299TIP3   OH2 6837   5.312   1.547   3.558
 2299TIP3    H1 6838   5.341   1.502   3.479
 2299TIP3    H2 6839   5.391   1.588   3.593
 2300TIP3   OH2 6840   0.386   2.823   6.795
 2300TIP3    H1 6841   0.364   2.902   6.846
 2300TIP3    H2 6842   0.312   2.765   6.808
 2301TIP3   OH2 6843   6.312   7.438   6.583
 2301TIP3    H1 6844   6.300   7.524   6.542
 2301TIP3    H2 6845   6.229   7.393   6.567
 2302TIP3   OH2 6846   4.863   0.456   6.435
 2302TIP3    H1 6847   4.930   0.505   6.482
 2302TIP3    H2 6848   4.809   0.523   6.393
 2303TIP3   OH2 6849   3.475   0.246   1.782
 2303TIP3    H1 6850   3.438   0.303   1.715
 2303TIP3    H2 6851   3.519   0.305   1.843
 2304TIP3   OH2 6852   5.820   5.520   4.462
 2304TIP3    H1 6853   5.896   5.536   4.517
 2304TIP3    H2 6854   5.760   5.469   4.517
 2305TIP3   OH2 6855   3.295   5.546   1.448
 2305TIP3    H1 6856   3.310   5.581   1.360
 2305TIP3    H2 6857   3.248   5.464   1.433
 2306TIP3   OH2 6858   5.316   4.008   4.587
 2306TIP3    H1 6859   5.320   3.912   4.583
 2306TIP3    H2 6860   5.223   4.028   4.581
 2307TIP3   OH2 6861   6.963   7.625   2.818
 2307TIP3    H1 6862   6.971   7.554   2.755
 2307TIP3    H2 6863   6.925   7.698   2.768
 2308TIP3   OH2 6864   6.414   7.633   0.014
 2308TIP3    H1 6865   6.426   7.608   0.105
 2308TIP3    H2 6866   6.347   7.572  -0.019
 2309TIP3   OH2 6867   7.113   7.134   0.711
 2309TIP3    H1 6868   7.138   7.184   0.789
 2309TIP3    H2 6869   7.187   7.074   0.697
 2310TIP3   OH2 6870   3.994   2.792   3.009
 2310TIP3    H1 6871   4.053   2.862   2.983
 2310TIP3    H2 6872   3.970   2.748   2.927
 2311TIP3   OH2 6873   5.359   3.863   3.367
 2311TIP3    H1 6874   5.353   3.885   3.274
 2311TIP3    H2 6875   5.352   3.768   3.370
 2312TIP3   OH2 6876   6.393   6.773   5.722
 2312TIP3    H1 6877   6.481   6.811   5.730
 2312TIP3    H2 6878   6.342   6.816   5.790
 2313TIP3   OH2 6879   0.985   2.023   4.834
 2313TIP3    H1 6880   1.000   2.028   4.740
 2313TIP3    H2 6881   0.962   2.112   4.860
 2314TIP3   OH2 6882   7.238   4.210   3.410
 2314TIP3    H1 6883   7.317   4.156   3.409
 2314TIP3    H2 6884   7.178   4.168   3.349
 2315TIP3   OH2 6885   2.946   5.509   2.794
 2315TIP3    H1 6886   2.895   5.437   2.758
 2315TIP3    H2 6887   3.007   5.532   2.723
 2316TIP3   OH2 6888   1.691   7.367   3.145
 2316TIP3    H1 6889   1.635   7.444   3.144
 2316TIP3    H2 6890   1.636   7.297   3.179
 2317TIP3   OH2 6891   1.188   4.543   4.878
 2317TIP3    H1 6892   1.155   4.603   4.945
 2317TIP3    H2 6893   1.278   4.524   4.905
 2318TIP3   OH2 6894   5.970   4.780   0.449
 2318TIP3    H1 6895   5.962   4.834   0.371
 2318TIP3    H2 6896   5.902   4.713   0.440
 2319TIP3   OH2 6897   1.057   6.046   0.995
 2319TIP3    H1 6898   0.984   6.107   1.002
 2319TIP3    H2 6899   1.049   6.009   0.907
 2320TIP3   OH2 6900   1.096   6.041   3.806
 2320TIP3    H1 6901   1.102   6.130   3.772
 2320TIP3    H2 6902   1.101   5.985   3.729
 2321TIP3   OH2 6903   0.952  -0.013   1.061
 2321TIP3    H1 6904   0.858  -0.024   1.072
 2321TIP3    H2 6905   0.982   0.024   1.144
 2322TIP3   OH2 6906   4.174   3.128   2.428
 2322TIP3    H1 6907   4.255   3.085   2.456
 2322TIP3    H2 6908   4.130   3.153   2.509
 2323TIP3   OH2 6909   6.080   7.297   0.870
 2323TIP3    H1 6910   6.035   7.261   0.793
 2323TIP3    H2 6911   6.082   7.225   0.932
 2324TIP3   OH2 6912   5.504   0.784   3.946
 2324TIP3    H1 6913   5.589   0.743   3.931
 2324TIP3    H2 6914   5.524   0.872   3.977
 2325TIP3   OH2 6915   6.518   2.853   4.794
 2325TIP3    H1 6916   6.494   2.940   4.762
 2325TIP3    H2 6917   6.580   2.820   4.730
 2326TIP3   OH2 6918   7.660   4.738   4.807
 2326TIP3    H1 6919   7.695   4.652   4.782
 2326TIP3    H2 6920   7.565   4.726   4.804
 2327TIP3   OH2 6921   0.529   3.053   5.004
 2327TIP3    H1 6922   0.554   3.115   4.936
 2327TIP3    H2 6923   0.454   3.095   5.048
 2328TIP3   OH2 6924   3.649   0.567   0.741
 2328TIP3    H1 6925   3.624   0.659   0.742
 2328TIP3    H2 6926   3.568   0.521   0.717
 2329TIP3   OH2 6927   4.937   5.524   5.074
 2329TIP3    H1 6928   4.906   5.470   5.001
 2329TIP3    H2 6929   4.871   5.512   5.143
 2330TIP3   OH2 6930   7.941   1.429   3.191
 2330TIP3    H1 6931   7.953   1.432   3.286
 2330TIP3    H2 6932   7.847   1.417   3.179
 2331TIP3   OH2 6933   2.654   4.914   2.201
 2331TIP3    H1 6934   2.560   4.932   2.196
 2331TIP3    H2 6935   2.689   4.983   2.257
 2332TIP3   OH2 6936   6.626   6.176   3.385
 2332TIP3    H1 6937   6.575   6.254   3.363
 2332TIP3    H2 6938   6.706   6.183   3.332
 2333TIP3   OH2 6939   1.717   0.814   5.815
 2333TIP3    H1 6940   1.772   0.890   5.797
 2333TIP3    H2 6941   1.731   0.755   5.740
 2334TIP3   OH2 6942   6.588   0.607   3.850
 2334TIP3    H1 6943   6.497   0.634   3.860
 2334TIP3    H2 6944   6.584   0.531   3.792
 2335TIP3   OH2 6945   6.080   2.063   5.958
 2335TIP3    H1 6946   6.016   1.997   5.987
 2335TIP3    H2 6947   6.033   2.146   5.966
 2336TIP3   OH2 6948   0.074   2.459   3.545
 2336TIP3    H1 6949   0.058   2.502   3.461
 2336TIP3    H2 6950  -0.002   2.402   3.558
 2337TIP3   OH2 6951   7.114   6.967   4.429
 2337TIP3    H1 6952   7.146   6.986   4.517
 2337TIP3    H2 6953   7.096   6.873   4.430
 2338TIP3   OH2 6954   7.786   1.232   4.478
 2338TIP3    H1 6955   7.771   1.326   4.476
 2338TIP3    H2 6956   7.698   1.194   4.467
 2339TIP3   OH2 6957   4.035   1.526   2.994
 2339TIP3    H1 6958   4.098   1.492   3.057
 2339TIP3    H2 6959   3.993   1.447   2.957
 2340TIP3   OH2 6960   0.310   4.211   0.915
 2340TIP3    H1 6961   0.219   4.239   0.921
 2340TIP3    H2 6962   0.354   4.256   0.988
 2341TIP3   OH2 6963   7.009   7.341   0.518
 2341TIP3    H1 6964   7.072   7.286   0.471
 2341TIP3    H2 6965   7.017   7.314   0.609
 2342TIP3   OH2 6966   0.551   6.308   0.672
 2342TIP3    H1 6967   0.554   6.383   0.613
 2342TIP3    H2 6968   0.639   6.303   0.710
 2343TIP3   OH2 6969   5.533   6.294   0.173
 2343TIP3    H1 6970   5.488   6.320   0.254
 2343TIP3    H2 6971   5.592   6.224   0.200
 2344TIP3   OH2 6972   1.184   7.019   5.279
 2344TIP3    H1 6973   1.198   6.935   5.323
 2344TIP3    H2 6974   1.218   7.084   5.340
 2345TIP3   OH2 6975   4.097   6.156   0.311
 2345TIP3    H1 6976   4.122   6.195   0.227
 2345TIP3    H2 6977   4.068   6.068   0.289
 2346TIP3   OH2 6978   3.741   2.278   6.430
 2346TIP3    H1 6979   3.774   2.306   6.344
 2346TIP3    H2 6980   3.787   2.196   6.448
 2347TIP3   OH2 6981   7.782   2.182   5.435
 2347TIP3    H1 6982   7.761   2.126   5.510
 2347TIP3    H2 6983   7.835   2.126   5.378
 2348TIP3   OH2 6984   2.395   7.636   4.078
 2348TIP3    H1 6985   2.408   7.575   4.006
 2348TIP3    H2 6986   2.345   7.587   4.143
 2349TIP3   OH2 6987   5.958   7.531   0.680
 2349TIP3    H1 6988   5.972   7.535   0.775
 2349TIP3    H2 6989   6.041   7.561   0.643
 2350TIP3   OH2 6990   3.901   5.501   1.648
 2350TIP3    H1 6991   3.902   5.577   1.706
 2350TIP3    H2 6992   3.987   5.501   1.606
 2351TIP3   OH2 6993   0.659   5.365   1.707
 2351TIP3    H1 6994   0.705   5.285   1.680
 2351TIP3    H2 6995   0.573   5.334   1.735
 2352TIP3   OH2 6996   2.690   1.600   6.429
 2352TIP3    H1 6997   2.770   1.652   6.437
 2352TIP3    H2 6998   2.666   1.579   6.519
 2353TIP3   OH2 6999   2.419   4.914   2.594
 2353TIP3    H1 7000   2.468   4.833   2.609
 2353TIP3    H2 7001   2.356   4.918   2.665
 2354TIP3   OH2 7002   4.741   1.330   3.202
 2354TIP3    H1 7003   4.734   1.257   3.263
 2354TIP3    H2 7004   4.797   1.297   3.132
 2355TIP3   OH2 7005   4.770   0.247   6.178
 2355TIP3    H1 7006   4.818   0.262   6.260
 2355TIP3    H2 7007   4.839   0.242   6.111
 2356TIP3   OH2 7008   2.018   3.668   2.269
 2356TIP3    H1 7009   2.104   3.636   2.297
 2356TIP3    H2 7010   1.970   3.681   2.350
 2357TIP3   OH2 7011   0.915   0.477   3.737
 2357TIP3    H1 7012   0.935   0.429   3.657
 2357TIP3    H2 7013   0.941   0.567   3.719
 2358TIP3   OH2 7014   3.668   6.293   5.337
 2358TIP3    H1 7015   3.665   6.336   5.422
 2358TIP3    H2 7016   3.578   6.269   5.319
 2359TIP3   OH2 7017   5.307   3.090   6.827
 2359TIP3    H1 7018   5.321   3.182   6.853
 2359TIP3    H2 7019   5.240   3.095   6.759
 2360TIP3   OH2 7020   1.261   0.683   4.134
 2360TIP3    H1 7021   1.265   0.764   4.082
 2360TIP3    H2 7022   1.332   0.629   4.099
 2361TIP3   OH2 7023   2.829   1.654   4.621
 2361TIP3    H1 7024   2.832   1.609   4.706
 2361TIP3    H2 7025   2.775   1.598   4.566
 2362TIP3   OH2 7026   7.883   6.024   3.972
 2362TIP3    H1 7027   7.925   6.109   3.989
 2362TIP3    H2 7028   7.815   6.043   3.908
 2363TIP3   OH2 7029   7.836   3.100   4.468
 2363TIP3    H1 7030   7.882   3.039   4.410
 2363TIP3    H2 7031   7.762   3.131   4.416
 2364TIP3   OH2 7032   0.367   1.869   5.022
 2364TIP3    H1 7033   0.310   1.914   4.960
 2364TIP3    H2 7034   0.351   1.776   5.005
 2365TIP3   OH2 7035   0.726   6.416   5.979
 2365TIP3    H1 7036   0.776   6.367   5.914
 2365TIP3    H2 7037   0.700   6.351   6.045
 2366TIP3   OH2 7038   0.240   3.016   4.576
 2366TIP3    H1 7039   0.208   3.036   4.665
 2366TIP3    H2 7040   0.239   3.101   4.531
 2367TIP3   OH2 7041   1.977   0.018   6.434
 2367TIP3    H1 7042   2.028   0.026   6.353
 2367TIP3    H2 7043   1.913  -0.051   6.416
 2368TIP3   OH2 7044   3.545   3.744   6.257
 2368TIP3    H1 7045   3.580   3.669   6.305
 2368TIP3    H2 7046   3.594   3.745   6.175
 2369TIP3   OH2 7047   6.558   3.890   6.620
 2369TIP3    H1 7048   6.490   3.916   6.557
 2369TIP3    H2 7049   6.509   3.863   6.698
 2370TIP3   OH2 7050   3.754   5.175   1.852
 2370TIP3    H1 7051   3.838   5.171   1.808
 2370TIP3    H2 7052   3.700   5.231   1.796
 2371TIP3   OH2 7053   4.232   7.243   6.240
 2371TIP3    H1 7054   4.151   7.193   6.252
 2371TIP3    H2 7055   4.301   7.184   6.273
 2372TIP3   OH2 7056   4.900   3.330   2.825
 2372TIP3    H1 7057   4.943   3.304   2.906
 2372TIP3    H2 7058   4.933   3.270   2.759
 2373TIP3   OH2 7059   2.162   6.761   0.865
 2373TIP3    H1 7060   2.184   6.703   0.938
 2373TIP3    H2 7061   2.099   6.711   0.814
 2374TIP3   OH2 7062   3.751   0.733   5.571
 2374TIP3    H1 7063   3.685   0.797   5.599
 2374TIP3    H2 7064   3.834   0.768   5.604
 2375TIP3   OH2 7065   4.012   2.328   5.874
 2375TIP3    H1 7066   4.101   2.295   5.861
 2375TIP3    H2 7067   4.024   2.416   5.909
 2376TIP3   OH2 7068   0.706   5.792   3.472
 2376TIP3    H1 7069   0.733   5.830   3.389
 2376TIP3    H2 7070   0.758   5.712   3.480
 2377TIP3   OH2 7071   3.388   3.647   2.451
 2377TIP3    H1 7072   3.423   3.557   2.450
 2377TIP3    H2 7073   3.297   3.637   2.424
 2378TIP3   OH2 7074   4.470   4.483   5.950
 2378TIP3    H1 7075   4.518   4.472   5.868
 2378TIP3    H2 7076   4.425   4.400   5.964
 2379TIP3   OH2 7077   8.135   4.114   6.681
 2379TIP3    H1 7078   8.125   4.087   6.589
 2379TIP3    H2 7079   8.152   4.033   6.728
 2380TIP3   OH2 7080   5.833   2.346   0.119
 2380TIP3    H1 7081   5.865   2.272   0.068
 2380TIP3    H2 7082   5.885   2.343   0.200
 2381TIP3   OH2 7083   2.457   6.426   0.859
 2381TIP3    H1 7084   2.518   6.445   0.788
 2381TIP3    H2 7085   2.417   6.511   0.879
 2382TIP3   OH2 7086   5.465   4.721   2.148
 2382TIP3    H1 7087   5.549   4.718   2.103
 2382TIP3    H2 7088   5.439   4.629   2.155
 2383TIP3   OH2 7089   7.052   4.095   1.656
 2383TIP3    H1 7090   6.979   4.072   1.598
 2383TIP3    H2 7091   7.071   4.015   1.704
 2384TIP3   OH2 7092   3.655   7.060   2.381
 2384TIP3    H1 7093   3.635   7.116   2.457
 2384TIP3    H2 7094   3.622   7.109   2.306
 2385TIP3   OH2 7095   0.725   5.294   5.664
 2385TIP3    H1 7096   0.768   5.330   5.587
 2385TIP3    H2 7097   0.644   5.254   5.631
 2386TIP3   OH2 7098   2.669   2.957   5.595
 2386TIP3    H1 7099   2.634   2.941   5.683
 2386TIP3    H2 7100   2.675   2.871   5.555
 2387TIP3   OH2 7101   6.067   5.666   2.450
 2387TIP3    H1 7102   6.072   5.578   2.486
 2387TIP3    H2 7103   5.981   5.669   2.407
 2388TIP3   OH2 7104   8.358   0.764   6.675
 2388TIP3    H1 7105   8.371   0.684   6.725
 2388TIP3    H2 7106   8.364   0.834   6.740
 2389TIP3   OH2 7107   3.439   3.489   6.773
 2389TIP3    H1 7108   3.379   3.491   6.698
 2389TIP3    H2 7109   3.438   3.397   6.801
 2390TIP3   OH2 7110   0.797   0.772   4.561
 2390TIP3    H1 7111   0.721   0.760   4.504
 2390TIP3    H2 7112   0.773   0.725   4.641
 2391TIP3   OH2 7113   3.290   0.174   6.811
 2391TIP3    H1 7114   3.232   0.242   6.778
 2391TIP3    H2 7115   3.344   0.218   6.877
 2392TIP3   OH2 7116   7.131   1.622   4.638
 2392TIP3    H1 7117   7.135   1.623   4.542
 2392TIP3    H2 7118   7.070   1.551   4.658
 2393TIP3   OH2 7119   7.415   2.176   4.389
 2393TIP3    H1 7120   7.486   2.119   4.420
 2393TIP3    H2 7121   7.383   2.218   4.469
 2394TIP3   OH2 7122   5.180   6.247   4.694
 2394TIP3    H1 7123   5.185   6.343   4.695
 2394TIP3    H2 7124   5.091   6.228   4.662
 2395TIP3   OH2 7125   0.141   0.202   6.520
 2395TIP3    H1 7126   0.166   0.166   6.605
 2395TIP3    H2 7127   0.045   0.192   6.517
 2396TIP3   OH2 7128   3.339   0.328   2.928
 2396TIP3    H1 7129   3.324   0.242   2.887
 2396TIP3    H2 7130   3.427   0.321   2.964
 2397TIP3   OH2 7131   7.134   6.868   0.995
 2397TIP3    H1 7132   7.141   6.777   0.965
 2397TIP3    H2 7133   7.047   6.896   0.966
 2398TIP3   OH2 7134   5.721   0.835   0.260
 2398TIP3    H1 7135   5.649   0.867   0.314
 2398TIP3    H2 7136   5.783   0.798   0.322
 2399TIP3   OH2 7137   6.905   5.994   5.705
 2399TIP3    H1 7138   6.974   5.958   5.650
 2399TIP3    H2 7139   6.936   6.082   5.729
 2400TIP3   OH2 7140   4.687   6.099   3.454
 2400TIP3    H1 7141   4.672   6.041   3.529
 2400TIP3    H2 7142   4.767   6.146   3.476
 2401TIP3   OH2 7143   8.208   7.434   4.065
 2401TIP3    H1 7144   8.299   7.455   4.044
 2401TIP3    H2 7145   8.211   7.397   4.153
 2402TIP3   OH2 7146   1.252   0.878   3.233
 2402TIP3    H1 7147   1.268   0.963   3.272
 2402TIP3    H2 7148   1.208   0.898   3.150
 2403TIP3   OH2 7149   4.395   7.166   5.054
 2403TIP3    H1 7150   4.470   7.169   5.114
 2403TIP3    H2 7151   4.376   7.073   5.045
 2404TIP3   OH2 7152   5.565   1.545   5.189
 2404TIP3    H1 7153   5.591   1.457   5.163
 2404TIP3    H2 7154   5.529   1.535   5.277
 2405TIP3   OH2 7155   6.727   6.840   3.741
 2405TIP3    H1 7156   6.640   6.868   3.769
 2405TIP3    H2 7157   6.751   6.901   3.671
 2406TIP3   OH2 7158   7.592   3.134   3.198
 2406TIP3    H1 7159   7.615   3.194   3.127
 2406TIP3    H2 7160   7.497   3.123   3.190
 2407TIP3   OH2 7161   7.083   1.780   5.250
 2407TIP3    H1 7162   7.054   1.777   5.341
 2407TIP3    H2 7163   7.046   1.701   5.210
 2408TIP3   OH2 7164   2.888   5.554   0.906
 2408TIP3    H1 7165   2.803   5.514   0.928
 2408TIP3    H2 7166   2.902   5.530   0.814
 2409TIP3   OH2 7167   8.303   0.710   2.619
 2409TIP3    H1 7168   8.276   0.674   2.534
 2409TIP3    H2 7169   8.275   0.645   2.683
 2410TIP3   OH2 7170   7.316   5.429   4.701
 2410TIP3    H1 7171   7.253   5.487   4.744
 2410TIP3    H2 7172   7.269   5.346   4.690
 2411TIP3   OH2 7173   5.486   4.895   3.589
 2411TIP3    H1 7174   5.555   4.956   3.561
 2411TIP3    H2 7175   5.404   4.937   3.562
 2412TIP3   OH2 7176   4.673   6.745   6.549
 2412TIP3    H1 7177   4.632   6.676   6.497
 2412TIP3    H2 7178   4.746   6.775   6.496
 2413TIP3   OH2 7179   4.342   1.725   1.587
 2413TIP3    H1 7180   4.382   1.757   1.506
 2413TIP3    H2 7181   4.274   1.789   1.606
 2414TIP3   OH2 7182   1.574   5.405   2.334
 2414TIP3    H1 7183   1.538   5.345   2.268
 2414TIP3    H2 7184   1.667   5.381   2.340
 2415TIP3   OH2 7185   3.027   6.266   5.022
 2415TIP3    H1 7186   3.001   6.195   4.965
 2415TIP3    H2 7187   2.975   6.341   4.993
 2416TIP3   OH2 7188   3.965   7.741   4.154
 2416TIP3    H1 7189   3.913   7.699   4.086
 2416TIP3    H2 7190   3.997   7.822   4.114
 2417TIP3   OH2 7191   0.249   5.387   6.359
 2417TIP3    H1 7192   0.219   5.433   6.437
 2417TIP3    H2 7193   0.342   5.410   6.351
 2418TIP3   OH2 7194   2.689   4.611   0.346
 2418TIP3    H1 7195   2.774   4.653   0.358
 2418TIP3    H2 7196   2.710   4.520   0.325
 2419TIP3   OH2 7197   3.704   0.509   5.783
 2419TIP3    H1 7198   3.787   0.480   5.748
 2419TIP3    H2 7199   3.717   0.603   5.800
 2420TIP3   OH2 7200   1.999   6.752   4.899
 2420TIP3    H1 7201   1.966   6.715   4.981
 2420TIP3    H2 7202   1.988   6.681   4.835
 2421TIP3   OH2 7203   5.487   4.419   2.166
 2421TIP3    H1 7204   5.392   4.413   2.162
 2421TIP3    H2 7205   5.518   4.331   2.144
 2422TIP3   OH2 7206   6.099   5.686   1.210
 2422TIP3    H1 7207   6.164   5.616   1.216
 2422TIP3    H2 7208   6.117   5.728   1.126
 2423TIP3   OH2 7209   5.190   4.571   3.798
 2423TIP3    H1 7210   5.104   4.547   3.832
 2423TIP3    H2 7211   5.215   4.648   3.850
 2424TIP3   OH2 7212   1.989   5.128   0.127
 2424TIP3    H1 7213   2.072   5.139   0.080
 2424TIP3    H2 7214   1.931   5.086   0.064
 2425TIP3   OH2 7215   7.803   5.147   6.253
 2425TIP3    H1 7216   7.877   5.149   6.193
 2425TIP3    H2 7217   7.727   5.170   6.200
 2426TIP3   OH2 7218   7.294   2.900   5.215
 2426TIP3    H1 7219   7.373   2.878   5.166
 2426TIP3    H2 7220   7.223   2.862   5.164
 2427TIP3   OH2 7221   4.344   3.210   5.056
 2427TIP3    H1 7222   4.406   3.152   5.101
 2427TIP3    H2 7223   4.322   3.276   5.122
 2428TIP3   OH2 7224   6.117   6.209   1.312
 2428TIP3    H1 7225   6.027   6.218   1.345
 2428TIP3    H2 7226   6.110   6.227   1.218
 2429TIP3   OH2 7227   8.348   6.229   6.639
 2429TIP3    H1 7228   8.347   6.324   6.648
 2429TIP3    H2 7229   8.439   6.207   6.619
 2430TIP3   OH2 7230   3.059   1.077   0.758
 2430TIP3    H1 7231   2.992   1.113   0.699
 2430TIP3    H2 7232   3.121   1.148   0.771
 2431TIP3   OH2 7233   6.629   6.531   2.160
 2431TIP3    H1 7234   6.567   6.461   2.183
 2431TIP3    H2 7235   6.605   6.604   2.216
 2432TIP3   OH2 7236   4.086   4.128   2.965
 2432TIP3    H1 7237   4.080   4.070   3.042
 2432TIP3    H2 7238   4.161   4.093   2.916
 2433TIP3   OH2 7239   7.146   7.178   1.072
 2433TIP3    H1 7240   7.176   7.089   1.051
 2433TIP3    H2 7241   7.158   7.227   0.990
 2434TIP3   OH2 7242   1.338   1.416   5.386
 2434TIP3    H1 7243   1.344   1.371   5.471
 2434TIP3    H2 7244   1.404   1.486   5.392
 2435TIP3   OH2 7245   7.607   0.274   3.836
 2435TIP3    H1 7246   7.527   0.241   3.878
 2435TIP3    H2 7247   7.580   0.301   3.749
 2436TIP3   OH2 7248   1.140   4.026   2.758
 2436TIP3    H1 7249   1.171   4.078   2.832
 2436TIP3    H2 7250   1.206   4.039   2.690
 2437TIP3   OH2 7251   4.602   2.609   0.332
 2437TIP3    H1 7252   4.559   2.582   0.251
 2437TIP3    H2 7253   4.638   2.528   0.369
 2438TIP3   OH2 7254   0.261   3.924   3.163
 2438TIP3    H1 7255   0.320   3.996   3.142
 2438TIP3    H2 7256   0.232   3.890   3.078
 2439TIP3   OH2 7257   3.174   4.217   6.602
 2439TIP3    H1 7258   3.243   4.170   6.556
 2439TIP3    H2 7259   3.208   4.228   6.691
 2440TIP3   OH2 7260   0.622   0.229   3.202
 2440TIP3    H1 7261   0.647   0.138   3.185
 2440TIP3    H2 7262   0.683   0.258   3.270
 2441TIP3   OH2 7263   0.395   6.790   2.570
 2441TIP3    H1 7264   0.411   6.882   2.588
 2441TIP3    H2 7265   0.390   6.748   2.656
 2442TIP3   OH2 7266   3.533   2.715   5.616
 2442TIP3    H1 7267   3.537   2.766   5.535
 2442TIP3    H2 7268   3.564   2.774   5.684
 2443TIP3   OH2 7269   2.665   1.756   3.568
 2443TIP3    H1 7270   2.616   1.784   3.645
 2443TIP3    H2 7271   2.599   1.746   3.499
 2444TIP3   OH2 7272   2.495   2.609   4.302
 2444TIP3    H1 7273   2.530   2.693   4.272
 2444TIP3    H2 7274   2.539   2.593   4.385
 2445TIP3   OH2 7275   6.206   2.716   5.931
 2445TIP3    H1 7276   6.246   2.790   5.885
 2445TIP3    H2 7277   6.137   2.686   5.872
 2446TIP3   OH2 7278   2.457   0.993   0.723
 2446TIP3    H1 7279   2.547   0.967   0.703
 2446TIP3    H2 7280   2.402   0.928   0.678
 2447TIP3   OH2 7281   4.945   5.711   2.591
 2447TIP3    H1 7282   4.897   5.630   2.604
 2447TIP3    H2 7283   5.035   5.684   2.574
 2448TIP3   OH2 7284   5.738   5.306   0.887
 2448TIP3    H1 7285   5.776   5.232   0.934
 2448TIP3    H2 7286   5.728   5.274   0.797
 2449TIP3   OH2 7287   7.853   4.445   4.090
 2449TIP3    H1 7288   7.933   4.436   4.143
 2449TIP3    H2 7289   7.800   4.369   4.113
 2450TIP3   OH2 7290   3.529   2.617   0.648
 2450TIP3    H1 7291   3.562   2.671   0.720
 2450TIP3    H2 7292   3.605   2.568   0.618
 2451TIP3   OH2 7293   6.105   3.370   2.113
 2451TIP3    H1 7294   6.184   3.396   2.065
 2451TIP3    H2 7295   6.128   3.384   2.205
 2452TIP3   OH2 7296   8.363   5.242   2.362
 2452TIP3    H1 7297   8.271   5.267   2.351
 2452TIP3    H2 7298   8.374   5.167   2.303
 2453TIP3   OH2 7299   6.297   3.160   6.800
 2453TIP3    H1 7300   6.301   3.066   6.818
 2453TIP3    H2 7301   6.204   3.181   6.807
 2454TIP3   OH2 7302   7.177   0.135   1.965
 2454TIP3    H1 7303   7.228   0.064   1.927
 2454TIP3    H2 7304   7.242   0.193   2.004
 2455TIP3   OH2 7305   6.982   7.547   5.889
 2455TIP3    H1 7306   7.040   7.585   5.954
 2455TIP3    H2 7307   6.950   7.466   5.929
 2456TIP3   OH2 7308   2.718   5.928   6.593
 2456TIP3    H1 7309   2.666   5.944   6.514
 2456TIP3    H2 7310   2.743   5.836   6.587
 2457TIP3   OH2 7311   3.519   1.785   0.586
 2457TIP3    H1 7312   3.478   1.814   0.504
 2457TIP3    H2 7313   3.507   1.858   0.646
 2458TIP3   OH2 7314   3.197   6.107   5.446
 2458TIP3    H1 7315   3.151   6.033   5.405
 2458TIP3    H2 7316   3.128   6.156   5.491
 2459TIP3   OH2 7317   4.655   4.931   5.392
 2459TIP3    H1 7318   4.579   4.930   5.451
 2459TIP3    H2 7319   4.718   4.988   5.435
 2460TIP3   OH2 7320   3.767   2.600   5.833
 2460TIP3    H1 7321   3.722   2.679   5.862
 2460TIP3    H2 7322   3.698   2.535   5.820
 2461TIP3   OH2 7323   6.706   3.507   1.370
 2461TIP3    H1 7324   6.747   3.496   1.456
 2461TIP3    H2 7325   6.677   3.598   1.369
 2462TIP3   OH2 7326   5.846   4.678   3.618
 2462TIP3    H1 7327   5.755   4.677   3.645
 2462TIP3    H2 7328   5.845   4.645   3.528
 2463TIP3   OH2 7329   2.852   6.179   1.908
 2463TIP3    H1 7330   2.788   6.179   1.838
 2463TIP3    H2 7331   2.935   6.158   1.865
 2464TIP3   OH2 7332   7.798   6.047   6.350
 2464TIP3    H1 7333   7.754   5.983   6.293
 2464TIP3    H2 7334   7.785   6.131   6.307
 2465TIP3   OH2 7335   4.526   6.998   2.451
 2465TIP3    H1 7336   4.510   7.015   2.358
 2465TIP3    H2 7337   4.601   6.938   2.453
 2466TIP3   OH2 7338   0.466   1.413   0.227
 2466TIP3    H1 7339   0.540   1.464   0.260
 2466TIP3    H2 7340   0.486   1.323   0.251
 2467TIP3   OH2 7341   4.446   1.845   2.413
 2467TIP3    H1 7342   4.475   1.936   2.407
 2467TIP3    H2 7343   4.441   1.816   2.322
 2468TIP3   OH2 7344   4.598   4.665   4.546
 2468TIP3    H1 7345   4.629   4.622   4.625
 2468TIP3    H2 7346   4.657   4.634   4.477
 2469TIP3   OH2 7347   4.581   3.702   1.427
 2469TIP3    H1 7348   4.509   3.746   1.382
 2469TIP3    H2 7349   4.657   3.717   1.371
 2470TIP3   OH2 7350   3.089   5.081  -0.023
 2470TIP3    H1 7351   3.007   5.075   0.026
 2470TIP3    H2 7352   3.158   5.084   0.044
 2471TIP3   OH2 7353   6.879   5.220   4.479
 2471TIP3    H1 7354   6.950   5.234   4.416
 2471TIP3    H2 7355   6.818   5.291   4.462
 2472TIP3   OH2 7356   6.724   0.468   4.854
 2472TIP3    H1 7357   6.810   0.506   4.875
 2472TIP3    H2 7358   6.688   0.525   4.786
 2473TIP3   OH2 7359   6.505   6.584   1.271
 2473TIP3    H1 7360   6.486   6.672   1.239
 2473TIP3    H2 7361   6.586   6.594   1.322
 2474TIP3   OH2 7362   5.931   0.089   0.683
 2474TIP3    H1 7363   5.846   0.086   0.727
 2474TIP3    H2 7364   5.972   0.005   0.703
 2475TIP3   OH2 7365   2.267   5.404   2.037
 2475TIP3    H1 7366   2.342   5.462   2.052
 2475TIP3    H2 7367   2.212   5.414   2.114
 2476TIP3   OH2 7368   7.711   3.084   3.852
 2476TIP3    H1 7369   7.640   3.068   3.790
 2476TIP3    H2 7370   7.787   3.040   3.815
 2477TIP3   OH2 7371   1.851   0.662   3.385
 2477TIP3    H1 7372   1.757   0.648   3.399
 2477TIP3    H2 7373   1.864   0.640   3.293
 2478TIP3   OH2 7374   1.609   3.176   6.465
 2478TIP3    H1 7375   1.627   3.184   6.372
 2478TIP3    H2 7376   1.563   3.092   6.473
 2479TIP3   OH2 7377   1.031   7.116   2.641
 2479TIP3    H1 7378   1.058   7.099   2.732
 2479TIP3    H2 7379   1.085   7.056   2.589
 2480TIP3   OH2 7380   6.706   4.615   3.397
 2480TIP3    H1 7381   6.664   4.641   3.479
 2480TIP3    H2 7382   6.718   4.696   3.349
 2481TIP3   OH2 7383   6.370   7.105   6.431
 2481TIP3    H1 7384   6.370   7.096   6.526
 2481TIP3    H2 7385   6.452   7.065   6.403
 2482TIP3   OH2 7386   1.704   0.306   3.345
 2482TIP3    H1 7387   1.775   0.256   3.305
 2482TIP3    H2 7388   1.738   0.332   3.431
 2483TIP3   OH2 7389   1.456   7.041   0.305
 2483TIP3    H1 7390   1.381   7.015   0.359
 2483TIP3    H2 7391   1.476   6.964   0.252
 2484TIP3   OH2 7392   5.705   7.430   0.691
 2484TIP3    H1 7393   5.675   7.494   0.756
 2484TIP3    H2 7394   5.798   7.451   0.678
 2485TIP3   OH2 7395   6.593   5.868   0.666
 2485TIP3    H1 7396   6.557   5.927   0.732
 2485TIP3    H2 7397   6.610   5.786   0.713
 2486TIP3   OH2 7398   3.344   7.079   2.297
 2486TIP3    H1 7399   3.265   7.102   2.248
 2486TIP3    H2 7400   3.390   7.162   2.308
 2487TIP3   OH2 7401   3.432   2.278   2.666
 2487TIP3    H1 7402   3.471   2.262   2.753
 2487TIP3    H2 7403   3.341   2.300   2.684
 2488TIP3   OH2 7404   4.631   7.580   2.335
 2488TIP3    H1 7405   4.652   7.673   2.346
 2488TIP3    H2 7406   4.659   7.539   2.417
 2489TIP3   OH2 7407   4.770   2.363   2.788
 2489TIP3    H1 7408   4.797   2.328   2.703
 2489TIP3    H2 7409   4.847   2.356   2.843
 2490TIP3   OH2 7410   6.318   7.699   4.310
 2490TIP3    H1 7411   6.379   7.766   4.340
 2490TIP3    H2 7412   6.371   7.619   4.307
 2491TIP3   OH2 7413   7.727   0.482   4.079
 2491TIP3    H1 7414   7.800   0.538   4.105
 2491TIP3    H2 7415   7.699   0.518   3.994
 2492TIP3   OH2 7416   7.367   0.651   3.565
 2492TIP3    H1 7417   7.335   0.702   3.490
 2492TIP3    H2 7418   7.349   0.707   3.641
 2493TIP3   OH2 7419   5.013   0.789   3.441
 2493TIP3    H1 7420   5.062   0.845   3.381
 2493TIP3    H2 7421   5.065   0.709   3.446
 2494TIP3   OH2 7422   6.491   7.098   2.744
 2494TIP3    H1 7423   6.467   7.026   2.802
 2494TIP3    H2 7424   6.407   7.130   2.710
 2495TIP3   OH2 7425   5.916   5.095   6.170
 2495TIP3    H1 7426   5.829   5.093   6.131
 2495TIP3    H2 7427   5.974   5.061   6.102
 2496TIP3   OH2 7428   0.631   1.180   0.848
 2496TIP3    H1 7429   0.561   1.136   0.895
 2496TIP3    H2 7430   0.589   1.256   0.808
 2497TIP3   OH2 7431   5.920   5.906   6.732
 2497TIP3    H1 7432   5.966   5.932   6.812
 2497TIP3    H2 7433   5.837   5.955   6.735
 2498TIP3   OH2 7434   2.031   7.718   6.482
 2498TIP3    H1 7435   1.955   7.763   6.519
 2498TIP3    H2 7436   2.046   7.760   6.398
 2499TIP3   OH2 7437   6.727   1.665   0.401
 2499TIP3    H1 7438   6.798   1.661   0.465
 2499TIP3    H2 7439   6.649   1.642   0.450
 2500TIP3   OH2 7440   4.213   6.153   1.153
 2500TIP3    H1 7441   4.166   6.200   1.222
 2500TIP3    H2 7442   4.181   6.192   1.071
 2501TIP3   OH2 7443   2.381   1.242   5.256
 2501TIP3    H1 7444   2.311   1.261   5.318
 2501TIP3    H2 7445   2.451   1.303   5.279
 2502TIP3   OH2 7446   7.083   5.701   0.270
 2502TIP3    H1 7447   7.104   5.724   0.180
 2502TIP3    H2 7448   7.037   5.617   0.263
 2503TIP3   OH2 7449   0.780   6.756   3.210
 2503TIP3    H1 7450   0.852   6.715   3.162
 2503TIP3    H2 7451   0.812   6.764   3.300
 2504TIP3   OH2 7452   1.083   1.084   6.262
 2504TIP3    H1 7453   1.131   1.157   6.224
 2504TIP3    H2 7454   1.143   1.010   6.257
 2505TIP3   OH2 7455   4.290   0.262   6.169
 2505TIP3    H1 7456   4.371   0.285   6.213
 2505TIP3    H2 7457   4.262   0.342   6.126
 2506TIP3   OH2 7458   2.975   7.393   4.767
 2506TIP3    H1 7459   3.017   7.324   4.818
 2506TIP3    H2 7460   3.023   7.473   4.790
 2507TIP3   OH2 7461   0.477   7.490   6.600
 2507TIP3    H1 7462   0.553   7.532   6.559
 2507TIP3    H2 7463   0.483   7.514   6.692
 2508TIP3   OH2 7464   3.570   4.405   4.945
 2508TIP3    H1 7465   3.475   4.390   4.945
 2508TIP3    H2 7466   3.579   4.498   4.967
 2509TIP3   OH2 7467   2.799   3.903   3.797
 2509TIP3    H1 7468   2.805   3.814   3.834
 2509TIP3    H2 7469   2.712   3.933   3.823
 2510TIP3   OH2 7470   6.472   5.824   2.228
 2510TIP3    H1 7471   6.404   5.891   2.233
 2510TIP3    H2 7472   6.546   5.860   2.278
 2511TIP3   OH2 7473   8.250   1.401   0.164
 2511TIP3    H1 7474   8.217   1.408   0.254
 2511TIP3    H2 7475   8.329   1.456   0.164
 2512TIP3   OH2 7476   6.115   5.239   5.339
 2512TIP3    H1 7477   6.137   5.171   5.403
 2512TIP3    H2 7478   6.076   5.309   5.391
 2513TIP3   OH2 7479   3.342   6.412   5.163
 2513TIP3    H1 7480   3.427   6.450   5.140
 2513TIP3    H2 7481   3.279   6.462   5.112
 2514TIP3   OH2 7482   6.673   2.026   3.963
 2514TIP3    H1 7483   6.743   2.085   3.938
 2514TIP3    H2 7484   6.710   1.938   3.953
 2515TIP3   OH2 7485   6.917   6.286   6.431
 2515TIP3    H1 7486   6.903   6.369   6.385
 2515TIP3    H2 7487   6.836   6.237   6.417
 2516TIP3   OH2 7488   0.673   7.621   4.961
 2516TIP3    H1 7489   0.597   7.647   4.909
 2516TIP3    H2 7490   0.636   7.584   5.041
 2517TIP3   OH2 7491   1.944   4.474   3.271
 2517TIP3    H1 7492   1.890   4.482   3.350
 2517TIP3    H2 7493   1.891   4.420   3.212
 2518TIP3   OH2 7494   6.275   2.597   6.153
 2518TIP3    H1 7495   6.346   2.631   6.206
 2518TIP3    H2 7496   6.276   2.650   6.073
 2519TIP3   OH2 7497   0.473   0.450   1.510
 2519TIP3    H1 7498   0.462   0.368   1.557
 2519TIP3    H2 7499   0.386   0.471   1.478
 2520TIP3   OH2 7500   1.675   6.239   2.970
 2520TIP3    H1 7501   1.616   6.307   2.938
 2520TIP3    H2 7502   1.660   6.238   3.065
 2521TIP3   OH2 7503   1.777   7.075   4.464
 2521TIP3    H1 7504   1.799   7.143   4.528
 2521TIP3    H2 7505   1.795   6.993   4.509
 2522TIP3   OH2 7506   3.169   5.657   4.352
 2522TIP3    H1 7507   3.157   5.599   4.427
 2522TIP3    H2 7508   3.180   5.598   4.277
 2523TIP3   OH2 7509   4.130   6.312   3.256
 2523TIP3    H1 7510   4.100   6.222   3.269
 2523TIP3    H2 7511   4.052   6.360   3.231
 2524TIP3   OH2 7512   2.618   5.186   4.749
 2524TIP3    H1 7513   2.677   5.221   4.683
 2524TIP3    H2 7514   2.536   5.171   4.703
 2525TIP3   OH2 7515   5.520   4.672   3.974
 2525TIP3    H1 7516   5.550   4.693   3.886
 2525TIP3    H2 7517   5.498   4.579   3.971
 2526TIP3   OH2 7518   5.263   2.768   2.264
 2526TIP3    H1 7519   5.345   2.719   2.261
 2526TIP3    H2 7520   5.220   2.739   2.344
 2527TIP3   OH2 7521   6.669   7.835   2.002
 2527TIP3    H1 7522   6.717   7.917   2.010
 2527TIP3    H2 7523   6.608   7.849   1.930
 2528TIP3   OH2 7524   1.523   4.719   2.622
 2528TIP3    H1 7525   1.618   4.731   2.611
 2528TIP3    H2 7526   1.515   4.663   2.699
 2529TIP3   OH2 7527   4.759   4.570   5.310
 2529TIP3    H1 7528   4.827   4.597   5.373
 2529TIP3    H2 7529   4.755   4.642   5.247
 2530TIP3   OH2 7530   7.329   0.952   6.537
 2530TIP3    H1 7531   7.262   0.951   6.469
 2530TIP3    H2 7532   7.281   0.974   6.617
 2531TIP3   OH2 7533   3.674   6.500   3.801
 2531TIP3    H1 7534   3.768   6.482   3.796
 2531TIP3    H2 7535   3.656   6.552   3.724
 2532TIP3   OH2 7536   2.632   5.645   5.729
 2532TIP3    H1 7537   2.691   5.623   5.658
 2532TIP3    H2 7538   2.659   5.588   5.801
 2533TIP3   OH2 7539   1.010   5.028   1.627
 2533TIP3    H1 7540   1.068   4.980   1.569
 2533TIP3    H2 7541   1.067   5.058   1.699
 2534TIP3   OH2 7542   3.808   3.146   4.280
 2534TIP3    H1 7543   3.759   3.064   4.285
 2534TIP3    H2 7544   3.861   3.148   4.359
 2535TIP3   OH2 7545   6.831   0.418   0.446
 2535TIP3    H1 7546   6.753   0.365   0.432
 2535TIP3    H2 7547   6.880   0.372   0.514
 2536TIP3   OH2 7548   3.861   7.732   1.425
 2536TIP3    H1 7549   3.804   7.758   1.353
 2536TIP3    H2 7550   3.838   7.790   1.497
 2537TIP3   OH2 7551   6.183   6.724   6.412
 2537TIP3    H1 7552   6.188   6.792   6.479
 2537TIP3    H2 7553   6.112   6.753   6.355
 2538TIP3   OH2 7554   0.071   0.085   1.222
 2538TIP3    H1 7555   0.114   0.156   1.174
 2538TIP3    H2 7556   0.134   0.060   1.289
 2539TIP3   OH2 7557   5.724   1.369   5.692
 2539TIP3    H1 7558   5.667   1.419   5.750
 2539TIP3    H2 7559   5.779   1.434   5.650
 2540TIP3   OH2 7560   1.816   2.913   3.660
 2540TIP3    H1 7561   1.817   2.819   3.676
 2540TIP3    H2 7562   1.862   2.924   3.576
 2541TIP3   OH2 7563   0.219   7.784   0.495
 2541TIP3    H1 7564   0.277   7.728   0.546
 2541TIP3    H2 7565   0.216   7.866   0.544
 2542TIP3   OH2 7566   6.694   4.390   4.485
 2542TIP3    H1 7567   6.732   4.446   4.553
 2542TIP3    H2 7568   6.696   4.302   4.522
 2543TIP3   OH2 7569   5.747   5.595   3.469
 2543TIP3    H1 7570   5.757   5.570   3.560
 2543TIP3    H2 7571   5.656   5.574   3.448
 2544TIP3   OH2 7572   5.507   4.277   0.828
 2544TIP3    H1 7573   5.506   4.285   0.733
 2544TIP3    H2 7574   5.453   4.349   0.859
 2545TIP3   OH2 7575   7.573   1.778   2.309
 2545TIP3    H1 7576   7.512   1.793   2.381
 2545TIP3    H2 7577   7.556   1.850   2.248
 2546TIP3   OH2 7578   7.616   0.792   1.236
 2546TIP3    H1 7579   7.709   0.794   1.260
 2546TIP3    H2 7580   7.590   0.701   1.247
 2547TIP3   OH2 7581   1.388   1.227   4.882
 2547TIP3    H1 7582   1.355   1.264   4.964
 2547TIP3    H2 7583   1.338   1.271   4.813
 2548TIP3   OH2 7584   7.680   6.848   0.945
 2548TIP3    H1 7585   7.644   6.884   1.026
 2548TIP3    H2 7586   7.743   6.782   0.973
 2549TIP3   OH2 7587   6.906   1.223   2.100
 2549TIP3    H1 7588   6.991   1.180   2.092
 2549TIP3    H2 7589   6.843   1.151   2.102
 2550TIP3   OH2 7590   0.176   1.390   1.265
 2550TIP3    H1 7591   0.129   1.369   1.345
 2550TIP3    H2 7592   0.206   1.480   1.277
 2551TIP3   OH2 7593   5.486   1.962   1.745
 2551TIP3    H1 7594   5.393   1.982   1.734
 2551TIP3    H2 7595   5.525   1.988   1.662
 2552TIP3   OH2 7596   2.372   6.805   3.551
 2552TIP3    H1 7597   2.446   6.752   3.582
 2552TIP3    H2 7598   2.295   6.753   3.571
 2553TIP3   OH2 7599   8.316   0.351   1.405
 2553TIP3    H1 7600   8.231   0.380   1.370
 2553TIP3    H2 7601   8.378   0.371   1.336
 2554TIP3   OH2 7602   0.377   3.577   4.496
 2554TIP3    H1 7603   0.465   3.613   4.511
 2554TIP3    H2 7604   0.384   3.534   4.410
 2555TIP3   OH2 7605   3.441   7.650   1.670
 2555TIP3    H1 7606   3.466   7.685   1.756
 2555TIP3    H2 7607   3.519   7.602   1.641
 2556TIP3   OH2 7608   0.368   0.582   1.209
 2556TIP3    H1 7609   0.322   0.655   1.251
 2556TIP3    H2 7610   0.311   0.558   1.136
 2557TIP3   OH2 7611   8.097   4.077   4.041
 2557TIP3    H1 7612   8.053   4.033   3.968
 2557TIP3    H2 7613   8.147   4.147   4.000
 2558TIP3   OH2 7614   3.307   2.452   1.854
 2558TIP3    H1 7615   3.280   2.438   1.763
 2558TIP3    H2 7616   3.402   2.455   1.850
 2559TIP3   OH2 7617   4.249   0.119   5.525
 2559TIP3    H1 7618   4.329   0.065   5.528
 2559TIP3    H2 7619   4.188   0.068   5.472
 2560TIP3   OH2 7620   1.650   0.643   0.775
 2560TIP3    H1 7621   1.685   0.726   0.742
 2560TIP3    H2 7622   1.555   0.658   0.780
 2561TIP3   OH2 7623   6.768   2.648   5.926
 2561TIP3    H1 7624   6.752   2.705   5.851
 2561TIP3    H2 7625   6.683   2.607   5.943
 2562TIP3   OH2 7626   2.145   1.516   1.202
 2562TIP3    H1 7627   2.127   1.519   1.296
 2562TIP3    H2 7628   2.059   1.515   1.161
 2563TIP3   OH2 7629   2.746   2.989   3.589
 2563TIP3    H1 7630   2.810   2.917   3.597
 2563TIP3    H2 7631   2.718   2.986   3.498
 2564TIP3   OH2 7632   6.549   7.516   5.297
 2564TIP3    H1 7633   6.478   7.564   5.254
 2564TIP3    H2 7634   6.604   7.584   5.336
 2565TIP3   OH2 7635   3.800   2.950   2.866
 2565TIP3    H1 7636   3.755   3.015   2.921
 2565TIP3    H2 7637   3.871   2.917   2.921
 2566TIP3   OH2 7638   3.859   4.682   2.203
 2566TIP3    H1 7639   3.844   4.592   2.229
 2566TIP3    H2 7640   3.954   4.690   2.196
 2567TIP3   OH2 7641   3.658   4.196   2.659
 2567TIP3    H1 7642   3.720   4.147   2.714
 2567TIP3    H2 7643   3.685   4.176   2.569
 2568TIP3   OH2 7644   1.353   4.567   0.687
 2568TIP3    H1 7645   1.347   4.603   0.599
 2568TIP3    H2 7646   1.409   4.489   0.677
 2569TIP3   OH2 7647   2.962   3.569   0.485
 2569TIP3    H1 7648   3.021   3.558   0.560
 2569TIP3    H2 7649   2.967   3.662   0.463
 2570TIP3   OH2 7650   8.108   2.894   1.844
 2570TIP3    H1 7651   8.144   2.962   1.787
 2570TIP3    H2 7652   8.050   2.844   1.788
 2571TIP3   OH2 7653   3.030   0.410   4.113
 2571TIP3    H1 7654   2.964   0.467   4.073
 2571TIP3    H2 7655   3.017   0.325   4.071
 2572TIP3   OH2 7656   7.441   4.926   3.481
 2572TIP3    H1 7657   7.445   4.836   3.448
 2572TIP3    H2 7658   7.356   4.933   3.523
 2573TIP3   OH2 7659   0.596   2.274   1.227
 2573TIP3    H1 7660   0.612   2.259   1.320
 2573TIP3    H2 7661   0.680   2.304   1.192
 2574TIP3   OH2 7662   2.961   7.496   1.614
 2574TIP3    H1 7663   2.896   7.430   1.637
 2574TIP3    H2 7664   3.017   7.453   1.549
 2575TIP3   OH2 7665   0.279   2.558   4.874
 2575TIP3    H1 7666   0.238   2.473   4.855
 2575TIP3    H2 7667   0.231   2.621   4.820
 2576TIP3   OH2 7668   1.250   2.355   4.101
 2576TIP3    H1 7669   1.249   2.447   4.128
 2576TIP3    H2 7670   1.321   2.349   4.038
 2577TIP3   OH2 7671   8.302   3.822   1.521
 2577TIP3    H1 7672   8.306   3.766   1.599
 2577TIP3    H2 7673   8.372   3.789   1.464
 2578TIP3   OH2 7674   0.615   3.891   0.523
 2578TIP3    H1 7675   0.652   3.929   0.603
 2578TIP3    H2 7676   0.580   3.806   0.550
 2579TIP3   OH2 7677   0.309   3.198   6.206
 2579TIP3    H1 7678   0.388   3.160   6.245
 2579TIP3    H2 7679   0.299   3.152   6.123
 2580TIP3   OH2 7680   3.634   0.321   5.200
 2580TIP3    H1 7681   3.610   0.233   5.229
 2580TIP3    H2 7682   3.561   0.347   5.143
 2581TIP3   OH2 7683   3.965   7.938   5.844
 2581TIP3    H1 7684   3.949   7.961   5.752
 2581TIP3    H2 7685   4.020   7.860   5.839
 2582TIP3   OH2 7686   6.070   6.062   2.782
 2582TIP3    H1 7687   6.139   6.058   2.715
 2582TIP3    H2 7688   6.111   6.106   2.856
 2583TIP3   OH2 7689   1.631   4.528   5.230
 2583TIP3    H1 7690   1.552   4.536   5.282
 2583TIP3    H2 7691   1.695   4.584   5.275
 2584TIP3   OH2 7692   7.289   0.828   2.936
 2584TIP3    H1 7693   7.319   0.854   3.024
 2584TIP3    H2 7694   7.224   0.760   2.953
 2585TIP3   OH2 7695   2.392   2.753   4.671
 2585TIP3    H1 7696   2.487   2.752   4.685
 2585TIP3    H2 7697   2.373   2.843   4.646
 2586TIP3   OH2 7698   6.177   4.901   4.705
 2586TIP3    H1 7699   6.218   4.863   4.628
 2586TIP3    H2 7700   6.086   4.873   4.700
 2587TIP3   OH2 7701   3.110   2.275   1.697
 2587TIP3    H1 7702   3.062   2.196   1.670
 2587TIP3    H2 7703   3.174   2.242   1.761
 2588TIP3   OH2 7704   2.585   7.591   0.945
 2588TIP3    H1 7705   2.670   7.560   0.977
 2588TIP3    H2 7706   2.538   7.618   1.024
 2589TIP3   OH2 7707   5.824   2.199   6.113
 2589TIP3    H1 7708   5.879   2.197   6.191
 2589TIP3    H2 7709   5.824   2.290   6.085
 2590TIP3   OH2 7710   4.868   5.873   6.341
 2590TIP3    H1 7711   4.822   5.955   6.360
 2590TIP3    H2 7712   4.908   5.848   6.425
 2591TIP3   OH2 7713   4.430   4.478   2.707
 2591TIP3    H1 7714   4.346   4.435   2.693
 2591TIP3    H2 7715   4.471   4.428   2.777
 2592TIP3   OH2 7716   3.812   4.051   6.797
 2592TIP3    H1 7717   3.765   4.122   6.840
 2592TIP3    H2 7718   3.754   4.021   6.727
 2593TIP3   OH2 7719   7.877   4.172   3.566
 2593TIP3    H1 7720   7.867   4.224   3.486
 2593TIP3    H2 7721   7.900   4.235   3.634
 2594TIP3   OH2 7722   3.446   0.978   3.621
 2594TIP3    H1 7723   3.356   0.981   3.588
 2594TIP3    H2 7724   3.460   0.886   3.644
 2595TIP3   OH2 7725   8.235   3.983   4.382
 2595TIP3    H1 7726   8.252   3.889   4.372
 2595TIP3    H2 7727   8.145   3.995   4.353
 2596TIP3   OH2 7728   0.851   0.915   1.393
 2596TIP3    H1 7729   0.865   0.972   1.318
 2596TIP3    H2 7730   0.936   0.912   1.437
 2597TIP3   OH2 7731   4.529   7.547   0.314
 2597TIP3    H1 7732   4.583   7.624   0.335
 2597TIP3    H2 7733   4.577   7.473   0.352
 2598TIP3   OH2 7734   0.048   3.405   2.700
 2598TIP3    H1 7735   0.028   3.498   2.695
 2598TIP3    H2 7736   0.001   3.375   2.779
 2599TIP3   OH2 7737   0.866   4.972   4.228
 2599TIP3    H1 7738   0.800   4.908   4.202
 2599TIP3    H2 7739   0.816   5.052   4.247
 2600TIP3   OH2 7740   6.608   5.801   4.282
 2600TIP3    H1 7741   6.515   5.825   4.284
 2600TIP3    H2 7742   6.608   5.706   4.273
 2601TIP3   OH2 7743   7.077   7.490   2.190
 2601TIP3    H1 7744   7.076   7.582   2.216
 2601TIP3    H2 7745   7.006   7.451   2.241
 2602TIP3   OH2 7746   7.480   0.410   3.636
 2602TIP3    H1 7747   7.445   0.496   3.611
 2602TIP3    H2 7748   7.406   0.350   3.626
 2603TIP3   OH2 7749   6.195   3.984   4.134
 2603TIP3    H1 7750   6.208   4.078   4.144
 2603TIP3    H2 7751   6.154   3.956   4.216
 2604TIP3   OH2 7752   1.346   5.743   2.048
 2604TIP3    H1 7753   1.377   5.715   2.134
 2604TIP3    H2 7754   1.272   5.801   2.066
 2605TIP3   OH2 7755   2.298   3.032   0.873
 2605TIP3    H1 7756   2.225   3.027   0.811
 2605TIP3    H2 7757   2.309   2.943   0.905
 2606TIP3   OH2 7758   0.320   5.433   2.152
 2606TIP3    H1 7759   0.374   5.508   2.128
 2606TIP3    H2 7760   0.295   5.393   2.069
 2607TIP3   OH2 7761   8.010   6.714   6.763
 2607TIP3    H1 7762   7.924   6.733   6.726
 2607TIP3    H2 7763   8.071   6.771   6.715
 2608TIP3   OH2 7764   1.017   6.300   0.102
 2608TIP3    H1 7765   0.947   6.236   0.116
 2608TIP3    H2 7766   1.034   6.296   0.007
 2609TIP3   OH2 7767   4.568   4.332   2.412
 2609TIP3    H1 7768   4.548   4.402   2.475
 2609TIP3    H2 7769   4.643   4.364   2.363
 2610TIP3   OH2 7770   7.879   6.159   1.740
 2610TIP3    H1 7771   7.893   6.138   1.832
 2610TIP3    H2 7772   7.891   6.075   1.694
 2611TIP3   OH2 7773   6.479   6.939   3.261
 2611TIP3    H1 7774   6.575   6.946   3.261
 2611TIP3    H2 7775   6.462   6.855   3.304
 2612TIP3   OH2 7776   3.322   5.054   2.141
 2612TIP3    H1 7777   3.375   5.126   2.175
 2612TIP3    H2 7778   3.240   5.060   2.191
 2613TIP3   OH2 7779   7.219   6.331   0.366
 2613TIP3    H1 7780   7.308   6.299   0.376
 2613TIP3    H2 7781   7.228   6.415   0.320
 2614TIP3   OH2 7782   7.511   1.044   1.272
 2614TIP3    H1 7783   7.583   1.103   1.295
 2614TIP3    H2 7784   7.551   0.957   1.272
 2615TIP3   OH2 7785   7.773   3.215   2.105
 2615TIP3    H1 7786   7.851   3.256   2.142
 2615TIP3    H2 7787   7.780   3.122   2.129
 2616TIP3   OH2 7788   8.089   2.702   3.725
 2616TIP3    H1 7789   8.117   2.674   3.638
 2616TIP3    H2 7790   8.170   2.715   3.774
 2617TIP3   OH2 7791   3.618   4.755   6.236
 2617TIP3    H1 7792   3.604   4.705   6.155
 2617TIP3    H2 7793   3.658   4.692   6.296
 2618TIP3   OH2 7794   8.298   5.738   6.372
 2618TIP3    H1 7795   8.299   5.644   6.355
 2618TIP3    H2 7796   8.220   5.751   6.426
 2619TIP3   OH2 7797   1.402   3.942   1.567
 2619TIP3    H1 7798   1.412   3.850   1.592
 2619TIP3    H2 7799   1.308   3.960   1.580
 2620TIP3   OH2 7800   4.183   3.792   4.145
 2620TIP3    H1 7801   4.239   3.733   4.196
 2620TIP3    H2 7802   4.240   3.828   4.078
 2621TIP3   OH2 7803   8.093   6.271   6.130
 2621TIP3    H1 7804   8.068   6.305   6.044
 2621TIP3    H2 7805   8.078   6.176   6.123
 2622TIP3   OH2 7806   4.169   7.193   4.573
 2622TIP3    H1 7807   4.205   7.203   4.661
 2622TIP3    H2 7808   4.088   7.243   4.574
 2623TIP3   OH2 7809   0.608   0.408   2.994
 2623TIP3    H1 7810   0.666   0.480   3.020
 2623TIP3    H2 7811   0.609   0.348   3.069
 2624TIP3   OH2 7812   1.481   6.657   6.254
 2624TIP3    H1 7813   1.418   6.729   6.256
 2624TIP3    H2 7814   1.536   6.671   6.331
 2625TIP3   OH2 7815   6.707   0.035   6.097
 2625TIP3    H1 7816   6.724   0.059   6.006
 2625TIP3    H2 7817   6.790  -0.004   6.128
 2626TIP3   OH2 7818   2.810   3.652   3.890
 2626TIP3    H1 7819   2.757   3.575   3.867
 2626TIP3    H2 7820   2.901   3.621   3.884
 2627TIP3   OH2 7821   1.855   0.364   5.628
 2627TIP3    H1 7822   1.762   0.340   5.618
 2627TIP3    H2 7823   1.862   0.451   5.589
 2628TIP3   OH2 7824   0.214   6.452   4.289
 2628TIP3    H1 7825   0.276   6.521   4.312
 2628TIP3    H2 7826   0.201   6.403   4.370
 2629TIP3   OH2 7827   1.943   3.352   3.632
 2629TIP3    H1 7828   2.014   3.367   3.694
 2629TIP3    H2 7829   1.988   3.336   3.548
 2630TIP3   OH2 7830   8.163   3.877   3.201
 2630TIP3    H1 7831   8.242   3.848   3.245
 2630TIP3    H2 7832   8.188   3.881   3.108
 2631TIP3   OH2 7833   0.380   2.634   3.129
 2631TIP3    H1 7834   0.426   2.648   3.212
 2631TIP3    H2 7835   0.343   2.719   3.107
 2632TIP3   OH2 7836   7.201   4.669   3.403
 2632TIP3    H1 7837   7.196   4.614   3.325
 2632TIP3    H2 7838   7.289   4.654   3.437
 2633TIP3   OH2 7839   3.794   3.502   2.118
 2633TIP3    H1 7840   3.725   3.485   2.181
 2633TIP3    H2 7841   3.839   3.418   2.108
 2634TIP3   OH2 7842   5.533   3.377   2.513
 2634TIP3    H1 7843   5.492   3.431   2.580
 2634TIP3    H2 7844   5.560   3.298   2.559
 2635TIP3   OH2 7845   2.186   2.037   5.526
 2635TIP3    H1 7846   2.251   2.086   5.476
 2635TIP3    H2 7847   2.231   2.012   5.606
 2636TIP3   OH2 7848   4.282   3.512   5.507
 2636TIP3    H1 7849   4.230   3.551   5.576
 2636TIP3    H2 7850   4.308   3.585   5.451
 2637TIP3   OH2 7851   1.763   7.613   6.141
 2637TIP3    H1 7852   1.714   7.548   6.091
 2637TIP3    H2 7853   1.749   7.589   6.233
 2638TIP3   OH2 7854   6.433   6.871   1.960
 2638TIP3    H1 7855   6.433   6.826   1.876
 2638TIP3    H2 7856   6.525   6.872   1.987
 2639TIP3   OH2 7857   1.911   7.502   2.806
 2639TIP3    H1 7858   1.818   7.522   2.807
 2639TIP3    H2 7859   1.920   7.427   2.865
 2640TIP3   OH2 7860   7.465   7.363   2.452
 2640TIP3    H1 7861   7.504   7.435   2.402
 2640TIP3    H2 7862   7.432   7.303   2.386
 2641TIP3   OH2 7863   2.593   7.847   3.955
 2641TIP3    H1 7864   2.514   7.830   3.903
 2641TIP3    H2 7865   2.584   7.789   4.031
 2642TIP3   OH2 7866   0.129   0.668   5.558
 2642TIP3    H1 7867   0.182   0.595   5.588
 2642TIP3    H2 7868   0.187   0.719   5.501
 2643TIP3   OH2 7869   0.438   0.353   5.306
 2643TIP3    H1 7870   0.361   0.307   5.342
 2643TIP3    H2 7871   0.405   0.440   5.283
 2644TIP3   OH2 7872   3.057   2.044   0.430
 2644TIP3    H1 7873   3.069   1.972   0.492
 2644TIP3    H2 7874   3.026   2.117   0.484
 2645TIP3   OH2 7875   5.230   6.590   3.216
 2645TIP3    H1 7876   5.236   6.544   3.300
 2645TIP3    H2 7877   5.210   6.521   3.152
 2646TIP3   OH2 7878   1.202   5.534   6.410
 2646TIP3    H1 7879   1.204   5.603   6.476
 2646TIP3    H2 7880   1.294   5.517   6.390
 2647TIP3   OH2 7881   4.790   6.710   0.199
 2647TIP3    H1 7882   4.694   6.710   0.207
 2647TIP3    H2 7883   4.808   6.650   0.127
 2648TIP3   OH2 7884   1.219   6.507   3.052
 2648TIP3    H1 7885   1.253   6.431   3.006
 2648TIP3    H2 7886   1.262   6.506   3.137
 2649TIP3   OH2 7887   8.130   4.833   6.230
 2649TIP3    H1 7888   8.073   4.803   6.159
 2649TIP3    H2 7889   8.100   4.785   6.307
 2650TIP3   OH2 7890   5.728   1.176   1.273
 2650TIP3    H1 7891   5.659   1.205   1.333
 2650TIP3    H2 7892   5.776   1.255   1.251
 2651TIP3   OH2 7893   2.602   7.034   5.678
 2651TIP3    H1 7894   2.525   7.087   5.658
 2651TIP3    H2 7895   2.567   6.950   5.705
 2652TIP3   OH2 7896   4.357   7.183   3.383
 2652TIP3    H1 7897   4.451   7.192   3.374
 2652TIP3    H2 7898   4.345   7.135   3.465
 2653TIP3   OH2 7899   8.122   5.162   4.554
 2653TIP3    H1 7900   8.207   5.146   4.595
 2653TIP3    H2 7901   8.139   5.233   4.492
 2654TIP3   OH2 7902   3.052   1.205   0.020
 2654TIP3    H1 7903   3.034   1.176  -0.070
 2654TIP3    H2 7904   3.069   1.124   0.068
 2655TIP3   OH2 7905   1.687   1.420   0.980
 2655TIP3    H1 7906   1.679   1.384   0.891
 2655TIP3    H2 7907   1.608   1.472   0.991
 2656TIP3   OH2 7908   7.769   3.566   2.277
 2656TIP3    H1 7909   7.862   3.582   2.290
 2656TIP3    H2 7910   7.726   3.642   2.316
 2657TIP3   OH2 7911   1.152   6.899   2.501
 2657TIP3    H1 7912   1.198   6.963   2.446
 2657TIP3    H2 7913   1.185   6.814   2.472
 2658TIP3   OH2 7914   7.022   7.494   1.245
 2658TIP3    H1 7915   6.930   7.473   1.259
 2658TIP3    H2 7916   7.065   7.470   1.327
 2659TIP3   OH2 7917   3.417   1.016   1.392
 2659TIP3    H1 7918   3.350   0.972   1.444
 2659TIP3    H2 7919   3.400   1.109   1.403
 2660TIP3   OH2 7920   8.102   2.159   6.311
 2660TIP3    H1 7921   8.087   2.080   6.259
 2660TIP3    H2 7922   8.026   2.164   6.370
 2661TIP3   OH2 7923   0.877   5.936   4.211
 2661TIP3    H1 7924   0.848   6.000   4.277
 2661TIP3    H2 7925   0.796   5.903   4.173
 2662TIP3   OH2 7926   7.144   3.249   4.280
 2662TIP3    H1 7927   7.050   3.251   4.259
 2662TIP3    H2 7928   7.160   3.332   4.326
 2663TIP3   OH2 7929   4.224   4.740   3.665
 2663TIP3    H1 7930   4.173   4.698   3.735
 2663TIP3    H2 7931   4.271   4.668   3.623
 2664TIP3   OH2 7932   6.649   6.608   1.753
 2664TIP3    H1 7933   6.701   6.564   1.686
 2664TIP3    H2 7934   6.705   6.611   1.830
 2665TIP3   OH2 7935   5.316   4.820   4.940
 2665TIP3    H1 7936   5.270   4.890   4.894
 2665TIP3    H2 7937   5.249   4.781   4.997
 2666TIP3   OH2 7938   6.353   5.262   0.029
 2666TIP3    H1 7939   6.330   5.347   0.065
 2666TIP3    H2 7940   6.269   5.220   0.011
 2667TIP3   OH2 7941   1.565   5.421   3.047
 2667TIP3    H1 7942   1.475   5.409   3.077
 2667TIP3    H2 7943   1.557   5.446   2.954
 2668TIP3   OH2 7944   3.876   6.336   2.056
 2668TIP3    H1 7945   3.965   6.304   2.040
 2668TIP3    H2 7946   3.822   6.257   2.056
 2669TIP3   OH2 7947   0.741   6.781   6.382
 2669TIP3    H1 7948   0.716   6.844   6.314
 2669TIP3    H2 7949   0.831   6.806   6.406
 2670TIP3   OH2 7950   7.123   6.750   3.195
 2670TIP3    H1 7951   7.166   6.806   3.260
 2670TIP3    H2 7952   7.052   6.706   3.243
 2671TIP3   OH2 7953   2.602   3.572   0.342
 2671TIP3    H1 7954   2.680   3.623   0.324
 2671TIP3    H2 7955   2.630   3.509   0.408
 2672TIP3   OH2 7956   7.082   1.861   5.715
 2672TIP3    H1 7957   7.140   1.785   5.708
 2672TIP3    H2 7958   7.141   1.936   5.710
 2673TIP3   OH2 7959   1.379   6.746   0.815
 2673TIP3    H1 7960   1.288   6.743   0.785
 2673TIP3    H2 7961   1.374   6.728   0.909
 2674TIP3   OH2 7962   7.414   6.736   1.389
 2674TIP3    H1 7963   7.326   6.752   1.355
 2674TIP3    H2 7964   7.422   6.794   1.465
 2675TIP3   OH2 7965   2.357   6.973   4.568
 2675TIP3    H1 7966   2.431   6.913   4.566
 2675TIP3    H2 7967   2.383   7.045   4.511
 2676TIP3   OH2 7968   3.234   1.752   1.359
 2676TIP3    H1 7969   3.153   1.801   1.352
 2676TIP3    H2 7970   3.289   1.786   1.289
 2677TIP3   OH2 7971   0.261   2.517   1.297
 2677TIP3    H1 7972   0.205   2.595   1.291
 2677TIP3    H2 7973   0.211   2.449   1.253
 2678TIP3   OH2 7974   3.344   2.938   4.871
 2678TIP3    H1 7975   3.339   2.869   4.937
 2678TIP3    H2 7976   3.437   2.958   4.865
 2679TIP3   OH2 7977   0.011   3.211   0.222
 2679TIP3    H1 7978   0.092   3.225   0.172
 2679TIP3    H2 7979  -0.052   3.271   0.183
 2680TIP3   OH2 7980   1.680   3.506   2.888
 2680TIP3    H1 7981   1.611   3.450   2.922
 2680TIP3    H2 7982   1.644   3.542   2.807
 2681TIP3   OH2 7983   1.587   3.318   5.238
 2681TIP3    H1 7984   1.508   3.304   5.185
 2681TIP3    H2 7985   1.659   3.314   5.174
 2682TIP3   OH2 7986   1.986   6.399   3.089
 2682TIP3    H1 7987   1.906   6.408   3.141
 2682TIP3    H2 7988   2.021   6.314   3.114
 2683TIP3   OH2 7989   4.481   3.226   2.120
 2683TIP3    H1 7990   4.454   3.147   2.167
 2683TIP3    H2 7991   4.549   3.265   2.175
 2684TIP3   OH2 7992   8.072   4.942   0.279
 2684TIP3    H1 7993   8.096   5.033   0.266
 2684TIP3    H2 7994   8.151   4.901   0.316
 2685TIP3   OH2 7995   5.580   4.422   0.183
 2685TIP3    H1 7996   5.658   4.440   0.131
 2685TIP3    H2 7997   5.605   4.349   0.240
 2686TIP3   OH2 7998   4.842   0.372   5.896
 2686TIP3    H1 7999   4.754   0.339   5.877
 2686TIP3    H2 8000   4.828   0.460   5.930
 2687TIP3   OH2 8001   1.592   6.196   2.469
 2687TIP3    H1 8002   1.649   6.120   2.479
 2687TIP3    H2 8003   1.636   6.266   2.518
 2688TIP3   OH2 8004   4.127   5.399   1.954
 2688TIP3    H1 8005   4.184   5.325   1.975
 2688TIP3    H2 8006   4.099   5.433   2.040
 2689TIP3   OH2 8007   4.598   1.040   0.542
 2689TIP3    H1 8008   4.623   1.102   0.473
 2689TIP3    H2 8009   4.650   1.067   0.618
 2690TIP3   OH2 8010   4.417   3.304   4.125
 2690TIP3    H1 8011   4.348   3.248   4.162
 2690TIP3    H2 8012   4.406   3.296   4.031
 2691TIP3   OH2 8013   1.007   7.368   2.450
 2691TIP3    H1 8014   1.011   7.449   2.501
 2691TIP3    H2 8015   1.085   7.319   2.476
 2692TIP3   OH2 8016   2.254   6.215   5.853
 2692TIP3    H1 8017   2.312   6.171   5.915
 2692TIP3    H2 8018   2.288   6.191   5.767
 2693TIP3   OH2 8019   7.808   3.439   4.706
 2693TIP3    H1 8020   7.823   3.432   4.800
 2693TIP3    H2 8021   7.878   3.386   4.666
 2694TIP3   OH2 8022   1.565   6.429   0.959
 2694TIP3    H1 8023   1.597   6.519   0.954
 2694TIP3    H2 8024   1.640   6.378   0.988
 2695TIP3   OH2 8025   4.508   3.384   2.598
 2695TIP3    H1 8026   4.432   3.425   2.558
 2695TIP3    H2 8027   4.540   3.322   2.533
 2696TIP3   OH2 8028   2.058   0.770   6.657
 2696TIP3    H1 8029   2.142   0.760   6.613
 2696TIP3    H2 8030   2.023   0.852   6.623
 2697TIP3   OH2 8031   0.597   1.433   6.010
 2697TIP3    H1 8032   0.595   1.342   5.979
 2697TIP3    H2 8033   0.564   1.485   5.937
 2698TIP3   OH2 8034   8.150   7.916   5.591
 2698TIP3    H1 8035   8.196   7.866   5.523
 2698TIP3    H2 8036   8.107   7.849   5.645
 2699TIP3   OH2 8037   2.473   3.139   1.438
 2699TIP3    H1 8038   2.421   3.209   1.477
 2699TIP3    H2 8039   2.416   3.062   1.442
 2700TIP3   OH2 8040   4.964   7.558   6.005
 2700TIP3    H1 8041   4.890   7.558   6.065
 2700TIP3    H2 8042   5.033   7.607   6.051
 2701TIP3   OH2 8043   7.360   2.778   4.586
 2701TIP3    H1 8044   7.265   2.787   4.587
 2701TIP3    H2 8045   7.392   2.862   4.553
 2702TIP3   OH2 8046   4.011   6.822   3.063
 2702TIP3    H1 8047   3.921   6.848   3.084
 2702TIP3    H2 8048   4.064   6.898   3.085
 2703TIP3   OH2 8049   5.381   4.960   2.254
 2703TIP3    H1 8050   5.337   5.001   2.179
 2703TIP3    H2 8051   5.417   4.878   2.219
 2704TIP3   OH2 8052   5.162   7.075   3.521
 2704TIP3    H1 8053   5.182   6.997   3.469
 2704TIP3    H2 8054   5.115   7.133   3.461
 2705TIP3   OH2 8055   0.489   4.868   2.102
 2705TIP3    H1 8056   0.481   4.859   2.197
 2705TIP3    H2 8057   0.529   4.786   2.074
 2706TIP3   OH2 8058   5.203   3.993   2.846
 2706TIP3    H1 8059   5.158   3.918   2.806
 2706TIP3    H2 8060   5.264   4.022   2.778
 2707TIP3   OH2 8061   1.497   2.505   6.099
 2707TIP3    H1 8062   1.500   2.579   6.160
 2707TIP3    H2 8063   1.511   2.428   6.154
 2708TIP3   OH2 8064   6.220   3.913   3.291
 2708TIP3    H1 8065   6.231   3.957   3.375
 2708TIP3    H2 8066   6.309   3.893   3.262
 2709TIP3   OH2 8067   8.296   0.758   1.124
 2709TIP3    H1 8068   8.225   0.753   1.060
 2709TIP3    H2 8069   8.376   0.742   1.073
 2710TIP3   OH2 8070   0.357   2.552   0.364
 2710TIP3    H1 8071   0.308   2.472   0.383
 2710TIP3    H2 8072   0.312   2.591   0.289
 2711TIP3   OH2 8073   4.229   6.943   1.244
 2711TIP3    H1 8074   4.210   6.957   1.151
 2711TIP3    H2 8075   4.261   7.028   1.275
 2712TIP3   OH2 8076   3.414   4.613   0.370
 2712TIP3    H1 8077   3.483   4.660   0.324
 2712TIP3    H2 8078   3.457   4.536   0.407
 2713TIP3   OH2 8079   2.855   2.415   0.958
 2713TIP3    H1 8080   2.850   2.503   0.922
 2713TIP3    H2 8081   2.833   2.358   0.884
 2714TIP3   OH2 8082   0.976   7.655   5.353
 2714TIP3    H1 8083   0.984   7.750   5.366
 2714TIP3    H2 8084   0.987   7.643   5.259
 2715TIP3   OH2 8085   1.455   4.520   5.007
 2715TIP3    H1 8086   1.532   4.551   5.055
 2715TIP3    H2 8087   1.484   4.439   4.966
 2716TIP3   OH2 8088   7.078   1.958   0.621
 2716TIP3    H1 8089   7.133   1.932   0.547
 2716TIP3    H2 8090   7.140   1.992   0.686
 2717TIP3   OH2 8091   4.883   2.384   6.279
 2717TIP3    H1 8092   4.827   2.398   6.202
 2717TIP3    H2 8093   4.972   2.397   6.246
 2718TIP3   OH2 8094   0.554   1.168   5.934
 2718TIP3    H1 8095   0.527   1.166   5.843
 2718TIP3    H2 8096   0.517   1.089   5.973
 2719TIP3   OH2 8097   3.139   5.636   0.436
 2719TIP3    H1 8098   3.149   5.641   0.341
 2719TIP3    H2 8099   3.188   5.711   0.469
 2720TIP3   OH2 8100   3.417   4.132   2.428
 2720TIP3    H1 8101   3.483   4.097   2.487
 2720TIP3    H2 8102   3.394   4.059   2.371
 2721TIP3   OH2 8103   7.526   7.801   0.402
 2721TIP3    H1 8104   7.541   7.851   0.322
 2721TIP3    H2 8105   7.468   7.730   0.376
 2722TIP3   OH2 8106   1.028   6.654   0.677
 2722TIP3    H1 8107   0.939   6.690   0.673
 2722TIP3    H2 8108   1.047   6.649   0.771
 2723TIP3   OH2 8109   2.426   2.659   4.934
 2723TIP3    H1 8110   2.506   2.710   4.952
 2723TIP3    H2 8111   2.415   2.666   4.839
 2724TIP3   OH2 8112   6.035   0.179   6.786
 2724TIP3    H1 8113   6.115   0.141   6.822
 2724TIP3    H2 8114   5.980   0.197   6.862
 2725TIP3   OH2 8115   4.222   5.834   6.240
 2725TIP3    H1 8116   4.279   5.825   6.164
 2725TIP3    H2 8117   4.140   5.868   6.206
 2726TIP3   OH2 8118   5.427   2.610   5.270
 2726TIP3    H1 8119   5.361   2.539   5.271
 2726TIP3    H2 8120   5.375   2.690   5.271
 2727TIP3   OH2 8121   0.383   1.115   0.999
 2727TIP3    H1 8122   0.378   1.103   1.094
 2727TIP3    H2 8123   0.336   1.198   0.984
 2728TIP3   OH2 8124   4.391   1.999   5.291
 2728TIP3    H1 8125   4.353   2.030   5.209
 2728TIP3    H2 8126   4.472   1.956   5.265
 2729TIP3   OH2 8127   0.253   6.830   6.366
 2729TIP3    H1 8128   0.233   6.887   6.440
 2729TIP3    H2 8129   0.336   6.788   6.389
 2730TIP3   OH2 8130   1.683   3.988   1.595
 2730TIP3    H1 8131   1.683   4.077   1.629
 2730TIP3    H2 8132   1.595   3.976   1.559
 2731TIP3   OH2 8133   7.035   5.057   2.298
 2731TIP3    H1 8134   6.992   5.004   2.365
 2731TIP3    H2 8135   7.127   5.060   2.325
 2732TIP3   OH2 8136   1.542   6.959   6.532
 2732TIP3    H1 8137   1.589   6.901   6.591
 2732TIP3    H2 8138   1.607   7.023   6.503
 2733TIP3   OH2 8139   6.645   3.939   0.237
 2733TIP3    H1 8140   6.703   3.866   0.260
 2733TIP3    H2 8141   6.703   4.014   0.226
 2734TIP3   OH2 8142   7.183   5.178   3.750
 2734TIP3    H1 8143   7.242   5.246   3.781
 2734TIP3    H2 8144   7.164   5.201   3.659
 2735TIP3   OH2 8145   6.868   2.099   3.093
 2735TIP3    H1 8146   6.902   2.040   3.026
 2735TIP3    H2 8147   6.867   2.046   3.173
 2736TIP3   OH2 8148   7.417   0.215   2.308
 2736TIP3    H1 8149   7.448   0.302   2.332
 2736TIP3    H2 8150   7.331   0.208   2.348
 2737TIP3   OH2 8151   1.547   7.139   0.900
 2737TIP3    H1 8152   1.461   7.130   0.859
 2737TIP3    H2 8153   1.575   7.050   0.918
 2738TIP3   OH2 8154   4.144   1.213   3.318
 2738TIP3    H1 8155   4.150   1.150   3.246
 2738TIP3    H2 8156   4.208   1.181   3.382
 2739TIP3   OH2 8157   4.734   5.049   1.746
 2739TIP3    H1 8158   4.816   5.055   1.697
 2739TIP3    H2 8159   4.758   5.072   1.835
 2740TIP3   OH2 8160   5.869   6.779   4.003
 2740TIP3    H1 8161   5.852   6.705   4.062
 2740TIP3    H2 8162   5.802   6.843   4.025
 2741TIP3   OH2 8163   3.513   4.773   2.773
 2741TIP3    H1 8164   3.565   4.715   2.717
 2741TIP3    H2 8165   3.531   4.744   2.862
 2742TIP3   OH2 8166   2.696   1.842   6.759
 2742TIP3    H1 8167   2.724   1.820   6.848
 2742TIP3    H2 8168   2.769   1.892   6.722
 2743TIP3   OH2 8169   7.229   5.930   6.428
 2743TIP3    H1 8170   7.227   5.937   6.523
 2743TIP3    H2 8171   7.154   5.875   6.406
 2744TIP3   OH2 8172   3.477   6.081   2.824
 2744TIP3    H1 8173   3.481   6.098   2.918
 2744TIP3    H2 8174   3.553   6.127   2.788
 2745TIP3   OH2 8175   7.843   1.826   1.637
 2745TIP3    H1 8176   7.893   1.779   1.570
 2745TIP3    H2 8177   7.909   1.852   1.702
 2746TIP3   OH2 8178   3.494   0.511   6.751
 2746TIP3    H1 8179   3.534   0.596   6.731
 2746TIP3    H2 8180   3.479   0.471   6.665
 2747TIP3   OH2 8181   0.825   1.556   5.480
 2747TIP3    H1 8182   0.807   1.462   5.475
 2747TIP3    H2 8183   0.875   1.566   5.561
 2748TIP3   OH2 8184   7.395   7.272   1.223
 2748TIP3    H1 8185   7.310   7.258   1.181
 2748TIP3    H2 8186   7.390   7.362   1.255
 2749TIP3   OH2 8187   8.112   6.415   3.064
 2749TIP3    H1 8188   8.053   6.483   3.030
 2749TIP3    H2 8189   8.057   6.337   3.072
 2750TIP3   OH2 8190   2.438   4.913   0.557
 2750TIP3    H1 8191   2.421   4.873   0.642
 2750TIP3    H2 8192   2.532   4.903   0.543
 2751TIP3   OH2 8193   5.062   1.294   5.763
 2751TIP3    H1 8194   5.110   1.358   5.710
 2751TIP3    H2 8195   4.972   1.325   5.762
 2752TIP3   OH2 8196   8.278   7.817   1.751
 2752TIP3    H1 8197   8.248   7.729   1.774
 2752TIP3    H2 8198   8.334   7.804   1.675
 2753TIP3   OH2 8199   2.296   1.327   2.981
 2753TIP3    H1 8200   2.318   1.309   2.889
 2753TIP3    H2 8201   2.200   1.323   2.983
 2754TIP3   OH2 8202   2.779   3.776   0.280
 2754TIP3    H1 8203   2.718   3.816   0.217
 2754TIP3    H2 8204   2.823   3.850   0.322
 2755TIP3   OH2 8205   5.439   5.430   5.979
 2755TIP3    H1 8206   5.435   5.490   5.904
 2755TIP3    H2 8207   5.516   5.375   5.962
 2756TIP3   OH2 8208   8.021   4.546   2.871
 2756TIP3    H1 8209   8.075   4.467   2.876
 2756TIP3    H2 8210   8.013   4.574   2.962
 2757TIP3   OH2 8211   7.335   7.426   2.209
 2757TIP3    H1 8212   7.246   7.454   2.188
 2757TIP3    H2 8213   7.384   7.508   2.217
 2758TIP3   OH2 8214   0.327   1.030   4.659
 2758TIP3    H1 8215   0.392   1.097   4.681
 2758TIP3    H2 8216   0.283   1.065   4.582
 2759TIP3   OH2 8217   5.319   1.091   1.049
 2759TIP3    H1 8218   5.395   1.037   1.072
 2759TIP3    H2 8219   5.346   1.180   1.069
 2760TIP3   OH2 8220   4.277   7.334   1.275
 2760TIP3    H1 8221   4.335   7.404   1.245
 2760TIP3    H2 8222   4.336   7.264   1.303
 2761TIP3   OH2 8223   2.862   1.925   3.551
 2761TIP3    H1 8224   2.825   1.999   3.503
 2761TIP3    H2 8225   2.787   1.867   3.569
 2762TIP3   OH2 8226   6.904   3.946   6.289
 2762TIP3    H1 8227   6.925   3.997   6.367
 2762TIP3    H2 8228   6.962   3.870   6.294
 2763TIP3   OH2 8229   6.062   3.497   6.499
 2763TIP3    H1 8230   6.003   3.518   6.572
 2763TIP3    H2 8231   6.033   3.412   6.468
 2764TIP3   OH2 8232   7.481   7.755   3.390
 2764TIP3    H1 8233   7.395   7.776   3.355
 2764TIP3    H2 8234   7.476   7.778   3.483
 2765TIP3   OH2 8235   5.190   2.426   6.595
 2765TIP3    H1 8236   5.210   2.384   6.511
 2765TIP3    H2 8237   5.174   2.518   6.573
 2766TIP3   OH2 8238   7.461   7.816   2.435
 2766TIP3    H1 8239   7.441   7.761   2.359
 2766TIP3    H2 8240   7.399   7.889   2.428
 2767TIP3   OH2 8241   5.320   3.021   3.483
 2767TIP3    H1 8242   5.385   3.015   3.553
 2767TIP3    H2 8243   5.260   2.947   3.499
 2768TIP3   OH2 8244   7.215   6.408   1.494
 2768TIP3    H1 8245   7.227   6.499   1.520
 2768TIP3    H2 8246   7.265   6.358   1.559
 2769TIP3   OH2 8247   7.387   6.562   1.948
 2769TIP3    H1 8248   7.406   6.648   1.986
 2769TIP3    H2 8249   7.414   6.570   1.856
 2770TIP3   OH2 8250   4.802   4.665   4.362
 2770TIP3    H1 8251   4.797   4.760   4.375
 2770TIP3    H2 8252   4.815   4.655   4.268
 2771TIP3   OH2 8253   2.352   1.531   3.994
 2771TIP3    H1 8254   2.319   1.454   3.948
 2771TIP3    H2 8255   2.328   1.517   4.085
 2772TIP3   OH2 8256   8.002   4.974   0.999
 2772TIP3    H1 8257   7.990   4.993   1.092
 2772TIP3    H2 8258   7.990   4.880   0.991
 2773TIP3   OH2 8259   3.926   0.382   5.457
 2773TIP3    H1 8260   3.958   0.430   5.533
 2773TIP3    H2 8261   3.864   0.441   5.415
 2774TIP3   OH2 8262   1.266   1.329   3.780
 2774TIP3    H1 8263   1.285   1.334   3.874
 2774TIP3    H2 8264   1.171   1.332   3.775
 2775TIP3   OH2 8265   1.288   6.496   0.959
 2775TIP3    H1 8266   1.300   6.528   1.048
 2775TIP3    H2 8267   1.374   6.460   0.935
 2776TIP3   OH2 8268   4.961   6.428   0.450
 2776TIP3    H1 8269   5.025   6.484   0.406
 2776TIP3    H2 8270   4.974   6.445   0.543
 2777TIP3   OH2 8271   4.479   2.314   4.201
 2777TIP3    H1 8272   4.542   2.362   4.146
 2777TIP3    H2 8273   4.393   2.342   4.169
 2778TIP3   OH2 8274   7.788   4.188   4.841
 2778TIP3    H1 8275   7.880   4.213   4.827
 2778TIP3    H2 8276   7.777   4.194   4.936
 2779TIP3   OH2 8277   4.163   3.666   6.689
 2779TIP3    H1 8278   4.194   3.601   6.626
 2779TIP3    H2 8279   4.142   3.614   6.767
 2780TIP3   OH2 8280   3.019   1.228   5.658
 2780TIP3    H1 8281   3.113   1.209   5.651
 2780TIP3    H2 8282   2.976   1.143   5.650
 2781TIP3   OH2 8283   5.974   4.482   1.181
 2781TIP3    H1 8284   5.899   4.449   1.132
 2781TIP3    H2 8285   5.938   4.549   1.239
 2782TIP3   OH2 8286   4.498   2.066   1.766
 2782TIP3    H1 8287   4.518   2.005   1.696
 2782TIP3    H2 8288   4.558   2.140   1.752
 2783TIP3   OH2 8289   8.185   6.402   3.610
 2783TIP3    H1 8290   8.191   6.413   3.705
 2783TIP3    H2 8291   8.091   6.393   3.593
 2784TIP3   OH2 8292   4.848   3.927   1.095
 2784TIP3    H1 8293   4.822   3.849   1.046
 2784TIP3    H2 8294   4.828   4.000   1.036
 2785TIP3   OH2 8295   5.686   1.910   6.169
 2785TIP3    H1 8296   5.706   1.977   6.234
 2785TIP3    H2 8297   5.592   1.917   6.154
 2786TIP3   OH2 8298   2.311   3.013   6.823
 2786TIP3    H1 8299   2.338   2.929   6.785
 2786TIP3    H2 8300   2.392   3.049   6.860
 2787TIP3   OH2 8301   0.127   1.365   4.580
 2787TIP3    H1 8302   0.158   1.279   4.552
 2787TIP3    H2 8303   0.039   1.372   4.545
 2788TIP3   OH2 8304   1.274   1.852   1.428
 2788TIP3    H1 8305   1.254   1.879   1.338
 2788TIP3    H2 8306   1.195   1.807   1.458
 2789TIP3   OH2 8307   1.581   6.328   3.707
 2789TIP3    H1 8308   1.489   6.332   3.681
 2789TIP3    H2 8309   1.619   6.409   3.674
 2790TIP3   OH2 8310   4.287   5.172   5.032
 2790TIP3    H1 8311   4.273   5.228   4.956
 2790TIP3    H2 8312   4.331   5.095   4.999
 2791TIP3   OH2 8313   5.965   6.566   0.317
 2791TIP3    H1 8314   5.901   6.595   0.252
 2791TIP3    H2 8315   6.049   6.572   0.272
 2792TIP3   OH2 8316   0.582   4.504   4.661
 2792TIP3    H1 8317   0.528   4.496   4.582
 2792TIP3    H2 8318   0.606   4.597   4.664
 2793TIP3   OH2 8319   0.217   7.623   5.233
 2793TIP3    H1 8320   0.228   7.578   5.317
 2793TIP3    H2 8321   0.271   7.701   5.241
 2794TIP3   OH2 8322   1.180   2.493   1.244
 2794TIP3    H1 8323   1.089   2.521   1.234
 2794TIP3    H2 8324   1.219   2.505   1.157
 2795TIP3   OH2 8325   7.110   5.024   3.051
 2795TIP3    H1 8326   7.045   4.998   3.116
 2795TIP3    H2 8327   7.153   4.942   3.026
 2796TIP3   OH2 8328   5.505   7.297   2.367
 2796TIP3    H1 8329   5.510   7.270   2.275
 2796TIP3    H2 8330   5.596   7.296   2.396
 2797TIP3   OH2 8331   1.448   6.376   2.315
 2797TIP3    H1 8332   1.495   6.302   2.354
 2797TIP3    H2 8333   1.358   6.346   2.307
 2798TIP3   OH2 8334   4.631   7.410   5.586
 2798TIP3    H1 8335   4.631   7.497   5.547
 2798TIP3    H2 8336   4.708   7.366   5.548
 2799TIP3   OH2 8337   3.891   5.744   3.375
 2799TIP3    H1 8338   3.911   5.667   3.428
 2799TIP3    H2 8339   3.976   5.773   3.342
 2800TIP3   OH2 8340   5.719   3.408   0.217
 2800TIP3    H1 8341   5.696   3.342   0.151
 2800TIP3    H2 8342   5.752   3.482   0.167
 2801TIP3   OH2 8343   5.038   1.008   5.695
 2801TIP3    H1 8344   5.045   1.098   5.727
 2801TIP3    H2 8345   5.121   0.967   5.721
 2802TIP3   OH2 8346   2.472   4.572   1.027
 2802TIP3    H1 8347   2.433   4.609   0.949
 2802TIP3    H2 8348   2.434   4.484   1.034
 2803TIP3   OH2 8349   7.556   4.613   2.071
 2803TIP3    H1 8350   7.651   4.629   2.071
 2803TIP3    H2 8351   7.548   4.519   2.089
 2804TIP3   OH2 8352   2.873   5.145   3.276
 2804TIP3    H1 8353   2.847   5.127   3.366
 2804TIP3    H2 8354   2.838   5.233   3.258
 2805TIP3   OH2 8355   4.648   0.554   2.644
 2805TIP3    H1 8356   4.618   0.472   2.606
 2805TIP3    H2 8357   4.718   0.529   2.704
 2806TIP3   OH2 8358   5.561   4.373   0.573
 2806TIP3    H1 8359   5.582   4.317   0.499
 2806TIP3    H2 8360   5.494   4.433   0.540
 2807TIP3   OH2 8361   7.588   3.271   5.027
 2807TIP3    H1 8362   7.521   3.278   4.958
 2807TIP3    H2 8363   7.546   3.221   5.096
 2808TIP3   OH2 8364   5.716   5.287   3.021
 2808TIP3    H1 8365   5.777   5.338   3.076
 2808TIP3    H2 8366   5.709   5.203   3.065
 2809TIP3   OH2 8367   7.187   0.567   2.280
 2809TIP3    H1 8368   7.161   0.552   2.371
 2809TIP3    H2 8369   7.105   0.571   2.231
 2810TIP3   OH2 8370   1.389   3.903   4.928
 2810TIP3    H1 8371   1.397   3.929   5.019
 2810TIP3    H2 8372   1.300   3.928   4.903
 2811TIP3   OH2 8373   1.732   7.126   1.953
 2811TIP3    H1 8374   1.672   7.085   1.891
 2811TIP3    H2 8375   1.705   7.092   2.039
 2812TIP3   OH2 8376   7.438   1.283   5.842
 2812TIP3    H1 8377   7.401   1.287   5.931
 2812TIP3    H2 8378   7.462   1.192   5.830
 2813TIP3   OH2 8379   1.509   4.489   0.397
 2813TIP3    H1 8380   1.448   4.553   0.361
 2813TIP3    H2 8381   1.576   4.479   0.330
 2814TIP3   OH2 8382   6.510   7.602   2.134
 2814TIP3    H1 8383   6.579   7.655   2.096
 2814TIP3    H2 8384   6.436   7.612   2.075
 2815TIP3   OH2 8385   2.499   2.604   2.827
 2815TIP3    H1 8386   2.554   2.593   2.749
 2815TIP3    H2 8387   2.551   2.658   2.886
 2816TIP3   OH2 8388   0.576   0.916   5.091
 2816TIP3    H1 8389   0.630   0.988   5.059
 2816TIP3    H2 8390   0.614   0.894   5.176
 2817TIP3   OH2 8391   2.204   7.597   0.838
 2817TIP3    H1 8392   2.119   7.558   0.859
 2817TIP3    H2 8393   2.257   7.524   0.805
 2818TIP3   OH2 8394   1.678   1.352   3.435
 2818TIP3    H1 8395   1.671   1.275   3.378
 2818TIP3    H2 8396   1.638   1.423   3.384
 2819TIP3   OH2 8397   8.007   4.595   3.898
 2819TIP3    H1 8398   7.939   4.655   3.929
 2819TIP3    H2 8399   7.988   4.513   3.944
 2820TIP3   OH2 8400   6.655   3.257   3.205
 2820TIP3    H1 8401   6.726   3.305   3.247
 2820TIP3    H2 8402   6.605   3.219   3.278
 2821TIP3   OH2 8403   1.326   7.021   6.399
 2821TIP3    H1 8404   1.289   7.098   6.442
 2821TIP3    H2 8405   1.404   7.000   6.451
 2822TIP3   OH2 8406   2.050   0.159   5.681
 2822TIP3    H1 8407   2.035   0.109   5.600
 2822TIP3    H2 8408   1.983   0.228   5.679
 2823TIP3   OH2 8409   2.181   4.686   4.206
 2823TIP3    H1 8410   2.207   4.600   4.174
 2823TIP3    H2 8411   2.154   4.671   4.297
 2824TIP3   OH2 8412   1.361   2.101   0.740
 2824TIP3    H1 8413   1.438   2.066   0.785
 2824TIP3    H2 8414   1.299   2.120   0.810
 2825TIP3   OH2 8415   5.614   3.011   5.190
 2825TIP3    H1 8416   5.599   3.082   5.253
 2825TIP3    H2 8417   5.633   2.935   5.244
 2826TIP3   OH2 8418   0.142   0.494   6.494
 2826TIP3    H1 8419   0.190   0.563   6.539
 2826TIP3    H2 8420   0.185   0.413   6.521
 2827TIP3   OH2 8421   1.755   3.209   2.151
 2827TIP3    H1 8422   1.761   3.269   2.077
 2827TIP3    H2 8423   1.663   3.213   2.179
 2828TIP3   OH2 8424   3.927   5.103   5.054
 2828TIP3    H1 8425   4.019   5.127   5.047
 2828TIP3    H2 8426   3.920   5.062   5.140
 2829TIP3   OH2 8427   5.638   1.850   2.391
 2829TIP3    H1 8428   5.709   1.888   2.339
 2829TIP3    H2 8429   5.589   1.925   2.424
 2830TIP3   OH2 8430   4.466   6.909   3.815
 2830TIP3    H1 8431   4.519   6.834   3.843
 2830TIP3    H2 8432   4.522   6.985   3.831
 2831TIP3   OH2 8433   1.273   7.845   4.561
 2831TIP3    H1 8434   1.211   7.827   4.490
 2831TIP3    H2 8435   1.250   7.783   4.630
 2832TIP3   OH2 8436  -0.001   1.491   5.697
 2832TIP3    H1 8437   0.023   1.582   5.711
 2832TIP3    H2 8438   0.014   1.476   5.604
 2833TIP3   OH2 8439   5.566   5.937   0.863
 2833TIP3    H1 8440   5.522   5.861   0.901
 2833TIP3    H2 8441   5.642   5.953   0.919
 2834TIP3   OH2 8442   1.912   5.274   2.159
 2834TIP3    H1 8443   1.890   5.240   2.246
 2834TIP3    H2 8444   1.966   5.206   2.119
 2835TIP3   OH2 8445   3.441   1.816   1.174
 2835TIP3    H1 8446   3.508   1.768   1.223
 2835TIP3    H2 8447   3.480   1.828   1.087
 2836TIP3   OH2 8448   6.919   4.228   1.176
 2836TIP3    H1 8449   6.856   4.222   1.103
 2836TIP3    H2 8450   6.942   4.320   1.181
 2837TIP3   OH2 8451   4.935   4.606   3.871
 2837TIP3    H1 8452   4.955   4.685   3.820
 2837TIP3    H2 8453   4.863   4.565   3.824
 2838TIP3   OH2 8454   2.921   3.114   1.554
 2838TIP3    H1 8455   2.943   3.023   1.573
 2838TIP3    H2 8456   2.859   3.110   1.482
 2839TIP3   OH2 8457   5.183   6.972   3.993
 2839TIP3    H1 8458   5.245   6.901   4.010
 2839TIP3    H2 8459   5.226   7.026   3.926
 2840TIP3   OH2 8460   1.163   5.253   4.773
 2840TIP3    H1 8461   1.193   5.298   4.694
 2840TIP3    H2 8462   1.243   5.216   4.810
 2841TIP3   OH2 8463   2.779   4.943   0.009
 2841TIP3    H1 8464   2.691   4.967   0.038
 2841TIP3    H2 8465   2.831   5.023   0.022
 2842TIP3   OH2 8466   7.607   1.814   1.996
 2842TIP3    H1 8467   7.517   1.790   1.972
 2842TIP3    H2 8468   7.610   1.909   1.988
 2843TIP3   OH2 8469   4.842   2.110   1.914
 2843TIP3    H1 8470   4.787   2.185   1.893
 2843TIP3    H2 8471   4.880   2.083   1.830
 2844TIP3   OH2 8472   5.542   7.640   6.271
 2844TIP3    H1 8473   5.472   7.607   6.214
 2844TIP3    H2 8474   5.622   7.628   6.220
 2845TIP3   OH2 8475   6.743   5.411   5.121
 2845TIP3    H1 8476   6.723   5.434   5.030
 2845TIP3    H2 8477   6.753   5.495   5.165
 2846TIP3   OH2 8478   4.375   4.748   0.116
 2846TIP3    H1 8479   4.463   4.712   0.126
 2846TIP3    H2 8480   4.327   4.682   0.066
 2847TIP3   OH2 8481   4.183   0.957   1.657
 2847TIP3    H1 8482   4.164   0.958   1.564
 2847TIP3    H2 8483   4.269   0.914   1.664
 2848TIP3   OH2 8484   5.018   7.371   4.802
 2848TIP3    H1 8485   5.016   7.452   4.750
 2848TIP3    H2 8486   4.967   7.392   4.880
 2849TIP3   OH2 8487   4.015   0.586   2.676
 2849TIP3    H1 8488   4.048   0.529   2.607
 2849TIP3    H2 8489   3.940   0.630   2.638
 2850TIP3   OH2 8490   2.891   0.476   2.348
 2850TIP3    H1 8491   2.948   0.420   2.401
 2850TIP3    H2 8492   2.852   0.417   2.284
 2851TIP3   OH2 8493   1.207   6.703   1.851
 2851TIP3    H1 8494   1.227   6.654   1.931
 2851TIP3    H2 8495   1.132   6.658   1.812
 2852TIP3   OH2 8496   3.983   5.054   2.725
 2852TIP3    H1 8497   4.062   5.104   2.706
 2852TIP3    H2 8498   3.962   5.074   2.816
 2853TIP3   OH2 8499   1.421   5.563   5.119
 2853TIP3    H1 8500   1.392   5.552   5.028
 2853TIP3    H2 8501   1.431   5.657   5.129
 2854TIP3   OH2 8502   1.056   0.065   3.222
 2854TIP3    H1 8503   1.033   0.010   3.147
 2854TIP3    H2 8504   1.041   0.155   3.192
 2855TIP3   OH2 8505   2.298   6.806   6.143
 2855TIP3    H1 8506   2.252   6.888   6.127
 2855TIP3    H2 8507   2.241   6.738   6.106
 2856TIP3   OH2 8508   8.125   1.346   6.439
 2856TIP3    H1 8509   8.157   1.434   6.456
 2856TIP3    H2 8510   8.029   1.354   6.444
 2857TIP3   OH2 8511   7.211   7.554   6.094
 2857TIP3    H1 8512   7.294   7.505   6.089
 2857TIP3    H2 8513   7.223   7.611   6.170
 2858TIP3   OH2 8514   6.828   2.864   6.123
 2858TIP3    H1 8515   6.771   2.837   6.051
 2858TIP3    H2 8516   6.846   2.784   6.172
 2859TIP3   OH2 8517   8.183   6.239   2.205
 2859TIP3    H1 8518   8.170   6.276   2.117
 2859TIP3    H2 8519   8.278   6.239   2.217
 2860TIP3   OH2 8520   5.736   6.567   0.094
 2860TIP3    H1 8521   5.746   6.594   0.002
 2860TIP3    H2 8522   5.648   6.594   0.117
 2861TIP3   OH2 8523   7.387   2.478   2.710
 2861TIP3    H1 8524   7.311   2.470   2.767
 2861TIP3    H2 8525   7.354   2.514   2.629
 2862TIP3   OH2 8526   3.873   3.563   6.802
 2862TIP3    H1 8527   3.792   3.613   6.814
 2862TIP3    H2 8528   3.848   3.488   6.748
 2863TIP3   OH2 8529   7.068   5.620   3.360
 2863TIP3    H1 8530   6.994   5.559   3.367
 2863TIP3    H2 8531   7.135   5.581   3.416
 2864TIP3   OH2 8532   5.530   6.368   3.348
 2864TIP3    H1 8533   5.540   6.337   3.257
 2864TIP3    H2 8534   5.502   6.291   3.396
 2865TIP3   OH2 8535   4.077   3.405   5.912
 2865TIP3    H1 8536   4.038   3.327   5.950
 2865TIP3    H2 8537   4.169   3.400   5.936
 2866TIP3   OH2 8538   6.210  -0.002   0.845
 2866TIP3    H1 8539   6.294  -0.012   0.801
 2866TIP3    H2 8540   6.180   0.086   0.820
 2867TIP3   OH2 8541   7.096   7.268   1.464
 2867TIP3    H1 8542   7.134   7.192   1.420
 2867TIP3    H2 8543   7.022   7.232   1.514
 2868TIP3   OH2 8544   7.057   7.893   1.097
 2868TIP3    H1 8545   7.027   7.911   1.008
 2868TIP3    H2 8546   7.090   7.977   1.129
 2869TIP3   OH2 8547   4.990   0.740   1.362
 2869TIP3    H1 8548   4.904   0.699   1.367
 2869TIP3    H2 8549   4.974   0.826   1.322
 2870TIP3   OH2 8550   2.036   1.922   0.345
 2870TIP3    H1 8551   1.978   1.862   0.299
 2870TIP3    H2 8552   2.120   1.877   0.348
 2871TIP3   OH2 8553   8.375   4.255   5.886
 2871TIP3    H1 8554   8.320   4.323   5.925
 2871TIP3    H2 8555   8.414   4.297   5.809
 2872TIP3   OH2 8556   2.834   2.039   0.038
 2872TIP3    H1 8557   2.792   1.985  -0.029
 2872TIP3    H2 8558   2.831   1.985   0.117
 2873TIP3   OH2 8559   6.527   5.622   1.888
 2873TIP3    H1 8560   6.539   5.694   1.950
 2873TIP3    H2 8561   6.453   5.572   1.922
 2874TIP3   OH2 8562   5.878   4.091   5.448
 2874TIP3    H1 8563   5.817   4.147   5.496
 2874TIP3    H2 8564   5.848   4.095   5.357
 2875TIP3   OH2 8565   3.454   6.413   1.613
 2875TIP3    H1 8566   3.545   6.415   1.585
 2875TIP3    H2 8567   3.446   6.483   1.677
 2876TIP3   OH2 8568   1.818   1.087   5.737
 2876TIP3    H1 8569   1.749   1.108   5.674
 2876TIP3    H2 8570   1.899   1.101   5.688
 2877TIP3   OH2 8571   7.153   5.444   1.419
 2877TIP3    H1 8572   7.221   5.377   1.421
 2877TIP3    H2 8573   7.079   5.403   1.373
 2878TIP3   OH2 8574   6.638   2.634   2.677
 2878TIP3    H1 8575   6.582   2.576   2.730
 2878TIP3    H2 8576   6.608   2.722   2.698
 2879TIP3   OH2 8577   7.771   7.355   2.434
 2879TIP3    H1 8578   7.731   7.409   2.503
 2879TIP3    H2 8579   7.722   7.273   2.436
 2880TIP3   OH2 8580   3.245   6.843   5.293
 2880TIP3    H1 8581   3.181   6.775   5.273
 2880TIP3    H2 8582   3.320   6.822   5.237
 2881TIP3   OH2 8583   2.203   3.221   2.385
 2881TIP3    H1 8584   2.138   3.212   2.315
 2881TIP3    H2 8585   2.209   3.134   2.424
 2882TIP3   OH2 8586   6.526   3.185   4.691
 2882TIP3    H1 8587   6.510   3.251   4.759
 2882TIP3    H2 8588   6.614   3.206   4.659
 2883TIP3   OH2 8589   6.743   2.711   3.964
 2883TIP3    H1 8590   6.665   2.677   3.919
 2883TIP3    H2 8591   6.714   2.726   4.054
 2884TIP3   OH2 8592   6.230   4.047   3.522
 2884TIP3    H1 8593   6.275   3.982   3.577
 2884TIP3    H2 8594   6.174   4.095   3.583
 2885TIP3   OH2 8595   5.569   7.356   4.999
 2885TIP3    H1 8596   5.492   7.303   4.977
 2885TIP3    H2 8597   5.557   7.437   4.949
 2886TIP3   OH2 8598   2.715   2.370   6.110
 2886TIP3    H1 8599   2.668   2.287   6.123
 2886TIP3    H2 8600   2.650   2.437   6.129
 2887TIP3   OH2 8601   0.540   4.608   0.109
 2887TIP3    H1 8602   0.616   4.573   0.062
 2887TIP3    H2 8603   0.577   4.667   0.174
 2888TIP3   OH2 8604   6.355   2.628   4.170
 2888TIP3    H1 8605   6.445   2.597   4.174
 2888TIP3    H2 8606   6.359   2.709   4.120
 2889TIP3   OH2 8607   1.508   2.420   0.824
 2889TIP3    H1 8608   1.529   2.353   0.888
 2889TIP3    H2 8609   1.593   2.451   0.792
 2890TIP3   OH2 8610   1.407   6.335   2.924
 2890TIP3    H1 8611   1.465   6.394   2.876
 2890TIP3    H2 8612   1.358   6.290   2.856
 2891TIP3   OH2 8613   6.308   2.570   2.999
 2891TIP3    H1 8614   6.289   2.498   3.058
 2891TIP3    H2 8615   6.231   2.627   3.004
 2892TIP3   OH2 8616   0.240   4.325   4.805
 2892TIP3    H1 8617   0.147   4.310   4.826
 2892TIP3    H2 8618   0.279   4.352   4.889
 2893TIP3   OH2 8619   4.559   4.042   3.483
 2893TIP3    H1 8620   4.619   4.102   3.529
 2893TIP3    H2 8621   4.544   3.971   3.545
 2894TIP3   OH2 8622   7.652   0.664   3.374
 2894TIP3    H1 8623   7.562   0.634   3.364
 2894TIP3    H2 8624   7.698   0.589   3.412
 2895TIP3   OH2 8625   2.257   3.617   1.220
 2895TIP3    H1 8626   2.223   3.589   1.305
 2895TIP3    H2 8627   2.330   3.558   1.202
 2896TIP3   OH2 8628   5.837   7.822   5.249
 2896TIP3    H1 8629   5.773   7.766   5.205
 2896TIP3    H2 8630   5.865   7.772   5.325
 2897TIP3   OH2 8631   3.249   1.329   2.399
 2897TIP3    H1 8632   3.196   1.336   2.479
 2897TIP3    H2 8633   3.301   1.250   2.412
 2898TIP3   OH2 8634   0.212   4.997   2.308
 2898TIP3    H1 8635   0.208   4.910   2.347
 2898TIP3    H2 8636   0.302   5.026   2.323
 2899TIP3   OH2 8637   1.998   0.532   6.232
 2899TIP3    H1 8638   1.928   0.559   6.173
 2899TIP3    H2 8639   1.963   0.547   6.320
 2900TIP3   OH2 8640   7.228   7.791   3.306
 2900TIP3    H1 8641   7.215   7.871   3.255
 2900TIP3    H2 8642   7.215   7.720   3.243
 2901TIP3   OH2 8643   5.614   3.241   5.876
 2901TIP3    H1 8644   5.593   3.335   5.882
 2901TIP3    H2 8645   5.579   3.214   5.792
 2902TIP3   OH2 8646   8.239   6.599   0.479
 2902TIP3    H1 8647   8.298   6.649   0.422
 2902TIP3    H2 8648   8.169   6.661   0.501
 2903TIP3   OH2 8649   4.419   3.738   5.386
 2903TIP3    H1 8650   4.511   3.731   5.411
 2903TIP3    H2 8651   4.415   3.813   5.327
 2904TIP3   OH2 8652   3.715   2.935   3.720
 2904TIP3    H1 8653   3.725   2.923   3.625
 2904TIP3    H2 8654   3.699   2.847   3.753
 2905TIP3   OH2 8655   1.387   6.290   4.943
 2905TIP3    H1 8656   1.467   6.274   4.992
 2905TIP3    H2 8657   1.416   6.339   4.866
 2906TIP3   OH2 8658   6.211   0.740   5.969
 2906TIP3    H1 8659   6.200   0.711   5.879
 2906TIP3    H2 8660   6.281   0.805   5.966
 2907TIP3   OH2 8661   2.324   4.238   5.819
 2907TIP3    H1 8662   2.314   4.179   5.894
 2907TIP3    H2 8663   2.320   4.326   5.857
 2908TIP3   OH2 8664   1.128   4.421   1.448
 2908TIP3    H1 8665   1.124   4.325   1.446
 2908TIP3    H2 8666   1.070   4.449   1.377
 2909TIP3   OH2 8667   5.514   1.292   6.785
 2909TIP3    H1 8668   5.552   1.374   6.816
 2909TIP3    H2 8669   5.546   1.282   6.696
 2910TIP3   OH2 8670   2.603   2.263   2.998
 2910TIP3    H1 8671   2.617   2.267   2.904
 2910TIP3    H2 8672   2.679   2.307   3.036
 2911TIP3   OH2 8673   3.919   4.358   0.949
 2911TIP3    H1 8674   3.910   4.267   0.975
 2911TIP3    H2 8675   3.938   4.354   0.855
 2912TIP3   OH2 8676   5.747   1.589   6.609
 2912TIP3    H1 8677   5.758   1.529   6.682
 2912TIP3    H2 8678   5.654   1.611   6.610
 2913TIP3   OH2 8679   4.717   3.504   6.630
 2913TIP3    H1 8680   4.659   3.556   6.574
 2913TIP3    H2 8681   4.681   3.513   6.718
 2914TIP3   OH2 8682   4.137  -0.019   2.129
 2914TIP3    H1 8683   4.080   0.050   2.096
 2914TIP3    H2 8684   4.084  -0.065   2.194
 2915TIP3   OH2 8685   8.043   3.870   2.515
 2915TIP3    H1 8686   7.963   3.893   2.563
 2915TIP3    H2 8687   8.038   3.921   2.434
 2916TIP3   OH2 8688   7.255   2.908   2.292
 2916TIP3    H1 8689   7.162   2.918   2.315
 2916TIP3    H2 8690   7.300   2.973   2.346
 2917TIP3   OH2 8691  -0.010   4.283   5.480
 2917TIP3    H1 8692   0.069   4.242   5.514
 2917TIP3    H2 8693   0.022   4.340   5.410
 2918TIP3   OH2 8694   6.243   6.450   1.388
 2918TIP3    H1 8695   6.304   6.468   1.317
 2918TIP3    H2 8696   6.195   6.372   1.360
 2919TIP3   OH2 8697   7.366   6.230   1.642
 2919TIP3    H1 8698   7.413   6.162   1.690
 2919TIP3    H2 8699   7.427   6.258   1.574
 2920TIP3   OH2 8700   3.733   5.802   6.496
 2920TIP3    H1 8701   3.713   5.777   6.586
 2920TIP3    H2 8702   3.776   5.887   6.503
 2921TIP3   OH2 8703   3.049   4.660   3.500
 2921TIP3    H1 8704   3.043   4.652   3.595
 2921TIP3    H2 8705   2.968   4.622   3.467
 2922TIP3   OH2 8706   3.849   2.208   4.316
 2922TIP3    H1 8707   3.829   2.188   4.224
 2922TIP3    H2 8708   3.831   2.301   4.324
 2923TIP3   OH2 8709   0.928   3.084   1.789
 2923TIP3    H1 8710   0.868   3.159   1.787
 2923TIP3    H2 8711   1.015   3.123   1.788
 2924TIP3   OH2 8712   4.993   3.062   0.927
 2924TIP3    H1 8713   4.965   3.119   0.999
 2924TIP3    H2 8714   5.078   3.029   0.955
 2925TIP3   OH2 8715   7.664   0.033   2.764
 2925TIP3    H1 8716   7.673   0.099   2.834
 2925TIP3    H2 8717   7.723  -0.038   2.791
 2926TIP3   OH2 8718   8.112   2.239   3.806
 2926TIP3    H1 8719   8.120   2.235   3.901
 2926TIP3    H2 8720   8.088   2.150   3.779
 2927TIP3   OH2 8721   4.726   5.792   1.267
 2927TIP3    H1 8722   4.734   5.818   1.175
 2927TIP3    H2 8723   4.795   5.840   1.312
 2928TIP3   OH2 8724   5.698   7.692   1.587
 2928TIP3    H1 8725   5.650   7.705   1.669
 2928TIP3    H2 8726   5.781   7.738   1.599
 2929TIP3   OH2 8727   2.233   4.441   5.160
 2929TIP3    H1 8728   2.142   4.465   5.144
 2929TIP3    H2 8729   2.247   4.362   5.107
 2930TIP3   OH2 8730   5.350   1.159   6.526
 2930TIP3    H1 8731   5.347   1.254   6.536
 2930TIP3    H2 8732   5.424   1.144   6.467
 2931TIP3   OH2 8733   6.938   5.251   0.998
 2931TIP3    H1 8734   7.006   5.246   0.931
 2931TIP3    H2 8735   6.864   5.204   0.960
 2932TIP3   OH2 8736   2.344   3.157   4.333
 2932TIP3    H1 8737   2.362   3.173   4.241
 2932TIP3    H2 8738   2.430   3.154   4.375
 2933TIP3   OH2 8739   1.051   4.533   6.206
 2933TIP3    H1 8740   0.992   4.595   6.249
 2933TIP3    H2 8741   1.018   4.526   6.117
 2934TIP3   OH2 8742   3.592   1.352   2.406
 2934TIP3    H1 8743   3.577   1.332   2.499
 2934TIP3    H2 8744   3.555   1.439   2.394
 2935TIP3   OH2 8745   1.070   0.344   6.503
 2935TIP3    H1 8746   0.987   0.369   6.544
 2935TIP3    H2 8747   1.047   0.324   6.412
 2936TIP3   OH2 8748   3.432   1.366   4.839
 2936TIP3    H1 8749   3.342   1.381   4.811
 2936TIP3    H2 8750   3.484   1.378   4.759
 2937TIP3   OH2 8751   1.109   0.053   4.296
 2937TIP3    H1 8752   1.164   0.114   4.345
 2937TIP3    H2 8753   1.079   0.103   4.220
 2938TIP3   OH2 8754   1.767   4.451   2.865
 2938TIP3    H1 8755   1.673   4.469   2.871
 2938TIP3    H2 8756   1.801   4.467   2.953
 2939TIP3   OH2 8757   0.047   7.459   4.834
 2939TIP3    H1 8758   0.035   7.535   4.891
 2939TIP3    H2 8759   0.117   7.485   4.774
 2940TIP3   OH2 8760   2.074   7.562   4.721
 2940TIP3    H1 8761   2.048   7.619   4.649
 2940TIP3    H2 8762   2.150   7.605   4.760
 2941TIP3   OH2 8763   2.287   6.727   4.011
 2941TIP3    H1 8764   2.207   6.779   4.003
 2941TIP3    H2 8765   2.337   6.770   4.080
 2942TIP3   OH2 8766   5.589   4.462   5.473
 2942TIP3    H1 8767   5.670   4.491   5.431
 2942TIP3    H2 8768   5.526   4.532   5.453
 2943TIP3   OH2 8769   8.123   3.181   2.665
 2943TIP3    H1 8770   8.171   3.101   2.647
 2943TIP3    H2 8771   8.123   3.189   2.760
 2944TIP3   OH2 8772   5.633   4.199   5.488
 2944TIP3    H1 8773   5.609   4.159   5.572
 2944TIP3    H2 8774   5.605   4.290   5.497
 2945TIP3   OH2 8775   0.247   4.697   3.267
 2945TIP3    H1 8776   0.228   4.606   3.245
 2945TIP3    H2 8777   0.279   4.735   3.185
 2946TIP3   OH2 8778   5.779   6.102   3.062
 2946TIP3    H1 8779   5.853   6.089   3.122
 2946TIP3    H2 8780   5.761   6.015   3.027
 2947TIP3   OH2 8781   7.762   6.687   5.652
 2947TIP3    H1 8782   7.855   6.706   5.663
 2947TIP3    H2 8783   7.732   6.750   5.587
 2948TIP3   OH2 8784   3.106   7.757   2.809
 2948TIP3    H1 8785   3.132   7.668   2.834
 2948TIP3    H2 8786   3.165   7.813   2.859
 2949TIP3   OH2 8787   5.639   0.444   1.395
 2949TIP3    H1 8788   5.553   0.426   1.434
 2949TIP3    H2 8789   5.699   0.450   1.469
 2950TIP3   OH2 8790   1.524   2.278   1.700
 2950TIP3    H1 8791   1.482   2.359   1.671
 2950TIP3    H2 8792   1.465   2.208   1.671
 2951TIP3   OH2 8793   6.357   6.220   2.011
 2951TIP3    H1 8794   6.300   6.166   1.955
 2951TIP3    H2 8795   6.424   6.255   1.951
 2952TIP3   OH2 8796   4.819   7.882   0.724
 2952TIP3    H1 8797   4.831   7.841   0.639
 2952TIP3    H2 8798   4.787   7.970   0.704
 2953TIP3   OH2 8799   6.623   5.372   2.046
 2953TIP3    H1 8800   6.676   5.445   2.079
 2953TIP3    H2 8801   6.537   5.411   2.029
 2954TIP3   OH2 8802   7.900   0.812   2.929
 2954TIP3    H1 8803   7.914   0.907   2.934
 2954TIP3    H2 8804   7.830   0.795   2.991
 2955TIP3   OH2 8805   8.053   0.855   6.651
 2955TIP3    H1 8806   8.101   0.775   6.632
 2955TIP3    H2 8807   8.060   0.866   6.746
 2956TIP3   OH2 8808   2.303   0.345   1.670
 2956TIP3    H1 8809   2.391   0.311   1.686
 2956TIP3    H2 8810   2.298   0.354   1.575
 2957TIP3   OH2 8811   5.711   6.855   0.166
 2957TIP3    H1 8812   5.707   6.761   0.147
 2957TIP3    H2 8813   5.677   6.863   0.255
 2958TIP3   OH2 8814   3.602   6.510   5.151
 2958TIP3    H1 8815   3.657   6.515   5.073
 2958TIP3    H2 8816   3.631   6.430   5.196
 2959TIP3   OH2 8817   5.972   5.334   6.024
 2959TIP3    H1 8818   6.042   5.310   5.964
 2959TIP3    H2 8819   5.960   5.257   6.080
 2960TIP3   OH2 8820   8.102   7.545   3.278
 2960TIP3    H1 8821   8.010   7.520   3.291
 2960TIP3    H2 8822   8.107   7.635   3.312
 2961TIP3   OH2 8823   1.899   6.506   2.371
 2961TIP3    H1 8824   1.935   6.579   2.321
 2961TIP3    H2 8825   1.839   6.462   2.310
 2962TIP3   OH2 8826   5.137   2.986   5.730
 2962TIP3    H1 8827   5.150   2.929   5.654
 2962TIP3    H2 8828   5.189   2.946   5.800
 2963TIP3   OH2 8829   7.270   5.114   1.108
 2963TIP3    H1 8830   7.344   5.094   1.166
 2963TIP3    H2 8831   7.236   5.197   1.141
 2964TIP3   OH2 8832   4.599   5.375   6.588
 2964TIP3    H1 8833   4.556   5.334   6.513
 2964TIP3    H2 8834   4.675   5.419   6.551
 2965TIP3   OH2 8835   1.150   2.035   4.105
 2965TIP3    H1 8836   1.225   2.001   4.056
 2965TIP3    H2 8837   1.084   1.966   4.098
 2966TIP3   OH2 8838   5.911   5.380   4.234
 2966TIP3    H1 8839   5.895   5.469   4.266
 2966TIP3    H2 8840   5.848   5.325   4.281
 2967TIP3   OH2 8841   0.647   0.248   2.217
 2967TIP3    H1 8842   0.703   0.193   2.161
 2967TIP3    H2 8843   0.632   0.327   2.166
 2968TIP3   OH2 8844   0.262   1.922   0.561
 2968TIP3    H1 8845   0.186   1.954   0.611
 2968TIP3    H2 8846   0.338   1.953   0.610
 2969TIP3   OH2 8847   0.868   0.935   2.787
 2969TIP3    H1 8848   0.777   0.907   2.797
 2969TIP3    H2 8849   0.865   1.030   2.796
 2970TIP3   OH2 8850   3.115   7.025   3.238
 2970TIP3    H1 8851   3.184   7.053   3.177
 2970TIP3    H2 8852   3.099   7.100   3.294
 2971TIP3   OH2 8853   2.821   6.346   2.920
 2971TIP3    H1 8854   2.902   6.384   2.886
 2971TIP3    H2 8855   2.845   6.257   2.946
 2972TIP3   OH2 8856   2.746   0.167   1.106
 2972TIP3    H1 8857   2.787   0.245   1.144
 2972TIP3    H2 8858   2.669   0.200   1.060
 2973TIP3   OH2 8859   5.355   5.994   1.427
 2973TIP3    H1 8860   5.285   5.934   1.454
 2973TIP3    H2 8861   5.330   6.078   1.464
 2974TIP3   OH2 8862   0.036   4.288   0.883
 2974TIP3    H1 8863  -0.053   4.282   0.849
 2974TIP3    H2 8864   0.034   4.362   0.944
 2975TIP3   OH2 8865   8.079   3.964   3.476
 2975TIP3    H1 8866   8.056   3.872   3.463
 2975TIP3    H2 8867   8.024   4.012   3.413
 2976TIP3   OH2 8868   6.231   2.111   2.256
 2976TIP3    H1 8869   6.139   2.088   2.243
 2976TIP3    H2 8870   6.229   2.203   2.283
 2977TIP3   OH2 8871   6.599   0.300   3.989
 2977TIP3    H1 8872   6.598   0.294   3.894
 2977TIP3    H2 8873   6.602   0.210   4.020
 2978TIP3   OH2 8874   1.547   7.183   5.956
 2978TIP3    H1 8875   1.634   7.174   5.996
 2978TIP3    H2 8876   1.560   7.238   5.879
 2979TIP3   OH2 8877   1.967   5.840   4.871
 2979TIP3    H1 8878   1.904   5.788   4.821
 2979TIP3    H2 8879   1.981   5.789   4.952
 2980TIP3   OH2 8880   5.458   1.699   1.239
 2980TIP3    H1 8881   5.403   1.671   1.166
 2980TIP3    H2 8882   5.533   1.640   1.237
 2981TIP3   OH2 8883   2.743   5.920   1.529
 2981TIP3    H1 8884   2.729   6.002   1.576
 2981TIP3    H2 8885   2.781   5.946   1.445
 2982TIP3   OH2 8886   5.421   0.769   6.334
 2982TIP3    H1 8887   5.441   0.826   6.260
 2982TIP3    H2 8888   5.465   0.809   6.409
 2983TIP3   OH2 8889   4.579   5.949   6.604
 2983TIP3    H1 8890   4.525   5.870   6.602
 2983TIP3    H2 8891   4.576   5.982   6.514
 2984TIP3   OH2 8892   3.728   6.481   0.996
 2984TIP3    H1 8893   3.660   6.530   0.950
 2984TIP3    H2 8894   3.714   6.501   1.088
 2985TIP3   OH2 8895   4.082   4.778   5.157
 2985TIP3    H1 8896   4.033   4.860   5.147
 2985TIP3    H2 8897   4.174   4.804   5.157
 2986TIP3   OH2 8898   6.234   1.744   5.741
 2986TIP3    H1 8899   6.298   1.785   5.684
 2986TIP3    H2 8900   6.226   1.654   5.707
 2987TIP3   OH2 8901   6.376   0.738   4.460
 2987TIP3    H1 8902   6.364   0.706   4.371
 2987TIP3    H2 8903   6.371   0.833   4.453
 2988TIP3   OH2 8904   4.170   4.003   0.703
 2988TIP3    H1 8905   4.242   4.061   0.679
 2988TIP3    H2 8906   4.146   3.959   0.621
 2989TIP3   OH2 8907   4.377   6.731   2.578
 2989TIP3    H1 8908   4.359   6.817   2.541
 2989TIP3    H2 8909   4.390   6.674   2.503
 2990TIP3   OH2 8910   7.310   3.544   0.891
 2990TIP3    H1 8911   7.234   3.591   0.926
 2990TIP3    H2 8912   7.378   3.611   0.882
 2991TIP3   OH2 8913   7.109   6.706   4.037
 2991TIP3    H1 8914   7.015   6.697   4.024
 2991TIP3    H2 8915   7.147   6.632   3.989
 2992TIP3   OH2 8916   3.659   3.761   4.745
 2992TIP3    H1 8917   3.704   3.763   4.660
 2992TIP3    H2 8918   3.653   3.853   4.770
 2993TIP3   OH2 8919   5.956   7.842   4.152
 2993TIP3    H1 8920   5.929   7.927   4.189
 2993TIP3    H2 8921   5.883   7.816   4.097
 2994TIP3   OH2 8922   0.837   2.948   5.971
 2994TIP3    H1 8923   0.909   2.987   6.020
 2994TIP3    H2 8924   0.758   2.983   6.011
 2995TIP3   OH2 8925   7.434   0.116   1.772
 2995TIP3    H1 8926   7.503   0.140   1.833
 2995TIP3    H2 8927   7.394   0.200   1.746
 2996TIP3   OH2 8928   6.535   3.824   4.745
 2996TIP3    H1 8929   6.585   3.900   4.775
 2996TIP3    H2 8930   6.505   3.781   4.825
 2997TIP3   OH2 8931   5.487   5.023   4.609
 2997TIP3    H1 8932   5.536   5.019   4.528
 2997TIP3    H2 8933   5.500   4.937   4.650
 2998TIP3   OH2 8934   7.507   2.031   3.648
 2998TIP3    H1 8935   7.537   1.954   3.599
 2998TIP3    H2 8936   7.582   2.054   3.703
 2999TIP3   OH2 8937   5.253   3.425   0.698
 2999TIP3    H1 8938   5.244   3.467   0.784
 2999TIP3    H2 8939   5.229   3.333   0.714
 3000TIP3   OH2 8940   6.679   5.533   4.894
 3000TIP3    H1 8941   6.741   5.550   4.823
 3000TIP3    H2 8942   6.593   5.541   4.853
 3001TIP3   OH2 8943   4.795   4.218   0.025
 3001TIP3    H1 8944   4.734   4.174   0.084
 3001TIP3    H2 8945   4.758   4.204  -0.062
 3002TIP3   OH2 8946   1.804   1.756   1.191
 3002TIP3    H1 8947   1.823   1.825   1.127
 3002TIP3    H2 8948   1.858   1.778   1.267
 3003TIP3   OH2 8949   1.597   1.203   2.331
 3003TIP3    H1 8950   1.558   1.221   2.246
 3003TIP3    H2 8951   1.683   1.164   2.310
 3004TIP3   OH2 8952   6.169   1.197   4.486
 3004TIP3    H1 8953   6.225   1.125   4.516
 3004TIP3    H2 8954   6.084   1.157   4.473
 3005TIP3   OH2 8955   2.870   2.427   6.396
 3005TIP3    H1 8956   2.889   2.341   6.360
 3005TIP3    H2 8957   2.866   2.412   6.491
 3006TIP3   OH2 8958   7.674   0.890   0.120
 3006TIP3    H1 8959   7.731   0.818   0.092
 3006TIP3    H2 8960   7.624   0.853   0.193
 3007TIP3   OH2 8961   6.389   7.641   5.041
 3007TIP3    H1 8962   6.406   7.550   5.017
 3007TIP3    H2 8963   6.296   7.654   5.019
 3008TIP3   OH2 8964   1.688   5.142   5.432
 3008TIP3    H1 8965   1.658   5.090   5.358
 3008TIP3    H2 8966   1.636   5.111   5.506
 3009TIP3   OH2 8967   0.179   5.413   2.405
 3009TIP3    H1 8968   0.211   5.429   2.316
 3009TIP3    H2 8969   0.086   5.397   2.395
 3010TIP3   OH2 8970   0.730   1.161   4.975
 3010TIP3    H1 8971   0.672   1.205   4.913
 3010TIP3    H2 8972   0.793   1.114   4.920
 3011TIP3   OH2 8973   5.558   2.573   3.420
 3011TIP3    H1 8974   5.595   2.639   3.361
 3011TIP3    H2 8975   5.517   2.624   3.490
 3012TIP3   OH2 8976   6.043   1.135   1.698
 3012TIP3    H1 8977   6.081   1.222   1.688
 3012TIP3    H2 8978   6.033   1.103   1.608
 3013TIP3   OH2 8979   5.138   4.067   4.927
 3013TIP3    H1 8980   5.234   4.063   4.933
 3013TIP3    H2 8981   5.121   4.078   4.833
 3014TIP3   OH2 8982   2.613   2.132   2.170
 3014TIP3    H1 8983   2.630   2.040   2.192
 3014TIP3    H2 8984   2.593   2.131   2.077
 3015TIP3   OH2 8985   6.455   5.240   1.260
 3015TIP3    H1 8986   6.361   5.227   1.270
 3015TIP3    H2 8987   6.474   5.318   1.313
 3016TIP3   OH2 8988   7.362   2.574   2.438
 3016TIP3    H1 8989   7.450   2.568   2.402
 3016TIP3    H2 8990   7.339   2.667   2.429
 3017TIP3   OH2 8991   7.193   7.796   0.034
 3017TIP3    H1 8992   7.245   7.716   0.043
 3017TIP3    H2 8993   7.173   7.802  -0.060
 3018TIP3   OH2 8994   0.819   5.156   1.778
 3018TIP3    H1 8995   0.821   5.127   1.869
 3018TIP3    H2 8996   0.881   5.099   1.733
 3019TIP3   OH2 8997   8.258   7.640   1.183
 3019TIP3    H1 8998   8.285   7.557   1.142
 3019TIP3    H2 8999   8.250   7.618   1.276
 3020TIP3   OH2 9000   4.398   5.013   1.661
 3020TIP3    H1 9001   4.483   5.037   1.697
 3020TIP3    H2 9002   4.384   4.922   1.690
 3021TIP3   OH2 9003   1.216   5.646   5.519
 3021TIP3    H1 9004   1.186   5.688   5.438
 3021TIP3    H2 9005   1.273   5.575   5.489
 3022TIP3   OH2 9006   4.223   5.686   2.689
 3022TIP3    H1 9007   4.289   5.683   2.758
 3022TIP3    H2 9008   4.272   5.673   2.608
 3023TIP3   OH2 9009   1.056   0.611   4.546
 3023TIP3    H1 9010   0.973   0.638   4.506
 3023TIP3    H2 9011   1.116   0.600   4.472
 3024TIP3   OH2 9012   7.788   6.921   2.817
 3024TIP3    H1 9013   7.878   6.948   2.800
 3024TIP3    H2 9014   7.767   6.861   2.746
 3025TIP3   OH2 9015   7.419   5.374   0.724
 3025TIP3    H1 9016   7.430   5.399   0.816
 3025TIP3    H2 9017   7.508   5.356   0.693
 3026TIP3   OH2 9018   6.981   4.532   1.496
 3026TIP3    H1 9019   7.074   4.543   1.480
 3026TIP3    H2 9020   6.941   4.612   1.462
 3027TIP3   OH2 9021   0.669   5.748   1.364
 3027TIP3    H1 9022   0.583   5.778   1.393
 3027TIP3    H2 9023   0.655   5.657   1.337
 3028TIP3   OH2 9024   7.107   0.368   6.350
 3028TIP3    H1 9025   7.053   0.290   6.342
 3028TIP3    H2 9026   7.055   0.427   6.405
 3029TIP3   OH2 9027   4.245   3.466   1.806
 3029TIP3    H1 9028   4.173   3.446   1.746
 3029TIP3    H2 9029   4.256   3.386   1.858
 3030TIP3   OH2 9030   1.859   6.236   6.074
 3030TIP3    H1 9031   1.807   6.317   6.072
 3030TIP3    H2 9032   1.911   6.243   6.153
 3031TIP3   OH2 9033   8.199   6.997   2.351
 3031TIP3    H1 9034   8.132   7.008   2.419
 3031TIP3    H2 9035   8.280   6.986   2.400
 3032TIP3   OH2 9036   4.069   3.261   2.661
 3032TIP3    H1 9037   4.004   3.297   2.600
 3032TIP3    H2 9038   4.047   3.301   2.745
 3033TIP3   OH2 9039   6.817   0.779   3.913
 3033TIP3    H1 9040   6.745   0.719   3.896
 3033TIP3    H2 9041   6.776   0.853   3.958
 3034TIP3   OH2 9042   2.178   2.924   6.246
 3034TIP3    H1 9043   2.097   2.962   6.211
 3034TIP3    H2 9044   2.201   2.856   6.183
 3035TIP3   OH2 9045   5.045   5.056   5.660
 3035TIP3    H1 9046   5.066   4.979   5.713
 3035TIP3    H2 9047   5.017   5.122   5.724
 3036TIP3   OH2 9048   6.960   5.363   6.070
 3036TIP3    H1 9049   6.874   5.402   6.055
 3036TIP3    H2 9050   6.983   5.323   5.987
 3037TIP3   OH2 9051   5.217   1.985   5.759
 3037TIP3    H1 9052   5.233   1.985   5.665
 3037TIP3    H2 9053   5.129   1.949   5.769
 3038TIP3   OH2 9054   4.459   5.805   2.202
 3038TIP3    H1 9055   4.440   5.741   2.134
 3038TIP3    H2 9056   4.504   5.876   2.156
 3039TIP3   OH2 9057   4.166   4.458   3.497
 3039TIP3    H1 9058   4.077   4.489   3.515
 3039TIP3    H2 9059   4.204   4.525   3.440
 3040TIP3   OH2 9060   2.626   6.690   2.304
 3040TIP3    H1 9061   2.656   6.644   2.226
 3040TIP3    H2 9062   2.680   6.656   2.375
 3041TIP3   OH2 9063   4.359   2.992   6.089
 3041TIP3    H1 9064   4.297   2.942   6.036
 3041TIP3    H2 9065   4.401   3.051   6.028
 3042TIP3   OH2 9066   5.350   6.754   1.364
 3042TIP3    H1 9067   5.436   6.768   1.403
 3042TIP3    H2 9068   5.294   6.730   1.438
 3043TIP3   OH2 9069   1.405   5.437   2.812
 3043TIP3    H1 9070   1.386   5.529   2.790
 3043TIP3    H2 9071   1.322   5.402   2.843
 3044TIP3   OH2 9072   0.251   4.314   3.562
 3044TIP3    H1 9073   0.164   4.351   3.546
 3044TIP3    H2 9074   0.277   4.277   3.478
 3045TIP3   OH2 9075   7.026   1.348   6.149
 3045TIP3    H1 9076   6.950   1.309   6.194
 3045TIP3    H2 9077   7.014   1.442   6.159
 3046TIP3   OH2 9078   3.508   4.507   3.126
 3046TIP3    H1 9079   3.539   4.589   3.087
 3046TIP3    H2 9080   3.427   4.487   3.079
 3047TIP3   OH2 9081   1.595   0.346   0.500
 3047TIP3    H1 9082   1.666   0.297   0.540
 3047TIP3    H2 9083   1.610   0.340   0.406
 3048TIP3   OH2 9084   3.401   6.859   0.155
 3048TIP3    H1 9085   3.319   6.837   0.198
 3048TIP3    H2 9086   3.446   6.775   0.145
 3049TIP3   OH2 9087   0.340   6.995   1.796
 3049TIP3    H1 9088   0.282   7.060   1.755
 3049TIP3    H2 9089   0.427   7.033   1.790
 3050TIP3   OH2 9090   7.199   7.171   0.370
 3050TIP3    H1 9091   7.183   7.197   0.279
 3050TIP3    H2 9092   7.200   7.075   0.368
 3051TIP3   OH2 9093   4.296   1.279   5.403
 3051TIP3    H1 9094   4.337   1.292   5.317
 3051TIP3    H2 9095   4.281   1.367   5.436
 3052TIP3   OH2 9096   1.873   4.186   2.540
 3052TIP3    H1 9097   1.880   4.281   2.549
 3052TIP3    H2 9098   1.867   4.171   2.446
 3053TIP3   OH2 9099   2.189   2.128   6.367
 3053TIP3    H1 9100   2.257   2.068   6.399
 3053TIP3    H2 9101   2.149   2.082   6.294
 3054TIP3   OH2 9102   3.184   1.298   3.052
 3054TIP3    H1 9103   3.167   1.210   3.018
 3054TIP3    H2 9104   3.227   1.343   2.979
 3055TIP3   OH2 9105   7.323   2.372   0.196
 3055TIP3    H1 9106   7.254   2.307   0.208
 3055TIP3    H2 9107   7.387   2.329   0.140
 3056TIP3   OH2 9108   4.340   7.471   6.370
 3056TIP3    H1 9109   4.294   7.390   6.350
 3056TIP3    H2 9110   4.273   7.529   6.406
 3057TIP3   OH2 9111   5.988   1.467   0.030
 3057TIP3    H1 9112   6.056   1.405   0.004
 3057TIP3    H2 9113   5.955   1.433   0.113
 3058TIP3   OH2 9114   0.542   5.696   3.652
 3058TIP3    H1 9115   0.605   5.744   3.598
 3058TIP3    H2 9116   0.531   5.613   3.607
 3059TIP3   OH2 9117   6.850   0.227   0.081
 3059TIP3    H1 9118   6.923   0.237   0.020
 3059TIP3    H2 9119   6.873   0.283   0.155
 3060TIP3   OH2 9120   4.251   4.017   5.666
 3060TIP3    H1 9121   4.189   4.061   5.608
 3060TIP3    H2 9122   4.262   3.930   5.629
 3061TIP3   OH2 9123   5.922   4.687   4.285
 3061TIP3    H1 9124   5.867   4.629   4.233
 3061TIP3    H2 9125   5.887   4.681   4.374
 3062TIP3   OH2 9126   2.580   4.537   3.609
 3062TIP3    H1 9127   2.589   4.442   3.599
 3062TIP3    H2 9128   2.494   4.549   3.649
 3063TIP3   OH2 9129   4.160   7.251   4.261
 3063TIP3    H1 9130   4.215   7.190   4.213
 3063TIP3    H2 9131   4.074   7.208   4.265
 3064TIP3   OH2 9132   5.418   0.103   6.022
 3064TIP3    H1 9133   5.393   0.170   6.086
 3064TIP3    H2 9134   5.472   0.041   6.072
 3065TIP3   OH2 9135   6.621   0.344   3.717
 3065TIP3    H1 9136   6.570   0.284   3.663
 3065TIP3    H2 9137   6.674   0.394   3.654
 3066TIP3   OH2 9138   4.226   2.595   5.647
 3066TIP3    H1 9139   4.284   2.546   5.705
 3066TIP3    H2 9140   4.178   2.528   5.599
 3067TIP3   OH2 9141   0.270   2.031   2.250
 3067TIP3    H1 9142   0.339   2.079   2.204
 3067TIP3    H2 9143   0.288   2.047   2.343
 3068TIP3   OH2 9144   4.435   0.685   2.774
 3068TIP3    H1 9145   4.411   0.642   2.855
 3068TIP3    H2 9146   4.480   0.618   2.723
 3069TIP3   OH2 9147   2.133   3.593   6.069
 3069TIP3    H1 9148   2.087   3.546   5.999
 3069TIP3    H2 9149   2.195   3.649   6.023
 3070TIP3   OH2 9150   6.015   4.155   6.618
 3070TIP3    H1 9151   5.954   4.175   6.689
 3070TIP3    H2 9152   5.964   4.171   6.538
 3071TIP3   OH2 9153   0.048   5.662   1.837
 3071TIP3    H1 9154   0.005   5.616   1.765
 3071TIP3    H2 9155   0.135   5.682   1.803
 3072TIP3   OH2 9156   1.280   5.283   0.871
 3072TIP3    H1 9157   1.291   5.205   0.817
 3072TIP3    H2 9158   1.187   5.305   0.863
 3073TIP3   OH2 9159   7.092   0.836   5.965
 3073TIP3    H1 9160   7.109   0.929   5.953
 3073TIP3    H2 9161   7.108   0.798   5.878
 3074TIP3   OH2 9162   5.621   4.457   2.402
 3074TIP3    H1 9163   5.712   4.478   2.381
 3074TIP3    H2 9164   5.576   4.457   2.317
 3075TIP3   OH2 9165   5.320   7.115   0.084
 3075TIP3    H1 9166   5.410   7.101   0.054
 3075TIP3    H2 9167   5.315   7.210   0.100
 3076TIP3   OH2 9168   5.291   3.729   4.964
 3076TIP3    H1 9169   5.277   3.639   4.934
 3076TIP3    H2 9170   5.207   3.773   4.948
 3077TIP3   OH2 9171   6.179   4.020   2.897
 3077TIP3    H1 9172   6.199   3.933   2.929
 3077TIP3    H2 9173   6.249   4.076   2.931
 3078TIP3   OH2 9174   4.966   5.152   2.963
 3078TIP3    H1 9175   4.979   5.076   2.906
 3078TIP3    H2 9176   4.871   5.152   2.980
 3079TIP3   OH2 9177   5.869   3.491   6.126
 3079TIP3    H1 9178   5.797   3.528   6.177
 3079TIP3    H2 9179   5.948   3.522   6.170
 3080TIP3   OH2 9180   2.695   3.819   2.006
 3080TIP3    H1 9181   2.657   3.793   1.922
 3080TIP3    H2 9182   2.749   3.744   2.032
 3081TIP3   OH2 9183   0.497   5.431   0.819
 3081TIP3    H1 9184   0.406   5.429   0.791
 3081TIP3    H2 9185   0.525   5.339   0.816
 3082TIP3   OH2 9186   2.900   2.825   4.051
 3082TIP3    H1 9187   2.901   2.882   3.974
 3082TIP3    H2 9188   2.915   2.884   4.125
 3083TIP3   OH2 9189   4.071   6.385   2.526
 3083TIP3    H1 9190   4.159   6.408   2.495
 3083TIP3    H2 9191   4.013   6.445   2.478
 3084TIP3   OH2 9192   5.545   3.920   4.426
 3084TIP3    H1 9193   5.635   3.908   4.455
 3084TIP3    H2 9194   5.508   3.983   4.488
 3085TIP3   OH2 9195   5.664   4.324   3.907
 3085TIP3    H1 9196   5.673   4.234   3.877
 3085TIP3    H2 9197   5.571   4.345   3.893
 3086TIP3   OH2 9198   4.272   2.175   3.653
 3086TIP3    H1 9199   4.191   2.184   3.704
 3086TIP3    H2 9200   4.316   2.099   3.692
 3087TIP3   OH2 9201   8.031   2.721   2.939
 3087TIP3    H1 9202   8.088   2.795   2.918
 3087TIP3    H2 9203   8.062   2.650   2.883
 3088TIP3   OH2 9204   3.054   6.944   6.844
 3088TIP3    H1 9205   3.062   6.962   6.751
 3088TIP3    H2 9206   3.067   6.849   6.851
 3089TIP3   OH2 9207   4.221   3.652   1.452
 3089TIP3    H1 9208   4.153   3.617   1.509
 3089TIP3    H2 9209   4.174   3.712   1.393
 3090TIP3   OH2 9210   4.576   6.528   0.392
 3090TIP3    H1 9211   4.498   6.474   0.378
 3090TIP3    H2 9212   4.642   6.492   0.333
 3091TIP3   OH2 9213   2.251   7.198   6.711
 3091TIP3    H1 9214   2.301   7.278   6.695
 3091TIP3    H2 9215   2.273   7.173   6.801
 3092TIP3   OH2 9216   4.327   0.816   2.120
 3092TIP3    H1 9217   4.274   0.853   2.049
 3092TIP3    H2 9218   4.378   0.747   2.079
 3093TIP3   OH2 9219   0.344   3.014   2.490
 3093TIP3    H1 9220   0.267   2.975   2.531
 3093TIP3    H2 9221   0.416   2.955   2.513
 3094TIP3   OH2 9222   4.695   5.765   3.673
 3094TIP3    H1 9223   4.624   5.739   3.732
 3094TIP3    H2 9224   4.706   5.691   3.614
 3095TIP3   OH2 9225   5.726   0.371   4.154
 3095TIP3    H1 9226   5.648   0.321   4.131
 3095TIP3    H2 9227   5.759   0.330   4.234
 3096TIP3   OH2 9228   2.920   1.404   3.925
 3096TIP3    H1 9229   2.904   1.465   3.853
 3096TIP3    H2 9230   2.844   1.347   3.926
 3097TIP3   OH2 9231   0.614   1.918   4.214
 3097TIP3    H1 9232   0.671   1.941   4.287
 3097TIP3    H2 9233   0.653   1.838   4.177
 3098TIP3   OH2 9234   4.920   4.682   6.280
 3098TIP3    H1 9235   4.884   4.608   6.230
 3098TIP3    H2 9236   4.992   4.714   6.226
 3099TIP3   OH2 9237   6.149   2.550   0.716
 3099TIP3    H1 9238   6.059   2.583   0.718
 3099TIP3    H2 9239   6.172   2.550   0.623
 3100TIP3   OH2 9240   3.141   2.880   6.142
 3100TIP3    H1 9241   3.114   2.888   6.233
 3100TIP3    H2 9242   3.082   2.939   6.095
 3101TIP3   OH2 9243   3.548   1.547   0.337
 3101TIP3    H1 9244   3.481   1.605   0.374
 3101TIP3    H2 9245   3.527   1.543   0.243
 3102TIP3   OH2 9246   6.608   0.562   1.516
 3102TIP3    H1 9247   6.669   0.586   1.446
 3102TIP3    H2 9248   6.581   0.472   1.494
 3103TIP3   OH2 9249   1.752   0.811   2.217
 3103TIP3    H1 9250   1.735   0.802   2.310
 3103TIP3    H2 9251   1.841   0.777   2.205
 3104TIP3   OH2 9252   0.029   4.077   0.093
 3104TIP3    H1 9253   0.100   4.137   0.116
 3104TIP3    H2 9254   0.002   4.104   0.005
 3105TIP3   OH2 9255   0.867   5.614   0.322
 3105TIP3    H1 9256   0.922   5.650   0.391
 3105TIP3    H2 9257   0.796   5.570   0.368
 3106TIP3   OH2 9258   7.609   6.224   4.466
 3106TIP3    H1 9259   7.563   6.208   4.548
 3106TIP3    H2 9260   7.545   6.271   4.412
 3107TIP3   OH2 9261   7.674   5.732   5.159
 3107TIP3    H1 9262   7.683   5.724   5.254
 3107TIP3    H2 9263   7.623   5.656   5.133
 3108TIP3   OH2 9264   0.910   2.304   4.471
 3108TIP3    H1 9265   0.828   2.312   4.518
 3108TIP3    H2 9266   0.976   2.293   4.539
 3109TIP3   OH2 9267   3.889   0.978   2.158
 3109TIP3    H1 9268   3.912   0.983   2.251
 3109TIP3    H2 9269   3.931   0.899   2.126
 3110TIP3   OH2 9270   0.867   0.553   4.321
 3110TIP3    H1 9271   0.779   0.520   4.303
 3110TIP3    H2 9272   0.912   0.545   4.237
 3111TIP3   OH2 9273   1.373   1.161   2.949
 3111TIP3    H1 9274   1.284   1.142   2.918
 3111TIP3    H2 9275   1.430   1.120   2.884
 3112TIP3   OH2 9276   7.848   4.921   6.404
 3112TIP3    H1 9277   7.815   4.845   6.355
 3112TIP3    H2 9278   7.834   4.994   6.344
 3113TIP3   OH2 9279   6.042   7.151   6.608
 3113TIP3    H1 9280   6.059   7.223   6.547
 3113TIP3    H2 9281   6.050   7.190   6.695
 3114TIP3   OH2 9282   1.682   7.490   1.283
 3114TIP3    H1 9283   1.777   7.491   1.298
 3114TIP3    H2 9284   1.645   7.478   1.371
 3115TIP3   OH2 9285   1.607   6.391   5.253
 3115TIP3    H1 9286   1.582   6.482   5.267
 3115TIP3    H2 9287   1.606   6.380   5.158
 3116TIP3   OH2 9288   5.794   1.948   3.547
 3116TIP3    H1 9289   5.792   1.903   3.632
 3116TIP3    H2 9290   5.843   1.889   3.490
 3117TIP3   OH2 9291   2.106   3.423   1.503
 3117TIP3    H1 9292   2.115   3.518   1.498
 3117TIP3    H2 9293   2.101   3.395   1.412
 3118TIP3   OH2 9294   5.692   4.220   1.408
 3118TIP3    H1 9295   5.609   4.178   1.386
 3118TIP3    H2 9296   5.670   4.286   1.473
 3119TIP3   OH2 9297   4.990   4.578   2.274
 3119TIP3    H1 9298   5.008   4.672   2.274
 3119TIP3    H2 9299   5.064   4.539   2.321
 3120TIP3   OH2 9300   1.386   6.921   3.540
 3120TIP3    H1 9301   1.375   7.016   3.542
 3120TIP3    H2 9302   1.396   6.895   3.631
 3121TIP3   OH2 9303   2.973   5.075   2.283
 3121TIP3    H1 9304   2.886   5.113   2.293
 3121TIP3    H2 9305   2.985   5.021   2.361
 3122TIP3   OH2 9306   6.815   2.926   1.096
 3122TIP3    H1 9307   6.767   2.998   1.137
 3122TIP3    H2 9308   6.797   2.936   1.002
 3123TIP3   OH2 9309   3.409   1.734   3.214
 3123TIP3    H1 9310   3.479   1.677   3.181
 3123TIP3    H2 9311   3.437   1.756   3.303
 3124TIP3   OH2 9312   2.148   0.622   0.365
 3124TIP3    H1 9313   2.092   0.544   0.361
 3124TIP3    H2 9314   2.108   0.684   0.303
 3125TIP3   OH2 9315   1.291   7.116   5.911
 3125TIP3    H1 9316   1.386   7.114   5.906
 3125TIP3    H2 9317   1.268   7.208   5.897
 3126TIP3   OH2 9318   2.574   0.041   4.518
 3126TIP3    H1 9319   2.665   0.033   4.490
 3126TIP3    H2 9320   2.575   0.109   4.585
 3127TIP3   OH2 9321   7.463   3.208   1.054
 3127TIP3    H1 9322   7.401   3.241   0.989
 3127TIP3    H2 9323   7.468   3.114   1.038
 3128TIP3   OH2 9324   7.622   3.410   3.709
 3128TIP3    H1 9325   7.630   3.315   3.718
 3128TIP3    H2 9326   7.589   3.422   3.620
 3129TIP3   OH2 9327   2.025   7.050   6.690
 3129TIP3    H1 9328   2.098   7.111   6.703
 3129TIP3    H2 9329   2.066   6.965   6.679
 3130TIP3   OH2 9330   5.079   0.476   2.519
 3130TIP3    H1 9331   5.146   0.523   2.469
 3130TIP3    H2 9332   5.053   0.537   2.588
 3131TIP3   OH2 9333   1.768   5.527   4.443
 3131TIP3    H1 9334   1.686   5.575   4.453
 3131TIP3    H2 9335   1.831   5.594   4.415
 3132TIP3   OH2 9336   0.841   1.700   6.375
 3132TIP3    H1 9337   0.887   1.620   6.350
 3132TIP3    H2 9338   0.872   1.719   6.464
 3133TIP3   OH2 9339   0.720   6.674   5.450
 3133TIP3    H1 9340   0.743   6.707   5.537
 3133TIP3    H2 9341   0.646   6.728   5.424
 3134TIP3   OH2 9342   0.552   2.719   3.325
 3134TIP3    H1 9343   0.645   2.695   3.329
 3134TIP3    H2 9344   0.530   2.744   3.415
 3135TIP3   OH2 9345   2.448   6.940   5.163
 3135TIP3    H1 9346   2.357   6.910   5.168
 3135TIP3    H2 9347   2.490   6.900   5.239
 3136TIP3   OH2 9348   7.125   2.547   1.111
 3136TIP3    H1 9349   7.031   2.527   1.112
 3136TIP3    H2 9350   7.143   2.568   1.019
 3137TIP3   OH2 9351   5.900   7.636   3.892
 3137TIP3    H1 9352   5.951   7.555   3.893
 3137TIP3    H2 9353   5.946   7.692   3.830
 3138TIP3   OH2 9354   5.369   6.056   2.148
 3138TIP3    H1 9355   5.430   6.115   2.103
 3138TIP3    H2 9356   5.426   5.991   2.189
 3139TIP3   OH2 9357   1.831   3.062   0.819
 3139TIP3    H1 9358   1.772   3.137   0.812
 3139TIP3    H2 9359   1.832   3.042   0.913
 3140TIP3   OH2 9360   1.684   1.599   6.079
 3140TIP3    H1 9361   1.672   1.679   6.028
 3140TIP3    H2 9362   1.604   1.590   6.130
 3141TIP3   OH2 9363   1.673   4.768   6.532
 3141TIP3    H1 9364   1.734   4.827   6.488
 3141TIP3    H2 9365   1.699   4.681   6.503
 3142TIP3   OH2 9366   3.260   5.804   3.291
 3142TIP3    H1 9367   3.282   5.827   3.201
 3142TIP3    H2 9368   3.228   5.885   3.330
 3143TIP3   OH2 9369   2.574   6.286   3.000
 3143TIP3    H1 9370   2.651   6.332   2.967
 3143TIP3    H2 9371   2.516   6.356   3.030
 3144TIP3   OH2 9372   2.945   4.783   5.813
 3144TIP3    H1 9373   2.929   4.782   5.719
 3144TIP3    H2 9374   2.965   4.692   5.835
 3145TIP3   OH2 9375   3.649   3.772   2.487
 3145TIP3    H1 9376   3.559   3.744   2.506
 3145TIP3    H2 9377   3.665   3.845   2.547
 3146TIP3   OH2 9378   0.746   1.985   1.983
 3146TIP3    H1 9379   0.763   2.028   2.066
 3146TIP3    H2 9380   0.683   1.916   2.004
 3147TIP3   OH2 9381   7.556   3.571   6.493
 3147TIP3    H1 9382   7.510   3.596   6.413
 3147TIP3    H2 9383   7.487   3.557   6.558
 3148TIP3   OH2 9384   5.063   1.459   1.211
 3148TIP3    H1 9385   5.087   1.522   1.143
 3148TIP3    H2 9386   5.049   1.377   1.164
 3149TIP3   OH2 9387   5.385   2.947   2.900
 3149TIP3    H1 9388   5.480   2.957   2.888
 3149TIP3    H2 9389   5.350   2.950   2.811
 3150TIP3   OH2 9390   4.311   6.297   5.392
 3150TIP3    H1 9391   4.315   6.289   5.296
 3150TIP3    H2 9392   4.237   6.243   5.418
 3151TIP3   OH2 9393   1.540   0.440   0.238
 3151TIP3    H1 9394   1.541   0.373   0.170
 3151TIP3    H2 9395   1.447   0.449   0.261
 3152TIP3   OH2 9396   7.784   0.638   0.506
 3152TIP3    H1 9397   7.848   0.636   0.435
 3152TIP3    H2 9398   7.836   0.632   0.586
 3153TIP3   OH2 9399   0.588   5.043   6.501
 3153TIP3    H1 9400   0.620   5.125   6.537
 3153TIP3    H2 9401   0.662   5.007   6.453
 3154TIP3   OH2 9402   7.631   5.707   3.021
 3154TIP3    H1 9403   7.713   5.720   3.068
 3154TIP3    H2 9404   7.586   5.636   3.068
 3155TIP3   OH2 9405   4.300   6.546   4.464
 3155TIP3    H1 9406   4.260   6.474   4.512
 3155TIP3    H2 9407   4.294   6.520   4.372
 3156TIP3   OH2 9408   5.509   2.208   0.894
 3156TIP3    H1 9409   5.540   2.260   0.820
 3156TIP3    H2 9410   5.431   2.164   0.861
 3157TIP3   OH2 9411   4.612   2.506   0.064
 3157TIP3    H1 9412   4.666   2.428   0.081
 3157TIP3    H2 9413   4.614   2.516  -0.031
 3158TIP3   OH2 9414   1.295   5.597   0.974
 3158TIP3    H1 9415   1.232   5.666   0.991
 3158TIP3    H2 9416   1.266   5.524   1.029
 3159TIP3   OH2 9417   2.762   5.554   2.986
 3159TIP3    H1 9418   2.838   5.537   2.931
 3159TIP3    H2 9419   2.758   5.650   2.992
 3160TIP3   OH2 9420   4.247   6.524   2.849
 3160TIP3    H1 9421   4.163   6.553   2.883
 3160TIP3    H2 9422   4.305   6.600   2.856
 3161TIP3   OH2 9423   5.322   0.221   6.686
 3161TIP3    H1 9424   5.414   0.203   6.703
 3161TIP3    H2 9425   5.306   0.306   6.727
 3162TIP3   OH2 9426   4.022   1.938   3.620
 3162TIP3    H1 9427   4.040   1.853   3.580
 3162TIP3    H2 9428   4.075   1.938   3.700
 3163TIP3   OH2 9429   0.070   2.399   6.034
 3163TIP3    H1 9430   0.011   2.350   6.092
 3163TIP3    H2 9431   0.137   2.335   6.010
 3164TIP3   OH2 9432   3.790   5.640   4.510
 3164TIP3    H1 9433   3.708   5.617   4.466
 3164TIP3    H2 9434   3.789   5.589   4.591
 3165TIP3   OH2 9435   6.647   5.228   5.357
 3165TIP3    H1 9436   6.646   5.306   5.303
 3165TIP3    H2 9437   6.709   5.248   5.428
 3166TIP3   OH2 9438   7.592   3.929   3.201
 3166TIP3    H1 9439   7.630   3.901   3.285
 3166TIP3    H2 9440   7.667   3.962   3.151
 3167TIP3   OH2 9441   2.419   3.889   1.302
 3167TIP3    H1 9442   2.355   3.914   1.369
 3167TIP3    H2 9443   2.368   3.839   1.238
 3168TIP3   OH2 9444   2.178   5.814   2.395
 3168TIP3    H1 9445   2.214   5.807   2.306
 3168TIP3    H2 9446   2.238   5.762   2.449
 3169TIP3   OH2 9447   2.948   4.343   2.601
 3169TIP3    H1 9448   2.936   4.436   2.584
 3169TIP3    H2 9449   2.995   4.309   2.525
 3170TIP3   OH2 9450   5.145   4.381   4.227
 3170TIP3    H1 9451   5.193   4.326   4.288
 3170TIP3    H2 9452   5.058   4.391   4.266
 3171TIP3   OH2 9453   5.330   4.715   4.556
 3171TIP3    H1 9454   5.253   4.686   4.605
 3171TIP3    H2 9455   5.382   4.763   4.620
 3172TIP3   OH2 9456   0.761   3.882   4.178
 3172TIP3    H1 9457   0.695   3.851   4.240
 3172TIP3    H2 9458   0.844   3.861   4.220
 3173TIP3   OH2 9459   6.569   5.907   3.342
 3173TIP3    H1 9460   6.574   6.000   3.366
 3173TIP3    H2 9461   6.646   5.892   3.287
 3174TIP3   OH2 9462   7.756   1.035   2.549
 3174TIP3    H1 9463   7.702   1.113   2.545
 3174TIP3    H2 9464   7.764   1.006   2.458
 3175TIP3   OH2 9465   0.588   2.600   0.212
 3175TIP3    H1 9466   0.526   2.633   0.278
 3175TIP3    H2 9467   0.661   2.565   0.263
 3176TIP3   OH2 9468   8.231   0.858   1.361
 3176TIP3    H1 9469   8.252   0.834   1.270
 3176TIP3    H2 9470   8.281   0.938   1.377
 3177TIP3   OH2 9471   2.449   7.802   2.236
 3177TIP3    H1 9472   2.412   7.890   2.224
 3177TIP3    H2 9473   2.383   7.756   2.289
 3178TIP3   OH2 9474   5.282   0.483   6.777
 3178TIP3    H1 9475   5.268   0.484   6.872
 3178TIP3    H2 9476   5.337   0.560   6.761
 3179TIP3   OH2 9477   2.213   4.517   6.699
 3179TIP3    H1 9478   2.223   4.568   6.779
 3179TIP3    H2 9479   2.147   4.451   6.721
 3180TIP3   OH2 9480   1.549   7.052   2.405
 3180TIP3    H1 9481   1.626   7.056   2.461
 3180TIP3    H2 9482   1.504   7.135   2.420
 3181TIP3   OH2 9483   3.425   4.911   0.472
 3181TIP3    H1 9484   3.397   4.844   0.534
 3181TIP3    H2 9485   3.407   4.994   0.517
 3182TIP3   OH2 9486   0.184   2.763   3.957
 3182TIP3    H1 9487   0.243   2.694   3.988
 3182TIP3    H2 9488   0.144   2.798   4.037
 3183TIP3   OH2 9489   0.036   6.958   2.468
 3183TIP3    H1 9490   0.065   7.016   2.539
 3183TIP3    H2 9491   0.118   6.924   2.432
 3184TIP3   OH2 9492   1.597   3.226   0.840
 3184TIP3    H1 9493   1.524   3.210   0.780
 3184TIP3    H2 9494   1.566   3.196   0.925
 3185TIP3   OH2 9495   1.455   3.341   1.908
 3185TIP3    H1 9496   1.437   3.369   1.998
 3185TIP3    H2 9497   1.550   3.343   1.901
 3186TIP3   OH2 9498   0.271   0.978   0.786
 3186TIP3    H1 9499   0.287   1.008   0.875
 3186TIP3    H2 9500   0.340   1.019   0.733
 3187TIP3   OH2 9501   5.859   6.020   6.173
 3187TIP3    H1 9502   5.947   5.999   6.204
 3187TIP3    H2 9503   5.830   5.939   6.130
 3188TIP3   OH2 9504   6.473   6.843   2.945
 3188TIP3    H1 9505   6.462   6.922   2.999
 3188TIP3    H2 9506   6.386   6.803   2.943
 3189TIP3   OH2 9507   3.289   2.972   1.667
 3189TIP3    H1 9508   3.276   3.028   1.743
 3189TIP3    H2 9509   3.209   2.919   1.661
 3190TIP3   OH2 9510   1.749   4.446   3.476
 3190TIP3    H1 9511   1.683   4.500   3.432
 3190TIP3    H2 9512   1.709   4.423   3.560
 3191TIP3   OH2 9513   1.961   5.224   5.433
 3191TIP3    H1 9514   1.975   5.272   5.352
 3191TIP3    H2 9515   1.869   5.197   5.430
 3192TIP3   OH2 9516   0.572   2.208   3.339
 3192TIP3    H1 9517   0.530   2.273   3.283
 3192TIP3    H2 9518   0.652   2.184   3.292
 3193TIP3   OH2 9519   1.228   2.374   5.991
 3193TIP3    H1 9520   1.174   2.295   5.992
 3193TIP3    H2 9521   1.283   2.367   6.069
 3194TIP3   OH2 9522   7.704   1.034   2.939
 3194TIP3    H1 9523   7.768   1.092   2.899
 3194TIP3    H2 9524   7.628   1.036   2.881
 3195TIP3   OH2 9525   7.962   6.285   2.789
 3195TIP3    H1 9526   7.973   6.337   2.710
 3195TIP3    H2 9527   7.907   6.212   2.762
 3196TIP3   OH2 9528   5.167   3.567   6.151
 3196TIP3    H1 9529   5.175   3.657   6.181
 3196TIP3    H2 9530   5.190   3.571   6.058
 3197TIP3   OH2 9531   3.768   0.664   0.467
 3197TIP3    H1 9532   3.836   0.640   0.529
 3197TIP3    H2 9533   3.800   0.745   0.427
 3198TIP3   OH2 9534   2.824   0.126   1.419
 3198TIP3    H1 9535   2.862   0.192   1.477
 3198TIP3    H2 9536   2.743   0.166   1.387
 3199TIP3   OH2 9537   2.156   7.861   1.207
 3199TIP3    H1 9538   2.172   7.807   1.284
 3199TIP3    H2 9539   2.080   7.821   1.165
 3200TIP3   OH2 9540   1.481   2.772   4.931
 3200TIP3    H1 9541   1.488   2.778   5.026
 3200TIP3    H2 9542   1.570   2.781   4.899
 3201TIP3   OH2 9543   2.251   6.766   1.777
 3201TIP3    H1 9544   2.184   6.777   1.845
 3201TIP3    H2 9545   2.320   6.827   1.801
 3202TIP3   OH2 9546   5.842   2.324   4.314
 3202TIP3    H1 9547   5.901   2.283   4.377
 3202TIP3    H2 9548   5.865   2.417   4.316
 3203TIP3   OH2 9549   3.667   7.201   1.301
 3203TIP3    H1 9550   3.637   7.246   1.221
 3203TIP3    H2 9551   3.589   7.154   1.332
 3204TIP3   OH2 9552   2.455   7.072   3.161
 3204TIP3    H1 9553   2.450   7.081   3.256
 3204TIP3    H2 9554   2.508   6.994   3.147
 3205TIP3   OH2 9555   0.450   0.129   3.601
 3205TIP3    H1 9556   0.428   0.091   3.516
 3205TIP3    H2 9557   0.545   0.144   3.597
 3206TIP3   OH2 9558   6.956   6.751   4.559
 3206TIP3    H1 9559   6.922   6.678   4.507
 3206TIP3    H2 9560   6.991   6.710   4.638
 3207TIP3   OH2 9561   0.987   7.886   1.614
 3207TIP3    H1 9562   0.995   7.978   1.592
 3207TIP3    H2 9563   0.901   7.878   1.656
 3208TIP3   OH2 9564   5.329   2.912   4.281
 3208TIP3    H1 9565   5.420   2.885   4.275
 3208TIP3    H2 9566   5.330   3.006   4.263
 3209TIP3   OH2 9567   5.292   3.343   2.332
 3209TIP3    H1 9568   5.262   3.253   2.346
 3209TIP3    H2 9569   5.378   3.346   2.373
 3210TIP3   OH2 9570   2.861   1.537   1.670
 3210TIP3    H1 9571   2.869   1.508   1.760
 3210TIP3    H2 9572   2.947   1.573   1.648
 3211TIP3   OH2 9573   8.352   4.221   2.368
 3211TIP3    H1 9574   8.261   4.248   2.384
 3211TIP3    H2 9575   8.400   4.252   2.445
 3212TIP3   OH2 9576   1.430   0.976   5.529
 3212TIP3    H1 9577   1.459   1.067   5.530
 3212TIP3    H2 9578   1.510   0.925   5.515
 3213TIP3   OH2 9579   7.460   3.910   4.452
 3213TIP3    H1 9580   7.371   3.908   4.487
 3213TIP3    H2 9581   7.511   3.953   4.520
 3214TIP3   OH2 9582   4.762   3.602   2.380
 3214TIP3    H1 9583   4.690   3.596   2.317
 3214TIP3    H2 9584   4.733   3.668   2.443
 3215TIP3   OH2 9585   4.737   5.342   2.169
 3215TIP3    H1 9586   4.767   5.318   2.257
 3215TIP3    H2 9587   4.691   5.425   2.181
 3216TIP3   OH2 9588   2.955   5.267   4.705
 3216TIP3    H1 9589   2.935   5.334   4.640
 3216TIP3    H2 9590   3.048   5.246   4.690
 3217TIP3   OH2 9591   1.491   2.938   1.225
 3217TIP3    H1 9592   1.547   2.977   1.292
 3217TIP3    H2 9593   1.430   2.883   1.275
 3218TIP3   OH2 9594   2.199   1.484   3.413
 3218TIP3    H1 9595   2.245   1.419   3.467
 3218TIP3    H2 9596   2.198   1.563   3.465
 3219TIP3   OH2 9597   1.998   3.787   6.219
 3219TIP3    H1 9598   2.074   3.823   6.266
 3219TIP3    H2 9599   2.030   3.704   6.182
 3220TIP3   OH2 9600   0.560   3.979   5.707
 3220TIP3    H1 9601   0.618   4.051   5.682
 3220TIP3    H2 9602   0.569   3.974   5.803
 3221TIP3   OH2 9603   1.840   3.934   4.972
 3221TIP3    H1 9604   1.909   3.878   5.006
 3221TIP3    H2 9605   1.780   3.946   5.046
 3222TIP3   OH2 9606   3.479   6.923   6.551
 3222TIP3    H1 9607   3.461   6.959   6.638
 3222TIP3    H2 9608   3.561   6.964   6.524
 3223TIP3   OH2 9609   5.041   7.194   3.133
 3223TIP3    H1 9610   4.984   7.175   3.207
 3223TIP3    H2 9611   5.083   7.110   3.113
 3224TIP3   OH2 9612   0.342   6.823   6.068
 3224TIP3    H1 9613   0.293   6.906   6.074
 3224TIP3    H2 9614   0.306   6.779   5.992
 3225TIP3   OH2 9615   3.148   4.251   0.561
 3225TIP3    H1 9616   3.198   4.209   0.631
 3225TIP3    H2 9617   3.098   4.180   0.522
 3226TIP3   OH2 9618   6.161   0.330   6.584
 3226TIP3    H1 9619   6.123   0.278   6.655
 3226TIP3    H2 9620   6.209   0.266   6.531
 3227TIP3   OH2 9621   5.471   4.647   0.849
 3227TIP3    H1 9622   5.514   4.721   0.892
 3227TIP3    H2 9623   5.521   4.633   0.769
 3228TIP3   OH2 9624   2.687   4.469   1.424
 3228TIP3    H1 9625   2.644   4.392   1.388
 3228TIP3    H2 9626   2.756   4.435   1.480
 3229TIP3   OH2 9627   6.371   5.395   4.103
 3229TIP3    H1 9628   6.379   5.399   4.198
 3229TIP3    H2 9629   6.311   5.321   4.087
 3230TIP3   OH2 9630   4.382   0.167   0.639
 3230TIP3    H1 9631   4.457   0.216   0.606
 3230TIP3    H2 9632   4.407   0.075   0.628
 3231TIP3   OH2 9633   4.069   2.824   4.256
 3231TIP3    H1 9634   4.128   2.898   4.243
 3231TIP3    H2 9635   4.057   2.820   4.351
 3232TIP3   OH2 9636   5.827   3.954   4.396
 3232TIP3    H1 9637   5.797   3.906   4.319
 3232TIP3    H2 9638   5.909   3.995   4.369
 3233TIP3   OH2 9639   6.852   2.150   5.639
 3233TIP3    H1 9640   6.845   2.076   5.699
 3233TIP3    H2 9641   6.945   2.172   5.638
 3234TIP3   OH2 9642   0.030   4.573   4.098
 3234TIP3    H1 9643   0.082   4.635   4.047
 3234TIP3    H2 9644   0.046   4.598   4.189
 3235TIP3   OH2 9645   3.036   0.397   4.848
 3235TIP3    H1 9646   3.062   0.474   4.798
 3235TIP3    H2 9647   2.966   0.428   4.906
 3236TIP3   OH2 9648   4.066   6.169   5.764
 3236TIP3    H1 9649   4.056   6.127   5.679
 3236TIP3    H2 9650   4.128   6.241   5.748
 3237TIP3   OH2 9651   1.043   3.735   5.736
 3237TIP3    H1 9652   0.992   3.770   5.810
 3237TIP3    H2 9653   1.016   3.643   5.731
 3238TIP3   OH2 9654   4.010   1.696   4.872
 3238TIP3    H1 9655   4.032   1.702   4.965
 3238TIP3    H2 9656   3.920   1.726   4.866
 3239TIP3   OH2 9657   5.102   1.561   5.549
 3239TIP3    H1 9658   5.164   1.559   5.476
 3239TIP3    H2 9659   5.150   1.522   5.623
 3240TIP3   OH2 9660   5.915   3.024   5.867
 3240TIP3    H1 9661   5.819   3.020   5.868
 3240TIP3    H2 9662   5.935   3.117   5.856
 3241TIP3   OH2 9663   7.529   5.344   3.688
 3241TIP3    H1 9664   7.542   5.253   3.713
 3241TIP3    H2 9665   7.458   5.375   3.745
 3242TIP3   OH2 9666   2.358   5.600   5.304
 3242TIP3    H1 9667   2.417   5.674   5.317
 3242TIP3    H2 9668   2.405   5.525   5.342
 3243TIP3   OH2 9669   2.617   3.308   1.911
 3243TIP3    H1 9670   2.608   3.232   1.855
 3243TIP3    H2 9671   2.568   3.377   1.866
 3244TIP3   OH2 9672   6.223   7.855   4.058
 3244TIP3    H1 9673   6.260   7.809   4.133
 3244TIP3    H2 9674   6.131   7.868   4.081
 3245TIP3   OH2 9675   4.318   0.434   4.309
 3245TIP3    H1 9676   4.238   0.459   4.263
 3245TIP3    H2 9677   4.330   0.503   4.375
 3246TIP3   OH2 9678   1.839   4.104   2.899
 3246TIP3    H1 9679   1.770   4.132   2.839
 3246TIP3    H2 9680   1.916   4.091   2.843
 3247TIP3   OH2 9681   5.912   4.206   4.790
 3247TIP3    H1 9682   5.961   4.139   4.742
 3247TIP3    H2 9683   5.963   4.221   4.869
 3248TIP3   OH2 9684   3.315   7.316   5.179
 3248TIP3    H1 9685   3.298   7.223   5.168
 3248TIP3    H2 9686   3.405   7.329   5.150
 3249TIP3   OH2 9687   3.279   3.242   5.320
 3249TIP3    H1 9688   3.262   3.188   5.242
 3249TIP3    H2 9689   3.325   3.183   5.380
 3250TIP3   OH2 9690   3.994   6.771   3.898
 3250TIP3    H1 9691   3.943   6.845   3.867
 3250TIP3    H2 9692   4.070   6.768   3.840
 3251TIP3   OH2 9693   4.934   2.145   6.428
 3251TIP3    H1 9694   4.910   2.160   6.519
 3251TIP3    H2 9695   4.893   2.217   6.380
 3252TIP3   OH2 9696   7.379   5.949   1.125
 3252TIP3    H1 9697   7.406   5.965   1.034
 3252TIP3    H2 9698   7.436   5.879   1.155
 3253TIP3   OH2 9699   0.981   5.488   6.721
 3253TIP3    H1 9700   1.051   5.470   6.784
 3253TIP3    H2 9701   0.901   5.486   6.774
 3254TIP3   OH2 9702   6.035   5.000   2.379
 3254TIP3    H1 9703   6.101   5.057   2.338
 3254TIP3    H2 9704   6.006   5.050   2.456
 3255TIP3   OH2 9705   2.082   6.626   6.074
 3255TIP3    H1 9706   2.109   6.559   6.138
 3255TIP3    H2 9707   2.089   6.582   5.989
 3256TIP3   OH2 9708   6.325   5.406   5.598
 3256TIP3    H1 9709   6.348   5.464   5.525
 3256TIP3    H2 9710   6.312   5.321   5.557
 3257TIP3   OH2 9711   7.119   0.947   6.350
 3257TIP3    H1 9712   7.046   0.890   6.327
 3257TIP3    H2 9713   7.079   1.026   6.385
 3258TIP3   OH2 9714   0.231   3.782   6.220
 3258TIP3    H1 9715   0.178   3.813   6.146
 3258TIP3    H2 9716   0.296   3.725   6.181
 3259TIP3   OH2 9717   0.358   5.923   0.344
 3259TIP3    H1 9718   0.429   5.870   0.307
 3259TIP3    H2 9719   0.299   5.860   0.385
 3260TIP3   OH2 9720   8.268   2.432   2.935
 3260TIP3    H1 9721   8.216   2.492   2.881
 3260TIP3    H2 9722   8.358   2.460   2.920
 3261TIP3   OH2 9723   2.683   3.981   6.181
 3261TIP3    H1 9724   2.665   4.044   6.111
 3261TIP3    H2 9725   2.762   4.015   6.223
 3262TIP3   OH2 9726   6.858   6.706   0.585
 3262TIP3    H1 9727   6.792   6.750   0.531
 3262TIP3    H2 9728   6.903   6.777   0.631
 3263TIP3   OH2 9729   1.200   4.833   1.478
 3263TIP3    H1 9730   1.271   4.791   1.430
 3263TIP3    H2 9731   1.242   4.867   1.558
 3264TIP3   OH2 9732   0.337   2.254   0.366
 3264TIP3    H1 9733   0.251   2.214   0.356
 3264TIP3    H2 9734   0.387   2.222   0.291
 3265TIP3   OH2 9735   7.916   5.651   4.249
 3265TIP3    H1 9736   7.884   5.687   4.167
 3265TIP3    H2 9737   7.915   5.556   4.237
 3266TIP3   OH2 9738   1.199   0.343   2.985
 3266TIP3    H1 9739   1.151   0.401   2.925
 3266TIP3    H2 9740   1.246   0.403   3.044
 3267TIP3   OH2 9741   1.610   5.051   4.354
 3267TIP3    H1 9742   1.582   4.969   4.394
 3267TIP3    H2 9743   1.588   5.042   4.261
 3268TIP3   OH2 9744   1.814   3.737   1.642
 3268TIP3    H1 9745   1.748   3.674   1.673
 3268TIP3    H2 9746   1.766   3.819   1.631
 3269TIP3   OH2 9747   6.633   5.870   1.984
 3269TIP3    H1 9748   6.723   5.896   1.963
 3269TIP3    H2 9749   6.625   5.883   2.078
 3270TIP3   OH2 9750   2.257   2.396   1.269
 3270TIP3    H1 9751   2.185   2.353   1.317
 3270TIP3    H2 9752   2.290   2.328   1.211
 3271TIP3   OH2 9753   7.821   1.040   4.193
 3271TIP3    H1 9754   7.802   0.981   4.265
 3271TIP3    H2 9755   7.889   1.098   4.226
 3272TIP3   OH2 9756   8.117   5.200   0.102
 3272TIP3    H1 9757   8.184   5.219   0.037
 3272TIP3    H2 9758   8.161   5.212   0.186
 3273TIP3   OH2 9759   6.547   1.965   6.487
 3273TIP3    H1 9760   6.568   1.962   6.394
 3273TIP3    H2 9761   6.458   1.931   6.494
 3274TIP3   OH2 9762   0.107   0.879   2.870
 3274TIP3    H1 9763   0.160   0.904   2.946
 3274TIP3    H2 9764   0.127   0.787   2.856
 3275TIP3   OH2 9765   0.741   0.463   4.616
 3275TIP3    H1 9766   0.714   0.506   4.535
 3275TIP3    H2 9767   0.728   0.370   4.599
 3276TIP3   OH2 9768   3.059   2.132   4.041
 3276TIP3    H1 9769   3.039   2.040   4.027
 3276TIP3    H2 9770   3.154   2.134   4.055
 3277TIP3   OH2 9771   7.001   6.383   1.024
 3277TIP3    H1 9772   6.966   6.467   0.994
 3277TIP3    H2 9773   7.081   6.406   1.072
 3278TIP3   OH2 9774   3.789   1.083   5.055
 3278TIP3    H1 9775   3.798   1.135   5.134
 3278TIP3    H2 9776   3.703   1.108   5.019
 3279TIP3   OH2 9777   1.667   0.803   1.353
 3279TIP3    H1 9778   1.717   0.854   1.289
 3279TIP3    H2 9779   1.645   0.866   1.422
 3280TIP3   OH2 9780   1.104   4.433   0.748
 3280TIP3    H1 9781   1.157   4.354   0.751
 3280TIP3    H2 9782   1.164   4.504   0.772
 3281TIP3   OH2 9783   3.865   0.269   2.354
 3281TIP3    H1 9784   3.904   0.225   2.429
 3281TIP3    H2 9785   3.930   0.335   2.328
 3282TIP3   OH2 9786   8.279   2.951   2.056
 3282TIP3    H1 9787   8.275   2.883   2.124
 3282TIP3    H2 9788   8.221   2.918   1.988
 3283TIP3   OH2 9789   2.558   0.947   5.826
 3283TIP3    H1 9790   2.561   0.870   5.882
 3283TIP3    H2 9791   2.590   0.916   5.741
 3284TIP3   OH2 9792   0.812   2.711   3.708
 3284TIP3    H1 9793   0.846   2.755   3.786
 3284TIP3    H2 9794   0.869   2.635   3.696
 3285TIP3   OH2 9795   3.084   7.259   3.386
 3285TIP3    H1 9796   3.026   7.277   3.461
 3285TIP3    H2 9797   3.108   7.346   3.354
 3286TIP3   OH2 9798   3.081   3.069   1.217
 3286TIP3    H1 9799   2.999   3.100   1.178
 3286TIP3    H2 9800   3.083   2.975   1.196
 3287TIP3   OH2 9801   1.055   0.372   4.680
 3287TIP3    H1 9802   0.968   0.341   4.653
 3287TIP3    H2 9803   1.063   0.459   4.640
 3288TIP3   OH2 9804   2.880   2.256   2.418
 3288TIP3    H1 9805   2.789   2.279   2.398
 3288TIP3    H2 9806   2.891   2.281   2.509
 3289TIP3   OH2 9807   0.603   0.806   1.301
 3289TIP3    H1 9808   0.570   0.764   1.381
 3289TIP3    H2 9809   0.689   0.840   1.326
 3290TIP3   OH2 9810   4.888   0.242   5.637
 3290TIP3    H1 9811   4.834   0.279   5.707
 3290TIP3    H2 9812   4.875   0.147   5.644
 3291TIP3   OH2 9813   1.757   0.046   1.366
 3291TIP3    H1 9814   1.778   0.134   1.336
 3291TIP3    H2 9815   1.737  -0.002   1.286
 3292TIP3   OH2 9816   1.567   7.900   4.699
 3292TIP3    H1 9817   1.474   7.911   4.683
 3292TIP3    H2 9818   1.576   7.809   4.727
 3293TIP3   OH2 9819   0.276   6.529   4.650
 3293TIP3    H1 9820   0.181   6.532   4.638
 3293TIP3    H2 9821   0.300   6.438   4.633
 3294TIP3   OH2 9822   7.959   2.331   6.723
 3294TIP3    H1 9823   7.877   2.378   6.734
 3294TIP3    H2 9824   8.015   2.391   6.674
 3295TIP3   OH2 9825   4.553   5.981   6.325
 3295TIP3    H1 9826   4.525   5.896   6.292
 3295TIP3    H2 9827   4.494   6.044   6.283
 3296TIP3   OH2 9828   6.702   5.157   1.619
 3296TIP3    H1 9829   6.701   5.246   1.585
 3296TIP3    H2 9830   6.648   5.108   1.557
 3297TIP3   OH2 9831   2.940   4.098   1.552
 3297TIP3    H1 9832   2.934   4.193   1.540
 3297TIP3    H2 9833   2.871   4.077   1.614
 3298TIP3   OH2 9834   1.207   0.547   3.592
 3298TIP3    H1 9835   1.265   0.479   3.627
 3298TIP3    H2 9836   1.250   0.577   3.512
 3299TIP3   OH2 9837   5.735   6.378   4.251
 3299TIP3    H1 9838   5.830   6.369   4.263
 3299TIP3    H2 9839   5.699   6.297   4.288
 3300TIP3   OH2 9840   2.690   6.945   1.047
 3300TIP3    H1 9841   2.615   6.908   1.094
 3300TIP3    H2 9842   2.650   7.005   0.983
 3301TIP3   OH2 9843   6.473   3.138   0.967
 3301TIP3    H1 9844   6.507   3.079   0.900
 3301TIP3    H2 9845   6.476   3.225   0.926
 3302TIP3   OH2 9846   4.085   2.721   3.283
 3302TIP3    H1 9847   4.010   2.689   3.334
 3302TIP3    H2 9848   4.046   2.771   3.212
 3303TIP3   OH2 9849   1.804   4.308   6.156
 3303TIP3    H1 9850   1.792   4.403   6.156
 3303TIP3    H2 9851   1.731   4.275   6.104
 3304TIP3   OH2 9852   4.961   3.809   3.127
 3304TIP3    H1 9853   4.971   3.896   3.166
 3304TIP3    H2 9854   5.051   3.777   3.119
 3305TIP3   OH2 9855   8.059   0.949   0.142
 3305TIP3    H1 9856   8.004   0.965   0.065
 3305TIP3    H2 9857   8.004   0.973   0.216
 3306TIP3   OH2 9858   0.077   7.600   3.134
 3306TIP3    H1 9859   0.026   7.522   3.112
 3306TIP3    H2 9860   0.022   7.647   3.197
 3307TIP3   OH2 9861   7.171   5.399   1.117
 3307TIP3    H1 9862   7.194   5.490   1.137
 3307TIP3    H2 9863   7.129   5.403   1.032
 3308TIP3   OH2 9864   6.241   4.927   3.898
 3308TIP3    H1 9865   6.197   4.862   3.844
 3308TIP3    H2 9866   6.183   4.940   3.973
 3309TIP3   OH2 9867   4.486   0.089   3.240
 3309TIP3    H1 9868   4.566   0.140   3.228
 3309TIP3    H2 9869   4.465   0.056   3.153
 3310TIP3   OH2 9870   4.476   0.416   0.130
 3310TIP3    H1 9871   4.551   0.360   0.110
 3310TIP3    H2 9872   4.509   0.479   0.194
 3311TIP3   OH2 9873   2.393   7.232   5.234
 3311TIP3    H1 9874   2.298   7.241   5.220
 3311TIP3    H2 9875   2.412   7.142   5.208
 3312TIP3   OH2 9876   7.320   3.121   1.881
 3312TIP3    H1 9877   7.409   3.143   1.907
 3312TIP3    H2 9878   7.301   3.039   1.925
 3313TIP3   OH2 9879   7.389   0.551   2.581
 3313TIP3    H1 9880   7.311   0.495   2.585
 3313TIP3    H2 9881   7.360   0.635   2.616
 3314TIP3   OH2 9882   1.417   6.681   4.146
 3314TIP3    H1 9883   1.392   6.739   4.217
 3314TIP3    H2 9884   1.461   6.738   4.083
 3315TIP3   OH2 9885   0.957   4.799   1.315
 3315TIP3    H1 9886   1.031   4.809   1.374
 3315TIP3    H2 9887   0.973   4.863   1.245
 3316TIP3   OH2 9888   3.865   4.897   0.568
 3316TIP3    H1 9889   3.952   4.928   0.595
 3316TIP3    H2 9890   3.834   4.963   0.507
 3317TIP3   OH2 9891   3.081   1.149   2.839
 3317TIP3    H1 9892   3.052   1.060   2.858
 3317TIP3    H2 9893   3.008   1.204   2.868
 3318TIP3   OH2 9894   3.388   7.848   0.447
 3318TIP3    H1 9895   3.303   7.871   0.408
 3318TIP3    H2 9896   3.431   7.793   0.381
 3319TIP3   OH2 9897   7.032   3.522   3.832
 3319TIP3    H1 9898   7.125   3.514   3.853
 3319TIP3    H2 9899   7.014   3.452   3.770
 3320TIP3   OH2 9900   5.784   2.439   0.809
 3320TIP3    H1 9901   5.833   2.444   0.727
 3320TIP3    H2 9902   5.734   2.357   0.803
 3321TIP3   OH2 9903   0.882   3.530   5.543
 3321TIP3    H1 9904   0.818   3.581   5.592
 3321TIP3    H2 9905   0.842   3.445   5.531
 3322TIP3   OH2 9906   1.540   3.532   5.757
 3322TIP3    H1 9907   1.519   3.515   5.848
 3322TIP3    H2 9908   1.514   3.452   5.711
 3323TIP3   OH2 9909   5.805   4.979   5.581
 3323TIP3    H1 9910   5.811   4.900   5.635
 3323TIP3    H2 9911   5.878   5.033   5.610
 3324TIP3   OH2 9912   0.276   2.997   0.438
 3324TIP3    H1 9913   0.276   3.092   0.443
 3324TIP3    H2 9914   0.339   2.977   0.369
 3325TIP3   OH2 9915   1.127   3.135   2.635
 3325TIP3    H1 9916   1.100   3.043   2.630
 3325TIP3    H2 9917   1.167   3.143   2.721
 3326TIP3   OH2 9918   3.047   3.464   6.335
 3326TIP3    H1 9919   3.032   3.410   6.258
 3326TIP3    H2 9920   3.117   3.524   6.309
 3327TIP3   OH2 9921   0.879   1.813   3.879
 3327TIP3    H1 9922   0.871   1.835   3.972
 3327TIP3    H2 9923   0.854   1.721   3.875
 3328TIP3   OH2 9924   0.653   1.015   1.676
 3328TIP3    H1 9925   0.720   1.023   1.608
 3328TIP3    H2 9926   0.688   1.066   1.750
 3329TIP3   OH2 9927   4.352   3.661   2.718
 3329TIP3    H1 9928   4.306   3.599   2.663
 3329TIP3    H2 9929   4.390   3.725   2.657
 3330TIP3   OH2 9930   0.879   6.304   5.784
 3330TIP3    H1 9931   0.817   6.272   5.719
 3330TIP3    H2 9932   0.923   6.225   5.816
 3331TIP3   OH2 9933   5.305   7.651   6.496
 3331TIP3    H1 9934   5.356   7.697   6.562
 3331TIP3    H2 9935   5.325   7.559   6.509
 3332TIP3   OH2 9936   1.633   3.695   1.962
 3332TIP3    H1 9937   1.720   3.679   1.997
 3332TIP3    H2 9938   1.573   3.656   2.026
 3333TIP3   OH2 9939   4.969   3.726   1.721
 3333TIP3    H1 9940   5.021   3.806   1.728
 3333TIP3    H2 9941   4.899   3.737   1.785
 3334TIP3   OH2 9942   8.147   4.541   4.415
 3334TIP3    H1 9943   8.223   4.597   4.431
 3334TIP3    H2 9944   8.072   4.597   4.431
 3335TIP3   OH2 9945   8.021   2.867   3.496
 3335TIP3    H1 9946   8.113   2.863   3.523
 3335TIP3    H2 9947   7.984   2.937   3.549
 3336TIP3   OH2 9948   8.044   2.963   6.666
 3336TIP3    H1 9949   8.021   2.890   6.609
 3336TIP3    H2 9950   7.960   3.003   6.689
 3337TIP3   OH2 9951   5.337   4.914   2.533
 3337TIP3    H1 9952   5.251   4.944   2.562
 3337TIP3    H2 9953   5.343   4.941   2.442
 3338TIP3   OH2 9954   5.899   0.189   4.629
 3338TIP3    H1 9955   5.815   0.212   4.668
 3338TIP3    H2 9956   5.963   0.238   4.680
 3339TIP3   OH2 9957   7.254   1.981   3.189
 3339TIP3    H1 9958   7.199   2.047   3.230
 3339TIP3    H2 9959   7.227   1.898   3.229
 3340TIP3   OH2 9960   2.964   1.987   2.444
 3340TIP3    H1 9961   2.896   1.932   2.405
 3340TIP3    H2 9962   2.940   2.076   2.419
 3341TIP3   OH2 9963   0.159   2.529   0.172
 3341TIP3    H1 9964   0.223   2.462   0.147
 3341TIP3    H2 9965   0.074   2.493   0.146
 3342TIP3   OH2 9966   6.134   1.456   1.445
 3342TIP3    H1 9967   6.193   1.531   1.443
 3342TIP3    H2 9968   6.118   1.442   1.539
 3343TIP3   OH2 9969   2.915   4.010   3.587
 3343TIP3    H1 9970   2.869   3.966   3.658
 3343TIP3    H2 9971   2.908   4.103   3.608
 3344TIP3   OH2 9972   2.144   6.513   5.826
 3344TIP3    H1 9973   2.187   6.547   5.748
 3344TIP3    H2 9974   2.182   6.425   5.838
 3345TIP3   OH2 9975   1.915   1.106   4.203
 3345TIP3    H1 9976   1.906   1.051   4.281
 3345TIP3    H2 9977   1.843   1.078   4.146
 3346TIP3   OH2 9978   8.092   2.144   0.023
 3346TIP3    H1 9979   8.051   2.228   0.002
 3346TIP3    H2 9980   8.179   2.149  -0.016
 3347TIP3   OH2 9981   5.818   1.565   3.422
 3347TIP3    H1 9982   5.851   1.517   3.498
 3347TIP3    H2 9983   5.724   1.551   3.423
 3348TIP3   OH2 9984   5.576   5.598   4.867
 3348TIP3    H1 9985   5.531   5.654   4.803
 3348TIP3    H2 9986   5.572   5.647   4.949
 3349TIP3   OH2 9987   4.968   6.248   6.066
 3349TIP3    H1 9988   4.997   6.292   5.986
 3349TIP3    H2 9989   4.905   6.309   6.106
 3350TIP3   OH2 9990   3.948   0.158   2.612
 3350TIP3    H1 9991   3.861   0.174   2.650
 3350TIP3    H2 9992   3.947   0.065   2.591
 3351TIP3   OH2 9993   8.118   3.601   4.658
 3351TIP3    H1 9994   8.078   3.681   4.691
 3351TIP3    H2 9995   8.065   3.577   4.582
 3352TIP3   OH2 9996   7.224   6.295   1.237
 3352TIP3    H1 9997   7.252   6.358   1.303
 3352TIP3    H2 9998   7.136   6.269   1.265
 3353TIP3   OH2 9999   5.846   5.770   6.062
 3353TIP3    H110000   5.916   5.710   6.087
 3353TIP3    H210001   5.771   5.713   6.043
 3354TIP3   OH210002   1.063   2.451   0.404
 3354TIP3    H110003   1.146   2.416   0.371
 3354TIP3    H210004   1.051   2.410   0.489
 3355TIP3   OH210005   2.763   7.895   0.228
 3355TIP3    H110006   2.763   7.884   0.323
 3355TIP3    H210007   2.671   7.900   0.205
 3356TIP3   OH210008   6.260   5.542   2.297
 3356TIP3    H110009   6.277   5.466   2.353
 3356TIP3    H210010   6.176   5.576   2.328
 3357TIP3   OH210011   7.475   2.092   3.983
 3357TIP3    H110012   7.495   2.175   4.027
 3357TIP3    H210013   7.390   2.106   3.943
 3358TIP3   OH210014   6.994   0.379   3.288
 3358TIP3    H110015   6.992   0.311   3.356
 3358TIP3    H210016   6.902   0.405   3.277
 3359TIP3   OH210017   4.147   1.595   6.749
 3359TIP3    H110018   4.069   1.540   6.739
 3359TIP3    H210019   4.173   1.618   6.660
 3360TIP3   OH210020   4.795   1.298   4.565
 3360TIP3    H110021   4.853   1.327   4.636
 3360TIP3    H210022   4.853   1.274   4.494
 3361TIP3   OH210023   7.613   0.404   0.018
 3361TIP3    H110024   7.551   0.476   0.009
 3361TIP3    H210025   7.583   0.355   0.094
 3362TIP3   OH210026   3.448   0.266   4.449
 3362TIP3    H110027   3.384   0.278   4.379
 3362TIP3    H210028   3.533   0.269   4.406
 3363TIP3   OH210029   3.314   4.226   1.458
 3363TIP3    H110030   3.255   4.295   1.427
 3363TIP3    H210031   3.362   4.199   1.379
 3364TIP3   OH210032   0.268   3.795   1.238
 3364TIP3    H110033   0.268   3.883   1.274
 3364TIP3    H210034   0.226   3.741   1.305
 3365TIP3   OH210035   3.945   4.643   0.412
 3365TIP3    H110036   3.968   4.716   0.354
 3365TIP3    H210037   3.876   4.678   0.468
 3366TIP3   OH210038   2.342   7.380   1.949
 3366TIP3    H110039   2.349   7.293   1.912
 3366TIP3    H210040   2.263   7.376   2.004
 3367TIP3   OH210041   6.918   2.089   0.842
 3367TIP3    H110042   6.934   2.002   0.804
 3367TIP3    H210043   6.949   2.150   0.775
 3368TIP3   OH210044   5.026   1.831   5.634
 3368TIP3    H110045   5.084   1.759   5.610
 3368TIP3    H210046   4.943   1.809   5.593
 3369TIP3   OH210047   3.360   6.450   2.134
 3369TIP3    H110048   3.440   6.501   2.139
 3369TIP3    H210049   3.381   6.366   2.174
 3370TIP3   OH210050   6.599   4.224   5.215
 3370TIP3    H110051   6.655   4.164   5.166
 3370TIP3    H210052   6.655   4.299   5.235
 3371TIP3   OH210053   3.649   4.491   6.102
 3371TIP3    H110054   3.673   4.404   6.072
 3371TIP3    H210055   3.562   4.480   6.141
 3372TIP3   OH210056   0.084   1.484   3.464
 3372TIP3    H110057   0.078   1.561   3.521
 3372TIP3    H210058   0.132   1.419   3.515
 3373TIP3   OH210059   5.052   3.664   2.359
 3373TIP3    H110060   4.980   3.645   2.419
 3373TIP3    H210061   5.131   3.642   2.408
 3374TIP3   OH210062   0.244   0.189   2.581
 3374TIP3    H110063   0.207   0.174   2.495
 3374TIP3    H210064   0.297   0.112   2.599
 3375TIP3   OH210065   5.222   7.274   6.408
 3375TIP3    H110066   5.307   7.318   6.415
 3375TIP3    H210067   5.157   7.344   6.422
 3376TIP3   OH210068   4.319   4.925   3.329
 3376TIP3    H110069   4.332   4.841   3.372
 3376TIP3    H210070   4.397   4.976   3.350
 3377TIP3   OH210071   2.088   3.271   6.557
 3377TIP3    H110072   2.087   3.318   6.473
 3377TIP3    H210073   2.001   3.287   6.594
 3378TIP3   OH210074   7.841   5.802   1.491
 3378TIP3    H110075   7.770   5.747   1.524
 3378TIP3    H210076   7.798   5.882   1.461
 3379TIP3   OH210077   3.260   3.213   6.823
 3379TIP3    H110078   3.239   3.128   6.862
 3379TIP3    H210079   3.216   3.212   6.738
 3380TIP3   OH210080   7.230   5.971   1.402
 3380TIP3    H110081   7.296   5.966   1.333
 3380TIP3    H210082   7.198   6.062   1.397
 3381TIP3   OH210083   1.840   6.659   0.000
 3381TIP3    H110084   1.833   6.622   0.088
 3381TIP3    H210085   1.924   6.706   0.000
 3382TIP3   OH210086   0.346   0.198   4.237
 3382TIP3    H110087   0.408   0.188   4.310
 3382TIP3    H210088   0.399   0.235   4.166
 3383TIP3   OH210089   5.334   2.290   3.702
 3383TIP3    H110090   5.386   2.357   3.748
 3383TIP3    H210091   5.383   2.209   3.716
 3384TIP3   OH210092   8.209   2.318   3.555
 3384TIP3    H110093   8.166   2.281   3.632
 3384TIP3    H210094   8.232   2.242   3.502
 3385TIP3   OH210095   0.217   6.395   2.655
 3385TIP3    H110096   0.211   6.486   2.685
 3385TIP3    H210097   0.305   6.388   2.617
 3386TIP3   OH210098   5.338   3.294   1.955
 3386TIP3    H110099   5.370   3.220   2.007
 3386TIP3    H210100   5.247   3.270   1.934
 3387TIP3   OH210101   8.276   3.345   4.041
 3387TIP3    H110102   8.314   3.350   3.954
 3387TIP3    H210103   8.276   3.436   4.073
 3388TIP3   OH210104   4.963   5.516   1.141
 3388TIP3    H110105   4.879   5.469   1.140
 3388TIP3    H210106   5.016   5.470   1.075
 3389TIP3   OH210107   5.572   6.769   4.960
 3389TIP3    H110108   5.628   6.698   4.990
 3389TIP3    H210109   5.484   6.744   4.987
 3390TIP3   OH210110   5.733   2.560   4.155
 3390TIP3    H110111   5.780   2.501   4.095
 3390TIP3    H210112   5.679   2.614   4.098
 3391TIP3   OH210113   2.506   5.612   4.968
 3391TIP3    H110114   2.488   5.518   4.977
 3391TIP3    H210115   2.419   5.652   4.960
 3392TIP3   OH210116   7.251   5.340   0.501
 3392TIP3    H110117   7.285   5.252   0.488
 3392TIP3    H210118   7.292   5.371   0.581
 3393TIP3   OH210119   1.217   0.876   0.489
 3393TIP3    H110120   1.138   0.915   0.451
 3393TIP3    H210121   1.275   0.950   0.505
 3394TIP3   OH210122   2.089   3.967   3.612
 3394TIP3    H110123   2.077   3.995   3.703
 3394TIP3    H210124   2.074   3.873   3.614
 3395TIP3   OH210125   6.137   5.552   4.364
 3395TIP3    H110126   6.073   5.542   4.435
 3395TIP3    H210127   6.203   5.485   4.382
 3396TIP3   OH210128   3.764   0.523   3.961
 3396TIP3    H110129   3.734   0.471   3.887
 3396TIP3    H210130   3.686   0.569   3.992
 3397TIP3   OH210131   1.909   4.992   5.837
 3397TIP3    H110132   1.912   5.076   5.792
 3397TIP3    H210133   1.863   5.011   5.919
 3398TIP3   OH210134   7.712   5.169   5.026
 3398TIP3    H110135   7.672   5.107   5.087
 3398TIP3    H210136   7.638   5.215   4.987
 3399TIP3   OH210137   4.470   2.846   0.456
 3399TIP3    H110138   4.537   2.874   0.393
 3399TIP3    H210139   4.479   2.751   0.460
 3400TIP3   OH210140   3.382   5.947   0.235
 3400TIP3    H110141   3.471   5.918   0.212
 3400TIP3    H210142   3.329   5.918   0.161
 3401TIP3   OH210143   5.499   6.866   6.624
 3401TIP3    H110144   5.416   6.912   6.635
 3401TIP3    H210145   5.508   6.814   6.704
 3402TIP3   OH210146   3.550   5.744   4.834
 3402TIP3    H110147   3.522   5.727   4.924
 3402TIP3    H210148   3.563   5.657   4.796
 3403TIP3   OH210149   6.413   1.357   2.916
 3403TIP3    H110150   6.322   1.340   2.943
 3403TIP3    H210151   6.415   1.332   2.824
 3404TIP3   OH210152   6.869   3.190   1.439
 3404TIP3    H110153   6.806   3.119   1.426
 3404TIP3    H210154   6.848   3.226   1.525
 3405TIP3   OH210155   1.183   0.732   3.847
 3405TIP3    H110156   1.197   0.810   3.900
 3405TIP3    H210157   1.088   0.723   3.842
 3406TIP3   OH210158   7.722   6.029   2.470
 3406TIP3    H110159   7.718   5.958   2.407
 3406TIP3    H210160   7.721   6.109   2.416
 3407TIP3   OH210161   1.765   3.947   4.695
 3407TIP3    H110162   1.779   4.033   4.655
 3407TIP3    H210163   1.798   3.956   4.784
 3408TIP3   OH210164   6.922   5.912   2.346
 3408TIP3    H110165   7.006   5.902   2.391
 3408TIP3    H210166   6.921   5.840   2.282
 3409TIP3   OH210167   7.367   2.327   6.389
 3409TIP3    H110168   7.306   2.254   6.383
 3409TIP3    H210169   7.338   2.377   6.465
 3410TIP3   OH210170   0.523   0.126   6.138
 3410TIP3    H110171   0.428   0.124   6.151
 3410TIP3    H210172   0.559   0.134   6.226
 3411TIP3   OH210173   0.718   2.325   0.347
 3411TIP3    H110174   0.790   2.388   0.358
 3411TIP3    H210175   0.744   2.272   0.272
 3412TIP3   OH210176   4.311   4.073   2.788
 3412TIP3    H110177   4.252   4.039   2.721
 3412TIP3    H210178   4.394   4.086   2.743
 3413TIP3   OH210179   6.250   2.206   3.778
 3413TIP3    H110180   6.267   2.178   3.688
 3413TIP3    H210181   6.308   2.152   3.831
 3414TIP3   OH210182   5.061   1.373   3.243
 3414TIP3    H110183   5.007   1.296   3.225
 3414TIP3    H210184   5.065   1.377   3.339
 3415TIP3   OH210185   1.756   3.159   0.169
 3415TIP3    H110186   1.768   3.190   0.080
 3415TIP3    H210187   1.761   3.064   0.163
 3416TIP3   OH210188   6.050   1.392   3.938
 3416TIP3    H110189   5.969   1.341   3.947
 3416TIP3    H210190   6.099   1.373   4.018
 3417TIP3   OH210191   1.313   2.343   1.944
 3417TIP3    H110192   1.290   2.258   1.981
 3417TIP3    H210193   1.271   2.344   1.857
 3418TIP3   OH210194   0.644   2.828   0.076
 3418TIP3    H110195   0.716   2.814   0.015
 3418TIP3    H210196   0.623   2.740   0.107
 3419TIP3   OH210197   4.769   2.630   3.780
 3419TIP3    H110198   4.858   2.642   3.813
 3419TIP3    H210199   4.769   2.674   3.695
 3420TIP3   OH210200   2.568   3.417   5.231
 3420TIP3    H110201   2.473   3.424   5.230
 3420TIP3    H210202   2.592   3.404   5.139
 3421TIP3   OH210203   0.954   5.569   1.762
 3421TIP3    H110204   1.027   5.589   1.821
 3421TIP3    H210205   0.992   5.574   1.674
 3422TIP3   OH210206   6.993   2.577   6.537
 3422TIP3    H110207   6.966   2.488   6.515
 3422TIP3    H210208   7.001   2.577   6.632
 3423TIP3   OH210209   5.755   6.690   2.686
 3423TIP3    H110210   5.765   6.602   2.651
 3423TIP3    H210211   5.844   6.726   2.685
 3424TIP3   OH210212   3.687   1.023   1.498
 3424TIP3    H110213   3.594   1.009   1.484
 3424TIP3    H210214   3.692   1.088   1.568
 3425TIP3   OH210215   1.365   3.859   0.369
 3425TIP3    H110216   1.300   3.788   0.365
 3425TIP3    H210217   1.447   3.818   0.344
 3426TIP3   OH210218   8.127   2.423   5.185
 3426TIP3    H110219   8.214   2.436   5.148
 3426TIP3    H210220   8.069   2.477   5.132
 3427TIP3   OH210221   7.322   1.882   5.191
 3427TIP3    H110222   7.244   1.828   5.202
 3427TIP3    H210223   7.338   1.882   5.097
 3428TIP3   OH210224   7.928   3.813   6.794
 3428TIP3    H110225   7.944   3.863   6.874
 3428TIP3    H210226   7.832   3.810   6.787
 3429TIP3   OH210227   6.623   4.664   6.520
 3429TIP3    H110228   6.682   4.723   6.472
 3429TIP3    H210229   6.583   4.720   6.587
 3430TIP3   OH210230   0.035   4.362   1.277
 3430TIP3    H110231   0.101   4.293   1.284
 3430TIP3    H210232   0.016   4.387   1.368
 3431TIP3   OH210233   4.805   3.525   4.449
 3431TIP3    H110234   4.736   3.498   4.388
 3431TIP3    H210235   4.852   3.444   4.468
 3432TIP3   OH210236   2.986   1.972   6.100
 3432TIP3    H110237   3.023   1.890   6.135
 3432TIP3    H210238   2.942   2.012   6.175
 3433TIP3   OH210239   5.550   7.293   2.740
 3433TIP3    H110240   5.621   7.326   2.794
 3433TIP3    H210241   5.514   7.219   2.789
 3434TIP3   OH210242   6.418   4.988   1.411
 3434TIP3    H110243   6.330   5.016   1.389
 3434TIP3    H210244   6.475   5.043   1.357
 3435TIP3   OH210245   2.166   7.442   1.693
 3435TIP3    H110246   2.229   7.512   1.712
 3435TIP3    H210247   2.216   7.361   1.704
 3436TIP3   OH210248   4.577   3.640   4.584
 3436TIP3    H110249   4.495   3.590   4.579
 3436TIP3    H210250   4.645   3.577   4.561
 3437TIP3   OH210251   3.233   5.333   4.450
 3437TIP3    H110252   3.278   5.396   4.506
 3437TIP3    H210253   3.218   5.257   4.506
 3438TIP3   OH210254   6.030   7.194   6.042
 3438TIP3    H110255   6.026   7.272   5.987
 3438TIP3    H210256   6.103   7.210   6.101
 3439TIP3   OH210257   5.335   1.806   4.741
 3439TIP3    H110258   5.297   1.720   4.723
 3439TIP3    H210259   5.262   1.859   4.774
 3440TIP3   OH210260   6.530   0.032   5.609
 3440TIP3    H110261   6.436   0.035   5.595
 3440TIP3    H210262   6.568   0.029   5.521
 3441TIP3   OH210263   5.584   2.876   4.378
 3441TIP3    H110264   5.664   2.829   4.356
 3441TIP3    H210265   5.579   2.871   4.474
 3442TIP3   OH210266   4.239   3.090   5.336
 3442TIP3    H110267   4.334   3.088   5.349
 3442TIP3    H210268   4.208   3.007   5.372
 3443TIP3   OH210269   1.683   7.708   1.839
 3443TIP3    H110270   1.695   7.798   1.810
 3443TIP3    H210271   1.591   7.704   1.865
 3444TIP3   OH210272   2.695   7.152   4.648
 3444TIP3    H110273   2.734   7.209   4.582
 3444TIP3    H210274   2.626   7.205   4.687
 3445TIP3   OH210275   4.171   6.569   0.225
 3445TIP3    H110276   4.159   6.655   0.186
 3445TIP3    H210277   4.103   6.514   0.185
 3446TIP3   OH210278   0.794   6.363   2.461
 3446TIP3    H110279   0.724   6.379   2.398
 3446TIP3    H210280   0.766   6.285   2.510
 3447TIP3   OH210281   5.855   4.074   4.032
 3447TIP3    H110282   5.805   4.001   4.068
 3447TIP3    H210283   5.911   4.034   3.966
 3448TIP3   OH210284   7.891   7.189   5.123
 3448TIP3    H110285   7.958   7.183   5.054
 3448TIP3    H210286   7.814   7.225   5.079
 3449TIP3   OH210287   6.888   3.511   0.966
 3449TIP3    H110288   6.958   3.576   0.969
 3449TIP3    H210289   6.922   3.437   1.017
 3450TIP3   OH210290   6.147   7.273   2.413
 3450TIP3    H110291   6.087   7.345   2.393
 3450TIP3    H210292   6.124   7.204   2.350
 3451TIP3   OH210293   0.920   7.377   5.094
 3451TIP3    H110294   1.006   7.385   5.136
 3451TIP3    H210295   0.858   7.404   5.162
 3452TIP3   OH210296   2.564   1.371   2.286
 3452TIP3    H110297   2.545   1.292   2.235
 3452TIP3    H210298   2.487   1.382   2.342
 3453TIP3   OH210299   3.064   4.453   4.867
 3453TIP3    H110300   3.154   4.483   4.863
 3453TIP3    H210301   3.018   4.504   4.800
 3454TIP3   OH210302   4.636   7.249   1.194
 3454TIP3    H110303   4.697   7.177   1.176
 3454TIP3    H210304   4.594   7.266   1.110
 3455TIP3   OH210305   5.713   5.945   0.602
 3455TIP3    H110306   5.782   6.007   0.581
 3455TIP3    H210307   5.668   5.983   0.678
 3456TIP3   OH210308   6.799   0.183   3.015
 3456TIP3    H110309   6.748   0.257   2.981
 3456TIP3    H210310   6.849   0.152   2.940
 3457TIP3   OH210311   3.937   1.730   3.844
 3457TIP3    H110312   3.939   1.680   3.925
 3457TIP3    H210313   4.014   1.786   3.847
 3458TIP3   OH210314   6.243   4.859   0.190
 3458TIP3    H110315   6.292   4.884   0.268
 3458TIP3    H210316   6.159   4.829   0.223
 3459TIP3   OH210317   0.585   7.326   1.113
 3459TIP3    H110318   0.494   7.340   1.141
 3459TIP3    H210319   0.578   7.270   1.036
 3460TIP3   OH210320   3.212   1.761   3.020
 3460TIP3    H110321   3.234   1.805   2.938
 3460TIP3    H210322   3.288   1.778   3.077
 3461TIP3   OH210323   3.634   2.152   5.667
 3461TIP3    H110324   3.637   2.168   5.572
 3461TIP3    H210325   3.544   2.174   5.692
 3462TIP3   OH210326   3.918   2.959   0.790
 3462TIP3    H110327   3.895   3.046   0.756
 3462TIP3    H210328   3.964   2.916   0.719
 3463TIP3   OH210329   4.491   2.275   3.858
 3463TIP3    H110330   4.466   2.270   3.765
 3463TIP3    H210331   4.432   2.214   3.901
 3464TIP3   OH210332   2.508   0.559   5.787
 3464TIP3    H110333   2.460   0.570   5.869
 3464TIP3    H210334   2.599   0.573   5.811
 3465TIP3   OH210335   5.309   7.419   5.343
 3465TIP3    H110336   5.306   7.339   5.291
 3465TIP3    H210337   5.323   7.489   5.279
 3466TIP3   OH210338   4.768   1.962   0.340
 3466TIP3    H110339   4.695   1.904   0.363
 3466TIP3    H210340   4.805   1.923   0.261
 3467TIP3   OH210341   3.023   0.927   6.741
 3467TIP3    H110342   3.032   0.932   6.836
 3467TIP3    H210343   3.113   0.917   6.710
 3468TIP3   OH210344   3.522   3.584   1.437
 3468TIP3    H110345   3.484   3.658   1.483
 3468TIP3    H210346   3.449   3.524   1.423
 3469TIP3   OH210347   1.655   7.739   4.043
 3469TIP3    H110348   1.601   7.813   4.072
 3469TIP3    H210349   1.657   7.748   3.947
 3470TIP3   OH210350   0.622   4.190   1.950
 3470TIP3    H110351   0.699   4.192   2.007
 3470TIP3    H210352   0.623   4.276   1.906
 3471TIP3   OH210353   4.965   1.256   0.980
 3471TIP3    H110354   4.987   1.202   0.904
 3471TIP3    H210355   4.889   1.307   0.952
 3472TIP3   OH210356   5.860   1.527   4.282
 3472TIP3    H110357   5.818   1.461   4.338
 3472TIP3    H210358   5.947   1.539   4.319
 3473TIP3   OH210359   1.097   4.545   0.493
 3473TIP3    H110360   1.160   4.617   0.489
 3473TIP3    H210361   1.097   4.519   0.585
 3474TIP3   OH210362   2.849   2.466   6.678
 3474TIP3    H110363   2.906   2.416   6.737
 3474TIP3    H210364   2.883   2.555   6.683
 3475TIP3   OH210365   4.227   4.356   5.851
 3475TIP3    H110366   4.222   4.390   5.761
 3475TIP3    H210367   4.280   4.277   5.843
 3476TIP3   OH210368   3.454   5.096   2.997
 3476TIP3    H110369   3.365   5.109   3.031
 3476TIP3    H210370   3.505   5.168   3.035
 3477TIP3   OH210371   5.305   2.275   4.122
 3477TIP3    H110372   5.306   2.193   4.073
 3477TIP3    H210373   5.391   2.278   4.165
 3478TIP3   OH210374   2.398   6.518   3.148
 3478TIP3    H110375   2.377   6.594   3.202
 3478TIP3    H210376   2.341   6.526   3.072
 3479TIP3   OH210377   3.112   0.060   1.579
 3479TIP3    H110378   3.051   0.122   1.539
 3479TIP3    H210379   3.104   0.075   1.673
 3480TIP3   OH210380   7.281   2.286   4.008
 3480TIP3    H110381   7.197   2.327   4.025
 3480TIP3    H210382   7.332   2.302   4.087
 3481TIP3   OH210383   6.516   0.523   5.204
 3481TIP3    H110384   6.466   0.562   5.133
 3481TIP3    H210385   6.520   0.430   5.182
 3482TIP3   OH210386   1.883   0.285   1.363
 3482TIP3    H110387   1.949   0.296   1.432
 3482TIP3    H210388   1.840   0.370   1.357
 3483TIP3   OH210389   1.891   1.128   0.122
 3483TIP3    H110390   1.928   1.042   0.141
 3483TIP3    H210391   1.865   1.162   0.208
 3484TIP3   OH210392   6.125   1.059   2.183
 3484TIP3    H110393   6.041   1.026   2.217
 3484TIP3    H210394   6.134   1.146   2.221
 3485TIP3   OH210395   4.396   4.076   3.072
 3485TIP3    H110396   4.390   4.098   2.979
 3485TIP3    H210397   4.482   4.109   3.098
 3486TIP3   OH210398   7.864   3.820   3.151
 3486TIP3    H110399   7.948   3.841   3.190
 3486TIP3    H210400   7.878   3.830   3.057
 3487TIP3   OH210401   5.489   3.439   3.181
 3487TIP3    H110402   5.551   3.511   3.167
 3487TIP3    H210403   5.542   3.370   3.221
 3488TIP3   OH210404   2.846   2.178   6.529
 3488TIP3    H110405   2.857   2.141   6.617
 3488TIP3    H210406   2.921   2.145   6.480
 3489TIP3   OH210407   7.434   3.901   4.832
 3489TIP3    H110408   7.461   3.959   4.761
 3489TIP3    H210409   7.507   3.904   4.894
 3490TIP3   OH210410   3.121   4.817   0.725
 3490TIP3    H110411   3.053   4.829   0.658
 3490TIP3    H210412   3.192   4.771   0.680
 3491TIP3   OH210413   7.946   3.079   3.625
 3491TIP3    H110414   7.930   3.160   3.577
 3491TIP3    H210415   7.987   3.107   3.707
 3492TIP3   OH210416   1.789   3.266   4.278
 3492TIP3    H110417   1.751   3.181   4.259
 3492TIP3    H210418   1.883   3.249   4.287
 3493TIP3   OH210419   3.405   6.965   0.537
 3493TIP3    H110420   3.465   6.912   0.484
 3493TIP3    H210421   3.352   6.902   0.585
 3494TIP3   OH210422   3.572   7.639   3.830
 3494TIP3    H110423   3.510   7.697   3.787
 3494TIP3    H210424   3.530   7.553   3.829
 3495TIP3   OH210425   4.268   7.871   4.263
 3495TIP3    H110426   4.196   7.909   4.212
 3495TIP3    H210427   4.320   7.824   4.198
 3496TIP3   OH210428   7.586   1.554   2.157
 3496TIP3    H110429   7.590   1.634   2.209
 3496TIP3    H210430   7.584   1.584   2.066
 3497TIP3   OH210431   5.905   3.825   3.430
 3497TIP3    H110432   5.911   3.880   3.352
 3497TIP3    H210433   5.834   3.763   3.411
 3498TIP3   OH210434   3.931   2.381   6.263
 3498TIP3    H110435   4.002   2.331   6.223
 3498TIP3    H210436   3.960   2.472   6.256
 3499TIP3   OH210437   2.070   5.007   5.119
 3499TIP3    H110438   2.130   5.077   5.092
 3499TIP3    H210439   1.986   5.030   5.078
 3500TIP3   OH210440   1.122   0.710   5.824
 3500TIP3    H110441   1.157   0.799   5.832
 3500TIP3    H210442   1.130   0.689   5.731
 3501TIP3   OH210443   1.392   1.464   6.719
 3501TIP3    H110444   1.461   1.403   6.693
 3501TIP3    H210445   1.359   1.500   6.637
 3502TIP3   OH210446   8.017   1.001   4.828
 3502TIP3    H110447   8.022   1.082   4.777
 3502TIP3    H210448   8.102   0.995   4.870
 3503TIP3   OH210449   2.007   3.886   0.757
 3503TIP3    H110450   1.991   3.981   0.756
 3503TIP3    H210451   1.985   3.857   0.669
 3504TIP3   OH210452   1.689   7.674   4.317
 3504TIP3    H110453   1.683   7.765   4.345
 3504TIP3    H210454   1.696   7.678   4.221
 3505TIP3   OH210455   0.254   2.914   5.782
 3505TIP3    H110456   0.178   2.937   5.835
 3505TIP3    H210457   0.324   2.899   5.846
 3506TIP3   OH210458   0.555   3.865   4.648
 3506TIP3    H110459   0.492   3.812   4.698
 3506TIP3    H210460   0.624   3.887   4.711
 3507TIP3   OH210461   0.604   0.969   6.345
 3507TIP3    H110462   0.645   0.890   6.310
 3507TIP3    H210463   0.514   0.942   6.366
 3508TIP3   OH210464   2.920   1.593   1.320
 3508TIP3    H110465   2.941   1.682   1.347
 3508TIP3    H210466   2.833   1.577   1.357
 3509TIP3   OH210467   7.808   5.774   0.461
 3509TIP3    H110468   7.897   5.809   0.459
 3509TIP3    H210469   7.791   5.751   0.369
 3510TIP3   OH210470   5.165   0.075   5.656
 3510TIP3    H110471   5.182   0.163   5.690
 3510TIP3    H210472   5.071   0.063   5.665
 3511TIP3   OH210473   2.802   2.022   0.332
 3511TIP3    H110474   2.777   1.929   0.333
 3511TIP3    H210475   2.896   2.021   0.354
 3512TIP3   OH210476   5.572   3.473   2.807
 3512TIP3    H110477   5.508   3.525   2.857
 3512TIP3    H210478   5.573   3.388   2.853
 3513TIP3   OH210479   0.817   4.302   0.229
 3513TIP3    H110480   0.763   4.271   0.302
 3513TIP3    H210481   0.812   4.231   0.164
 3514TIP3   OH210482   7.543   2.236   6.003
 3514TIP3    H110483   7.458   2.265   6.036
 3514TIP3    H210484   7.591   2.317   5.984
 3515TIP3   OH210485   7.910   1.290   3.745
 3515TIP3    H110486   7.834   1.250   3.788
 3515TIP3    H210487   7.958   1.216   3.709
 3516TIP3   OH210488   7.294   0.991   6.165
 3516TIP3    H110489   7.219   0.998   6.224
 3516TIP3    H210490   7.284   0.906   6.123
 3517TIP3   OH210491   8.059   1.448   2.379
 3517TIP3    H110492   7.972   1.409   2.389
 3517TIP3    H210493   8.092   1.456   2.469
 3518TIP3   OH210494   1.476   6.941   6.161
 3518TIP3    H110495   1.446   6.894   6.084
 3518TIP3    H210496   1.398   6.988   6.192
 3519TIP3   OH210497   8.236   6.312   0.509
 3519TIP3    H110498   8.240   6.408   0.503
 3519TIP3    H210499   8.204   6.284   0.423
 3520TIP3   OH210500   0.421   3.174   6.612
 3520TIP3    H110501   0.512   3.145   6.610
 3520TIP3    H210502   0.409   3.206   6.702
 3521TIP3   OH210503   8.248   6.513   6.642
 3521TIP3    H110504   8.238   6.582   6.706
 3521TIP3    H210505   8.231   6.556   6.558
 3522TIP3   OH210506   3.844   1.593   5.243
 3522TIP3    H110507   3.813   1.539   5.171
 3522TIP3    H210508   3.833   1.683   5.213
 3523TIP3   OH210509   1.244   7.130   4.164
 3523TIP3    H110510   1.279   7.160   4.248
 3523TIP3    H210511   1.158   7.094   4.185
 3524TIP3   OH210512   2.761   0.781   2.104
 3524TIP3    H110513   2.824   0.723   2.147
 3524TIP3    H210514   2.799   0.869   2.114
 3525TIP3   OH210515   4.745   6.384   0.233
 3525TIP3    H110516   4.827   6.368   0.280
 3525TIP3    H210517   4.737   6.310   0.173
 3526TIP3   OH210518   2.765   6.672   6.308
 3526TIP3    H110519   2.756   6.612   6.234
 3526TIP3    H210520   2.814   6.746   6.272
 3527TIP3   OH210521   1.962   4.232   4.988
 3527TIP3    H110522   1.918   4.149   4.974
 3527TIP3    H210523   1.963   4.274   4.902
 3528TIP3   OH210524   2.754   7.658   4.137
 3528TIP3    H110525   2.773   7.586   4.197
 3528TIP3    H210526   2.719   7.727   4.192
 3529TIP3   OH210527   0.724   6.267   6.494
 3529TIP3    H110528   0.664   6.332   6.458
 3529TIP3    H210529   0.810   6.297   6.466
 3530TIP3   OH210530   7.902   7.710   3.937
 3530TIP3    H110531   7.924   7.619   3.917
 3530TIP3    H210532   7.827   7.730   3.881
 3531TIP3   OH210533   6.489   1.354   4.219
 3531TIP3    H110534   6.471   1.358   4.313
 3531TIP3    H210535   6.581   1.382   4.211
 3532TIP3   OH210536   7.143   6.931   6.503
 3532TIP3    H110537   7.162   6.848   6.460
 3532TIP3    H210538   7.107   6.906   6.588
 3533TIP3   OH210539   5.276   7.023   1.281
 3533TIP3    H110540   5.256   7.081   1.355
 3533TIP3    H210541   5.304   6.941   1.322
 3534TIP3   OH210542   3.648   1.111   2.125
 3534TIP3    H110543   3.724   1.079   2.174
 3534TIP3    H210544   3.584   1.040   2.131
 3535TIP3   OH210545   4.435   2.309   1.980
 3535TIP3    H110546   4.372   2.281   1.914
 3535TIP3    H210547   4.385   2.362   2.041
 3536TIP3   OH210548   3.546   5.829   4.202
 3536TIP3    H110549   3.498   5.871   4.273
 3536TIP3    H210550   3.542   5.735   4.223
 3537TIP3   OH210551   4.561   0.912   2.855
 3537TIP3    H110552   4.510   0.846   2.808
 3537TIP3    H210553   4.509   0.934   2.932
 3538TIP3   OH210554   4.162   6.900   0.981
 3538TIP3    H110555   4.183   6.820   0.933
 3538TIP3    H210556   4.210   6.968   0.935
 3539TIP3   OH210557   3.426   7.523   3.440
 3539TIP3    H110558   3.361   7.470   3.486
 3539TIP3    H210559   3.505   7.470   3.441
 3540TIP3   OH210560   7.329   0.345   2.059
 3540TIP3    H110561   7.408   0.388   2.024
 3540TIP3    H210562   7.338   0.355   2.154
 3541TIP3   OH210563   3.338   3.355   0.001
 3541TIP3    H110564   3.402   3.425   0.016
 3541TIP3    H210565   3.256   3.389   0.037
 3542TIP3   OH210566   1.665   0.088   5.756
 3542TIP3    H110567   1.583   0.128   5.785
 3542TIP3    H210568   1.662  -0.002   5.791
 3543TIP3   OH210569   1.340   3.842   6.827
 3543TIP3    H110570   1.345   3.911   6.761
 3543TIP3    H210571   1.247   3.834   6.847
 3544TIP3   OH210572   6.436   6.710   3.425
 3544TIP3    H110573   6.376   6.703   3.500
 3544TIP3    H210574   6.504   6.645   3.444
 3545TIP3   OH210575   1.529   6.944   4.744
 3545TIP3    H110576   1.496   7.033   4.728
 3545TIP3    H210577   1.478   6.888   4.686
 3546TIP3   OH210578   2.187   5.146   0.968
 3546TIP3    H110579   2.233   5.087   1.027
 3546TIP3    H210580   2.207   5.112   0.880
 3547TIP3   OH210581   5.386   6.770   5.606
 3547TIP3    H110582   5.341   6.854   5.598
 3547TIP3    H210583   5.356   6.735   5.691
 3548TIP3   OH210584   7.601   6.570   5.206
 3548TIP3    H110585   7.557   6.618   5.277
 3548TIP3    H210586   7.551   6.594   5.128
 3549TIP3   OH210587   6.991   7.187   1.731
 3549TIP3    H110588   7.000   7.208   1.824
 3549TIP3    H210589   6.897   7.177   1.718
 3550TIP3   OH210590   4.312   2.539   2.774
 3550TIP3    H110591   4.326   2.527   2.680
 3550TIP3    H210592   4.383   2.491   2.816
 3551TIP3   OH210593   4.881   3.152   5.466
 3551TIP3    H110594   4.947   3.175   5.531
 3551TIP3    H210595   4.798   3.185   5.502
 3552TIP3   OH210596   2.979   4.192   4.868
 3552TIP3    H110597   2.884   4.202   4.861
 3552TIP3    H210598   3.013   4.280   4.853
 3553TIP3   OH210599   5.012   7.075   6.372
 3553TIP3    H110600   5.000   7.135   6.446
 3553TIP3    H210601   5.103   7.088   6.345
 3554TIP3   OH210602   4.374   1.846   4.754
 3554TIP3    H110603   4.443   1.912   4.745
 3554TIP3    H210604   4.383   1.814   4.844
 3555TIP3   OH210605   4.522   0.381   6.244
 3555TIP3    H110606   4.586   0.327   6.197
 3555TIP3    H210607   4.553   0.470   6.231
 3556TIP3   OH210608   4.267   0.248   5.025
 3556TIP3    H110609   4.269   0.155   5.047
 3556TIP3    H210610   4.174   0.269   5.018
 3557TIP3   OH210611   3.555   1.723   1.989
 3557TIP3    H110612   3.571   1.686   1.902
 3557TIP3    H210613   3.628   1.692   2.042
 3558TIP3   OH210614   7.130   6.048   1.917
 3558TIP3    H110615   7.043   6.056   1.878
 3558TIP3    H210616   7.136   6.121   1.978
 3559TIP3   OH210617   5.923   5.620   0.537
 3559TIP3    H110618   5.852   5.557   0.549
 3559TIP3    H210619   6.002   5.566   0.531
 3560TIP3   OH210620   4.559   5.289   0.686
 3560TIP3    H110621   4.512   5.371   0.673
 3560TIP3    H210622   4.651   5.315   0.695
 3561TIP3   OH210623   2.076   2.803   0.165
 3561TIP3    H110624   2.102   2.895   0.154
 3561TIP3    H210625   2.027   2.783   0.086
 3562TIP3   OH210626   7.656   1.309   1.178
 3562TIP3    H110627   7.749   1.293   1.192
 3562TIP3    H210628   7.653   1.370   1.104
 3563TIP3   OH210629   6.894   6.217   0.032
 3563TIP3    H110630   6.986   6.195   0.017
 3563TIP3    H210631   6.864   6.149   0.092
 3564TIP3   OH210632   7.971   5.206   4.777
 3564TIP3    H110633   7.890   5.178   4.734
 3564TIP3    H210634   8.032   5.223   4.705
 3565TIP3   OH210635   4.599   7.225   5.205
 3565TIP3    H110636   4.648   7.174   5.270
 3565TIP3    H210637   4.663   7.242   5.136
 3566TIP3   OH210638   8.249   1.630   3.709
 3566TIP3    H110639   8.172   1.606   3.658
 3566TIP3    H210640   8.258   1.725   3.698
 3567TIP3   OH210641   6.372   0.734   1.815
 3567TIP3    H110642   6.290   0.709   1.858
 3567TIP3    H210643   6.346   0.803   1.753
 3568TIP3   OH210644   3.520   6.939   1.839
 3568TIP3    H110645   3.440   6.955   1.887
 3568TIP3    H210646   3.493   6.885   1.764
 3569TIP3   OH210647   7.826   5.954   5.041
 3569TIP3    H110648   7.808   5.984   4.952
 3569TIP3    H210649   7.767   5.881   5.055
 3570TIP3   OH210650   7.365   4.430   5.797
 3570TIP3    H110651   7.281   4.472   5.818
 3570TIP3    H210652   7.398   4.479   5.722
 3571TIP3   OH210653   3.697   1.989   3.452
 3571TIP3    H110654   3.744   2.030   3.524
 3571TIP3    H210655   3.665   2.061   3.398
 3572TIP3   OH210656   3.599   3.047   4.856
 3572TIP3    H110657   3.663   3.089   4.913
 3572TIP3    H210658   3.615   3.086   4.770
 3573TIP3   OH210659   3.736   3.125   3.900
 3573TIP3    H110660   3.686   3.095   3.976
 3573TIP3    H210661   3.730   3.053   3.838
 3574TIP3   OH210662   3.374   2.632   3.687
 3574TIP3    H110663   3.421   2.607   3.607
 3574TIP3    H210664   3.397   2.565   3.751
 3575TIP3   OH210665   5.591   1.316   1.750
 3575TIP3    H110666   5.645   1.311   1.829
 3575TIP3    H210667   5.525   1.381   1.771
 3576TIP3   OH210668   6.723   6.891   2.007
 3576TIP3    H110669   6.778   6.922   2.080
 3576TIP3    H210670   6.770   6.817   1.971
 3577TIP3   OH210671   0.560   6.834   2.341
 3577TIP3    H110672   0.493   6.810   2.405
 3577TIP3    H210673   0.512   6.876   2.270
 3578TIP3   OH210674   2.421   0.796   4.738
 3578TIP3    H110675   2.359   0.860   4.772
 3578TIP3    H210676   2.368   0.720   4.717
 3579TIP3   OH210677   4.368   3.827   0.407
 3579TIP3    H110678   4.278   3.835   0.374
 3579TIP3    H210679   4.409   3.762   0.350
 3580TIP3   OH210680   7.766   0.869   4.448
 3580TIP3    H110681   7.756   0.805   4.519
 3580TIP3    H210682   7.841   0.837   4.398
 3581TIP3   OH210683   7.629   5.474   2.502
 3581TIP3    H110684   7.611   5.451   2.593
 3581TIP3    H210685   7.543   5.481   2.461
 3582TIP3   OH210686   0.478   4.732   6.810
 3582TIP3    H110687   0.431   4.649   6.801
 3582TIP3    H210688   0.559   4.709   6.856
 3583TIP3   OH210689   2.368   4.238   0.187
 3583TIP3    H110690   2.306   4.295   0.231
 3583TIP3    H210691   2.399   4.290   0.113
 3584TIP3   OH210692   3.593   2.281   3.672
 3584TIP3    H110693   3.669   2.227   3.649
 3584TIP3    H210694   3.593   2.351   3.608
 3585TIP3   OH210695   6.920   5.505   4.164
 3585TIP3    H110696   7.005   5.541   4.138
 3585TIP3    H210697   6.875   5.488   4.081
 3586TIP3   OH210698   1.800   6.497   1.808
 3586TIP3    H110699   1.870   6.460   1.862
 3586TIP3    H210700   1.720   6.454   1.838
 3587TIP3   OH210701   1.952   1.513   0.516
 3587TIP3    H110702   2.022   1.484   0.457
 3587TIP3    H210703   1.895   1.566   0.461
 3588TIP3   OH210704   6.697   7.139   0.410
 3588TIP3    H110705   6.664   7.174   0.492
 3588TIP3    H210706   6.783   7.102   0.432
 3589TIP3   OH210707   2.105   2.783   3.890
 3589TIP3    H110708   2.086   2.855   3.830
 3589TIP3    H210709   2.104   2.705   3.835
 3590TIP3   OH210710   1.056   3.038   4.127
 3590TIP3    H110711   1.096   3.118   4.092
 3590TIP3    H210712   0.966   3.063   4.148
 3591TIP3   OH210713   2.384   0.973   6.625
 3591TIP3    H110714   2.318   0.962   6.693
 3591TIP3    H210715   2.467   0.970   6.671
 3592TIP3   OH210716   0.589   5.836   4.462
 3592TIP3    H110717   0.659   5.786   4.422
 3592TIP3    H210718   0.627   5.922   4.480
 3593TIP3   OH210719   5.932   2.162   5.609
 3593TIP3    H110720   6.015   2.158   5.560
 3593TIP3    H210721   5.865   2.174   5.542
 3594TIP3   OH210722   2.963   0.390   0.390
 3594TIP3    H110723   3.014   0.471   0.391
 3594TIP3    H210724   2.902   0.399   0.464
 3595TIP3   OH210725   1.359   2.876   1.763
 3595TIP3    H110726   1.268   2.846   1.762
 3595TIP3    H210727   1.354   2.969   1.740
 3596TIP3   OH210728   7.602   2.982   0.212
 3596TIP3    H110729   7.606   2.913   0.145
 3596TIP3    H210730   7.659   2.950   0.282
 3597TIP3   OH210731   8.318   1.859   6.620
 3597TIP3    H110732   8.316   1.842   6.714
 3597TIP3    H210733   8.246   1.921   6.605
 3598TIP3   OH210734   3.566   5.647   5.089
 3598TIP3    H110735   3.563   5.581   5.159
 3598TIP3    H210736   3.531   5.726   5.129
 3599TIP3   OH210737   0.217   5.528   6.637
 3599TIP3    H110738   0.290   5.513   6.697
 3599TIP3    H210739   0.212   5.623   6.629
 3600TIP3   OH210740   2.864   4.007   1.087
 3600TIP3    H110741   2.791   3.995   1.148
 3600TIP3    H210742   2.941   3.978   1.136
 3601TIP3   OH210743   1.426   3.899   5.882
 3601TIP3    H110744   1.408   3.955   5.806
 3601TIP3    H210745   1.521   3.886   5.880
 3602TIP3   OH210746   4.522   6.008   3.889
 3602TIP3    H110747   4.480   6.016   3.804
 3602TIP3    H210748   4.616   6.007   3.869
 3603TIP3   OH210749   3.421   6.349   3.456
 3603TIP3    H110750   3.512   6.351   3.427
 3603TIP3    H210751   3.420   6.284   3.527
 3604TIP3   OH210752   3.494   6.273   1.386
 3604TIP3    H110753   3.477   6.277   1.292
 3604TIP3    H210754   3.450   6.349   1.422
 3605TIP3   OH210755   1.166   4.363   5.810
 3605TIP3    H110756   1.112   4.438   5.786
 3605TIP3    H210757   1.243   4.370   5.753
 3606TIP3   OH210758   4.828   1.011   0.186
 3606TIP3    H110759   4.904   1.039   0.134
 3606TIP3    H210760   4.857   1.021   0.276
 3607TIP3   OH210761   2.155   0.979   5.840
 3607TIP3    H110762   2.201   0.896   5.826
 3607TIP3    H210763   2.184   1.035   5.768
 3608TIP3   OH210764   6.649   6.716   6.314
 3608TIP3    H110765   6.647   6.639   6.258
 3608TIP3    H210766   6.569   6.709   6.367
 3609TIP3   OH210767   6.255   3.401   3.545
 3609TIP3    H110768   6.278   3.492   3.562
 3609TIP3    H210769   6.242   3.397   3.450
 3610TIP3   OH210770   6.708   1.466   5.407
 3610TIP3    H110771   6.688   1.473   5.501
 3610TIP3    H210772   6.785   1.408   5.403
 3611TIP3   OH210773   3.813   7.607   3.947
 3611TIP3    H110774   3.846   7.518   3.956
 3611TIP3    H210775   3.737   7.599   3.890
 3612TIP3   OH210776   1.198   2.207   4.392
 3612TIP3    H110777   1.174   2.180   4.481
 3612TIP3    H210778   1.293   2.198   4.389
 3613TIP3   OH210779   7.548   4.996   4.584
 3613TIP3    H110780   7.466   4.956   4.613
 3613TIP3    H210781   7.581   4.937   4.517
 3614TIP3   OH210782   0.077   4.025   2.563
 3614TIP3    H110783   0.080   4.098   2.625
 3614TIP3    H210784   0.167   4.017   2.530
 3615TIP3   OH210785   7.763   6.790   1.722
 3615TIP3    H110786   7.769   6.867   1.779
 3615TIP3    H210787   7.845   6.743   1.738
 3616TIP3   OH210788   3.674   0.334   0.053
 3616TIP3    H110789   3.604   0.300  -0.004
 3616TIP3    H210790   3.661   0.429   0.052
 3617TIP3   OH210791   2.778   0.440   4.336
 3617TIP3    H110792   2.770   0.400   4.249
 3617TIP3    H210793   2.697   0.490   4.347
 3618TIP3   OH210794   8.212   5.177   1.930
 3618TIP3    H110795   8.262   5.256   1.951
 3618TIP3    H210796   8.136   5.181   1.988
 3619TIP3   OH210797   5.197   3.421   2.931
 3619TIP3    H110798   5.125   3.376   2.974
 3619TIP3    H210799   5.273   3.364   2.945
 3620TIP3   OH210800   3.007   3.168   4.686
 3620TIP3    H110801   3.021   3.126   4.771
 3620TIP3    H210802   3.067   3.243   4.686
 3621TIP3   OH210803   6.277   1.974   1.169
 3621TIP3    H110804   6.287   2.001   1.261
 3621TIP3    H210805   6.366   1.956   1.140
 3622TIP3   OH210806   6.101   5.100   0.495
 3622TIP3    H110807   6.105   5.161   0.421
 3622TIP3    H210808   6.164   5.031   0.473
 3623TIP3   OH210809   7.778   4.704   6.246
 3623TIP3    H110810   7.737   4.664   6.169
 3623TIP3    H210811   7.775   4.636   6.313
 3624TIP3   OH210812   2.753   7.302   6.685
 3624TIP3    H110813   2.750   7.397   6.678
 3624TIP3    H210814   2.737   7.284   6.777
 3625TIP3   OH210815   2.172   1.172   4.714
 3625TIP3    H110816   2.195   1.129   4.631
 3625TIP3    H210817   2.103   1.234   4.690
 3626TIP3   OH210818   3.067   7.237   5.500
 3626TIP3    H110819   3.060   7.150   5.460
 3626TIP3    H210820   3.130   7.225   5.571
 3627TIP3   OH210821   0.772   0.403   1.478
 3627TIP3    H110822   0.695   0.386   1.532
 3627TIP3    H210823   0.742   0.466   1.413
 3628TIP3   OH210824   2.999   2.948   4.297
 3628TIP3    H110825   3.059   3.010   4.338
 3628TIP3    H210826   3.036   2.862   4.317
 3629TIP3   OH210827   0.766   0.561   4.884
 3629TIP3    H110828   0.675   0.545   4.908
 3629TIP3    H210829   0.777   0.514   4.801
 3630TIP3   OH210830   1.746   4.162   3.527
 3630TIP3    H110831   1.753   4.243   3.477
 3630TIP3    H210832   1.737   4.093   3.460
 3631TIP3   OH210833   0.082   7.618   0.030
 3631TIP3    H110834   0.024   7.693   0.022
 3631TIP3    H210835   0.147   7.645   0.096
 3632TIP3   OH210836   1.430   4.247   1.426
 3632TIP3    H110837   1.494   4.263   1.496
 3632TIP3    H210838   1.353   4.214   1.471
 3633TIP3   OH210839   0.984   1.817   4.127
 3633TIP3    H110840   0.914   1.754   4.141
 3633TIP3    H210841   1.043   1.805   4.201
 3634TIP3   OH210842   0.650   1.741   6.144
 3634TIP3    H110843   0.593   1.790   6.203
 3634TIP3    H210844   0.710   1.693   6.202
 3635TIP3   OH210845   2.584   5.492   1.191
 3635TIP3    H110846   2.552   5.486   1.101
 3635TIP3    H210847   2.668   5.446   1.190
 3636TIP3   OH210848   0.414   6.215   6.059
 3636TIP3    H110849   0.488   6.225   6.120
 3636TIP3    H210850   0.442   6.261   5.980
 3637TIP3   OH210851   7.256   1.085   2.605
 3637TIP3    H110852   7.302   1.053   2.527
 3637TIP3    H210853   7.184   1.138   2.570
 3638TIP3   OH210854   7.147   1.252   0.690
 3638TIP3    H110855   7.060   1.292   0.688
 3638TIP3    H210856   7.133   1.168   0.736
 3639TIP3   OH210857   3.018   7.320   2.191
 3639TIP3    H110858   3.057   7.401   2.223
 3639TIP3    H210859   2.937   7.312   2.241
 3640TIP3   OH210860   8.128   3.071   1.090
 3640TIP3    H110861   8.144   3.109   1.176
 3640TIP3    H210862   8.092   3.144   1.039
 3641TIP3   OH210863   7.670   0.020   3.141
 3641TIP3    H110864   7.637  -0.066   3.168
 3641TIP3    H210865   7.611   0.082   3.184
 3642TIP3   OH210866   8.093   1.695   1.992
 3642TIP3    H110867   8.007   1.683   2.031
 3642TIP3    H210868   8.149   1.721   2.065
 3643TIP3   OH210869   5.281   5.148   6.506
 3643TIP3    H110870   5.193   5.185   6.498
 3643TIP3    H210871   5.338   5.217   6.472
 3644TIP3   OH210872   3.403   6.769   1.671
 3644TIP3    H110873   3.365   6.682   1.678
 3644TIP3    H210874   3.382   6.798   1.582
 3645TIP3   OH210875   5.735   1.738   5.037
 3645TIP3    H110876   5.750   1.644   5.035
 3645TIP3    H210877   5.809   1.773   5.086
 3646TIP3   OH210878   8.194   1.598   6.515
 3646TIP3    H110879   8.100   1.612   6.529
 3646TIP3    H210880   8.235   1.676   6.554
 3647TIP3   OH210881   4.888   1.952   6.237
 3647TIP3    H110882   4.917   2.006   6.311
 3647TIP3    H210883   4.812   1.904   6.270
 3648TIP3   OH210884   4.349   6.697   1.304
 3648TIP3    H110885   4.288   6.651   1.362
 3648TIP3    H210886   4.305   6.780   1.285
 3649TIP3   OH210887   5.149   2.376   6.183
 3649TIP3    H110888   5.195   2.367   6.099
 3649TIP3    H210889   5.214   2.350   6.249
 3650TIP3   OH210890   8.252   4.227   1.722
 3650TIP3    H110891   8.199   4.152   1.694
 3650TIP3    H210892   8.337   4.213   1.678
 3651TIP3   OH210893   3.103   4.198   2.085
 3651TIP3    H110894   3.121   4.211   1.991
 3651TIP3    H210895   3.151   4.118   2.107
 3652TIP3   OH210896   5.347   4.570   6.074
 3652TIP3    H110897   5.379   4.617   5.996
 3652TIP3    H210898   5.273   4.519   6.042
 3653TIP3   OH210899   6.260   6.558   5.608
 3653TIP3    H110900   6.302   6.637   5.641
 3653TIP3    H210901   6.214   6.586   5.529
 3654TIP3   OH210902   0.700   6.410   3.766
 3654TIP3    H110903   0.742   6.380   3.685
 3654TIP3    H210904   0.689   6.330   3.817
 3655TIP3   OH210905   4.058   6.002   2.393
 3655TIP3    H110906   4.105   6.031   2.471
 3655TIP3    H210907   4.108   6.039   2.320
 3656TIP3   OH210908   3.108   5.502   3.328
 3656TIP3    H110909   3.108   5.474   3.236
 3656TIP3    H210910   3.064   5.430   3.374
 3657TIP3   OH210911   3.827   4.934   1.194
 3657TIP3    H110912   3.828   4.959   1.102
 3657TIP3    H210913   3.917   4.909   1.214
 3658TIP3   OH210914   6.412   0.353   5.607
 3658TIP3    H110915   6.498   0.350   5.648
 3658TIP3    H210916   6.352   0.316   5.673
 3659TIP3   OH210917   6.724   7.122   1.762
 3659TIP3    H110918   6.639   7.107   1.720
 3659TIP3    H210919   6.705   7.122   1.856
 3660TIP3   OH210920   5.197   5.827   3.863
 3660TIP3    H110921   5.113   5.783   3.850
 3660TIP3    H210922   5.214   5.871   3.780
 3661TIP3   OH210923   7.352   2.782   3.346
 3661TIP3    H110924   7.376   2.698   3.307
 3661TIP3    H210925   7.404   2.788   3.426
 3662TIP3   OH210926   7.200   4.212   5.773
 3662TIP3    H110927   7.203   4.193   5.679
 3662TIP3    H210928   7.266   4.279   5.787
 3663TIP3   OH210929   7.071   6.232   2.847
 3663TIP3    H110930   7.054   6.143   2.815
 3663TIP3    H210931   7.022   6.288   2.786
 3664TIP3   OH210932   4.882   5.714   2.883
 3664TIP3    H110933   4.813   5.651   2.904
 3664TIP3    H210934   4.878   5.724   2.788
 3665TIP3   OH210935   5.088   1.469   0.792
 3665TIP3    H110936   4.997   1.454   0.817
 3665TIP3    H210937   5.123   1.381   0.776
 3666TIP3   OH210938   8.303   2.766   5.057
 3666TIP3    H110939   8.293   2.814   4.975
 3666TIP3    H210940   8.228   2.793   5.110
 3667TIP3   OH210941   5.501   1.464   0.664
 3667TIP3    H110942   5.588   1.477   0.702
 3667TIP3    H210943   5.473   1.379   0.696
 3668TIP3   OH210944   5.762   7.132   6.824
 3668TIP3    H110945   5.713   7.057   6.790
 3668TIP3    H210946   5.702   7.173   6.887
 3669TIP3   OH210947   3.598   6.378   6.286
 3669TIP3    H110948   3.550   6.460   6.298
 3669TIP3    H210949   3.544   6.312   6.329
 3670TIP3   OH210950   1.909   0.700   0.974
 3670TIP3    H110951   1.898   0.773   1.035
 3670TIP3    H210952   1.819   0.675   0.951
 3671TIP3   OH210953   3.007   7.865   2.173
 3671TIP3    H110954   3.015   7.959   2.191
 3671TIP3    H210955   3.088   7.842   2.127
 3672TIP3   OH210956   7.866   1.982   4.123
 3672TIP3    H110957   7.811   1.975   4.202
 3672TIP3    H210958   7.881   2.076   4.112
 3673TIP3   OH210959   2.042   2.605   6.798
 3673TIP3    H110960   2.029   2.640   6.710
 3673TIP3    H210961   2.051   2.511   6.785
 3674TIP3   OH210962   0.897   5.267   1.196
 3674TIP3    H110963   0.882   5.235   1.285
 3674TIP3    H210964   0.834   5.339   1.186
 3675TIP3   OH210965   2.802   7.230   6.241
 3675TIP3    H110966   2.839   7.207   6.156
 3675TIP3    H210967   2.707   7.217   6.231
 3676TIP3   OH210968   0.826   5.208   1.457
 3676TIP3    H110969   0.886   5.153   1.507
 3676TIP3    H210970   0.753   5.150   1.435
 3677TIP3   OH210971   4.739   4.184   5.388
 3677TIP3    H110972   4.649   4.170   5.356
 3677TIP3    H210973   4.784   4.102   5.368
 3678TIP3   OH210974   2.083   6.718   2.363
 3678TIP3    H110975   2.157   6.658   2.370
 3678TIP3    H210976   2.109   6.794   2.415
 3679TIP3   OH210977   1.784   1.191   3.952
 3679TIP3    H110978   1.779   1.241   3.871
 3679TIP3    H210979   1.876   1.166   3.960
 3680TIP3   OH210980   1.778   4.158   6.412
 3680TIP3    H110981   1.857   4.113   6.442
 3680TIP3    H210982   1.805   4.205   6.333
 3681TIP3   OH210983   7.814   4.862   0.342
 3681TIP3    H110984   7.757   4.909   0.281
 3681TIP3    H210985   7.902   4.873   0.305
 3682TIP3   OH210986   0.103   1.774   5.346
 3682TIP3    H110987   0.091   1.833   5.420
 3682TIP3    H210988   0.194   1.786   5.320
 3683TIP3   OH210989   0.929   1.111   1.228
 3683TIP3    H110990   0.991   1.087   1.160
 3683TIP3    H210991   0.924   1.207   1.225
 3684TIP3   OH210992   4.281   4.890   4.136
 3684TIP3    H110993   4.203   4.843   4.164
 3684TIP3    H210994   4.340   4.822   4.103
 3685TIP3   OH210995   5.095   6.679   5.348
 3685TIP3    H110996   5.123   6.595   5.312
 3685TIP3    H210997   5.015   6.701   5.301
 3686TIP3   OH210998   2.554   3.302   3.865
 3686TIP3    H110999   2.644   3.332   3.852
 3686TIP3    H211000   2.503   3.383   3.873
 3687TIP3   OH211001   0.254   5.763   1.201
 3687TIP3    H111002   0.322   5.722   1.147
 3687TIP3    H211003   0.193   5.801   1.138
 3688TIP3   OH211004   5.431   7.403   6.530
 3688TIP3    H111005   5.487   7.337   6.489
 3688TIP3    H211006   5.460   7.406   6.621
 3689TIP3   OH211007   6.700   1.406   0.906
 3689TIP3    H111008   6.681   1.500   0.905
 3689TIP3    H211009   6.625   1.367   0.952
 3690TIP3   OH211010   1.053   2.100   0.168
 3690TIP3    H111011   1.046   2.119   0.261
 3690TIP3    H211012   1.137   2.137   0.142
 3691TIP3   OH211013   6.661   3.367   5.095
 3691TIP3    H111014   6.572   3.389   5.067
 3691TIP3    H211015   6.717   3.397   5.023
 3692TIP3   OH211016   0.692   6.090   5.170
 3692TIP3    H111017   0.658   6.080   5.259
 3692TIP3    H211018   0.699   6.185   5.157
 3693TIP3   OH211019   6.993   3.510   2.402
 3693TIP3    H111020   7.027   3.428   2.438
 3693TIP3    H211021   6.966   3.560   2.478
 3694TIP3   OH211022   7.262   3.855   1.327
 3694TIP3    H111023   7.246   3.815   1.241
 3694TIP3    H211024   7.269   3.780   1.387
 3695TIP3   OH211025   0.124   5.871   0.072
 3695TIP3    H111026   0.111   5.931  -0.002
 3695TIP3    H211027   0.068   5.796   0.052
 3696TIP3   OH211028   8.381   0.706   3.183
 3696TIP3    H111029   8.337   0.743   3.260
 3696TIP3    H211030   8.355   0.614   3.183
 3697TIP3   OH211031   0.415   0.721   3.963
 3697TIP3    H111032   0.442   0.807   3.930
 3697TIP3    H211033   0.363   0.683   3.892
 3698TIP3   OH211034   4.059   2.429   4.553
 3698TIP3    H111035   4.114   2.503   4.581
 3698TIP3    H211036   4.122   2.360   4.532
 3699TIP3   OH211037   2.116   1.188   2.064
 3699TIP3    H111038   2.153   1.125   2.126
 3699TIP3    H211039   2.079   1.134   1.995
 3700TIP3   OH211040   6.378   3.465   5.825
 3700TIP3    H111041   6.371   3.557   5.799
 3700TIP3    H211042   6.405   3.468   5.917
 3701TIP3   OH211043   2.251   4.070   3.367
 3701TIP3    H111044   2.225   4.044   3.455
 3701TIP3    H211045   2.295   3.993   3.332
 3702TIP3   OH211046   2.829   0.925   1.260
 3702TIP3    H111047   2.832   1.020   1.252
 3702TIP3    H211048   2.795   0.909   1.348
 3703TIP3   OH211049   2.666   4.635   4.927
 3703TIP3    H111050   2.641   4.554   4.971
 3703TIP3    H211051   2.609   4.702   4.964
 3704TIP3   OH211052   6.806   6.972   4.847
 3704TIP3    H111053   6.882   6.934   4.892
 3704TIP3    H211054   6.841   7.004   4.764
 3705TIP3   OH211055   2.542   3.189   3.337
 3705TIP3    H111056   2.580   3.207   3.423
 3705TIP3    H211057   2.461   3.239   3.335
 3706TIP3   OH211058   8.143   7.578   1.682
 3706TIP3    H111059   8.089   7.552   1.608
 3706TIP3    H211060   8.080   7.595   1.753
 3707TIP3   OH211061   5.325   6.339   0.415
 3707TIP3    H111062   5.295   6.339   0.506
 3707TIP3    H211063   5.284   6.416   0.376
 3708TIP3   OH211064   4.676   7.568   0.634
 3708TIP3    H111065   4.725   7.576   0.716
 3708TIP3    H211066   4.632   7.483   0.641
 3709TIP3   OH211067   3.154   2.727   1.835
 3709TIP3    H111068   3.245   2.746   1.857
 3709TIP3    H211069   3.148   2.631   1.841
 3710TIP3   OH211070   6.294   5.849   5.210
 3710TIP3    H111071   6.296   5.922   5.148
 3710TIP3    H211072   6.295   5.771   5.155
 3711TIP3   OH211073   4.452   7.687   5.942
 3711TIP3    H111074   4.442   7.612   5.883
 3711TIP3    H211075   4.387   7.673   6.010
 3712TIP3   OH211076   3.104   2.793   2.302
 3712TIP3    H111077   3.160   2.720   2.274
 3712TIP3    H211078   3.146   2.825   2.382
 3713TIP3   OH211079   6.237   0.445   0.314
 3713TIP3    H111080   6.252   0.350   0.317
 3713TIP3    H211081   6.262   0.476   0.401
 3714TIP3   OH211082   2.847   1.704   0.704
 3714TIP3    H111083   2.860   1.635   0.639
 3714TIP3    H211084   2.753   1.719   0.705
 3715TIP3   OH211085   5.342   3.562   2.146
 3715TIP3    H111086   5.318   3.531   2.059
 3715TIP3    H211087   5.330   3.485   2.202
 3716TIP3   OH211088   3.128   5.565   0.689
 3716TIP3    H111089   3.094   5.604   0.608
 3716TIP3    H211090   3.085   5.480   0.694
 3717TIP3   OH211091   7.377   1.630   3.397
 3717TIP3    H111092   7.395   1.537   3.411
 3717TIP3    H211093   7.368   1.638   3.302
 3718TIP3   OH211094   6.688   3.748   3.419
 3718TIP3    H111095   6.739   3.695   3.357
 3718TIP3    H211096   6.745   3.757   3.495
 3719TIP3   OH211097   5.351   2.066   5.245
 3719TIP3    H111098   5.400   1.997   5.201
 3719TIP3    H211099   5.346   2.137   5.181
 3720TIP3   OH211100   4.885   2.518   0.580
 3720TIP3    H111101   4.838   2.449   0.627
 3720TIP3    H211102   4.907   2.479   0.496
 3721TIP3   OH211103   5.952   1.439   6.089
 3721TIP3    H111104   5.958   1.345   6.106
 3721TIP3    H211105   6.021   1.478   6.143
 3722TIP3   OH211106   0.052   0.643   1.335
 3722TIP3    H111107   0.097   0.727   1.322
 3722TIP3    H211108  -0.028   0.652   1.283
 3723TIP3   OH211109   6.885   3.615   3.224
 3723TIP3    H111110   6.863   3.601   3.132
 3723TIP3    H211111   6.966   3.566   3.237
 3724TIP3   OH211112   6.623   4.753   2.830
 3724TIP3    H111113   6.596   4.687   2.767
 3724TIP3    H211114   6.628   4.834   2.780
 3725TIP3   OH211115   5.677   1.036   6.167
 3725TIP3    H111116   5.641   0.959   6.123
 3725TIP3    H211117   5.658   1.108   6.107
 3726TIP3   OH211118   6.458   3.123   6.199
 3726TIP3    H111119   6.431   3.167   6.117
 3726TIP3    H211120   6.537   3.170   6.226
 3727TIP3   OH211121   4.255   6.854   3.346
 3727TIP3    H111122   4.305   6.869   3.266
 3727TIP3    H211123   4.164   6.873   3.322
 3728TIP3   OH211124   5.124   6.128   6.266
 3728TIP3    H111125   5.132   6.210   6.314
 3728TIP3    H211126   5.050   6.142   6.206
 3729TIP3   OH211127   1.123   6.220   3.064
 3729TIP3    H111128   1.210   6.182   3.078
 3729TIP3    H211129   1.093   6.179   2.983
 3730TIP3   OH211130   6.730   4.898   6.382
 3730TIP3    H111131   6.694   4.966   6.438
 3730TIP3    H211132   6.668   4.891   6.309
 3731TIP3   OH211133   7.004   4.482   1.181
 3731TIP3    H111134   7.072   4.519   1.238
 3731TIP3    H211135   6.950   4.558   1.157
 3732TIP3   OH211136   0.120   7.146   1.109
 3732TIP3    H111137   0.175   7.071   1.133
 3732TIP3    H211138   0.146   7.166   1.019
 3733TIP3   OH211139   8.151   0.567   5.847
 3733TIP3    H111140   8.157   0.653   5.806
 3733TIP3    H211141   8.231   0.522   5.819
 3734TIP3   OH211142   4.403   6.517   2.340
 3734TIP3    H111143   4.434   6.500   2.428
 3734TIP3    H211144   4.402   6.431   2.298
 3735TIP3   OH211145   5.982   3.988   1.260
 3735TIP3    H111146   5.933   3.979   1.177
 3735TIP3    H211147   5.980   4.082   1.278
 3736TIP3   OH211148   0.097   1.497   3.169
 3736TIP3    H111149   0.056   1.444   3.236
 3736TIP3    H211150   0.036   1.494   3.095
 3737TIP3   OH211151   6.840   1.780   2.620
 3737TIP3    H111152   6.756   1.826   2.611
 3737TIP3    H211153   6.834   1.737   2.706
 3738TIP3   OH211154   3.548   1.854   4.066
 3738TIP3    H111155   3.477   1.914   4.043
 3738TIP3    H211156   3.530   1.775   4.015
 3739TIP3   OH211157   5.346   6.754   4.004
 3739TIP3    H111158   5.355   6.724   3.914
 3739TIP3    H211159   5.436   6.769   4.034
 3740TIP3   OH211160   3.615   6.584   4.112
 3740TIP3    H111161   3.659   6.529   4.047
 3740TIP3    H211162   3.522   6.578   4.090
 3741TIP3   OH211163   4.635   0.608   0.309
 3741TIP3    H111164   4.726   0.634   0.320
 3741TIP3    H211165   4.585   0.675   0.357
 3742TIP3   OH211166   7.180   3.389   5.689
 3742TIP3    H111167   7.192   3.295   5.702
 3742TIP3    H211168   7.175   3.424   5.778
 3743TIP3   OH211169   0.096   1.977   4.834
 3743TIP3    H111170   0.014   2.025   4.839
 3743TIP3    H211171   0.164   2.044   4.844
 3744TIP3   OH211172   8.253   7.183   3.197
 3744TIP3    H111173   8.182   7.119   3.187
 3744TIP3    H211174   8.237   7.224   3.282
 3745TIP3   OH211175   8.253   5.368   5.152
 3745TIP3    H111176   8.225   5.280   5.178
 3745TIP3    H211177   8.266   5.414   5.235
 3746TIP3   OH211178   2.466   5.863   5.259
 3746TIP3    H111179   2.496   5.949   5.287
 3746TIP3    H211180   2.540   5.826   5.212
 3747TIP3   OH211181   1.762   1.766   5.142
 3747TIP3    H111182   1.749   1.731   5.230
 3747TIP3    H211183   1.720   1.852   5.144
 3748TIP3   OH211184   6.429   6.727   4.117
 3748TIP3    H111185   6.422   6.633   4.129
 3748TIP3    H211186   6.383   6.745   4.036
 3749TIP3   OH211187   6.697   4.331   2.648
 3749TIP3    H111188   6.612   4.291   2.632
 3749TIP3    H211189   6.753   4.257   2.674
 3750TIP3   OH211190   4.445   7.021   2.185
 3750TIP3    H111191   4.414   6.958   2.119
 3750TIP3    H211192   4.486   7.090   2.133
 3751TIP3   OH211193   2.102   7.930   4.948
 3751TIP3    H111194   2.142   7.852   4.908
 3751TIP3    H211195   2.131   7.927   5.039
 3752TIP3   OH211196   2.056   7.481   6.169
 3752TIP3    H111197   2.067   7.568   6.208
 3752TIP3    H211198   2.118   7.425   6.216
 3753TIP3   OH211199   4.146   7.862   5.064
 3753TIP3    H111200   4.095   7.783   5.079
 3753TIP3    H211201   4.142   7.875   4.969
 3754TIP3   OH211202   3.999   4.059   1.328
 3754TIP3    H111203   3.946   4.033   1.403
 3754TIP3    H211204   3.990   4.155   1.324
 3755TIP3   OH211205   0.479   1.954   0.732
 3755TIP3    H111206   0.470   1.880   0.792
 3755TIP3    H211207   0.496   2.029   0.789
 3756TIP3   OH211208   4.661   2.294   1.014
 3756TIP3    H111209   4.597   2.344   0.964
 3756TIP3    H211210   4.720   2.360   1.050
 3757TIP3   OH211211   5.538   0.337   0.311
 3757TIP3    H111212   5.551   0.297   0.225
 3757TIP3    H211213   5.460   0.293   0.346
 3758TIP3   OH211214   6.904   1.750   0.820
 3758TIP3    H111215   6.816   1.768   0.853
 3758TIP3    H211216   6.960   1.759   0.897
 3759TIP3   OH211217   3.997   6.314   1.555
 3759TIP3    H111218   4.066   6.366   1.596
 3759TIP3    H211219   3.983   6.241   1.614
 3760TIP3   OH211220   7.823   1.591   0.507
 3760TIP3    H111221   7.798   1.555   0.421
 3760TIP3    H211222   7.859   1.516   0.554
 3761TIP3   OH211223   4.279   1.995   1.629
 3761TIP3    H111224   4.348   2.017   1.692
 3761TIP3    H211225   4.198   1.996   1.681
 3762TIP3   OH211226   4.083   4.924   6.236
 3762TIP3    H111227   4.108   4.846   6.286
 3762TIP3    H211228   4.053   4.889   6.152
 3763TIP3   OH211229   4.050   4.692   6.003
 3763TIP3    H111230   4.145   4.691   6.017
 3763TIP3    H211231   4.022   4.603   6.027
 3764TIP3   OH211232   6.326   6.654   3.692
 3764TIP3    H111233   6.244   6.669   3.737
 3764TIP3    H211234   6.348   6.563   3.709
 3765TIP3   OH211235   0.851   0.775   0.828
 3765TIP3    H111236   0.873   0.832   0.753
 3765TIP3    H211237   0.848   0.834   0.903
 3766TIP3   OH211238   1.711   4.507   6.461
 3766TIP3    H111239   1.688   4.471   6.375
 3766TIP3    H211240   1.764   4.439   6.502
 3767TIP3   OH211241   4.865   5.705   2.181
 3767TIP3    H111242   4.929   5.665   2.241
 3767TIP3    H211243   4.912   5.778   2.142
 3768TIP3   OH211244   8.101   1.037   2.141
 3768TIP3    H111245   8.111   1.042   2.046
 3768TIP3    H211246   8.029   1.098   2.160
 3769TIP3   OH211247   5.244   6.385   0.665
 3769TIP3    H111248   5.175   6.449   0.684
 3769TIP3    H211249   5.323   6.424   0.703
 3770TIP3   OH211250   4.851   7.003   6.109
 3770TIP3    H111251   4.897   7.064   6.052
 3770TIP3    H211252   4.873   7.032   6.198
 3771TIP3   OH211253   3.641   6.057   0.561
 3771TIP3    H111254   3.680   6.132   0.606
 3771TIP3    H211255   3.664   6.069   0.469
 3772TIP3   OH211256   5.640   0.232   2.254
 3772TIP3    H111257   5.603   0.197   2.335
 3772TIP3    H211258   5.565   0.243   2.196
 3773TIP3   OH211259   7.866   6.657   5.108
 3773TIP3    H111260   7.788   6.613   5.143
 3773TIP3    H211261   7.874   6.624   5.019
 3774TIP3   OH211262   8.055   6.025   1.179
 3774TIP3    H111263   8.008   6.094   1.132
 3774TIP3    H211264   8.074   6.063   1.265
 3775TIP3   OH211265   3.965   5.693   4.218
 3775TIP3    H111266   3.979   5.703   4.312
 3775TIP3    H211267   4.027   5.753   4.178
 3776TIP3   OH211268   6.527   7.864   5.127
 3776TIP3    H111269   6.620   7.880   5.115
 3776TIP3    H211270   6.516   7.771   5.106
 3777TIP3   OH211271   0.671   1.937   0.547
 3777TIP3    H111272   0.750   1.980   0.581
 3777TIP3    H211273   0.605   1.951   0.615
 3778TIP3   OH211274   3.089   5.839   5.307
 3778TIP3    H111275   3.079   5.794   5.391
 3778TIP3    H211276   3.166   5.798   5.267
 3779TIP3   OH211277   7.863   4.099   5.373
 3779TIP3    H111278   7.885   4.090   5.280
 3779TIP3    H211279   7.853   4.193   5.386
 3780TIP3   OH211280   4.208   6.491   4.209
 3780TIP3    H111281   4.172   6.403   4.209
 3780TIP3    H211282   4.142   6.544   4.253
 3781TIP3   OH211283   6.216   1.314   4.170
 3781TIP3    H111284   6.306   1.334   4.195
 3781TIP3    H211285   6.164   1.334   4.248
 3782TIP3   OH211286   0.868   6.344   0.981
 3782TIP3    H111287   0.819   6.342   0.899
 3782TIP3    H211288   0.818   6.404   1.037
 3783TIP3   OH211289   3.809   2.086   3.696
 3783TIP3    H111290   3.884   2.039   3.659
 3783TIP3    H211291   3.794   2.043   3.780
 3784TIP3   OH211292   1.469   4.339   5.551
 3784TIP3    H111293   1.406   4.411   5.547
 3784TIP3    H211294   1.521   4.356   5.629
 3785TIP3   OH211295   5.848   7.413   5.031
 3785TIP3    H111296   5.868   7.450   4.945
 3785TIP3    H211297   5.765   7.367   5.018
 3786TIP3   OH211298   2.379   4.997   4.342
 3786TIP3    H111299   2.332   4.929   4.390
 3786TIP3    H211300   2.322   5.019   4.269
 3787TIP3   OH211301   1.771   1.988   5.759
 3787TIP3    H111302   1.844   2.048   5.769
 3787TIP3    H211303   1.761   1.977   5.664
 3788TIP3   OH211304   3.335   5.863   5.884
 3788TIP3    H111305   3.242   5.879   5.901
 3788TIP3    H211306   3.341   5.863   5.788
 3789TIP3   OH211307   5.875   3.524   2.194
 3789TIP3    H111308   5.795   3.476   2.214
 3789TIP3    H211309   5.933   3.458   2.155
 3790TIP3   OH211310   4.017   5.988   1.725
 3790TIP3    H111311   4.031   6.018   1.636
 3790TIP3    H211312   3.937   6.032   1.754
 3791TIP3   OH211313   1.816   4.607   4.626
 3791TIP3    H111314   1.815   4.643   4.537
 3791TIP3    H211315   1.757   4.664   4.675
 3792TIP3   OH211316   4.839   7.173   5.711
 3792TIP3    H111317   4.932   7.188   5.727
 3792TIP3    H211318   4.795   7.221   5.782
 3793TIP3   OH211319   7.272   6.197   2.275
 3793TIP3    H111320   7.297   6.106   2.261
 3793TIP3    H211321   7.270   6.207   2.371
 3794TIP3   OH211322   5.240   4.269   0.317
 3794TIP3    H111323   5.262   4.313   0.235
 3794TIP3    H211324   5.150   4.295   0.336
 3795TIP3   OH211325   1.504   5.525   3.770
 3795TIP3    H111326   1.411   5.505   3.774
 3795TIP3    H211327   1.525   5.560   3.856
 3796TIP3   OH211328   3.135   6.482   0.871
 3796TIP3    H111329   3.106   6.454   0.958
 3796TIP3    H211330   3.063   6.535   0.837
 3797TIP3   OH211331   4.735   4.796   5.171
 3797TIP3    H111332   4.770   4.872   5.125
 3797TIP3    H211333   4.719   4.827   5.260
 3798TIP3   OH211334   4.974   0.080   0.916
 3798TIP3    H111335   4.927   0.030   0.983
 3798TIP3    H211336   4.983   0.168   0.954
 3799TIP3   OH211337   7.640   1.485   5.839
 3799TIP3    H111338   7.546   1.502   5.840
 3799TIP3    H211339   7.648   1.393   5.863
 3800TIP3   OH211340   0.324   6.098   1.173
 3800TIP3    H111341   0.231   6.079   1.186
 3800TIP3    H211342   0.327   6.157   1.099
 3801TIP3   OH211343   5.434   2.517   2.566
 3801TIP3    H111344   5.393   2.460   2.631
 3801TIP3    H211345   5.528   2.507   2.582
 3802TIP3   OH211346   2.842   1.481   0.912
 3802TIP3    H111347   2.777   1.502   0.845
 3802TIP3    H211348   2.791   1.449   0.986
 3803TIP3   OH211349   0.238   5.062   0.457
 3803TIP3    H111350   0.163   5.027   0.505
 3803TIP3    H211351   0.298   4.989   0.448
 3804TIP3   OH211352   6.628   4.574   0.469
 3804TIP3    H111353   6.677   4.579   0.551
 3804TIP3    H211354   6.694   4.563   0.402
 3805TIP3   OH211355   6.657   0.569   6.592
 3805TIP3    H111356   6.584   0.538   6.538
 3805TIP3    H211357   6.618   0.582   6.679
 3806TIP3   OH211358   6.014   1.807   3.101
 3806TIP3    H111359   6.077   1.784   3.032
 3806TIP3    H211360   5.988   1.896   3.081
 3807TIP3   OH211361   8.403   1.594   6.306
 3807TIP3    H111362   8.429   1.504   6.325
 3807TIP3    H211363   8.313   1.600   6.339
 3808TIP3   OH211364   7.598   5.601   0.555
 3808TIP3    H111365   7.678   5.646   0.528
 3808TIP3    H211366   7.564   5.562   0.475
 3809TIP3   OH211367   0.109   4.155   3.750
 3809TIP3    H111368   0.132   4.191   3.836
 3809TIP3    H211369   0.159   4.208   3.688
 3810TIP3   OH211370   2.312   3.155   2.030
 3810TIP3    H111371   2.298   3.244   2.000
 3810TIP3    H211372   2.278   3.154   2.120
 3811TIP3   OH211373   6.888   0.685   0.569
 3811TIP3    H111374   6.811   0.742   0.577
 3811TIP3    H211375   6.851   0.598   0.555
 3812TIP3   OH211376   1.121   5.730   3.316
 3812TIP3    H111377   1.155   5.694   3.398
 3812TIP3    H211378   1.116   5.824   3.330
 3813TIP3   OH211379   5.767   5.469   5.057
 3813TIP3    H111380   5.696   5.484   4.994
 3813TIP3    H211381   5.817   5.397   5.020
 3814TIP3   OH211382   6.936   4.075   6.535
 3814TIP3    H111383   6.941   4.049   6.628
 3814TIP3    H211384   6.862   4.135   6.530
 3815TIP3   OH211385   2.867   0.390   3.173
 3815TIP3    H111386   2.893   0.403   3.082
 3815TIP3    H211387   2.948   0.399   3.223
 3816TIP3   OH211388   0.523   4.621   1.510
 3816TIP3    H111389   0.618   4.630   1.519
 3816TIP3    H211390   0.489   4.640   1.598
 3817TIP3   OH211391   4.054   6.887   2.180
 3817TIP3    H111392   3.983   6.876   2.243
 3817TIP3    H211393   4.104   6.962   2.214
 3818TIP3   OH211394   2.380   7.786   2.977
 3818TIP3    H111395   2.416   7.744   3.055
 3818TIP3    H211396   2.449   7.780   2.912
 3819TIP3   OH211397   0.515   5.701   2.371
 3819TIP3    H111398   0.563   5.749   2.304
 3819TIP3    H211399   0.570   5.624   2.388
 3820TIP3   OH211400   8.311   6.090   0.708
 3820TIP3    H111401   8.263   6.157   0.658
 3820TIP3    H211402   8.275   6.097   0.797
 3821TIP3   OH211403   5.056   4.298   6.613
 3821TIP3    H111404   5.068   4.352   6.535
 3821TIP3    H211405   5.054   4.209   6.581
 3822TIP3   OH211406   4.642   6.284   0.852
 3822TIP3    H111407   4.555   6.249   0.872
 3822TIP3    H211408   4.661   6.343   0.925
 3823TIP3   OH211409   1.515   7.202   3.307
 3823TIP3    H111410   1.552   7.136   3.248
 3823TIP3    H211411   1.421   7.189   3.302
 3824TIP3   OH211412   8.170   3.810   5.730
 3824TIP3    H111413   8.148   3.757   5.807
 3824TIP3    H211414   8.097   3.872   5.722
 3825TIP3   OH211415   2.468   1.006   3.105
 3825TIP3    H111416   2.407   1.065   3.149
 3825TIP3    H211417   2.413   0.938   3.066
 3826TIP3   OH211418   4.578   3.910   5.910
 3826TIP3    H111419   4.532   3.979   5.959
 3826TIP3    H211420   4.650   3.884   5.967
 3827TIP3   OH211421   3.908   0.662   4.499
 3827TIP3    H111422   3.823   0.653   4.457
 3827TIP3    H211423   3.934   0.753   4.484
 3828TIP3   OH211424   3.891   1.198   5.794
 3828TIP3    H111425   3.969   1.253   5.793
 3828TIP3    H211426   3.888   1.160   5.706
 3829TIP3   OH211427   2.280   3.187   3.587
 3829TIP3    H111428   2.371   3.172   3.562
 3829TIP3    H211429   2.268   3.281   3.578
 3830TIP3   OH211430   1.819   4.772   3.285
 3830TIP3    H111431   1.809   4.693   3.231
 3830TIP3    H211432   1.732   4.811   3.285
 3831TIP3   OH211433   1.098   0.782   2.337
 3831TIP3    H111434   1.090   0.854   2.399
 3831TIP3    H211435   1.190   0.781   2.313
 3832TIP3   OH211436   2.167   4.876   5.677
 3832TIP3    H111437   2.087   4.883   5.731
 3832TIP3    H211438   2.148   4.806   5.615
 3833TIP3   OH211439   7.085   0.466   5.379
 3833TIP3    H111440   7.104   0.529   5.309
 3833TIP3    H211441   7.088   0.381   5.336
 3834TIP3   OH211442   5.428   1.371   3.356
 3834TIP3    H111443   5.379   1.306   3.306
 3834TIP3    H211444   5.515   1.371   3.316
 3835TIP3   OH211445   8.147   0.818   4.538
 3835TIP3    H111446   8.086   0.793   4.608
 3835TIP3    H211447   8.100   0.798   4.457
 3836TIP3   OH211448   1.059   2.897   4.758
 3836TIP3    H111449   1.066   2.885   4.853
 3836TIP3    H211450   0.966   2.887   4.739
 3837TIP3   OH211451   3.641   5.157   5.595
 3837TIP3    H111452   3.689   5.210   5.532
 3837TIP3    H211453   3.581   5.105   5.542
 3838TIP3   OH211454   1.892   5.282   2.458
 3838TIP3    H111455   1.976   5.268   2.502
 3838TIP3    H211456   1.861   5.366   2.494
 3839TIP3   OH211457   5.433   3.557   3.460
 3839TIP3    H111458   5.393   3.471   3.444
 3839TIP3    H211459   5.440   3.563   3.555
 3840TIP3   OH211460   7.988   6.467   5.953
 3840TIP3    H111461   7.894   6.484   5.946
 3840TIP3    H211462   8.024   6.548   5.989
 3841TIP3   OH211463   7.600   0.202   2.001
 3841TIP3    H111464   7.677   0.148   2.019
 3841TIP3    H211465   7.532   0.166   2.059
 3842TIP3   OH211466   5.748   0.479   3.287
 3842TIP3    H111467   5.828   0.475   3.339
 3842TIP3    H211468   5.753   0.563   3.241
 3843TIP3   OH211469   3.404   0.369   6.507
 3843TIP3    H111470   3.405   0.377   6.412
 3843TIP3    H211471   3.473   0.305   6.526
 3844TIP3   OH211472   3.694   6.232   0.083
 3844TIP3    H111473   3.775   6.213   0.036
 3844TIP3    H211474   3.704   6.324   0.110
 3845TIP3   OH211475   1.440   4.471   6.609
 3845TIP3    H111476   1.366   4.445   6.555
 3845TIP3    H211477   1.515   4.467   6.550
 3846TIP3   OH211478   8.248   0.219   3.473
 3846TIP3    H111479   8.265   0.289   3.410
 3846TIP3    H211480   8.241   0.139   3.420
 3847TIP3   OH211481   3.329   1.704   0.361
 3847TIP3    H111482   3.310   1.760   0.436
 3847TIP3    H211483   3.243   1.683   0.323
 3848TIP3   OH211484   0.284   6.931   0.412
 3848TIP3    H111485   0.248   6.865   0.353
 3848TIP3    H211486   0.220   7.002   0.411
 3849TIP3   OH211487   1.827   7.688   3.038
 3849TIP3    H111488   1.901   7.747   3.025
 3849TIP3    H211489   1.792   7.674   2.950
 3850TIP3   OH211490   5.484   5.590   5.761
 3850TIP3    H111491   5.397   5.598   5.723
 3850TIP3    H211492   5.524   5.516   5.715
 3851TIP3   OH211493   0.217   5.711   3.597
 3851TIP3    H111494   0.280   5.647   3.562
 3851TIP3    H211495   0.149   5.657   3.637
 3852TIP3   OH211496   1.991   2.736   4.376
 3852TIP3    H111497   2.078   2.773   4.362
 3852TIP3    H211498   1.985   2.663   4.315
 3853TIP3   OH211499   2.131   2.965   3.685
 3853TIP3    H111500   2.070   2.951   3.613
 3853TIP3    H211501   2.160   3.056   3.674
 3854TIP3   OH211502   0.640   0.685   3.707
 3854TIP3    H111503   0.638   0.764   3.652
 3854TIP3    H211504   0.603   0.616   3.652
 3855TIP3   OH211505   4.798   4.004   4.195
 3855TIP3    H111506   4.893   3.994   4.201
 3855TIP3    H211507   4.764   3.917   4.217
 3856TIP3   OH211508   6.627   6.007   5.142
 3856TIP3    H111509   6.712   6.049   5.128
 3856TIP3    H211510   6.565   6.079   5.149
 3857TIP3   OH211511   7.467   5.599   2.086
 3857TIP3    H111512   7.459   5.539   2.011
 3857TIP3    H211513   7.389   5.581   2.138
 3858TIP3   OH211514   2.735   6.575   5.012
 3858TIP3    H111515   2.666   6.593   5.076
 3858TIP3    H211516   2.792   6.652   5.016
 3859TIP3   OH211517   1.674   6.000   4.463
 3859TIP3    H111518   1.671   6.081   4.515
 3859TIP3    H211519   1.626   6.021   4.383
 3860TIP3   OH211520   5.873   1.871   1.701
 3860TIP3    H111521   5.829   1.818   1.767
 3860TIP3    H211522   5.828   1.851   1.619
 3861TIP3   OH211523   8.282   2.879   2.891
 3861TIP3    H111524   8.223   2.939   2.936
 3861TIP3    H211525   8.330   2.835   2.961
 3862TIP3   OH211526   1.593   4.074   2.068
 3862TIP3    H111527   1.560   4.139   2.131
 3862TIP3    H211528   1.518   4.054   2.013
 3863TIP3   OH211529   5.093   4.477   0.764
 3863TIP3    H111530   5.071   4.530   0.688
 3863TIP3    H211531   5.064   4.388   0.740
 3864TIP3   OH211532   1.956   7.148   5.394
 3864TIP3    H111533   1.867   7.155   5.428
 3864TIP3    H211534   1.955   7.071   5.337
 3865TIP3   OH211535   5.313   1.855   0.323
 3865TIP3    H111536   5.311   1.760   0.315
 3865TIP3    H211537   5.277   1.887   0.240
 3866TIP3   OH211538   4.091   3.542   0.894
 3866TIP3    H111539   4.171   3.581   0.859
 3866TIP3    H211540   4.084   3.578   0.983
 3867TIP3   OH211541   3.641   4.645   5.870
 3867TIP3    H111542   3.557   4.620   5.833
 3867TIP3    H211543   3.642   4.605   5.957
 3868TIP3   OH211544   0.368   7.542   0.595
 3868TIP3    H111545   0.294   7.482   0.583
 3868TIP3    H211546   0.392   7.533   0.687
 3869TIP3   OH211547   0.481   1.175   2.705
 3869TIP3    H111548   0.394   1.216   2.709
 3869TIP3    H211549   0.536   1.239   2.660
 3870TIP3   OH211550   7.109   1.680   2.552
 3870TIP3    H111551   7.102   1.648   2.462
 3870TIP3    H211552   7.027   1.726   2.567
 3871TIP3   OH211553   4.199   3.098   3.125
 3871TIP3    H111554   4.194   3.054   3.040
 3871TIP3    H211555   4.114   3.139   3.136
 3872TIP3   OH211556   2.073   0.479   2.735
 3872TIP3    H111557   2.073   0.487   2.640
 3872TIP3    H211558   2.131   0.404   2.753
 3873TIP3   OH211559   3.943   0.512   0.131
 3873TIP3    H111560   3.920   0.533   0.040
 3873TIP3    H211561   3.859   0.499   0.175
 3874TIP3   OH211562   3.799   4.542   2.949
 3874TIP3    H111563   3.783   4.519   3.041
 3874TIP3    H211564   3.842   4.627   2.953
 3875TIP3   OH211565   6.008   4.991   5.940
 3875TIP3    H111566   6.087   5.015   5.891
 3875TIP3    H211567   6.005   4.895   5.933
 3876TIP3   OH211568   5.607   3.725   5.083
 3876TIP3    H111569   5.587   3.764   4.998
 3876TIP3    H211570   5.640   3.799   5.135
 3877TIP3   OH211571   5.611   6.826   6.189
 3877TIP3    H111572   5.655   6.741   6.195
 3877TIP3    H211573   5.520   6.804   6.167
 3878TIP3   OH211574   7.945   5.051   5.242
 3878TIP3    H111575   7.876   5.078   5.182
 3878TIP3    H211576   7.959   5.126   5.299
 3879TIP3   OH211577   8.013   6.763   1.836
 3879TIP3    H111578   8.069   6.740   1.762
 3879TIP3    H211579   8.067   6.820   1.890
 3880TIP3   OH211580   1.142   6.646   5.929
 3880TIP3    H111581   1.177   6.566   5.889
 3880TIP3    H211582   1.141   6.627   6.023
 3881TIP3   OH211583   3.694   5.089   3.794
 3881TIP3    H111584   3.709   5.097   3.700
 3881TIP3    H211585   3.615   5.036   3.801
 3882TIP3   OH211586   6.336   2.470   3.470
 3882TIP3    H111587   6.359   2.443   3.558
 3882TIP3    H211588   6.244   2.494   3.475
 3883TIP3   OH211589   3.137   5.373   3.641
 3883TIP3    H111590   3.054   5.420   3.646
 3883TIP3    H211591   3.186   5.402   3.718
 3884TIP3   OH211592   8.106   0.765   3.868
 3884TIP3    H111593   8.110   0.845   3.816
 3884TIP3    H211594   8.189   0.720   3.851
 3885TIP3   OH211595   5.604   2.617   4.586
 3885TIP3    H111596   5.634   2.548   4.645
 3885TIP3    H211597   5.548   2.572   4.523
 3886TIP3   OH211598   6.555   0.158   2.751
 3886TIP3    H111599   6.472   0.186   2.714
 3886TIP3    H211600   6.582   0.231   2.808
 3887TIP3   OH211601   6.550   3.696   0.761
 3887TIP3    H111602   6.550   3.758   0.834
 3887TIP3    H211603   6.634   3.651   0.767
 3888TIP3   OH211604   0.507   1.872   6.344
 3888TIP3    H111605   0.460   1.790   6.360
 3888TIP3    H211606   0.480   1.930   6.416
 3889TIP3   OH211607   2.345   1.994   6.016
 3889TIP3    H111608   2.260   2.037   6.023
 3889TIP3    H211609   2.336   1.914   6.067
 3890TIP3   OH211610   4.281   5.011   2.786
 3890TIP3    H111611   4.276   4.916   2.792
 3890TIP3    H211612   4.372   5.032   2.808
 3891TIP3   OH211613   6.263   5.427   5.895
 3891TIP3    H111614   6.208   5.501   5.867
 3891TIP3    H211615   6.295   5.389   5.813
 3892TIP3   OH211616   5.496   3.985   1.588
 3892TIP3    H111617   5.471   4.038   1.513
 3892TIP3    H211618   5.423   3.923   1.600
 3893TIP3   OH211619   0.274   2.895   3.111
 3893TIP3    H111620   0.214   2.886   3.185
 3893TIP3    H211621   0.311   2.983   3.121
 3894TIP3   OH211622   3.253   0.186   1.042
 3894TIP3    H111623   3.237   0.196   1.136
 3894TIP3    H211624   3.212   0.102   1.019
 3895TIP3   OH211625   3.555   1.878   3.698
 3895TIP3    H111626   3.598   1.836   3.772
 3895TIP3    H211627   3.625   1.893   3.635
 3896TIP3   OH211628   8.022   0.544   3.507
 3896TIP3    H111629   8.047   0.567   3.418
 3896TIP3    H211630   7.927   0.534   3.504
 3897TIP3   OH211631   6.684   3.641   1.978
 3897TIP3    H111632   6.650   3.554   1.957
 3897TIP3    H211633   6.706   3.637   2.071
 3898TIP3   OH211634   6.424   0.870   4.074
 3898TIP3    H111635   6.393   0.809   4.007
 3898TIP3    H211636   6.347   0.919   4.100
 3899TIP3   OH211637   6.827   4.035   1.522
 3899TIP3    H111638   6.824   4.112   1.466
 3899TIP3    H211639   6.771   4.058   1.597
 3900TIP3   OH211640   2.730   0.829   3.684
 3900TIP3    H111641   2.649   0.874   3.660
 3900TIP3    H211642   2.704   0.737   3.695
 3901TIP3   OH211643   3.874   5.239   0.698
 3901TIP3    H111644   3.804   5.178   0.679
 3901TIP3    H211645   3.893   5.281   0.613
 3902TIP3   OH211646   0.147   0.937   3.895
 3902TIP3    H111647   0.109   0.879   3.961
 3902TIP3    H211648   0.153   0.882   3.817
 3903TIP3   OH211649   3.343   7.269   4.534
 3903TIP3    H111650   3.353   7.357   4.571
 3903TIP3    H211651   3.399   7.270   4.456
 3904TIP3   OH211652   1.852   2.848   6.698
 3904TIP3    H111653   1.801   2.769   6.715
 3904TIP3    H211654   1.915   2.822   6.631
 3905TIP3   OH211655   5.878   1.330   2.547
 3905TIP3    H111656   5.894   1.354   2.638
 3905TIP3    H211657   5.952   1.274   2.523
 3906TIP3   OH211658   5.548   2.453   3.826
 3906TIP3    H111659   5.608   2.381   3.848
 3906TIP3    H211660   5.590   2.498   3.753
 3907TIP3   OH211661   4.104   2.153   6.138
 3907TIP3    H111662   4.071   2.189   6.056
 3907TIP3    H211663   4.119   2.060   6.119
 3908TIP3   OH211664   4.082   6.633   6.549
 3908TIP3    H111665   4.106   6.724   6.569
 3908TIP3    H211666   4.073   6.631   6.454
 3909TIP3   OH211667   3.717   3.363   6.683
 3909TIP3    H111668   3.748   3.280   6.719
 3909TIP3    H211669   3.627   3.346   6.655
 3910TIP3   OH211670   7.537   7.275   6.825
 3910TIP3    H111671   7.498   7.255   6.740
 3910TIP3    H211672   7.598   7.203   6.841
 3911TIP3   OH211673   8.122   0.368   4.928
 3911TIP3    H111674   8.040   0.323   4.911
 3911TIP3    H211675   8.109   0.414   5.011
 3912TIP3   OH211676   2.990   5.160   6.275
 3912TIP3    H111677   3.053   5.142   6.206
 3912TIP3    H211678   2.917   5.101   6.258
 3913TIP3   OH211679   7.307   0.989   4.092
 3913TIP3    H111680   7.284   1.028   4.176
 3913TIP3    H211681   7.402   0.977   4.097
 3914TIP3   OH211682   0.199   6.878   5.656
 3914TIP3    H111683   0.123   6.864   5.599
 3914TIP3    H211684   0.229   6.790   5.676
 3915TIP3   OH211685   6.861   3.124   2.291
 3915TIP3    H111686   6.879   3.038   2.253
 3915TIP3    H211687   6.772   3.115   2.327
 3916TIP3   OH211688   2.110   1.453   0.306
 3916TIP3    H111689   2.058   1.515   0.255
 3916TIP3    H211690   2.126   1.380   0.246
 3917TIP3   OH211691   2.395   1.201   3.903
 3917TIP3    H111692   2.397   1.205   3.999
 3917TIP3    H211693   2.319   1.255   3.879
 3918TIP3   OH211694   6.794   5.026   3.302
 3918TIP3    H111695   6.885   4.997   3.293
 3918TIP3    H211696   6.742   4.951   3.273
 3919TIP3   OH211697   4.656   5.791   1.869
 3919TIP3    H111698   4.716   5.846   1.920
 3919TIP3    H211699   4.693   5.789   1.781
 3920TIP3   OH211700   2.987   7.232   5.005
 3920TIP3    H111701   3.072   7.192   5.025
 3920TIP3    H211702   2.993   7.320   5.041
 3921TIP3   OH211703   2.174   2.390   3.418
 3921TIP3    H111704   2.238   2.349   3.360
 3921TIP3    H211705   2.147   2.320   3.478
 3922TIP3   OH211706   4.041   0.614   2.948
 3922TIP3    H111707   4.041   0.625   2.853
 3922TIP3    H211708   4.099   0.540   2.964
 3923TIP3   OH211709   4.060   3.445   0.240
 3923TIP3    H111710   4.145   3.401   0.233
 3923TIP3    H211711   4.032   3.459   0.150
 3924TIP3   OH211712   7.007   4.277   3.970
 3924TIP3    H111713   6.976   4.300   3.882
 3924TIP3    H211714   6.988   4.354   4.023
 3925TIP3   OH211715   3.929   2.226   2.941
 3925TIP3    H111716   3.893   2.190   3.022
 3925TIP3    H211717   3.998   2.286   2.970
 3926TIP3   OH211718   6.355   7.142   1.382
 3926TIP3    H111719   6.320   7.054   1.384
 3926TIP3    H211720   6.397   7.149   1.296
 3927TIP3   OH211721   2.290   3.727   0.561
 3927TIP3    H111722   2.303   3.632   0.564
 3927TIP3    H211723   2.377   3.763   0.545
 3928TIP3   OH211724   6.404   0.722   2.315
 3928TIP3    H111725   6.386   0.802   2.266
 3928TIP3    H211726   6.322   0.701   2.359
 3929TIP3   OH211727   1.993   7.627   0.518
 3929TIP3    H111728   1.960   7.716   0.530
 3929TIP3    H211729   2.085   7.631   0.544
 3930TIP3   OH211730   3.543   7.860   2.855
 3930TIP3    H111731   3.541   7.768   2.829
 3930TIP3    H211732   3.459   7.874   2.898
 3931TIP3   OH211733   3.966   6.740   6.839
 3931TIP3    H111734   3.994   6.830   6.854
 3931TIP3    H211735   3.955   6.734   6.744
 3932TIP3   OH211736   0.574   3.497   5.589
 3932TIP3    H111737   0.600   3.410   5.559
 3932TIP3    H211738   0.481   3.502   5.568
 3933TIP3   OH211739   3.747   1.282   1.911
 3933TIP3    H111740   3.722   1.236   1.991
 3933TIP3    H211741   3.808   1.223   1.868
 3934TIP3   OH211742   4.168   3.318   4.798
 3934TIP3    H111743   4.166   3.412   4.816
 3934TIP3    H211744   4.091   3.283   4.843
 3935TIP3   OH211745   0.977   3.552   1.491
 3935TIP3    H111746   0.888   3.559   1.526
 3935TIP3    H211747   1.000   3.641   1.466
 3936TIP3   OH211748   1.989   5.180   4.019
 3936TIP3    H111749   2.047   5.251   3.991
 3936TIP3    H211750   1.914   5.225   4.058
 3937TIP3   OH211751   6.426   7.140   1.906
 3937TIP3    H111752   6.441   7.046   1.920
 3937TIP3    H211753   6.486   7.183   1.966
 3938TIP3   OH211754   0.409   4.225   4.602
 3938TIP3    H111755   0.399   4.130   4.604
 3938TIP3    H211756   0.361   4.256   4.678
 3939TIP3   OH211757   2.007   3.412   0.746
 3939TIP3    H111758   1.922   3.375   0.722
 3939TIP3    H211759   1.986   3.488   0.801
 3940TIP3   OH211760   8.138   2.411   5.806
 3940TIP3    H111761   8.101   2.399   5.894
 3940TIP3    H211762   8.074   2.370   5.748
 3941TIP3   OH211763   4.269   6.611   6.751
 3941TIP3    H111764   4.282   6.523   6.715
 3941TIP3    H211765   4.209   6.653   6.689
 3942TIP3   OH211766   5.531   0.456   5.856
 3942TIP3    H111767   5.461   0.407   5.813
 3942TIP3    H211768   5.488   0.496   5.932
 3943TIP3   OH211769   6.028   4.039   5.181
 3943TIP3    H111770   6.067   3.970   5.234
 3943TIP3    H211771   5.944   4.003   5.152
 3944TIP3   OH211772   7.191   0.674   6.575
 3944TIP3    H111773   7.232   0.740   6.631
 3944TIP3    H211774   7.229   0.689   6.488
 3945TIP3   OH211775   8.147   2.571   3.435
 3945TIP3    H111776   8.056   2.574   3.405
 3945TIP3    H211777   8.156   2.486   3.478
 3946TIP3   OH211778   6.957   0.583   0.292
 3946TIP3    H111779   6.896   0.531   0.344
 3946TIP3    H211780   6.937   0.674   0.316
 3947TIP3   OH211781   0.350   0.332   4.885
 3947TIP3    H111782   0.332   0.374   4.800
 3947TIP3    H211783   0.272   0.279   4.902
 3948TIP3   OH211784   5.539   2.880   0.930
 3948TIP3    H111785   5.528   2.791   0.897
 3948TIP3    H211786   5.584   2.869   1.014
 3949TIP3   OH211787   0.819   1.516   5.095
 3949TIP3    H111788   0.915   1.507   5.098
 3949TIP3    H211789   0.799   1.582   5.161
 3950TIP3   OH211790   5.884   1.406   1.322
 3950TIP3    H111791   5.856   1.407   1.414
 3950TIP3    H211792   5.976   1.433   1.325
 3951TIP3   OH211793   5.438   0.740   1.018
 3951TIP3    H111794   5.366   0.797   1.044
 3951TIP3    H211795   5.503   0.750   1.087
 3952TIP3   OH211796   0.989   7.375   2.778
 3952TIP3    H111797   1.075   7.395   2.817
 3952TIP3    H211798   1.003   7.292   2.733
 3953TIP3   OH211799   7.392   3.108   2.501
 3953TIP3    H111800   7.323   3.150   2.552
 3953TIP3    H211801   7.467   3.167   2.508
 3954TIP3   OH211802   6.069   0.311   3.178
 3954TIP3    H111803   6.030   0.255   3.244
 3954TIP3    H211804   6.159   0.279   3.170
 3955TIP3   OH211805   7.269   5.490   4.377
 3955TIP3    H111806   7.341   5.512   4.319
 3955TIP3    H211807   7.299   5.412   4.425
 3956TIP3   OH211808   0.712   1.828   5.625
 3956TIP3    H111809   0.762   1.798   5.700
 3956TIP3    H211810   0.622   1.805   5.645
 3957TIP3   OH211811   6.066   1.877   4.399
 3957TIP3    H111812   5.979   1.859   4.363
 3957TIP3    H211813   6.078   1.812   4.468
 3958TIP3   OH211814   5.114   2.822   5.468
 3958TIP3    H111815   5.180   2.862   5.412
 3958TIP3    H211816   5.158   2.745   5.504
 3959TIP3   OH211817   4.730   5.720   4.809
 3959TIP3    H111818   4.699   5.765   4.887
 3959TIP3    H211819   4.741   5.629   4.837
 3960TIP3   OH211820   0.036   0.022   2.685
 3960TIP3    H111821   0.006  -0.027   2.609
 3960TIP3    H211822   0.085   0.095   2.648
 3961TIP3   OH211823   0.107   5.878   6.259
 3961TIP3    H111824   0.036   5.837   6.307
 3961TIP3    H211825   0.100   5.842   6.170
 3962TIP3   OH211826   1.228   3.921   2.357
 3962TIP3    H111827   1.200   3.833   2.383
 3962TIP3    H211828   1.227   3.919   2.261
 3963TIP3   OH211829   3.089   6.693   5.895
 3963TIP3    H111830   3.065   6.619   5.951
 3963TIP3    H211831   3.006   6.736   5.875
 3964TIP3   OH211832   2.348   0.265   0.522
 3964TIP3    H111833   2.392   0.204   0.463
 3964TIP3    H211834   2.378   0.351   0.494
 3965TIP3   OH211835   7.810   5.595   0.214
 3965TIP3    H111836   7.844   5.678   0.182
 3965TIP3    H211837   7.798   5.542   0.134
 3966TIP3   OH211838   3.794   6.100   3.036
 3966TIP3    H111839   3.704   6.080   3.063
 3966TIP3    H211840   3.847   6.084   3.114
 3967TIP3   OH211841   8.161   7.904   0.695
 3967TIP3    H111842   8.212   7.978   0.661
 3967TIP3    H211843   8.227   7.841   0.724
 3968TIP3   OH211844   6.175   1.601   0.316
 3968TIP3    H111845   6.241   1.616   0.248
 3968TIP3    H211846   6.224   1.595   0.397
 3969TIP3   OH211847   2.762   5.410   3.251
 3969TIP3    H111848   2.669   5.389   3.248
 3969TIP3    H211849   2.773   5.480   3.186
 3970TIP3   OH211850   7.332   1.443   4.395
 3970TIP3    H111851   7.320   1.534   4.369
 3970TIP3    H211852   7.373   1.402   4.319
 3971TIP3   OH211853   7.124   6.045   1.092
 3971TIP3    H111854   7.213   6.026   1.121
 3971TIP3    H211855   7.105   6.131   1.128
 3972TIP3   OH211856   0.294   0.704   0.751
 3972TIP3    H111857   0.376   0.676   0.792
 3972TIP3    H211858   0.296   0.799   0.757
 3973TIP3   OH211859   5.158   5.584   6.343
 3973TIP3    H111860   5.113   5.584   6.258
 3973TIP3    H211861   5.201   5.670   6.347
 3974TIP3   OH211862   5.169   3.957   0.100
 3974TIP3    H111863   5.149   3.914   0.184
 3974TIP3    H211864   5.101   4.022   0.089
 3975TIP3   OH211865   5.048   4.067   1.216
 3975TIP3    H111866   5.115   4.100   1.156
 3975TIP3    H211867   4.995   4.008   1.163
 3976TIP3   OH211868   1.524   2.978   5.424
 3976TIP3    H111869   1.561   3.066   5.434
 3976TIP3    H211870   1.446   2.979   5.479
 3977TIP3   OH211871   7.704   2.341   3.745
 3977TIP3    H111872   7.613   2.345   3.774
 3977TIP3    H211873   7.706   2.397   3.667
 3978TIP3   OH211874   4.922   3.346   4.744
 3978TIP3    H111875   5.009   3.317   4.769
 3978TIP3    H211876   4.917   3.331   4.650
 3979TIP3   OH211877   1.444   4.982   3.044
 3979TIP3    H111878   1.386   4.975   2.969
 3979TIP3    H211879   1.528   5.009   3.008
 3980TIP3   OH211880   0.008   3.614   3.021
 3980TIP3    H111881   0.028   3.607   3.115
 3980TIP3    H211882   0.016   3.707   3.002
 3981TIP3   OH211883   7.329   2.828   5.486
 3981TIP3    H111884   7.315   2.862   5.398
 3981TIP3    H211885   7.372   2.743   5.473
 3982TIP3   OH211886   6.189   1.048   5.022
 3982TIP3    H111887   6.179   0.961   4.985
 3982TIP3    H211888   6.173   1.037   5.115
 3983TIP3   OH211889   6.304   5.469   3.183
 3983TIP3    H111890   6.219   5.482   3.225
 3983TIP3    H211891   6.367   5.473   3.255
 3984TIP3   OH211892   8.074   2.994   6.153
 3984TIP3    H111893   7.991   2.949   6.166
 3984TIP3    H211894   8.106   3.011   6.241
 3985TIP3   OH211895   0.282   1.828   3.893
 3985TIP3    H111896   0.206   1.881   3.868
 3985TIP3    H211897   0.357   1.874   3.856
 3986TIP3   OH211898   0.395   3.737   0.348
 3986TIP3    H111899   0.379   3.708   0.259
 3986TIP3    H211900   0.373   3.662   0.403
 3987TIP3   OH211901   6.268   6.407   3.195
 3987TIP3    H111902   6.270   6.479   3.257
 3987TIP3    H211903   6.204   6.345   3.230
 3988TIP3   OH211904   0.420   2.382   1.830
 3988TIP3    H111905   0.331   2.415   1.839
 3988TIP3    H211906   0.409   2.293   1.796
 3989TIP3   OH211907   4.818   0.039   6.685
 3989TIP3    H111908   4.899   0.034   6.635
 3989TIP3    H211909   4.753  -0.005   6.629
 3990TIP3   OH211910   5.645   3.513   5.786
 3990TIP3    H111911   5.677   3.594   5.825
 3990TIP3    H211912   5.605   3.541   5.703
 3991TIP3   OH211913   8.280   1.467   3.013
 3991TIP3    H111914   8.251   1.376   3.015
 3991TIP3    H211915   8.201   1.518   3.032
 3992TIP3   OH211916   1.040   5.189   0.603
 3992TIP3    H111917   1.131   5.192   0.574
 3992TIP3    H211918   0.991   5.228   0.531
 3993TIP3   OH211919   5.112   2.855   4.718
 3993TIP3    H111920   5.102   2.891   4.806
 3993TIP3    H211921   5.102   2.931   4.660
 3994TIP3   OH211922   7.718   3.087   2.430
 3994TIP3    H111923   7.786   3.060   2.491
 3994TIP3    H211924   7.715   3.182   2.438
 3995TIP3   OH211925   3.573   6.122   6.698
 3995TIP3    H111926   3.496   6.102   6.750
 3995TIP3    H211927   3.578   6.218   6.696
 3996TIP3   OH211928   3.807   0.335   4.520
 3996TIP3    H111929   3.831   0.283   4.596
 3996TIP3    H211930   3.848   0.421   4.535
 3997TIP3   OH211931   1.753   4.709   1.997
 3997TIP3    H111932   1.747   4.729   2.091
 3997TIP3    H211933   1.845   4.689   1.982
 3998TIP3   OH211934   5.832   1.099   3.027
 3998TIP3    H111935   5.840   1.126   3.118
 3998TIP3    H211936   5.880   1.016   3.023
 3999TIP3   OH211937   0.326   1.495   5.313
 3999TIP3    H111938   0.339   1.483   5.219
 3999TIP3    H211939   0.272   1.420   5.339
 4000TIP3   OH211940   7.392   7.600   3.878
 4000TIP3    H111941   7.343   7.518   3.875
 4000TIP3    H211942   7.336   7.663   3.832
 4001TIP3   OH211943   5.747   5.107   5.869
 4001TIP3    H111944   5.839   5.081   5.875
 4001TIP3    H211945   5.704   5.061   5.941
 4002TIP3   OH211946   6.906   7.102   3.026
 4002TIP3    H111947   6.811   7.096   3.013
 4002TIP3    H211948   6.916   7.114   3.120
 4003TIP3   OH211949   6.065   5.569   6.121
 4003TIP3    H111950   6.015   5.495   6.086
 4003TIP3    H211951   6.130   5.529   6.178
 4004TIP3   OH211952   3.320   6.924   5.885
 4004TIP3    H111953   3.330   6.896   5.795
 4004TIP3    H211954   3.273   6.853   5.928
 4005TIP3   OH211955   5.831   5.931   5.254
 4005TIP3    H111956   5.824   5.872   5.178
 4005TIP3    H211957   5.794   6.014   5.224
 4006TIP3   OH211958   0.760   7.777   1.502
 4006TIP3    H111959   0.694   7.823   1.451
 4006TIP3    H211960   0.725   7.775   1.591
 4007TIP3   OH211961   7.448   6.971   6.510
 4007TIP3    H111962   7.371   6.928   6.474
 4007TIP3    H211963   7.421   7.062   6.523
 4008TIP3   OH211964   2.085   2.073   2.777
 4008TIP3    H111965   2.126   1.996   2.816
 4008TIP3    H211966   2.138   2.147   2.807
 4009TIP3   OH211967   5.799   5.337   1.802
 4009TIP3    H111968   5.846   5.339   1.885
 4009TIP3    H211969   5.816   5.422   1.762
 4010TIP3   OH211970   2.152   3.298   0.977
 4010TIP3    H111971   2.163   3.203   0.981
 4010TIP3    H211972   2.093   3.312   0.903
 4011TIP3   OH211973   2.323   1.308   3.566
 4011TIP3    H111974   2.402   1.309   3.512
 4011TIP3    H211975   2.307   1.215   3.583
 4012TIP3   OH211976   5.589   5.366   2.499
 4012TIP3    H111977   5.520   5.319   2.453
 4012TIP3    H211978   5.573   5.347   2.592
 4013TIP3   OH211979   1.455   3.157   1.075
 4013TIP3    H111980   1.453   3.070   1.116
 4013TIP3    H211981   1.364   3.174   1.051
 4014TIP3   OH211982   4.727   1.744   3.936
 4014TIP3    H111983   4.727   1.761   4.030
 4014TIP3    H211984   4.644   1.782   3.905
 4015TIP3   OH211985   2.216   4.535   4.772
 4015TIP3    H111986   2.309   4.554   4.777
 4015TIP3    H211987   2.175   4.621   4.757
 4016TIP3   OH211988   8.003   3.304   2.188
 4016TIP3    H111989   8.040   3.227   2.229
 4016TIP3    H211990   8.035   3.377   2.241
 4017TIP3   OH211991   0.547   6.006   5.498
 4017TIP3    H111992   0.527   5.942   5.430
 4017TIP3    H211993   0.486   6.078   5.481
 4018TIP3   OH211994   0.137   0.786   3.650
 4018TIP3    H111995   0.148   0.767   3.557
 4018TIP3    H211996   0.215   0.748   3.692
 4019TIP3   OH211997   4.278   3.078   0.477
 4019TIP3    H111998   4.352   3.018   0.466
 4019TIP3    H211999   4.205   3.021   0.499
 4020TIP3   OH212000   7.028   7.742   4.479
 4020TIP3    H112001   7.092   7.730   4.409
 4020TIP3    H212002   6.979   7.659   4.480
 4021TIP3   OH212003   7.808   3.013   1.213
 4021TIP3    H112004   7.805   3.103   1.181
 4021TIP3    H212005   7.716   2.990   1.228
 4022TIP3   OH212006   2.590   6.538   6.477
 4022TIP3    H112007   2.616   6.446   6.484
 4022TIP3    H212008   2.659   6.580   6.427
 4023TIP3   OH212009   6.540   7.352   1.516
 4023TIP3    H112010   6.491   7.279   1.478
 4023TIP3    H212011   6.595   7.383   1.445
 4024TIP3   OH212012   7.991   0.559   2.313
 4024TIP3    H112013   8.077   0.576   2.352
 4024TIP3    H212014   8.001   0.586   2.221
 4025TIP3   OH212015   7.453   3.762   6.290
 4025TIP3    H112016   7.487   3.816   6.362
 4025TIP3    H212017   7.408   3.825   6.233
 4026TIP3   OH212018   6.924   3.488   1.784
 4026TIP3    H112019   6.958   3.557   1.728
 4026TIP3    H212020   6.998   3.428   1.797
 4027TIP3   OH212021   6.834   1.884   1.310
 4027TIP3    H112022   6.859   1.976   1.322
 4027TIP3    H212023   6.769   1.868   1.378
 4028TIP3   OH212024   8.387   6.880   3.057
 4028TIP3    H112025   8.313   6.843   3.104
 4028TIP3    H212026   8.450   6.903   3.125
 4029TIP3   OH212027   3.325   6.531   4.056
 4029TIP3    H112028   3.301   6.517   4.148
 4029TIP3    H212029   3.259   6.481   4.006
 4030TIP3   OH212030   4.361   2.276   0.514
 4030TIP3    H112031   4.352   2.202   0.453
 4030TIP3    H212032   4.450   2.268   0.548
 4031TIP3   OH212033   1.089   2.509   1.874
 4031TIP3    H112034   1.107   2.596   1.912
 4031TIP3    H212035   1.045   2.462   1.944
 4032TIP3   OH212036   6.674   1.161   5.295
 4032TIP3    H112037   6.717   1.236   5.336
 4032TIP3    H212038   6.718   1.152   5.210
 4033TIP3   OH212039   3.720   6.826   1.555
 4033TIP3    H112040   3.646   6.846   1.497
 4033TIP3    H212041   3.797   6.838   1.499
 4034TIP3   OH212042   5.522   7.570   3.121
 4034TIP3    H112043   5.531   7.592   3.214
 4034TIP3    H212044   5.573   7.489   3.110
 4035TIP3   OH212045   7.364   3.331   6.825
 4035TIP3    H112046   7.427   3.401   6.841
 4035TIP3    H212047   7.382   3.267   6.894
 4036TIP3   OH212048   6.491   4.935   5.833
 4036TIP3    H112049   6.506   4.843   5.856
 4036TIP3    H212050   6.456   4.932   5.744
 4037TIP3   OH212051   1.242   5.225   6.828
 4037TIP3    H112052   1.300   5.193   6.759
 4037TIP3    H212053   1.278   5.187   6.908
 4038TIP3   OH212054   7.902   5.946   3.003
 4038TIP3    H112055   7.904   5.863   2.955
 4038TIP3    H212056   7.908   6.013   2.935
 4039TIP3   OH212057   0.943   1.995   2.759
 4039TIP3    H112058   0.851   1.971   2.766
 4039TIP3    H212059   0.943   2.090   2.772
 4040TIP3   OH212060   4.629   0.225   5.775
 4040TIP3    H112061   4.581   0.274   5.708
 4040TIP3    H212062   4.592   0.136   5.771
 4041TIP3   OH212063   6.411   0.820   3.442
 4041TIP3    H112064   6.453   0.792   3.361
 4041TIP3    H212065   6.433   0.913   3.449
 4042TIP3   OH212066   6.667   6.542   0.739
 4042TIP3    H112067   6.680   6.447   0.738
 4042TIP3    H212068   6.731   6.575   0.676
 4043TIP3   OH212069   1.949   7.466   1.256
 4043TIP3    H112070   1.973   7.538   1.198
 4043TIP3    H212071   2.021   7.404   1.248
 4044TIP3   OH212072   2.630   2.159   5.746
 4044TIP3    H112073   2.659   2.217   5.676
 4044TIP3    H212074   2.703   2.158   5.808
 4045TIP3   OH212075   0.977   4.357   6.495
 4045TIP3    H112076   1.033   4.385   6.567
 4045TIP3    H212077   1.038   4.337   6.424
 4046TIP3   OH212078   6.218   7.573   3.680
 4046TIP3    H112079   6.176   7.508   3.736
 4046TIP3    H212080   6.148   7.633   3.655
 4047TIP3   OH212081   6.883   2.038   2.739
 4047TIP3    H112082   6.901   1.965   2.681
 4047TIP3    H212083   6.969   2.063   2.774
 4048TIP3   OH212084   5.859   0.282   0.185
 4048TIP3    H112085   5.862   0.378   0.180
 4048TIP3    H212086   5.916   0.259   0.258
 4049TIP3   OH212087   1.033   1.602   6.046
 4049TIP3    H112088   0.989   1.531   6.093
 4049TIP3    H212089   1.010   1.681   6.095
 4050TIP3   OH212090   2.054   2.562   5.026
 4050TIP3    H112091   2.112   2.607   5.088
 4050TIP3    H212092   2.105   2.487   4.996
 4051TIP3   OH212093   1.525   1.070   0.019
 4051TIP3    H112094   1.450   1.038  -0.032
 4051TIP3    H212095   1.558   0.993   0.064
 4052TIP3   OH212096   1.221   5.588   3.931
 4052TIP3    H112097   1.192   5.655   3.994
 4052TIP3    H212098   1.227   5.635   3.847
 4053TIP3   OH212099   0.246   6.869   4.177
 4053TIP3    H112100   0.277   6.788   4.137
 4053TIP3    H212101   0.240   6.850   4.271
 4054TIP3   OH212102   3.737   2.184   0.116
 4054TIP3    H112103   3.669   2.221   0.059
 4054TIP3    H212104   3.744   2.246   0.189
 4055TIP3   OH212105   5.717   1.354   4.457
 4055TIP3    H112106   5.633   1.399   4.462
 4055TIP3    H212107   5.703   1.271   4.502
 4056TIP3   OH212108   4.019   0.761   6.224
 4056TIP3    H112109   3.940   0.813   6.208
 4056TIP3    H212110   4.001   0.715   6.306
 4057TIP3   OH212111   0.433   4.116   5.489
 4057TIP3    H112112   0.501   4.135   5.424
 4057TIP3    H212113   0.481   4.079   5.563
 4058TIP3   OH212114   1.089   2.313   6.739
 4058TIP3    H112115   1.032   2.368   6.685
 4058TIP3    H212116   1.146   2.268   6.677
 4059TIP3   OH212117   4.091   5.019   1.970
 4059TIP3    H112118   4.056   5.081   1.906
 4059TIP3    H212119   4.186   5.022   1.958
 4060TIP3   OH212120   2.024   3.001   4.756
 4060TIP3    H112121   2.009   2.909   4.776
 4060TIP3    H212122   1.986   3.013   4.669
 4061TIP3   OH212123   0.079   2.764   4.246
 4061TIP3    H112124   0.052   2.822   4.318
 4061TIP3    H212125   0.047   2.678   4.272
 4062TIP3   OH212126   1.057   2.573   4.933
 4062TIP3    H112127   0.982   2.630   4.915
 4062TIP3    H212128   1.091   2.605   5.017
 4063TIP3   OH212129   7.657   2.051   1.743
 4063TIP3    H112130   7.684   2.140   1.721
 4063TIP3    H212131   7.691   1.997   1.672
 4064TIP3   OH212132   4.624   0.286   2.458
 4064TIP3    H112133   4.645   0.211   2.404
 4064TIP3    H212134   4.708   0.315   2.494
 4065TIP3   OH212135   4.755   3.045   0.398
 4065TIP3    H112136   4.842   3.004   0.402
 4065TIP3    H212137   4.734   3.065   0.489
 4066TIP3   OH212138   8.086   1.127   3.587
 4066TIP3    H112139   8.148   1.178   3.640
 4066TIP3    H212140   8.103   1.036   3.612
 4067TIP3   OH212141   0.846   7.578   2.207
 4067TIP3    H112142   0.790   7.654   2.188
 4067TIP3    H212143   0.806   7.506   2.159
 4068TIP3   OH212144   4.879   3.573   5.517
 4068TIP3    H112145   4.877   3.665   5.542
 4068TIP3    H212146   4.930   3.530   5.586
 4069TIP3   OH212147   3.742   5.981   5.926
 4069TIP3    H112148   3.712   6.061   5.968
 4069TIP3    H212149   3.693   5.911   5.968
 4070TIP3   OH212150   0.726   0.697   5.779
 4070TIP3    H112151   0.728   0.611   5.736
 4070TIP3    H212152   0.786   0.750   5.727
 4071TIP3   OH212153   6.914   1.284   5.361
 4071TIP3    H112154   6.980   1.279   5.291
 4071TIP3    H212155   6.919   1.200   5.405
 4072TIP3   OH212156   4.933   1.476   3.673
 4072TIP3    H112157   4.887   1.453   3.754
 4072TIP3    H212158   4.922   1.570   3.664
 4073TIP3   OH212159   0.777   0.513   2.619
 4073TIP3    H112160   0.814   0.484   2.536
 4073TIP3    H212161   0.702   0.455   2.635
 4074TIP3   OH212162   7.871   2.165   0.420
 4074TIP3    H112163   7.853   2.121   0.503
 4074TIP3    H212164   7.919   2.101   0.369
 4075TIP3   OH212165   7.385   6.525   0.251
 4075TIP3    H112166   7.473   6.490   0.233
 4075TIP3    H212167   7.397   6.580   0.329
 4076TIP3   OH212168   3.596   3.357   5.261
 4076TIP3    H112169   3.690   3.370   5.253
 4076TIP3    H212170   3.587   3.279   5.316
 4077TIP3   OH212171   2.953   6.388   1.132
 4077TIP3    H112172   2.937   6.465   1.187
 4077TIP3    H212173   2.990   6.323   1.191
 4078TIP3   OH212174   1.198   7.655   4.749
 4078TIP3    H112175   1.113   7.631   4.788
 4078TIP3    H212176   1.226   7.576   4.703
 4079TIP3   OH212177   2.962   3.028   6.015
 4079TIP3    H112178   2.923   3.113   6.035
 4079TIP3    H212179   2.894   2.964   6.034
 4080TIP3   OH212180   2.495   6.427   5.656
 4080TIP3    H112181   2.500   6.364   5.728
 4080TIP3    H212182   2.448   6.381   5.587
 4081TIP3   OH212183   5.014   7.199   4.589
 4081TIP3    H112184   4.935   7.236   4.550
 4081TIP3    H212185   5.020   7.241   4.675
 4082TIP3   OH212186   2.558   3.471   5.673
 4082TIP3    H112187   2.582   3.507   5.758
 4082TIP3    H212188   2.553   3.376   5.688
 4083TIP3   OH212189   0.164   6.735   4.422
 4083TIP3    H112190   0.108   6.812   4.433
 4083TIP3    H212191   0.106   6.660   4.435
 4084TIP3   OH212192   5.236   5.962   3.617
 4084TIP3    H112193   5.230   6.056   3.597
 4084TIP3    H212194   5.308   5.931   3.563
 4085TIP3   OH212195   0.702   7.585   6.505
 4085TIP3    H112196   0.740   7.671   6.488
 4085TIP3    H212197   0.735   7.529   6.434
 4086TIP3   OH212198   4.576   2.050   4.279
 4086TIP3    H112199   4.531   2.125   4.239
 4086TIP3    H212200   4.667   2.080   4.289
 4087TIP3   OH212201   3.537   5.440   6.653
 4087TIP3    H112202   3.471   5.412   6.716
 4087TIP3    H212203   3.615   5.391   6.677
 4088TIP3   OH212204   2.960   5.809   3.893
 4088TIP3    H112205   2.881   5.851   3.925
 4088TIP3    H212206   2.993   5.760   3.968
 4089TIP3   OH212207   6.045   7.666   6.404
 4089TIP3    H112208   5.966   7.716   6.387
 4089TIP3    H212209   6.081   7.704   6.484
 4090TIP3   OH212210   8.294   3.682   5.523
 4090TIP3    H112211   8.254   3.715   5.603
 4090TIP3    H212212   8.387   3.698   5.533
 4091TIP3   OH212213   4.516   0.352   0.471
 4091TIP3    H112214   4.489   0.289   0.404
 4091TIP3    H212215   4.584   0.405   0.428
 4092TIP3   OH212216   7.477   2.711   0.599
 4092TIP3    H112217   7.460   2.693   0.506
 4092TIP3    H212218   7.572   2.707   0.607
 4093TIP3   OH212219   5.743   2.205   5.364
 4093TIP3    H112220   5.726   2.222   5.271
 4093TIP3    H212221   5.777   2.288   5.398
 4094TIP3   OH212222   4.456   4.120   5.261
 4094TIP3    H112223   4.388   4.059   5.289
 4094TIP3    H212224   4.446   4.195   5.320
 4095TIP3   OH212225   2.622   3.817   5.163
 4095TIP3    H112226   2.700   3.782   5.206
 4095TIP3    H212227   2.549   3.769   5.203
 4096TIP3   OH212228   3.473   2.119   4.570
 4096TIP3    H112229   3.566   2.143   4.561
 4096TIP3    H212230   3.432   2.197   4.607
 4097TIP3   OH212231   6.990   7.390   0.815
 4097TIP3    H112232   6.974   7.453   0.744
 4097TIP3    H212233   7.018   7.443   0.889
 4098TIP3   OH212234   7.412   2.146   0.474
 4098TIP3    H112235   7.462   2.073   0.512
 4098TIP3    H212236   7.439   2.148   0.382
 4099TIP3   OH212237   1.053   4.599   1.620
 4099TIP3    H112238   1.075   4.679   1.573
 4099TIP3    H212239   1.088   4.528   1.566
 4100TIP3   OH212240   2.398   6.262   4.294
 4100TIP3    H112241   2.382   6.206   4.219
 4100TIP3    H212242   2.485   6.237   4.325
 4101TIP3   OH212243   6.917   4.682   5.269
 4101TIP3    H112244   6.980   4.613   5.289
 4101TIP3    H212245   6.895   4.668   5.177
 4102TIP3   OH212246   6.320   2.487   2.074
 4102TIP3    H112247   6.336   2.573   2.036
 4102TIP3    H212248   6.260   2.444   2.013
 4103TIP3   OH212249   5.009   5.924   2.131
 4103TIP3    H112250   5.091   5.896   2.091
 4103TIP3    H212251   4.959   5.962   2.059
 4104TIP3   OH212252   0.229   3.262   0.053
 4104TIP3    H112253   0.247   3.168   0.047
 4104TIP3    H212254   0.263   3.299  -0.028
 4105TIP3   OH212255   3.232   6.702   2.125
 4105TIP3    H112256   3.284   6.621   2.126
 4105TIP3    H212257   3.154   6.681   2.175
 4106TIP3   OH212258   3.598   1.128   0.254
 4106TIP3    H112259   3.575   1.176   0.334
 4106TIP3    H212260   3.672   1.073   0.280
 4107TIP3   OH212261   4.890   0.920   4.452
 4107TIP3    H112262   4.927   1.008   4.443
 4107TIP3    H212263   4.865   0.915   4.545
 4108TIP3   OH212264   0.568   0.811   3.435
 4108TIP3    H112265   0.642   0.871   3.443
 4108TIP3    H212266   0.572   0.781   3.344
 4109TIP3   OH212267   3.152   1.598   2.408
 4109TIP3    H112268   3.158   1.663   2.338
 4109TIP3    H212269   3.221   1.535   2.389
 4110TIP3   OH212270   7.637   7.599   6.113
 4110TIP3    H112271   7.578   7.524   6.107
 4110TIP3    H212272   7.587   7.672   6.076
 4111TIP3   OH212273   5.582   3.908   5.334
 4111TIP3    H112274   5.624   3.936   5.415
 4111TIP3    H212275   5.490   3.893   5.359
 4112TIP3   OH212276   6.868   3.248   6.405
 4112TIP3    H112277   6.826   3.272   6.488
 4112TIP3    H212278   6.954   3.216   6.430
 4113TIP3   OH212279   2.112   4.946   6.325
 4113TIP3    H112280   2.162   4.872   6.290
 4113TIP3    H212281   2.174   5.019   6.324
 4114TIP3   OH212282   6.347   2.121   4.839
 4114TIP3    H112283   6.381   2.190   4.895
 4114TIP3    H212284   6.272   2.086   4.888
 4115TIP3   OH212285   6.135   3.329   5.763
 4115TIP3    H112286   6.183   3.411   5.771
 4115TIP3    H212287   6.045   3.351   5.788
 4116TIP3   OH212288   3.078   4.974   2.788
 4116TIP3    H112289   3.048   5.043   2.846
 4116TIP3    H212290   3.171   4.990   2.776
 4117TIP3   OH212291   7.704   3.236   0.185
 4117TIP3    H112292   7.653   3.156   0.174
 4117TIP3    H212293   7.639   3.306   0.183
 4118TIP3   OH212294   0.135   7.492   5.510
 4118TIP3    H112295   0.188   7.513   5.587
 4118TIP3    H212296   0.093   7.409   5.533
 4119TIP3   OH212297   4.713   7.649   5.482
 4119TIP3    H112298   4.692   7.680   5.570
 4119TIP3    H212299   4.787   7.589   5.494
 4120TIP3   OH212300   3.552   1.778   0.012
 4120TIP3    H112301   3.470   1.827   0.012
 4120TIP3    H212302   3.614   1.835   0.059
 4121TIP3   OH212303   5.877   5.911   1.257
 4121TIP3    H112304   5.926   5.829   1.253
 4121TIP3    H212305   5.860   5.934   1.166
 4122TIP3   OH212306   2.093   7.366   2.057
 4122TIP3    H112307   2.104   7.293   2.117
 4122TIP3    H212308   1.999   7.382   2.055
 4123TIP3   OH212309   1.165   6.473   6.169
 4123TIP3    H112310   1.167   6.533   6.244
 4123TIP3    H212311   1.236   6.411   6.185
 4124TIP3   OH212312   7.789   1.523   2.788
 4124TIP3    H112313   7.741   1.593   2.743
 4124TIP3    H212314   7.724   1.455   2.805
 4125TIP3   OH212315   3.175   7.466   0.343
 4125TIP3    H112316   3.201   7.526   0.274
 4125TIP3    H212317   3.114   7.405   0.301
 4126TIP3   OH212318   2.539   7.723   1.731
 4126TIP3    H112319   2.523   7.703   1.823
 4126TIP3    H212320   2.635   7.724   1.724
 4127TIP3   OH212321   0.208   1.447   5.904
 4127TIP3    H112322   0.157   1.484   5.833
 4127TIP3    H212323   0.297   1.439   5.868
 4128TIP3   OH212324   4.206   0.502   3.650
 4128TIP3    H112325   4.160   0.434   3.699
 4128TIP3    H212326   4.297   0.474   3.649
 4129TIP3   OH212327   3.898   4.131   0.714
 4129TIP3    H112328   3.980   4.098   0.752
 4129TIP3    H212329   3.913   4.224   0.699
 4130TIP3   OH212330   8.325   3.217   1.222
 4130TIP3    H112331   8.289   3.305   1.231
 4130TIP3    H212332   8.348   3.209   1.129
 4131TIP3   OH212333   7.130   2.966   4.831
 4131TIP3    H112334   7.126   2.904   4.903
 4131TIP3    H212335   7.110   2.914   4.753
 4132TIP3   OH212336   1.802   5.354   0.262
 4132TIP3    H112337   1.896   5.344   0.250
 4132TIP3    H212338   1.765   5.270   0.237
 4133TIP3   OH212339   7.474   0.753   0.992
 4133TIP3    H112340   7.399   0.711   1.035
 4133TIP3    H212341   7.516   0.804   1.061
 4134TIP3   OH212342   2.374   4.086   6.092
 4134TIP3    H112343   2.389   4.021   6.161
 4134TIP3    H212344   2.453   4.140   6.093
 4135TIP3   OH212345   3.156   0.930   0.034
 4135TIP3    H112346   3.243   0.966   0.047
 4135TIP3    H212347   3.127   0.905   0.121
 4136TIP3   OH212348   2.438   1.773   3.329
 4136TIP3    H112349   2.379   1.830   3.379
 4136TIP3    H212350   2.382   1.730   3.265
 4137TIP3   OH212351   0.166   2.852   5.052
 4137TIP3    H112352   0.082   2.812   5.076
 4137TIP3    H212353   0.223   2.834   5.126
 4138TIP3   OH212354   0.313   3.749   0.981
 4138TIP3    H112355   0.342   3.822   0.927
 4138TIP3    H212356   0.299   3.787   1.068
 4139TIP3   OH212357   6.707   3.042   1.832
 4139TIP3    H112358   6.795   3.006   1.826
 4139TIP3    H212359   6.678   3.020   1.920
 4140TIP3   OH212360   4.559   5.256   1.751
 4140TIP3    H112361   4.626   5.316   1.782
 4140TIP3    H212362   4.607   5.179   1.720
 4141TIP3   OH212363   3.948   1.572   3.334
 4141TIP3    H112364   4.028   1.548   3.287
 4141TIP3    H212365   3.888   1.500   3.318
 4142TIP3   OH212366   3.729   2.215   1.139
 4142TIP3    H112367   3.662   2.155   1.172
 4142TIP3    H212368   3.680   2.284   1.095
 4143TIP3   OH212369   4.630   7.591   1.082
 4143TIP3    H112370   4.648   7.679   1.115
 4143TIP3    H212371   4.701   7.572   1.022
 4144TIP3   OH212372   2.357   7.663   6.199
 4144TIP3    H112373   2.379   7.673   6.106
 4144TIP3    H212374   2.286   7.726   6.213
 4145TIP3   OH212375   5.278   3.807   1.594
 4145TIP3    H112376   5.261   3.797   1.500
 4145TIP3    H212377   5.217   3.876   1.622
 4146TIP3   OH212378   6.148   4.506   4.520
 4146TIP3    H112379   6.187   4.564   4.454
 4146TIP3    H212380   6.199   4.425   4.514
 4147TIP3   OH212381   0.054   5.062   1.896
 4147TIP3    H112382  -0.035   5.098   1.897
 4147TIP3    H212383   0.101   5.116   1.833
 4148TIP3   OH212384   7.281   3.127   2.760
 4148TIP3    H112385   7.264   3.112   2.853
 4148TIP3    H212386   7.344   3.199   2.758
 4149TIP3   OH212387   3.040   7.370   3.044
 4149TIP3    H112388   3.077   7.301   3.100
 4149TIP3    H212389   2.975   7.413   3.099
 4150TIP3   OH212390   5.678   5.982   1.441
 4150TIP3    H112391   5.659   6.069   1.408
 4150TIP3    H212392   5.749   5.950   1.386
 4151TIP3   OH212393   7.933   4.426   5.970
 4151TIP3    H112394   7.923   4.330   5.974
 4151TIP3    H212395   8.020   4.442   6.004
 4152TIP3   OH212396   8.085   0.208   3.039
 4152TIP3    H112397   8.074   0.249   2.953
 4152TIP3    H212398   7.997   0.210   3.077
 4153TIP3   OH212399   1.162   2.729   0.257
 4153TIP3    H112400   1.138   2.739   0.165
 4153TIP3    H212401   1.097   2.781   0.304
 4154TIP3   OH212402   5.074   5.440   4.087
 4154TIP3    H112403   5.147   5.425   4.027
 4154TIP3    H212404   5.080   5.532   4.110
 4155TIP3   OH212405   1.963   7.601   3.529
 4155TIP3    H112406   1.947   7.507   3.533
 4155TIP3    H212407   1.926   7.628   3.445
 4156TIP3   OH212408   0.745   3.860   2.714
 4156TIP3    H112409   0.748   3.888   2.806
 4156TIP3    H212410   0.834   3.830   2.695
 4157TIP3   OH212411   7.733   4.486   5.765
 4157TIP3    H112412   7.691   4.438   5.693
 4157TIP3    H212413   7.826   4.480   5.746
 4158TIP3   OH212414   5.182   1.323   4.812
 4158TIP3    H112415   5.207   1.241   4.772
 4158TIP3    H212416   5.160   1.300   4.902
 4159TIP3   OH212417   1.803   6.052   4.790
 4159TIP3    H112418   1.871   5.987   4.809
 4159TIP3    H212419   1.832   6.096   4.710
 4160TIP3   OH212420   3.062   0.571   1.648
 4160TIP3    H112421   2.984   0.626   1.641
 4160TIP3    H212422   3.134   0.633   1.662
 4161TIP3   OH212423   2.074   6.821   5.737
 4161TIP3    H112424   1.985   6.842   5.763
 4161TIP3    H212425   2.092   6.737   5.780
 4162TIP3   OH212426   4.809   2.325   2.469
 4162TIP3    H112427   4.831   2.301   2.379
 4162TIP3    H212428   4.890   2.308   2.518
 4163TIP3   OH212429   0.087   7.381   3.512
 4163TIP3    H112430   0.067   7.469   3.481
 4163TIP3    H212431   0.016   7.327   3.478
 4164TIP3   OH212432   2.358   4.631   6.491
 4164TIP3    H112433   2.305   4.662   6.419
 4164TIP3    H212434   2.297   4.619   6.564
 4165TIP3   OH212435   2.305   3.264   6.703
 4165TIP3    H112436   2.219   3.276   6.664
 4165TIP3    H212437   2.302   3.175   6.740
 4166TIP3   OH212438   4.588   6.682   2.231
 4166TIP3    H112439   4.537   6.691   2.150
 4166TIP3    H212440   4.526   6.643   2.293
 4167TIP3   OH212441   1.367   3.025   2.853
 4167TIP3    H112442   1.420   2.969   2.910
 4167TIP3    H212443   1.407   3.018   2.767
 4168TIP3   OH212444   6.387   3.870   0.241
 4168TIP3    H112445   6.405   3.776   0.251
 4168TIP3    H212446   6.471   3.912   0.254
 4169TIP3   OH212447   8.093   1.686   0.753
 4169TIP3    H112448   8.001   1.712   0.756
 4169TIP3    H212449   8.095   1.603   0.800
 4170TIP3   OH212450   5.205   7.266   0.451
 4170TIP3    H112451   5.180   7.176   0.427
 4170TIP3    H212452   5.293   7.257   0.487
 4171TIP3   OH212453   5.279   0.124   0.750
 4171TIP3    H112454   5.262   0.035   0.782
 4171TIP3    H212455   5.340   0.161   0.813
 4172TIP3   OH212456   2.764   5.189   5.175
 4172TIP3    H112457   2.805   5.175   5.089
 4172TIP3    H212458   2.672   5.167   5.161
 4173TIP3   OH212459   7.725   2.887   4.991
 4173TIP3    H112460   7.689   2.920   4.909
 4173TIP3    H212461   7.803   2.839   4.965
 4174TIP3   OH212462   8.040   7.702   6.292
 4174TIP3    H112463   8.117   7.708   6.349
 4174TIP3    H212464   7.966   7.696   6.352
 4175TIP3   OH212465   6.677   5.328   6.267
 4175TIP3    H112466   6.751   5.270   6.284
 4175TIP3    H212467   6.686   5.351   6.174
 4176TIP3   OH212468   3.330   3.634   0.335
 4176TIP3    H112469   3.354   3.722   0.365
 4176TIP3    H212470   3.399   3.577   0.370
 4177TIP3   OH212471   1.956   5.259   2.854
 4177TIP3    H112472   1.906   5.261   2.936
 4177TIP3    H212473   2.005   5.342   2.854
 4178TIP3   OH212474   0.531   6.230   0.267
 4178TIP3    H112475   0.606   6.192   0.313
 4178TIP3    H212476   0.527   6.183   0.184
 4179TIP3   OH212477   3.217   1.115   4.001
 4179TIP3    H112478   3.181   1.188   4.049
 4179TIP3    H212479   3.224   1.044   4.065
 4180TIP3   OH212480   7.503   1.367   2.312
 4180TIP3    H112481   7.516   1.437   2.248
 4180TIP3    H212482   7.408   1.355   2.316
 4181TIP3   OH212483   4.843   3.694   3.729
 4181TIP3    H112484   4.757   3.653   3.721
 4181TIP3    H212485   4.902   3.634   3.683
 4182TIP3   OH212486   6.855   1.545   0.030
 4182TIP3    H112487   6.845   1.469  -0.028
 4182TIP3    H212488   6.837   1.511   0.117
 4183TIP3   OH212489   0.137   0.693   2.200
 4183TIP3    H112490   0.101   0.781   2.210
 4183TIP3    H212491   0.185   0.678   2.282
 4184TIP3   OH212492   1.487   2.754   2.335
 4184TIP3    H112493   1.571   2.726   2.371
 4184TIP3    H212494   1.509   2.805   2.257
 4185TIP3   OH212495   6.873   5.613   1.525
 4185TIP3    H112496   6.861   5.646   1.436
 4185TIP3    H212497   6.934   5.675   1.566
 4186TIP3   OH212498   2.336   3.949   0.719
 4186TIP3    H112499   2.260   3.907   0.679
 4186TIP3    H212500   2.411   3.912   0.672
 4187TIP3   OH212501   2.477   7.825   6.407
 4187TIP3    H112502   2.477   7.802   6.314
 4187TIP3    H212503   2.516   7.748   6.450
 4188TIP3   OH212504   7.971   5.395   1.914
 4188TIP3    H112505   7.909   5.464   1.935
 4188TIP3    H212506   7.952   5.373   1.822
 4189TIP3   OH212507   5.398   3.474   6.281
 4189TIP3    H112508   5.394   3.459   6.376
 4189TIP3    H212509   5.314   3.513   6.259
 4190TIP3   OH212510   7.643   5.906   4.126
 4190TIP3    H112511   7.647   5.842   4.056
 4190TIP3    H212512   7.729   5.947   4.127
 4191TIP3   OH212513   1.599   6.465   2.813
 4191TIP3    H112514   1.666   6.448   2.746
 4191TIP3    H212515   1.628   6.547   2.855
 4192TIP3   OH212516   1.782   7.255   6.805
 4192TIP3    H112517   1.756   7.176   6.757
 4192TIP3    H212518   1.789   7.322   6.738
 4193TIP3   OH212519   0.218   3.946   5.227
 4193TIP3    H112520   0.276   3.881   5.186
 4193TIP3    H212521   0.267   4.028   5.220
 4194TIP3   OH212522   7.260   4.786   0.887
 4194TIP3    H112523   7.344   4.829   0.874
 4194TIP3    H212524   7.231   4.815   0.973
 4195TIP3   OH212525   5.324   5.924   4.240
 4195TIP3    H112526   5.354   5.985   4.172
 4195TIP3    H212527   5.286   5.851   4.191
 4196TIP3   OH212528   1.963   4.852   3.816
 4196TIP3    H112529   1.933   4.942   3.801
 4196TIP3    H212530   1.973   4.846   3.911
 4197TIP3   OH212531   8.056   4.406   0.516
 4197TIP3    H112532   8.029   4.316   0.534
 4197TIP3    H212533   8.012   4.458   0.583
 4198TIP3   OH212534   4.909   4.685   2.996
 4198TIP3    H112535   4.938   4.693   3.087
 4198TIP3    H212536   4.975   4.629   2.954
 4199TIP3   OH212537   6.173   2.593   4.390
 4199TIP3    H112538   6.223   2.573   4.311
 4199TIP3    H212539   6.183   2.514   4.445
 4200TIP3   OH212540   5.379   0.295   3.235
 4200TIP3    H112541   5.468   0.273   3.209
 4200TIP3    H212542   5.384   0.306   3.330
 4201TIP3   OH212543   0.713   4.182   5.575
 4201TIP3    H112544   0.782   4.189   5.641
 4201TIP3    H212545   0.715   4.267   5.530
 4202TIP3   OH212546   2.272   1.349   1.754
 4202TIP3    H112547   2.204   1.333   1.689
 4202TIP3    H212548   2.298   1.262   1.784
 4203TIP3   OH212549   3.552   2.922   1.609
 4203TIP3    H112550   3.582   2.911   1.519
 4203TIP3    H212551   3.457   2.928   1.603
 4204TIP3   OH212552   2.149   4.820   1.449
 4204TIP3    H112553   2.231   4.832   1.402
 4204TIP3    H212554   2.155   4.881   1.523
 4205TIP3   OH212555   8.260   2.017   2.901
 4205TIP3    H112556   8.312   1.956   2.952
 4205TIP3    H212557   8.189   1.964   2.865
 4206TIP3   OH212558   1.948   6.339   3.440
 4206TIP3    H112559   1.877   6.367   3.383
 4206TIP3    H212560   2.015   6.406   3.431
 4207TIP3   OH212561   5.448   5.268   4.699
 4207TIP3    H112562   5.453   5.192   4.642
 4207TIP3    H212563   5.510   5.331   4.662
 4208TIP3   OH212564   2.308   3.781   2.074
 4208TIP3    H112565   2.359   3.808   1.998
 4208TIP3    H212566   2.231   3.838   2.074
 4209TIP3   OH212567   2.615   7.082   0.092
 4209TIP3    H112568   2.571   7.109   0.173
 4209TIP3    H212569   2.618   7.161   0.038
 4210TIP3   OH212570   7.737   5.251   5.978
 4210TIP3    H112571   7.824   5.211   5.975
 4210TIP3    H212572   7.744   5.328   5.921
 4211TIP3   OH212573   3.145   0.379   5.661
 4211TIP3    H112574   3.055   0.355   5.686
 4211TIP3    H212575   3.162   0.460   5.707
 4212TIP3   OH212576   3.519   4.866   2.032
 4212TIP3    H112577   3.433   4.824   2.028
 4212TIP3    H212578   3.502   4.951   2.073
 4213TIP3   OH212579   1.483   0.955   4.922
 4213TIP3    H112580   1.509   0.988   5.008
 4213TIP3    H212581   1.443   1.030   4.878
 4214TIP3   OH212582   0.679   2.032   4.492
 4214TIP3    H112583   0.618   2.104   4.510
 4214TIP3    H212584   0.697   1.993   4.577
 4215TIP3   OH212585   6.096   3.248   0.802
 4215TIP3    H112586   6.110   3.342   0.807
 4215TIP3    H212587   6.049   3.226   0.883
 4216TIP3   OH212588   0.961   3.023   2.219
 4216TIP3    H112589   0.920   2.944   2.254
 4216TIP3    H212590   0.910   3.095   2.256
 4217TIP3   OH212591   4.454   6.085   0.366
 4217TIP3    H112592   4.474   6.049   0.280
 4217TIP3    H212593   4.528   6.142   0.386
 4218TIP3   OH212594   3.589   6.274   4.337
 4218TIP3    H112595   3.498   6.251   4.315
 4218TIP3    H212596   3.639   6.255   4.258
 4219TIP3   OH212597   0.660   2.328   4.276
 4219TIP3    H112598   0.635   2.329   4.184
 4219TIP3    H212599   0.735   2.388   4.281
 4220TIP3   OH212600   5.441   6.627   6.453
 4220TIP3    H112601   5.502   6.648   6.524
 4220TIP3    H212602   5.380   6.701   6.450
 4221TIP3   OH212603   7.375   3.892   0.326
 4221TIP3    H112604   7.428   3.843   0.389
 4221TIP3    H212605   7.429   3.968   0.304
 4222TIP3   OH212606   2.900   2.472   5.740
 4222TIP3    H112607   2.952   2.392   5.741
 4222TIP3    H212608   2.883   2.489   5.648
 4223TIP3   OH212609   8.038   2.402   0.170
 4223TIP3    H112610   8.131   2.384   0.183
 4223TIP3    H212611   8.036   2.483   0.119
 4224TIP3   OH212612   5.009   0.226   0.543
 4224TIP3    H112613   4.994   0.302   0.487
 4224TIP3    H212614   5.084   0.250   0.597
 4225TIP3   OH212615   1.651   0.846   0.153
 4225TIP3    H112616   1.660   0.846   0.058
 4225TIP3    H212617   1.717   0.783   0.183
 4226TIP3   OH212618   5.697   6.590   1.349
 4226TIP3    H112619   5.625   6.527   1.345
 4226TIP3    H212620   5.681   6.649   1.275
 4227TIP3   OH212621   3.776   6.610   2.003
 4227TIP3    H112622   3.846   6.675   2.004
 4227TIP3    H212623   3.820   6.526   1.988
 4228TIP3   OH212624   2.038   0.790   0.135
 4228TIP3    H112625   2.104   0.766   0.070
 4228TIP3    H212626   1.964   0.822   0.084
 4229TIP3   OH212627   7.547   1.432   2.880
 4229TIP3    H112628   7.461   1.411   2.843
 4229TIP3    H212629   7.543   1.527   2.894
 4230TIP3   OH212630   1.357   6.696   2.753
 4230TIP3    H112631   1.409   6.695   2.833
 4230TIP3    H212632   1.417   6.727   2.685
 4231TIP3   OH212633   3.100   5.616   4.015
 4231TIP3    H112634   3.098   5.535   3.964
 4231TIP3    H212635   3.174   5.666   3.979
 4232TIP3   OH212636   3.951   4.152   5.866
 4232TIP3    H112637   3.956   4.159   5.962
 4232TIP3    H212638   3.866   4.110   5.850
 4233TIP3   OH212639   7.423   4.497   2.941
 4233TIP3    H112640   7.476   4.577   2.939
 4233TIP3    H212641   7.420   4.468   2.850
 4234TIP3   OH212642   0.815   2.781   2.262
 4234TIP3    H112643   0.870   2.715   2.304
 4234TIP3    H212644   0.818   2.759   2.169
 4235TIP3   OH212645   7.663   5.319   2.037
 4235TIP3    H112646   7.643   5.239   1.988
 4235TIP3    H212647   7.641   5.297   2.128
 4236TIP3   OH212648   4.508   3.604   0.348
 4236TIP3    H112649   4.521   3.535   0.413
 4236TIP3    H212650   4.476   3.560   0.270
 4237TIP3   OH212651   0.321   4.183   1.988
 4237TIP3    H112652   0.275   4.250   2.039
 4237TIP3    H212653   0.414   4.200   2.005
 4238TIP3   OH212654   0.880   2.528   4.327
 4238TIP3    H112655   0.899   2.476   4.406
 4238TIP3    H212656   0.913   2.615   4.348
 4239TIP3   OH212657   1.563   7.164   6.281
 4239TIP3    H112658   1.491   7.192   6.338
 4239TIP3    H212659   1.545   7.072   6.263
 4240TIP3   OH212660   1.242   6.967   0.451
 4240TIP3    H112661   1.164   6.997   0.497
 4240TIP3    H212662   1.252   6.876   0.479
 4241TIP3   OH212663   5.042   6.010   4.800
 4241TIP3    H112664   5.034   5.930   4.749
 4241TIP3    H212665   5.120   5.996   4.854
 4242TIP3   OH212666   8.101   1.774   2.815
 4242TIP3    H112667   8.050   1.741   2.741
 4242TIP3    H212668   8.065   1.730   2.891
 4243TIP3   OH212669   1.817   1.160   5.164
 4243TIP3    H112670   1.859   1.104   5.230
 4243TIP3    H212671   1.882   1.168   5.094
 4244TIP3   OH212672   2.543   5.079   6.366
 4244TIP3    H112673   2.548   4.989   6.400
 4244TIP3    H212674   2.548   5.134   6.445
 4245TIP3   OH212675   7.579   2.147   4.884
 4245TIP3    H112676   7.544   2.068   4.843
 4245TIP3    H212677   7.654   2.171   4.830
 4246TIP3   OH212678   5.885   6.826   0.884
 4246TIP3    H112679   5.847   6.808   0.798
 4246TIP3    H212680   5.974   6.792   0.879
 4247TIP3   OH212681   6.037   4.153   4.375
 4247TIP3    H112682   5.997   4.221   4.429
 4247TIP3    H212683   6.096   4.200   4.316
 4248TIP3   OH212684   1.388   5.479   5.369
 4248TIP3    H112685   1.400   5.515   5.281
 4248TIP3    H212686   1.474   5.443   5.391
 4249TIP3   OH212687   2.002   2.306   1.497
 4249TIP3    H112688   2.036   2.232   1.548
 4249TIP3    H212689   1.910   2.285   1.483
 4250TIP3   OH212690   6.783   6.958   6.151
 4250TIP3    H112691   6.868   6.955   6.195
 4250TIP3    H212692   6.736   6.882   6.184
 4251TIP3   OH212693   8.284   4.486   0.357
 4251TIP3    H112694   8.360   4.529   0.397
 4251TIP3    H212695   8.228   4.462   0.431
 4252TIP3   OH212696   5.519   3.945   3.953
 4252TIP3    H112697   5.545   4.003   4.024
 4252TIP3    H212698   5.568   3.975   3.877
 4253TIP3   OH212699   2.423   5.496   3.435
 4253TIP3    H112700   2.467   5.491   3.520
 4253TIP3    H212701   2.408   5.589   3.421
 4254TIP3   OH212702   6.517   1.168   2.022
 4254TIP3    H112703   6.449   1.235   2.015
 4254TIP3    H212704   6.599   1.217   2.023
 4255TIP3   OH212705   1.337   7.008   0.807
 4255TIP3    H112706   1.302   6.991   0.720
 4255TIP3    H212707   1.373   6.923   0.836
 4256TIP3   OH212708   4.392   4.223   5.530
 4256TIP3    H112709   4.300   4.203   5.509
 4256TIP3    H212710   4.390   4.312   5.564
 4257TIP3   OH212711   4.840   3.685   0.304
 4257TIP3    H112712   4.876   3.623   0.367
 4257TIP3    H212713   4.829   3.635   0.223
 4258TIP3   OH212714   1.892   1.581   1.666
 4258TIP3    H112715   1.900   1.599   1.760
 4258TIP3    H212716   1.832   1.507   1.661
 4259TIP3   OH212717   5.677   4.953   0.452
 4259TIP3    H112718   5.648   4.862   0.440
 4259TIP3    H212719   5.736   4.969   0.378
 4260TIP3   OH212720   6.437   3.174   0.319
 4260TIP3    H112721   6.355   3.142   0.283
 4260TIP3    H212722   6.467   3.103   0.376
 4261TIP3   OH212723   7.435   7.608   1.832
 4261TIP3    H112724   7.402   7.545   1.767
 4261TIP3    H212725   7.359   7.632   1.884
 4262TIP3   OH212726   5.206   1.017   5.341
 4262TIP3    H112727   5.296   1.044   5.325
 4262TIP3    H212728   5.213   0.927   5.372
 4263TIP3   OH212729   3.564   7.588   2.872
 4263TIP3    H112730   3.580   7.572   2.965
 4263TIP3    H212731   3.646   7.561   2.830
 4264TIP3   OH212732   1.251   3.903   4.199
 4264TIP3    H112733   1.322   3.843   4.177
 4264TIP3    H212734   1.295   3.979   4.237
 4265TIP3   OH212735   7.732   2.752   0.657
 4265TIP3    H112736   7.781   2.788   0.731
 4265TIP3    H212737   7.755   2.809   0.583
 4266TIP3   OH212738   0.969   0.996   0.072
 4266TIP3    H112739   0.942   0.961   0.157
 4266TIP3    H212740   0.960   1.091   0.082
 4267TIP3   OH212741   6.997   3.968   5.139
 4267TIP3    H112742   6.964   3.929   5.220
 4267TIP3    H212743   7.092   3.961   5.146
 4268TIP3   OH212744   5.788   6.531   0.512
 4268TIP3    H112745   5.854   6.534   0.443
 4268TIP3    H212746   5.748   6.444   0.504
 4269TIP3   OH212747   6.484   6.379   1.821
 4269TIP3    H112748   6.510   6.469   1.801
 4269TIP3    H212749   6.457   6.342   1.737
 4270TIP3   OH212750   8.004   0.734   1.407
 4270TIP3    H112751   8.083   0.784   1.387
 4270TIP3    H212752   8.009   0.717   1.501
 4271TIP3   OH212753   3.214   2.540   6.214
 4271TIP3    H112754   3.141   2.602   6.213
 4271TIP3    H212755   3.180   2.464   6.261
 4272TIP3   OH212756   1.356   3.876   3.882
 4272TIP3    H112757   1.380   3.835   3.965
 4272TIP3    H212758   1.260   3.875   3.882
 4273TIP3   OH212759   7.545   7.475   4.293
 4273TIP3    H112760   7.606   7.521   4.235
 4273TIP3    H212761   7.582   7.387   4.302
 4274TIP3   OH212762   0.393   6.388   1.824
 4274TIP3    H112763   0.342   6.450   1.771
 4274TIP3    H212764   0.471   6.370   1.771
 4275TIP3   OH212765   4.565   2.112   1.224
 4275TIP3    H112766   4.584   2.173   1.153
 4275TIP3    H212767   4.622   2.037   1.207
 4276TIP3   OH212768   4.102   6.302   0.849
 4276TIP3    H112769   4.065   6.330   0.765
 4276TIP3    H212770   4.068   6.366   0.912
 4277TIP3   OH212771   3.836   3.544   5.938
 4277TIP3    H112772   3.919   3.495   5.945
 4277TIP3    H212773   3.768   3.476   5.945
 4278TIP3   OH212774   6.220   5.048   1.209
 4278TIP3    H112775   6.133   5.042   1.247
 4278TIP3    H212776   6.212   5.005   1.124
 4279TIP3   OH212777   0.856   5.682   3.765
 4279TIP3    H112778   0.771   5.647   3.791
 4279TIP3    H212779   0.913   5.605   3.760
 4280TIP3   OH212780   8.077   6.693   3.454
 4280TIP3    H112781   8.006   6.700   3.390
 4280TIP3    H212782   8.037   6.647   3.528
 4281TIP3   OH212783   6.319   0.572   1.434
 4281TIP3    H112784   6.404   0.571   1.478
 4281TIP3    H212785   6.279   0.655   1.461
 4282TIP3   OH212786   3.969   4.604   4.900
 4282TIP3    H112787   4.045   4.632   4.951
 4282TIP3    H212788   3.908   4.677   4.905
 4283TIP3   OH212789   4.604   6.599   3.034
 4283TIP3    H112790   4.555   6.607   2.952
 4283TIP3    H212791   4.582   6.512   3.067
 4284TIP3   OH212792   2.989   0.597   6.495
 4284TIP3    H112793   2.894   0.595   6.482
 4284TIP3    H212794   3.015   0.684   6.464
 4285TIP3   OH212795   5.020   7.669   6.499
 4285TIP3    H112796   5.001   7.664   6.592
 4285TIP3    H212797   5.114   7.687   6.495
 4286TIP3   OH212798   7.034   6.573   1.768
 4286TIP3    H112799   7.098   6.627   1.721
 4286TIP3    H212800   6.983   6.531   1.698
 4287TIP3   OH212801   6.002   0.437   5.635
 4287TIP3    H112802   5.913   0.449   5.602
 4287TIP3    H212803   5.997   0.358   5.688
 4288TIP3   OH212804   7.591   3.197   4.335
 4288TIP3    H112805   7.519   3.241   4.291
 4288TIP3    H212806   7.557   3.109   4.354
 4289TIP3   OH212807   4.530   1.340   2.911
 4289TIP3    H112808   4.517   1.369   3.001
 4289TIP3    H212809   4.448   1.360   2.867
 4290TIP3   OH212810   2.541   1.024   6.395
 4290TIP3    H112811   2.483   0.993   6.464
 4290TIP3    H212812   2.620   1.052   6.440
 4291TIP3   OH212813   7.419   1.391   0.718
 4291TIP3    H112814   7.392   1.431   0.801
 4291TIP3    H212815   7.352   1.326   0.700
 4292TIP3   OH212816   1.032   6.574   4.685
 4292TIP3    H112817   1.103   6.560   4.748
 4292TIP3    H212818   1.053   6.657   4.643
 4293TIP3   OH212819   6.886   4.905   0.451
 4293TIP3    H112820   6.832   4.979   0.477
 4293TIP3    H212821   6.896   4.853   0.530
 4294TIP3   OH212822   4.747   6.666   4.618
 4294TIP3    H112823   4.726   6.740   4.562
 4294TIP3    H212824   4.724   6.589   4.566
 4295TIP3   OH212825   7.428   0.161   2.717
 4295TIP3    H112826   7.479   0.216   2.658
 4295TIP3    H212827   7.489   0.094   2.747
 4296TIP3   OH212828   4.177   1.295   0.207
 4296TIP3    H112829   4.094   1.250   0.191
 4296TIP3    H212830   4.223   1.292   0.123
 4297TIP3   OH212831   4.884   2.344   5.416
 4297TIP3    H112832   4.894   2.417   5.477
 4297TIP3    H212833   4.878   2.386   5.330
 4298TIP3   OH212834   5.212   5.771   1.921
 4298TIP3    H112835   5.262   5.722   1.856
 4298TIP3    H212836   5.220   5.862   1.893
 4299TIP3   OH212837   3.362   2.348   3.793
 4299TIP3    H112838   3.288   2.324   3.736
 4299TIP3    H212839   3.440   2.324   3.742
 4300TIP3   OH212840   4.066   4.020   3.922
 4300TIP3    H112841   4.066   4.066   4.006
 4300TIP3    H212842   4.127   3.948   3.934
 4301TIP3   OH212843   1.714   1.619   0.375
 4301TIP3    H112844   1.649   1.555   0.345
 4301TIP3    H212845   1.668   1.673   0.439
 4302TIP3   OH212846   3.154   4.008   6.008
 4302TIP3    H112847   3.169   3.971   6.095
 4302TIP3    H212848   3.231   4.062   5.992
 4303TIP3   OH212849   1.098   2.559   1.605
 4303TIP3    H112850   1.119   2.652   1.596
 4303TIP3    H212851   1.098   2.544   1.699
 4304TIP3   OH212852   5.694   3.211   3.989
 4304TIP3    H112853   5.754   3.263   3.936
 4304TIP3    H212854   5.740   3.128   4.002
 4305TIP3   OH212855   7.924   1.351   0.724
 4305TIP3    H112856   7.834   1.326   0.745
 4305TIP3    H212857   7.957   1.389   0.806
 4306TIP3   OH212858   5.618   6.982   6.412
 4306TIP3    H112859   5.601   6.912   6.348
 4306TIP3    H212860   5.558   6.963   6.484
 4307TIP3   OH212861   3.351   1.782   1.668
 4307TIP3    H112862   3.353   1.829   1.585
 4307TIP3    H212863   3.403   1.836   1.728
 4308TIP3   OH212864   0.580   1.418   1.631
 4308TIP3    H112865   0.511   1.443   1.570
 4308TIP3    H212866   0.630   1.498   1.645
 4309TIP3   OH212867   3.192   4.759   2.365
 4309TIP3    H112868   3.246   4.718   2.433
 4309TIP3    H212869   3.112   4.785   2.411
 4310TIP3   OH212870   8.108   5.803   3.515
 4310TIP3    H112871   8.095   5.713   3.545
 4310TIP3    H212872   8.021   5.830   3.485
 4311TIP3   OH212873   8.162   1.962   1.367
 4311TIP3    H112874   8.215   2.022   1.317
 4311TIP3    H212875   8.091   2.016   1.403
 4312TIP3   OH212876   6.966   5.241   5.796
 4312TIP3    H112877   6.902   5.172   5.814
 4312TIP3    H212878   6.929   5.290   5.723
 4313TIP3   OH212879   6.104   4.618   1.841
 4313TIP3    H112880   6.050   4.692   1.815
 4313TIP3    H212881   6.101   4.559   1.766
 4314TIP3   OH212882   8.219   7.613   6.867
 4314TIP3    H112883   8.290   7.594   6.805
 4314TIP3    H212884   8.164   7.676   6.821
 4315TIP3   OH212885   6.498   3.925   0.926
 4315TIP3    H112886   6.545   4.001   0.892
 4315TIP3    H212887   6.503   3.934   1.021
 4316TIP3   OH212888   2.760   2.244   0.749
 4316TIP3    H112889   2.828   2.283   0.694
 4316TIP3    H212890   2.747   2.156   0.714
 4317TIP3   OH212891   0.137   7.814   4.275
 4317TIP3    H112892   0.232   7.824   4.268
 4317TIP3    H212893   0.106   7.898   4.310
 4318TIP3   OH212894   3.060   5.281   6.706
 4318TIP3    H112895   3.004   5.322   6.773
 4318TIP3    H212896   3.006   5.281   6.627
 4319TIP3   OH212897   4.331   6.444   0.657
 4319TIP3    H112898   4.423   6.470   0.658
 4319TIP3    H212899   4.286   6.517   0.615
 4320TIP3   OH212900   0.035   2.118   2.628
 4320TIP3    H112901  -0.032   2.120   2.696
 4320TIP3    H212902   0.113   2.154   2.671
 4321TIP3   OH212903   1.077   6.944   6.741
 4321TIP3    H112904   1.050   6.932   6.832
 4321TIP3    H212905   1.158   6.995   6.747
 4322TIP3   OH212906   5.856   1.058   6.384
 4322TIP3    H112907   5.822   1.048   6.295
 4322TIP3    H212908   5.830   0.977   6.429
 4323TIP3   OH212909   2.314   1.194   5.681
 4323TIP3    H112910   2.367   1.211   5.758
 4323TIP3    H212911   2.377   1.179   5.610
 4324TIP3   OH212912   3.649   4.078   3.446
 4324TIP3    H112913   3.706   4.063   3.371
 4324TIP3    H212914   3.587   4.006   3.445
 4325TIP3   OH212915   3.692   2.772   3.145
 4325TIP3    H112916   3.747   2.826   3.202
 4325TIP3    H212917   3.739   2.770   3.062
 4326TIP3   OH212918   3.471   3.885   3.386
 4326TIP3    H112919   3.387   3.885   3.431
 4326TIP3    H212920   3.449   3.892   3.293
 4327TIP3   OH212921   4.836   0.015   2.717
 4327TIP3    H112922   4.749   0.003   2.678
 4327TIP3    H212923   4.887   0.058   2.648
 4328TIP3   OH212924   7.759   7.435   0.609
 4328TIP3    H112925   7.725   7.435   0.519
 4328TIP3    H212926   7.830   7.499   0.608
 4329TIP3   OH212927   6.024   2.610   6.659
 4329TIP3    H112928   6.044   2.571   6.743
 4329TIP3    H212929   6.002   2.701   6.679
 4330TIP3   OH212930   4.310   4.000   1.040
 4330TIP3    H112931   4.402   4.009   1.067
 4330TIP3    H212932   4.265   4.073   1.082
 4331TIP3   OH212933   0.838   5.274   4.497
 4331TIP3    H112934   0.831   5.349   4.556
 4331TIP3    H212935   0.922   5.287   4.452
 4332TIP3   OH212936   7.756   2.135   6.137
 4332TIP3    H112937   7.690   2.180   6.086
 4332TIP3    H212938   7.750   2.173   6.224
 4333TIP3   OH212939   7.205   0.840   0.746
 4333TIP3    H112940   7.235   0.832   0.836
 4333TIP3    H212941   7.109   0.838   0.753
 4334TIP3   OH212942   2.141   3.278   4.991
 4334TIP3    H112943   2.209   3.304   5.053
 4334TIP3    H212944   2.188   3.239   4.918
 4335TIP3   OH212945   2.648   1.452   5.698
 4335TIP3    H112946   2.615   1.447   5.787
 4335TIP3    H212947   2.742   1.468   5.707
 4336TIP3   OH212948   7.994   1.218   4.662
 4336TIP3    H112949   7.926   1.192   4.600
 4336TIP3    H212950   7.952   1.286   4.715
 4337TIP3   OH212951   2.828   7.644   2.130
 4337TIP3    H112952   2.904   7.700   2.114
 4337TIP3    H212953   2.796   7.673   2.216
 4338TIP3   OH212954   5.832   0.371   5.265
 4338TIP3    H112955   5.742   0.392   5.291
 4338TIP3    H212956   5.823   0.317   5.187
 4339TIP3   OH212957   5.747   0.796   1.829
 4339TIP3    H112958   5.746   0.868   1.767
 4339TIP3    H212959   5.835   0.797   1.866
 4340TIP3   OH212960   1.519   0.264   5.148
 4340TIP3    H112961   1.490   0.349   5.182
 4340TIP3    H212962   1.568   0.285   5.069
 4341TIP3   OH212963   2.815   7.486   5.474
 4341TIP3    H112964   2.823   7.566   5.423
 4341TIP3    H212965   2.741   7.502   5.533
 4342TIP3   OH212966   1.996   2.876   3.145
 4342TIP3    H112967   2.025   2.825   3.069
 4342TIP3    H212968   2.077   2.904   3.186
 4343TIP3   OH212969   6.125   1.615   1.088
 4343TIP3    H112970   6.219   1.608   1.104
 4343TIP3    H212971   6.093   1.674   1.157
 4344TIP3   OH212972   3.568   6.398   3.130
 4344TIP3    H112973   3.488   6.450   3.122
 4344TIP3    H212974   3.628   6.437   3.066
 4345TIP3   OH212975   5.675   6.216   1.332
 4345TIP3    H112976   5.697   6.289   1.390
 4345TIP3    H212977   5.716   6.238   1.248
 4346TIP3   OH212978   6.701   1.508   4.364
 4346TIP3    H112979   6.638   1.549   4.423
 4346TIP3    H212980   6.732   1.431   4.412
 4347TIP3   OH212981   3.554   2.307   0.420
 4347TIP3    H112982   3.461   2.288   0.434
 4347TIP3    H212983   3.593   2.299   0.507
 4348TIP3   OH212984   6.910   6.918   0.216
 4348TIP3    H112985   6.895   6.985   0.149
 4348TIP3    H212986   7.005   6.916   0.226
 4349TIP3   OH212987   0.089   0.454   3.656
 4349TIP3    H112988   0.032   0.530   3.666
 4349TIP3    H212989   0.037   0.381   3.688
 4350TIP3   OH212990   5.045   4.075   4.552
 4350TIP3    H112991   5.047   4.050   4.460
 4350TIP3    H212992   4.973   4.024   4.589
 4351TIP3   OH212993   2.285   5.131   1.416
 4351TIP3    H112994   2.357   5.071   1.438
 4351TIP3    H212995   2.315   5.178   1.338
 4352TIP3   OH212996   1.738   2.947   2.220
 4352TIP3    H112997   1.766   3.031   2.183
 4352TIP3    H212998   1.662   2.922   2.168
 4353TIP3   OH212999   6.501   7.678   3.830
 4353TIP3    H113000   6.478   7.746   3.893
 4353TIP3    H213001   6.579   7.712   3.786
 4354TIP3   OH213002   5.064   6.954   5.855
 4354TIP3    H113003   5.082   7.035   5.808
 4354TIP3    H213004   5.127   6.953   5.927
 4355TIP3   OH213005   1.767   0.900   1.923
 4355TIP3    H113006   1.771   0.870   2.014
 4355TIP3    H213007   1.712   0.834   1.879
 4356TIP3   OH213008   1.143   6.088   0.687
 4356TIP3    H113009   1.175   6.132   0.608
 4356TIP3    H213010   1.136   6.157   0.752
 4357TIP3   OH213011   0.348   1.959   1.850
 4357TIP3    H113012   0.326   1.910   1.929
 4357TIP3    H213013   0.273   2.017   1.836
 4358TIP3   OH213014   2.590   3.461   2.425
 4358TIP3    H113015   2.558   3.371   2.421
 4358TIP3    H213016   2.574   3.496   2.338
 4359TIP3   OH213017   4.802   6.940   4.048
 4359TIP3    H113018   4.804   6.875   3.978
 4359TIP3    H213019   4.895   6.962   4.062
 4360TIP3   OH213020   4.843   5.129   5.501
 4360TIP3    H113021   4.900   5.081   5.561
 4360TIP3    H213022   4.879   5.218   5.501
 4361TIP3   OH213023   5.082   7.886   5.793
 4361TIP3    H113024   5.004   7.875   5.847
 4361TIP3    H213025   5.079   7.977   5.764
 4362TIP3   OH213026   5.973   1.445   3.621
 4362TIP3    H113027   5.991   1.355   3.648
 4362TIP3    H213028   6.056   1.491   3.638
 4363TIP3   OH213029   1.549   2.364   3.743
 4363TIP3    H113030   1.542   2.434   3.807
 4363TIP3    H213031   1.525   2.284   3.791
 4364TIP3   OH213032   3.943   2.280   3.325
 4364TIP3    H113033   3.970   2.191   3.301
 4364TIP3    H213034   4.011   2.311   3.385
 4365TIP3   OH213035   5.691   1.076   6.809
 4365TIP3    H113036   5.691   1.069   6.713
 4365TIP3    H213037   5.694   1.170   6.826
 4366TIP3   OH213038   5.673   4.120   4.874
 4366TIP3    H113039   5.616   4.197   4.863
 4366TIP3    H213040   5.760   4.151   4.850
 4367TIP3   OH213041   1.367   5.964   2.357
 4367TIP3    H113042   1.392   6.048   2.394
 4367TIP3    H213043   1.447   5.929   2.320
 4368TIP3   OH213044   5.690   0.834   2.552
 4368TIP3    H113045   5.680   0.929   2.558
 4368TIP3    H213046   5.780   0.818   2.582
 4369TIP3   OH213047   7.029   4.164   5.998
 4369TIP3    H113048   7.096   4.158   6.067
 4369TIP3    H213049   7.074   4.207   5.925
 4370TIP3   OH213050   2.813   4.520   0.011
 4370TIP3    H113051   2.902   4.547   0.032
 4370TIP3    H213052   2.815   4.424   0.012
 4371TIP3   OH213053   5.992   2.130   1.723
 4371TIP3    H113054   5.974   2.128   1.818
 4371TIP3    H213055   5.972   2.042   1.693
 4372TIP3   OH213056   3.157   2.126   0.726
 4372TIP3    H113057   3.089   2.165   0.671
 4372TIP3    H213058   3.117   2.119   0.813
 4373TIP3   OH213059   1.686   2.031   1.317
 4373TIP3    H113060   1.606   2.081   1.334
 4373TIP3    H213061   1.707   1.991   1.402
 4374TIP3   OH213062   5.834   4.340   1.701
 4374TIP3    H113063   5.838   4.375   1.790
 4374TIP3    H213064   5.741   4.345   1.678
 4375TIP3   OH213065   8.086   2.069   6.660
 4375TIP3    H113066   8.048   2.023   6.735
 4375TIP3    H213067   8.038   2.152   6.657
 4376TIP3   OH213068   2.802   2.300   5.026
 4376TIP3    H113069   2.776   2.210   5.045
 4376TIP3    H213070   2.862   2.293   4.952
 4377TIP3   OH213071   1.019   4.609   1.887
 4377TIP3    H113072   1.020   4.621   1.792
 4377TIP3    H213073   1.020   4.698   1.923
 4378TIP3   OH213074   2.727   5.606   5.128
 4378TIP3    H113075   2.640   5.619   5.091
 4378TIP3    H213076   2.778   5.566   5.057
 4379TIP3   OH213077   2.010   4.183   5.957
 4379TIP3    H113078   1.983   4.114   5.898
 4379TIP3    H213079   1.930   4.211   6.001
 4380TIP3   OH213080   4.848   6.560   2.903
 4380TIP3    H113081   4.818   6.564   2.812
 4380TIP3    H213082   4.770   6.582   2.954
 4381TIP3   OH213083   4.199   3.909   5.038
 4381TIP3    H113084   4.184   3.973   5.107
 4381TIP3    H213085   4.233   3.832   5.084
 4382TIP3   OH213086   3.549   2.234   2.440
 4382TIP3    H113087   3.569   2.320   2.402
 4382TIP3    H213088   3.494   2.254   2.516
 4383TIP3   OH213089   2.892   2.222   2.702
 4383TIP3    H113090   2.890   2.161   2.776
 4383TIP3    H213091   2.882   2.309   2.741
 4384TIP3   OH213092   4.912   1.474   4.740
 4384TIP3    H113093   4.965   1.537   4.691
 4384TIP3    H213094   4.968   1.448   4.813
 4385TIP3   OH213095   7.203   6.613   4.792
 4385TIP3    H113096   7.244   6.659   4.866
 4385TIP3    H213097   7.231   6.663   4.715
 4386TIP3   OH213098   4.445   3.274   4.497
 4386TIP3    H113099   4.436   3.275   4.592
 4386TIP3    H213100   4.479   3.187   4.477
 4387TIP3   OH213101   1.370   2.158   1.162
 4387TIP3    H113102   1.421   2.159   1.242
 4387TIP3    H213103   1.434   2.168   1.092
 4388TIP3   OH213104   3.258   0.769   1.742
 4388TIP3    H113105   3.270   0.859   1.709
 4388TIP3    H213106   3.346   0.742   1.769
 4389TIP3   OH213107   5.756   5.080   6.596
 4389TIP3    H113108   5.821   5.011   6.586
 4389TIP3    H213109   5.757   5.127   6.513
 4390TIP3   OH213110   7.195   6.511   5.961
 4390TIP3    H113111   7.206   6.588   5.906
 4390TIP3    H213112   7.130   6.458   5.915
 4391TIP3   OH213113   0.602   3.067   6.073
 4391TIP3    H113114   0.583   3.101   6.160
 4391TIP3    H213115   0.539   2.997   6.060
 4392TIP3   OH213116   0.755   2.099   2.239
 4392TIP3    H113117   0.676   2.151   2.257
 4392TIP3    H213118   0.782   2.066   2.325
 4393TIP3   OH213119   4.960   5.895   0.659
 4393TIP3    H113120   4.873   5.882   0.697
 4393TIP3    H213121   5.019   5.846   0.716
 4394TIP3   OH213122   2.282   7.760   6.803
 4394TIP3    H113123   2.260   7.701   6.876
 4394TIP3    H213124   2.293   7.702   6.728
 4395TIP3   OH213125   0.042   5.212   6.554
 4395TIP3    H113126   0.001   5.294   6.528
 4395TIP3    H213127   0.127   5.212   6.509
 4396TIP3   OH213128   3.177   7.775   3.200
 4396TIP3    H113129   3.143   7.700   3.249
 4396TIP3    H213130   3.271   7.759   3.193
 4397TIP3   OH213131   6.268   4.357   6.487
 4397TIP3    H113132   6.335   4.296   6.517
 4397TIP3    H213133   6.312   4.442   6.485
 4398TIP3   OH213134   0.133   1.820   6.444
 4398TIP3    H113135   0.063   1.839   6.506
 4398TIP3    H213136   0.107   1.737   6.403
 4399TIP3   OH213137   2.615   1.355   0.500
 4399TIP3    H113138   2.540   1.398   0.459
 4399TIP3    H213139   2.618   1.392   0.588
 4400TIP3   OH213140   4.587   7.253   4.584
 4400TIP3    H113141   4.663   7.293   4.542
 4400TIP3    H213142   4.581   7.297   4.669
 4401TIP3   OH213143   3.566   4.533   2.101
 4401TIP3    H113144   3.529   4.594   2.164
 4401TIP3    H213145   3.533   4.447   2.128
 4402TIP3   OH213146   3.509   5.385   1.196
 4402TIP3    H113147   3.432   5.442   1.193
 4402TIP3    H213148   3.507   5.338   1.113
 4403TIP3   OH213149   2.241   7.592   4.301
 4403TIP3    H113150   2.159   7.634   4.275
 4403TIP3    H213151   2.218   7.543   4.380
 4404TIP3   OH213152   6.147   3.090   3.706
 4404TIP3    H113153   6.166   3.174   3.749
 4404TIP3    H213154   6.225   3.037   3.720
 4405TIP3   OH213155   6.030   3.757   2.182
 4405TIP3    H113156   5.969   3.688   2.156
 4405TIP3    H213157   6.113   3.711   2.195
 4406TIP3   OH213158   5.001   1.050   2.225
 4406TIP3    H113159   4.947   1.019   2.298
 4406TIP3    H213160   5.006   0.975   2.166
 4407TIP3   OH213161   8.062   5.532   3.498
 4407TIP3    H113162   8.070   5.555   3.405
 4407TIP3    H213163   8.112   5.451   3.507
 4408TIP3   OH213164   7.274   0.590   4.334
 4408TIP3    H113165   7.353   0.642   4.349
 4408TIP3    H213166   7.220   0.645   4.278
 4409TIP3   OH213167   0.322   3.862   1.669
 4409TIP3    H113168   0.391   3.926   1.652
 4409TIP3    H213169   0.266   3.904   1.734
 4410TIP3   OH213170   7.554   4.434   4.394
 4410TIP3    H113171   7.531   4.431   4.487
 4410TIP3    H213172   7.529   4.348   4.360
 4411TIP3   OH213173   2.085   5.343   0.263
 4411TIP3    H113174   2.064   5.318   0.174
 4411TIP3    H213175   2.180   5.359   0.262
 4412TIP3   OH213176   2.001   4.851   4.092
 4412TIP3    H113177   1.973   4.901   4.168
 4412TIP3    H213178   2.063   4.786   4.127
 4413TIP3   OH213179   6.402   7.728   1.416
 4413TIP3    H113180   6.424   7.816   1.386
 4413TIP3    H213181   6.347   7.742   1.494
 4414TIP3   OH213182   3.982   6.424   4.483
 4414TIP3    H113183   3.982   6.519   4.496
 4414TIP3    H213184   3.945   6.411   4.396
 4415TIP3   OH213185   0.857   1.823   3.000
 4415TIP3    H113186   0.944   1.811   2.961
 4415TIP3    H213187   0.828   1.734   3.021
 4416TIP3   OH213188   7.819   5.410   3.383
 4416TIP3    H113189   7.834   5.315   3.386
 4416TIP3    H213190   7.894   5.446   3.430
 4417TIP3   OH213191   2.907   6.847   3.599
 4417TIP3    H113192   2.987   6.875   3.643
 4417TIP3    H213193   2.930   6.847   3.505
 4418TIP3   OH213194   5.878   7.796   6.621
 4418TIP3    H113195   5.826   7.743   6.561
 4418TIP3    H213196   5.814   7.855   6.662
 4419TIP3   OH213197   7.073   7.598   0.423
 4419TIP3    H113198   7.062   7.512   0.464
 4419TIP3    H213199   6.994   7.610   0.372
 4420TIP3   OH213200   0.035   7.400   1.594
 4420TIP3    H113201   0.027   7.416   1.688
 4420TIP3    H213202   0.081   7.317   1.587
 4421TIP3   OH213203   3.139   0.830   6.388
 4421TIP3    H113204   3.231   0.841   6.411
 4421TIP3    H213205   3.118   0.907   6.334
 4422TIP3   OH213206   8.398   4.959   6.678
 4422TIP3    H113207   8.445   5.036   6.645
 4422TIP3    H213208   8.308   4.971   6.648
 4423TIP3   OH213209   5.181   1.896   3.284
 4423TIP3    H113210   5.249   1.904   3.351
 4423TIP3    H213211   5.174   1.801   3.269
 4424TIP3   OH213212   5.804   2.981   2.064
 4424TIP3    H113213   5.852   3.036   2.126
 4424TIP3    H213214   5.872   2.932   2.017
 4425TIP3   OH213215   6.964   5.695   2.744
 4425TIP3    H113216   6.989   5.642   2.820
 4425TIP3    H213217   7.021   5.665   2.673
 4426TIP3   OH213218   4.977   4.500   4.443
 4426TIP3    H113219   4.927   4.423   4.416
 4426TIP3    H213220   4.924   4.574   4.416
 4427TIP3   OH213221   0.087   0.963   0.019
 4427TIP3    H113222   0.105   0.940   0.110
 4427TIP3    H213223   0.119   0.888  -0.032
 4428TIP3   OH213224   2.953   3.833   4.355
 4428TIP3    H113225   2.948   3.753   4.406
 4428TIP3    H213226   3.035   3.875   4.384
 4429TIP3   OH213227   3.972   0.396   1.228
 4429TIP3    H113228   3.933   0.415   1.143
 4429TIP3    H213229   4.060   0.434   1.224
 4430TIP3   OH213230   0.026   7.504   6.392
 4430TIP3    H113231   0.099   7.467   6.442
 4430TIP3    H213232   0.068   7.552   6.321
 4431TIP3   OH213233   5.246   0.402   2.762
 4431TIP3    H113234   5.202   0.317   2.760
 4431TIP3    H213235   5.175   0.466   2.754
 4432TIP3   OH213236   1.002   4.767   6.618
 4432TIP3    H113237   1.052   4.692   6.648
 4432TIP3    H213238   1.037   4.786   6.531
 4433TIP3   OH213239   1.286   6.551   2.096
 4433TIP3    H113240   1.359   6.491   2.110
 4433TIP3    H213241   1.212   6.495   2.073
 4434TIP3   OH213242   1.196   6.607   2.437
 4434TIP3    H113243   1.208   6.570   2.524
 4434TIP3    H213244   1.156   6.537   2.386
 4435TIP3   OH213245   5.606   7.762   1.114
 4435TIP3    H113246   5.625   7.846   1.155
 4435TIP3    H213247   5.530   7.729   1.161
 4436TIP3   OH213248   2.778   5.392   4.098
 4436TIP3    H113249   2.792   5.367   4.007
 4436TIP3    H213250   2.752   5.311   4.142
 4437TIP3   OH213251   3.344   0.850   4.754
 4437TIP3    H113252   3.305   0.905   4.822
 4437TIP3    H213253   3.332   0.899   4.673
 4438TIP3   OH213254   7.405   6.289   3.228
 4438TIP3    H113255   7.363   6.374   3.219
 4438TIP3    H213256   7.333   6.226   3.218
 4439TIP3   OH213257   3.646   2.549   4.553
 4439TIP3    H113258   3.663   2.618   4.617
 4439TIP3    H213259   3.613   2.476   4.606
 4440TIP3   OH213260   0.949   2.858   5.726
 4440TIP3    H113261   0.926   2.870   5.819
 4440TIP3    H213262   0.865   2.852   5.681
 4441TIP3   OH213263   5.438   0.628   5.448
 4441TIP3    H113264   5.487   0.661   5.373
 4441TIP3    H213265   5.454   0.534   5.448
 4442TIP3   OH213266   1.164   2.589   4.171
 4442TIP3    H113267   1.092   2.579   4.108
 4442TIP3    H213268   1.138   2.664   4.225
 4443TIP3   OH213269   1.580   7.607   4.645
 4443TIP3    H113270   1.500   7.562   4.614
 4443TIP3    H213271   1.631   7.622   4.565
 4444TIP3   OH213272   1.047   2.104   0.490
 4444TIP3    H113273   1.097   2.170   0.539
 4444TIP3    H213274   0.955   2.131   0.501
 4445TIP3   OH213275   3.356   5.426   4.194
 4445TIP3    H113276   3.306   5.383   4.264
 4445TIP3    H213277   3.360   5.360   4.124
 4446TIP3   OH213278   5.895   0.908   4.992
 4446TIP3    H113279   5.811   0.868   4.971
 4446TIP3    H213280   5.908   0.889   5.085
 4447TIP3   OH213281   4.551   7.192   3.916
 4447TIP3    H113282   4.597   7.175   3.834
 4447TIP3    H213283   4.564   7.285   3.932
 4448TIP3   OH213284   1.553   1.092   5.190
 4448TIP3    H113285   1.509   1.177   5.190
 4448TIP3    H213286   1.645   1.113   5.171
 4449TIP3   OH213287   5.038   5.127   0.773
 4449TIP3    H113288   5.012   5.046   0.730
 4449TIP3    H213289   5.133   5.128   0.768
 4450TIP3   OH213290   4.738   5.050   3.594
 4450TIP3    H113291   4.648   5.019   3.591
 4450TIP3    H213292   4.777   5.020   3.512
 4451TIP3   OH213293   5.410   6.705   3.529
 4451TIP3    H113294   5.449   6.624   3.497
 4451TIP3    H213295   5.467   6.733   3.600
 4452TIP3   OH213296   5.636   6.153   4.358
 4452TIP3    H113297   5.586   6.103   4.422
 4452TIP3    H213298   5.670   6.087   4.297
 4453TIP3   OH213299   6.482   4.423   0.274
 4453TIP3    H113300   6.526   4.477   0.339
 4453TIP3    H213301   6.551   4.403   0.210
 4454TIP3   OH213302   3.424   4.330   1.696
 4454TIP3    H113303   3.412   4.355   1.604
 4454TIP3    H213304   3.485   4.396   1.730
 4455TIP3   OH213305   4.383   2.341   1.592
 4455TIP3    H113306   4.328   2.281   1.541
 4455TIP3    H213307   4.349   2.335   1.681
 4456TIP3   OH213308   0.893   0.849   3.183
 4456TIP3    H113309   0.957   0.778   3.178
 4456TIP3    H213310   0.929   0.917   3.126
 4457TIP3   OH213311   7.906   7.102   0.438
 4457TIP3    H113312   7.969   7.161   0.397
 4457TIP3    H213313   7.895   7.135   0.527
 4458TIP3   OH213314   2.515   3.857   0.449
 4458TIP3    H113315   2.543   3.796   0.380
 4458TIP3    H213316   2.582   3.925   0.449
 4459TIP3   OH213317   6.264   0.720   5.145
 4459TIP3    H113318   6.280   0.668   5.224
 4459TIP3    H213319   6.169   0.735   5.145
 4460TIP3   OH213320   4.128  -0.007   5.299
 4460TIP3    H113321   4.063   0.059   5.273
 4460TIP3    H213322   4.200   0.004   5.236
 4461TIP3   OH213323   3.211   5.452   3.067
 4461TIP3    H113324   3.235   5.441   2.975
 4461TIP3    H213325   3.293   5.475   3.111
 4462TIP3   OH213326   1.320   3.400   4.727
 4462TIP3    H113327   1.254   3.467   4.710
 4462TIP3    H213328   1.271   3.320   4.745
 4463TIP3   OH213329   0.698   7.875   0.565
 4463TIP3    H113330   0.727   7.920   0.485
 4463TIP3    H213331   0.695   7.943   0.631
 4464TIP3   OH213332   8.003   7.244   2.556
 4464TIP3    H113333   7.969   7.172   2.503
 4464TIP3    H213334   7.961   7.322   2.520
 4465TIP3   OH213335   7.292   5.087   2.594
 4465TIP3    H113336   7.275   5.033   2.672
 4465TIP3    H213337   7.222   5.153   2.595
 4466TIP3   OH213338   4.245   7.308   1.823
 4466TIP3    H113339   4.237   7.232   1.880
 4466TIP3    H213340   4.190   7.288   1.748
 4467TIP3   OH213341   4.408   2.682   1.799
 4467TIP3    H113342   4.405   2.598   1.845
 4467TIP3    H213343   4.451   2.741   1.860
 4468TIP3   OH213344   6.746   7.755   2.277
 4468TIP3    H113345   6.738   7.796   2.190
 4468TIP3    H213346   6.667   7.702   2.285
 4469TIP3   OH213347   7.467   0.114   4.718
 4469TIP3    H113348   7.550   0.083   4.753
 4469TIP3    H213349   7.476   0.103   4.623
 4470TIP3   OH213350   2.564   0.564   0.797
 4470TIP3    H113351   2.479   0.520   0.794
 4470TIP3    H213352   2.557   0.626   0.868
 4471TIP3   OH213353   7.459   6.151   3.651
 4471TIP3    H113354   7.457   6.238   3.691
 4471TIP3    H213355   7.483   6.168   3.559
 4472TIP3   OH213356   2.664   6.317   0.718
 4472TIP3    H113357   2.718   6.334   0.795
 4472TIP3    H213358   2.615   6.238   0.740
 4473TIP3   OH213359   3.012   0.057   2.308
 4473TIP3    H113360   3.031   0.053   2.402
 4473TIP3    H213361   3.098   0.061   2.267
 4474TIP3   OH213362   0.272   2.761   2.275
 4474TIP3    H113363   0.250   2.849   2.246
 4474TIP3    H213364   0.280   2.711   2.193
 4475TIP3   OH213365   8.391   1.768   4.434
 4475TIP3    H113366   8.325   1.723   4.381
 4475TIP3    H213367   8.394   1.856   4.397
 4476TIP3   OH213368   2.000   1.982   4.377
 4476TIP3    H113369   2.083   1.944   4.404
 4476TIP3    H213370   1.981   1.942   4.292
 4477TIP3   OH213371   7.234   0.644   1.098
 4477TIP3    H113372   7.182   0.725   1.103
 4477TIP3    H213373   7.187   0.582   1.154
 4478TIP3   OH213374   2.588   1.776   0.756
 4478TIP3    H113375   2.553   1.861   0.731
 4478TIP3    H213376   2.520   1.738   0.812
 4479TIP3   OH213377   2.351   5.363   0.286
 4479TIP3    H113378   2.419   5.295   0.293
 4479TIP3    H213379   2.391   5.441   0.325
 4480TIP3   OH213380   2.075   1.000   1.099
 4480TIP3    H113381   2.170   1.006   1.087
 4480TIP3    H213382   2.041   1.083   1.066
 4481TIP3   OH213383   2.277   5.377   4.787
 4481TIP3    H113384   2.347   5.404   4.847
 4481TIP3    H213385   2.321   5.324   4.721
 4482TIP3   OH213386   8.155   5.895   4.710
 4482TIP3    H113387   8.201   5.823   4.667
 4482TIP3    H213388   8.064   5.887   4.680
 4483TIP3   OH213389   5.025   4.955   3.148
 4483TIP3    H113390   5.101   4.995   3.190
 4483TIP3    H213391   5.004   5.012   3.075
 4484TIP3   OH213392   2.864   2.645   4.746
 4484TIP3    H113393   2.861   2.573   4.683
 4484TIP3    H213394   2.951   2.639   4.785
 4485TIP3   OH213395   0.415   7.608   5.443
 4485TIP3    H113396   0.488   7.579   5.497
 4485TIP3    H213397   0.396   7.697   5.474
 4486TIP3   OH213398   4.107   6.354   1.308
 4486TIP3    H113399   4.088   6.439   1.268
 4486TIP3    H213400   4.056   6.353   1.389
 4487TIP3   OH213401   7.971   1.261   5.608
 4487TIP3    H113402   7.884   1.232   5.637
 4487TIP3    H213403   8.000   1.320   5.677
 4488TIP3   OH213404   5.069   7.665   3.336
 4488TIP3    H113405   5.082   7.760   3.336
 4488TIP3    H213406   4.981   7.653   3.301
 4489TIP3   OH213407   4.946   0.280   3.026
 4489TIP3    H113408   4.909   0.278   2.938
 4489TIP3    H213409   5.041   0.272   3.013
 4490TIP3   OH213410   4.545   5.551   3.504
 4490TIP3    H113411   4.533   5.552   3.409
 4490TIP3    H213412   4.477   5.609   3.538
 4491TIP3   OH213413   5.757   7.335   6.035
 4491TIP3    H113414   5.814   7.399   6.077
 4491TIP3    H213415   5.798   7.250   6.053
 4492TIP3   OH213416   7.195   4.002   5.447
 4492TIP3    H113417   7.129   3.966   5.507
 4492TIP3    H213418   7.247   3.927   5.420
 4493TIP3   OH213419   5.708   1.456   3.734
 4493TIP3    H113420   5.803   1.459   3.716
 4493TIP3    H213421   5.702   1.463   3.829
 4494TIP3   OH213422   4.823   4.856   6.453
 4494TIP3    H113423   4.845   4.811   6.534
 4494TIP3    H213424   4.863   4.803   6.384
 4495TIP3   OH213425   8.358   3.551   3.725
 4495TIP3    H113426   8.306   3.511   3.655
 4495TIP3    H213427   8.438   3.498   3.729
 4496TIP3   OH213428   4.190   1.640   5.818
 4496TIP3    H113429   4.242   1.659   5.739
 4496TIP3    H213430   4.254   1.620   5.885
 4497TIP3   OH213431   1.125   4.559   3.071
 4497TIP3    H113432   1.039   4.537   3.108
 4497TIP3    H213433   1.151   4.639   3.116
 4498TIP3   OH213434   2.815   1.918   5.215
 4498TIP3    H113435   2.854   1.840   5.256
 4498TIP3    H213436   2.886   1.982   5.211
 4499TIP3   OH213437   2.967   3.303   0.675
 4499TIP3    H113438   3.009   3.373   0.725
 4499TIP3    H213439   3.035   3.236   0.667
 4500TIP3   OH213440   6.258   4.256   3.322
 4500TIP3    H113441   6.323   4.325   3.331
 4500TIP3    H213442   6.273   4.198   3.396
 4501TIP3   OH213443   8.260   6.365   1.696
 4501TIP3    H113444   8.283   6.455   1.716
 4501TIP3    H213445   8.343   6.318   1.697
 4502TIP3   OH213446   7.061   0.040   0.224
 4502TIP3    H113447   7.037   0.043   0.131
 4502TIP3    H213448   7.044  -0.050   0.250
 4503TIP3   OH213449   3.848   1.696   4.624
 4503TIP3    H113450   3.778   1.707   4.688
 4503TIP3    H213451   3.916   1.757   4.652
 4504TIP3   OH213452   5.297   5.076   5.215
 4504TIP3    H113453   5.250   5.089   5.132
 4504TIP3    H213454   5.235   5.028   5.270
 4505TIP3   OH213455   1.308   0.066   3.411
 4505TIP3    H113456   1.338   0.155   3.424
 4505TIP3    H213457   1.233   0.074   3.352
 4506TIP3   OH213458   0.008   5.466   5.628
 4506TIP3    H113459   0.052   5.401   5.683
 4506TIP3    H213460   0.045   5.550   5.658
 4507TIP3   OH213461   3.635   1.465   1.484
 4507TIP3    H113462   3.587   1.490   1.405
 4507TIP3    H213463   3.580   1.495   1.556
 4508TIP3   OH213464   4.862   2.729   2.258
 4508TIP3    H113465   4.923   2.770   2.319
 4508TIP3    H213466   4.896   2.640   2.246
 4509TIP3   OH213467   6.708   0.267   5.602
 4509TIP3    H113468   6.786   0.223   5.568
 4509TIP3    H213469   6.642   0.198   5.605
 4510TIP3   OH213470   7.971   6.194   1.443
 4510TIP3    H113471   7.954   6.178   1.536
 4510TIP3    H213472   7.992   6.287   1.439
 4511TIP3   OH213473   5.459   3.594   3.721
 4511TIP3    H113474   5.465   3.645   3.802
 4511TIP3    H213475   5.420   3.511   3.747
 4512TIP3   OH213476   0.135   1.737   3.304
 4512TIP3    H113477   0.139   1.727   3.399
 4512TIP3    H213478   0.118   1.649   3.271
 4513TIP3   OH213479   2.295   4.801   4.488
 4513TIP3    H113480   2.373   4.820   4.540
 4513TIP3    H213481   2.225   4.790   4.553
 4514TIP3   OH213482   3.369   7.419   3.113
 4514TIP3    H113483   3.448   7.393   3.066
 4514TIP3    H213484   3.368   7.364   3.191
 4515TIP3   OH213485   8.442   2.044   0.682
 4515TIP3    H113486   8.388   2.123   0.685
 4515TIP3    H213487   8.379   1.972   0.677
 4516TIP3   OH213488   1.551   6.740   1.592
 4516TIP3    H113489   1.487   6.680   1.553
 4516TIP3    H213490   1.631   6.725   1.543
 4517TIP3   OH213491   2.431   7.360   3.538
 4517TIP3    H113492   2.471   7.308   3.607
 4517TIP3    H213493   2.346   7.318   3.522
 4518TIP3   OH213494   3.586   7.129   3.721
 4518TIP3    H113495   3.568   7.179   3.801
 4518TIP3    H213496   3.500   7.118   3.681
 4519TIP3   OH213497   6.460   4.240   2.151
 4519TIP3    H113498   6.527   4.176   2.126
 4519TIP3    H213499   6.440   4.286   2.070
 4520TIP3   OH213500   3.900   5.235   4.225
 4520TIP3    H113501   3.879   5.163   4.285
 4520TIP3    H213502   3.882   5.200   4.138
 4521TIP3   OH213503   4.313   0.235   6.674
 4521TIP3    H113504   4.305   0.328   6.652
 4521TIP3    H213505   4.305   0.190   6.589
 4522TIP3   OH213506   6.405   7.315   5.443
 4522TIP3    H113507   6.325   7.308   5.391
 4522TIP3    H213508   6.468   7.357   5.384
 4523TIP3   OH213509   2.577   2.497   1.638
 4523TIP3    H113510   2.608   2.461   1.554
 4523TIP3    H213511   2.655   2.499   1.693
 4524TIP3   OH213512   5.985   0.792   4.245
 4524TIP3    H113513   5.898   0.754   4.238
 4524TIP3    H213514   5.979   0.851   4.321
 4525TIP3   OH213515   1.025   4.112   4.104
 4525TIP3    H113516   0.963   4.108   4.177
 4525TIP3    H213517   1.105   4.148   4.142
 4526TIP3   OH213518   4.620   2.960   0.935
 4526TIP3    H113519   4.573   2.879   0.957
 4526TIP3    H213520   4.653   2.945   0.846
 4527TIP3   OH213521   5.258   6.662   6.784
 4527TIP3    H113522   5.342   6.687   6.822
 4527TIP3    H213523   5.208   6.743   6.778
 4528TIP3   OH213524   3.146   5.551   5.902
 4528TIP3    H113525   3.150   5.493   5.978
 4528TIP3    H213526   3.093   5.625   5.930
 4529TIP3   OH213527   2.570   1.963   1.615
 4529TIP3    H113528   2.628   1.960   1.539
 4529TIP3    H213529   2.535   1.874   1.623
 4530TIP3   OH213530   5.811   2.387   3.929
 4530TIP3    H113531   5.854   2.321   3.983
 4530TIP3    H213532   5.865   2.393   3.851
 4531TIP3   OH213533   5.738   4.394   5.753
 4531TIP3    H113534   5.700   4.401   5.841
 4531TIP3    H213535   5.722   4.302   5.728
 4532TIP3   OH213536   1.845   5.007   2.032
 4532TIP3    H113537   1.779   5.012   2.101
 4532TIP3    H213538   1.900   4.933   2.056
 4533TIP3   OH213539   5.452   2.162   1.943
 4533TIP3    H113540   5.473   2.088   1.886
 4533TIP3    H213541   5.360   2.181   1.927
 4534TIP3   OH213542   3.343   1.117   1.955
 4534TIP3    H113543   3.399   1.182   1.997
 4534TIP3    H213544   3.352   1.135   1.861
 4535TIP3   OH213545   6.771   4.122   5.035
 4535TIP3    H113546   6.806   4.210   5.026
 4535TIP3    H213547   6.846   4.069   5.062
 4536TIP3   OH213548   4.323   5.356   1.311
 4536TIP3    H113549   4.331   5.265   1.337
 4536TIP3    H213550   4.249   5.358   1.251
 4537TIP3   OH213551   6.381   7.412   4.752
 4537TIP3    H113552   6.356   7.342   4.691
 4537TIP3    H213553   6.420   7.366   4.826
 4538TIP3   OH213554   2.770   5.369   3.603
 4538TIP3    H113555   2.706   5.306   3.571
 4538TIP3    H213556   2.855   5.328   3.583
 4539TIP3   OH213557   6.661   4.808   3.219
 4539TIP3    H113558   6.596   4.858   3.169
 4539TIP3    H213559   6.718   4.770   3.152
 4540TIP3   OH213560   7.197   2.161   6.064
 4540TIP3    H113561   7.210   2.255   6.051
 4540TIP3    H213562   7.171   2.153   6.156
 4541TIP3   OH213563   5.478   5.573   3.960
 4541TIP3    H113564   5.566   5.581   3.996
 4541TIP3    H213565   5.454   5.662   3.935
 4542TIP3   OH213566   0.519   5.828   0.742
 4542TIP3    H113567   0.506   5.896   0.676
 4542TIP3    H213568   0.475   5.751   0.705
 4543TIP3   OH213569   4.954   0.317   1.079
 4543TIP3    H113570   5.011   0.357   1.145
 4543TIP3    H213571   4.900   0.390   1.048
 4544TIP3   OH213572   6.840   6.998   4.563
 4544TIP3    H113573   6.893   6.921   4.545
 4544TIP3    H213574   6.886   7.070   4.519
 4545TIP3   OH213575   6.761   1.161   5.036
 4545TIP3    H113576   6.786   1.202   4.953
 4545TIP3    H213577   6.679   1.116   5.017
 4546TIP3   OH213578   4.550   7.005   6.581
 4546TIP3    H113579   4.541   7.016   6.486
 4546TIP3    H213580   4.556   6.910   6.593
 4547TIP3   OH213581   7.856   2.595   3.829
 4547TIP3    H113582   7.850   2.500   3.827
 4547TIP3    H213583   7.950   2.614   3.820
 4548TIP3   OH213584   5.234   1.537   6.864
 4548TIP3    H113585   5.220   1.446   6.890
 4548TIP3    H213586   5.211   1.539   6.771
 4549TIP3   OH213587   3.414   4.984   1.650
 4549TIP3    H113588   3.370   5.005   1.732
 4549TIP3    H213589   3.482   4.921   1.675
 4550TIP3   OH213590   2.322   7.054   3.775
 4550TIP3    H113591   2.403   7.104   3.761
 4550TIP3    H213592   2.335   6.974   3.723
 4551TIP3   OH213593   7.537   2.339   1.357
 4551TIP3    H113594   7.514   2.299   1.273
 4551TIP3    H213595   7.530   2.434   1.341
 4552TIP3   OH213596   2.597   0.256   1.328
 4552TIP3    H113597   2.525   0.210   1.373
 4552TIP3    H213598   2.554   0.309   1.261
 4553TIP3   OH213599   0.551   2.866   2.609
 4553TIP3    H113600   0.580   2.781   2.574
 4553TIP3    H213601   0.527   2.848   2.699
 4554TIP3   OH213602   6.960   1.594   5.897
 4554TIP3    H113603   6.972   1.611   5.991
 4554TIP3    H213604   7.047   1.611   5.859
 4555TIP3   OH213605   2.890   5.534   4.875
 4555TIP3    H113606   2.919   5.458   4.824
 4555TIP3    H213607   2.970   5.567   4.916
 4556TIP3   OH213608   5.693   7.382   4.656
 4556TIP3    H113609   5.758   7.408   4.591
 4556TIP3    H213610   5.744   7.353   4.731
 4557TIP3   OH213611   7.930   4.938   3.217
 4557TIP3    H113612   7.896   4.871   3.276
 4557TIP3    H213613   7.911   4.904   3.129
 4558TIP3   OH213614   2.822   0.590   0.776
 4558TIP3    H113615   2.727   0.574   0.775
 4558TIP3    H213616   2.861   0.502   0.775
 4559TIP3   OH213617   7.533   5.142   6.129
 4559TIP3    H113618   7.530   5.047   6.118
 4559TIP3    H213619   7.589   5.172   6.058
 4560TIP3   OH213620   4.447   6.915   5.782
 4560TIP3    H113621   4.491   6.901   5.866
 4560TIP3    H213622   4.460   7.008   5.764
 4561TIP3   OH213623   4.958   6.120   5.697
 4561TIP3    H113624   4.890   6.072   5.649
 4561TIP3    H213625   4.954   6.209   5.662
 4562TIP3   OH213626   5.780   7.178   4.401
 4562TIP3    H113627   5.698   7.204   4.358
 4562TIP3    H213628   5.828   7.261   4.413
 4563TIP3   OH213629   0.766   2.024   3.195
 4563TIP3    H113630   0.806   2.111   3.197
 4563TIP3    H213631   0.805   1.982   3.119
 4564TIP3   OH213632   2.351   4.458   4.450
 4564TIP3    H113633   2.355   4.492   4.539
 4564TIP3    H213634   2.433   4.487   4.410
 4565TIP3   OH213635   4.411   3.219   5.896
 4565TIP3    H113636   4.371   3.294   5.939
 4565TIP3    H213637   4.417   3.243   5.804
 4566TIP3   OH213638   0.484   7.593   0.894
 4566TIP3    H113639   0.563   7.638   0.865
 4566TIP3    H213640   0.490   7.592   0.989
 4567TIP3   OH213641   7.701   1.547   1.409
 4567TIP3    H113642   7.651   1.566   1.330
 4567TIP3    H213643   7.648   1.481   1.456
 4568TIP3   OH213644   0.244   7.455   1.152
 4568TIP3    H113645   0.247   7.423   1.242
 4568TIP3    H213646   0.318   7.516   1.146
 4569TIP3   OH213647   5.727   3.511   3.635
 4569TIP3    H113648   5.648   3.518   3.689
 4569TIP3    H213649   5.800   3.516   3.698
 4570TIP3   OH213650   0.093   3.970   6.498
 4570TIP3    H113651   0.011   4.008   6.468
 4570TIP3    H213652   0.141   3.949   6.418
 4571TIP3   OH213653   8.278   2.907   5.768
 4571TIP3    H113654   8.182   2.910   5.769
 4571TIP3    H213655   8.298   2.820   5.733
 4572TIP3   OH213656   7.169   7.191   2.656
 4572TIP3    H113657   7.187   7.168   2.565
 4572TIP3    H213658   7.255   7.205   2.695
 4573TIP3   OH213659   0.672   0.739   6.046
 4573TIP3    H113660   0.757   0.737   6.091
 4573TIP3    H213661   0.693   0.725   5.954
 4574TIP3   OH213662   4.892   3.414   6.436
 4574TIP3    H113663   4.833   3.441   6.507
 4574TIP3    H213664   4.971   3.466   6.450
 4575TIP3   OH213665   1.818   2.144   5.427
 4575TIP3    H113666   1.850   2.235   5.432
 4575TIP3    H213667   1.768   2.141   5.346
 4576TIP3   OH213668   5.056   1.830   3.998
 4576TIP3    H113669   5.013   1.864   3.919
 4576TIP3    H213670   5.042   1.899   4.063
 4577TIP3   OH213671   2.973   5.970   4.637
 4577TIP3    H113672   2.951   5.902   4.573
 4577TIP3    H213673   2.919   6.045   4.611
 4578TIP3   OH213674   3.466   1.359   3.329
 4578TIP3    H113675   3.517   1.370   3.249
 4578TIP3    H213676   3.518   1.404   3.396
 4579TIP3   OH213677   6.925   4.353   5.508
 4579TIP3    H113678   7.014   4.384   5.522
 4579TIP3    H213679   6.887   4.347   5.595
 4580TIP3   OH213680   0.073   7.049   5.148
 4580TIP3    H113681   0.071   7.126   5.090
 4580TIP3    H213682  -0.017   7.016   5.148
 4581TIP3   OH213683   6.816   1.588   2.820
 4581TIP3    H113684   6.828   1.493   2.818
 4581TIP3    H213685   6.872   1.618   2.891
 4582TIP3   OH213686   6.427   3.417   3.117
 4582TIP3    H113687   6.459   3.361   3.047
 4582TIP3    H213688   6.467   3.502   3.100
 4583TIP3   OH213689   0.895   0.700   2.018
 4583TIP3    H113690   0.934   0.646   2.086
 4583TIP3    H213691   0.896   0.645   1.940
 4584TIP3   OH213692   3.063   6.149   6.672
 4584TIP3    H113693   2.999   6.219   6.663
 4584TIP3    H213694   3.147   6.190   6.650
 4585TIP3   OH213695   0.362   3.379   0.862
 4585TIP3    H113696   0.456   3.360   0.853
 4585TIP3    H213697   0.320   3.293   0.851
 4586TIP3   OH213698   1.753   5.164   3.436
 4586TIP3    H113699   1.722   5.251   3.464
 4586TIP3    H213700   1.844   5.161   3.463
 4587TIP3   OH213701   5.881   3.678   0.577
 4587TIP3    H113702   5.969   3.647   0.596
 4587TIP3    H213703   5.836   3.602   0.541
 4588TIP3   OH213704   6.414   6.588   6.422
 4588TIP3    H113705   6.423   6.524   6.352
 4588TIP3    H213706   6.331   6.632   6.405
 4589TIP3   OH213707   3.167   5.089   6.059
 4589TIP3    H113708   3.122   5.063   5.979
 4589TIP3    H213709   3.251   5.124   6.030
 4590TIP3   OH213710   0.623   2.621   5.010
 4590TIP3    H113711   0.531   2.619   5.035
 4590TIP3    H213712   0.666   2.561   5.072
 4591TIP3   OH213713   4.966   3.280   3.086
 4591TIP3    H113714   5.027   3.254   3.155
 4591TIP3    H213715   4.917   3.353   3.124
 4592TIP3   OH213716   6.252   3.690   3.984
 4592TIP3    H113717   6.335   3.646   3.967
 4592TIP3    H213718   6.212   3.699   3.897
 4593TIP3   OH213719   2.701   2.678   1.388
 4593TIP3    H113720   2.657   2.630   1.317
 4593TIP3    H213721   2.633   2.689   1.454
 4594TIP3   OH213722   1.950   0.426   4.984
 4594TIP3    H113723   1.936   0.339   5.020
 4594TIP3    H213724   1.991   0.412   4.899
 4595TIP3   OH213725   3.657   5.386   1.713
 4595TIP3    H113726   3.746   5.418   1.699
 4595TIP3    H213727   3.635   5.342   1.631
 4596TIP3   OH213728   1.094   6.839   3.269
 4596TIP3    H113729   1.048   6.796   3.197
 4596TIP3    H213730   1.066   6.931   3.263
 4597TIP3   OH213731   7.688   7.187   4.736
 4597TIP3    H113732   7.630   7.255   4.702
 4597TIP3    H213733   7.649   7.105   4.705
 4598TIP3   OH213734   0.070   6.258   1.911
 4598TIP3    H113735  -0.018   6.226   1.930
 4598TIP3    H213736   0.118   6.246   1.993
 4599TIP3   OH213737   6.259   0.778   4.869
 4599TIP3    H113738   6.281   0.768   4.961
 4599TIP3    H213739   6.278   0.693   4.829
 4600TIP3   OH213740   2.009   5.949   5.403
 4600TIP3    H113741   2.038   6.039   5.420
 4600TIP3    H213742   2.066   5.894   5.457
 4601TIP3   OH213743   4.287   4.702   5.439
 4601TIP3    H113744   4.246   4.782   5.471
 4601TIP3    H213745   4.313   4.722   5.349
 4602TIP3   OH213746   2.758   1.781   2.346
 4602TIP3    H113747   2.666   1.755   2.353
 4602TIP3    H213748   2.806   1.716   2.397
 4603TIP3   OH213749   2.549   6.914   3.939
 4603TIP3    H113750   2.594   6.840   3.978
 4603TIP3    H213751   2.491   6.947   4.008
 4604TIP3   OH213752   2.955   0.573   2.733
 4604TIP3    H113753   2.941   0.667   2.721
 4604TIP3    H213754   2.872   0.533   2.706
 4605TIP3   OH213755   6.377   1.568   5.385
 4605TIP3    H113756   6.448   1.513   5.418
 4605TIP3    H213757   6.319   1.508   5.338
 4606TIP3   OH213758   1.262   4.516   2.028
 4606TIP3    H113759   1.181   4.544   1.985
 4606TIP3    H213760   1.331   4.532   1.963
 4607TIP3   OH213761   2.813   6.771   5.981
 4607TIP3    H113762   2.736   6.816   6.014
 4607TIP3    H213763   2.881   6.787   6.046
 4608TIP3   OH213764   7.519   1.289   5.155
 4608TIP3    H113765   7.546   1.199   5.136
 4608TIP3    H213766   7.440   1.280   5.208
 4609TIP3   OH213767   4.419   2.386   4.483
 4609TIP3    H113768   4.514   2.382   4.483
 4609TIP3    H213769   4.393   2.321   4.418
 4610TIP3   OH213770   7.306   0.040   0.368
 4610TIP3    H113771   7.221   0.064   0.332
 4610TIP3    H213772   7.347  -0.013   0.301
 4611TIP3   OH213773   0.475   2.150   2.138
 4611TIP3    H113774   0.468   2.244   2.156
 4611TIP3    H213775   0.485   2.145   2.043
 4612TIP3   OH213776   2.086   5.167   1.746
 4612TIP3    H113777   2.009   5.211   1.711
 4612TIP3    H213778   2.101   5.093   1.688
 4613TIP3   OH213779   3.698   2.449   5.450
 4613TIP3    H113780   3.776   2.397   5.469
 4613TIP3    H213781   3.716   2.535   5.489
 4614TIP3   OH213782   4.460   7.707   1.704
 4614TIP3    H113783   4.486   7.771   1.771
 4614TIP3    H213784   4.384   7.663   1.742
 4615TIP3   OH213785   3.352   5.156   0.616
 4615TIP3    H113786   3.341   5.186   0.705
 4615TIP3    H213787   3.403   5.224   0.573
 4616TIP3   OH213788   4.707   2.338   3.250
 4616TIP3    H113789   4.625   2.296   3.274
 4616TIP3    H213790   4.738   2.288   3.174
 4617TIP3   OH213791   4.756   0.930   5.075
 4617TIP3    H113792   4.835   0.883   5.050
 4617TIP3    H213793   4.733   0.893   5.161
 4618TIP3   OH213794   2.256   5.114   3.213
 4618TIP3    H113795   2.211   5.186   3.256
 4618TIP3    H213796   2.195   5.041   3.218
 4619TIP3   OH213797   7.114   2.855   6.732
 4619TIP3    H113798   7.135   2.765   6.754
 4619TIP3    H213799   7.197   2.892   6.701
 4620TIP3   OH213800   7.495   2.933   2.736
 4620TIP3    H113801   7.441   2.973   2.668
 4620TIP3    H213802   7.461   2.967   2.818
 4621TIP3   OH213803   5.904   4.797   0.811
 4621TIP3    H113804   5.971   4.731   0.798
 4621TIP3    H213805   5.943   4.878   0.778
 4622TIP3   OH213806   2.846   7.299   1.931
 4622TIP3    H113807   2.768   7.341   1.968
 4622TIP3    H213808   2.915   7.316   1.994
 4623TIP3   OH213809   2.975   6.675   2.255
 4623TIP3    H113810   2.948   6.766   2.265
 4623TIP3    H213811   2.910   6.625   2.307
 4624TIP3   OH213812   4.464   0.679   6.164
 4624TIP3    H113813   4.400   0.710   6.101
 4624TIP3    H213814   4.414   0.667   6.245
 4625TIP3   OH213815   6.887   5.132   6.355
 4625TIP3    H113816   6.853   5.049   6.324
 4625TIP3    H213817   6.977   5.114   6.379
 4626TIP3   OH213818   2.066   7.511   3.878
 4626TIP3    H113819   2.160   7.515   3.862
 4626TIP3    H213820   2.046   7.417   3.884
 4627TIP3   OH213821   4.610   2.331   5.153
 4627TIP3    H113822   4.529   2.340   5.102
 4627TIP3    H213823   4.580   2.324   5.244
 4628TIP3   OH213824   2.091   2.307   4.147
 4628TIP3    H113825   2.163   2.322   4.209
 4628TIP3    H213826   2.133   2.307   4.061
 4629TIP3   OH213827   1.091   1.772   2.825
 4629TIP3    H113828   1.179   1.758   2.791
 4629TIP3    H213829   1.061   1.853   2.784
 4630TIP3   OH213830   5.547   3.070   4.715
 4630TIP3    H113831   5.535   2.975   4.719
 4630TIP3    H213832   5.519   3.101   4.801
 4631TIP3   OH213833   4.845   7.024   0.346
 4631TIP3    H113834   4.881   7.089   0.406
 4631TIP3    H213835   4.906   7.023   0.272
 4632TIP3   OH213836   2.013   5.122   1.313
 4632TIP3    H113837   2.004   5.217   1.316
 4632TIP3    H213838   2.102   5.105   1.344
 4633TIP3   OH213839   1.836   3.571   4.966
 4633TIP3    H113840   1.866   3.488   5.001
 4633TIP3    H213841   1.900   3.635   4.998
 4634TIP3   OH213842   3.243   5.111   1.882
 4634TIP3    H113843   3.256   5.077   1.971
 4634TIP3    H213844   3.154   5.147   1.883
 4635TIP3   OH213845   6.938   1.460   0.292
 4635TIP3    H113846   6.952   1.370   0.322
 4635TIP3    H213847   6.929   1.511   0.373
 4636TIP3   OH213848   6.686   6.950   6.803
 4636TIP3    H113849   6.627   6.936   6.730
 4636TIP3    H213850   6.757   6.887   6.789
 4637TIP3   OH213851   6.101   7.609   4.990
 4637TIP3    H113852   6.033   7.543   5.005
 4637TIP3    H213853   6.054   7.687   4.961
 4638TIP3   OH213854   1.954   0.991   5.337
 4638TIP3    H113855   2.031   0.935   5.328
 4638TIP3    H213856   1.955   1.019   5.428
 4639TIP3   OH213857   4.338   5.768   3.038
 4639TIP3    H113858   4.394   5.759   3.115
 4639TIP3    H213859   4.333   5.862   3.023
 4640TIP3   OH213860   1.736   5.635   4.963
 4640TIP3    H113861   1.658   5.689   4.954
 4640TIP3    H213862   1.709   5.562   5.019
 4641TIP3   OH213863   1.117   5.392   3.741
 4641TIP3    H113864   1.209   5.367   3.747
 4641TIP3    H213865   1.100   5.441   3.821
 4642TIP3   OH213866   0.559   0.656   4.484
 4642TIP3    H113867   0.479   0.683   4.530
 4642TIP3    H213868   0.533   0.581   4.432
 4643TIP3   OH213869   0.223   3.134   5.025
 4643TIP3    H113870   0.233   3.161   4.934
 4643TIP3    H213871   0.197   3.042   5.020
 4644TIP3   OH213872   7.285   3.065   6.337
 4644TIP3    H113873   7.325   2.983   6.368
 4644TIP3    H213874   7.300   3.065   6.243
 4645TIP3   OH213875   7.156   7.499   1.010
 4645TIP3    H113876   7.247   7.510   1.038
 4645TIP3    H213877   7.105   7.505   1.091
 4646TIP3   OH213878   7.356   5.908   4.888
 4646TIP3    H113879   7.312   5.854   4.821
 4646TIP3    H213880   7.406   5.972   4.838
 4647TIP3   OH213881   3.577   1.361   6.354
 4647TIP3    H113882   3.483   1.351   6.369
 4647TIP3    H213883   3.588   1.455   6.338
 4648TIP3   OH213884   3.604   2.275   5.004
 4648TIP3    H113885   3.556   2.356   5.018
 4648TIP3    H213886   3.660   2.293   4.928
 4649TIP3   OH213887   4.747   1.212   5.617
 4649TIP3    H113888   4.764   1.271   5.544
 4649TIP3    H213889   4.778   1.127   5.587
 4650TIP3   OH213890   0.868   0.653   2.354
 4650TIP3    H113891   0.812   0.730   2.363
 4650TIP3    H213892   0.953   0.688   2.327
 4651TIP3   OH213893   2.553   7.123   6.251
 4651TIP3    H113894   2.566   7.037   6.212
 4651TIP3    H213895   2.499   7.107   6.328
 4652TIP3   OH213896   6.627   6.078   4.020
 4652TIP3    H113897   6.705   6.063   4.075
 4652TIP3    H213898   6.654   6.049   3.933
 4653TIP3   OH213899   6.050   2.191   4.502
 4653TIP3    H113900   6.108   2.117   4.482
 4653TIP3    H213901   6.106   2.253   4.549
 4654TIP3   OH213902   3.676   4.440   1.858
 4654TIP3    H113903   3.663   4.531   1.882
 4654TIP3    H213904   3.664   4.391   1.939
 4655TIP3   OH213905   5.672   3.656   1.031
 4655TIP3    H113906   5.731   3.581   1.026
 4655TIP3    H213907   5.666   3.687   0.941
 4656TIP3   OH213908   0.542   6.440   5.504
 4656TIP3    H113909   0.613   6.491   5.542
 4656TIP3    H213910   0.462   6.488   5.528
 4657TIP3   OH213911   2.697   4.896   0.497
 4657TIP3    H113912   2.664   4.815   0.459
 4657TIP3    H213913   2.772   4.870   0.550
 4658TIP3   OH213914   2.625   4.822   4.088
 4658TIP3    H113915   2.649   4.900   4.038
 4658TIP3    H213916   2.541   4.796   4.052
 4659TIP3   OH213917   3.360   3.549   3.544
 4659TIP3    H113918   3.397   3.551   3.632
 4659TIP3    H213919   3.268   3.571   3.555
 4660TIP3   OH213920   2.289   0.993   5.407
 4660TIP3    H113921   2.314   0.906   5.374
 4660TIP3    H213922   2.333   1.054   5.349
 4661TIP3   OH213923   2.466   2.017   6.443
 4661TIP3    H113924   2.502   2.101   6.470
 4661TIP3    H213925   2.524   1.987   6.374
 4662TIP3   OH213926   6.131   1.449   4.631
 4662TIP3    H113927   6.183   1.404   4.697
 4662TIP3    H213928   6.096   1.378   4.576
 4663TIP3   OH213929   7.141   5.677   6.579
 4663TIP3    H113930   7.125   5.583   6.586
 4663TIP3    H213931   7.236   5.686   6.576
 4664TIP3   OH213932   2.486   7.165   0.320
 4664TIP3    H113933   2.431   7.222   0.373
 4664TIP3    H213934   2.447   7.078   0.329
 4665TIP3   OH213935   3.492   3.405   4.046
 4665TIP3    H113936   3.486   3.448   4.132
 4665TIP3    H213937   3.578   3.365   4.045
 4666TIP3   OH213938   1.189   2.982   0.993
 4666TIP3    H113939   1.137   2.910   0.957
 4666TIP3    H213940   1.127   3.053   1.007
 4667TIP3   OH213941   2.051   7.232   3.825
 4667TIP3    H113942   1.993   7.267   3.757
 4667TIP3    H213943   2.099   7.161   3.781
 4668TIP3   OH213944   1.695   4.004   5.188
 4668TIP3    H113945   1.673   4.096   5.202
 4668TIP3    H213946   1.616   3.957   5.215
 4669TIP3   OH213947   0.356   4.724   2.354
 4669TIP3    H113948   0.403   4.745   2.434
 4669TIP3    H213949   0.339   4.630   2.360
 4670TIP3   OH213950   6.474   2.692   6.359
 4670TIP3    H113951   6.422   2.632   6.412
 4670TIP3    H213952   6.543   2.722   6.417
 4671TIP3   OH213953   7.839   4.085   1.151
 4671TIP3    H113954   7.793   4.169   1.140
 4671TIP3    H213955   7.772   4.019   1.132
 4672TIP3   OH213956   7.427   0.079   5.186
 4672TIP3    H113957   7.451   0.079   5.094
 4672TIP3    H213958   7.505   0.048   5.232
 4673TIP3   OH213959   0.387   1.444   2.073
 4673TIP3    H113960   0.461   1.444   2.133
 4673TIP3    H213961   0.320   1.496   2.117
 4674TIP3   OH213962   4.883   5.963   3.037
 4674TIP3    H113963   4.894   5.943   2.944
 4674TIP3    H213964   4.905   5.881   3.081
 4675TIP3   OH213965   3.099   6.980   3.731
 4675TIP3    H113966   3.066   7.067   3.756
 4675TIP3    H213967   3.157   6.955   3.803
 4676TIP3   OH213968   4.111   5.662   4.804
 4676TIP3    H113969   4.192   5.631   4.761
 4676TIP3    H213970   4.096   5.599   4.874
 4677TIP3   OH213971   5.588   6.869   2.874
 4677TIP3    H113972   5.639   6.801   2.830
 4677TIP3    H213973   5.510   6.823   2.906
 4678TIP3   OH213974   4.674   1.285   2.058
 4678TIP3    H113975   4.611   1.352   2.031
 4678TIP3    H213976   4.622   1.205   2.068
 4679TIP3   OH213977   3.152   4.995   3.745
 4679TIP3    H113978   3.127   5.041   3.825
 4679TIP3    H213979   3.145   4.902   3.768
 4680TIP3   OH213980   4.527   2.849   2.715
 4680TIP3    H113981   4.573   2.768   2.694
 4680TIP3    H213982   4.591   2.918   2.699
 4681TIP3   OH213983   2.755   5.921   5.012
 4681TIP3    H113984   2.749   5.854   4.945
 4681TIP3    H213985   2.665   5.954   5.021
 4682TIP3   OH213986   5.782   6.443   1.898
 4682TIP3    H113987   5.865   6.444   1.850
 4682TIP3    H213988   5.783   6.522   1.951
 4683TIP3   OH213989   1.329   6.534   1.600
 4683TIP3    H113990   1.302   6.611   1.649
 4683TIP3    H213991   1.276   6.536   1.520
 4684TIP3   OH213992   0.303   0.168   1.102
 4684TIP3    H113993   0.304   0.169   1.007
 4684TIP3    H213994   0.386   0.208   1.128
 4685TIP3   OH213995   0.055   5.846   5.974
 4685TIP3    H113996  -0.012   5.913   5.988
 4685TIP3    H213997   0.135   5.896   5.954
 4686TIP3   OH213998   6.102   7.221   1.250
 4686TIP3    H113999   6.194   7.246   1.260
 4686TIP3    H214000   6.066   7.224   1.339
 4687TIP3   OH214001   7.486   5.307   4.329
 4687TIP3    H114002   7.489   5.284   4.236
 4687TIP3    H214003   7.541   5.386   4.335
 4688TIP3   OH214004   0.153   7.707   6.253
 4688TIP3    H114005   0.127   7.783   6.306
 4688TIP3    H214006   0.155   7.740   6.163
 4689TIP3   OH214007   0.957   0.120   2.354
 4689TIP3    H114008   1.028   0.062   2.380
 4689TIP3    H214009   0.877   0.070   2.369
 4690TIP3   OH214010   4.646   7.825   4.110
 4690TIP3    H114011   4.563   7.779   4.096
 4690TIP3    H214012   4.641   7.857   4.200
 4691TIP3   OH214013   0.676   2.846   5.635
 4691TIP3    H114014   0.607   2.803   5.585
 4691TIP3    H214015   0.644   2.935   5.647
 4692TIP3   OH214016   4.795   1.281   4.219
 4692TIP3    H114017   4.864   1.228   4.259
 4692TIP3    H214018   4.744   1.219   4.167
 4693TIP3   OH214019   0.211   5.256   0.071
 4693TIP3    H114020   0.223   5.247   0.165
 4693TIP3    H214021   0.136   5.315   0.062
 4694TIP3   OH214022   2.416   2.133   3.308
 4694TIP3    H114023   2.385   2.068   3.371
 4694TIP3    H214024   2.345   2.141   3.244
 4695TIP3   OH214025   2.329   2.497   5.508
 4695TIP3    H114026   2.411   2.485   5.460
 4695TIP3    H214027   2.325   2.590   5.527
 4696TIP3   OH214028   6.527   0.011   0.263
 4696TIP3    H114029   6.456   0.075   0.270
 4696TIP3    H214030   6.577   0.021   0.344
 4697TIP3   OH214031   6.089   1.559   6.307
 4697TIP3    H114032   6.020   1.620   6.336
 4697TIP3    H214033   6.094   1.493   6.376
 4698TIP3   OH214034   3.399   0.475   4.657
 4698TIP3    H114035   3.438   0.413   4.595
 4698TIP3    H214036   3.455   0.552   4.654
 4699TIP3   OH214037   1.952   4.597   1.420
 4699TIP3    H114038   1.990   4.601   1.332
 4699TIP3    H214039   1.997   4.666   1.469
 4700TIP3   OH214040   7.765   2.432   2.061
 4700TIP3    H114041   7.811   2.350   2.043
 4700TIP3    H214042   7.747   2.469   1.974
 4701TIP3   OH214043   4.520   6.606   5.662
 4701TIP3    H114044   4.526   6.524   5.613
 4701TIP3    H214045   4.433   6.640   5.641
 4702TIP3   OH214046   5.841   6.881   4.328
 4702TIP3    H114047   5.762   6.932   4.345
 4702TIP3    H214048   5.811   6.804   4.280
 4703TIP3   OH214049   7.422   4.110   2.072
 4703TIP3    H114050   7.338   4.140   2.036
 4703TIP3    H214051   7.438   4.026   2.029
 4704TIP3   OH214052   0.969   2.254   5.774
 4704TIP3    H114053   0.948   2.334   5.823
 4704TIP3    H214054   1.030   2.207   5.830
 4705TIP3   OH214055   3.283   3.646   6.303
 4705TIP3    H114056   3.367   3.691   6.305
 4705TIP3    H214057   3.257   3.647   6.211
 4706TIP3   OH214058   8.320   1.327   2.675
 4706TIP3    H114059   8.350   1.273   2.748
 4706TIP3    H214060   8.225   1.315   2.673
 4707TIP3   OH214061   7.549   3.884   6.546
 4707TIP3    H114062   7.491   3.952   6.578
 4707TIP3    H214063   7.517   3.803   6.587
 4708TIP3   OH214064   0.624   7.638   3.372
 4708TIP3    H114065   0.672   7.659   3.452
 4708TIP3    H214066   0.532   7.648   3.397
 4709TIP3   OH214067   0.216   7.231   1.714
 4709TIP3    H114068   0.293   7.284   1.733
 4709TIP3    H214069   0.168   7.227   1.797
 4710TIP3   OH214070   2.887   4.612   6.107
 4710TIP3    H114071   2.847   4.683   6.056
 4710TIP3    H214072   2.974   4.602   6.069
 4711TIP3   OH214073   7.294   7.873   0.745
 4711TIP3    H114074   7.304   7.954   0.695
 4711TIP3    H214075   7.347   7.887   0.823
 4712TIP3   OH214076   5.660   0.320   4.729
 4712TIP3    H114077   5.623   0.240   4.691
 4712TIP3    H214078   5.621   0.391   4.679
 4713TIP3   OH214079   5.571   3.734   2.409
 4713TIP3    H114080   5.562   3.776   2.494
 4713TIP3    H214081   5.653   3.769   2.374
 4714TIP3   OH214082   7.196   6.104   4.111
 4714TIP3    H114083   7.143   6.130   4.035
 4714TIP3    H214084   7.154   6.145   4.186
 4715TIP3   OH214085   4.812   2.190   3.052
 4715TIP3    H114086   4.746   2.140   3.003
 4715TIP3    H214087   4.844   2.129   3.118
 4716TIP3   OH214088   6.853   0.443   3.580
 4716TIP3    H114089   6.927   0.504   3.574
 4716TIP3    H214090   6.783   0.486   3.530
 4717TIP3   OH214091   5.771   6.613   6.226
 4717TIP3    H114092   5.830   6.571   6.164
 4717TIP3    H214093   5.758   6.547   6.294
 4718TIP3   OH214094   4.010   4.955   3.717
 4718TIP3    H114095   3.935   4.902   3.743
 4718TIP3    H214096   4.077   4.891   3.691
 4719TIP3   OH214097   2.896   1.781   6.449
 4719TIP3    H114098   2.970   1.798   6.391
 4719TIP3    H214099   2.929   1.798   6.537
 4720TIP3   OH214100   1.948   7.511   0.957
 4720TIP3    H114101   1.979   7.421   0.948
 4720TIP3    H214102   1.857   7.509   0.928
 4721TIP3   OH214103   7.986   2.865   5.697
 4721TIP3    H114104   8.013   2.939   5.642
 4721TIP3    H214105   7.892   2.874   5.705
 4722TIP3   OH214106   4.315   4.695   4.599
 4722TIP3    H114107   4.295   4.625   4.537
 4722TIP3    H214108   4.401   4.727   4.572
 4723TIP3   OH214109   1.735   6.452   0.593
 4723TIP3    H114110   1.755   6.367   0.632
 4723TIP3    H214111   1.659   6.484   0.643
 4724TIP3   OH214112   0.165   6.193   4.773
 4724TIP3    H114113   0.250   6.218   4.809
 4724TIP3    H214114   0.177   6.102   4.745
 4725TIP3   OH214115   8.202   3.846   1.050
 4725TIP3    H114116   8.227   3.881   0.964
 4725TIP3    H214117   8.278   3.794   1.077
 4726TIP3   OH214118   1.649   1.200   5.979
 4726TIP3    H114119   1.695   1.163   5.904
 4726TIP3    H214120   1.556   1.196   5.956
 4727TIP3   OH214121   2.605   2.726   0.328
 4727TIP3    H114122   2.679   2.668   0.346
 4727TIP3    H214123   2.528   2.671   0.344
 4728TIP3   OH214124   3.378   7.459   3.825
 4728TIP3    H114125   3.298   7.484   3.872
 4728TIP3    H214126   3.349   7.440   3.736
 4729TIP3   OH214127   5.177   3.130   6.535
 4729TIP3    H114128   5.120   3.206   6.550
 4729TIP3    H214129   5.124   3.055   6.562
 4730TIP3   OH214130   3.255   7.712   3.991
 4730TIP3    H114131   3.197   7.652   3.945
 4730TIP3    H214132   3.282   7.775   3.924
 4731TIP3   OH214133   0.231   7.114   4.046
 4731TIP3    H114134   0.240   7.029   4.089
 4731TIP3    H214135   0.294   7.111   3.974
 4732TIP3   OH214136   6.695   6.462   5.744
 4732TIP3    H114137   6.615   6.481   5.793
 4732TIP3    H214138   6.665   6.451   5.654
 4733TIP3   OH214139   4.943   6.222   4.495
 4733TIP3    H114140   4.937   6.307   4.450
 4733TIP3    H214141   4.860   6.215   4.543
 4734TIP3   OH214142   1.056   3.566   2.799
 4734TIP3    H114143   1.053   3.499   2.867
 4734TIP3    H214144   1.007   3.527   2.726
 4735TIP3   OH214145   0.277   3.279   0.430
 4735TIP3    H114146   0.228   3.360   0.445
 4735TIP3    H214147   0.367   3.308   0.411
 4736TIP3   OH214148   4.702   1.140   2.844
 4736TIP3    H114149   4.660   1.054   2.848
 4736TIP3    H214150   4.630   1.202   2.836
 4737TIP3   OH214151   6.506   2.766   5.581
 4737TIP3    H114152   6.595   2.800   5.589
 4737TIP3    H214153   6.468   2.776   5.668
 4738TIP3   OH214154   2.736   1.950   5.554
 4738TIP3    H114155   2.806   1.887   5.573
 4738TIP3    H214156   2.696   1.968   5.640
 4739TIP3   OH214157   8.153   5.862   3.128
 4739TIP3    H114158   8.201   5.818   3.057
 4739TIP3    H214159   8.068   5.884   3.089
 4740TIP3   OH214160   7.710   6.878   5.859
 4740TIP3    H114161   7.722   6.951   5.798
 4740TIP3    H214162   7.700   6.801   5.802
 4741TIP3   OH214163   6.442   2.448   0.445
 4741TIP3    H114164   6.477   2.536   0.429
 4741TIP3    H214165   6.350   2.454   0.418
 4742TIP3   OH214166   4.747   0.601   6.056
 4742TIP3    H114167   4.818   0.634   6.110
 4742TIP3    H214168   4.667   0.624   6.105
 4743TIP3   OH214169   3.804   0.285   6.012
 4743TIP3    H114170   3.857   0.255   5.938
 4743TIP3    H214171   3.730   0.224   6.015
 4744TIP3   OH214172   3.062   2.727   3.192
 4744TIP3    H114173   3.134   2.773   3.147
 4744TIP3    H214174   2.992   2.793   3.198
 4745TIP3   OH214175   3.515   3.915   2.674
 4745TIP3    H114176   3.548   3.954   2.755
 4745TIP3    H214177   3.423   3.943   2.669
 4746TIP3   OH214178   6.196   5.203   0.275
 4746TIP3    H114179   6.282   5.163   0.289
 4746TIP3    H214180   6.166   5.168   0.191
 4747TIP3   OH214181   7.714   1.894   3.273
 4747TIP3    H114182   7.653   1.954   3.229
 4747TIP3    H214183   7.800   1.931   3.257
 4748TIP3   OH214184   4.139   4.483   4.699
 4748TIP3    H114185   4.074   4.524   4.755
 4748TIP3    H214186   4.193   4.555   4.667
 4749TIP3   OH214187   5.690   6.802   3.600
 4749TIP3    H114188   5.760   6.866   3.609
 4749TIP3    H214189   5.681   6.789   3.505
 4750TIP3   OH214190  -0.002   5.969   2.401
 4750TIP3    H114191   0.016   6.021   2.479
 4750TIP3    H214192   0.053   5.891   2.411
 4751TIP3   OH214193   6.338   0.480   1.159
 4751TIP3    H114194   6.300   0.553   1.110
 4751TIP3    H214195   6.311   0.495   1.249
 4752TIP3   OH214196   6.615   0.625   5.772
 4752TIP3    H114197   6.700   0.666   5.756
 4752TIP3    H214198   6.635   0.546   5.823
 4753TIP3   OH214199   6.164   6.369   0.040
 4753TIP3    H114200   6.204   6.446   0.081
 4753TIP3    H214201   6.161   6.304   0.110
 4754TIP3   OH214202   3.200   5.789   0.820
 4754TIP3    H114203   3.224   5.714   0.766
 4754TIP3    H214204   3.160   5.851   0.758
 4755TIP3   OH214205   1.330   1.387   0.157
 4755TIP3    H114206   1.302   1.300   0.186
 4755TIP3    H214207   1.329   1.381   0.062
 4756TIP3   OH214208   4.247   7.716   6.442
 4756TIP3    H114209   4.234   7.755   6.529
 4756TIP3    H214210   4.169   7.663   6.427
 4757TIP3   OH214211   3.686   3.383   2.356
 4757TIP3    H114212   3.675   3.317   2.288
 4757TIP3    H214213   3.607   3.377   2.409
 4758TIP3   OH214214   6.970   3.882   5.598
 4758TIP3    H114215   6.905   3.905   5.664
 4758TIP3    H214216   6.978   3.787   5.604
 4759TIP3   OH214217   5.842   4.260   2.658
 4759TIP3    H114218   5.766   4.232   2.709
 4759TIP3    H214219   5.917   4.219   2.703
 4760TIP3   OH214220   4.356   1.041   0.377
 4760TIP3    H114221   4.403   0.978   0.431
 4760TIP3    H214222   4.387   1.025   0.288
 4761TIP3   OH214223   5.384   7.866   4.959
 4761TIP3    H114224   5.424   7.942   4.918
 4761TIP3    H214225   5.320   7.835   4.895
 4762TIP3   OH214226   5.539   2.334   0.671
 4762TIP3    H114227   5.477   2.406   0.659
 4762TIP3    H214228   5.548   2.295   0.584
 4763TIP3   OH214229   0.933   0.851   6.102
 4763TIP3    H114230   1.006   0.872   6.160
 4763TIP3    H214231   0.951   0.761   6.072
 4764TIP3   OH214232   7.970   0.700   4.359
 4764TIP3    H114233   7.969   0.611   4.396
 4764TIP3    H214234   7.957   0.687   4.265
 4765TIP3   OH214235   4.689   1.818   4.200
 4765TIP3    H114236   4.664   1.905   4.232
 4765TIP3    H214237   4.772   1.800   4.243
 4766TIP3   OH214238   6.195   0.952   1.018
 4766TIP3    H114239   6.168   1.016   0.953
 4766TIP3    H214240   6.274   0.989   1.058
 4767TIP3   OH214241   1.531   0.956   4.546
 4767TIP3    H114242   1.460   1.008   4.582
 4767TIP3    H214243   1.508   0.944   4.454
 4768TIP3   OH214244   2.043   6.096   5.073
 4768TIP3    H114245   1.953   6.087   5.103
 4768TIP3    H214246   2.083   6.010   5.091
 4769TIP3   OH214247   6.046   4.884   3.665
 4769TIP3    H114248   5.980   4.815   3.663
 4769TIP3    H214249   6.009   4.951   3.722
 4770TIP3   OH214250   7.873   7.401   4.513
 4770TIP3    H114251   7.822   7.468   4.468
 4770TIP3    H214252   7.886   7.436   4.601
 4771TIP3   OH214253   0.982   5.012   0.197
 4771TIP3    H114254   1.054   5.046   0.250
 4771TIP3    H214255   1.005   4.920   0.182
 4772TIP3   OH214256   2.470   7.046   4.911
 4772TIP3    H114257   2.460   6.985   4.984
 4772TIP3    H214258   2.381   7.065   4.882
 4773TIP3   OH214259   7.974   3.781   2.856
 4773TIP3    H114260   7.956   3.867   2.819
 4773TIP3    H214261   8.067   3.767   2.841
 4774TIP3   OH214262   0.345   6.025   4.219
 4774TIP3    H114263   0.327   6.039   4.126
 4774TIP3    H214264   0.366   5.932   4.226
 4775TIP3   OH214265   6.357   4.674   1.898
 4775TIP3    H114266   6.368   4.749   1.840
 4775TIP3    H214267   6.269   4.641   1.879
 4776TIP3   OH214268   4.151   1.889   2.418
 4776TIP3    H114269   4.117   1.971   2.454
 4776TIP3    H214270   4.246   1.898   2.424
 4777TIP3   OH214271   6.425   1.811   5.522
 4777TIP3    H114272   6.514   1.832   5.548
 4777TIP3    H214273   6.431   1.723   5.483
 4778TIP3   OH214274   4.087   7.876   4.767
 4778TIP3    H114275   4.028   7.946   4.739
 4778TIP3    H214276   4.090   7.816   4.693
 4779TIP3   OH214277   8.029   6.518   6.235
 4779TIP3    H114278   8.041   6.429   6.203
 4779TIP3    H214279   8.112   6.541   6.276
 4780TIP3   OH214280   1.457   0.045   6.222
 4780TIP3    H114281   1.446   0.140   6.219
 4780TIP3    H214282   1.454   0.023   6.315
 4781TIP3   OH214283   3.093   0.876   2.186
 4781TIP3    H114284   3.068   0.962   2.219
 4781TIP3    H214285   3.052   0.814   2.247
 4782TIP3   OH214286   4.887   6.508   6.197
 4782TIP3    H114287   4.939   6.509   6.277
 4782TIP3    H214288   4.836   6.588   6.201
 4783TIP3   OH214289   4.892   6.811   0.523
 4783TIP3    H114290   4.857   6.859   0.448
 4783TIP3    H214291   4.877   6.719   0.503
 4784TIP3   OH214292   3.164   2.808   0.545
 4784TIP3    H114293   3.149   2.741   0.612
 4784TIP3    H214294   3.219   2.765   0.480
 4785TIP3   OH214295   3.807   1.171   2.370
 4785TIP3    H114296   3.737   1.236   2.376
 4785TIP3    H214297   3.882   1.220   2.337
 4786TIP3   OH214298   4.728   0.838   2.159
 4786TIP3    H114299   4.749   0.877   2.243
 4786TIP3    H214300   4.640   0.869   2.139
 4787TIP3   OH214301   7.087   0.571   4.541
 4787TIP3    H114302   7.169   0.574   4.492
 4787TIP3    H214303   7.021   0.605   4.481
 4788TIP3   OH214304   3.671   7.116   6.499
 4788TIP3    H114305   3.750   7.126   6.552
 4788TIP3    H214306   3.624   7.199   6.511
 4789TIP3   OH214307   7.799   2.918   0.428
 4789TIP3    H114308   7.879   2.921   0.480
 4789TIP3    H214309   7.826   2.880   0.344
 4790TIP3   OH214310   0.975   0.444   6.786
 4790TIP3    H114311   0.958   0.451   6.880
 4790TIP3    H214312   0.889   0.450   6.745
 4791TIP3   OH214313   4.651   3.172   5.609
 4791TIP3    H114314   4.558   3.193   5.601
 4791TIP3    H214315   4.657   3.079   5.587
 4792TIP3   OH214316   7.847   6.090   6.625
 4792TIP3    H114317   7.864   6.067   6.534
 4792TIP3    H214318   7.911   6.160   6.644
 4793TIP3   OH214319   4.671   6.554   5.326
 4793TIP3    H114320   4.612   6.516   5.391
 4793TIP3    H214321   4.755   6.512   5.341
 4794TIP3   OH214322   7.151   6.774   5.845
 4794TIP3    H114323   7.129   6.793   5.753
 4794TIP3    H214324   7.157   6.860   5.886
 4795TIP3   OH214325   2.962   2.733   0.118
 4795TIP3    H114326   3.006   2.791   0.181
 4795TIP3    H214327   3.029   2.713   0.053
 4796TIP3   OH214328   1.408   6.597   3.853
 4796TIP3    H114329   1.352   6.558   3.920
 4796TIP3    H214330   1.474   6.531   3.835
 4797TIP3   OH214331   1.840   7.328   4.580
 4797TIP3    H114332   1.846   7.422   4.566
 4797TIP3    H214333   1.816   7.319   4.672
 4798TIP3   OH214334   2.653   7.135   3.415
 4798TIP3    H114335   2.715   7.095   3.476
 4798TIP3    H214336   2.572   7.085   3.428
 4799TIP3   OH214337   4.181   1.935   5.962
 4799TIP3    H114338   4.196   1.844   5.988
 4799TIP3    H214339   4.260   1.960   5.914
 4800TIP3   OH214340   2.534   5.573   6.827
 4800TIP3    H114341   2.615   5.615   6.856
 4800TIP3    H214342   2.507   5.518   6.900
 4801TIP3   OH214343   4.674   2.793   4.588
 4801TIP3    H114344   4.580   2.813   4.587
 4801TIP3    H214345   4.691   2.750   4.504
 4802TIP3   OH214346   1.175   5.645   3.589
 4802TIP3    H114347   1.248   5.691   3.630
 4802TIP3    H214348   1.167   5.563   3.638
 4803TIP3   OH214349   7.607   0.880   6.461
 4803TIP3    H114350   7.628   0.834   6.380
 4803TIP3    H214351   7.512   0.872   6.470
 4804TIP3   OH214352   2.796   1.055   2.148
 4804TIP3    H114353   2.703   1.070   2.132
 4804TIP3    H214354   2.827   1.135   2.190
 4805TIP3   OH214355   4.092   1.108   0.452
 4805TIP3    H114356   4.180   1.087   0.419
 4805TIP3    H214357   4.035   1.045   0.409
 4806TIP3   OH214358   8.177   1.215   2.934
 4806TIP3    H114359   8.101   1.159   2.918
 4806TIP3    H214360   8.252   1.163   2.904
 4807TIP3   OH214361   1.413   5.736   4.664
 4807TIP3    H114362   1.467   5.795   4.717
 4807TIP3    H214363   1.330   5.731   4.711
 4808TIP3   OH214364   8.054   2.616   1.709
 4808TIP3    H114365   8.146   2.640   1.701
 4808TIP3    H214366   8.048   2.568   1.791
 4809TIP3   OH214367   0.880   3.241   2.599
 4809TIP3    H114368   0.974   3.223   2.597
 4809TIP3    H214369   0.873   3.327   2.642
 4810TIP3   OH214370   6.821   1.244   3.591
 4810TIP3    H114371   6.765   1.321   3.605
 4810TIP3    H214372   6.806   1.222   3.499
 4811TIP3   OH214373   0.687   1.179   5.238
 4811TIP3    H114374   0.722   1.174   5.149
 4811TIP3    H214375   0.592   1.177   5.226
 4812TIP3   OH214376   4.150   1.082   3.076
 4812TIP3    H114377   4.161   1.009   3.015
 4812TIP3    H214378   4.171   1.160   3.024
 4813TIP3   OH214379   5.612   7.545   5.679
 4813TIP3    H114380   5.625   7.627   5.727
 4813TIP3    H214381   5.549   7.568   5.610
 4814TIP3   OH214382   0.675   2.174   5.214
 4814TIP3    H114383   0.583   2.188   5.189
 4814TIP3    H214384   0.679   2.082   5.240
 4815TIP3   OH214385   6.898   6.046   3.546
 4815TIP3    H114386   6.873   5.955   3.558
 4815TIP3    H214387   6.945   6.048   3.463
 4816TIP3   OH214388   1.850   1.927   2.710
 4816TIP3    H114389   1.911   1.993   2.742
 4816TIP3    H214390   1.767   1.974   2.699
 4817TIP3   OH214391   0.186   7.325   2.780
 4817TIP3    H114392   0.217   7.322   2.870
 4817TIP3    H214393   0.133   7.246   2.770
 4818TIP3   OH214394   2.064   6.322   3.985
 4818TIP3    H114395   2.103   6.332   4.072
 4818TIP3    H214396   1.971   6.339   3.998
 4819TIP3   OH214397   7.646   2.539   0.427
 4819TIP3    H114398   7.556   2.507   0.432
 4819TIP3    H214399   7.685   2.490   0.354
 4820TIP3   OH214400   4.334   3.871   4.769
 4820TIP3    H114401   4.389   3.939   4.730
 4820TIP3    H214402   4.286   3.916   4.838
 4821TIP3   OH214403   3.949   5.675   0.111
 4821TIP3    H114404   4.032   5.629   0.119
 4821TIP3    H214405   3.926   5.666   0.018
 4822TIP3   OH214406   7.234   2.343   6.640
 4822TIP3    H114407   7.305   2.290   6.678
 4822TIP3    H214408   7.156   2.316   6.688
 4823TIP3   OH214409   1.243   6.129   5.511
 4823TIP3    H114410   1.331   6.166   5.498
 4823TIP3    H214411   1.251   6.077   5.591
 4824TIP3   OH214412   7.973   1.553   3.675
 4824TIP3    H114413   7.914   1.626   3.695
 4824TIP3    H214414   7.946   1.483   3.736
 4825TIP3   OH214415   3.373   1.586   2.141
 4825TIP3    H114416   3.431   1.513   2.161
 4825TIP3    H214417   3.418   1.635   2.073
 4826TIP3   OH214418   0.882   5.038   3.541
 4826TIP3    H114419   0.830   5.018   3.619
 4826TIP3    H214420   0.862   4.967   3.480
 4827TIP3   OH214421   5.276   0.637   2.414
 4827TIP3    H114422   5.319   0.700   2.471
 4827TIP3    H214423   5.343   0.571   2.395
 4828TIP3   OH214424   2.942   0.597   4.483
 4828TIP3    H114425   2.916   0.534   4.415
 4828TIP3    H214426   3.010   0.553   4.533
 4829TIP3   OH214427   3.944   0.227   6.263
 4829TIP3    H114428   3.989   0.152   6.224
 4829TIP3    H214429   3.955   0.215   6.358
 4830TIP3   OH214430   6.459   5.998   1.793
 4830TIP3    H114431   6.544   6.042   1.786
 4830TIP3    H214432   6.468   5.942   1.870
 4831TIP3   OH214433   0.977   1.285   5.582
 4831TIP3    H114434   0.892   1.287   5.627
 4831TIP3    H214435   0.958   1.249   5.496
 4832TIP3   OH214436   7.928   7.341   0.107
 4832TIP3    H114437   7.855   7.399   0.126
 4832TIP3    H214438   7.899   7.288   0.033
 4833TIP3   OH214439   6.522   0.661   0.360
 4833TIP3    H114440   6.580   0.678   0.287
 4833TIP3    H214441   6.506   0.567   0.358
 4834TIP3   OH214442   3.117   2.666   4.887
 4834TIP3    H114443   3.177   2.621   4.827
 4834TIP3    H214444   3.168   2.680   4.966
 4835TIP3   OH214445   4.335   3.001   6.792
 4835TIP3    H114446   4.309   2.930   6.734
 4835TIP3    H214447   4.399   2.961   6.851
 4836TIP3   OH214448   4.896   5.689   0.126
 4836TIP3    H114449   4.844   5.624   0.172
 4836TIP3    H214450   4.983   5.650   0.119
 4837TIP3   OH214451   6.414   5.715   4.021
 4837TIP3    H114452   6.504   5.744   4.032
 4837TIP3    H214453   6.412   5.674   3.935
 4838TIP3   OH214454   4.651   2.421   1.479
 4838TIP3    H114455   4.713   2.367   1.528
 4838TIP3    H214456   4.574   2.428   1.537
 4839TIP3   OH214457   8.398   2.412   0.972
 4839TIP3    H114458   8.395   2.405   0.876
 4839TIP3    H214459   8.306   2.408   0.999
 4840TIP3   OH214460   0.454   2.671   1.967
 4840TIP3    H114461   0.511   2.690   2.041
 4840TIP3    H214462   0.507   2.617   1.909
 4841TIP3   OH214463   1.167   0.900   3.553
 4841TIP3    H114464   1.114   0.841   3.607
 4841TIP3    H214465   1.114   0.915   3.475
 4842TIP3   OH214466   2.724   2.865   5.301
 4842TIP3    H114467   2.705   2.957   5.320
 4842TIP3    H214468   2.674   2.816   5.367
 4843TIP3   OH214469   4.731   3.791   6.781
 4843TIP3    H114470   4.663   3.847   6.744
 4843TIP3    H214471   4.684   3.712   6.809
 4844TIP3   OH214472   8.269   6.489   3.304
 4844TIP3    H114473   8.209   6.532   3.365
 4844TIP3    H214474   8.216   6.471   3.226
 4845TIP3   OH214475   2.884   2.771   3.567
 4845TIP3    H114476   2.843   2.716   3.634
 4845TIP3    H214477   2.972   2.787   3.600
 4846TIP3   OH214478   3.806   5.290   6.511
 4846TIP3    H114479   3.817   5.380   6.480
 4846TIP3    H214480   3.881   5.244   6.474
 4847TIP3   OH214481   8.261   5.276   4.092
 4847TIP3    H114482   8.205   5.199   4.100
 4847TIP3    H214483   8.242   5.310   4.004
 4848TIP3   OH214484   5.135   2.304   3.283
 4848TIP3    H114485   5.118   2.383   3.231
 4848TIP3    H214486   5.226   2.314   3.313
 4849TIP3   OH214487   2.831   0.517   3.927
 4849TIP3    H114488   2.735   0.523   3.922
 4849TIP3    H214489   2.860   0.607   3.943
 4850TIP3   OH214490   6.121   2.165   0.928
 4850TIP3    H114491   6.027   2.152   0.943
 4850TIP3    H214492   6.163   2.110   0.994
 4851TIP3   OH214493   7.842   0.612   5.294
 4851TIP3    H114494   7.870   0.652   5.376
 4851TIP3    H214495   7.778   0.545   5.320
 4852TIP3   OH214496   3.596   4.756   3.045
 4852TIP3    H114497   3.545   4.814   3.102
 4852TIP3    H214498   3.687   4.771   3.072
 4853TIP3   OH214499   7.480   0.788   4.323
 4853TIP3    H114500   7.443   0.860   4.374
 4853TIP3    H214501   7.528   0.830   4.252
 4854TIP3   OH214502   8.111   3.412   1.757
 4854TIP3    H114503   8.020   3.408   1.786
 4854TIP3    H214504   8.156   3.344   1.807
 4855TIP3   OH214505   7.833   1.781   2.385
 4855TIP3    H114506   7.743   1.749   2.385
 4855TIP3    H214507   7.826   1.872   2.357
 4856TIP3   OH214508   0.452   7.362   1.726
 4856TIP3    H114509   0.408   7.429   1.779
 4856TIP3    H214510   0.508   7.411   1.666
 4857TIP3   OH214511   7.397   1.416   1.758
 4857TIP3    H114512   7.437   1.502   1.771
 4857TIP3    H214513   7.377   1.386   1.847
 4858TIP3   OH214514   4.583   0.183   4.953
 4858TIP3    H114515   4.660   0.237   4.972
 4858TIP3    H214516   4.521   0.244   4.912
 4859TIP3   OH214517   6.458   3.200   3.576
 4859TIP3    H114518   6.381   3.251   3.552
 4859TIP3    H214519   6.499   3.251   3.647
 4860TIP3   OH214520   2.539   0.576   3.725
 4860TIP3    H114521   2.537   0.578   3.820
 4860TIP3    H214522   2.477   0.507   3.701
 4861TIP3   OH214523   4.597   3.184   2.402
 4861TIP3    H114524   4.614   3.094   2.428
 4861TIP3    H214525   4.673   3.209   2.350
 4862TIP3   OH214526   0.462   2.470   0.878
 4862TIP3    H114527   0.444   2.529   0.805
 4862TIP3    H214528   0.421   2.512   0.953
 4863TIP3   OH214529   1.298   4.893   2.678
 4863TIP3    H114530   1.350   4.814   2.666
 4863TIP3    H214531   1.357   4.964   2.652
 4864TIP3   OH214532   1.127   7.792   6.469
 4864TIP3    H114533   1.205   7.848   6.469
 4864TIP3    H214534   1.152   7.716   6.417
 4865TIP3   OH214535   6.674   7.774   4.744
 4865TIP3    H114536   6.687   7.855   4.696
 4865TIP3    H214537   6.619   7.720   4.687
 4866TIP3   OH214538   5.145   6.842   2.392
 4866TIP3    H114539   5.110   6.763   2.433
 4866TIP3    H214540   5.202   6.809   2.322
 4867TIP3   OH214541   0.539   6.005   0.067
 4867TIP3    H114542   0.466   5.945   0.048
 4867TIP3    H214543   0.615   5.963   0.028
 4868TIP3   OH214544   3.908   0.397   4.148
 4868TIP3    H114545   3.872   0.462   4.089
 4868TIP3    H214546   3.970   0.445   4.203
 4869TIP3   OH214547   5.051   3.394   3.841
 4869TIP3    H114548   5.031   3.423   3.752
 4869TIP3    H214549   5.007   3.309   3.849
 4870TIP3   OH214550   2.450   6.710   5.785
 4870TIP3    H114551   2.420   6.730   5.696
 4870TIP3    H214552   2.450   6.615   5.789
 4871TIP3   OH214553   0.738   5.123   0.205
 4871TIP3    H114554   0.662   5.068   0.187
 4871TIP3    H214555   0.814   5.065   0.194
 4872TIP3   OH214556   3.284   1.800   4.412
 4872TIP3    H114557   3.269   1.726   4.472
 4872TIP3    H214558   3.203   1.850   4.415
 4873TIP3   OH214559   5.419   2.575   3.066
 4873TIP3    H114560   5.348   2.625   3.105
 4873TIP3    H214561   5.484   2.640   3.040
 4874TIP3   OH214562   3.849   7.661   4.973
 4874TIP3    H114563   3.920   7.600   4.958
 4874TIP3    H214564   3.812   7.677   4.886
 4875TIP3   OH214565   2.733   0.597   5.377
 4875TIP3    H114566   2.806   0.543   5.407
 4875TIP3    H214567   2.776   0.675   5.341
 4876TIP3   OH214568   2.840   7.782   3.559
 4876TIP3    H114569   2.829   7.687   3.554
 4876TIP3    H214570   2.927   7.794   3.596
 4877TIP3   OH214571   1.952   5.276   1.551
 4877TIP3    H114572   1.877   5.333   1.533
 4877TIP3    H214573   2.027   5.337   1.553
 4878TIP3   OH214574   5.409   0.342   5.506
 4878TIP3    H114575   5.333   0.398   5.519
 4878TIP3    H214576   5.417   0.292   5.587
 4879TIP3   OH214577   3.172   0.220   5.024
 4879TIP3    H114578   3.123   0.282   4.969
 4879TIP3    H214579   3.152   0.134   4.987
 4880TIP3   OH214580   1.869   1.132   6.784
 4880TIP3    H114581   1.887   1.075   6.710
 4880TIP3    H214582   1.779   1.111   6.810
 4881TIP3   OH214583   4.717   5.708   0.938
 4881TIP3    H114584   4.792   5.681   0.991
 4881TIP3    H214585   4.691   5.792   0.976
 4882TIP3   OH214586   4.679   1.598   6.581
 4882TIP3    H114587   4.623   1.523   6.563
 4882TIP3    H214588   4.768   1.565   6.573
 4883TIP3   OH214589   7.149   4.624   4.390
 4883TIP3    H114590   7.101   4.704   4.370
 4883TIP3    H214591   7.230   4.631   4.339
 4884TIP3   OH214592   5.020   4.533   1.052
 4884TIP3    H114593   5.108   4.563   1.078
 4884TIP3    H214594   4.999   4.585   0.974
 4885TIP3   OH214595   7.221   4.471   0.428
 4885TIP3    H114596   7.132   4.492   0.458
 4885TIP3    H214597   7.208   4.403   0.362
 4886TIP3   OH214598   7.842   5.249   3.755
 4886TIP3    H114599   7.752   5.220   3.744
 4886TIP3    H214600   7.836   5.342   3.774
 4887TIP3   OH214601   4.128   3.826   4.580
 4887TIP3    H114602   4.113   3.732   4.589
 4887TIP3    H214603   4.181   3.850   4.656
 4888TIP3   OH214604   2.431   0.380   2.450
 4888TIP3    H114605   2.386   0.465   2.442
 4888TIP3    H214606   2.364   0.316   2.427
 4889TIP3   OH214607   4.396   2.527   1.200
 4889TIP3    H114608   4.401   2.434   1.221
 4889TIP3    H214609   4.451   2.570   1.265
 4890TIP3   OH214610   6.628   0.133   2.452
 4890TIP3    H114611   6.605   0.149   2.544
 4890TIP3    H214612   6.545   0.141   2.405
 4891TIP3   OH214613   1.149   0.959   5.422
 4891TIP3    H114614   1.241   0.983   5.434
 4891TIP3    H214615   1.143   0.869   5.454
 4892TIP3   OH214616   0.758   1.981   5.379
 4892TIP3    H114617   0.733   2.065   5.418
 4892TIP3    H214618   0.764   1.921   5.452
 4893TIP3   OH214619   4.124   1.350   5.829
 4893TIP3    H114620   4.098   1.403   5.905
 4893TIP3    H214621   4.208   1.311   5.854
 4894TIP3   OH214622   1.593   6.274   1.353
 4894TIP3    H114623   1.523   6.326   1.314
 4894TIP3    H214624   1.548   6.209   1.407
 4895TIP3   OH214625   3.727   3.107   3.081
 4895TIP3    H114626   3.758   3.192   3.112
 4895TIP3    H214627   3.653   3.086   3.138
 4896TIP3   OH214628   2.208   2.051   0.090
 4896TIP3    H114629   2.299   2.025   0.105
 4896TIP3    H214630   2.169   2.055   0.177
 4897TIP3   OH214631   1.608   7.786   1.489
 4897TIP3    H114632   1.673   7.774   1.420
 4897TIP3    H214633   1.556   7.706   1.487
 4898TIP3   OH214634   2.420   2.850   2.655
 4898TIP3    H114635   2.440   2.782   2.719
 4898TIP3    H214636   2.347   2.900   2.693
 4899TIP3   OH214637   8.264   4.489   6.259
 4899TIP3    H114638   8.225   4.473   6.345
 4899TIP3    H214639   8.315   4.569   6.270
 4900TIP3   OH214640   6.592   2.524   3.343
 4900TIP3    H114641   6.508   2.508   3.385
 4900TIP3    H214642   6.655   2.528   3.416
 4901TIP3   OH214643   1.938   4.297   5.584
 4901TIP3    H114644   1.937   4.360   5.513
 4901TIP3    H214645   1.918   4.349   5.662
 4902TIP3   OH214646   6.332   2.870   1.005
 4902TIP3    H114647   6.355   2.953   0.965
 4902TIP3    H214648   6.377   2.804   0.952
 4903TIP3   OH214649   2.646   6.511   6.080
 4903TIP3    H114650   2.559   6.504   6.039
 4903TIP3    H214651   2.696   6.566   6.021
 4904TIP3   OH214652   7.680   5.503   1.176
 4904TIP3    H114653   7.658   5.414   1.204
 4904TIP3    H214654   7.763   5.494   1.129
 4905TIP3   OH214655   2.384   1.489   5.493
 4905TIP3    H114656   2.432   1.412   5.524
 4905TIP3    H214657   2.413   1.560   5.549
 4906TIP3   OH214658   3.121   7.523   0.862
 4906TIP3    H114659   3.104   7.537   0.769
 4906TIP3    H214660   3.210   7.554   0.876
 4907TIP3   OH214661   3.896   3.699   3.546
 4907TIP3    H114662   3.900   3.757   3.623
 4907TIP3    H214663   3.983   3.661   3.540
 4908TIP3   OH214664   7.954   3.514   5.425
 4908TIP3    H114665   7.958   3.609   5.412
 4908TIP3    H214666   7.886   3.484   5.364
 4909TIP3   OH214667   7.883   0.224   1.801
 4909TIP3    H114668   7.907   0.278   1.876
 4909TIP3    H214669   7.961   0.224   1.745
 4910TIP3   OH214670   1.256   7.335   4.908
 4910TIP3    H114671   1.229   7.376   4.990
 4910TIP3    H214672   1.187   7.271   4.889
 4911TIP3   OH214673   3.521   4.022   6.159
 4911TIP3    H114674   3.516   3.941   6.210
 4911TIP3    H214675   3.481   4.000   6.075
 4912TIP3   OH214676   6.449   0.985   2.225
 4912TIP3    H114677   6.358   1.014   2.223
 4912TIP3    H214678   6.493   1.041   2.161
 4913TIP3   OH214679   4.010   1.597   1.635
 4913TIP3    H114680   4.041   1.538   1.566
 4913TIP3    H214681   4.089   1.618   1.684
 4914TIP3   OH214682   2.739   0.134   1.882
 4914TIP3    H114683   2.703   0.063   1.829
 4914TIP3    H214684   2.762   0.093   1.965
 4915TIP3   OH214685   0.267   7.481   2.189
 4915TIP3    H114686   0.268   7.421   2.264
 4915TIP3    H214687   0.191   7.537   2.204
 4916TIP3   OH214688   7.163   1.685   4.345
 4916TIP3    H114689   7.196   1.765   4.303
 4916TIP3    H214690   7.118   1.638   4.275
 4917TIP3   OH214691   1.920   7.069   2.980
 4917TIP3    H114692   1.927   7.055   2.885
 4917TIP3    H214693   2.002   7.036   3.015
 4918TIP3   OH214694   2.448   7.598   3.153
 4918TIP3    H114695   2.438   7.674   3.211
 4918TIP3    H214696   2.360   7.579   3.123
 4919TIP3   OH214697   5.136   0.740   5.988
 4919TIP3    H114698   5.143   0.824   6.033
 4919TIP3    H214699   5.106   0.679   6.055
 4920TIP3   OH214700   7.427   4.114   6.621
 4920TIP3    H114701   7.380   4.099   6.703
 4920TIP3    H214702   7.366   4.165   6.567
 4921TIP3   OH214703   3.226   5.720   1.880
 4921TIP3    H114704   3.318   5.702   1.860
 4921TIP3    H214705   3.185   5.732   1.795
 4922TIP3   OH214706   4.139   2.482   0.450
 4922TIP3    H114707   4.164   2.535   0.374
 4922TIP3    H214708   4.222   2.452   0.487
 4923TIP3   OH214709   6.524   0.172   1.357
 4923TIP3    H114710   6.527   0.180   1.452
 4923TIP3    H214711   6.431   0.177   1.335
 4924TIP3   OH214712   5.284   7.764   1.759
 4924TIP3    H114713   5.379   7.748   1.758
 4924TIP3    H214714   5.264   7.784   1.850
 4925TIP3   OH214715   3.618   0.468   5.510
 4925TIP3    H114716   3.644   0.532   5.443
 4925TIP3    H214717   3.632   0.514   5.593
 4926TIP3   OH214718   4.763   0.397   2.829
 4926TIP3    H114719   4.691   0.339   2.855
 4926TIP3    H214720   4.777   0.454   2.904
 4927TIP3   OH214721   5.574   7.490   1.447
 4927TIP3    H114722   5.602   7.525   1.362
 4927TIP3    H214723   5.579   7.566   1.506
 4928TIP3   OH214724   2.205   6.338   3.743
 4928TIP3    H114725   2.168   6.320   3.829
 4928TIP3    H214726   2.247   6.423   3.751
 4929TIP3   OH214727   2.076   4.052   1.091
 4929TIP3    H114728   2.102   3.960   1.099
 4929TIP3    H214729   1.983   4.049   1.068
 4930TIP3   OH214730   6.754   5.886   3.153
 4930TIP3    H114731   6.736   5.846   3.067
 4930TIP3    H214732   6.847   5.871   3.168
 4931TIP3   OH214733   5.063   1.815   4.858
 4931TIP3    H114734   5.003   1.879   4.895
 4931TIP3    H214735   5.125   1.797   4.928
 4932TIP3   OH214736   6.558   7.533   5.944
 4932TIP3    H114737   6.489   7.509   6.005
 4932TIP3    H214738   6.514   7.538   5.859
 4933TIP3   OH214739   6.436   2.189   2.809
 4933TIP3    H114740   6.411   2.100   2.787
 4933TIP3    H214741   6.477   2.182   2.896
 4934TIP3   OH214742   7.568   4.986   2.767
 4934TIP3    H114743   7.505   5.020   2.830
 4934TIP3    H214744   7.649   5.034   2.787
 4935TIP3   OH214745   3.684   3.795   6.581
 4935TIP3    H114746   3.611   3.768   6.637
 4935TIP3    H214747   3.689   3.728   6.513
 4936TIP3   OH214748   2.965   4.997   4.612
 4936TIP3    H114749   3.027   4.948   4.665
 4936TIP3    H214750   2.981   5.089   4.635
 4937TIP3   OH214751   4.845   1.216   6.789
 4937TIP3    H114752   4.934   1.217   6.825
 4937TIP3    H214753   4.855   1.251   6.700
 4938TIP3   OH214754   8.038   5.282   6.855
 4938TIP3    H114755   8.008   5.284   6.764
 4938TIP3    H214756   8.118   5.230   6.853
 4939TIP3   OH214757   3.986   7.399   4.920
 4939TIP3    H114758   4.042   7.353   4.983
 4939TIP3    H214759   4.047   7.438   4.858
 4940TIP3   OH214760   6.980   2.007   3.978
 4940TIP3    H114761   7.032   2.017   3.898
 4940TIP3    H214762   7.040   2.032   4.049
 4941TIP3   OH214763   0.308   3.565   3.993
 4941TIP3    H114764   0.218   3.564   3.959
 4941TIP3    H214765   0.332   3.657   3.995
 4942TIP3   OH214766   7.651   1.242   0.728
 4942TIP3    H114767   7.568   1.289   0.725
 4942TIP3    H214768   7.643   1.184   0.804
 4943TIP3   OH214769   1.413   4.078   5.642
 4943TIP3    H114770   1.333   4.057   5.594
 4943TIP3    H214771   1.460   4.139   5.586
 4944TIP3   OH214772   6.507   6.180   3.648
 4944TIP3    H114773   6.582   6.167   3.590
 4944TIP3    H214774   6.529   6.132   3.727
 4945TIP3   OH214775   2.242   4.139   4.329
 4945TIP3    H114776   2.270   4.050   4.307
 4945TIP3    H214777   2.321   4.181   4.363
 4946TIP3   OH214778   0.272   7.082   2.305
 4946TIP3    H114779   0.289   7.145   2.375
 4946TIP3    H214780   0.197   7.119   2.258
 4947TIP3   OH214781   1.452   1.489   2.682
 4947TIP3    H114782   1.467   1.474   2.775
 4947TIP3    H214783   1.535   1.468   2.640
 4948TIP3   OH214784   5.621   5.004   3.826
 4948TIP3    H114785   5.626   5.089   3.781
 4948TIP3    H214786   5.584   4.945   3.761
 4949TIP3   OH214787   3.633   0.294   0.589
 4949TIP3    H114788   3.636   0.341   0.506
 4949TIP3    H214789   3.557   0.330   0.634
 4950TIP3   OH214790   7.135   5.071   1.418
 4950TIP3    H114791   7.057   5.058   1.364
 4950TIP3    H214792   7.100   5.088   1.506
 4951TIP3   OH214793   2.772   3.041   6.862
 4951TIP3    H114794   2.830   3.002   6.927
 4951TIP3    H214795   2.755   2.970   6.800
 4952TIP3   OH214796   1.362   3.644   1.568
 4952TIP3    H114797   1.325   3.559   1.544
 4952TIP3    H214798   1.381   3.687   1.485
 4953TIP3   OH214799   7.067   2.780   4.265
 4953TIP3    H114800   7.085   2.816   4.178
 4953TIP3    H214801   7.111   2.839   4.325
 4954TIP3   OH214802   6.010   6.233   2.186
 4954TIP3    H114803   6.004   6.169   2.115
 4954TIP3    H214804   5.919   6.257   2.204
 4955TIP3   OH214805   1.766   1.102   6.485
 4955TIP3    H114806   1.799   1.191   6.496
 4955TIP3    H214807   1.713   1.085   6.562
 4956TIP3   OH214808   0.777   4.714   2.440
 4956TIP3    H114809   0.842   4.775   2.475
 4956TIP3    H214810   0.823   4.669   2.368
 4957TIP3   OH214811   6.600   6.362   1.160
 4957TIP3    H114812   6.566   6.432   1.216
 4957TIP3    H214813   6.524   6.330   1.113
 4958TIP3   OH214814   0.465   6.613   1.471
 4958TIP3    H114815   0.473   6.607   1.376
 4958TIP3    H214816   0.476   6.522   1.501
 4959TIP3   OH214817   5.471   7.414   0.280
 4959TIP3    H114818   5.509   7.350   0.220
 4959TIP3    H214819   5.493   7.382   0.367
 4960TIP3   OH214820   4.532   7.632   3.319
 4960TIP3    H114821   4.555   7.567   3.252
 4960TIP3    H214822   4.437   7.625   3.329
 4961TIP3   OH214823   0.807   4.006   4.730
 4961TIP3    H114824   0.746   4.068   4.692
 4961TIP3    H214825   0.894   4.041   4.707
 4962TIP3   OH214826   1.697   3.039   6.846
 4962TIP3    H114827   1.746   2.998   6.774
 4962TIP3    H214828   1.705   3.133   6.830
 4963TIP3   OH214829   5.731   3.856   4.166
 4963TIP3    H114830   5.776   3.811   4.094
 4963TIP3    H214831   5.654   3.802   4.184
 4964TIP3   OH214832   7.838   2.841   6.239
 4964TIP3    H114833   7.793   2.780   6.182
 4964TIP3    H214834   7.769   2.878   6.295
 4965TIP3   OH214835   5.940   7.523   0.949
 4965TIP3    H114836   5.963   7.573   1.028
 4965TIP3    H214837   6.002   7.451   0.948
 4966TIP3   OH214838   3.208   7.758   1.999
 4966TIP3    H114839   3.302   7.770   1.984
 4966TIP3    H214840   3.192   7.667   1.974
 4967TIP3   OH214841   2.651   1.823   1.094
 4967TIP3    H114842   2.727   1.814   1.036
 4967TIP3    H214843   2.576   1.812   1.036
 4968TIP3   OH214844   5.333   2.653   6.030
 4968TIP3    H114845   5.372   2.603   6.101
 4968TIP3    H214846   5.386   2.632   5.953
 4969TIP3   OH214847   6.504   1.340   1.123
 4969TIP3    H114848   6.418   1.302   1.141
 4969TIP3    H214849   6.542   1.356   1.209
 4970TIP3   OH214850   4.669   6.175   2.795
 4970TIP3    H114851   4.631   6.092   2.766
 4970TIP3    H214852   4.594   6.234   2.806
 4971TIP3   OH214853   6.384   2.118   4.177
 4971TIP3    H114854   6.347   2.198   4.214
 4971TIP3    H214855   6.475   2.117   4.208
 4972TIP3   OH214856   7.868   4.020   2.655
 4972TIP3    H114857   7.854   4.114   2.670
 4972TIP3    H214858   7.781   3.981   2.663
 4973TIP3   OH214859   3.557   3.643   1.780
 4973TIP3    H114860   3.496   3.574   1.803
 4973TIP3    H214861   3.505   3.705   1.728
 4974TIP3   OH214862   3.742   5.821   1.958
 4974TIP3    H114863   3.836   5.821   1.944
 4974TIP3    H214864   3.719   5.729   1.973
 4975TIP3   OH214865   4.503   3.047   5.224
 4975TIP3    H114866   4.526   3.012   5.310
 4975TIP3    H214867   4.581   3.097   5.197
 4976TIP3   OH214868   4.875   1.538   0.555
 4976TIP3    H114869   4.850   1.519   0.645
 4976TIP3    H214870   4.958   1.586   0.562
 4977TIP3   OH214871   4.329   1.446   0.740
 4977TIP3    H114872   4.379   1.516   0.698
 4977TIP3    H214873   4.291   1.396   0.667
 4978TIP3   OH214874   3.491   2.836   3.384
 4978TIP3    H114875   3.398   2.813   3.382
 4978TIP3    H214876   3.534   2.757   3.417
 4979TIP3   OH214877   4.876   7.401   0.321
 4979TIP3    H114878   4.945   7.452   0.278
 4979TIP3    H214879   4.831   7.357   0.250
 4980TIP3   OH214880   3.323   5.312   6.814
 4980TIP3    H114881   3.239   5.329   6.770
 4980TIP3    H214882   3.309   5.340   6.904
 4981TIP3   OH214883   7.988   0.277   3.622
 4981TIP3    H114884   8.051   0.284   3.551
 4981TIP3    H214885   7.992   0.363   3.665
 4982TIP3   OH214886   3.677   0.604   0.095
 4982TIP3    H114887   3.663   0.680   0.151
 4982TIP3    H214888   3.635   0.627   0.012
 4983TIP3   OH214889   4.089   3.178   0.027
 4983TIP3    H114890   4.025   3.108   0.043
 4983TIP3    H214891   4.036   3.252  -0.004
 4984TIP3   OH214892   7.802   6.573   0.316
 4984TIP3    H114893   7.733   6.529   0.266
 4984TIP3    H214894   7.883   6.533   0.285
 4985TIP3   OH214895   6.808   4.434   2.240
 4985TIP3    H114896   6.823   4.341   2.221
 4985TIP3    H214897   6.745   4.434   2.312
 4986TIP3   OH214898   5.279   5.658   2.807
 4986TIP3    H114899   5.293   5.745   2.769
 4986TIP3    H214900   5.363   5.634   2.845
 4987TIP3   OH214901   1.584   3.734   4.820
 4987TIP3    H114902   1.522   3.791   4.866
 4987TIP3    H214903   1.583   3.765   4.729
 4988TIP3   OH214904   6.934   6.989   0.492
 4988TIP3    H114905   7.000   6.950   0.434
 4988TIP3    H214906   6.979   6.999   0.576
 4989TIP3   OH214907   5.971   1.783   3.399
 4989TIP3    H114908   5.929   1.699   3.418
 4989TIP3    H214909   5.989   1.781   3.306
 4990TIP3   OH214910   1.179   4.159   1.472
 4990TIP3    H114911   1.158   4.091   1.408
 4990TIP3    H214912   1.120   4.141   1.546
 4991TIP3   OH214913   5.582   1.022   2.883
 4991TIP3    H114914   5.609   1.048   2.971
 4991TIP3    H214915   5.614   1.092   2.827
 4992TIP3   OH214916   3.297   6.934   2.007
 4992TIP3    H114917   3.275   6.851   2.049
 4992TIP3    H214918   3.231   6.995   2.039
 4993TIP3   OH214919   2.538   4.077   5.622
 4993TIP3    H114920   2.625   4.043   5.643
 4993TIP3    H214921   2.478   4.011   5.655
 4994TIP3   OH214922   5.449   7.084   1.923
 4994TIP3    H114923   5.491   7.146   1.982
 4994TIP3    H214924   5.420   7.137   1.849
 4995TIP3   OH214925   4.143   2.194   4.338
 4995TIP3    H114926   4.174   2.106   4.359
 4995TIP3    H214927   4.050   2.192   4.356
 4996TIP3   OH214928   4.278   1.768   3.124
 4996TIP3    H114929   4.226   1.847   3.139
 4996TIP3    H214930   4.299   1.737   3.212
 4997TIP3   OH214931   2.031   4.959   2.492
 4997TIP3    H114932   2.014   4.978   2.400
 4997TIP3    H214933   1.971   4.887   2.513
 4998TIP3   OH214934   1.463   0.437   3.676
 4998TIP3    H114935   1.507   0.517   3.704
 4998TIP3    H214936   1.465   0.380   3.753
 4999TIP3   OH214937   6.923   6.514   4.392
 4999TIP3    H114938   6.984   6.441   4.385
 4999TIP3    H214939   6.842   6.481   4.354
 5000TIP3   OH214940   1.733   7.099   2.587
 5000TIP3    H114941   1.794   7.130   2.520
 5000TIP3    H214942   1.706   7.178   2.634
 5001TIP3   OH214943   0.755   7.027   3.098
 5001TIP3    H114944   0.773   6.937   3.126
 5001TIP3    H214945   0.726   7.018   3.008
 5002TIP3   OH214946   6.697   4.193   3.238
 5002TIP3    H114947   6.667   4.252   3.170
 5002TIP3    H214948   6.691   4.244   3.319
 5003TIP3   OH214949   7.846   7.251   2.897
 5003TIP3    H114950   7.791   7.186   2.853
 5003TIP3    H214951   7.934   7.213   2.895
 5004TIP3   OH214952   2.392   4.661   2.909
 5004TIP3    H114953   2.328   4.683   2.841
 5004TIP3    H214954   2.429   4.577   2.881
 5005TIP3   OH214955   7.247   1.669   0.828
 5005TIP3    H114956   7.213   1.619   0.754
 5005TIP3    H214957   7.176   1.730   0.851
 5006TIP3   OH214958   0.195   3.470   1.088
 5006TIP3    H114959   0.257   3.528   1.132
 5006TIP3    H214960   0.230   3.461   0.999
 5007TIP3   OH214961   5.706   1.639   3.097
 5007TIP3    H114962   5.620   1.613   3.065
 5007TIP3    H214963   5.718   1.728   3.063
 5008TIP3   OH214964   1.552   4.296   1.660
 5008TIP3    H114965   1.555   4.390   1.641
 5008TIP3    H214966   1.579   4.288   1.751
 5009TIP3   OH214967   6.598   6.133   0.412
 5009TIP3    H114968   6.529   6.140   0.477
 5009TIP3    H214969   6.665   6.078   0.454
 5010TIP3   OH214970   7.570   4.243   1.443
 5010TIP3    H114971   7.504   4.179   1.417
 5010TIP3    H214972   7.612   4.204   1.520
 5011TIP3   OH214973   2.545   0.289   0.942
 5011TIP3    H114974   2.501   0.348   0.881
 5011TIP3    H214975   2.488   0.212   0.946
 5012TIP3   OH214976   1.546   5.621   6.732
 5012TIP3    H114977   1.537   5.603   6.826
 5012TIP3    H214978   1.503   5.548   6.688
 5013TIP3   OH214979   7.582   0.476   0.530
 5013TIP3    H114980   7.666   0.522   0.523
 5013TIP3    H214981   7.516   0.546   0.523
 5014TIP3   OH214982   1.743   4.834   1.261
 5014TIP3    H114983   1.705   4.786   1.187
 5014TIP3    H214984   1.703   4.793   1.338
 5015TIP3   OH214985   1.450   5.855   5.106
 5015TIP3    H114986   1.400   5.874   5.185
 5015TIP3    H214987   1.538   5.888   5.124
 5016TIP3   OH214988   6.694   3.582   5.292
 5016TIP3    H114989   6.748   3.519   5.339
 5016TIP3    H214990   6.718   3.570   5.200
 5017TIP3   OH214991   5.488   1.836   6.432
 5017TIP3    H114992   5.470   1.761   6.488
 5017TIP3    H214993   5.449   1.910   6.478
 5018TIP3   OH214994   7.725   2.451   6.081
 5018TIP3    H114995   7.758   2.517   6.020
 5018TIP3    H214996   7.791   2.448   6.151
 5019TIP3   OH214997   0.041   2.581   6.373
 5019TIP3    H114998   0.070   2.490   6.369
 5019TIP3    H214999   0.120   2.633   6.361
 5020TIP3   OH215000   2.627   0.966   2.412
 5020TIP3    H115001   2.651   0.995   2.324
 5020TIP3    H215002   2.535   0.943   2.406
 5021TIP3   OH215003   0.991   3.845   3.976
 5021TIP3    H115004   0.969   3.883   3.891
 5021TIP3    H215005   0.993   3.919   4.036
 5022TIP3   OH215006   3.165   2.755   4.387
 5022TIP3    H115007   3.160   2.803   4.470
 5022TIP3    H215008   3.256   2.725   4.383
 5023TIP3   OH215009   3.260   2.889   4.064
 5023TIP3    H115010   3.334   2.877   4.004
 5023TIP3    H215011   3.200   2.817   4.042
 5024TIP3   OH215012   1.550   6.016   1.221
 5024TIP3    H115013   1.575   6.104   1.249
 5024TIP3    H215014   1.472   5.995   1.273
 5025TIP3   OH215015   0.022   1.720   4.705
 5025TIP3    H115016  -0.004   1.753   4.619
 5025TIP3    H215017   0.038   1.799   4.757
 5026TIP3   OH215018   5.452   5.084   2.953
 5026TIP3    H115019   5.374   5.033   2.933
 5026TIP3    H215020   5.521   5.019   2.965
 5027TIP3   OH215021   3.933   4.379   1.956
 5027TIP3    H115022   3.986   4.325   1.897
 5027TIP3    H215023   3.853   4.396   1.906
 5028TIP3   OH215024   5.446   3.148   4.459
 5028TIP3    H115025   5.486   3.151   4.546
 5028TIP3    H215026   5.502   3.087   4.410
 5029TIP3   OH215027   6.573   5.327   5.721
 5029TIP3    H115028   6.542   5.237   5.725
 5029TIP3    H215029   6.504   5.374   5.674
 5030TIP3   OH215030   2.205   6.388   0.790
 5030TIP3    H115031   2.163   6.378   0.875
 5030TIP3    H215032   2.298   6.369   0.807
 5031TIP3   OH215033   8.309   5.494   0.351
 5031TIP3    H115034   8.341   5.421   0.297
 5031TIP3    H215035   8.297   5.565   0.288
 5032TIP3   OH215036   1.375   6.796   5.909
 5032TIP3    H115037   1.340   6.865   5.854
 5032TIP3    H215038   1.303   6.732   5.915
 5033TIP3   OH215039   1.636   3.849   0.327
 5033TIP3    H115040   1.677   3.790   0.264
 5033TIP3    H215041   1.709   3.897   0.366
 5034TIP3   OH215042   6.130   1.718   0.814
 5034TIP3    H115043   6.206   1.776   0.817
 5034TIP3    H215044   6.116   1.691   0.904
 5035TIP3   OH215045   5.318   5.320   0.565
 5035TIP3    H115046   5.364   5.309   0.482
 5035TIP3    H215047   5.332   5.237   0.610
 5036TIP3   OH215048   2.735   7.243   3.116
 5036TIP3    H115049   2.764   7.216   3.203
 5036TIP3    H215050   2.681   7.171   3.085
 5037TIP3   OH215051   4.446   2.829   5.748
 5037TIP3    H115052   4.360   2.853   5.782
 5037TIP3    H215053   4.504   2.902   5.772
 5038TIP3   OH215054   2.289   5.954   0.628
 5038TIP3    H115055   2.294   6.002   0.546
 5038TIP3    H215056   2.248   5.870   0.605
 5039TIP3   OH215057   1.841   3.718   3.516
 5039TIP3    H115058   1.930   3.732   3.550
 5039TIP3    H215059   1.821   3.799   3.468
 5040TIP3   OH215060   6.907   1.179   4.800
 5040TIP3    H115061   6.925   1.085   4.801
 5040TIP3    H215062   6.849   1.191   4.724
 5041TIP3   OH215063   2.351   6.067   5.603
 5041TIP3    H115064   2.430   6.087   5.553
 5041TIP3    H215065   2.373   5.987   5.651
 5042TIP3   OH215066   2.113   6.320   4.257
 5042TIP3    H115067   2.206   6.338   4.245
 5042TIP3    H215068   2.107   6.224   4.257
 5043TIP3   OH215069   7.340   0.458   4.870
 5043TIP3    H115070   7.301   0.530   4.819
 5043TIP3    H215071   7.428   0.449   4.834
 5044TIP3   OH215072   5.586   0.769   6.686
 5044TIP3    H115073   5.573   0.699   6.750
 5044TIP3    H215074   5.612   0.845   6.739
 5045TIP3   OH215075   7.693   2.735   6.008
 5045TIP3    H115076   7.616   2.777   5.971
 5045TIP3    H215077   7.752   2.722   5.934
 5046TIP3   OH215078   2.722   7.114   2.615
 5046TIP3    H115079   2.701   7.021   2.609
 5046TIP3    H215080   2.736   7.129   2.709
 5047TIP3   OH215081   3.069   1.304   2.623
 5047TIP3    H115082   2.994   1.359   2.645
 5047TIP3    H215083   3.108   1.282   2.708
 5048TIP3   OH215084   5.428   5.975   0.459
 5048TIP3    H115085   5.473   5.983   0.375
 5048TIP3    H215086   5.497   5.953   0.521
 5049TIP3   OH215087   0.997   3.865   4.318
 5049TIP3    H115088   1.088   3.883   4.294
 5049TIP3    H215089   0.995   3.869   4.413
 5050TIP3   OH215090   6.614   5.384   3.634
 5050TIP3    H115091   6.636   5.420   3.548
 5050TIP3    H215092   6.532   5.337   3.621
 5051TIP3   OH215093   2.684   3.986   0.772
 5051TIP3    H115094   2.650   4.054   0.829
 5051TIP3    H215095   2.640   4.001   0.688
 5052TIP3   OH215096   2.640   7.596   3.798
 5052TIP3    H115097   2.627   7.691   3.791
 5052TIP3    H215098   2.687   7.572   3.718
 5053TIP3   OH215099   3.833   7.353   1.127
 5053TIP3    H115100   3.921   7.318   1.115
 5053TIP3    H215101   3.835   7.391   1.215
 5054TIP3   OH215102   2.953   0.004   1.214
 5054TIP3    H115103   2.907   0.020   1.132
 5054TIP3    H215104   2.924   0.075   1.272
 5055TIP3   OH215105   1.055   6.397   2.024
 5055TIP3    H115106   1.075   6.404   1.931
 5055TIP3    H215107   0.965   6.427   2.032
 5056TIP3   OH215108   5.421   5.892   2.794
 5056TIP3    H115109   5.418   5.981   2.829
 5056TIP3    H215110   5.499   5.853   2.834
 5057TIP3   OH215111   7.282   1.486   2.058
 5057TIP3    H115112   7.211   1.538   2.020
 5057TIP3    H215113   7.309   1.535   2.135
 5058TIP3   OH215114   8.266   5.152   0.321
 5058TIP3    H115115   8.357   5.182   0.332
 5058TIP3    H215116   8.240   5.124   0.409
 5059TIP3   OH215117   6.234   4.425   1.053
 5059TIP3    H115118   6.146   4.451   1.083
 5059TIP3    H215119   6.242   4.334   1.079
 5060TIP3   OH215120   2.262   0.810   0.546
 5060TIP3    H115121   2.356   0.815   0.527
 5060TIP3    H215122   2.244   0.717   0.557
 5061TIP3   OH215123   3.890   7.483   6.246
 5061TIP3    H115124   3.913   7.443   6.163
 5061TIP3    H215125   3.811   7.534   6.227
 5062TIP3   OH215126   2.610   3.703   5.572
 5062TIP3    H115127   2.682   3.724   5.632
 5062TIP3    H215128   2.589   3.612   5.591
 5063TIP3   OH215129   4.229   6.763   3.751
 5063TIP3    H115130   4.262   6.674   3.749
 5063TIP3    H215131   4.294   6.812   3.802
 5064TIP3   OH215132   2.501   0.569   3.989
 5064TIP3    H115133   2.495   0.623   4.068
 5064TIP3    H215134   2.452   0.490   4.011
 5065TIP3   OH215135   0.174   3.169   4.187
 5065TIP3    H115136   0.141   3.258   4.199
 5065TIP3    H215137   0.269   3.178   4.194
 5066TIP3   OH215138   6.888   6.316   5.353
 5066TIP3    H115139   6.795   6.297   5.367
 5066TIP3    H215140   6.921   6.239   5.306
 5067TIP3   OH215141   0.510   6.719   6.758
 5067TIP3    H115142   0.582   6.670   6.799
 5067TIP3    H215143   0.431   6.675   6.787
 5068TIP3   OH215144   7.101   2.558   5.765
 5068TIP3    H115145   7.031   2.504   5.802
 5068TIP3    H215146   7.072   2.578   5.676
 5069TIP3   OH215147   1.643   1.228   2.595
 5069TIP3    H115148   1.738   1.237   2.592
 5069TIP3    H215149   1.614   1.245   2.506
 5070TIP3   OH215150   4.571   7.832   1.979
 5070TIP3    H115151   4.644   7.848   2.039
 5070TIP3    H215152   4.531   7.751   2.011
 5071TIP3   OH215153   5.783   1.457   1.590
 5071TIP3    H115154   5.748   1.541   1.561
 5071TIP3    H215155   5.708   1.413   1.632
 5072TIP3   OH215156   1.651   3.018   1.492
 5072TIP3    H115157   1.734   2.974   1.474
 5072TIP3    H215158   1.633   2.998   1.584
 5073TIP3   OH215159   3.002   7.001   5.365
 5073TIP3    H115160   3.055   6.921   5.357
 5073TIP3    H215161   2.913   6.973   5.343
 5074TIP3   OH215162   1.280   7.624   1.444
 5074TIP3    H115163   1.284   7.677   1.524
 5074TIP3    H215164   1.305   7.684   1.374
 5075TIP3   OH215165   4.549   3.984   0.579
 5075TIP3    H115166   4.611   3.912   0.565
 5075TIP3    H215167   4.486   3.976   0.509
 5076TIP3   OH215168   2.470   3.145   0.083
 5076TIP3    H115169   2.445   3.066   0.035
 5076TIP3    H215170   2.516   3.113   0.160
 5077TIP3   OH215171   0.320   4.035   0.551
 5077TIP3    H115172   0.278   4.037   0.465
 5077TIP3    H215173   0.410   4.007   0.533
 5078TIP3   OH215174   0.620   2.033   2.497
 5078TIP3    H115175   0.620   2.030   2.592
 5078TIP3    H215176   0.578   1.951   2.470
 5079TIP3   OH215177   6.211   3.048   1.686
 5079TIP3    H115178   6.163   3.118   1.642
 5079TIP3    H215179   6.302   3.061   1.659
 5080TIP3   OH215180   1.424   0.359   2.756
 5080TIP3    H115181   1.470   0.422   2.811
 5080TIP3    H215182   1.374   0.413   2.695
 5081TIP3   OH215183   6.941   2.188   1.326
 5081TIP3    H115184   6.889   2.253   1.374
 5081TIP3    H215185   7.028   2.193   1.367
 5082TIP3   OH215186   3.205   6.125   3.355
 5082TIP3    H115187   3.286   6.101   3.400
 5082TIP3    H215188   3.146   6.151   3.425
 5083TIP3   OH215189   3.001   5.385   0.070
 5083TIP3    H115190   3.082   5.406   0.025
 5083TIP3    H215191   3.007   5.432   0.153
 5084TIP3   OH215192   3.909   4.547   3.566
 5084TIP3    H115193   3.894   4.554   3.660
 5084TIP3    H215194   3.845   4.605   3.527
 5085TIP3   OH215195   1.598   1.595   4.208
 5085TIP3    H115196   1.683   1.591   4.162
 5085TIP3    H215197   1.533   1.593   4.138
 5086TIP3   OH215198   3.465   3.352   2.493
 5086TIP3    H115199   3.482   3.358   2.587
 5086TIP3    H215200   3.393   3.289   2.486
 5087TIP3   OH215201   6.745   6.380   0.402
 5087TIP3    H115202   6.832   6.357   0.433
 5087TIP3    H215203   6.697   6.297   0.400
 5088TIP3   OH215204   1.213   4.225   0.870
 5088TIP3    H115205   1.166   4.266   0.943
 5088TIP3    H215206   1.233   4.136   0.900
 5089TIP3   OH215207   0.698   7.130   2.825
 5089TIP3    H115208   0.664   7.202   2.877
 5089TIP3    H215209   0.779   7.164   2.786
 5090TIP3   OH215210   7.412   1.073   2.363
 5090TIP3    H115211   7.387   1.162   2.340
 5090TIP3    H215212   7.506   1.069   2.345
 5091TIP3   OH215213   4.603   2.996   5.886
 5091TIP3    H115214   4.676   3.005   5.947
 5091TIP3    H215215   4.551   3.076   5.897
 5092TIP3   OH215216   6.304   7.601   6.366
 5092TIP3    H115217   6.316   7.534   6.298
 5092TIP3    H215218   6.213   7.628   6.357
 5093TIP3   OH215219   0.037   1.184   5.492
 5093TIP3    H115220  -0.048   1.146   5.515
 5093TIP3    H215221   0.018   1.246   5.422
 5094TIP3   OH215222   0.662   7.165   5.274
 5094TIP3    H115223   0.751   7.136   5.294
 5094TIP3    H215224   0.649   7.142   5.182
 5095TIP3   OH215225   5.323   4.410   0.105
 5095TIP3    H115226   5.301   4.358   0.028
 5095TIP3    H215227   5.418   4.414   0.106
 5096TIP3   OH215228   2.077   3.724   5.613
 5096TIP3    H115229   2.158   3.698   5.657
 5096TIP3    H215230   2.007   3.697   5.673
 5097TIP3   OH215231   0.948   1.812   2.246
 5097TIP3    H115232   0.860   1.788   2.274
 5097TIP3    H215233   0.999   1.732   2.255
 5098TIP3   OH215234   6.299   4.018   6.362
 5098TIP3    H115235   6.242   4.092   6.339
 5098TIP3    H215236   6.388   4.050   6.345
 5099TIP3   OH215237   7.011   4.889   4.302
 5099TIP3    H115238   7.037   4.931   4.384
 5099TIP3    H215239   6.915   4.893   4.303
 5100TIP3   OH215240   1.375   3.584   0.545
 5100TIP3    H115241   1.323   3.613   0.470
 5100TIP3    H215242   1.421   3.663   0.573
 5101TIP3   OH215243   0.750   3.503   5.828
 5101TIP3    H115244   0.785   3.413   5.823
 5101TIP3    H215245   0.693   3.511   5.752
 5102TIP3   OH215246   3.817   1.676   2.088
 5102TIP3    H115247   3.867   1.703   2.165
 5102TIP3    H215248   3.874   1.612   2.045
 5103TIP3   OH215249   7.455   6.350   6.008
 5103TIP3    H115250   7.418   6.414   5.948
 5103TIP3    H215251   7.386   6.333   6.071
 5104TIP3   OH215252   7.168   1.746   2.804
 5104TIP3    H115253   7.129   1.692   2.872
 5104TIP3    H215254   7.153   1.698   2.722
 5105TIP3   OH215255   2.923   6.291   1.560
 5105TIP3    H115256   3.011   6.254   1.561
 5105TIP3    H215257   2.931   6.374   1.607
 5106TIP3   OH215258   6.248   2.809   4.567
 5106TIP3    H115259   6.218   2.743   4.504
 5106TIP3    H215260   6.222   2.775   4.652
 5107TIP3   OH215261   8.103   3.277   0.728
 5107TIP3    H115262   8.074   3.363   0.759
 5107TIP3    H215263   8.052   3.215   0.780
 5108TIP3   OH215264   5.190   4.432   3.422
 5108TIP3    H115265   5.142   4.353   3.447
 5108TIP3    H215266   5.186   4.434   3.326
 5109TIP3   OH215267   8.203   4.495   1.429
 5109TIP3    H115268   8.200   4.493   1.525
 5109TIP3    H215269   8.132   4.437   1.401
 5110TIP3   OH215270   5.298   1.853   1.380
 5110TIP3    H115271   5.324   1.909   1.306
 5110TIP3    H215272   5.345   1.771   1.365
 5111TIP3   OH215273   7.731   7.854   2.060
 5111TIP3    H115274   7.790   7.929   2.070
 5111TIP3    H215275   7.643   7.892   2.056
 5112TIP3   OH215276   6.019   4.161   2.073
 5112TIP3    H115277   6.025   4.254   2.049
 5112TIP3    H215278   6.101   4.123   2.042
 5113TIP3   OH215279   5.230   4.382   5.092
 5113TIP3    H115280   5.273   4.300   5.117
 5113TIP3    H215281   5.169   4.400   5.163
 5114TIP3   OH215282   3.949   4.142   5.245
 5114TIP3    H115283   4.025   4.164   5.192
 5114TIP3    H215284   3.878   4.193   5.208
 5115TIP3   OH215285   1.603   3.556   1.731
 5115TIP3    H115286   1.593   3.603   1.814
 5115TIP3    H215287   1.521   3.573   1.684
 5116TIP3   OH215288   7.975   5.241   0.945
 5116TIP3    H115289   7.996   5.258   0.853
 5116TIP3    H215290   8.021   5.159   0.965
 5117TIP3   OH215291   3.112   6.417   2.410
 5117TIP3    H115292   3.031   6.372   2.387
 5117TIP3    H215293   3.170   6.401   2.335
 5118TIP3   OH215294   7.986   1.113   3.091
 5118TIP3    H115295   7.891   1.108   3.097
 5118TIP3    H215296   8.008   1.201   3.120
 5119TIP3   OH215297   1.411   7.704   2.448
 5119TIP3    H115298   1.394   7.610   2.445
 5119TIP3    H215299   1.326   7.745   2.431
 5120TIP3   OH215300   2.468   6.732   6.616
 5120TIP3    H115301   2.520   6.812   6.614
 5120TIP3    H215302   2.518   6.669   6.564
 5121TIP3   OH215303   6.851   7.637   3.927
 5121TIP3    H115304   6.909   7.697   3.973
 5121TIP3    H215305   6.812   7.690   3.857
 5122TIP3   OH215306   1.852   1.695   5.701
 5122TIP3    H115307   1.936   1.665   5.665
 5122TIP3    H215308   1.842   1.784   5.668
 5123TIP3   OH215309   7.989   0.410   6.167
 5123TIP3    H115310   7.977   0.480   6.232
 5123TIP3    H215311   8.007   0.332   6.219
 5124TIP3   OH215312   7.419   4.755   5.268
 5124TIP3    H115313   7.342   4.799   5.304
 5124TIP3    H215314   7.485   4.762   5.337
 5125TIP3   OH215315   6.488   1.576   0.556
 5125TIP3    H115316   6.397   1.605   0.565
 5125TIP3    H215317   6.482   1.492   0.510
 5126TIP3   OH215318   6.905   6.921   0.841
 5126TIP3    H115319   6.839   6.936   0.908
 5126TIP3    H215320   6.908   7.003   0.792
 5127TIP3   OH215321   8.120   2.241   0.775
 5127TIP3    H115322   8.208   2.279   0.779
 5127TIP3    H215323   8.079   2.283   0.700
 5128TIP3   OH215324   6.933   0.140   3.521
 5128TIP3    H115325   6.984   0.059   3.518
 5128TIP3    H215326   6.906   0.148   3.613
 5129TIP3   OH215327   6.553   5.813   2.609
 5129TIP3    H115328   6.573   5.872   2.537
 5129TIP3    H215329   6.457   5.810   2.612
 5130TIP3   OH215330   0.504   5.395   3.262
 5130TIP3    H115331   0.577   5.448   3.231
 5130TIP3    H215332   0.544   5.322   3.309
 5131TIP3   OH215333   2.660   3.300   6.384
 5131TIP3    H115334   2.667   3.394   6.367
 5131TIP3    H215335   2.567   3.287   6.404
 5132TIP3   OH215336   1.191   3.634   0.346
 5132TIP3    H115337   1.100   3.651   0.324
 5132TIP3    H215338   1.231   3.610   0.262
 5133TIP3   OH215339   2.040   5.463   6.199
 5133TIP3    H115340   2.034   5.376   6.159
 5133TIP3    H215341   2.133   5.485   6.193
 5134TIP3   OH215342   4.498   5.829   0.659
 5134TIP3    H115343   4.584   5.788   0.665
 5134TIP3    H215344   4.513   5.910   0.611
 5135TIP3   OH215345   1.535   4.479   1.310
 5135TIP3    H115346   1.618   4.445   1.278
 5135TIP3    H215347   1.486   4.401   1.338
 5136TIP3   OH215348   1.338   2.037   1.677
 5136TIP3    H115349   1.342   2.005   1.767
 5136TIP3    H215350   1.299   1.965   1.628
 5137TIP3   OH215351   8.286   4.698   2.822
 5137TIP3    H115352   8.352   4.646   2.867
 5137TIP3    H215353   8.205   4.647   2.831
 5138TIP3   OH215354   3.475   7.296   0.987
 5138TIP3    H115355   3.421   7.283   1.065
 5138TIP3    H215356   3.468   7.213   0.940
 5139TIP3   OH215357   0.095   5.554   0.963
 5139TIP3    H115358   0.130   5.642   0.954
 5139TIP3    H215359   0.014   5.565   1.014
 5140TIP3   OH215360   2.422   5.020   0.300
 5140TIP3    H115361   2.357   5.083   0.330
 5140TIP3    H215362   2.437   4.963   0.375
 5141TIP3   OH215363   3.374   4.182   5.264
 5141TIP3    H115364   3.326   4.229   5.195
 5141TIP3    H215365   3.387   4.248   5.332
 5142TIP3   OH215366   3.216   7.684   0.169
 5142TIP3    H115367   3.297   7.730   0.148
 5142TIP3    H215368   3.165   7.688   0.088
 5143TIP3   OH215369   8.335   7.622   2.102
 5143TIP3    H115370   8.262   7.683   2.095
 5143TIP3    H215371   8.294   7.536   2.104
 5144TIP3   OH215372   1.181   3.153   4.722
 5144TIP3    H115373   1.128   3.077   4.744
 5144TIP3    H215374   1.272   3.122   4.728
 5145TIP3   OH215375   4.825   7.701   2.948
 5145TIP3    H115376   4.776   7.741   2.876
 5145TIP3    H215377   4.905   7.753   2.955
 5146TIP3   OH215378   3.289   1.176   5.574
 5146TIP3    H115379   3.354   1.230   5.529
 5146TIP3    H215380   3.334   1.094   5.591
 5147TIP3   OH215381   1.279   3.700   4.726
 5147TIP3    H115382   1.366   3.706   4.765
 5147TIP3    H215383   1.296   3.678   4.634
 5148TIP3   OH215384   4.713   5.052   0.888
 5148TIP3    H115385   4.783   5.087   0.943
 5148TIP3    H215386   4.633   5.091   0.923
 5149TIP3   OH215387   0.703   0.509   2.182
 5149TIP3    H115388   0.631   0.567   2.208
 5149TIP3    H215389   0.775   0.534   2.239
 5150TIP3   OH215390   6.128   6.082   1.887
 5150TIP3    H115391   6.144   6.054   1.796
 5150TIP3    H215392   6.037   6.113   1.886
 5151TIP3   OH215393   6.397   3.993   4.579
 5151TIP3    H115394   6.355   4.048   4.645
 5151TIP3    H215395   6.451   3.932   4.629
 5152TIP3   OH215396   0.921   6.241   5.309
 5152TIP3    H115397   0.989   6.256   5.243
 5152TIP3    H215398   0.866   6.319   5.305
 5153TIP3   OH215399   5.465   4.749   1.773
 5153TIP3    H115400   5.442   4.657   1.764
 5153TIP3    H215401   5.525   4.752   1.847
 5154TIP3   OH215402   2.220   5.088   4.152
 5154TIP3    H115403   2.130   5.083   4.122
 5154TIP3    H215404   2.232   5.181   4.174
 5155TIP3   OH215405   7.935   6.755   5.360
 5155TIP3    H115406   7.918   6.710   5.278
 5155TIP3    H215407   7.852   6.797   5.383
 5156TIP3   OH215408   2.597   7.678   1.997
 5156TIP3    H115409   2.563   7.755   2.042
 5156TIP3    H215410   2.692   7.682   2.010
 5157TIP3   OH215411   6.400   7.340   2.134
 5157TIP3    H115412   6.387   7.331   2.228
 5157TIP3    H215413   6.446   7.423   2.124
 5158TIP3   OH215414   6.884   0.250   5.956
 5158TIP3    H115415   6.844   0.170   5.921
 5158TIP3    H215416   6.975   0.227   5.971
 5159TIP3   OH215417   4.485   1.412   6.558
 5159TIP3    H115418   4.431   1.394   6.480
 5159TIP3    H215419   4.522   1.326   6.581
 5160TIP3   OH215420   3.534   2.858   1.113
 5160TIP3    H115421   3.461   2.846   1.052
 5160TIP3    H215422   3.608   2.814   1.071
 5161TIP3   OH215423   0.098   3.810   0.123
 5161TIP3    H115424   0.069   3.900   0.107
 5161TIP3    H215425   0.186   3.807   0.084
 5162TIP3   OH215426   1.960   1.909   3.441
 5162TIP3    H115427   1.896   1.979   3.429
 5162TIP3    H215428   1.913   1.830   3.416
 5163TIP3   OH215429   2.477   7.162   1.597
 5163TIP3    H115430   2.475   7.073   1.562
 5163TIP3    H215431   2.405   7.165   1.659
 5164TIP3   OH215432   2.828   2.882   6.349
 5164TIP3    H115433   2.762   2.830   6.395
 5164TIP3    H215434   2.813   2.863   6.257
 5165TIP3   OH215435   7.454   0.690   5.410
 5165TIP3    H115436   7.480   0.734   5.329
 5165TIP3    H215437   7.363   0.663   5.394
 5166TIP3   OH215438   0.167   1.107   2.537
 5166TIP3    H115439   0.242   1.050   2.556
 5166TIP3    H215440   0.105   1.050   2.491
 5167TIP3   OH215441   4.785   2.279   0.727
 5167TIP3    H115442   4.721   2.313   0.789
 5167TIP3    H215443   4.857   2.248   0.782
 5168TIP3   OH215444   7.107   1.759   4.912
 5168TIP3    H115445   7.198   1.780   4.932
 5168TIP3    H215446   7.111   1.677   4.863
 5169TIP3   OH215447   2.431   1.312   1.445
 5169TIP3    H115448   2.456   1.229   1.406
 5169TIP3    H215449   2.495   1.327   1.514
 5170TIP3   OH215450   8.345   3.483   5.949
 5170TIP3    H115451   8.329   3.412   5.887
 5170TIP3    H215452   8.379   3.441   6.027
 5171TIP3   OH215453   5.826   7.676   4.934
 5171TIP3    H115454   5.787   7.636   5.011
 5171TIP3    H215455   5.769   7.750   4.913
 5172TIP3   OH215456   2.923   5.939   3.636
 5172TIP3    H115457   2.829   5.948   3.619
 5172TIP3    H215458   2.928   5.908   3.727
 5173TIP3   OH215459   3.547   7.267   2.574
 5173TIP3    H115460   3.487   7.336   2.601
 5173TIP3    H215461   3.502   7.185   2.596
 5174TIP3   OH215462   3.088   7.886   1.782
 5174TIP3    H115463   3.142   7.855   1.709
 5174TIP3    H215464   3.119   7.836   1.858
 5175TIP3   OH215465   1.480   3.972   4.653
 5175TIP3    H115466   1.449   3.977   4.744
 5175TIP3    H215467   1.570   4.004   4.657
 5176TIP3   OH215468   0.556   3.359   4.390
 5176TIP3    H115469   0.532   3.416   4.317
 5176TIP3    H215470   0.649   3.340   4.375
 5177TIP3   OH215471   8.031   6.607   2.645
 5177TIP3    H115472   8.090   6.682   2.650
 5177TIP3    H215473   7.997   6.597   2.734
 5178TIP3   OH215474   3.927   3.877   6.269
 5178TIP3    H115475   3.843   3.867   6.226
 5178TIP3    H215476   3.957   3.788   6.286
 5179TIP3   OH215477   7.013   2.981   3.771
 5179TIP3    H115478   7.093   2.991   3.720
 5179TIP3    H215479   6.943   2.986   3.706
 5180TIP3   OH215480   7.795   3.745   6.243
 5180TIP3    H115481   7.714   3.756   6.292
 5180TIP3    H215482   7.836   3.667   6.282
 5181TIP3   OH215483   0.242   1.004   0.381
 5181TIP3    H115484   0.215   1.089   0.347
 5181TIP3    H215485   0.185   0.941   0.337
 5182TIP3   OH215486   6.666   3.967   4.389
 5182TIP3    H115487   6.707   3.889   4.350
 5182TIP3    H215488   6.719   3.986   4.466
 5183TIP3   OH215489   2.821   1.558   3.705
 5183TIP3    H115490   2.757   1.625   3.682
 5183TIP3    H215491   2.855   1.527   3.621
 5184TIP3   OH215492   3.732   2.178   4.054
 5184TIP3    H115493   3.739   2.112   3.985
 5184TIP3    H215494   3.639   2.203   4.054
 5185TIP3   OH215495   5.437   3.740   1.956
 5185TIP3    H115496   5.403   3.706   2.039
 5185TIP3    H215497   5.526   3.768   1.976
 5186TIP3   OH215498   8.254   0.974   3.736
 5186TIP3    H115499   8.271   1.030   3.811
 5186TIP3    H215500   8.339   0.966   3.692
 5187TIP3   OH215501   6.552   0.820   2.014
 5187TIP3    H115502   6.501   0.814   1.933
 5187TIP3    H215503   6.492   0.859   2.077
 5188TIP3   OH215504   4.846   0.998   5.487
 5188TIP3    H115505   4.864   0.928   5.425
 5188TIP3    H215506   4.906   0.982   5.560
 5189TIP3   OH215507   3.936   5.311   1.371
 5189TIP3    H115508   4.000   5.359   1.424
 5189TIP3    H215509   3.975   5.309   1.283
 5190TIP3   OH215510   0.121   4.212   3.288
 5190TIP3    H115511   0.058   4.188   3.220
 5190TIP3    H215512   0.122   4.137   3.347
 5191TIP3   OH215513   5.565   7.318   4.274
 5191TIP3    H115514   5.500   7.384   4.298
 5191TIP3    H215515   5.599   7.348   4.189
 5192TIP3   OH215516   6.321   3.672   6.453
 5192TIP3    H115517   6.308   3.648   6.545
 5192TIP3    H215518   6.236   3.659   6.412
 5193TIP3   OH215519   0.449   5.906   4.928
 5193TIP3    H115520   0.432   5.835   4.990
 5193TIP3    H215521   0.529   5.947   4.960
 5194TIP3   OH215522   3.872   3.480   5.478
 5194TIP3    H115523   3.888   3.390   5.447
 5194TIP3    H215524   3.915   3.535   5.413
 5195TIP3   OH215525   6.947   6.277   0.735
 5195TIP3    H115526   6.996   6.354   0.765
 5195TIP3    H215527   6.970   6.269   0.643
 5196TIP3   OH215528   7.760   0.765   1.575
 5196TIP3    H115529   7.850   0.782   1.604
 5196TIP3    H215530   7.718   0.850   1.574
 5197TIP3   OH215531   2.634   2.816   0.698
 5197TIP3    H115532   2.642   2.826   0.793
 5197TIP3    H215533   2.646   2.904   0.663
 5198TIP3   OH215534   7.004   5.801   4.231
 5198TIP3    H115535   6.976   5.755   4.310
 5198TIP3    H215536   7.047   5.734   4.177
 5199TIP3   OH215537   0.790   0.146   0.433
 5199TIP3    H115538   0.809   0.222   0.489
 5199TIP3    H215539   0.876   0.109   0.412
 5200TIP3   OH215540   3.485   3.443   0.957
 5200TIP3    H115541   3.486   3.507   0.886
 5200TIP3    H215542   3.536   3.369   0.924
 5201TIP3   OH215543   4.051   6.359   0.089
 5201TIP3    H115544   4.128   6.304   0.073
 5201TIP3    H215545   3.982   6.319   0.036
 5202TIP3   OH215546   3.621   7.157   5.430
 5202TIP3    H115547   3.650   7.234   5.478
 5202TIP3    H215548   3.613   7.088   5.496
 5203TIP3   OH215549   0.988   3.844   0.409
 5203TIP3    H115550   0.930   3.769   0.416
 5203TIP3    H215551   1.041   3.842   0.489
 5204TIP3   OH215552   2.502   6.341   2.287
 5204TIP3    H115553   2.538   6.278   2.349
 5204TIP3    H215554   2.569   6.350   2.220
 5205TIP3   OH215555   2.296   6.310   5.490
 5205TIP3    H115556   2.238   6.304   5.414
 5205TIP3    H215557   2.260   6.247   5.553
 5206TIP3   OH215558   5.934   0.763   0.397
 5206TIP3    H115559   5.985   0.836   0.361
 5206TIP3    H215560   5.948   0.769   0.492
 5207TIP3   OH215561   8.028   1.358   2.652
 5207TIP3    H115562   7.966   1.425   2.682
 5207TIP3    H215563   7.999   1.277   2.695
 5208TIP3   OH215564   7.535   2.826   6.234
 5208TIP3    H115565   7.595   2.819   6.159
 5208TIP3    H215566   7.449   2.806   6.198
 5209TIP3   OH215567   8.251   7.049   0.231
 5209TIP3    H115568   8.256   7.145   0.224
 5209TIP3    H215569   8.185   7.024   0.166
 5210TIP3   OH215570   1.866   0.454   0.602
 5210TIP3    H115571   1.940   0.445   0.542
 5210TIP3    H215572   1.814   0.525   0.565
 5211TIP3   OH215573   7.533   6.494   2.414
 5211TIP3    H115574   7.609   6.503   2.356
 5211TIP3    H215575   7.458   6.512   2.357
 5212TIP3   OH215576   4.902   0.231   4.776
 5212TIP3    H115577   4.995   0.220   4.758
 5212TIP3    H215578   4.882   0.162   4.839
 5213TIP3   OH215579   5.826   5.262   4.855
 5213TIP3    H115580   5.900   5.227   4.905
 5213TIP3    H215581   5.749   5.222   4.895
 5214TIP3   OH215582   4.361   2.396   5.045
 5214TIP3    H115583   4.305   2.354   4.980
 5214TIP3    H215584   4.301   2.425   5.114
 5215TIP3   OH215585   4.309   0.443   1.105
 5215TIP3    H115586   4.352   0.404   1.181
 5215TIP3    H215587   4.352   0.528   1.094
 5216TIP3   OH215588   3.893   7.297   3.130
 5216TIP3    H115589   3.963   7.357   3.102
 5216TIP3    H215590   3.862   7.258   3.048
 5217TIP3   OH215591   4.596   5.278   4.967
 5217TIP3    H115592   4.532   5.231   4.913
 5217TIP3    H215593   4.646   5.330   4.904
 5218TIP3   OH215594   5.619   5.032   1.856
 5218TIP3    H115595   5.696   5.062   1.903
 5218TIP3    H215596   5.612   4.939   1.876
 5219TIP3   OH215597   2.859   4.854   6.434
 5219TIP3    H115598   2.768   4.830   6.417
 5219TIP3    H215599   2.900   4.773   6.464
 5220TIP3   OH215600   2.057   1.100   5.555
 5220TIP3    H115601   2.039   1.193   5.565
 5220TIP3    H215602   2.152   1.095   5.542
 5221TIP3   OH215603   6.584   6.976   0.644
 5221TIP3    H115604   6.623   7.064   0.647
 5221TIP3    H215605   6.601   6.945   0.555
 5222TIP3   OH215606   3.187   5.927   1.433
 5222TIP3    H115607   3.132   5.869   1.381
 5222TIP3    H215608   3.159   6.015   1.409
 5223TIP3   OH215609   7.332   2.856   0.937
 5223TIP3    H115610   7.332   2.762   0.918
 5223TIP3    H215611   7.277   2.894   0.868
 5224TIP3   OH215612   1.875   0.663   6.010
 5224TIP3    H115613   1.896   0.583   5.961
 5224TIP3    H215614   1.807   0.705   5.957
 5225TIP3   OH215615   5.396   6.111   4.784
 5225TIP3    H115616   5.313   6.155   4.762
 5225TIP3    H215617   5.369   6.023   4.812
 5226TIP3   OH215618   5.103   4.270   3.129
 5226TIP3    H115619   5.170   4.253   3.063
 5226TIP3    H215620   5.098   4.190   3.180
 5227TIP3   OH215621   3.905   4.815   2.893
 5227TIP3    H115622   3.853   4.879   2.942
 5227TIP3    H215623   3.930   4.861   2.813
 5228TIP3   OH215624   7.307   1.607   5.987
 5228TIP3    H115625   7.241   1.652   6.040
 5228TIP3    H215626   7.360   1.559   6.050
 5229TIP3   OH215627   6.137   2.422   4.954
 5229TIP3    H115628   6.087   2.489   5.001
 5229TIP3    H215629   6.187   2.377   5.021
 5230TIP3   OH215630   5.972   1.231   2.808
 5230TIP3    H115631   6.009   1.145   2.786
 5230TIP3    H215632   5.920   1.214   2.886
 5231TIP3   OH215633   7.492   7.676   2.217
 5231TIP3    H115634   7.552   7.602   2.202
 5231TIP3    H215635   7.485   7.718   2.131
 5232TIP3   OH215636   1.590   2.397   5.739
 5232TIP3    H115637   1.636   2.410   5.822
 5232TIP3    H215638   1.606   2.477   5.689
 5233TIP3   OH215639   6.931   5.879   6.195
 5233TIP3    H115640   6.977   5.799   6.220
 5233TIP3    H215641   6.907   5.865   6.103
 5234TIP3   OH215642   4.861   2.825   1.077
 5234TIP3    H115643   4.778   2.811   1.032
 5234TIP3    H215644   4.872   2.920   1.078
 5235TIP3   OH215645   6.906   2.911   6.457
 5235TIP3    H115646   6.948   2.829   6.482
 5235TIP3    H215647   6.909   2.912   6.361
 5236TIP3   OH215648   4.367   2.010   2.026
 5236TIP3    H115649   4.462   2.009   2.036
 5236TIP3    H215650   4.344   2.103   2.032
 5237TIP3   OH215651   5.669   7.323   3.012
 5237TIP3    H115652   5.693   7.231   3.025
 5237TIP3    H215653   5.745   7.362   2.970
 5238TIP3   OH215654   4.523   5.483   5.281
 5238TIP3    H115655   4.478   5.420   5.338
 5238TIP3    H215656   4.456   5.512   5.220
 5239TIP3   OH215657   3.379   4.710   6.355
 5239TIP3    H115658   3.314   4.780   6.367
 5239TIP3    H215659   3.455   4.755   6.318
 5240TIP3   OH215660   2.444   4.042   5.080
 5240TIP3    H115661   2.471   4.034   5.172
 5240TIP3    H215662   2.360   4.088   5.084
 5241TIP3   OH215663   2.597   6.209   2.489
 5241TIP3    H115664   2.674   6.168   2.529
 5241TIP3    H215665   2.523   6.161   2.526
 5242TIP3   OH215666   3.277   0.811   3.885
 5242TIP3    H115667   3.265   0.905   3.871
 5242TIP3    H215668   3.284   0.774   3.797
 5243TIP3   OH215669   2.558   2.239   6.542
 5243TIP3    H115670   2.565   2.312   6.603
 5243TIP3    H215671   2.649   2.221   6.516
 5244TIP3   OH215672   0.478   1.114   5.677
 5244TIP3    H115673   0.413   1.139   5.611
 5244TIP3    H215674   0.538   1.055   5.630
 5245TIP3   OH215675   4.157   1.183   6.791
 5245TIP3    H115676   4.063   1.166   6.796
 5245TIP3    H215677   4.198   1.102   6.823
 5246TIP3   OH215678   3.622   0.082   2.571
 5246TIP3    H115679   3.632  -0.005   2.533
 5246TIP3    H215680   3.534   0.109   2.546
 5247TIP3   OH215681   7.730   0.232   5.306
 5247TIP3    H115682   7.686   0.157   5.348
 5247TIP3    H215683   7.675   0.307   5.328
 5248TIP3   OH215684   3.927   3.814   4.271
 5248TIP3    H115685   3.939   3.880   4.340
 5248TIP3    H215686   4.016   3.796   4.240
 5249TIP3   OH215687   6.054   3.189   3.299
 5249TIP3    H115688   6.050   3.285   3.306
 5249TIP3    H215689   6.137   3.172   3.256
 5250TIP3   OH215690   4.699   5.268   3.791
 5250TIP3    H115691   4.713   5.179   3.761
 5250TIP3    H215692   4.610   5.289   3.764
 5251TIP3   OH215693   7.209   1.654   3.609
 5251TIP3    H115694   7.266   1.640   3.533
 5251TIP3    H215695   7.268   1.657   3.684
 5252TIP3   OH215696   1.369   1.593   1.690
 5252TIP3    H115697   1.281   1.591   1.728
 5252TIP3    H215698   1.381   1.684   1.664
 5253TIP3   OH215699   4.154   4.238   5.081
 5253TIP3    H115700   4.138   4.333   5.080
 5253TIP3    H215701   4.216   4.225   5.009
 5254TIP3   OH215702   3.444   3.940   5.918
 5254TIP3    H115703   3.458   3.846   5.902
 5254TIP3    H215704   3.389   3.968   5.845
 5255TIP3   OH215705   5.459   3.520   5.299
 5255TIP3    H115706   5.370   3.552   5.313
 5255TIP3    H215707   5.506   3.594   5.261
 5256TIP3   OH215708   2.066   1.204   5.931
 5256TIP3    H115709   2.101   1.116   5.913
 5256TIP3    H215710   2.051   1.242   5.845
 5257TIP3   OH215711   0.092   1.090   1.760
 5257TIP3    H115712   0.011   1.080   1.812
 5257TIP3    H215713   0.138   1.008   1.772
 5258TIP3   OH215714   0.344   6.398   5.171
 5258TIP3    H115715   0.275   6.414   5.105
 5258TIP3    H215716   0.321   6.455   5.244
 5259TIP3   OH215717   0.781   7.890   5.681
 5259TIP3    H115718   0.793   7.954   5.612
 5259TIP3    H215719   0.742   7.940   5.754
 5260TIP3   OH215720   3.553   4.003   4.162
 5260TIP3    H115721   3.512   4.082   4.197
 5260TIP3    H215722   3.646   4.024   4.159
 5261TIP3   OH215723   5.926   5.759   5.055
 5261TIP3    H115724   5.900   5.806   4.976
 5261TIP3    H215725   5.942   5.670   5.025
 5262TIP3   OH215726   3.624   5.102   5.872
 5262TIP3    H115727   3.649   5.120   5.781
 5262TIP3    H215728   3.580   5.017   5.868
 5263TIP3   OH215729   7.107   3.776   4.835
 5263TIP3    H115730   7.094   3.800   4.927
 5263TIP3    H215731   7.171   3.705   4.837
 5264TIP3   OH215732   0.096   1.113   3.676
 5264TIP3    H115733   0.135   1.058   3.744
 5264TIP3    H215734   0.149   1.095   3.598
 5265TIP3   OH215735   7.288   4.713   6.848
 5265TIP3    H115736   7.372   4.758   6.863
 5265TIP3    H215737   7.294   4.633   6.900
 5266TIP3   OH215738   5.201   0.845   1.109
 5266TIP3    H115739   5.223   0.938   1.115
 5266TIP3    H215740   5.231   0.807   1.192
 5267TIP3   OH215741   6.412   5.581   0.544
 5267TIP3    H115742   6.465   5.524   0.488
 5267TIP3    H215743   6.430   5.670   0.512
 5268TIP3   OH215744   0.188   2.618   1.005
 5268TIP3    H115745   0.141   2.674   1.066
 5268TIP3    H215746   0.139   2.535   1.005
 5269TIP3   OH215747   0.611   1.501   0.516
 5269TIP3    H115748   0.702   1.521   0.494
 5269TIP3    H215749   0.571   1.587   0.532
 5270TIP3   OH215750   1.262   5.709   4.178
 5270TIP3    H115751   1.195   5.751   4.123
 5270TIP3    H215752   1.313   5.781   4.214
 5271TIP3   OH215753   4.697   2.823   6.769
 5271TIP3    H115754   4.698   2.857   6.680
 5271TIP3    H215755   4.787   2.795   6.785
 5272TIP3   OH215756   3.015   4.812   1.011
 5272TIP3    H115757   3.040   4.806   0.918
 5272TIP3    H215758   2.926   4.845   1.009
 5273TIP3   OH215759   6.762   2.409   6.502
 5273TIP3    H115760   6.713   2.414   6.420
 5273TIP3    H215761   6.732   2.327   6.543
 5274TIP3   OH215762   2.840   0.117   3.528
 5274TIP3    H115763   2.867   0.037   3.574
 5274TIP3    H215764   2.910   0.179   3.544
 5275TIP3   OH215765   4.910   6.773   2.084
 5275TIP3    H115766   4.983   6.830   2.106
 5275TIP3    H215767   4.948   6.709   2.023
 5276TIP3   OH215768   2.149   5.393   3.927
 5276TIP3    H115769   2.111   5.476   3.899
 5276TIP3    H215770   2.197   5.362   3.850
 5277TIP3   OH215771   4.023   2.264   3.736
 5277TIP3    H115772   4.023   2.347   3.689
 5277TIP3    H215773   3.944   2.219   3.706
 5278TIP3   OH215774   4.493   2.615   3.051
 5278TIP3    H115775   4.484   2.543   2.989
 5278TIP3    H215776   4.425   2.599   3.117
 5279TIP3   OH215777   4.996   3.313   2.096
 5279TIP3    H115778   5.020   3.265   2.017
 5279TIP3    H215779   5.078   3.323   2.144
 5280TIP3   OH215780   3.702   1.754   6.104
 5280TIP3    H115781   3.635   1.695   6.139
 5280TIP3    H215782   3.658   1.839   6.099
 5281TIP3   OH215783   8.167   4.581   5.501
 5281TIP3    H115784   8.125   4.511   5.450
 5281TIP3    H215785   8.125   4.661   5.469
 5282TIP3   OH215786   5.104   4.278   3.995
 5282TIP3    H115787   5.156   4.200   4.013
 5282TIP3    H215788   5.130   4.341   4.061
 5283TIP3   OH215789   7.262   2.614   2.182
 5283TIP3    H115790   7.271   2.708   2.199
 5283TIP3    H215791   7.314   2.573   2.251
 5284TIP3   OH215792   2.999   0.765   3.209
 5284TIP3    H115793   3.021   0.711   3.133
 5284TIP3    H215794   2.911   0.797   3.190
 5285TIP3   OH215795   6.299   0.156   2.656
 5285TIP3    H115796   6.292   0.124   2.566
 5285TIP3    H215797   6.324   0.079   2.707
 5286TIP3   OH215798   1.635   1.414   0.645
 5286TIP3    H115799   1.595   1.410   0.558
 5286TIP3    H215800   1.717   1.461   0.633
 5287TIP3   OH215801   7.391   5.120   2.907
 5287TIP3    H115802   7.416   5.118   3.000
 5287TIP3    H215803   7.312   5.175   2.905
 5288TIP3   OH215804   5.865   2.948   1.728
 5288TIP3    H115805   5.938   2.889   1.750
 5288TIP3    H215806   5.858   3.007   1.803
 5289TIP3   OH215807   1.676   6.969   0.061
 5289TIP3    H115808   1.737   6.948   0.132
 5289TIP3    H215809   1.729   6.963  -0.019
 5290TIP3   OH215810   6.707   2.297   3.487
 5290TIP3    H115811   6.651   2.277   3.412
 5290TIP3    H215812   6.773   2.358   3.452
 5291TIP3   OH215813   0.799   2.646   3.222
 5291TIP3    H115814   0.842   2.673   3.142
 5291TIP3    H215815   0.869   2.639   3.286
 5292TIP3   OH215816   0.210   6.476   2.355
 5292TIP3    H115817   0.285   6.472   2.414
 5292TIP3    H215818   0.157   6.549   2.387
 5293TIP3   OH215819   6.779   3.512   2.269
 5293TIP3    H115820   6.852   3.556   2.312
 5293TIP3    H215821   6.806   3.421   2.263
 5294TIP3   OH215822   7.652   7.730   3.830
 5294TIP3    H115823   7.602   7.790   3.776
 5294TIP3    H215824   7.588   7.666   3.861
 5295TIP3   OH215825   3.167   1.077   4.858
 5295TIP3    H115826   3.205   1.145   4.913
 5295TIP3    H215827   3.135   1.012   4.920
 5296TIP3   OH215828   4.587   6.835   5.997
 5296TIP3    H115829   4.528   6.760   6.006
 5296TIP3    H215830   4.654   6.806   5.935
 5297TIP3   OH215831   8.269   6.947   0.682
 5297TIP3    H115832   8.202   6.905   0.735
 5297TIP3    H215833   8.277   7.035   0.719
 5298TIP3   OH215834   7.061   3.915   0.475
 5298TIP3    H115835   7.113   3.995   0.466
 5298TIP3    H215836   6.972   3.943   0.454
 5299TIP3   OH215837   4.683   3.231   5.111
 5299TIP3    H115838   4.666   3.299   5.046
 5299TIP3    H215839   4.775   3.245   5.136
 5300TIP3   OH215840   5.621   0.091   0.480
 5300TIP3    H115841   5.545   0.146   0.496
 5300TIP3    H215842   5.695   0.152   0.477
 5301TIP3   OH215843   4.715   7.262   2.835
 5301TIP3    H115844   4.717   7.267   2.739
 5301TIP3    H215845   4.804   7.283   2.862
 5302TIP3   OH215846   2.189   1.786   3.948
 5302TIP3    H115847   2.173   1.810   3.856
 5302TIP3    H215848   2.264   1.728   3.944
 5303TIP3   OH215849   7.353   5.934   2.243
 5303TIP3    H115850   7.311   5.849   2.254
 5303TIP3    H215851   7.390   5.932   2.155
 5304TIP3   OH215852   4.483   6.851   5.478
 5304TIP3    H115853   4.459   6.847   5.571
 5304TIP3    H215854   4.399   6.854   5.433
 5305TIP3   OH215855  -0.028   6.803   2.054
 5305TIP3    H115856   0.027   6.725   2.048
 5305TIP3    H215857  -0.008   6.853   1.975
 5306TIP3   OH215858   4.801   0.673   2.941
 5306TIP3    H115859   4.797   0.756   2.894
 5306TIP3    H215860   4.816   0.698   3.033
 5307TIP3   OH215861   3.746   7.881   1.620
 5307TIP3    H115862   3.656   7.895   1.590
 5307TIP3    H215863   3.750   7.926   1.705
 5308TIP3   OH215864   1.553   1.818   1.523
 5308TIP3    H115865   1.459   1.810   1.507
 5308TIP3    H215866   1.594   1.801   1.438
 5309TIP3   OH215867   3.082   2.988   3.824
 5309TIP3    H115868   3.053   3.073   3.858
 5309TIP3    H215869   3.155   2.964   3.881
 5310TIP3   OH215870   4.998   2.209   1.327
 5310TIP3    H115871   4.948   2.264   1.388
 5310TIP3    H215872   5.010   2.264   1.249
 5311TIP3   OH215873   2.698   1.222   0.949
 5311TIP3    H115874   2.772   1.171   0.982
 5311TIP3    H215875   2.674   1.279   1.022
 5312TIP3   OH215876   3.771   3.538   1.308
 5312TIP3    H115877   3.747   3.473   1.242
 5312TIP3    H215878   3.688   3.564   1.348
 5313TIP3   OH215879   5.140   6.918   1.959
 5313TIP3    H115880   5.195   6.875   1.894
 5313TIP3    H215881   5.190   6.996   1.984
 5314TIP3   OH215882   2.802   5.952   5.954
 5314TIP3    H115883   2.725   5.907   5.989
 5314TIP3    H215884   2.807   6.033   6.005
 5315TIP3   OH215885   8.317   1.097   4.841
 5315TIP3    H115886   8.400   1.057   4.816
 5315TIP3    H215887   8.303   1.166   4.776
 5316TIP3   OH215888   6.605   7.903   5.770
 5316TIP3    H115889   6.651   7.949   5.700
 5316TIP3    H215890   6.658   7.825   5.787
 5317TIP3   OH215891   0.139   3.508   3.482
 5317TIP3    H115892   0.079   3.438   3.454
 5317TIP3    H215893   0.225   3.481   3.449
 5318TIP3   OH215894   5.890   3.093   0.104
 5318TIP3    H115895   5.901   3.101   0.009
 5318TIP3    H215896   5.798   3.117   0.119
 5319TIP3   OH215897   4.246   2.026   6.561
 5319TIP3    H115898   4.160   1.990   6.585
 5319TIP3    H215899   4.266   2.087   6.633
 5320TIP3   OH215900   7.155   2.677   1.914
 5320TIP3    H115901   7.187   2.728   1.989
 5320TIP3    H215902   7.140   2.590   1.949
 5321TIP3   OH215903   5.442   0.459   2.260
 5321TIP3    H115904   5.469   0.445   2.169
 5321TIP3    H215905   5.524   0.460   2.309
 5322TIP3   OH215906   0.700   2.278   1.964
 5322TIP3    H115907   0.623   2.311   2.009
 5322TIP3    H215908   0.701   2.184   1.984
 5323TIP3   OH215909   3.365   7.124   1.317
 5323TIP3    H115910   3.329   7.153   1.233
 5323TIP3    H215911   3.373   7.204   1.369
 5324TIP3   OH215912   5.489   2.986   5.503
 5324TIP3    H115913   5.501   2.938   5.585
 5324TIP3    H215914   5.502   3.078   5.527
 5325TIP3   OH215915   3.018   2.104   5.208
 5325TIP3    H115916   3.055   2.101   5.296
 5325TIP3    H215917   3.092   2.125   5.152
 5326TIP3   OH215918   8.082   3.626   0.075
 5326TIP3    H115919   8.131   3.703   0.102
 5326TIP3    H215920   7.992   3.643   0.103
 5327TIP3   OH215921   3.795   6.658   6.606
 5327TIP3    H115922   3.878   6.631   6.567
 5327TIP3    H215923   3.739   6.580   6.600
 5328TIP3   OH215924   5.006   4.555   0.471
 5328TIP3    H115925   4.959   4.492   0.416
 5328TIP3    H215926   4.948   4.630   0.477
 5329TIP3   OH215927   2.345   1.391   0.451
 5329TIP3    H115928   2.274   1.430   0.400
 5329TIP3    H215929   2.339   1.297   0.433
 5330TIP3   OH215930   7.247   1.053   5.803
 5330TIP3    H115931   7.226   1.147   5.808
 5330TIP3    H215932   7.180   1.017   5.746
 5331TIP3   OH215933   0.280   7.509   1.418
 5331TIP3    H115934   0.217   7.487   1.487
 5331TIP3    H215935   0.286   7.604   1.420
 5332TIP3   OH215936   5.267   5.524   5.081
 5332TIP3    H115937   5.185   5.498   5.125
 5332TIP3    H215938   5.243   5.532   4.989
 5333TIP3   OH215939   3.988   5.720   1.798
 5333TIP3    H115940   3.983   5.802   1.749
 5333TIP3    H215941   4.081   5.700   1.802
 5334TIP3   OH215942   1.361   2.631   0.760
 5334TIP3    H115943   1.328   2.620   0.671
 5334TIP3    H215944   1.397   2.546   0.783
 5335TIP3   OH215945   8.064   1.773   3.960
 5335TIP3    H115946   7.976   1.751   3.990
 5335TIP3    H215947   8.113   1.691   3.966
 5336TIP3   OH215948   6.158   2.044   0.671
 5336TIP3    H115949   6.234   2.009   0.718
 5336TIP3    H215950   6.125   2.114   0.728
 5337TIP3   OH215951   6.897   1.741   3.980
 5337TIP3    H115952   6.873   1.704   3.896
 5337TIP3    H215953   6.954   1.815   3.959
 5338TIP3   OH215954   0.596   4.672   3.584
 5338TIP3    H115955   0.505   4.649   3.566
 5338TIP3    H215956   0.647   4.599   3.548
 5339TIP3   OH215957   5.891   7.636   4.326
 5339TIP3    H115958   5.929   7.613   4.242
 5339TIP3    H215959   5.948   7.705   4.360
 5340TIP3   OH215960   1.479   5.568   5.694
 5340TIP3    H115961   1.515   5.645   5.738
 5340TIP3    H215962   1.389   5.561   5.727
 5341TIP3   OH215963   0.584   7.605   2.348
 5341TIP3    H115964   0.605   7.520   2.310
 5341TIP3    H215965   0.540   7.653   2.277
 5342TIP3   OH215966   5.587   5.295   3.313
 5342TIP3    H115967   5.635   5.212   3.320
 5342TIP3    H215968   5.519   5.279   3.249
 5343TIP3   OH215969   3.733   7.057   1.973
 5343TIP3    H115970   3.656   7.014   1.934
 5343TIP3    H215971   3.793   6.985   1.992
 5344TIP3   OH215972   2.831   6.246   3.484
 5344TIP3    H115973   2.897   6.226   3.549
 5344TIP3    H215974   2.878   6.244   3.400
 5345TIP3   OH215975   2.267   1.649   3.603
 5345TIP3    H115976   2.240   1.739   3.621
 5345TIP3    H215977   2.356   1.642   3.637
 5346TIP3   OH215978   3.441   4.431   4.582
 5346TIP3    H115979   3.490   4.352   4.606
 5346TIP3    H215980   3.405   4.412   4.496
 5347TIP3   OH215981   2.134   6.750   0.053
 5347TIP3    H115982   2.165   6.840   0.044
 5347TIP3    H215983   2.167   6.721   0.138
 5348TIP3   OH215984   8.271   6.919   6.314
 5348TIP3    H115985   8.214   6.924   6.237
 5348TIP3    H215986   8.350   6.875   6.282
 5349TIP3   OH215987   0.069   3.766   0.393
 5349TIP3    H115988   0.006   3.837   0.404
 5349TIP3    H215989   0.090   3.767   0.299
 5350TIP3   OH215990   8.213   6.965   3.787
 5350TIP3    H115991   8.173   6.878   3.793
 5350TIP3    H215992   8.286   6.963   3.848
 5351TIP3   OH215993   3.735   3.455   3.445
 5351TIP3    H115994   3.706   3.430   3.533
 5351TIP3    H215995   3.778   3.540   3.458
 5352TIP3   OH215996   5.178   6.643   4.200
 5352TIP3    H115997   5.214   6.710   4.143
 5352TIP3    H215998   5.083   6.656   4.195
 5353TIP3   OH215999   1.599   1.843   5.934
 5353TIP3    H116000   1.535   1.795   5.882
 5353TIP3    H216001   1.645   1.898   5.871
 5354TIP3   OH216002   6.732   1.242   4.034
 5354TIP3    H116003   6.806   1.230   4.093
 5354TIP3    H216004   6.686   1.158   4.036
 5355TIP3   OH216005   5.025   3.449   5.711
 5355TIP3    H116006   5.120   3.466   5.709
 5355TIP3    H216007   5.018   3.359   5.741
 5356TIP3   OH216008   0.185   1.281   6.655
 5356TIP3    H116009   0.203   1.214   6.721
 5356TIP3    H216010   0.247   1.263   6.585
 5357TIP3   OH216011   7.839   6.768   6.228
 5357TIP3    H116012   7.752   6.735   6.248
 5357TIP3    H216013   7.891   6.689   6.210
 5358TIP3   OH216014   4.868   5.348   1.486
 5358TIP3    H116015   4.793   5.303   1.448
 5358TIP3    H216016   4.917   5.280   1.532
 5359TIP3   OH216017   6.035   7.499   5.499
 5359TIP3    H116018   6.003   7.589   5.502
 5359TIP3    H216019   5.998   7.458   5.577
 5360TIP3   OH216020   4.098   2.826   2.567
 5360TIP3    H116021   4.120   2.831   2.660
 5360TIP3    H216022   4.013   2.870   2.560
 5361TIP3   OH216023   1.148   7.817   2.933
 5361TIP3    H116024   1.061   7.781   2.916
 5361TIP3    H216025   1.137   7.911   2.926
 5362TIP3   OH216026   3.811   6.989   3.161
 5362TIP3    H116027   3.839   6.987   3.252
 5362TIP3    H216028   3.807   7.082   3.139
 5363TIP3   OH216029   0.415   4.554   5.002
 5363TIP3    H116030   0.460   4.547   5.087
 5363TIP3    H216031   0.324   4.572   5.025
 5364TIP3   OH216032   1.518   0.010   5.284
 5364TIP3    H116033   1.524  -0.063   5.222
 5364TIP3    H216034   1.520   0.089   5.229
 5365TIP3   OH216035   6.712   5.567   3.103
 5365TIP3    H116036   6.641   5.629   3.086
 5365TIP3    H216037   6.703   5.501   3.035
 5366TIP3   OH216038   7.606   5.153   2.251
 5366TIP3    H116039   7.615   5.090   2.180
 5366TIP3    H216040   7.636   5.107   2.329
 5367TIP3   OH216041   2.728   5.170   2.361
 5367TIP3    H116042   2.671   5.178   2.285
 5367TIP3    H216043   2.668   5.169   2.436
 5368TIP3   OH216044   6.161   4.589   3.240
 5368TIP3    H116045   6.242   4.565   3.195
 5368TIP3    H216046   6.162   4.685   3.244
 5369TIP3   OH216047   2.350   7.327   0.507
 5369TIP3    H116048   2.315   7.242   0.533
 5369TIP3    H216049   2.405   7.353   0.581
 5370TIP3   OH216050   2.761   5.846   2.940
 5370TIP3    H116051   2.829   5.896   2.895
 5370TIP3    H216052   2.763   5.878   3.030
 5371TIP3   OH216053   0.987   7.164   6.552
 5371TIP3    H116054   0.897   7.191   6.574
 5371TIP3    H216055   1.008   7.098   6.617
 5372TIP3   OH216056   6.093   1.564   4.990
 5372TIP3    H116057   6.140   1.647   4.979
 5372TIP3    H216058   6.002   1.585   4.966
 5373TIP3   OH216059   0.740   4.765   4.062
 5373TIP3    H116060   0.814   4.786   4.005
 5373TIP3    H216061   0.704   4.684   4.026
 5374TIP3   OH216062   6.815   1.928   5.806
 5374TIP3    H116063   6.903   1.889   5.808
 5374TIP3    H216064   6.792   1.939   5.899
 5375TIP3   OH216065   5.982   1.403   2.091
 5375TIP3    H116066   6.076   1.387   2.097
 5375TIP3    H216067   5.966   1.478   2.149
 5376TIP3   OH216068   0.818   2.125   6.648
 5376TIP3    H116069   0.792   2.034   6.662
 5376TIP3    H216070   0.913   2.122   6.642
 5377TIP3   OH216071   5.710   6.684   5.953
 5377TIP3    H116072   5.799   6.652   5.972
 5377TIP3    H216073   5.653   6.612   5.978
 5378TIP3   OH216074   7.689   6.490   1.929
 5378TIP3    H116075   7.754   6.514   1.995
 5378TIP3    H216076   7.606   6.518   1.966
 5379TIP3   OH216077   1.279   6.770   3.005
 5379TIP3    H116078   1.268   6.695   3.063
 5379TIP3    H216079   1.265   6.735   2.917
 5380TIP3   OH216080   6.873   5.816   0.838
 5380TIP3    H116081   6.925   5.737   0.848
 5380TIP3    H216082   6.936   5.888   0.846
 5381TIP3   OH216083   1.640   2.211   4.853
 5381TIP3    H116084   1.666   2.120   4.841
 5381TIP3    H216085   1.716   2.262   4.825
 5382TIP3   OH216086   7.689   7.097   2.330
 5382TIP3    H116087   7.628   7.137   2.267
 5382TIP3    H216088   7.663   7.005   2.333
 5383TIP3   OH216089   7.539   4.161   4.333
 5383TIP3    H116090   7.514   4.071   4.356
 5383TIP3    H216091   7.583   4.152   4.248
 5384TIP3   OH216092   0.163   5.559   2.651
 5384TIP3    H116093   0.155   5.466   2.631
 5384TIP3    H216094   0.252   5.568   2.687
 5385TIP3   OH216095   2.931   6.508   1.765
 5385TIP3    H116096   2.837   6.509   1.747
 5385TIP3    H216097   2.940   6.558   1.847
 5386TIP3   OH216098   1.771   7.242   4.828
 5386TIP3    H116099   1.777   7.297   4.906
 5386TIP3    H216100   1.825   7.165   4.849
 5387TIP3   OH216101   3.498   5.977   0.787
 5387TIP3    H116102   3.574   6.009   0.737
 5387TIP3    H216103   3.450   5.922   0.725
 5388TIP3   OH216104   5.650   0.738   4.935
 5388TIP3    H116105   5.582   0.769   4.995
 5388TIP3    H216106   5.627   0.776   4.850
 5389TIP3   OH216107   2.505   0.913   3.554
 5389TIP3    H116108   2.536   0.880   3.470
 5389TIP3    H216109   2.433   0.855   3.578
 5390TIP3   OH216110   7.856   1.804   0.328
 5390TIP3    H116111   7.889   1.738   0.389
 5390TIP3    H216112   7.762   1.806   0.343
 5391TIP3   OH216113   1.306   6.285   3.917
 5391TIP3    H116114   1.378   6.261   3.976
 5391TIP3    H216115   1.317   6.227   3.841
 5392TIP3   OH216116   6.976   6.236   4.624
 5392TIP3    H116117   6.990   6.243   4.718
 5392TIP3    H216118   6.901   6.177   4.615
 5393TIP3   OH216119   4.147   2.638   6.429
 5393TIP3    H116120   4.169   2.556   6.472
 5393TIP3    H216121   4.227   2.666   6.386
 5394TIP3   OH216122   3.829   2.994   2.582
 5394TIP3    H116123   3.818   2.984   2.677
 5394TIP3    H216124   3.740   2.999   2.548
 5395TIP3   OH216125   2.065   6.332   0.426
 5395TIP3    H116126   1.972   6.342   0.447
 5395TIP3    H216127   2.075   6.240   0.404
 5396TIP3   OH216128   6.036   6.589   0.932
 5396TIP3    H116129   6.082   6.508   0.954
 5396TIP3    H216130   5.965   6.562   0.873
 5397TIP3   OH216131   3.085   2.546   1.241
 5397TIP3    H116132   3.036   2.581   1.315
 5397TIP3    H216133   3.037   2.468   1.215
 5398TIP3   OH216134   7.084   1.972   1.874
 5398TIP3    H116135   7.039   2.010   1.949
 5398TIP3    H216136   7.172   2.010   1.877
 5399TIP3   OH216137   3.793   7.579   5.825
 5399TIP3    H116138   3.886   7.566   5.844
 5399TIP3    H216139   3.788   7.579   5.729
 5400TIP3   OH216140   2.050   7.384   0.372
 5400TIP3    H116141   2.145   7.390   0.380
 5400TIP3    H216142   2.016   7.448   0.435
 5401TIP3   OH216143   5.291   4.468   4.845
 5401TIP3    H116144   5.219   4.463   4.782
 5401TIP3    H216145   5.247   4.475   4.930
 5402TIP3   OH216146   7.968   7.703   0.987
 5402TIP3    H116147   8.039   7.767   0.988
 5402TIP3    H216148   7.903   7.738   1.048
 5403TIP3   OH216149   2.787   5.351   2.634
 5403TIP3    H116150   2.703   5.309   2.654
 5403TIP3    H216151   2.801   5.332   2.542
 5404TIP3   OH216152   6.714   1.925   5.393
 5404TIP3    H116153   6.728   1.887   5.479
 5404TIP3    H216154   6.731   1.854   5.332
 5405TIP3   OH216155   5.415   7.628   5.519
 5405TIP3    H116156   5.366   7.593   5.444
 5405TIP3    H216157   5.347   7.659   5.579
 5406TIP3   OH216158   0.322   0.818   5.363
 5406TIP3    H116159   0.403   0.841   5.408
 5406TIP3    H216160   0.348   0.754   5.297
 5407TIP3   OH216161   2.243   6.615   5.565
 5407TIP3    H116162   2.165   6.620   5.509
 5407TIP3    H216163   2.302   6.558   5.517
 5408TIP3   OH216164   1.012   7.601   1.550
 5408TIP3    H116165   0.962   7.558   1.620
 5408TIP3    H216166   1.103   7.584   1.572
 5409TIP3   OH216167   0.397   2.875   6.512
 5409TIP3    H116168   0.406   2.828   6.595
 5409TIP3    H216169   0.310   2.914   6.516
 5410TIP3   OH216170   3.318   6.471   3.244
 5410TIP3    H116171   3.238   6.433   3.208
 5410TIP3    H216172   3.337   6.417   3.321
 5411TIP3   OH216173   6.159   5.556   3.400
 5411TIP3    H116174   6.119   5.481   3.444
 5411TIP3    H216175   6.229   5.584   3.459
 5412TIP3   OH216176   6.405   7.405   0.208
 5412TIP3    H116177   6.343   7.337   0.180
 5412TIP3    H216178   6.491   7.365   0.197
 5413TIP3   OH216179   5.828   4.850   2.310
 5413TIP3    H116180   5.755   4.907   2.283
 5413TIP3    H216181   5.902   4.910   2.322
 5414TIP3   OH216182   5.222   1.852   4.307
 5414TIP3    H116183   5.286   1.787   4.277
 5414TIP3    H216184   5.268   1.902   4.374
 5415TIP3   OH216185   3.120   4.423   3.862
 5415TIP3    H116186   3.207   4.460   3.879
 5415TIP3    H216187   3.130   4.330   3.881
 5416TIP3   OH216188   0.313   1.931   3.227
 5416TIP3    H116189   0.243   1.866   3.237
 5416TIP3    H216190   0.392   1.884   3.255
 5417TIP3   OH216191   1.139   1.150   4.087
 5417TIP3    H116192   1.079   1.125   4.157
 5417TIP3    H216193   1.084   1.161   4.010
 5418TIP3   OH216194   4.431   3.456   3.704
 5418TIP3    H116195   4.483   3.536   3.695
 5418TIP3    H216196   4.389   3.464   3.789
 5419TIP3   OH216197   7.161   5.294   0.814
 5419TIP3    H116198   7.252   5.320   0.801
 5419TIP3    H216199   7.155   5.208   0.775
 5420TIP3   OH216200   7.406   3.838   5.735
 5420TIP3    H116201   7.493   3.807   5.762
 5420TIP3    H216202   7.388   3.793   5.653
 5421TIP3   OH216203   1.574   3.302   3.588
 5421TIP3    H116204   1.597   3.395   3.584
 5421TIP3    H216205   1.652   3.257   3.555
 5422TIP3   OH216206   7.724   0.329   1.012
 5422TIP3    H116207   7.808   0.369   1.035
 5422TIP3    H216208   7.748   0.245   0.973
 5423TIP3   OH216209   0.617   0.856   0.228
 5423TIP3    H116210   0.587   0.794   0.295
 5423TIP3    H216211   0.708   0.832   0.212
 5424TIP3   OH216212   0.416   6.163   2.775
 5424TIP3    H116213   0.385   6.252   2.793
 5424TIP3    H216214   0.344   6.122   2.727
 5425TIP3   OH216215   2.171   5.344   3.333
 5425TIP3    H116216   2.226   5.420   3.318
 5425TIP3    H216217   2.081   5.377   3.321
 5426TIP3   OH216218   2.211   1.909   5.022
 5426TIP3    H116219   2.189   1.962   4.945
 5426TIP3    H216220   2.134   1.852   5.035
 5427TIP3   OH216221   5.903   3.932   3.717
 5427TIP3    H116222   5.937   3.861   3.663
 5427TIP3    H216223   5.943   4.011   3.679
 5428TIP3   OH216224   2.005   7.083   0.079
 5428TIP3    H116225   2.082   7.140   0.080
 5428TIP3    H216226   1.984   7.070   0.172
 5429TIP3   OH216227   7.991   7.007   3.057
 5429TIP3    H116228   8.008   6.989   2.965
 5429TIP3    H216229   7.976   6.920   3.096
 5430TIP3   OH216230   1.289   1.174   3.574
 5430TIP3    H116231   1.249   1.088   3.588
 5430TIP3    H216232   1.298   1.210   3.662
 5431TIP3   OH216233   1.862   4.691   4.967
 5431TIP3    H116234   1.816   4.665   4.887
 5431TIP3    H216235   1.863   4.786   4.965
 5432TIP3   OH216236   3.564   3.059   5.166
 5432TIP3    H116237   3.583   3.125   5.099
 5432TIP3    H216238   3.572   3.106   5.249
 5433TIP3   OH216239   2.638   6.651   1.052
 5433TIP3    H116240   2.665   6.739   1.025
 5433TIP3    H216241   2.686   6.635   1.134
 5434TIP3   OH216242   5.283   4.959   5.497
 5434TIP3    H116243   5.376   4.956   5.519
 5434TIP3    H216244   5.242   5.007   5.569
 5435TIP3   OH216245   5.095   3.433   4.252
 5435TIP3    H116246   5.152   3.401   4.322
 5435TIP3    H216247   5.036   3.360   4.234
 5436TIP3   OH216248   4.593   1.668   5.411
 5436TIP3    H116249   4.579   1.672   5.506
 5436TIP3    H216250   4.506   1.653   5.374
 5437TIP3   OH216251   1.458   6.430   5.720
 5437TIP3    H116252   1.487   6.344   5.690
 5437TIP3    H216253   1.406   6.412   5.798
 5438TIP3   OH216254   1.437   7.574   4.047
 5438TIP3    H116255   1.516   7.628   4.057
 5438TIP3    H216256   1.379   7.604   4.117
 5439TIP3   OH216257   7.163   7.223   5.042
 5439TIP3    H116258   7.168   7.267   4.957
 5439TIP3    H216259   7.127   7.136   5.022
 5440TIP3   OH216260   6.285   0.278   5.854
 5440TIP3    H116261   6.255   0.351   5.909
 5440TIP3    H216262   6.380   0.285   5.855
 5441TIP3   OH216263   6.604   1.587   6.378
 5441TIP3    H116264   6.527   1.548   6.337
 5441TIP3    H216265   6.591   1.573   6.472
 5442TIP3   OH216266   2.136   2.205   1.725
 5442TIP3    H116267   2.183   2.178   1.804
 5442TIP3    H216268   2.174   2.154   1.654
 5443TIP3   OH216269   3.690   5.807   3.967
 5443TIP3    H116270   3.658   5.787   4.055
 5443TIP3    H216271   3.638   5.881   3.938
 5444TIP3   OH216272   2.198   2.995   1.660
 5444TIP3    H116273   2.137   3.066   1.638
 5444TIP3    H216274   2.245   3.027   1.737
 5445TIP3   OH216275   4.568   7.496   2.089
 5445TIP3    H116276   4.581   7.512   2.182
 5445TIP3    H216277   4.485   7.541   2.069
 5446TIP3   OH216278   3.251   7.758   4.754
 5446TIP3    H116279   3.307   7.818   4.803
 5446TIP3    H216280   3.231   7.804   4.673
 5447TIP3   OH216281   3.213   5.448   1.816
 5447TIP3    H116282   3.269   5.416   1.887
 5447TIP3    H216283   3.182   5.533   1.847
 5448TIP3   OH216284   4.292   0.628   0.817
 5448TIP3    H116285   4.322   0.599   0.731
 5448TIP3    H216286   4.335   0.712   0.831
 5449TIP3   OH216287   2.371   7.805   3.811
 5449TIP3    H116288   2.318   7.824   3.733
 5449TIP3    H216289   2.337   7.721   3.843
 5450TIP3   OH216290   5.434   2.885   0.258
 5450TIP3    H116291   5.343   2.912   0.246
 5450TIP3    H216292   5.432   2.789   0.255
 5451TIP3   OH216293   1.057   4.000   5.973
 5451TIP3    H116294   0.992   3.934   5.949
 5451TIP3    H216295   1.065   3.994   6.068
 5452TIP3   OH216296   4.390   7.380   0.645
 5452TIP3    H116297   4.357   7.413   0.728
 5452TIP3    H216298   4.354   7.439   0.579
 5453TIP3   OH216299   5.974   4.345   3.931
 5453TIP3    H116300   5.905   4.408   3.954
 5453TIP3    H216301   5.927   4.262   3.917
 5454TIP3   OH216302   4.011   7.766   3.341
 5454TIP3    H116303   4.098   7.735   3.317
 5454TIP3    H216304   4.017   7.862   3.336
 5455TIP3   OH216305   1.144   4.045   5.160
 5455TIP3    H116306   1.103   4.013   5.240
 5455TIP3    H216307   1.160   4.138   5.177
 5456TIP3   OH216308   3.638   1.314   5.213
 5456TIP3    H116309   3.719   1.300   5.263
 5456TIP3    H216310   3.668   1.337   5.125
 5457TIP3   OH216311   6.292   5.509   0.115
 5457TIP3    H116312   6.257   5.524   0.027
 5457TIP3    H216313   6.216   5.485   0.167
 5458TIP3   OH216314   7.671   2.406   5.666
 5458TIP3    H116315   7.692   2.393   5.574
 5458TIP3    H216316   7.583   2.369   5.676
 5459TIP3   OH216317   2.697   5.037   3.923
 5459TIP3    H116318   2.609   5.075   3.922
 5459TIP3    H216319   2.755   5.111   3.904
 5460TIP3   OH216320   3.127   3.171   2.848
 5460TIP3    H116321   3.077   3.235   2.899
 5460TIP3    H216322   3.149   3.217   2.767
 5461TIP3   OH216323   6.334   5.146   3.186
 5461TIP3    H116324   6.252   5.127   3.139
 5461TIP3    H216325   6.348   5.239   3.171
 5462TIP3   OH216326   4.205   2.067   0.065
 5462TIP3    H116327   4.124   2.057   0.016
 5462TIP3    H216328   4.187   2.139   0.125
 5463TIP3   OH216329   3.053   6.095   4.080
 5463TIP3    H116330   3.080   6.020   4.132
 5463TIP3    H216331   3.090   6.171   4.125
 5464TIP3   OH216332   5.175   0.314   5.252
 5464TIP3    H116333   5.223   0.251   5.306
 5464TIP3    H216334   5.087   0.316   5.289
 5465TIP3   OH216335   1.849   2.374   5.887
 5465TIP3    H116336   1.906   2.308   5.847
 5465TIP3    H216337   1.819   2.334   5.969
 5466TIP3   OH216338   6.181   6.405   2.409
 5466TIP3    H116339   6.148   6.415   2.498
 5466TIP3    H216340   6.136   6.328   2.375
 5467TIP3   OH216341   0.085   0.562   2.907
 5467TIP3    H116342   0.087   0.471   2.877
 5467TIP3    H216343   0.069   0.556   3.001
 5468TIP3   OH216344   0.510   4.916   4.102
 5468TIP3    H116345   0.598   4.887   4.125
 5468TIP3    H216346   0.452   4.857   4.149
 5469TIP3   OH216347   2.542   1.137   1.655
 5469TIP3    H116348   2.542   1.118   1.561
 5469TIP3    H216349   2.615   1.198   1.667
 5470TIP3   OH216350   4.528   7.670   5.259
 5470TIP3    H116351   4.463   7.733   5.290
 5470TIP3    H216352   4.583   7.653   5.335
 5471TIP3   OH216353   7.200   0.884   6.775
 5471TIP3    H116354   7.120   0.853   6.817
 5471TIP3    H216355   7.267   0.878   6.842
 5472TIP3   OH216356   1.538   0.665   4.340
 5472TIP3    H116357   1.580   0.751   4.333
 5472TIP3    H216358   1.605   0.603   4.312
 5473TIP3   OH216359   0.384   2.204   2.435
 5473TIP3    H116360   0.411   2.288   2.472
 5473TIP3    H216361   0.454   2.143   2.460
 5474TIP3   OH216362   6.795   1.728   3.466
 5474TIP3    H116363   6.729   1.748   3.399
 5474TIP3    H216364   6.861   1.676   3.421
 5475TIP3   OH216365   4.911   4.905   2.817
 5475TIP3    H116366   4.904   4.832   2.878
 5475TIP3    H216367   4.821   4.933   2.802
 5476TIP3   OH216368   6.190   4.690   4.283
 5476TIP3    H116369   6.095   4.685   4.272
 5476TIP3    H216370   6.225   4.619   4.229
 5477TIP3   OH216371   0.142   0.986   6.121
 5477TIP3    H116372   0.086   1.056   6.087
 5477TIP3    H216373   0.183   0.949   6.043
 5478TIP3   OH216374   2.204   5.783   1.383
 5478TIP3    H116375   2.278   5.723   1.371
 5478TIP3    H216376   2.155   5.777   1.301
 5479TIP3   OH216377   5.750   1.320   1.996
 5479TIP3    H116378   5.767   1.231   1.964
 5479TIP3    H216379   5.836   1.354   2.018
 5480TIP3   OH216380   4.267   0.310   1.423
 5480TIP3    H116381   4.298   0.258   1.348
 5480TIP3    H216382   4.327   0.288   1.494
 5481TIP3   OH216383   6.947   2.785   2.833
 5481TIP3    H116384   6.889   2.824   2.768
 5481TIP3    H216385   6.943   2.845   2.908
 5482TIP3   OH216386   0.463   6.731   6.483
 5482TIP3    H116387   0.468   6.756   6.575
 5482TIP3    H216388   0.549   6.754   6.447
 5483TIP3   OH216389   7.701   7.097   0.181
 5483TIP3    H116390   7.617   7.098   0.135
 5483TIP3    H216391   7.763   7.134   0.118
 5484TIP3   OH216392   6.303   2.309   6.834
 5484TIP3    H116393   6.355   2.236   6.868
 5484TIP3    H216394   6.334   2.321   6.744
 5485TIP3   OH216395   5.515   4.430   2.657
 5485TIP3    H116396   5.457   4.354   2.663
 5485TIP3    H216397   5.534   4.438   2.563
 5486TIP3   OH216398   5.180   5.335   2.037
 5486TIP3    H116399   5.195   5.241   2.049
 5486TIP3    H216400   5.109   5.340   1.973
 5487TIP3   OH216401   2.498   1.483   3.720
 5487TIP3    H116402   2.587   1.450   3.709
 5487TIP3    H216403   2.444   1.404   3.732
 5488TIP3   OH216404   7.295   5.686   0.696
 5488TIP3    H116405   7.334   5.609   0.739
 5488TIP3    H216406   7.302   5.667   0.602
 5489TIP3   OH216407   0.447   7.304   1.371
 5489TIP3    H116408   0.516   7.370   1.374
 5489TIP3    H216409   0.366   7.352   1.386
 5490TIP3   OH216410   6.647   2.696   1.892
 5490TIP3    H116411   6.584   2.631   1.859
 5490TIP3    H216412   6.731   2.650   1.893
 5491TIP3   OH216413   6.743   5.740   3.733
 5491TIP3    H116414   6.701   5.731   3.648
 5491TIP3    H216415   6.836   5.739   3.715
 5492TIP3   OH216416   4.501   5.635   6.281
 5492TIP3    H116417   4.496   5.705   6.216
 5492TIP3    H216418   4.448   5.564   6.246
 5493TIP3   OH216419   2.626   1.358   6.850
 5493TIP3    H116420   2.653   1.295   6.783
 5493TIP3    H216421   2.707   1.381   6.895
 5494TIP3   OH216422   0.710   7.066   5.879
 5494TIP3    H116423   0.785   7.063   5.819
 5494TIP3    H216424   0.648   7.126   5.838
 5495TIP3   OH216425   0.841   2.601   0.687
 5495TIP3    H116426   0.825   2.686   0.727
 5495TIP3    H216427   0.927   2.609   0.647
 5496TIP3   OH216428   6.917   5.815   4.892
 5496TIP3    H116429   6.919   5.798   4.986
 5496TIP3    H216430   6.974   5.747   4.855
 5497TIP3   OH216431   4.342   5.148   5.302
 5497TIP3    H116432   4.316   5.138   5.210
 5497TIP3    H216433   4.269   5.194   5.342
 5498TIP3   OH216434   7.603   6.548   1.323
 5498TIP3    H116435   7.668   6.613   1.352
 5498TIP3    H216436   7.519   6.584   1.352
 5499TIP3   OH216437   7.864   5.351   2.388
 5499TIP3    H116438   7.772   5.347   2.412
 5499TIP3    H216439   7.878   5.442   2.361
 5500TIP3   OH216440   4.933   1.012   0.832
 5500TIP3    H116441   4.914   1.022   0.926
 5500TIP3    H216442   4.868   0.949   0.801
 5501TIP3   OH216443   4.093   3.053   5.026
 5501TIP3    H116444   4.177   3.098   5.036
 5501TIP3    H216445   4.112   2.978   4.970
 5502TIP3   OH216446   2.522   5.226   2.805
 5502TIP3    H116447   2.450   5.254   2.862
 5502TIP3    H216448   2.592   5.202   2.865
 5503TIP3   OH216449   0.581   7.142   1.798
 5503TIP3    H116450   0.543   7.229   1.807
 5503TIP3    H216451   0.621   7.142   1.711
 5504TIP3   OH216452   2.024   1.451   6.109
 5504TIP3    H116453   1.965   1.471   6.035
 5504TIP3    H216454   2.013   1.525   6.168
 5505TIP3   OH216455   0.836   3.725   4.536
 5505TIP3    H116456   0.899   3.793   4.560
 5505TIP3    H216457   0.761   3.772   4.501
 5506TIP3   OH216458   1.407   3.881   1.983
 5506TIP3    H116459   1.371   3.792   1.983
 5506TIP3    H216460   1.492   3.873   1.941
 5507TIP3   OH216461   6.838   4.990   5.230
 5507TIP3    H116462   6.795   4.984   5.315
 5507TIP3    H216463   6.836   4.901   5.195
 5508TIP3   OH216464   8.083   7.312   0.342
 5508TIP3    H116465   8.039   7.323   0.257
 5508TIP3    H216466   8.089   7.400   0.378
 5509TIP3   OH216467   6.816   2.639   4.338
 5509TIP3    H116468   6.894   2.679   4.298
 5509TIP3    H216469   6.822   2.661   4.431
 5510TIP3   OH216470   0.649   1.831   5.004
 5510TIP3    H116471   0.670   1.797   5.091
 5510TIP3    H216472   0.554   1.832   5.000
 5511TIP3   OH216473   8.280   3.882   0.764
 5511TIP3    H116474   8.343   3.810   0.771
 5511TIP3    H216475   8.312   3.934   0.690
 5512TIP3   OH216476   3.224   3.730  -0.008
 5512TIP3    H116477   3.159   3.717   0.062
 5512TIP3    H216478   3.171   3.752  -0.085
 5513TIP3   OH216479   7.430   4.323   4.680
 5513TIP3    H116480   7.342   4.337   4.646
 5513TIP3    H216481   7.423   4.344   4.773
 5514TIP3   OH216482   5.525   2.050   1.500
 5514TIP3    H116483   5.571   2.027   1.419
 5514TIP3    H216484   5.445   2.092   1.471
 5515TIP3   OH216485   6.407   6.202   5.176
 5515TIP3    H116486   6.384   6.162   5.092
 5515TIP3    H216487   6.323   6.210   5.223
 5516TIP3   OH216488   5.635   2.662   0.567
 5516TIP3    H116489   5.606   2.654   0.657
 5516TIP3    H216490   5.714   2.716   0.571
 5517TIP3   OH216491   5.076   2.325   4.974
 5517TIP3    H116492   5.020   2.393   5.011
 5517TIP3    H216493   5.088   2.263   5.046
 5518TIP3   OH216494   6.633   5.841   1.623
 5518TIP3    H116495   6.698   5.772   1.605
 5518TIP3    H216496   6.627   5.844   1.718
 5519TIP3   OH216497   7.883   7.144   4.424
 5519TIP3    H116498   7.888   7.084   4.498
 5519TIP3    H216499   7.889   7.231   4.463
 5520TIP3   OH216500   5.276   5.058   3.525
 5520TIP3    H116501   5.228   5.089   3.602
 5520TIP3    H216502   5.222   5.084   3.450
 5521TIP3   OH216503   4.389   0.818   5.704
 5521TIP3    H116504   4.421   0.838   5.616
 5521TIP3    H216505   4.402   0.724   5.714
 5522TIP3   OH216506   2.199   0.339   4.633
 5522TIP3    H116507   2.107   0.366   4.630
 5522TIP3    H216508   2.198   0.257   4.683
 5523TIP3   OH216509   7.100   0.245   4.052
 5523TIP3    H116510   7.057   0.330   4.047
 5523TIP3    H216511   7.192   0.266   4.071
 5524TIP3   OH216512   8.039   2.415   2.217
 5524TIP3    H116513   7.965   2.441   2.162
 5524TIP3    H216514   8.066   2.331   2.181
 5525TIP3   OH216515   5.198   1.009   1.430
 5525TIP3    H116516   5.221   1.082   1.373
 5525TIP3    H216517   5.229   1.035   1.517
 5526TIP3   OH216518   4.693   3.573   2.664
 5526TIP3    H116519   4.628   3.503   2.654
 5526TIP3    H216520   4.648   3.651   2.632
 5527TIP3   OH216521   3.590   2.764   4.030
 5527TIP3    H116522   3.668   2.726   3.990
 5527TIP3    H216523   3.540   2.799   3.957
 5528TIP3   OH216524   1.476   4.923   6.356
 5528TIP3    H116525   1.491   4.856   6.422
 5528TIP3    H216526   1.476   4.876   6.272
 5529TIP3   OH216527   7.570   6.501   5.559
 5529TIP3    H116528   7.538   6.552   5.484
 5529TIP3    H216529   7.635   6.558   5.601
 5530TIP3   OH216530   0.105   0.377   1.170
 5530TIP3    H116531   0.189   0.341   1.199
 5530TIP3    H216532   0.127   0.454   1.119
 5531TIP3   OH216533   1.152   6.408   5.791
 5531TIP3    H116534   1.213   6.336   5.808
 5531TIP3    H216535   1.067   6.375   5.817
 5532TIP3   OH216536   5.927   4.517   2.510
 5532TIP3    H116537   5.904   4.432   2.547
 5532TIP3    H216538   5.899   4.581   2.576
 5533TIP3   OH216539   8.367   3.038  -0.024
 5533TIP3    H116540   8.372   3.034   0.072
 5533TIP3    H216541   8.453   3.067  -0.052
 5534TIP3   OH216542   8.280   2.453   3.850
 5534TIP3    H116543   8.271   2.518   3.779
 5534TIP3    H216544   8.228   2.379   3.821
 5535TIP3   OH216545   4.442   4.736   2.350
 5535TIP3    H116546   4.425   4.810   2.292
 5535TIP3    H216547   4.535   4.717   2.337
 5536TIP3   OH216548   8.309   7.088   1.307
 5536TIP3    H116549   8.358   7.126   1.234
 5536TIP3    H216550   8.223   7.129   1.302
 5537TIP3   OH216551   3.312   2.584   0.470
 5537TIP3    H116552   3.254   2.509   0.482
 5537TIP3    H216553   3.375   2.577   0.541
 5538TIP3   OH216554   0.230   5.158   1.028
 5538TIP3    H116555   0.258   5.212   1.102
 5538TIP3    H216556   0.172   5.216   0.978
 5539TIP3   OH216557   6.059   0.595   6.572
 5539TIP3    H116558   6.090   0.504   6.575
 5539TIP3    H216559   6.131   0.644   6.533
 5540TIP3   OH216560   7.039   6.037   0.824
 5540TIP3    H116561   7.017   6.123   0.789
 5540TIP3    H216562   7.063   6.053   0.915
 5541TIP3   OH216563   2.744   7.685   4.658
 5541TIP3    H116564   2.653   7.669   4.632
 5541TIP3    H216565   2.745   7.665   4.752
 5542TIP3   OH216566   2.929   6.183   3.231
 5542TIP3    H116567   2.844   6.165   3.191
 5542TIP3    H216568   2.966   6.096   3.247
 5543TIP3   OH216569   3.001   1.360   0.709
 5543TIP3    H116570   2.959   1.401   0.785
 5543TIP3    H216571   3.021   1.432   0.650
 5544TIP3   OH216572   6.119   0.928   3.288
 5544TIP3    H116573   6.174   0.887   3.354
 5544TIP3    H216574   6.176   0.993   3.247
 5545TIP3   OH216575   6.961   7.006   5.838
 5545TIP3    H116576   6.932   7.097   5.843
 5545TIP3    H216577   6.934   6.968   5.921
 5546TIP3   OH216578   6.792   2.791   1.597
 5546TIP3    H116579   6.724   2.739   1.640
 5546TIP3    H216580   6.827   2.846   1.667
 5547TIP3   OH216581   3.336   6.505   5.785
 5547TIP3    H116582   3.247   6.493   5.751
 5547TIP3    H216583   3.353   6.599   5.777
 5548TIP3   OH216584   8.116   5.416   2.200
 5548TIP3    H116585   8.038   5.459   2.165
 5548TIP3    H216586   8.084   5.333   2.236
 5549TIP3   OH216587   4.786   5.619   1.526
 5549TIP3    H116588   4.842   5.690   1.495
 5549TIP3    H216589   4.828   5.539   1.494
 5550TIP3   OH216590   7.588   1.650   6.471
 5550TIP3    H116591   7.492   1.650   6.474
 5550TIP3    H216592   7.611   1.575   6.417
 5551TIP3   OH216593   3.570   5.567   1.917
 5551TIP3    H116594   3.566   5.638   1.853
 5551TIP3    H216595   3.572   5.487   1.864
 5552TIP3   OH216596   1.185   7.856   0.076
 5552TIP3    H116597   1.233   7.802   0.139
 5552TIP3    H216598   1.093   7.848   0.103
 5553TIP3   OH216599   3.507   6.654   6.561
 5553TIP3    H116600   3.494   6.749   6.560
 5553TIP3    H216601   3.471   6.624   6.477
 5554TIP3   OH216602   3.375   7.007   6.793
 5554TIP3    H116603   3.363   6.919   6.829
 5554TIP3    H216604   3.408   7.058   6.867
 5555TIP3   OH216605   2.885   1.175   3.538
 5555TIP3    H116606   2.943   1.250   3.527
 5555TIP3    H216607   2.891   1.128   3.455
 5556TIP3   OH216608   5.020   1.476   1.652
 5556TIP3    H116609   5.029   1.521   1.736
 5556TIP3    H216610   5.038   1.543   1.587
 5557TIP3   OH216611   7.088   0.618   3.637
 5557TIP3    H116612   7.110   0.677   3.709
 5557TIP3    H216613   7.168   0.615   3.584
 5558TIP3   OH216614   7.067   5.535   4.828
 5558TIP3    H116615   7.003   5.482   4.781
 5558TIP3    H216616   7.100   5.477   4.897
 5559TIP3   OH216617   5.078   1.557   3.993
 5559TIP3    H116618   5.084   1.652   3.983
 5559TIP3    H216619   5.027   1.545   4.073
 5560TIP3   OH216620   0.938   5.037   0.796
 5560TIP3    H116621   0.978   4.951   0.780
 5560TIP3    H216622   0.980   5.095   0.732
 5561TIP3   OH216623   8.046   4.917   4.621
 5561TIP3    H116624   8.059   5.011   4.613
 5561TIP3    H216625   8.003   4.892   4.539
 5562TIP3   OH216626   4.216   4.565   0.647
 5562TIP3    H116627   4.211   4.656   0.677
 5562TIP3    H216628   4.231   4.571   0.553
 5563TIP3   OH216629   2.682   0.495   1.596
 5563TIP3    H116630   2.719   0.492   1.684
 5563TIP3    H216631   2.692   0.406   1.562
 5564TIP3   OH216632   5.208   1.619   3.231
 5564TIP3    H116633   5.151   1.543   3.217
 5564TIP3    H216634   5.295   1.588   3.205
 5565TIP3   OH216635   7.545   2.301   4.148
 5565TIP3    H116636   7.639   2.300   4.169
 5565TIP3    H216637   7.502   2.307   4.233
 5566TIP3   OH216638   3.272   3.494   1.123
 5566TIP3    H116639   3.355   3.474   1.079
 5566TIP3    H216640   3.209   3.435   1.083
 5567TIP3   OH216641   1.774   7.803   6.808
 5567TIP3    H116642   1.865   7.805   6.838
 5567TIP3    H216643   1.756   7.893   6.781
 5568TIP3   OH216644   6.619   1.437   3.878
 5568TIP3    H116645   6.592   1.485   3.956
 5568TIP3    H216646   6.685   1.375   3.911
 5569TIP3   OH216647   4.057   0.496   0.888
 5569TIP3    H116648   4.036   0.554   0.815
 5569TIP3    H216649   4.146   0.518   0.913
 5570TIP3   OH216650   7.884   7.957   6.265
 5570TIP3    H116651   7.919   7.878   6.306
 5570TIP3    H216652   7.815   7.926   6.207
 5571TIP3   OH216653   0.750   0.422   1.937
 5571TIP3    H116654   0.823   0.365   1.959
 5571TIP3    H216655   0.716   0.452   2.021
 5572TIP3   OH216656   0.479   5.671   1.068
 5572TIP3    H116657   0.562   5.720   1.066
 5572TIP3    H216658   0.504   5.580   1.052
 5573TIP3   OH216659   4.315   5.978   5.812
 5573TIP3    H116660   4.404   5.985   5.778
 5573TIP3    H216661   4.301   6.059   5.862
 5574TIP3   OH216662   7.581   6.672   4.751
 5574TIP3    H116663   7.600   6.658   4.658
 5574TIP3    H216664   7.518   6.603   4.773
 5575TIP3   OH216665   7.698   4.072   3.817
 5575TIP3    H116666   7.604   4.057   3.813
 5575TIP3    H216667   7.718   4.121   3.737
 5576TIP3   OH216668   7.260   1.385   3.506
 5576TIP3    H116669   7.207   1.355   3.580
 5576TIP3    H216670   7.307   1.307   3.477
 5577TIP3   OH216671   5.215   3.242   5.332
 5577TIP3    H116672   5.235   3.263   5.423
 5577TIP3    H216673   5.188   3.150   5.334
 5578TIP3   OH216674   4.014   0.945   5.259
 5578TIP3    H116675   3.927   0.967   5.226
 5578TIP3    H216676   4.073   0.966   5.186
 5579TIP3   OH216677   2.627   6.984   3.690
 5579TIP3    H116678   2.582   6.966   3.773
 5579TIP3    H216679   2.677   6.904   3.671
 5580TIP3   OH216680   4.746   0.523   4.585
 5580TIP3    H116681   4.752   0.436   4.546
 5580TIP3    H216682   4.754   0.583   4.511
 5581TIP3   OH216683   7.620   4.744   5.781
 5581TIP3    H116684   7.674   4.813   5.818
 5581TIP3    H216685   7.682   4.680   5.746
 5582TIP3   OH216686   0.592   7.489   1.530
 5582TIP3    H116687   0.627   7.524   1.448
 5582TIP3    H216688   0.569   7.566   1.581
 5583TIP3   OH216689   1.057   1.383   0.316
 5583TIP3    H116690   1.007   1.354   0.239
 5583TIP3    H216691   1.132   1.324   0.319
 5584TIP3   OH216692   3.547   4.749   4.388
 5584TIP3    H116693   3.451   4.751   4.392
 5584TIP3    H216694   3.567   4.739   4.295
 5585TIP3   OH216695   3.372   1.249   5.826
 5585TIP3    H116696   3.314   1.223   5.755
 5585TIP3    H216697   3.337   1.205   5.903
 5586TIP3   OH216698   7.132   7.288   0.115
 5586TIP3    H116699   7.206   7.348   0.116
 5586TIP3    H216700   7.057   7.341   0.088
 5587TIP3   OH216701   8.155   5.083   0.616
 5587TIP3    H116702   8.220   5.101   0.684
 5587TIP3    H216703   8.079   5.049   0.664
 5588TIP3   OH216704   2.443   6.939   1.414
 5588TIP3    H116705   2.379   6.880   1.455
 5588TIP3    H216706   2.426   6.931   1.320
 5589TIP3   OH216707   2.476   6.919   1.843
 5589TIP3    H116708   2.487   6.986   1.911
 5589TIP3    H216709   2.533   6.947   1.772
 5590TIP3   OH216710   3.618   5.949   0.098
 5590TIP3    H116711   3.633   6.040   0.072
 5590TIP3    H216712   3.583   5.907   0.019
 5591TIP3   OH216713   3.478   1.098   3.122
 5591TIP3    H116714   3.501   1.095   3.214
 5591TIP3    H216715   3.402   1.040   3.114
 5592TIP3   OH216716   6.791   4.683   1.135
 5592TIP3    H116717   6.731   4.637   1.077
 5592TIP3    H216718   6.780   4.776   1.113
 5593TIP3   OH216719   3.141   0.435   4.564
 5593TIP3    H116720   3.200   0.461   4.635
 5593TIP3    H216721   3.187   0.364   4.520
 5594TIP3   OH216722   7.077   0.280   2.990
 5594TIP3    H116723   7.042   0.333   3.061
 5594TIP3    H216724   7.151   0.330   2.956
 5595TIP3   OH216725   2.795   4.905   1.539
 5595TIP3    H116726   2.796   4.916   1.444
 5595TIP3    H216727   2.723   4.961   1.569
 5596TIP3   OH216728   3.715   0.516   4.889
 5596TIP3    H116729   3.761   0.574   4.828
 5596TIP3    H216730   3.750   0.538   4.975
 5597TIP3   OH216731   5.567   0.316   3.800
 5597TIP3    H116732   5.591   0.232   3.838
 5597TIP3    H216733   5.477   0.330   3.827
 5598TIP3   OH216734   1.450   3.754   4.103
 5598TIP3    H116735   1.513   3.686   4.122
 5598TIP3    H216736   1.502   3.826   4.065
 5599TIP3   OH216737   0.318   6.266   3.035
 5599TIP3    H116738   0.261   6.235   3.105
 5599TIP3    H216739   0.383   6.197   3.025
 5600TIP3   OH216740   3.597   2.669   6.247
 5600TIP3    H116741   3.576   2.582   6.214
 5600TIP3    H216742   3.617   2.655   6.340
 5601TIP3   OH216743   4.201   4.994   4.732
 5601TIP3    H116744   4.281   4.995   4.783
 5601TIP3    H216745   4.156   5.075   4.755
 5602TIP3   OH216746   4.782   5.271   1.900
 5602TIP3    H116747   4.766   5.260   1.994
 5602TIP3    H216748   4.786   5.366   1.887
 5603TIP3   OH216749   1.294   2.266   3.044
 5603TIP3    H116750   1.370   2.216   3.014
 5603TIP3    H216751   1.221   2.203   3.040
 5604TIP3   OH216752   3.981   3.398   3.801
 5604TIP3    H116753   3.972   3.475   3.857
 5604TIP3    H216754   4.002   3.327   3.861
 5605TIP3   OH216755   3.411   6.262   5.630
 5605TIP3    H116756   3.378   6.289   5.716
 5605TIP3    H216757   3.506   6.273   5.636
 5606TIP3   OH216758   7.834   7.246   2.058
 5606TIP3    H116759   7.782   7.258   2.138
 5606TIP3    H216760   7.878   7.162   2.071
 5607TIP3   OH216761   3.330   2.143   2.275
 5607TIP3    H116762   3.406   2.192   2.307
 5607TIP3    H216763   3.368   2.066   2.233
 5608TIP3   OH216764   5.449   5.914   2.494
 5608TIP3    H116765   5.447   5.896   2.588
 5608TIP3    H216766   5.360   5.897   2.465
 5609TIP3   OH216767   7.009   0.163   6.796
 5609TIP3    H116768   7.065   0.134   6.867
 5609TIP3    H216769   6.992   0.084   6.745
 5610TIP3   OH216770   7.399   6.062   6.843
 5610TIP3    H116771   7.483   6.042   6.801
 5610TIP3    H216772   7.380   5.986   6.896
 5611TIP3   OH216773   3.385   5.323   2.000
 5611TIP3    H116774   3.454   5.350   2.061
 5611TIP3    H216775   3.403   5.231   1.983
 5612TIP3   OH216776   4.564   3.670   2.185
 5612TIP3    H116777   4.555   3.761   2.215
 5612TIP3    H216778   4.481   3.650   2.143
 5613TIP3   OH216779   8.098   1.722   3.172
 5613TIP3    H116780   8.057   1.670   3.102
 5613TIP3    H216781   8.035   1.721   3.243
 5614TIP3   OH216782   5.809   6.249   3.470
 5614TIP3    H116783   5.886   6.266   3.523
 5614TIP3    H216784   5.742   6.221   3.532
 5615TIP3   OH216785   2.380   2.385   2.583
 5615TIP3    H116786   2.331   2.398   2.502
 5615TIP3    H216787   2.326   2.426   2.650
 5616TIP3   OH216788   6.604   1.935   0.688
 5616TIP3    H116789   6.653   1.952   0.607
 5616TIP3    H216790   6.626   2.008   0.746
 5617TIP3   OH216791   5.752   5.228   6.362
 5617TIP3    H116792   5.729   5.316   6.332
 5617TIP3    H216793   5.828   5.204   6.310
 5618TIP3   OH216794   0.182   1.577   3.888
 5618TIP3    H116795   0.218   1.665   3.898
 5618TIP3    H216796   0.097   1.590   3.846
 5619TIP3   OH216797   2.607   1.489   0.740
 5619TIP3    H116798   2.535   1.546   0.716
 5619TIP3    H216799   2.565   1.411   0.776
 5620TIP3   OH216800   5.448   5.107   4.066
 5620TIP3    H116801   5.514   5.076   4.004
 5620TIP3    H216802   5.422   5.029   4.114
 5621TIP3   OH216803   6.945   6.977   2.542
 5621TIP3    H116804   6.994   6.896   2.536
 5621TIP3    H216805   6.998   7.034   2.597
 5622TIP3   OH216806   2.690   7.419   5.220
 5622TIP3    H116807   2.692   7.330   5.185
 5622TIP3    H216808   2.752   7.417   5.293
 5623TIP3   OH216809   3.439   7.063   0.871
 5623TIP3    H116810   3.480   6.988   0.828
 5623TIP3    H216811   3.351   7.032   0.894
 5624TIP3   OH216812   3.717   4.312   1.375
 5624TIP3    H116813   3.706   4.364   1.454
 5624TIP3    H216814   3.731   4.377   1.305
 5625TIP3   OH216815   0.750   1.101   4.634
 5625TIP3    H116816   0.804   1.063   4.703
 5625TIP3    H216817   0.805   1.169   4.595
 5626TIP3   OH216818   7.514   3.485   3.187
 5626TIP3    H116819   7.533   3.441   3.104
 5626TIP3    H216820   7.570   3.563   3.186
 5627TIP3   OH216821   1.283   3.007   5.560
 5627TIP3    H116822   1.259   3.043   5.646
 5627TIP3    H216823   1.221   2.935   5.546
 5628TIP3   OH216824   5.073   0.199   4.475
 5628TIP3    H116825   4.979   0.219   4.480
 5628TIP3    H216826   5.108   0.229   4.559
 5629TIP3   OH216827   5.675   3.321   0.698
 5629TIP3    H116828   5.704   3.347   0.785
 5629TIP3    H216829   5.715   3.386   0.639
 5630TIP3   OH216830   2.849   3.808   2.348
 5630TIP3    H116831   2.848   3.726   2.299
 5630TIP3    H216832   2.768   3.852   2.323
 5631TIP3   OH216833   0.499   2.009   3.824
 5631TIP3    H116834   0.519   2.046   3.909
 5631TIP3    H216835   0.581   2.012   3.776
 5632TIP3   OH216836   6.200  -0.005   4.926
 5632TIP3    H116837   6.146  -0.053   4.989
 5632TIP3    H216838   6.242   0.064   4.977
 5633TIP3   OH216839   6.735   6.781   2.734
 5633TIP3    H116840   6.708   6.750   2.820
 5633TIP3    H216841   6.824   6.748   2.724
 5634TIP3   OH216842   4.286   5.566   4.322
 5634TIP3    H116843   4.201   5.523   4.334
 5634TIP3    H216844   4.266   5.660   4.321
 5635TIP3   OH216845   1.090   2.365   5.565
 5635TIP3    H116846   1.178   2.382   5.598
 5635TIP3    H216847   1.047   2.317   5.636
 5636TIP3   OH216848   0.082   6.301   1.402
 5636TIP3    H116849   0.076   6.260   1.489
 5636TIP3    H216850   0.137   6.378   1.416
 5637TIP3   OH216851   2.769   2.658   3.353
 5637TIP3    H116852   2.776   2.732   3.293
 5637TIP3    H216853   2.825   2.682   3.427
 5638TIP3   OH216854   7.969   0.874   2.389
 5638TIP3    H116855   8.028   0.923   2.332
 5638TIP3    H216856   8.026   0.819   2.442
 5639TIP3   OH216857   1.370   0.364   4.729
 5639TIP3    H116858   1.449   0.322   4.764
 5639TIP3    H216859   1.331   0.408   4.804
 5640TIP3   OH216860   1.148   6.209   6.669
 5640TIP3    H116861   1.235   6.214   6.631
 5640TIP3    H216862   1.136   6.117   6.692
 5641TIP3   OH216863   3.125   4.279   4.536
 5641TIP3    H116864   3.179   4.277   4.615
 5641TIP3    H216865   3.035   4.275   4.569
 5642TIP3   OH216866   7.871   3.335   4.947
 5642TIP3    H116867   7.930   3.270   4.908
 5642TIP3    H216868   7.791   3.286   4.967
 5643TIP3   OH216869   3.240   5.237   0.220
 5643TIP3    H116870   3.313   5.281   0.263
 5643TIP3    H216871   3.163   5.261   0.272
 5644TIP3   OH216872   4.561   4.054   2.678
 5644TIP3    H116873   4.616   4.040   2.755
 5644TIP3    H216874   4.601   3.999   2.610
 5645TIP3   OH216875   4.734   3.346   2.179
 5645TIP3    H116876   4.827   3.338   2.161
 5645TIP3    H216877   4.719   3.440   2.188
 5646TIP3   OH216878   7.119   4.429   6.529
 5646TIP3    H116879   7.110   4.460   6.620
 5646TIP3    H216880   7.198   4.473   6.497
 5647TIP3   OH216881   0.963   4.513   1.260
 5647TIP3    H116882   0.933   4.532   1.171
 5647TIP3    H216883   0.913   4.572   1.316
 5648TIP3   OH216884   5.183   0.256   4.712
 5648TIP3    H116885   5.265   0.289   4.676
 5648TIP3    H216886   5.193   0.262   4.807
 5649TIP3   OH216887   6.694   0.551   2.695
 5649TIP3    H116888   6.631   0.616   2.663
 5649TIP3    H216889   6.660   0.524   2.780
 5650TIP3   OH216890   3.677   7.666   6.216
 5650TIP3    H116891   3.728   7.705   6.287
 5650TIP3    H216892   3.670   7.736   6.151
 5651TIP3   OH216893   3.301   3.430   1.377
 5651TIP3    H116894   3.294   3.461   1.287
 5651TIP3    H216895   3.233   3.362   1.384
 5652TIP3   OH216896   1.509   5.939   2.696
 5652TIP3    H116897   1.543   5.945   2.785
 5652TIP3    H216898   1.489   6.029   2.671
 5653TIP3   OH216899   1.309   2.557   4.440
 5653TIP3    H116900   1.329   2.464   4.432
 5653TIP3    H216901   1.265   2.579   4.357
 5654TIP3   OH216902   0.463   7.157   6.724
 5654TIP3    H116903   0.529   7.137   6.657
 5654TIP3    H216904   0.513   7.175   6.803
 5655TIP3   OH216905   8.220   6.667   1.681
 5655TIP3    H116906   8.232   6.730   1.610
 5655TIP3    H216907   8.282   6.695   1.748
 5656TIP3   OH216908   7.685   6.453   2.195
 5656TIP3    H116909   7.734   6.382   2.236
 5656TIP3    H216910   7.609   6.410   2.156
 5657TIP3   OH216911   3.391   0.539   2.756
 5657TIP3    H116912   3.359   0.466   2.809
 5657TIP3    H216913   3.449   0.588   2.815
 5658TIP3   OH216914   2.821   2.683   0.891
 5658TIP3    H116915   2.744   2.722   0.932
 5658TIP3    H216916   2.841   2.742   0.818
 5659TIP3   OH216917   3.705   3.768   2.213
 5659TIP3    H116918   3.687   3.774   2.307
 5659TIP3    H216919   3.751   3.685   2.201
 5660TIP3   OH216920   1.769   6.382   2.606
 5660TIP3    H116921   1.795   6.430   2.527
 5660TIP3    H216922   1.848   6.333   2.630
 5661TIP3   OH216923   7.939   7.567   2.586
 5661TIP3    H116924   7.997   7.579   2.510
 5661TIP3    H216925   7.951   7.647   2.637
 5662TIP3   OH216926   6.065   5.093   4.880
 5662TIP3    H116927   6.100   5.018   4.832
 5662TIP3    H216928   5.999   5.055   4.938
 5663TIP3   OH216929   0.131   6.668   2.562
 5663TIP3    H116930   0.096   6.684   2.650
 5663TIP3    H216931   0.225   6.685   2.570
 5664TIP3   OH216932   4.674   6.213   4.553
 5664TIP3    H116933   4.628   6.154   4.494
 5664TIP3    H216934   4.662   6.300   4.515
 5665TIP3   OH216935   8.345   6.952   4.530
 5665TIP3    H116936   8.267   6.897   4.531
 5665TIP3    H216937   8.319   7.029   4.478
 5666TIP3   OH216938   3.173   0.533   0.737
 5666TIP3    H116939   3.174   0.535   0.833
 5666TIP3    H216940   3.149   0.622   0.712
 5667TIP3   OH216941   7.828   2.128   3.605
 5667TIP3    H116942   7.874   2.075   3.670
 5667TIP3    H216943   7.771   2.185   3.656
 5668TIP3   OH216944   7.586   7.652   1.512
 5668TIP3    H116945   7.653   7.709   1.549
 5668TIP3    H216946   7.629   7.610   1.438
 5669TIP3   OH216947   2.822   3.866   3.334
 5669TIP3    H116948   2.834   3.882   3.428
 5669TIP3    H216949   2.817   3.771   3.326
 5670TIP3   OH216950   6.300   7.094   3.688
 5670TIP3    H116951   6.318   7.188   3.688
 5670TIP3    H216952   6.254   7.078   3.606
 5671TIP3   OH216953   3.524   6.611   5.430
 5671TIP3    H116954   3.456   6.543   5.429
 5671TIP3    H216955   3.569   6.601   5.347
 5672TIP3   OH216956   2.053   1.935   1.870
 5672TIP3    H116957   2.124   1.874   1.852
 5672TIP3    H216958   2.094   2.005   1.920
 5673TIP3   OH216959   0.428   5.131   6.131
 5673TIP3    H116960   0.443   5.224   6.143
 5673TIP3    H216961   0.502   5.089   6.175
 5674TIP3   OH216962   2.239   7.341   6.342
 5674TIP3    H116963   2.275   7.253   6.329
 5674TIP3    H216964   2.305   7.400   6.305
 5675TIP3   OH216965   4.692   1.184   0.344
 5675TIP3    H116966   4.745   1.175   0.265
 5675TIP3    H216967   4.631   1.255   0.325
 5676TIP3   OH216968   4.244   0.776   6.032
 5676TIP3    H116969   4.271   0.866   6.014
 5676TIP3    H216970   4.180   0.784   6.103
 5677TIP3   OH216971   2.154   2.755   2.249
 5677TIP3    H116972   2.123   2.782   2.163
 5677TIP3    H216973   2.076   2.725   2.295
 5678TIP3   OH216974   1.394   4.550   0.978
 5678TIP3    H116975   1.423   4.465   1.011
 5678TIP3    H216976   1.412   4.547   0.885
 5679TIP3   OH216977   3.489   5.982   2.194
 5679TIP3    H116978   3.456   5.892   2.193
 5679TIP3    H216979   3.583   5.973   2.179
 5680TIP3   OH216980   6.052   2.289   1.278
 5680TIP3    H116981   6.144   2.304   1.255
 5680TIP3    H216982   6.004   2.304   1.197
 5681TIP3   OH216983   6.049   5.791   2.693
 5681TIP3    H116984   6.082   5.795   2.603
 5681TIP3    H216985   6.065   5.879   2.728
 5682TIP3   OH216986   1.224   0.151   0.130
 5682TIP3    H116987   1.291   0.091   0.162
 5682TIP3    H216988   1.147   0.096   0.115
 5683TIP3   OH216989   8.139   6.018   0.163
 5683TIP3    H116990   8.062   6.042   0.215
 5683TIP3    H216991   8.106   5.955   0.099
 5684TIP3   OH216992   8.095   6.996   4.938
 5684TIP3    H116993   8.104   6.926   4.873
 5684TIP3    H216994   8.057   7.069   4.890
 5685TIP3   OH216995   1.979   6.504   5.069
 5685TIP3    H116996   2.074   6.498   5.078
 5685TIP3    H216997   1.947   6.512   5.159
 5686TIP3   OH216998   2.220   7.827   0.689
 5686TIP3    H116999   2.245   7.901   0.745
 5686TIP3    H217000   2.183   7.763   0.750
 5687TIP3   OH217001   6.739   6.016   3.775
 5687TIP3    H117002   6.781   6.046   3.695
 5687TIP3    H217003   6.752   5.921   3.775
 5688TIP3   OH217004   4.178   7.552   4.115
 5688TIP3    H117005   4.152   7.482   4.176
 5688TIP3    H217006   4.110   7.618   4.124
 5689TIP3   OH217007   8.353   7.721   5.488
 5689TIP3    H117008   8.408   7.758   5.418
 5689TIP3    H217009   8.412   7.663   5.536
 5690TIP3   OH217010   1.273   3.895   6.483
 5690TIP3    H117011   1.299   3.973   6.533
 5690TIP3    H217012   1.354   3.866   6.440
 5691TIP3   OH217013   4.710   6.152   4.233
 5691TIP3    H117014   4.753   6.075   4.194
 5691TIP3    H217015   4.777   6.220   4.230
 5692TIP3   OH217016   6.278   5.976   0.718
 5692TIP3    H117017   6.280   5.932   0.633
 5692TIP3    H217018   6.309   6.065   0.700
 5693TIP3   OH217019   7.526   0.537   6.555
 5693TIP3    H117020   7.494   0.454   6.519
 5693TIP3    H217021   7.481   0.604   6.504
 5694TIP3   OH217022   8.270   1.194   5.770
 5694TIP3    H117023   8.312   1.271   5.731
 5694TIP3    H217024   8.228   1.150   5.696
 5695TIP3   OH217025   7.909   3.831   4.271
 5695TIP3    H117026   7.865   3.864   4.193
 5695TIP3    H217027   7.897   3.900   4.336
 5696TIP3   OH217028   0.060   5.306   0.857
 5696TIP3    H117029   0.009   5.322   0.778
 5696TIP3    H217030   0.061   5.390   0.903
 5697TIP3   OH217031   4.562   3.696   3.605
 5697TIP3    H117032   4.517   3.718   3.523
 5697TIP3    H217033   4.569   3.779   3.652
 5698TIP3   OH217034   7.988   1.363   3.470
 5698TIP3    H117035   8.032   1.283   3.496
 5698TIP3    H217036   7.994   1.420   3.547
 5699TIP3   OH217037   4.967   4.783   2.015
 5699TIP3    H117038   4.955   4.688   2.003
 5699TIP3    H217039   4.877   4.817   2.017
 5700TIP3   OH217040   4.632   2.473   4.019
 5700TIP3    H117041   4.592   2.415   3.954
 5700TIP3    H217042   4.726   2.458   4.011
 5701TIP3   OH217043   1.185   2.913   6.759
 5701TIP3    H117044   1.116   2.916   6.825
 5701TIP3    H217045   1.138   2.914   6.675
 5702TIP3   OH217046   2.055   7.371   3.309
 5702TIP3    H117047   2.000   7.329   3.243
 5702TIP3    H217048   2.114   7.427   3.259
 5703TIP3   OH217049   6.330   2.937   5.303
 5703TIP3    H117050   6.377   3.009   5.262
 5703TIP3    H217051   6.336   2.954   5.397
 5704TIP3   OH217052   2.082   1.864   3.691
 5704TIP3    H117053   2.125   1.944   3.721
 5704TIP3    H217054   2.040   1.889   3.609
 5705TIP3   OH217055   6.381   1.368   0.859
 5705TIP3    H117056   6.349   1.455   0.834
 5705TIP3    H217057   6.399   1.375   0.953
 5706TIP3   OH217058   0.655   1.720   5.872
 5706TIP3    H117059   0.660   1.700   5.965
 5706TIP3    H217060   0.619   1.809   5.869
 5707TIP3   OH217061   7.501   4.327   0.969
 5707TIP3    H117062   7.424   4.383   0.967
 5707TIP3    H217063   7.538   4.334   0.881
 5708TIP3   OH217064   0.471   1.300   1.837
 5708TIP3    H117065   0.532   1.338   1.774
 5708TIP3    H217066   0.468   1.364   1.908
 5709TIP3   OH217067   2.333   1.582   0.649
 5709TIP3    H117068   2.328   1.502   0.596
 5709TIP3    H217069   2.288   1.648   0.597
 5710TIP3   OH217070   4.353   3.595   2.022
 5710TIP3    H117071   4.345   3.593   1.927
 5710TIP3    H217072   4.330   3.507   2.051
 5711TIP3   OH217073   0.245   0.810   5.790
 5711TIP3    H117074   0.222   0.762   5.710
 5711TIP3    H217075   0.206   0.896   5.778
 5712TIP3   OH217076   4.004   7.065   5.199
 5712TIP3    H117077   4.008   7.038   5.291
 5712TIP3    H217078   4.037   6.990   5.150
 5713TIP3   OH217079   5.341   3.342   3.772
 5713TIP3    H117080   5.380   3.288   3.841
 5713TIP3    H217081   5.267   3.385   3.815
 5714TIP3   OH217082   0.264   5.768   0.917
 5714TIP3    H117083   0.258   5.837   0.852
 5714TIP3    H217084   0.357   5.758   0.934
 5715TIP3   OH217085   2.759   7.115   0.601
 5715TIP3    H117086   2.807   7.198   0.609
 5715TIP3    H217087   2.781   7.082   0.514
 5716TIP3   OH217088   4.437   2.046   5.855
 5716TIP3    H117089   4.479   2.131   5.860
 5716TIP3    H217090   4.509   1.983   5.859
 5717TIP3   OH217091   3.889   0.658   6.463
 5717TIP3    H117092   3.818   0.721   6.449
 5717TIP3    H217093   3.844   0.576   6.486
 5718TIP3   OH217094   2.939   4.288   3.663
 5718TIP3    H117095   3.006   4.333   3.715
 5718TIP3    H217096   2.910   4.354   3.600
 5719TIP3   OH217097   1.586   4.949   5.938
 5719TIP3    H117098   1.668   4.955   5.986
 5719TIP3    H217099   1.576   4.856   5.919
 5720TIP3   OH217100   7.510   4.280   3.139
 5720TIP3    H117101   7.572   4.258   3.209
 5720TIP3    H217102   7.545   4.360   3.101
 5721TIP3   OH217103   7.634   4.554   0.449
 5721TIP3    H117104   7.592   4.576   0.365
 5721TIP3    H217105   7.720   4.595   0.443
 5722TIP3   OH217106   1.271   4.337   1.756
 5722TIP3    H117107   1.359   4.308   1.729
 5722TIP3    H217108   1.279   4.432   1.764
 5723TIP3   OH217109   5.286   5.918   0.169
 5723TIP3    H117110   5.255   5.873   0.091
 5723TIP3    H217111   5.354   5.862   0.205
 5724TIP3   OH217112   5.072   4.019   3.864
 5724TIP3    H117113   5.092   4.112   3.870
 5724TIP3    H217114   4.979   4.013   3.886
 5725TIP3   OH217115   3.637   5.089   0.708
 5725TIP3    H117116   3.576   5.037   0.654
 5725TIP3    H217117   3.585   5.162   0.739
 5726TIP3   OH217118   2.816   7.748   0.628
 5726TIP3    H117119   2.808   7.826   0.573
 5726TIP3    H217120   2.900   7.710   0.603
 5727TIP3   OH217121   3.186   5.047   4.932
 5727TIP3    H117122   3.150   5.090   5.009
 5727TIP3    H217123   3.124   4.977   4.912
 5728TIP3   OH217124   5.958   7.357   3.409
 5728TIP3    H117125   5.876   7.359   3.360
 5728TIP3    H217126   5.931   7.356   3.501
 5729TIP3   OH217127   4.703   2.529   6.445
 5729TIP3    H117128   4.741   2.451   6.404
 5729TIP3    H217129   4.635   2.495   6.503
 5730TIP3   OH217130   6.070   4.680   5.674
 5730TIP3    H117131   6.143   4.658   5.731
 5730TIP3    H217132   6.111   4.706   5.591
 5731TIP3   OH217133   0.719   3.234   1.154
 5731TIP3    H117134   0.629   3.264   1.141
 5731TIP3    H217135   0.744   3.270   1.239
 5732TIP3   OH217136   2.357   2.346   6.363
 5732TIP3    H117137   2.420   2.330   6.433
 5732TIP3    H217138   2.317   2.260   6.347
 5733TIP3   OH217139   1.196   6.503   1.339
 5733TIP3    H117140   1.165   6.413   1.347
 5733TIP3    H217141   1.118   6.557   1.354
 5734TIP3   OH217142   5.342   2.170   2.312
 5734TIP3    H117143   5.249   2.157   2.328
 5734TIP3    H217144   5.377   2.203   2.396
 5735TIP3   OH217145   2.644   6.027   6.268
 5735TIP3    H117146   2.715   5.963   6.273
 5735TIP3    H217147   2.664   6.078   6.189
 5736TIP3   OH217148   6.873   0.673   3.155
 5736TIP3    H117149   6.845   0.581   3.164
 5736TIP3    H217150   6.915   0.694   3.238
 5737TIP3   OH217151   7.006   7.456   6.272
 5737TIP3    H117152   7.084   7.438   6.219
 5737TIP3    H217153   6.935   7.463   6.207
 5738TIP3   OH217154   4.737   0.454   4.874
 5738TIP3    H117155   4.789   0.381   4.840
 5738TIP3    H217156   4.719   0.508   4.797
 5739TIP3   OH217157   3.520   4.760   3.810
 5739TIP3    H117158   3.505   4.840   3.760
 5739TIP3    H217159   3.459   4.697   3.772
 5740TIP3   OH217160   0.129   3.730   5.936
 5740TIP3    H117161   0.099   3.639   5.926
 5740TIP3    H217162   0.074   3.780   5.877
 5741TIP3   OH217163   3.064   5.918   6.498
 5741TIP3    H117164   3.064   5.977   6.573
 5741TIP3    H217165   3.045   5.832   6.535
 5742TIP3   OH217166   2.072   3.690   1.496
 5742TIP3    H117167   2.113   3.775   1.481
 5742TIP3    H217168   1.984   3.711   1.529
 5743TIP3   OH217169   7.433   1.988   2.979
 5743TIP3    H117170   7.517   2.002   3.022
 5743TIP3    H217171   7.368   1.990   3.050
 5744TIP3   OH217172   3.168   2.399   5.005
 5744TIP3    H117173   3.095   2.393   4.944
 5744TIP3    H217174   3.234   2.452   4.960
 5745TIP3   OH217175   4.403   6.856   1.702
 5745TIP3    H117176   4.433   6.848   1.793
 5745TIP3    H217177   4.330   6.918   1.706
 5746TIP3   OH217178   5.766   1.152   3.509
 5746TIP3    H117179   5.692   1.188   3.557
 5746TIP3    H217180   5.771   1.060   3.536
 5747TIP3   OH217181   0.377   4.886   4.757
 5747TIP3    H117182   0.338   4.799   4.747
 5747TIP3    H217183   0.305   4.940   4.790
 5748TIP3   OH217184   3.886   2.360   2.554
 5748TIP3    H117185   3.953   2.314   2.603
 5748TIP3    H217186   3.812   2.367   2.615
 5749TIP3   OH217187   8.138   5.266   3.522
 5749TIP3    H117188   8.097   5.226   3.599
 5749TIP3    H217189   8.133   5.199   3.454
 5750TIP3   OH217190   7.420   1.902   0.783
 5750TIP3    H117191   7.362   1.825   0.779
 5750TIP3    H217192   7.366   1.971   0.820
 5751TIP3   OH217193   1.252   7.648   6.262
 5751TIP3    H117194   1.239   7.578   6.198
 5751TIP3    H217195   1.346   7.647   6.280
 5752TIP3   OH217196   1.800   6.890   5.872
 5752TIP3    H117197   1.787   6.931   5.957
 5752TIP3    H217198   1.720   6.840   5.857
 5753TIP3   OH217199   1.724   6.016   6.667
 5753TIP3    H117200   1.819   6.032   6.663
 5753TIP3    H217201   1.702   6.027   6.759
 5754TIP3   OH217202   5.110   0.741   3.762
 5754TIP3    H117203   5.126   0.735   3.667
 5754TIP3    H217204   5.053   0.817   3.771
 5755TIP3   OH217205   7.514   4.860   6.100
 5755TIP3    H117206   7.499   4.834   6.009
 5755TIP3    H217207   7.540   4.780   6.144
 5756TIP3   OH217208   2.846   0.910   1.545
 5756TIP3    H117209   2.832   0.877   1.634
 5756TIP3    H217210   2.858   0.832   1.491
 5757TIP3   OH217211   7.278   3.567   4.886
 5757TIP3    H117212   7.339   3.563   4.812
 5757TIP3    H217213   7.224   3.488   4.876
 5758TIP3   OH217214   2.789   4.846   0.856
 5758TIP3    H117215   2.793   4.769   0.799
 5758TIP3    H217216   2.697   4.853   0.881
 5759TIP3   OH217217   6.271   2.566   6.486
 5759TIP3    H117218   6.231   2.485   6.453
 5759TIP3    H217219   6.201   2.611   6.532
 5760TIP3   OH217220   5.226   6.211   4.366
 5760TIP3    H117221   5.271   6.127   4.354
 5760TIP3    H217222   5.179   6.201   4.449
 5761TIP3   OH217223   6.872   0.102   4.128
 5761TIP3    H117224   6.863   0.141   4.215
 5761TIP3    H217225   6.945   0.149   4.089
 5762TIP3   OH217226   3.983   5.796   2.638
 5762TIP3    H117227   3.967   5.756   2.552
 5762TIP3    H217228   4.074   5.774   2.658
 5763TIP3   OH217229   7.583   7.098   0.762
 5763TIP3    H117230   7.596   7.064   0.851
 5763TIP3    H217231   7.672   7.116   0.731
 5764TIP3   OH217232   8.074   2.205   5.508
 5764TIP3    H117233   8.015   2.238   5.441
 5764TIP3    H217234   8.020   2.195   5.586
 5765TIP3   OH217235   0.211   4.738   2.649
 5765TIP3    H117236   0.150   4.670   2.676
 5765TIP3    H217237   0.172   4.775   2.569
 5766TIP3   OH217238   6.879   2.681   5.284
 5766TIP3    H117239   6.847   2.771   5.287
 5766TIP3    H217240   6.802   2.628   5.263
 5767TIP3   OH217241   4.078   1.380   5.577
 5767TIP3    H117242   4.150   1.326   5.544
 5767TIP3    H217243   4.072   1.357   5.669
 5768TIP3   OH217244   1.794   3.370   1.937
 5768TIP3    H117245   1.767   3.349   1.848
 5768TIP3    H217246   1.818   3.462   1.935
 5769TIP3   OH217247   4.172   7.467   3.803
 5769TIP3    H117248   4.227   7.390   3.788
 5769TIP3    H217249   4.086   7.442   3.770
 5770TIP3   OH217250   5.921   1.849   6.031
 5770TIP3    H117251   5.896   1.771   5.983
 5770TIP3    H217252   5.840   1.881   6.072
 5771TIP3   OH217253   2.596   6.425   3.931
 5771TIP3    H117254   2.597   6.329   3.928
 5771TIP3    H217255   2.547   6.446   4.010
 5772TIP3   OH217256   5.956   1.037   1.455
 5772TIP3    H117257   5.898   1.071   1.387
 5772TIP3    H217258   6.036   1.012   1.409
 5773TIP3   OH217259   4.709   4.035   2.908
 5773TIP3    H117260   4.696   4.059   3.000
 5773TIP3    H217261   4.718   3.940   2.909
 5774TIP3   OH217262   4.075   4.562   3.818
 5774TIP3    H117263   3.982   4.565   3.842
 5774TIP3    H217264   4.092   4.469   3.799
 5775TIP3   OH217265   2.652   2.555   3.702
 5775TIP3    H117266   2.574   2.507   3.675
 5775TIP3    H217267   2.619   2.627   3.756
 5776TIP3   OH217268   2.383   6.001   0.055
 5776TIP3    H117269   2.288   6.001   0.038
 5776TIP3    H217270   2.404   6.094   0.067
 5777TIP3   OH217271   1.039   4.112   6.678
 5777TIP3    H117272   1.005   4.076   6.596
 5777TIP3    H217273   0.962   4.147   6.723
 5778TIP3   OH217274   5.953   4.934   1.254
 5778TIP3    H117275   5.902   4.938   1.335
 5778TIP3    H217276   5.937   4.847   1.219
 5779TIP3   OH217277   7.357   0.284   5.392
 5779TIP3    H117278   7.408   0.228   5.450
 5779TIP3    H217279   7.369   0.246   5.305
 5780TIP3   OH217280   4.368   5.385   2.131
 5780TIP3    H117281   4.401   5.463   2.087
 5780TIP3    H217282   4.383   5.402   2.224
 5781TIP3   OH217283   0.775   6.837   1.788
 5781TIP3    H117284   0.797   6.907   1.727
 5781TIP3    H217285   0.684   6.815   1.769
 5782TIP3   OH217286   7.640   5.802   3.645
 5782TIP3    H117287   7.637   5.714   3.607
 5782TIP3    H217288   7.556   5.813   3.689
 5783TIP3   OH217289   0.230   0.417   5.589
 5783TIP3    H117290   0.253   0.328   5.560
 5783TIP3    H217291   0.276   0.427   5.672
 5784TIP3   OH217292   0.277   1.536   0.723
 5784TIP3    H117293   0.182   1.534   0.731
 5784TIP3    H217294   0.294   1.544   0.629
 5785TIP3   OH217295   2.315   6.930   0.280
 5785TIP3    H117296   2.397   6.881   0.281
 5785TIP3    H217297   2.271   6.905   0.362
 5786TIP3   OH217298   0.755   4.846   5.263
 5786TIP3    H117299   0.750   4.892   5.347
 5786TIP3    H217300   0.730   4.912   5.198
 5787TIP3   OH217301   3.332   0.556   5.269
 5787TIP3    H117302   3.406   0.597   5.313
 5787TIP3    H217303   3.357   0.553   5.177
 5788TIP3   OH217304   1.605   4.720   3.679
 5788TIP3    H117305   1.604   4.707   3.774
 5788TIP3    H217306   1.560   4.643   3.644
 5789TIP3   OH217307   3.043   4.927   2.057
 5789TIP3    H117308   3.024   4.967   2.141
 5789TIP3    H217309   2.985   4.972   1.995
 5790TIP3   OH217310   2.623   7.496   3.350
 5790TIP3    H117311   2.569   7.523   3.276
 5790TIP3    H217312   2.570   7.430   3.395
 5791TIP3   OH217313   6.569   4.553   5.518
 5791TIP3    H117314   6.624   4.526   5.445
 5791TIP3    H217315   6.544   4.471   5.561
 5792TIP3   OH217316   8.031   1.808   4.312
 5792TIP3    H117317   7.974   1.824   4.237
 5792TIP3    H217318   8.119   1.825   4.280
 5793TIP3   OH217319   7.616   2.879   3.101
 5793TIP3    H117320   7.601   2.969   3.129
 5793TIP3    H217321   7.561   2.826   3.159
 5794TIP3   OH217322   3.672   1.719   1.285
 5794TIP3    H117323   3.663   1.635   1.240
 5794TIP3    H217324   3.758   1.715   1.326
 5795TIP3   OH217325   2.429   6.842   4.212
 5795TIP3    H117326   2.467   6.913   4.265
 5795TIP3    H217327   2.504   6.789   4.186
 5796TIP3   OH217328   7.973   7.767   4.578
 5796TIP3    H117329   8.005   7.687   4.619
 5796TIP3    H217330   8.050   7.806   4.537
 5797TIP3   OH217331   2.980   7.832   1.215
 5797TIP3    H117332   3.033   7.764   1.174
 5797TIP3    H217333   2.903   7.840   1.160
 5798TIP3   OH217334   1.551   0.642   4.627
 5798TIP3    H117335   1.502   0.646   4.545
 5798TIP3    H217336   1.605   0.722   4.627
 5799TIP3   OH217337   6.953   5.732   1.285
 5799TIP3    H117338   6.894   5.675   1.236
 5799TIP3    H217339   7.040   5.702   1.261
 5800TIP3   OH217340   6.567   2.822   3.519
 5800TIP3    H117341   6.615   2.740   3.506
 5800TIP3    H217342   6.599   2.856   3.602
 5801TIP3   OH217343   0.729   4.839   6.653
 5801TIP3    H117344   0.710   4.930   6.630
 5801TIP3    H217345   0.823   4.830   6.635
 5802TIP3   OH217346   1.837   1.550   4.081
 5802TIP3    H117347   1.898   1.540   4.154
 5802TIP3    H217348   1.892   1.540   4.003
 5803TIP3   OH217349   6.199   7.247   4.327
 5803TIP3    H117350   6.191   7.263   4.421
 5803TIP3    H217351   6.260   7.173   4.321
 5804TIP3   OH217352   2.565   1.969   1.304
 5804TIP3    H117353   2.494   1.914   1.336
 5804TIP3    H217354   2.589   1.932   1.220
 5805TIP3   OH217355   2.914   4.892   5.074
 5805TIP3    H117356   2.917   4.918   4.982
 5805TIP3    H217357   2.953   4.966   5.121
 5806TIP3   OH217358   5.779   0.560   1.654
 5806TIP3    H117359   5.757   0.645   1.692
 5806TIP3    H217360   5.770   0.498   1.727
 5807TIP3   OH217361   2.764   5.027   6.638
 5807TIP3    H117362   2.793   4.964   6.573
 5807TIP3    H217363   2.843   5.051   6.685
 5808TIP3   OH217364   4.182   3.372   1.249
 5808TIP3    H117365   4.130   3.451   1.233
 5808TIP3    H217366   4.246   3.397   1.316
 5809TIP3   OH217367   3.863   0.394   6.573
 5809TIP3    H117368   3.772   0.375   6.549
 5809TIP3    H217369   3.864   0.385   6.669
 5810TIP3   OH217370   0.180   3.572   1.747
 5810TIP3    H117371   0.264   3.565   1.792
 5810TIP3    H217372   0.130   3.496   1.778
 5811TIP3   OH217373   0.943   7.578   4.908
 5811TIP3    H117374   0.855   7.615   4.899
 5811TIP3    H217375   0.931   7.501   4.963
 5812TIP3   OH217376   4.590   3.994   5.548
 5812TIP3    H117377   4.537   4.069   5.522
 5812TIP3    H217378   4.676   4.012   5.512
 5813TIP3   OH217379   1.165   6.903   4.935
 5813TIP3    H117380   1.076   6.934   4.923
 5813TIP3    H217381   1.201   6.956   5.006
 5814TIP3   OH217382   1.147   1.997   1.232
 5814TIP3    H117383   1.226   2.050   1.219
 5814TIP3    H217384   1.083   2.057   1.271
 5815TIP3   OH217385   1.499   6.316   1.652
 5815TIP3    H117386   1.476   6.234   1.609
 5815TIP3    H217387   1.426   6.375   1.634
 5816TIP3   OH217388   2.481   5.398   5.522
 5816TIP3    H117389   2.429   5.318   5.511
 5816TIP3    H217390   2.565   5.376   5.482
 5817TIP3   OH217391   7.015   0.496   4.829
 5817TIP3    H117392   7.086   0.560   4.824
 5817TIP3    H217393   7.015   0.453   4.743
 5818TIP3   OH217394   7.056   2.888   5.575
 5818TIP3    H117395   7.130   2.828   5.565
 5818TIP3    H217396   7.054   2.939   5.494
 5819TIP3   OH217397   6.655   0.918   3.146
 5819TIP3    H117398   6.720   0.847   3.142
 5819TIP3    H217399   6.574   0.878   3.114
 5820TIP3   OH217400   4.843   4.820   1.158
 5820TIP3    H117401   4.903   4.858   1.094
 5820TIP3    H217402   4.770   4.787   1.106
 5821TIP3   OH217403   5.737   0.843   4.488
 5821TIP3    H117404   5.673   0.852   4.418
 5821TIP3    H217405   5.747   0.932   4.522
 5822TIP3   OH217406   1.983   2.063   1.288
 5822TIP3    H117407   1.902   2.036   1.330
 5822TIP3    H217408   2.043   2.080   1.361
 5823TIP3   OH217409   4.392   5.792   6.014
 5823TIP3    H117410   4.467   5.774   5.958
 5823TIP3    H217411   4.340   5.855   5.964
 5824TIP3   OH217412   0.058   5.502   0.042
 5824TIP3    H117413   0.140   5.551   0.048
 5824TIP3    H217414  -0.011   5.567   0.059
 5825TIP3   OH217415   3.301   0.752   6.771
 5825TIP3    H117416   3.265   0.663   6.774
 5825TIP3    H217417   3.374   0.750   6.832
 5826TIP3   OH217418   7.541   0.457   4.627
 5826TIP3    H117419   7.510   0.509   4.553
 5826TIP3    H217420   7.584   0.381   4.587
 5827TIP3   OH217421   7.269   5.639   6.235
 5827TIP3    H117422   7.325   5.563   6.219
 5827TIP3    H217423   7.207   5.639   6.162
 5828TIP3   OH217424   7.336   1.754   1.939
 5828TIP3    H117425   7.308   1.788   2.023
 5828TIP3    H217426   7.260   1.764   1.882
 5829TIP3   OH217427   4.768   0.676   1.943
 5829TIP3    H117428   4.772   0.719   2.028
 5829TIP3    H217429   4.826   0.728   1.887
 5830TIP3   OH217430   0.455   7.770   2.548
 5830TIP3    H117431   0.382   7.725   2.591
 5830TIP3    H217432   0.521   7.702   2.537
 5831TIP3   OH217433   1.991   6.096   6.597
 5831TIP3    H117434   2.060   6.143   6.645
 5831TIP3    H217435   2.022   6.096   6.506
 5832TIP3   OH217436   4.080   2.886   0.533
 5832TIP3    H117437   4.106   2.801   0.568
 5832TIP3    H217438   4.045   2.867   0.446
 5833TIP3   OH217439   2.910   1.034   0.974
 5833TIP3    H117440   2.939   1.087   0.900
 5833TIP3    H217441   2.966   0.956   0.972
 5834TIP3   OH217442   1.325   2.360   2.776
 5834TIP3    H117443   1.295   2.314   2.854
 5834TIP3    H217444   1.300   2.303   2.703
 5835TIP3   OH217445   6.779   5.473   2.695
 5835TIP3    H117446   6.826   5.549   2.660
 5835TIP3    H217447   6.833   5.398   2.668
 5836TIP3   OH217448   3.171   1.482   1.415
 5836TIP3    H117449   3.231   1.550   1.384
 5836TIP3    H217450   3.084   1.519   1.400
 5837TIP3   OH217451   0.039   3.682   3.946
 5837TIP3    H117452   0.018   3.623   3.873
 5837TIP3    H217453   0.009   3.768   3.917
 5838TIP3   OH217454   2.970   4.893   3.210
 5838TIP3    H117455   2.911   4.864   3.140
 5838TIP3    H217456   2.931   4.973   3.244
 5839TIP3   OH217457   5.337   2.356   5.443
 5839TIP3    H117458   5.324   2.411   5.520
 5839TIP3    H217459   5.367   2.273   5.478
 5840TIP3   OH217460   0.534   2.869   0.514
 5840TIP3    H117461   0.502   2.905   0.431
 5840TIP3    H217462   0.505   2.932   0.580
 5841TIP3   OH217463   0.986   3.296   2.943
 5841TIP3    H117464   1.076   3.271   2.924
 5841TIP3    H217465   0.958   3.237   3.013
 5842TIP3   OH217466   8.153   0.038   1.279
 5842TIP3    H117467   8.089   0.028   1.349
 5842TIP3    H217468   8.235   0.061   1.324
 5843TIP3   OH217469   4.289   4.237   1.182
 5843TIP3    H117470   4.211   4.291   1.194
 5843TIP3    H217471   4.338   4.247   1.264
 5844TIP3   OH217472   0.365   3.798   4.267
 5844TIP3    H117473   0.275   3.767   4.277
 5844TIP3    H217474   0.373   3.816   4.173
 5845TIP3   OH217475   6.796   5.149   2.527
 5845TIP3    H117476   6.856   5.075   2.523
 5845TIP3    H217477   6.712   5.110   2.552
 5846TIP3   OH217478   3.229   1.638   5.482
 5846TIP3    H117479   3.208   1.617   5.573
 5846TIP3    H217480   3.307   1.693   5.487
 5847TIP3   OH217481   6.283   7.427   5.719
 5847TIP3    H117482   6.337   7.452   5.644
 5847TIP3    H217483   6.308   7.337   5.739
 5848TIP3   OH217484   3.560   3.966   5.447
 5848TIP3    H117485   3.578   4.060   5.444
 5848TIP3    H217486   3.476   3.956   5.402
 5849TIP3   OH217487   1.969   5.683   5.114
 5849TIP3    H117488   1.875   5.702   5.120
 5849TIP3    H217489   2.009   5.740   5.179
 5850TIP3   OH217490   6.476   1.887   2.786
 5850TIP3    H117491   6.493   1.838   2.866
 5850TIP3    H217492   6.384   1.914   2.793
 5851TIP3   OH217493   3.106   2.910   6.603
 5851TIP3    H117494   3.176   2.852   6.635
 5851TIP3    H217495   3.145   2.956   6.529
 5852TIP3   OH217496   0.318   4.445   0.078
 5852TIP3    H117497   0.335   4.353   0.098
 5852TIP3    H217498   0.404   4.487   0.084
 5853TIP3   OH217499   3.216   6.090   3.860
 5853TIP3    H117500   3.239   6.012   3.910
 5853TIP3    H217501   3.279   6.157   3.889
 5854TIP3   OH217502   1.442   7.177   4.348
 5854TIP3    H117503   1.453   7.271   4.355
 5854TIP3    H217504   1.529   7.144   4.327
 5855TIP3   OH217505   8.258   0.244   4.307
 5855TIP3    H117506   8.295   0.327   4.337
 5855TIP3    H217507   8.331   0.201   4.261
 5856TIP3   OH217508   1.569   4.880   5.389
 5856TIP3    H117509   1.518   4.846   5.463
 5856TIP3    H217510   1.650   4.829   5.390
 5857TIP3   OH217511   0.407   4.735   5.340
 5857TIP3    H117512   0.397   4.784   5.259
 5857TIP3    H217513   0.338   4.768   5.397
 5858TIP3   OH217514   6.706   6.196   4.899
 5858TIP3    H117515   6.698   6.225   4.990
 5858TIP3    H217516   6.618   6.168   4.875
 5859TIP3   OH217517   2.986   7.323   0.211
 5859TIP3    H117518   2.912   7.282   0.255
 5859TIP3    H217519   2.972   7.305   0.118
 5860TIP3   OH217520   0.301   7.210   2.014
 5860TIP3    H117521   0.233   7.222   2.079
 5860TIP3    H217522   0.327   7.299   1.990
 5861TIP3   OH217523   7.036   2.600   5.498
 5861TIP3    H117524   6.992   2.652   5.431
 5861TIP3    H217525   7.002   2.511   5.485
 5862TIP3   OH217526   5.334   4.520   6.564
 5862TIP3    H117527   5.347   4.579   6.490
 5862TIP3    H217528   5.245   4.485   6.551
 5863TIP3   OH217529   0.610   0.855   4.810
 5863TIP3    H117530   0.609   0.861   4.905
 5863TIP3    H217531   0.654   0.935   4.781
 5864TIP3   OH217532   8.146   6.346   1.943
 5864TIP3    H117533   8.083   6.418   1.951
 5864TIP3    H217534   8.174   6.350   1.851
 5865TIP3   OH217535   5.159   3.608   0.510
 5865TIP3    H117536   5.194   3.551   0.579
 5865TIP3    H217537   5.078   3.566   0.483
 5866TIP3   OH217538   0.139   3.730   4.526
 5866TIP3    H117539   0.132   3.762   4.436
 5866TIP3    H217540   0.233   3.728   4.544
 5867TIP3   OH217541   5.173   1.466   4.397
 5867TIP3    H117542   5.114   1.511   4.336
 5867TIP3    H217543   5.136   1.378   4.405
 5868TIP3   OH217544   6.336   1.335   0.425
 5868TIP3    H117545   6.383   1.255   0.447
 5868TIP3    H217546   6.330   1.333   0.329
 5869TIP3   OH217547   2.681   0.296   4.105
 5869TIP3    H117548   2.600   0.246   4.112
 5869TIP3    H217549   2.720   0.267   4.022
 5870TIP3   OH217550   2.087   7.212   4.573
 5870TIP3    H117551   1.996   7.244   4.573
 5870TIP3    H217552   2.089   7.146   4.504
 5871TIP3   OH217553   5.032   7.482   5.189
 5871TIP3    H117554   5.110   7.537   5.190
 5871TIP3    H217555   5.063   7.396   5.218
 5872TIP3   OH217556   2.862   0.454   5.061
 5872TIP3    H117557   2.927   0.473   5.129
 5872TIP3    H217558   2.836   0.363   5.077
 5873TIP3   OH217559   4.686   3.139   6.364
 5873TIP3    H117560   4.646   3.081   6.300
 5873TIP3    H217561   4.677   3.226   6.326
 5874TIP3   OH217562   6.814   7.458   0.368
 5874TIP3    H117563   6.866   7.387   0.406
 5874TIP3    H217564   6.795   7.516   0.442
 5875TIP3   OH217565   1.984   4.940   5.387
 5875TIP3    H117566   2.023   4.934   5.300
 5875TIP3    H217567   2.000   5.030   5.415
 5876TIP3   OH217568   6.173   6.155   5.600
 5876TIP3    H117569   6.103   6.095   5.576
 5876TIP3    H217570   6.171   6.158   5.696
 5877TIP3   OH217571   1.347   4.366   2.757
 5877TIP3    H117572   1.361   4.381   2.664
 5877TIP3    H217573   1.254   4.382   2.770
 5878TIP3   OH217574   0.917   0.273   3.103
 5878TIP3    H117575   0.854   0.269   3.031
 5878TIP3    H217576   0.989   0.326   3.070
 5879TIP3   OH217577   7.776   6.807   3.105
 5879TIP3    H117578   7.763   6.846   3.019
 5879TIP3    H217579   7.710   6.738   3.110
 5880TIP3   OH217580   6.972   2.155   2.068
 5880TIP3    H117581   7.011   2.124   2.149
 5880TIP3    H217582   6.906   2.218   2.096
 5881TIP3   OH217583   4.159   0.210   1.792
 5881TIP3    H117584   4.103   0.135   1.809
 5881TIP3    H217585   4.202   0.190   1.708
 5882TIP3   OH217586   0.159   5.828   1.572
 5882TIP3    H117587   0.075   5.869   1.592
 5882TIP3    H217588   0.135   5.742   1.536
 5883TIP3   OH217589   7.913   2.354   4.893
 5883TIP3    H117590   7.911   2.333   4.987
 5883TIP3    H217591   7.920   2.449   4.889
 5884TIP3   OH217592   2.294   7.057   0.585
 5884TIP3    H117593   2.372   7.041   0.638
 5884TIP3    H217594   2.259   6.970   0.567
 5885TIP3   OH217595   3.428   0.696   6.029
 5885TIP3    H117596   3.414   0.659   6.116
 5885TIP3    H217597   3.462   0.784   6.045
 5886TIP3   OH217598   6.703   3.482   5.747
 5886TIP3    H117599   6.764   3.518   5.812
 5886TIP3    H217600   6.672   3.400   5.785
 5887TIP3   OH217601   6.613   3.459   1.021
 5887TIP3    H117602   6.704   3.484   1.012
 5887TIP3    H217603   6.601   3.443   1.114
 5888TIP3   OH217604   7.376   5.663   3.865
 5888TIP3    H117605   7.468   5.650   3.886
 5888TIP3    H217606   7.368   5.757   3.849
 5889TIP3   OH217607   1.171   2.241   0.922
 5889TIP3    H117608   1.188   2.249   1.016
 5889TIP3    H217609   1.102   2.175   0.916
 5890TIP3   OH217610   1.442   7.216   3.773
 5890TIP3    H117611   1.437   7.128   3.810
 5890TIP3    H217612   1.534   7.240   3.780
 5891TIP3   OH217613   3.985   3.053   1.538
 5891TIP3    H117614   3.905   3.101   1.561
 5891TIP3    H217615   4.056   3.110   1.567
 5892TIP3   OH217616   6.085   5.631   5.817
 5892TIP3    H117617   6.006   5.624   5.871
 5892TIP3    H217618   6.055   5.668   5.734
 5893TIP3   OH217619   2.450   6.073   4.661
 5893TIP3    H117620   2.445   6.148   4.601
 5893TIP3    H217621   2.532   6.029   4.638
 5894TIP3   OH217622   2.105   5.561   4.383
 5894TIP3    H117623   2.079   5.530   4.470
 5894TIP3    H217624   2.104   5.656   4.391
 5895TIP3   OH217625   7.644   0.383   4.982
 5895TIP3    H117626   7.685   0.448   4.925
 5895TIP3    H217627   7.706   0.311   4.985
 5896TIP3   OH217628   7.347   4.764   2.634
 5896TIP3    H117629   7.276   4.739   2.575
 5896TIP3    H217630   7.386   4.841   2.593
 5897TIP3   OH217631   1.582   5.030   1.647
 5897TIP3    H117632   1.605   5.083   1.724
 5897TIP3    H217633   1.665   5.020   1.600
 5898TIP3   OH217634   2.049   6.139   3.148
 5898TIP3    H117635   2.104   6.062   3.157
 5898TIP3    H217636   1.961   6.110   3.174
 5899TIP3   OH217637   2.280   2.398   0.179
 5899TIP3    H117638   2.306   2.307   0.192
 5899TIP3    H217639   2.310   2.420   0.091
 5900TIP3   OH217640   6.396   0.931   5.965
 5900TIP3    H117641   6.391   1.027   5.962
 5900TIP3    H217642   6.489   0.911   5.956
 5901TIP3   OH217643   5.214   4.335   2.159
 5901TIP3    H117644   5.129   4.374   2.139
 5901TIP3    H217645   5.195   4.241   2.167
 5902TIP3   OH217646   2.768   1.562   3.177
 5902TIP3    H117647   2.832   1.513   3.230
 5902TIP3    H217648   2.689   1.507   3.179
 5903TIP3   OH217649   7.554   6.156   2.797
 5903TIP3    H117650   7.590   6.186   2.881
 5903TIP3    H217651   7.600   6.073   2.780
 5904TIP3   OH217652   4.650   6.764   1.881
 5904TIP3    H117653   4.585   6.704   1.919
 5904TIP3    H217654   4.701   6.795   1.956
 5905TIP3   OH217655   5.645   7.618   0.877
 5905TIP3    H117656   5.727   7.659   0.848
 5905TIP3    H217657   5.622   7.664   0.958
 5906TIP3   OH217658   4.186   3.897   1.768
 5906TIP3    H117659   4.101   3.862   1.741
 5906TIP3    H217660   4.211   3.958   1.699
 5907TIP3   OH217661   6.101   7.747   4.470
 5907TIP3    H117662   6.123   7.686   4.541
 5907TIP3    H217663   6.168   7.732   4.404
 5908TIP3   OH217664   5.319   7.255   1.679
 5908TIP3    H117665   5.357   7.340   1.704
 5908TIP3    H217666   5.344   7.244   1.588
 5909TIP3   OH217667   7.361   0.163   3.413
 5909TIP3    H117668   7.308   0.214   3.474
 5909TIP3    H217669   7.375   0.079   3.457
 5910TIP3   OH217670   4.788  -0.038   4.264
 5910TIP3    H117671   4.828   0.031   4.212
 5910TIP3    H217672   4.697  -0.012   4.273
 5911TIP3   OH217673   8.153   4.731   3.477
 5911TIP3    H117674   8.181   4.812   3.520
 5911TIP3    H217675   8.227   4.706   3.422
 5912TIP3   OH217676   4.304   3.318   3.379
 5912TIP3    H117677   4.399   3.314   3.388
 5912TIP3    H217678   4.271   3.245   3.431
 5913TIP3   OH217679   1.710   4.871   4.031
 5913TIP3    H117680   1.801   4.844   4.041
 5913TIP3    H217681   1.663   4.790   4.012
 5914TIP3   OH217682   7.672   7.048   6.303
 5914TIP3    H117683   7.666   6.962   6.260
 5914TIP3    H217684   7.612   7.042   6.377
 5915TIP3   OH217685   6.310   1.583   6.479
 5915TIP3    H117686   6.279   1.527   6.550
 5915TIP3    H217687   6.240   1.581   6.414
 5916TIP3   OH217688   0.202   1.341   1.732
 5916TIP3    H117689   0.158   1.256   1.731
 5916TIP3    H217690   0.294   1.320   1.744
 5917TIP3   OH217691   5.787   4.786   1.079
 5917TIP3    H117692   5.837   4.781   0.997
 5917TIP3    H217693   5.718   4.849   1.060
 5918TIP3   OH217694   5.966   7.500   2.458
 5918TIP3    H117695   5.925   7.569   2.407
 5918TIP3    H217696   5.894   7.446   2.490
 5919TIP3   OH217697   4.918   6.719   4.812
 5919TIP3    H117698   4.845   6.689   4.758
 5919TIP3    H217699   4.949   6.798   4.768
 5920TIP3   OH217700   3.102   0.433   6.252
 5920TIP3    H117701   3.087   0.368   6.183
 5920TIP3    H217702   3.070   0.391   6.332
 5921TIP3   OH217703   2.396   2.801   2.080
 5921TIP3    H117704   2.354   2.797   2.166
 5921TIP3    H217705   2.329   2.835   2.021
 5922TIP3   OH217706   6.024   5.457   0.202
 5922TIP3    H117707   6.024   5.379   0.257
 5922TIP3    H217708   5.945   5.449   0.149
 5923TIP3   OH217709   1.840   1.917   0.934
 5923TIP3    H117710   1.791   1.837   0.953
 5923TIP3    H217711   1.852   1.915   0.839
 5924TIP3   OH217712   6.401   4.479   2.824
 5924TIP3    H117713   6.450   4.519   2.752
 5924TIP3    H217714   6.320   4.447   2.783
 5925TIP3   OH217715   0.079   0.084   4.252
 5925TIP3    H117716   0.101  -0.006   4.228
 5925TIP3    H217717   0.164   0.127   4.265
 5926TIP3   OH217718   1.783   2.294   3.584
 5926TIP3    H117719   1.720   2.307   3.655
 5926TIP3    H217720   1.732   2.251   3.515
 5927TIP3   OH217721   4.505   6.585   1.616
 5927TIP3    H117722   4.497   6.664   1.670
 5927TIP3    H217723   4.432   6.590   1.555
 5928TIP3   OH217724   8.244   3.183   1.485
 5928TIP3    H117725   8.276   3.163   1.397
 5928TIP3    H217726   8.191   3.262   1.473
 5929TIP3   OH217727   7.744   4.371   0.022
 5929TIP3    H117728   7.693   4.294   0.044
 5929TIP3    H217729   7.834   4.349   0.047
 5930TIP3   OH217730   1.608   0.687   6.187
 5930TIP3    H117731   1.662   0.764   6.205
 5930TIP3    H217732   1.524   0.723   6.158
 5931TIP3   OH217733   0.334   3.642   3.107
 5931TIP3    H117734   0.325   3.686   3.192
 5931TIP3    H217735   0.244   3.627   3.078
 5932TIP3   OH217736   1.769   6.979   6.784
 5932TIP3    H117737   1.778   6.889   6.751
 5932TIP3    H217738   1.857   7.015   6.777
 5933TIP3   OH217739   7.537   7.704   0.672
 5933TIP3    H117740   7.452   7.746   0.689
 5933TIP3    H217741   7.558   7.729   0.582
 5934TIP3   OH217742   6.856   0.731   6.735
 5934TIP3    H117743   6.912   0.751   6.659
 5934TIP3    H217744   6.801   0.659   6.706
 5935TIP3   OH217745   0.175   6.624   4.021
 5935TIP3    H117746   0.179   6.581   3.936
 5935TIP3    H217747   0.102   6.686   4.014
 5936TIP3   OH217748   5.555   0.814   4.687
 5936TIP3    H117749   5.479   0.872   4.675
 5936TIP3    H217750   5.603   0.819   4.605
 5937TIP3   OH217751   2.064   6.133   0.729
 5937TIP3    H117752   2.105   6.220   0.735
 5937TIP3    H217753   2.137   6.072   0.736
 5938TIP3   OH217754   1.856   2.160   1.063
 5938TIP3    H117755   1.853   2.078   1.014
 5938TIP3    H217756   1.887   2.134   1.150
 5939TIP3   OH217757   0.344   2.571   4.056
 5939TIP3    H117758   0.383   2.629   4.120
 5939TIP3    H217759   0.323   2.491   4.105
 5940TIP3   OH217760   0.980   5.349   2.663
 5940TIP3    H117761   0.998   5.429   2.714
 5940TIP3    H217762   0.893   5.322   2.691
 5941TIP3   OH217763   6.930   0.070   1.338
 5941TIP3    H117764   6.939  -0.013   1.385
 5941TIP3    H217765   7.019   0.095   1.315
 5942TIP3   OH217766   1.064   7.748   5.075
 5942TIP3    H117767   1.140   7.779   5.027
 5942TIP3    H217768   1.025   7.681   5.018
 5943TIP3   OH217769   1.322   1.682   5.964
 5943TIP3    H117770   1.304   1.754   6.025
 5943TIP3    H217771   1.242   1.676   5.911
 5944TIP3   OH217772   2.947   3.983   0.729
 5944TIP3    H117773   2.975   4.016   0.815
 5944TIP3    H217774   2.851   3.982   0.734
 5945TIP3   OH217775   5.591   6.967   5.244
 5945TIP3    H117776   5.657   7.031   5.269
 5945TIP3    H217777   5.582   6.978   5.149
 5946TIP3   OH217778   5.948   5.745   4.201
 5946TIP3    H117779   6.007   5.724   4.128
 5946TIP3    H217780   6.006   5.755   4.276
 5947TIP3   OH217781   6.631   7.758   5.437
 5947TIP3    H117782   6.722   7.789   5.443
 5947TIP3    H217783   6.583   7.832   5.399
 5948TIP3   OH217784   1.180   7.205   1.250
 5948TIP3    H117785   1.161   7.166   1.164
 5948TIP3    H217786   1.181   7.299   1.233
 5949TIP3   OH217787   2.900   5.421   4.476
 5949TIP3    H117788   2.805   5.421   4.466
 5949TIP3    H217789   2.932   5.460   4.394
 5950TIP3   OH217790   7.907   5.365   5.024
 5950TIP3    H117791   7.843   5.310   5.069
 5950TIP3    H217792   7.903   5.337   4.932
 5951TIP3   OH217793   6.286   0.711   0.132
 5951TIP3    H117794   6.269   0.617   0.140
 5951TIP3    H217795   6.282   0.744   0.222
 5952TIP3   OH217796   1.039   2.922   6.516
 5952TIP3    H117797   1.040   2.852   6.450
 5952TIP3    H217798   0.999   2.997   6.471
 5953TIP3   OH217799   0.734   6.438   5.263
 5953TIP3    H117800   0.695   6.520   5.232
 5953TIP3    H217801   0.687   6.419   5.344
 5954TIP3   OH217802   5.690   6.929   0.421
 5954TIP3    H117803   5.736   7.005   0.385
 5954TIP3    H217804   5.604   6.962   0.446
 5955TIP3   OH217805   6.583   4.351   3.053
 5955TIP3    H117806   6.538   4.324   2.973
 5955TIP3    H217807   6.527   4.419   3.090
 5956TIP3   OH217808   0.786   1.360   4.446
 5956TIP3    H117809   0.727   1.316   4.385
 5956TIP3    H217810   0.760   1.452   4.443
 5957TIP3   OH217811   0.503   6.702   0.133
 5957TIP3    H117812   0.467   6.672   0.216
 5957TIP3    H217813   0.557   6.629   0.102
 5958TIP3   OH217814   0.138   0.085   6.790
 5958TIP3    H117815   0.058   0.130   6.816
 5958TIP3    H217816   0.193   0.088   6.869
 5959TIP3   OH217817   1.182   5.430   1.186
 5959TIP3    H117818   1.105   5.476   1.220
 5959TIP3    H217819   1.146   5.369   1.122
 5960TIP3   OH217820   4.883   6.180   0.495
 5960TIP3    H117821   4.791   6.200   0.514
 5960TIP3    H217822   4.917   6.260   0.456
 5961TIP3   OH217823   3.493   1.779   5.559
 5961TIP3    H117824   3.471   1.852   5.501
 5961TIP3    H217825   3.589   1.784   5.568
 5962TIP3   OH217826   5.917   4.311   4.540
 5962TIP3    H117827   5.936   4.403   4.560
 5962TIP3    H217828   5.898   4.271   4.625
 5963TIP3   OH217829   1.849   1.891   2.082
 5963TIP3    H117830   1.914   1.917   2.148
 5963TIP3    H217831   1.896   1.896   1.999
 5964TIP3   OH217832   2.953   0.063   2.647
 5964TIP3    H117833   2.882   0.062   2.711
 5964TIP3    H217834   2.909   0.070   2.562
 5965TIP3   OH217835   7.352   6.884   0.136
 5965TIP3    H117836   7.398   6.835   0.068
 5965TIP3    H217837   7.365   6.976   0.111
 5966TIP3   OH217838   1.967   6.353   6.440
 5966TIP3    H117839   2.029   6.339   6.369
 5966TIP3    H217840   2.021   6.358   6.519
 5967TIP3   OH217841   0.122   3.325   5.326
 5967TIP3    H117842   0.058   3.347   5.394
 5967TIP3    H217843   0.103   3.233   5.304
 5968TIP3   OH217844   4.423   3.916   4.055
 5968TIP3    H117845   4.402   3.981   4.122
 5968TIP3    H217846   4.480   3.853   4.099
 5969TIP3   OH217847   2.366   3.850   6.286
 5969TIP3    H117848   2.297   3.824   6.346
 5969TIP3    H217849   2.336   3.823   6.200
 5970TIP3   OH217850   3.945   1.342   0.529
 5970TIP3    H117851   3.872   1.306   0.580
 5970TIP3    H217852   3.992   1.266   0.497
 5971TIP3   OH217853   1.390   7.727   1.212
 5971TIP3    H117854   1.426   7.640   1.225
 5971TIP3    H217855   1.314   7.713   1.155
 5972TIP3   OH217856   5.509   4.786   4.742
 5972TIP3    H117857   5.548   4.699   4.728
 5972TIP3    H217858   5.460   4.777   4.824
 5973TIP3   OH217859   3.088   6.166   3.605
 5973TIP3    H117860   3.145   6.189   3.679
 5973TIP3    H217861   3.050   6.082   3.629
 5974TIP3   OH217862   1.707   1.339   6.190
 5974TIP3    H117863   1.673   1.297   6.112
 5974TIP3    H217864   1.719   1.430   6.165
 5975TIP3   OH217865   3.456   4.962   4.978
 5975TIP3    H117866   3.498   5.026   4.920
 5975TIP3    H217867   3.362   4.974   4.964
 5976TIP3   OH217868   1.805   7.394   2.084
 5976TIP3    H117869   1.800   7.305   2.051
 5976TIP3    H217870   1.725   7.436   2.053
 5977TIP3   OH217871   1.281   3.148   0.713
 5977TIP3    H117872   1.297   3.234   0.752
 5977TIP3    H217873   1.187   3.148   0.692
 5978TIP3   OH217874   0.553   6.908   2.883
 5978TIP3    H117875   0.595   6.837   2.835
 5978TIP3    H217876   0.596   6.987   2.852
 5979TIP3   OH217877   4.780   6.062   3.868
 5979TIP3    H117878   4.872   6.034   3.871
 5979TIP3    H217879   4.785   6.158   3.871
 5980TIP3   OH217880   4.908   7.230   0.955
 5980TIP3    H117881   4.870   7.203   0.871
 5980TIP3    H217882   4.863   7.176   1.020
 5981TIP3   OH217883   5.549   6.572   0.984
 5981TIP3    H117884   5.590   6.652   1.016
 5981TIP3    H217885   5.508   6.533   1.062
 5982TIP3   OH217886   6.378   0.452   4.912
 5982TIP3    H117887   6.390   0.527   4.854
 5982TIP3    H217888   6.467   0.421   4.929
 5983TIP3   OH217889   4.703   5.183   1.358
 5983TIP3    H117890   4.636   5.131   1.403
 5983TIP3    H217891   4.654   5.240   1.300
 5984TIP3   OH217892   1.958   5.452   3.221
 5984TIP3    H117893   1.911   5.384   3.173
 5984TIP3    H217894   1.988   5.513   3.154
 5985TIP3   OH217895   2.692   0.906   0.541
 5985TIP3    H117896   2.729   0.992   0.562
 5985TIP3    H217897   2.759   0.843   0.568
 5986TIP3   OH217898   4.241   7.528   2.373
 5986TIP3    H117899   4.262   7.621   2.361
 5986TIP3    H217900   4.316   7.481   2.337
 5987TIP3   OH217901   1.721   4.736   1.515
 5987TIP3    H117902   1.771   4.791   1.576
 5987TIP3    H217903   1.779   4.663   1.495
 5988TIP3   OH217904   4.109   7.841   1.649
 5988TIP3    H117905   4.027   7.812   1.609
 5988TIP3    H217906   4.171   7.771   1.630
 5989TIP3   OH217907   2.831   1.601   4.092
 5989TIP3    H117908   2.891   1.538   4.051
 5989TIP3    H217909   2.748   1.589   4.047
 5990TIP3   OH217910   2.569   4.585   0.087
 5990TIP3    H117911   2.583   4.573   0.180
 5990TIP3    H217912   2.649   4.553   0.046
 5991TIP3   OH217913   0.920   7.857   3.972
 5991TIP3    H117914   0.955   7.798   4.039
 5991TIP3    H217915   0.994   7.914   3.951
 5992TIP3   OH217916   2.615   0.362   3.290
 5992TIP3    H117917   2.703   0.360   3.252
 5992TIP3    H217918   2.625   0.324   3.377
 5993TIP3   OH217919   2.535   6.926   2.360
 5993TIP3    H117920   2.540   6.920   2.455
 5993TIP3    H217921   2.584   6.850   2.329
 5994TIP3   OH217922   7.092   0.452   2.641
 5994TIP3    H117923   7.143   0.442   2.721
 5994TIP3    H217924   7.042   0.533   2.655
 5995TIP3   OH217925   1.064   1.593   2.366
 5995TIP3    H117926   1.147   1.546   2.368
 5995TIP3    H217927   1.011   1.552   2.434
 5996TIP3   OH217928   0.498   6.908   5.615
 5996TIP3    H117929   0.462   6.993   5.591
 5996TIP3    H217930   0.567   6.892   5.551
 5997TIP3   OH217931   1.131   1.844   4.990
 5997TIP3    H117932   1.110   1.865   5.081
 5997TIP3    H217933   1.089   1.914   4.940
 5998TIP3   OH217934   2.603   3.109   5.096
 5998TIP3    H117935   2.645   3.163   5.163
 5998TIP3    H217936   2.570   3.172   5.032
 5999TIP3   OH217937   2.998   1.884   1.342
 5999TIP3    H117938   3.045   1.967   1.337
 5999TIP3    H217939   2.939   1.885   1.266
 6000TIP3   OH217940   0.883   3.706   2.995
 6000TIP3    H117941   0.944   3.673   2.929
 6000TIP3    H217942   0.883   3.640   3.064
 6001TIP3   OH217943   4.653   5.639   2.637
 6001TIP3    H117944   4.582   5.649   2.701
 6001TIP3    H217945   4.611   5.655   2.553
 6002TIP3   OH217946   1.276   2.823   4.618
 6002TIP3    H117947   1.192   2.843   4.659
 6002TIP3    H217948   1.337   2.886   4.656
 6003TIP3   OH217949   6.420   1.688   3.655
 6003TIP3    H117950   6.342   1.729   3.618
 6003TIP3    H217951   6.392   1.600   3.679
 6004TIP3   OH217952   0.145   2.372   5.641
 6004TIP3    H117953   0.122   2.327   5.722
 6004TIP3    H217954   0.068   2.364   5.586
 6005TIP3   OH217955   2.249   0.056   3.994
 6005TIP3    H117956   2.260  -0.038   4.006
 6005TIP3    H217957   2.158   0.073   4.020
 6006TIP3   OH217958   2.525   6.262   0.141
 6006TIP3    H117959   2.561   6.216   0.066
 6006TIP3    H217960   2.494   6.345   0.106
 6007TIP3   OH217961   6.280   4.561   4.756
 6007TIP3    H117962   6.208   4.580   4.816
 6007TIP3    H217963   6.239   4.517   4.681
 6008TIP3   OH217964   6.301   2.871   4.046
 6008TIP3    H117965   6.255   2.915   3.974
 6008TIP3    H217966   6.333   2.943   4.101
 6009TIP3   OH217967   4.024   4.298   2.252
 6009TIP3    H117968   3.950   4.336   2.298
 6009TIP3    H217969   4.050   4.366   2.189
 6010TIP3   OH217970   0.918   7.409   1.024
 6010TIP3    H117971   0.984   7.424   1.091
 6010TIP3    H217972   0.938   7.473   0.956
 6011TIP3   OH217973   5.688   7.652   3.653
 6011TIP3    H117974   5.641   7.598   3.716
 6011TIP3    H217975   5.768   7.679   3.698
 6012TIP3   OH217976   0.638   7.960   6.313
 6012TIP3    H117977   0.573   7.893   6.334
 6012TIP3    H217978   0.716   7.911   6.287
 6013TIP3   OH217979   7.349   4.903   4.729
 6013TIP3    H117980   7.396   4.903   4.813
 6013TIP3    H217981   7.347   4.811   4.703
 6014TIP3   OH217982   3.351   6.096   4.928
 6014TIP3    H117983   3.409   6.168   4.901
 6014TIP3    H217984   3.269   6.140   4.953
 6015TIP3   OH217985   0.702   3.740   1.816
 6015TIP3    H117986   0.730   3.766   1.904
 6015TIP3    H217987   0.652   3.815   1.784
 6016TIP3   OH217988   4.284   7.096   0.814
 6016TIP3    H117989   4.357   7.099   0.752
 6016TIP3    H217990   4.206   7.094   0.758
 6017TIP3   OH217991   2.558   1.307   4.907
 6017TIP3    H117992   2.514   1.300   4.822
 6017TIP3    H217993   2.632   1.366   4.890
 6018TIP3   OH217994   3.735   3.760   3.315
 6018TIP3    H117995   3.765   3.746   3.404
 6018TIP3    H217996   3.641   3.774   3.323
 6019TIP3   OH217997   4.435   3.265   3.111
 6019TIP3    H117998   4.478   3.256   3.027
 6019TIP3    H217999   4.360   3.205   3.107
 6020TIP3   OH218000   6.413   0.409   6.067
 6020TIP3    H118001   6.377   0.491   6.100
 6020TIP3    H218002   6.501   0.430   6.037
 6021TIP3   OH218003   6.749   3.243   0.851
 6021TIP3    H118004   6.704   3.310   0.903
 6021TIP3    H218005   6.823   3.216   0.906
 6022TIP3   OH218006   1.204   3.078   3.501
 6022TIP3    H118007   1.218   3.173   3.498
 6022TIP3    H218008   1.142   3.061   3.430
 6023TIP3   OH218009   1.785   2.641   2.029
 6023TIP3    H118010   1.723   2.569   2.020
 6023TIP3    H218011   1.853   2.608   2.087
 6024TIP3   OH218012   7.783   1.676   5.146
 6024TIP3    H118013   7.789   1.585   5.177
 6024TIP3    H218014   7.712   1.675   5.082
 6025TIP3   OH218015   8.159   0.918   0.858
 6025TIP3    H118016   8.160   0.993   0.798
 6025TIP3    H218017   8.138   0.956   0.944
 6026TIP3   OH218018   2.333   2.651   3.133
 6026TIP3    H118019   2.356   2.559   3.149
 6026TIP3    H218020   2.348   2.663   3.039
 6027TIP3   OH218021   7.877   5.612   2.236
 6027TIP3    H118022   7.787   5.642   2.248
 6027TIP3    H218023   7.912   5.668   2.167
 6028TIP3   OH218024   5.734   5.892   4.247
 6028TIP3    H118025   5.667   5.827   4.268
 6028TIP3    H218026   5.810   5.840   4.220
 6029TIP3   OH218027   5.892   7.265   2.232
 6029TIP3    H118028   5.832   7.194   2.211
 6029TIP3    H218029   5.835   7.337   2.261
 6030TIP3   OH218030   0.230   0.840   1.808
 6030TIP3    H118031   0.318   0.832   1.772
 6030TIP3    H218032   0.244   0.857   1.901
 6031TIP3   OH218033   5.448   1.672   3.873
 6031TIP3    H118034   5.409   1.752   3.836
 6031TIP3    H218035   5.377   1.608   3.871
 6032TIP3   OH218036   4.330   1.768   3.394
 6032TIP3    H118037   4.402   1.727   3.443
 6032TIP3    H218038   4.253   1.753   3.448
 6033TIP3   OH218039   3.159   7.862   0.952
 6033TIP3    H118040   3.174   7.794   1.019
 6033TIP3    H218041   3.247   7.888   0.925
 6034TIP3   OH218042   1.248   0.485   1.941
 6034TIP3    H118043   1.155   0.499   1.924
 6034TIP3    H218044   1.277   0.428   1.870
 6035TIP3   OH218045   3.291   1.217   0.861
 6035TIP3    H118046   3.287   1.133   0.906
 6035TIP3    H218047   3.316   1.280   0.929
 6036TIP3   OH218048   6.046   4.070   0.409
 6036TIP3    H118049   6.118   4.129   0.387
 6036TIP3    H218050   6.078   4.019   0.484
 6037TIP3   OH218051   2.210   3.963   5.436
 6037TIP3    H118052   2.134   3.907   5.420
 6037TIP3    H218053   2.182   4.023   5.504
 6038TIP3   OH218054   2.656   4.308   2.525
 6038TIP3    H118055   2.717   4.357   2.470
 6038TIP3    H218056   2.569   4.333   2.494
 6039TIP3   OH218057   7.652   2.443   0.955
 6039TIP3    H118058   7.642   2.393   0.874
 6039TIP3    H218059   7.610   2.527   0.937
 6040TIP3   OH218060   4.546   6.226   5.777
 6040TIP3    H118061   4.536   6.139   5.739
 6040TIP3    H218062   4.562   6.283   5.702
 6041TIP3   OH218063   5.109   6.211   3.724
 6041TIP3    H118064   5.047   6.283   3.740
 6041TIP3    H218065   5.194   6.247   3.750
 6042TIP3   OH218066   2.483   7.775   0.770
 6042TIP3    H118067   2.494   7.691   0.814
 6042TIP3    H218068   2.402   7.766   0.720
 6043TIP3   OH218069   0.421   2.866   6.091
 6043TIP3    H118070   0.480   2.807   6.137
 6043TIP3    H218071   0.335   2.851   6.131
 6044TIP3   OH218072   1.301   5.645   1.351
 6044TIP3    H118073   1.235   5.632   1.283
 6044TIP3    H218074   1.327   5.556   1.376
 6045TIP3   OH218075   0.906   5.895   2.269
 6045TIP3    H118076   0.885   5.907   2.362
 6045TIP3    H218077   0.913   5.800   2.258
 6046TIP3   OH218078   0.570   4.370   2.266
 6046TIP3    H118079   0.636   4.319   2.219
 6046TIP3    H218080   0.609   4.387   2.352
 6047TIP3   OH218081   7.814   3.545   6.545
 6047TIP3    H118082   7.833   3.530   6.452
 6047TIP3    H218083   7.719   3.560   6.547
 6048TIP3   OH218084   7.103   4.482   5.209
 6048TIP3    H118085   7.198   4.482   5.224
 6048TIP3    H218086   7.072   4.405   5.257
 6049TIP3   OH218087   4.821   5.686   3.244
 6049TIP3    H118088   4.874   5.607   3.245
 6049TIP3    H218089   4.856   5.739   3.316
 6050TIP3   OH218090   1.270   2.590   6.718
 6050TIP3    H118091   1.277   2.548   6.804
 6050TIP3    H218092   1.227   2.674   6.735
 6051TIP3   OH218093   8.048   6.265   5.427
 6051TIP3    H118094   7.971   6.248   5.373
 6051TIP3    H218095   8.012   6.296   5.511
 6052TIP3   OH218096   2.277   4.169   0.565
 6052TIP3    H118097   2.316   4.106   0.625
 6052TIP3    H218098   2.202   4.123   0.528
 6053TIP3   OH218099   2.342   2.783   5.486
 6053TIP3    H118100   2.335   2.841   5.411
 6053TIP3    H218101   2.286   2.823   5.553
 6054TIP3   OH218102   4.402   6.135   2.510
 6054TIP3    H118103   4.455   6.063   2.476
 6054TIP3    H218104   4.464   6.205   2.528
 6055TIP3   OH218105   5.203   2.986   0.130
 6055TIP3    H118106   5.263   3.038   0.077
 6055TIP3    H218107   5.166   2.922   0.069
 6056TIP3   OH218108   2.646   1.534   6.155
 6056TIP3    H118109   2.645   1.537   6.250
 6056TIP3    H218110   2.720   1.477   6.133
 6057TIP3   OH218111   5.632   7.219   1.013
 6057TIP3    H118112   5.603   7.303   0.978
 6057TIP3    H218113   5.679   7.241   1.093
 6058TIP3   OH218114   0.784   6.522   2.037
 6058TIP3    H118115   0.693   6.521   2.006
 6058TIP3    H218116   0.789   6.600   2.092
 6059TIP3   OH218117   7.222   1.251   4.534
 6059TIP3    H118118   7.139   1.225   4.493
 6059TIP3    H218119   7.250   1.327   4.484
 6060TIP3   OH218120   4.162   1.467   2.445
 6060TIP3    H118121   4.234   1.458   2.383
 6060TIP3    H218122   4.198   1.523   2.514
 6061TIP3   OH218123   2.594   4.210   0.887
 6061TIP3    H118124   2.501   4.221   0.906
 6061TIP3    H218125   2.633   4.293   0.913
 6062TIP3   OH218126   7.591   5.411   2.762
 6062TIP3    H118127   7.501   5.382   2.750
 6062TIP3    H218128   7.591   5.453   2.848
 6063TIP3   OH218129   7.532   6.652   2.933
 6063TIP3    H118130   7.460   6.620   2.879
 6063TIP3    H218131   7.491   6.716   2.992
 6064TIP3   OH218132   3.531   0.021   4.598
 6064TIP3    H118133   3.507   0.014   4.690
 6064TIP3    H218134   3.497   0.107   4.571
 6065TIP3   OH218135   8.064   6.312   5.721
 6065TIP3    H118136   8.029   6.373   5.786
 6065TIP3    H218137   8.157   6.305   5.742
 6066TIP3   OH218138   3.549   0.739   4.198
 6066TIP3    H118139   3.476   0.798   4.185
 6066TIP3    H218140   3.529   0.662   4.144
 6067TIP3   OH218141   5.179   2.791   1.988
 6067TIP3    H118142   5.256   2.772   1.936
 6067TIP3    H218143   5.210   2.788   2.079
 6068TIP3   OH218144   8.255   4.922   3.642
 6068TIP3    H118145   8.215   4.984   3.703
 6068TIP3    H218146   8.318   4.974   3.592
 6069TIP3   OH218147   1.214   5.106   6.283
 6069TIP3    H118148   1.266   5.180   6.315
 6069TIP3    H218149   1.256   5.081   6.201
 6070TIP3   OH218150   0.799   6.199   3.984
 6070TIP3    H118151   0.705   6.197   4.004
 6070TIP3    H218152   0.810   6.138   3.911
 6071TIP3   OH218153   4.793   6.975   2.816
 6071TIP3    H118154   4.875   7.018   2.792
 6071TIP3    H218155   4.785   6.902   2.755
 6072TIP3   OH218156   4.445   6.198   4.087
 6072TIP3    H118157   4.443   6.143   4.009
 6072TIP3    H218158   4.528   6.177   4.129
 6073TIP3   OH218159   3.050   1.132   2.262
 6073TIP3    H118160   2.967   1.177   2.276
 6073TIP3    H218161   3.087   1.174   2.184
 6074TIP3   OH218162   8.040   5.745   1.311
 6074TIP3    H118163   8.036   5.833   1.273
 6074TIP3    H218164   7.960   5.738   1.363
 6075TIP3   OH218165   7.780   1.753   3.749
 6075TIP3    H118166   7.752   1.823   3.807
 6075TIP3    H218167   7.726   1.763   3.671
 6076TIP3   OH218168   6.796   1.188   2.578
 6076TIP3    H118169   6.770   1.184   2.486
 6076TIP3    H218170   6.783   1.099   2.611
 6077TIP3   OH218171   4.794   3.496   0.747
 6077TIP3    H118172   4.877   3.464   0.782
 6077TIP3    H218173   4.728   3.464   0.807
 6078TIP3   OH218174   0.748   5.041   6.070
 6078TIP3    H118175   0.820   5.080   6.118
 6078TIP3    H218176   0.722   4.965   6.122
 6079TIP3   OH218177   0.288   7.036   0.139
 6079TIP3    H118178   0.237   6.968   0.094
 6079TIP3    H218179   0.344   6.987   0.199
 6080TIP3   OH218180   5.695   1.094   3.859
 6080TIP3    H118181   5.625   1.064   3.801
 6080TIP3    H218182   5.773   1.049   3.827
 6081TIP3   OH218183   0.274   0.231   1.667
 6081TIP3    H118184   0.188   0.252   1.632
 6081TIP3    H218185   0.291   0.300   1.731
 6082TIP3   OH218186   1.639   5.034   0.678
 6082TIP3    H118187   1.724   5.032   0.633
 6082TIP3    H218188   1.655   4.990   0.762
 6083TIP3   OH218189   2.468   2.754   1.743
 6083TIP3    H118190   2.485   2.847   1.756
 6083TIP3    H218191   2.539   2.710   1.791
 6084TIP3   OH218192   8.022   4.032   6.337
 6084TIP3    H118193   7.933   3.998   6.343
 6084TIP3    H218194   8.068   3.968   6.283
 6085TIP3   OH218195   0.823   2.634   1.993
 6085TIP3    H118196   0.797   2.726   1.995
 6085TIP3    H218197   0.767   2.594   1.926
 6086TIP3   OH218198   0.432   4.435   4.142
 6086TIP3    H118199   0.490   4.428   4.066
 6086TIP3    H218200   0.359   4.377   4.122
 6087TIP3   OH218201   3.829   5.103   0.353
 6087TIP3    H118202   3.751   5.057   0.321
 6087TIP3    H218203   3.796   5.188   0.383
 6088TIP3   OH218204   3.664   7.867   5.358
 6088TIP3    H118205   3.601   7.821   5.302
 6088TIP3    H218206   3.747   7.861   5.310
 6089TIP3   OH218207   2.058   3.771   1.137
 6089TIP3    H118208   2.004   3.713   1.083
 6089TIP3    H218209   2.139   3.722   1.150
 6090TIP3   OH218210   3.045   4.663   6.549
 6090TIP3    H118211   3.116   4.671   6.485
 6090TIP3    H218212   3.084   4.689   6.632
 6091TIP3   OH218213   4.782   0.701   3.603
 6091TIP3    H118214   4.849   0.760   3.570
 6091TIP3    H218215   4.772   0.725   3.695
 6092TIP3   OH218216   1.328   2.123   4.816
 6092TIP3    H118217   1.424   2.127   4.816
 6092TIP3    H218218   1.303   2.147   4.904
 6093TIP3   OH218219   1.835   3.035   1.106
 6093TIP3    H118220   1.837   2.941   1.093
 6093TIP3    H218221   1.921   3.056   1.144
 6094TIP3   OH218222   7.824   0.877   3.384
 6094TIP3    H118223   7.773   0.957   3.373
 6094TIP3    H218224   7.761   0.806   3.370
 6095TIP3   OH218225   3.297   3.031   0.382
 6095TIP3    H118226   3.262   2.946   0.353
 6095TIP3    H218227   3.255   3.095   0.324
 6096TIP3   OH218228   0.284   3.131   1.961
 6096TIP3    H118229   0.350   3.062   1.952
 6096TIP3    H218230   0.325   3.208   1.920
 6097TIP3   OH218231   3.406   3.033   2.120
 6097TIP3    H118232   3.490   3.049   2.164
 6097TIP3    H218233   3.425   3.050   2.027
 6098TIP3   OH218234   4.867   1.287   1.525
 6098TIP3    H118235   4.814   1.237   1.587
 6098TIP3    H218236   4.920   1.345   1.579
 6099TIP3   OH218237   2.401   6.907   1.117
 6099TIP3    H118238   2.395   6.840   1.049
 6099TIP3    H218239   2.317   6.952   1.114
 6100TIP3   OH218240   1.564   2.727   5.922
 6100TIP3    H118241   1.551   2.653   5.981
 6100TIP3    H218242   1.476   2.750   5.893
 6101TIP3   OH218243   4.068   3.291   0.537
 6101TIP3    H118244   4.111   3.373   0.514
 6101TIP3    H218245   4.128   3.223   0.505
 6102TIP3   OH218246   4.694   5.308   3.432
 6102TIP3    H118247   4.716   5.291   3.523
 6102TIP3    H218248   4.648   5.392   3.434
 6103TIP3   OH218249   6.031   3.076   4.206
 6103TIP3    H118250   6.054   3.122   4.287
 6103TIP3    H218251   6.059   2.986   4.221
 6104TIP3   OH218252   7.995   7.462   3.914
 6104TIP3    H118253   8.074   7.446   3.965
 6104TIP3    H218254   8.001   7.400   3.841
 6105TIP3   OH218255   5.998   5.370   5.730
 6105TIP3    H118256   5.940   5.351   5.656
 6105TIP3    H218257   6.039   5.454   5.708
 6106TIP3   OH218258   2.866   7.689   5.698
 6106TIP3    H118259   2.884   7.722   5.786
 6106TIP3    H218260   2.779   7.723   5.677
 6107TIP3   OH218261   7.992   0.265   2.770
 6107TIP3    H118262   7.986   0.281   2.675
 6107TIP3    H218263   7.901   0.255   2.798
 6108TIP3   OH218264   6.070   5.865   2.219
 6108TIP3    H118265   6.108   5.952   2.237
 6108TIP3    H218266   5.977   5.882   2.204
 6109TIP3   OH218267   0.862   7.241   5.674
 6109TIP3    H118268   0.885   7.323   5.631
 6109TIP3    H218269   0.845   7.265   5.765
 6110TIP3   OH218270   5.345   7.393   1.181
 6110TIP3    H118271   5.271   7.345   1.144
 6110TIP3    H218272   5.326   7.485   1.161
 6111TIP3   OH218273   3.925   7.582   0.529
 6111TIP3    H118274   3.898   7.527   0.455
 6111TIP3    H218275   3.915   7.525   0.606
 6112TIP3   OH218276   0.204   0.569   0.980
 6112TIP3    H118277   0.189   0.526   0.896
 6112TIP3    H218278   0.214   0.662   0.958
 6113TIP3   OH218279   2.822   0.793   4.300
 6113TIP3    H118280   2.882   0.718   4.293
 6113TIP3    H218281   2.769   0.774   4.377
 6114TIP3   OH218282   3.534   3.621   0.703
 6114TIP3    H118283   3.592   3.611   0.627
 6114TIP3    H218284   3.463   3.559   0.687
 6115TIP3   OH218285   5.290   1.071   2.862
 6115TIP3    H118286   5.318   1.098   2.775
 6115TIP3    H218287   5.368   1.030   2.901
 6116TIP3   OH218288   4.820   7.330   4.453
 6116TIP3    H118289   4.805   7.424   4.450
 6116TIP3    H218290   4.827   7.303   4.362
 6117TIP3   OH218291   7.261   6.361   6.189
 6117TIP3    H118292   7.195   6.298   6.218
 6117TIP3    H218293   7.215   6.415   6.125
 6118TIP3   OH218294   0.758   3.526   0.726
 6118TIP3    H118295   0.722   3.602   0.772
 6118TIP3    H218296   0.850   3.523   0.753
 6119TIP3   OH218297   5.019   6.254   4.185
 6119TIP3    H118298   5.102   6.257   4.232
 6119TIP3    H218299   4.963   6.316   4.232
 6120TIP3   OH218300   0.023   1.043   1.395
 6120TIP3    H118301   0.026   1.103   1.469
 6120TIP3    H218302   0.115   1.023   1.376
 6121TIP3   OH218303   5.212   7.510   4.935
 6121TIP3    H118304   5.180   7.592   4.898
 6121TIP3    H218305   5.142   7.447   4.919
 6122TIP3   OH218306   6.170   7.148   3.459
 6122TIP3    H118307   6.156   7.087   3.387
 6122TIP3    H218308   6.088   7.196   3.467
 6123TIP3   OH218309   7.867   4.608   5.011
 6123TIP3    H118310   7.813   4.560   4.949
 6123TIP3    H218311   7.928   4.658   4.956
 6124TIP3   OH218312   2.066   0.142   1.207
 6124TIP3    H118313   2.070   0.193   1.127
 6124TIP3    H218314   2.005   0.189   1.263
 6125TIP3   OH218315   0.194   3.298   4.511
 6125TIP3    H118316   0.123   3.354   4.542
 6125TIP3    H218317   0.221   3.336   4.428
 6126TIP3   OH218318   0.280   3.742   5.036
 6126TIP3    H118319   0.354   3.681   5.035
 6126TIP3    H218320   0.213   3.696   5.086
 6127TIP3   OH218321   1.726   4.158   5.945
 6127TIP3    H118322   1.764   4.093   6.004
 6127TIP3    H218323   1.713   4.111   5.862
 6128TIP3   OH218324   3.130   2.999   5.779
 6128TIP3    H118325   3.110   3.063   5.847
 6128TIP3    H218326   3.050   2.995   5.726
 6129TIP3   OH218327   2.367   0.759   2.959
 6129TIP3    H118328   2.399   0.672   2.984
 6129TIP3    H218329   2.380   0.763   2.865
 6130TIP3   OH218330   1.146   7.478   2.239
 6130TIP3    H118331   1.066   7.463   2.289
 6130TIP3    H218332   1.217   7.453   2.298
 6131TIP3   OH218333   3.285   5.462   3.824
 6131TIP3    H118334   3.368   5.414   3.813
 6131TIP3    H218335   3.304   5.550   3.792
 6132TIP3   OH218336   5.579   2.340   6.353
 6132TIP3    H118337   5.581   2.408   6.286
 6132TIP3    H218338   5.634   2.375   6.424
 6133TIP3   OH218339   3.104   5.064   5.211
 6133TIP3    H118340   3.104   5.151   5.251
 6133TIP3    H218341   3.114   5.004   5.285
 6134TIP3   OH218342   1.457   5.886   6.739
 6134TIP3    H118343   1.489   5.798   6.717
 6134TIP3    H218344   1.526   5.924   6.794
 6135TIP3   OH218345   3.472   0.128   3.645
 6135TIP3    H118346   3.448   0.053   3.592
 6135TIP3    H218347   3.460   0.099   3.735
 6136TIP3   OH218348   6.267   4.604   5.241
 6136TIP3    H118349   6.203   4.581   5.173
 6136TIP3    H218350   6.301   4.520   5.271
 6137TIP3   OH218351   1.814   4.170   4.509
 6137TIP3    H118352   1.828   4.093   4.454
 6137TIP3    H218353   1.903   4.199   4.532
 6138TIP3   OH218354   5.546   3.426   1.834
 6138TIP3    H118355   5.493   3.499   1.800
 6138TIP3    H218356   5.481   3.364   1.867
 6139TIP3   OH218357   3.691   7.410   5.542
 6139TIP3    H118358   3.725   7.500   5.544
 6139TIP3    H218359   3.596   7.420   5.541
 6140TIP3   OH218360   6.165   7.789   6.006
 6140TIP3    H118361   6.232   7.829   5.951
 6140TIP3    H218362   6.141   7.859   6.068
 6141TIP3   OH218363   4.399   7.454   1.581
 6141TIP3    H118364   4.434   7.525   1.635
 6141TIP3    H218365   4.426   7.476   1.492
 6142TIP3   OH218366   1.437   1.507   0.840
 6142TIP3    H118367   1.365   1.538   0.786
 6142TIP3    H218368   1.489   1.451   0.783
 6143TIP3   OH218369   6.788   5.496   1.781
 6143TIP3    H118370   6.815   5.540   1.700
 6143TIP3    H218371   6.720   5.553   1.818
 6144TIP3   OH218372   7.080   3.719   0.973
 6144TIP3    H118373   7.066   3.775   1.049
 6144TIP3    H218374   7.082   3.780   0.899
 6145TIP3   OH218375   5.936   6.240   5.752
 6145TIP3    H118376   5.973   6.292   5.824
 6145TIP3    H218377   5.898   6.163   5.795
 6146TIP3   OH218378   7.608   2.145   3.136
 6146TIP3    H118379   7.674   2.156   3.067
 6146TIP3    H218380   7.652   2.174   3.216
 6147TIP3   OH218381   3.368   1.501   6.721
 6147TIP3    H118382   3.355   1.550   6.640
 6147TIP3    H218383   3.279   1.482   6.751
 6148TIP3   OH218384   1.741   4.858   0.158
 6148TIP3    H118385   1.798   4.781   0.148
 6148TIP3    H218386   1.684   4.836   0.231
 6149TIP3   OH218387   0.778   4.303   0.664
 6149TIP3    H118388   0.718   4.274   0.733
 6149TIP3    H218389   0.857   4.330   0.711
 6150TIP3   OH218390   6.315   7.516   4.055
 6150TIP3    H118391   6.355   7.435   4.086
 6150TIP3    H218392   6.379   7.552   3.993
 6151TIP3   OH218393   5.971   3.187   3.942
 6151TIP3    H118394   6.045   3.244   3.923
 6151TIP3    H218395   5.986   3.157   4.031
 6152TIP3   OH218396   4.766   4.645   5.970
 6152TIP3    H118397   4.806   4.716   6.020
 6152TIP3    H218398   4.716   4.688   5.901
 6153TIP3   OH218399   3.619   4.872   4.621
 6153TIP3    H118400   3.613   4.814   4.545
 6153TIP3    H218401   3.711   4.865   4.649
 6154TIP3   OH218402   7.948   6.083   0.586
 6154TIP3    H118403   7.996   6.160   0.618
 6154TIP3    H218404   7.856   6.104   0.603
 6155TIP3   OH218405   1.137   3.601   5.459
 6155TIP3    H118406   1.189   3.536   5.411
 6155TIP3    H218407   1.053   3.558   5.473
 6156TIP3   OH218408   2.065   0.721   2.871
 6156TIP3    H118409   2.089   0.645   2.817
 6156TIP3    H218410   2.147   0.770   2.879
 6157TIP3   OH218411   1.672   2.992   5.683
 6157TIP3    H118412   1.735   3.043   5.631
 6157TIP3    H218413   1.619   2.946   5.619
 6158TIP3   OH218414   2.169   5.930   6.828
 6158TIP3    H118415   2.193   5.863   6.892
 6158TIP3    H218416   2.083   5.960   6.857
 6159TIP3   OH218417   4.549   3.405   0.889
 6159TIP3    H118418   4.465   3.394   0.935
 6159TIP3    H218419   4.558   3.326   0.836
 6160TIP3   OH218420   0.508   3.594   5.221
 6160TIP3    H118421   0.584   3.571   5.167
 6160TIP3    H218422   0.523   3.685   5.245
 6161TIP3   OH218423   0.904   5.475   0.083
 6161TIP3    H118424   0.938   5.503   0.169
 6161TIP3    H218425   0.849   5.548   0.055
 6162TIP3   OH218426   6.172   1.432   5.223
 6162TIP3    H118427   6.118   1.489   5.168
 6162TIP3    H218428   6.121   1.422   5.304
 6163TIP3   OH218429   7.929   0.548   0.729
 6163TIP3    H118430   7.999   0.597   0.773
 6163TIP3    H218431   7.850   0.572   0.778
 6164TIP3   OH218432   7.006   5.803   3.156
 6164TIP3    H118433   7.008   5.739   3.227
 6164TIP3    H218434   7.035   5.755   3.079
 6165TIP3   OH218435   3.504   0.638   3.923
 6165TIP3    H118436   3.468   0.727   3.923
 6165TIP3    H218437   3.466   0.596   3.846
 6166TIP3   OH218438   5.420   0.496   1.968
 6166TIP3    H118439   5.327   0.516   1.973
 6166TIP3    H218440   5.454   0.555   1.901
 6167TIP3   OH218441   7.416   4.320   4.066
 6167TIP3    H118442   7.366   4.242   4.090
 6167TIP3    H218443   7.507   4.290   4.061
 6168TIP3   OH218444   3.678   7.908   3.606
 6168TIP3    H118445   3.598   7.859   3.588
 6168TIP3    H218446   3.712   7.932   3.519
 6169TIP3   OH218447   5.188   6.170   0.215
 6169TIP3    H118448   5.207   6.192   0.307
 6169TIP3    H218449   5.261   6.113   0.189
 6170TIP3   OH218450   7.821   7.083   1.817
 6170TIP3    H118451   7.730   7.112   1.818
 6170TIP3    H218452   7.856   7.110   1.902
 6171TIP3   OH218453   0.181   5.398   1.195
 6171TIP3    H118454   0.098   5.353   1.211
 6171TIP3    H218455   0.168   5.442   1.111
 6172TIP3   OH218456   0.602   0.633   3.225
 6172TIP3    H118457   0.558   0.581   3.158
 6172TIP3    H218458   0.588   0.585   3.307
 6173TIP3   OH218459   5.851   2.257   3.141
 6173TIP3    H118460   5.763   2.293   3.136
 6173TIP3    H218461   5.860   2.229   3.232
 6174TIP3   OH218462   7.176   3.370   1.922
 6174TIP3    H118463   7.128   3.334   1.997
 6174TIP3    H218464   7.244   3.305   1.904
 6175TIP3   OH218465   5.747   4.117   2.141
 6175TIP3    H118466   5.835   4.115   2.103
 6175TIP3    H218467   5.751   4.056   2.214
 6176TIP3   OH218468   5.265   0.082   3.422
 6176TIP3    H118469   5.253  -0.005   3.460
 6176TIP3    H218470   5.355   0.081   3.388
 6177TIP3   OH218471   1.480   7.526   3.099
 6177TIP3    H118472   1.444   7.614   3.110
 6177TIP3    H218473   1.404   7.469   3.090
 6178TIP3   OH218474   6.218   7.501   3.399
 6178TIP3    H118475   6.133   7.458   3.402
 6178TIP3    H218476   6.239   7.520   3.490
 6179TIP3   OH218477   3.844   0.455   5.120
 6179TIP3    H118478   3.763   0.426   5.161
 6179TIP3    H218479   3.872   0.530   5.173
 6180TIP3   OH218480   2.096   5.482   2.915
 6180TIP3    H118481   2.093   5.574   2.939
 6180TIP3    H218482   2.119   5.482   2.822
 6181TIP3   OH218483   2.663   2.604   6.361
 6181TIP3    H118484   2.736   2.545   6.384
 6181TIP3    H218485   2.611   2.554   6.298
 6182TIP3   OH218486   0.746   2.510   2.513
 6182TIP3    H118487   0.821   2.527   2.457
 6182TIP3    H218488   0.695   2.591   2.512
 6183TIP3   OH218489   6.889   6.251   2.275
 6183TIP3    H118490   6.793   6.253   2.285
 6183TIP3    H218491   6.919   6.202   2.351
 6184TIP3   OH218492   6.813   2.636   1.218
 6184TIP3    H118493   6.818   2.709   1.156
 6184TIP3    H218494   6.785   2.561   1.166
 6185TIP3   OH218495   3.226   6.356   0.628
 6185TIP3    H118496   3.313   6.343   0.590
 6185TIP3    H218497   3.242   6.403   0.710
 6186TIP3   OH218498   3.487   2.900   2.935
 6186TIP3    H118499   3.539   2.946   3.000
 6186TIP3    H218500   3.446   2.970   2.884
 6187TIP3   OH218501   2.940   6.482   4.872
 6187TIP3    H118502   2.859   6.479   4.923
 6187TIP3    H218503   2.917   6.527   4.791
 6188TIP3   OH218504   8.102   0.276   1.655
 6188TIP3    H118505   8.157   0.270   1.577
 6188TIP3    H218506   8.146   0.220   1.719
 6189TIP3   OH218507   1.420   7.849   3.181
 6189TIP3    H118508   1.375   7.789   3.239
 6189TIP3    H218509   1.374   7.933   3.192
 6190TIP3   OH218510   8.144   3.425   2.514
 6190TIP3    H118511   8.149   3.357   2.581
 6190TIP3    H218512   8.206   3.398   2.447
 6191TIP3   OH218513   2.525   0.715   4.986
 6191TIP3    H118514   2.434   0.704   5.013
 6191TIP3    H218515   2.519   0.756   4.899
 6192TIP3   OH218516   7.458   0.480   2.313
 6192TIP3    H118517   7.462   0.515   2.402
 6192TIP3    H218518   7.369   0.498   2.284
 6193TIP3   OH218519   1.476   1.778   1.978
 6193TIP3    H118520   1.538   1.814   1.914
 6193TIP3    H218521   1.530   1.726   2.037
 6194TIP3   OH218522   8.292   0.162   4.853
 6194TIP3    H118523   8.236   0.239   4.852
 6194TIP3    H218524   8.354   0.177   4.924
 6195TIP3   OH218525   1.576   1.528   6.436
 6195TIP3    H118526   1.552   1.463   6.369
 6195TIP3    H218527   1.494   1.575   6.454
 6196TIP3   OH218528   0.900   1.557   3.204
 6196TIP3    H118529   0.844   1.498   3.153
 6196TIP3    H218530   0.912   1.513   3.288
 6197TIP3   OH218531   7.989   0.195   2.234
 6197TIP3    H118532   7.988   0.244   2.152
 6197TIP3    H218533   8.069   0.142   2.230
 6198TIP3   OH218534   0.609   0.625   4.113
 6198TIP3    H118535   0.667   0.578   4.052
 6198TIP3    H218536   0.539   0.659   4.058
 6199TIP3   OH218537   7.572   4.038   6.154
 6199TIP3    H118538   7.639   4.053   6.220
 6199TIP3    H218539   7.523   4.120   6.150
 6200TIP3   OH218540   0.363   4.691   4.189
 6200TIP3    H118541   0.330   4.661   4.273
 6200TIP3    H218542   0.407   4.615   4.151
 6201TIP3   OH218543   0.723   6.876   4.978
 6201TIP3    H118544   0.667   6.953   4.980
 6201TIP3    H218545   0.769   6.883   4.894
 6202TIP3   OH218546   6.258   0.682   6.418
 6202TIP3    H118547   6.255   0.631   6.337
 6202TIP3    H218548   6.269   0.773   6.389
 6203TIP3   OH218549   2.428   7.403   6.703
 6203TIP3    H118550   2.370   7.471   6.669
 6203TIP3    H218551   2.472   7.444   6.778
 6204TIP3   OH218552   2.811   1.022   5.604
 6204TIP3    H118553   2.801   1.113   5.576
 6204TIP3    H218554   2.726   0.982   5.585
 6205TIP3   OH218555   5.749   7.718   4.553
 6205TIP3    H118556   5.665   7.679   4.525
 6205TIP3    H218557   5.813   7.684   4.490
 6206TIP3   OH218558   3.413   1.765   6.242
 6206TIP3    H118559   3.455   1.842   6.205
 6206TIP3    H218560   3.367   1.725   6.168
 6207TIP3   OH218561   0.374   0.908   2.557
 6207TIP3    H118562   0.319   0.842   2.516
 6207TIP3    H218563   0.437   0.858   2.609
 6208TIP3   OH218564   1.622   1.868   2.872
 6208TIP3    H118565   1.706   1.851   2.828
 6208TIP3    H218566   1.645   1.873   2.965
 6209TIP3   OH218567   0.285   5.079   1.412
 6209TIP3    H118568   0.201   5.041   1.439
 6209TIP3    H218569   0.347   5.050   1.478
 6210TIP3   OH218570   6.494   5.345   0.441
 6210TIP3    H118571   6.492   5.314   0.531
 6210TIP3    H218572   6.452   5.276   0.390
 6211TIP3   OH218573   3.840   6.594   4.713
 6211TIP3    H118574   3.916   6.645   4.742
 6211TIP3    H218575   3.819   6.629   4.627
 6212TIP3   OH218576   2.443   7.741   5.009
 6212TIP3    H118577   2.513   7.787   5.054
 6212TIP3    H218578   2.450   7.651   5.038
 6213TIP3   OH218579   4.498   1.272   5.199
 6213TIP3    H118580   4.476   1.216   5.124
 6213TIP3    H218581   4.553   1.218   5.254
 6214TIP3   OH218582   5.572   3.254   2.970
 6214TIP3    H118583   5.637   3.246   3.040
 6214TIP3    H218584   5.578   3.173   2.921
 6215TIP3   OH218585   1.948   2.251   4.889
 6215TIP3    H118586   2.009   2.180   4.869
 6215TIP3    H218587   2.003   2.320   4.925
 6216TIP3   OH218588   3.760   6.507   0.152
 6216TIP3    H118589   3.793   6.589   0.190
 6216TIP3    H218590   3.725   6.533   0.067
 6217TIP3   OH218591   2.021   7.109   4.064
 6217TIP3    H118592   1.990   7.168   4.133
 6217TIP3    H218593   2.029   7.165   3.987
 6218TIP3   OH218594   7.125   5.603   2.525
 6218TIP3    H118595   7.118   5.696   2.502
 6218TIP3    H218596   7.061   5.560   2.469
 6219TIP3   OH218597   4.310   3.403   6.084
 6219TIP3    H118598   4.358   3.482   6.109
 6219TIP3    H218599   4.303   3.352   6.165
 6220TIP3   OH218600   3.078   5.698   3.031
 6220TIP3    H118601   3.073   5.702   2.936
 6220TIP3    H218602   3.083   5.605   3.052
 6221TIP3   OH218603   1.384   2.188   5.091
 6221TIP3    H118604   1.414   2.277   5.074
 6221TIP3    H218605   1.302   2.199   5.140
 6222TIP3   OH218606   5.586   3.267   5.566
 6222TIP3    H118607   5.597   3.276   5.471
 6222TIP3    H218608   5.674   3.275   5.602
 6223TIP3   OH218609   7.534   7.921   0.154
 6223TIP3    H118610   7.531   7.879   0.068
 6223TIP3    H218611   7.452   7.970   0.159
 6224TIP3   OH218612   2.638   3.143   1.685
 6224TIP3    H118613   2.629   3.129   1.591
 6224TIP3    H218614   2.721   3.101   1.708
 6225TIP3   OH218615   5.452   0.165   2.567
 6225TIP3    H118616   5.446   0.145   2.660
 6225TIP3    H218617   5.361   0.162   2.536
 6226TIP3   OH218618   1.292   4.904   2.352
 6226TIP3    H118619   1.356   4.862   2.294
 6226TIP3    H218620   1.344   4.962   2.408
 6227TIP3   OH218621   7.442   4.698   1.565
 6227TIP3    H118622   7.445   4.636   1.492
 6227TIP3    H218623   7.356   4.683   1.605
 6228TIP3   OH218624   2.257   6.271   2.744
 6228TIP3    H118625   2.226   6.304   2.660
 6228TIP3    H218626   2.304   6.190   2.723
 6229TIP3   OH218627   6.502   1.664   4.993
 6229TIP3    H118628   6.462   1.577   4.994
 6229TIP3    H218629   6.445   1.717   5.049
 6230TIP3   OH218630   1.675   0.559   5.337
 6230TIP3    H118631   1.667   0.604   5.253
 6230TIP3    H218632   1.694   0.468   5.314
 6231TIP3   OH218633   0.980   3.523   4.410
 6231TIP3    H118634   0.924   3.591   4.447
 6231TIP3    H218635   1.069   3.556   4.422
 6232TIP3   OH218636   8.003   4.135   4.303
 6232TIP3    H118637   7.974   4.224   4.317
 6232TIP3    H218638   8.009   4.126   4.208
 6233TIP3   OH218639   4.148   0.696   6.517
 6233TIP3    H118640   4.069   0.656   6.481
 6233TIP3    H218641   4.115   0.768   6.572
 6234TIP3   OH218642   5.605   6.154   6.008
 6234TIP3    H118643   5.665   6.225   6.032
 6234TIP3    H218644   5.582   6.172   5.917
 6235TIP3   OH218645   7.637   4.957   5.171
 6235TIP3    H118646   7.666   4.867   5.186
 6235TIP3    H218647   7.575   4.975   5.241
 6236TIP3   OH218648   6.882   3.306   4.156
 6236TIP3    H118649   6.810   3.303   4.219
 6236TIP3    H218650   6.885   3.397   4.126
 6237TIP3   OH218651   1.476   2.240   6.863
 6237TIP3    H118652   1.490   2.148   6.843
 6237TIP3    H218653   1.520   2.287   6.792
 6238TIP3   OH218654   5.821   3.101   3.058
 6238TIP3    H118655   5.915   3.087   3.049
 6238TIP3    H218656   5.795   3.043   3.130
 6239TIP3   OH218657   6.997   2.394   4.078
 6239TIP3    H118658   6.932   2.344   4.127
 6239TIP3    H218659   7.062   2.420   4.143
 6240TIP3   OH218660   2.878   4.053   0.313
 6240TIP3    H118661   2.866   4.138   0.356
 6240TIP3    H218662   2.942   4.070   0.244
 6241TIP3   OH218663   5.896   3.500   6.758
 6241TIP3    H118664   5.980   3.545   6.769
 6241TIP3    H218665   5.834   3.550   6.811
 6242TIP3   OH218666   3.576   4.735   5.051
 6242TIP3    H118667   3.543   4.822   5.032
 6242TIP3    H218668   3.512   4.698   5.112
 6243TIP3   OH218669   7.987   7.424   1.004
 6243TIP3    H118670   8.005   7.518   1.009
 6243TIP3    H218671   7.891   7.418   1.012
 6244TIP3   OH218672   2.704   1.629   0.440
 6244TIP3    H118673   2.614   1.646   0.409
 6244TIP3    H218674   2.702   1.539   0.471
 6245TIP3   OH218675   3.017   5.902   2.486
 6245TIP3    H118676   3.069   5.891   2.406
 6245TIP3    H218677   3.082   5.918   2.554
 6246TIP3   OH218678   5.261   4.786   0.751
 6246TIP3    H118679   5.330   4.726   0.781
 6246TIP3    H218680   5.288   4.811   0.663
 6247TIP3   OH218681   0.221   5.086   4.850
 6247TIP3    H118682   0.167   5.043   4.916
 6247TIP3    H218683   0.160   5.140   4.800
 6248TIP3   OH218684   8.189   0.073   2.106
 6248TIP3    H118685   8.266   0.038   2.062
 6248TIP3    H218686   8.121   0.007   2.093
 6249TIP3   OH218687   1.330   3.223   5.143
 6249TIP3    H118688   1.312   3.158   5.211
 6249TIP3    H218689   1.250   3.228   5.092
 6250TIP3   OH218690   2.361   2.167   1.156
 6250TIP3    H118691   2.414   2.164   1.077
 6250TIP3    H218692   2.322   2.080   1.162
 6251TIP3   OH218693   6.936   6.332   6.752
 6251TIP3    H118694   6.905   6.373   6.672
 6251TIP3    H218695   7.029   6.315   6.735
 6252TIP3   OH218696   2.601   0.334   0.231
 6252TIP3    H118697   2.508   0.348   0.210
 6252TIP3    H218698   2.643   0.418   0.214
 6253TIP3   OH218699   2.538   0.672   6.358
 6253TIP3    H118700   2.535   0.667   6.262
 6253TIP3    H218701   2.615   0.726   6.377
 6254TIP3   OH218702   0.254   6.483   5.906
 6254TIP3    H118703   0.248   6.428   5.828
 6254TIP3    H218704   0.287   6.567   5.872
 6255TIP3   OH218705   6.355   0.484   0.559
 6255TIP3    H118706   6.326   0.556   0.615
 6255TIP3    H218707   6.450   0.481   0.569
 6256TIP3   OH218708   2.065   5.409   4.621
 6256TIP3    H118709   2.114   5.387   4.700
 6256TIP3    H218710   1.993   5.465   4.651
 6257TIP3   OH218711   7.423   7.246   6.541
 6257TIP3    H118712   7.484   7.304   6.496
 6257TIP3    H218713   7.340   7.294   6.541
 6258TIP3   OH218714   8.317   3.354   2.286
 6258TIP3    H118715   8.350   3.273   2.323
 6258TIP3    H218716   8.359   3.360   2.200
 6259TIP3   OH218717   6.195   4.866   3.249
 6259TIP3    H118718   6.122   4.920   3.279
 6259TIP3    H218719   6.270   4.926   3.246
 6260TIP3   OH218720   0.803   2.915   0.557
 6260TIP3    H118721   0.838   2.894   0.471
 6260TIP3    H218722   0.708   2.909   0.546
 6261TIP3   OH218723   5.849   5.987   1.658
 6261TIP3    H118724   5.798   5.948   1.730
 6261TIP3    H218725   5.793   5.978   1.581
 6262TIP3   OH218726   0.016   4.293   0.590
 6262TIP3    H118727  -0.033   4.368   0.558
 6262TIP3    H218728   0.083   4.330   0.648
 6263TIP3   OH218729   3.993   7.294   3.383
 6263TIP3    H118730   3.939   7.295   3.304
 6263TIP3    H218731   4.053   7.368   3.372
 6264TIP3   OH218732   8.123   5.033   4.093
 6264TIP3    H118733   8.165   5.005   4.011
 6264TIP3    H218734   8.150   4.967   4.157
 6265TIP3   OH218735   3.576   2.920   6.799
 6265TIP3    H118736   3.635   2.974   6.851
 6265TIP3    H218737   3.509   2.892   6.861
 6266TIP3   OH218738   4.552   7.217   2.041
 6266TIP3    H118739   4.585   7.208   1.951
 6266TIP3    H218740   4.532   7.310   2.050
 6267TIP3   OH218741   4.417   4.991   6.173
 6267TIP3    H118742   4.409   5.061   6.109
 6267TIP3    H218743   4.330   4.952   6.178
 6268TIP3   OH218744   0.917   4.552   2.240
 6268TIP3    H118745   0.896   4.494   2.167
 6268TIP3    H218746   1.005   4.585   2.219
 6269TIP3   OH218747   7.219   5.350   5.347
 6269TIP3    H118748   7.209   5.365   5.441
 6269TIP3    H218749   7.249   5.434   5.313
 6270TIP3   OH218750   1.092   0.637   0.067
 6270TIP3    H118751   1.102   0.559   0.012
 6270TIP3    H218752   1.060   0.704   0.007
 6271TIP3   OH218753   5.780   6.438   2.603
 6271TIP3    H118754   5.742   6.352   2.622
 6271TIP3    H218755   5.853   6.446   2.665
 6272TIP3   OH218756   3.501   0.085   2.921
 6272TIP3    H118757   3.445   0.110   2.995
 6272TIP3    H218758   3.569   0.152   2.920
 6273TIP3   OH218759   7.345   3.923   6.101
 6273TIP3    H118760   7.427   3.972   6.096
 6273TIP3    H218761   7.299   3.945   6.020
 6274TIP3   OH218762   6.989   1.432   4.768
 6274TIP3    H118763   6.907   1.463   4.807
 6274TIP3    H218764   6.978   1.338   4.759
 6275TIP3   OH218765   1.235   0.819   4.608
 6275TIP3    H118766   1.262   0.748   4.549
 6275TIP3    H218767   1.232   0.777   4.694
 6276TIP3   OH218768   4.114   6.901   6.570
 6276TIP3    H118769   4.147   6.980   6.612
 6276TIP3    H218770   4.037   6.930   6.521
 6277TIP3   OH218771   2.055   2.205   3.610
 6277TIP3    H118772   1.963   2.224   3.592
 6277TIP3    H218773   2.054   2.154   3.691
 6278TIP3   OH218774   1.732   6.543   4.071
 6278TIP3    H118775   1.684   6.463   4.088
 6278TIP3    H218776   1.705   6.569   3.983
 6279TIP3   OH218777   5.773   1.083   4.605
 6279TIP3    H118778   5.705   1.140   4.641
 6279TIP3    H218779   5.841   1.081   4.672
 6280TIP3   OH218780   2.772   4.121   1.756
 6280TIP3    H118781   2.696   4.076   1.792
 6280TIP3    H218782   2.807   4.172   1.829
 6281TIP3   OH218783   7.936   0.895   6.292
 6281TIP3    H118784   7.926   0.951   6.214
 6281TIP3    H218785   8.017   0.927   6.333
 6282TIP3   OH218786   0.717   0.601   6.659
 6282TIP3    H118787   0.765   0.666   6.607
 6282TIP3    H218788   0.723   0.520   6.608
 6283TIP3   OH218789   3.160   2.504   1.579
 6283TIP3    H118790   3.075   2.536   1.548
 6283TIP3    H218791   3.140   2.421   1.622
 6284TIP3   OH218792   4.762   5.694   0.676
 6284TIP3    H118793   4.818   5.617   0.667
 6284TIP3    H218794   4.719   5.683   0.761
 6285TIP3   OH218795   7.827   5.118   4.083
 6285TIP3    H118796   7.737   5.146   4.066
 6285TIP3    H218797   7.879   5.160   4.014
 6286TIP3   OH218798   2.703   2.612   2.643
 6286TIP3    H118799   2.679   2.576   2.557
 6286TIP3    H218800   2.784   2.661   2.626
 6287TIP3   OH218801   5.860   6.166   1.911
 6287TIP3    H118802   5.840   6.254   1.943
 6287TIP3    H218803   5.809   6.158   1.830
 6288TIP3   OH218804   4.641   2.267   3.563
 6288TIP3    H118805   4.600   2.239   3.481
 6288TIP3    H218806   4.660   2.185   3.610
 6289TIP3   OH218807   4.352   4.332   4.864
 6289TIP3    H118808   4.317   4.377   4.787
 6289TIP3    H218809   4.445   4.322   4.846
 6290TIP3   OH218810   4.533   4.975   1.444
 6290TIP3    H118811   4.566   4.887   1.464
 6290TIP3    H218812   4.482   4.999   1.521
 6291TIP3   OH218813   6.030   0.842   1.912
 6291TIP3    H118814   6.083   0.871   1.837
 6291TIP3    H218815   6.065   0.755   1.933
 6292TIP3   OH218816   4.808   3.778   1.944
 6292TIP3    H118817   4.848   3.715   2.004
 6292TIP3    H218818   4.717   3.751   1.937
 6293TIP3   OH218819   8.269   3.569   4.255
 6293TIP3    H118820   8.200   3.579   4.320
 6293TIP3    H218821   8.246   3.629   4.185
 6294TIP3   OH218822   2.702   3.852   4.136
 6294TIP3    H118823   2.749   3.932   4.113
 6294TIP3    H218824   2.691   3.857   4.231
 6295TIP3   OH218825   3.976   7.683   1.170
 6295TIP3    H118826   3.949   7.707   1.258
 6295TIP3    H218827   3.907   7.719   1.113
 6296TIP3   OH218828   2.225   0.122   5.355
 6296TIP3    H118829   2.249   0.187   5.421
 6296TIP3    H218830   2.139   0.091   5.382
 6297TIP3   OH218831   2.091   0.531   5.791
 6297TIP3    H118832   2.023   0.464   5.778
 6297TIP3    H218833   2.156   0.512   5.723
 6298TIP3   OH218834   6.694   5.431   5.967
 6298TIP3    H118835   6.669   5.522   5.947
 6298TIP3    H218836   6.631   5.378   5.918
 6299TIP3   OH218837   7.135   4.755   2.398
 6299TIP3    H118838   7.131   4.663   2.425
 6299TIP3    H218839   7.131   4.752   2.303
 6300TIP3   OH218840   2.930   1.039   0.254
 6300TIP3    H118841   2.843   1.079   0.242
 6300TIP3    H218842   2.914   0.945   0.251
 6301TIP3   OH218843   4.769   3.781   2.964
 6301TIP3    H118844   4.827   3.713   2.929
 6301TIP3    H218845   4.810   3.806   3.047
 6302TIP3   OH218846   0.171   2.579   2.934
 6302TIP3    H118847   0.239   2.574   2.867
 6302TIP3    H218848   0.216   2.608   3.013
 6303TIP3   OH218849   2.541   3.118   0.503
 6303TIP3    H118850   2.484   3.176   0.453
 6303TIP3    H218851   2.603   3.084   0.439
 6304TIP3   OH218852   5.930   0.512   2.618
 6304TIP3    H118853   5.995   0.474   2.677
 6304TIP3    H218854   5.852   0.457   2.630
 6305TIP3   OH218855   7.267   7.967   6.732
 6305TIP3    H118856   7.333   7.919   6.782
 6305TIP3    H218857   7.213   7.899   6.692
 6306TIP3   OH218858   2.264   6.555   5.166
 6306TIP3    H118859   2.349   6.589   5.195
 6306TIP3    H218860   2.286   6.478   5.113
 6307TIP3   OH218861   6.605   2.125   0.874
 6307TIP3    H118862   6.699   2.125   0.889
 6307TIP3    H218863   6.586   2.213   0.842
 6308TIP3   OH218864   1.808   7.764   5.193
 6308TIP3    H118865   1.823   7.854   5.223
 6308TIP3    H218866   1.830   7.767   5.099
 6309TIP3   OH218867   1.066   2.817   1.744
 6309TIP3    H118868   1.008   2.863   1.684
 6309TIP3    H218869   1.012   2.798   1.821
 6310TIP3   OH218870   7.630   0.491   6.052
 6310TIP3    H118871   7.655   0.414   6.103
 6310TIP3    H218872   7.699   0.500   5.987
 6311TIP3   OH218873   3.105   5.743   5.575
 6311TIP3    H118874   3.103   5.814   5.638
 6311TIP3    H218875   3.157   5.674   5.617
 6312TIP3   OH218876   6.805   0.505   2.453
 6312TIP3    H118877   6.757   0.517   2.535
 6312TIP3    H218878   6.853   0.587   2.441
 6313TIP3   OH218879   4.201   0.581   4.561
 6313TIP3    H118880   4.191   0.671   4.529
 6313TIP3    H218881   4.295   0.568   4.565
 6314TIP3   OH218882   1.455   2.183   3.947
 6314TIP3    H118883   1.457   2.088   3.951
 6314TIP3    H218884   1.504   2.211   4.025
 6315TIP3   OH218885   4.142   2.879   1.436
 6315TIP3    H118886   4.107   2.834   1.359
 6315TIP3    H218887   4.071   2.934   1.466
 6316TIP3   OH218888   3.758   7.115   0.646
 6316TIP3    H118889   3.681   7.151   0.601
 6316TIP3    H218890   3.736   7.121   0.739
 6317TIP3   OH218891   2.306   3.068   2.796
 6317TIP3    H118892   2.225   3.117   2.810
 6317TIP3    H218893   2.364   3.129   2.750
 6318TIP3   OH218894   4.322   1.768   2.822
 6318TIP3    H118895   4.290   1.764   2.912
 6318TIP3    H218896   4.417   1.779   2.831
 6319TIP3   OH218897   5.408   1.860   3.500
 6319TIP3    H118898   5.468   1.912   3.447
 6319TIP3    H218899   5.458   1.782   3.523
 6320TIP3   OH218900   0.735   3.281   5.476
 6320TIP3    H118901   0.701   3.240   5.397
 6320TIP3    H218902   0.809   3.226   5.502
 6321TIP3   OH218903   7.278   2.785   6.155
 6321TIP3    H118904   7.212   2.756   6.091
 6321TIP3    H218905   7.257   2.736   6.234
 6322TIP3   OH218906   3.074   7.070   0.506
 6322TIP3    H118907   3.044   7.041   0.420
 6322TIP3    H218908   3.155   7.021   0.521
 6323TIP3   OH218909   5.458   5.850   3.947
 6323TIP3    H118910   5.467   5.929   4.000
 6323TIP3    H218911   5.368   5.854   3.915
 6324TIP3   OH218912   1.676   6.748   4.842
 6324TIP3    H118913   1.715   6.710   4.763
 6324TIP3    H218914   1.626   6.823   4.809
 6325TIP3   OH218915   1.005   5.785   0.468
 6325TIP3    H118916   1.012   5.735   0.549
 6325TIP3    H218917   1.089   5.830   0.459
 6326TIP3   OH218918   0.718   2.804   0.838
 6326TIP3    H118919   0.637   2.753   0.841
 6326TIP3    H218920   0.699   2.877   0.779
 6327TIP3   OH218921   8.201   1.918   5.312
 6327TIP3    H118922   8.226   1.988   5.251
 6327TIP3    H218923   8.153   1.855   5.258
 6328TIP3   OH218924   5.483   0.276   4.164
 6328TIP3    H118925   5.411   0.232   4.209
 6328TIP3    H218926   5.472   0.369   4.185
 6329TIP3   OH218927   7.970   6.034   2.284
 6329TIP3    H118928   8.049   6.087   2.274
 6329TIP3    H218929   8.002   5.946   2.302
 6330TIP3   OH218930   5.068   3.559   3.640
 6330TIP3    H118931   5.090   3.651   3.652
 6330TIP3    H218932   5.051   3.551   3.546
 6331TIP3   OH218933   3.369   4.333   1.122
 6331TIP3    H118934   3.397   4.402   1.182
 6331TIP3    H218935   3.426   4.259   1.142
 6332TIP3   OH218936   4.550   6.352   5.510
 6332TIP3    H118937   4.593   6.293   5.448
 6332TIP3    H218938   4.458   6.352   5.483
 6333TIP3   OH218939   3.686   4.085   0.854
 6333TIP3    H118940   3.762   4.073   0.798
 6333TIP3    H218941   3.723   4.094   0.942
 6334TIP3   OH218942   2.701   4.195  -0.023
 6334TIP3    H118943   2.636   4.242  -0.075
 6334TIP3    H218944   2.693   4.231   0.065
 6335TIP3   OH218945   7.633   1.310   2.580
 6335TIP3    H118946   7.587   1.393   2.585
 6335TIP3    H218947   7.600   1.258   2.653
 6336TIP3   OH218948   4.732   7.442   6.567
 6336TIP3    H118949   4.688   7.433   6.482
 6336TIP3    H218950   4.736   7.536   6.582
 6337TIP3   OH218951   5.312   6.695   5.072
 6337TIP3    H118952   5.235   6.639   5.089
 6337TIP3    H218953   5.324   6.744   5.154
 6338TIP3   OH218954   7.262   4.269   2.800
 6338TIP3    H118955   7.215   4.334   2.852
 6338TIP3    H218956   7.207   4.256   2.722
 6339TIP3   OH218957   2.388   0.057   1.409
 6339TIP3    H118958   2.325  -0.002   1.450
 6339TIP3    H218959   2.403   0.018   1.322
 6340TIP3   OH218960   4.939   3.212   4.225
 6340TIP3    H118961   4.845   3.230   4.221
 6340TIP3    H218962   4.952   3.142   4.160
 6341TIP3   OH218963   0.766   4.437   5.445
 6341TIP3    H118964   0.840   4.488   5.412
 6341TIP3    H218965   0.700   4.503   5.467
 6342TIP3   OH218966   6.733   3.616   2.977
 6342TIP3    H118967   6.732   3.524   2.948
 6342TIP3    H218968   6.647   3.630   3.015
 6343TIP3   OH218969   8.012   1.222   4.269
 6343TIP3    H118970   8.089   1.244   4.216
 6343TIP3    H218971   7.948   1.289   4.247
 6344TIP3   OH218972   8.355   1.246   0.964
 6344TIP3    H118973   8.449   1.239   0.978
 6344TIP3    H218974   8.319   1.267   1.050
 6345TIP3   OH218975   0.410   2.916   4.161
 6345TIP3    H118976   0.412   2.971   4.239
 6345TIP3    H218977   0.385   2.829   4.194
 6346TIP3   OH218978   2.291   4.465   5.588
 6346TIP3    H118979   2.382   4.436   5.576
 6346TIP3    H218980   2.240   4.404   5.535
 6347TIP3   OH218981   7.334   4.501   3.673
 6347TIP3    H118982   7.400   4.518   3.605
 6347TIP3    H218983   7.382   4.515   3.755
 6348TIP3   OH218984   1.700   0.852   2.484
 6348TIP3    H118985   1.747   0.904   2.550
 6348TIP3    H218986   1.730   0.762   2.500
 6349TIP3   OH218987   6.108   7.670   3.216
 6349TIP3    H118988   6.018   7.638   3.220
 6349TIP3    H218989   6.153   7.625   3.288
 6350TIP3   OH218990   6.685   3.777   1.405
 6350TIP3    H118991   6.721   3.858   1.443
 6350TIP3    H218992   6.590   3.786   1.416
 6351TIP3   OH218993   4.876   0.377   3.838
 6351TIP3    H118994   4.849   0.323   3.764
 6351TIP3    H218995   4.963   0.345   3.862
 6352TIP3   OH218996   4.893   7.247   0.548
 6352TIP3    H118997   4.977   7.257   0.593
 6352TIP3    H218998   4.902   7.299   0.469
 6353TIP3   OH218999   4.392   4.473   5.167
 6353TIP3    H119000   4.406   4.396   5.111
 6353TIP3    H219001   4.300   4.495   5.155
 6354TIP3   OH219002   7.720   5.849   6.179
 6354TIP3    H119003   7.747   5.813   6.095
 6354TIP3    H219004   7.624   5.848   6.175
 6355TIP3   OH219005   1.931   5.839   2.195
 6355TIP3    H119006   1.915   5.753   2.233
 6355TIP3    H219007   2.016   5.865   2.231
 6356TIP3   OH219008   0.585   1.476   4.963
 6356TIP3    H119009   0.653   1.495   5.028
 6356TIP3    H219010   0.631   1.477   4.879
 6357TIP3   OH219011   3.468   3.903   6.800
 6357TIP3    H119012   3.528   3.832   6.823
 6357TIP3    H219013   3.480   3.969   6.869
 6358TIP3   OH219014   6.921   2.982   6.867
 6358TIP3    H119015   6.959   3.070   6.857
 6358TIP3    H219016   6.965   2.929   6.801
 6359TIP3   OH219017   6.680   2.198   6.670
 6359TIP3    H119018   6.729   2.131   6.719
 6359TIP3    H219019   6.590   2.166   6.671
 6360TIP3   OH219020   1.244   3.717   5.232
 6360TIP3    H119021   1.264   3.694   5.323
 6360TIP3    H219022   1.269   3.639   5.182
 6361TIP3   OH219023   0.684   6.377   1.228
 6361TIP3    H119024   0.611   6.418   1.275
 6361TIP3    H219025   0.645   6.303   1.182
 6362TIP3   OH219026   0.767   6.003   3.087
 6362TIP3    H119027   0.688   5.980   3.136
 6362TIP3    H219028   0.737   6.011   2.996
 6363TIP3   OH219029   7.435   2.339   0.708
 6363TIP3    H119030   7.441   2.271   0.641
 6363TIP3    H219031   7.412   2.293   0.788
 6364TIP3   OH219032   4.521   5.203   2.744
 6364TIP3    H119033   4.574   5.256   2.684
 6364TIP3    H219034   4.454   5.264   2.775
 6365TIP3   OH219035   1.348   1.610   0.298
 6365TIP3    H119036   1.331   1.541   0.235
 6365TIP3    H219037   1.339   1.691   0.249
 6366TIP3   OH219038   6.142   1.612   3.848
 6366TIP3    H119039   6.208   1.566   3.797
 6366TIP3    H219040   6.107   1.545   3.908
 6367TIP3   OH219041   7.403   0.356   6.395
 6367TIP3    H119042   7.383   0.280   6.450
 6367TIP3    H219043   7.341   0.349   6.322
 6368TIP3   OH219044   3.594   0.918   6.787
 6368TIP3    H119045   3.601   1.010   6.760
 6368TIP3    H219046   3.527   0.918   6.856
 6369TIP3   OH219047   4.122   0.551   1.429
 6369TIP3    H119048   4.187   0.482   1.439
 6369TIP3    H219049   4.169   0.631   1.453
 6370TIP3   OH219050   4.797   0.220   0.705
 6370TIP3    H119051   4.830   0.175   0.783
 6370TIP3    H219052   4.873   0.229   0.648
 6371TIP3   OH219053   7.020   4.821   0.220
 6371TIP3    H119054   7.068   4.904   0.222
 6371TIP3    H219055   6.948   4.832   0.281
 6372TIP3   OH219056   5.091   7.323   1.141
 6372TIP3    H119057   5.081   7.268   1.063
 6372TIP3    H219058   5.041   7.402   1.121
 6373TIP3   OH219059   4.739   0.074   3.794
 6373TIP3    H119060   4.794   0.098   3.719
 6373TIP3    H219061   4.740  -0.021   3.795
 6374TIP3   OH219062   2.532   6.059   4.936
 6374TIP3    H119063   2.588   6.136   4.930
 6374TIP3    H219064   2.488   6.054   4.850
 6375TIP3   OH219065   0.698   4.561   0.593
 6375TIP3    H119066   0.739   4.476   0.574
 6375TIP3    H219067   0.640   4.543   0.667
 6376TIP3   OH219068   2.559   3.680   1.455
 6376TIP3    H119069   2.535   3.733   1.379
 6376TIP3    H219070   2.540   3.590   1.429
 6377TIP3   OH219071   8.074   1.782   2.518
 6377TIP3    H119072   8.008   1.756   2.454
 6377TIP3    H219073   8.150   1.729   2.497
 6378TIP3   OH219074   5.478   5.518   0.689
 6378TIP3    H119075   5.430   5.532   0.771
 6378TIP3    H219076   5.418   5.465   0.636
 6379TIP3   OH219077   1.273   1.995   5.426
 6379TIP3    H119078   1.299   2.022   5.515
 6379TIP3    H219079   1.207   1.927   5.440
 6380TIP3   OH219080   1.309   0.255   2.316
 6380TIP3    H119081   1.264   0.339   2.314
 6380TIP3    H219082   1.400   0.277   2.336
 6381TIP3   OH219083   3.040   1.052   6.256
 6381TIP3    H119084   3.027   1.146   6.268
 6381TIP3    H219085   2.970   1.025   6.197
 6382TIP3   OH219086   4.820   4.340   3.339
 6382TIP3    H119087   4.814   4.279   3.412
 6382TIP3    H219088   4.803   4.426   3.379
 6383TIP3   OH219089   3.583   0.138   5.949
 6383TIP3    H119090   3.516   0.081   5.984
 6383TIP3    H219091   3.541   0.183   5.875
 6384TIP3   OH219092   2.823   4.235   2.102
 6384TIP3    H119093   2.828   4.220   2.196
 6384TIP3    H219094   2.913   4.253   2.076
 6385TIP3   OH219095   1.174   7.884   6.130
 6385TIP3    H119096   1.203   7.798   6.159
 6385TIP3    H219097   1.208   7.893   6.041
 6386TIP3   OH219098   2.499   2.814   6.237
 6386TIP3    H119099   2.549   2.742   6.276
 6386TIP3    H219100   2.503   2.884   6.301
 6387TIP3   OH219101   7.168   4.887   6.639
 6387TIP3    H119102   7.187   4.981   6.639
 6387TIP3    H219103   7.252   4.846   6.656
 6388TIP3   OH219104   1.599   3.756   6.822
 6388TIP3    H119105   1.665   3.823   6.800
 6388TIP3    H219106   1.524   3.806   6.853
 6389TIP3   OH219107   2.118   1.853   6.712
 6389TIP3    H119108   2.029   1.820   6.727
 6389TIP3    H219109   2.154   1.865   6.800
 6390TIP3   OH219110   0.238   4.869   5.555
 6390TIP3    H119111   0.303   4.871   5.625
 6390TIP3    H219112   0.185   4.947   5.569
 6391TIP3   OH219113   6.384   1.369   2.592
 6391TIP3    H119114   6.449   1.439   2.593
 6391TIP3    H219115   6.319   1.398   2.527
 6392TIP3   OH219116   5.150   3.193   4.708
 6392TIP3    H119117   5.239   3.162   4.718
 6392TIP3    H219118   5.120   3.153   4.626
 6393TIP3   OH219119   2.952   6.521   4.537
 6393TIP3    H119120   2.978   6.570   4.460
 6393TIP3    H219121   3.007   6.442   4.535
 6394TIP3   OH219122   3.063   7.598   2.555
 6394TIP3    H119123   3.078   7.655   2.631
 6394TIP3    H219124   3.012   7.525   2.589
 6395TIP3   OH219125   6.139   3.599   0.558
 6395TIP3    H119126   6.109   3.586   0.468
 6395TIP3    H219127   6.210   3.536   0.569
 6396TIP3   OH219128   0.833   3.671   6.426
 6396TIP3    H119129   0.835   3.683   6.521
 6396TIP3    H219130   0.806   3.757   6.392
 6397TIP3   OH219131   2.807   2.526   0.383
 6397TIP3    H119132   2.830   2.503   0.293
 6397TIP3    H219133   2.882   2.496   0.435
 6398TIP3   OH219134   7.039   3.196   3.122
 6398TIP3    H119135   7.109   3.187   3.187
 6398TIP3    H219136   7.049   3.286   3.089
 6399TIP3   OH219137   3.023   2.447   1.978
 6399TIP3    H119138   3.111   2.439   1.940
 6399TIP3    H219139   3.031   2.406   2.064
 6400TIP3   OH219140   7.454   2.588   4.151
 6400TIP3    H119141   7.364   2.559   4.167
 6400TIP3    H219142   7.505   2.507   4.146
 6401TIP3   OH219143   3.151   0.400   6.645
 6401TIP3    H119144   3.101   0.461   6.591
 6401TIP3    H219145   3.236   0.392   6.600
 6402TIP3   OH219146   6.000   2.867   6.778
 6402TIP3    H119147   6.086   2.898   6.748
 6402TIP3    H219148   6.017   2.826   6.862
 6403TIP3   OH219149   4.869   6.563   5.047
 6403TIP3    H119150   4.780   6.551   5.015
 6403TIP3    H219151   4.907   6.627   4.986
 6404TIP3   OH219152   7.923   3.710   2.014
 6404TIP3    H119153   7.993   3.646   2.026
 6404TIP3    H219154   7.854   3.661   1.969
 6405TIP3   OH219155   1.734   4.416   1.021
 6405TIP3    H119156   1.747   4.364   1.100
 6405TIP3    H219157   1.641   4.404   1.000
 6406TIP3   OH219158   7.911   1.396   6.643
 6406TIP3    H119159   7.895   1.490   6.646
 6406TIP3    H219160   7.989   1.383   6.696
 6407TIP3   OH219161   0.932   0.328   6.268
 6407TIP3    H119162   0.907   0.237   6.252
 6407TIP3    H219163   0.870   0.379   6.217
 6408TIP3   OH219164   3.223   5.140   3.140
 6408TIP3    H119165   3.141   5.107   3.104
 6408TIP3    H219166   3.218   5.235   3.128
 6409TIP3   OH219167   1.120   7.054   2.908
 6409TIP3    H119168   1.085   7.090   2.990
 6409TIP3    H219169   1.214   7.045   2.923
 6410TIP3   OH219170   1.597   3.724   0.028
 6410TIP3    H119171   1.626   3.816   0.026
 6410TIP3    H219172   1.597   3.697  -0.063
 6411TIP3   OH219173   1.280   7.753   0.649
 6411TIP3    H119174   1.348   7.781   0.710
 6411TIP3    H219175   1.212   7.820   0.656
 6412TIP3   OH219176   3.068   3.965   2.399
 6412TIP3    H119177   3.146   3.922   2.364
 6412TIP3    H219178   2.996   3.904   2.380
 6413TIP3   OH219179   3.440   6.964   4.022
 6413TIP3    H119180   3.386   7.033   4.061
 6413TIP3    H219181   3.459   6.905   4.095
 6414TIP3   OH219182   0.643   7.313   4.534
 6414TIP3    H119183   0.550   7.309   4.511
 6414TIP3    H219184   0.674   7.394   4.494
 6415TIP3   OH219185   1.212   7.392   5.550
 6415TIP3    H119186   1.244   7.455   5.486
 6415TIP3    H219187   1.121   7.417   5.565
 6416TIP3   OH219188   3.527   0.670   2.060
 6416TIP3    H119189   3.514   0.731   2.133
 6416TIP3    H219190   3.598   0.709   2.009
 6417TIP3   OH219191   8.026   4.270   1.462
 6417TIP3    H119192   8.082   4.238   1.533
 6417TIP3    H219193   8.031   4.201   1.395
 6418TIP3   OH219194   5.682   3.811   2.039
 6418TIP3    H119195   5.716   3.811   2.129
 6418TIP3    H219196   5.735   3.875   1.993
 6419TIP3   OH219197   3.304  -0.017   1.860
 6419TIP3    H119198   3.208  -0.010   1.852
 6419TIP3    H219199   3.333   0.072   1.881
 6420TIP3   OH219200   2.419   0.382   2.737
 6420TIP3    H119201   2.452   0.373   2.647
 6420TIP3    H219202   2.346   0.320   2.742
 6421TIP3   OH219203   2.597   2.195   2.463
 6421TIP3    H119204   2.606   2.184   2.368
 6421TIP3    H219205   2.542   2.272   2.473
 6422TIP3   OH219206   1.231   5.482   0.496
 6422TIP3    H119207   1.313   5.497   0.543
 6422TIP3    H219208   1.163   5.515   0.554
 6423TIP3   OH219209   4.384   2.202   6.722
 6423TIP3    H119210   4.386   2.195   6.817
 6423TIP3    H219211   4.467   2.245   6.699
 6424TIP3   OH219212   3.615   5.380   0.695
 6424TIP3    H119213   3.631   5.364   0.788
 6424TIP3    H219214   3.524   5.409   0.691
 6425TIP3   OH219215   3.231   4.011   1.593
 6425TIP3    H119216   3.139   4.039   1.588
 6425TIP3    H219217   3.281   4.092   1.582
 6426TIP3   OH219218   6.272   1.573   5.973
 6426TIP3    H119219   6.259   1.634   6.046
 6426TIP3    H219220   6.263   1.628   5.895
 6427TIP3   OH219221   5.319   7.472   2.152
 6427TIP3    H119222   5.281   7.385   2.166
 6427TIP3    H219223   5.256   7.516   2.096
 6428TIP3   OH219224   7.356   3.241   1.423
 6428TIP3    H119225   7.328   3.159   1.383
 6428TIP3    H219226   7.393   3.215   1.508
 6429TIP3   OH219227   1.282   3.390   0.818
 6429TIP3    H119228   1.341   3.425   0.885
 6429TIP3    H219229   1.211   3.454   0.812
 6430TIP3   OH219230   2.202   0.962   2.804
 6430TIP3    H119231   2.215   1.041   2.855
 6430TIP3    H219232   2.269   0.966   2.735
 6431TIP3   OH219233   0.039   2.825   1.826
 6431TIP3    H119234   0.050   2.815   1.732
 6431TIP3    H219235   0.024   2.918   1.839
 6432TIP3   OH219236   0.143   1.863   0.282
 6432TIP3    H119237   0.148   1.837   0.374
 6432TIP3    H219238   0.235   1.865   0.253
 6433TIP3   OH219239   3.231   7.509   2.881
 6433TIP3    H119240   3.291   7.521   2.955
 6433TIP3    H219241   3.151   7.475   2.921
 6434TIP3   OH219242   1.980   6.547   3.720
 6434TIP3    H119243   2.069   6.577   3.703
 6434TIP3    H219244   1.987   6.452   3.720
 6435TIP3   OH219245   0.808   1.199   3.346
 6435TIP3    H119246   0.822   1.211   3.252
 6435TIP3    H219247   0.807   1.288   3.381
 6436TIP3   OH219248   1.929   4.588   0.875
 6436TIP3    H119249   1.865   4.543   0.929
 6436TIP3    H219250   1.927   4.541   0.791
 6437TIP3   OH219251   6.133   5.963   5.790
 6437TIP3    H119252   6.038   5.968   5.799
 6437TIP3    H219253   6.164   5.954   5.880
 6438TIP3   OH219254   3.431   6.743   5.110
 6438TIP3    H119255   3.495   6.672   5.102
 6438TIP3    H219256   3.427   6.782   5.022
 6439TIP3   OH219257   5.011   5.938   0.349
 6439TIP3    H119258   4.944   5.932   0.281
 6439TIP3    H219259   5.088   5.896   0.310
 6440TIP3   OH219260   7.913   0.476   5.929
 6440TIP3    H119261   7.953   0.450   6.012
 6440TIP3    H219262   7.985   0.510   5.877
 6441TIP3   OH219263   7.858   3.735   5.211
 6441TIP3    H119264   7.932   3.767   5.263
 6441TIP3    H219265   7.899   3.701   5.131
 6442TIP3   OH219266   6.589   0.921   4.698
 6442TIP3    H119267   6.636   0.949   4.620
 6442TIP3    H219268   6.577   0.827   4.687
 6443TIP3   OH219269   3.919   1.650   5.789
 6443TIP3    H119270   3.909   1.742   5.814
 6443TIP3    H219271   4.012   1.632   5.804
 6444TIP3   OH219272   6.626   4.045   2.063
 6444TIP3    H119273   6.684   3.998   2.003
 6444TIP3    H219274   6.641   4.003   2.148
 6445TIP3   OH219275   0.126   3.025   2.160
 6445TIP3    H119276   0.067   2.962   2.118
 6445TIP3    H219277   0.169   3.069   2.087
 6446TIP3   OH219278   3.218   6.773   4.645
 6446TIP3    H119279   3.132   6.781   4.603
 6446TIP3    H219280   3.260   6.858   4.629
 6447TIP3   OH219281   5.175   3.236   3.258
 6447TIP3    H119282   5.236   3.248   3.185
 6447TIP3    H219283   5.221   3.273   3.334
 6448TIP3   OH219284   6.656   0.933   0.896
 6448TIP3    H119285   6.681   0.993   0.825
 6448TIP3    H219286   6.714   0.858   0.885
 6449TIP3   OH219287   4.189   1.242   2.865
 6449TIP3    H119288   4.095   1.256   2.878
 6449TIP3    H219289   4.226   1.330   2.858
 6450TIP3   OH219290   7.473   4.259   2.487
 6450TIP3    H119291   7.426   4.323   2.541
 6450TIP3    H219292   7.564   4.265   2.516
 6451TIP3   OH219293   2.348   4.907   2.309
 6451TIP3    H119294   2.280   4.970   2.286
 6451TIP3    H219295   2.362   4.920   2.403
 6452TIP3   OH219296   1.824   0.131   2.586
 6452TIP3    H119297   1.890   0.065   2.609
 6452TIP3    H219298   1.765   0.133   2.661
 6453TIP3   OH219299   7.228   0.804   5.020
 6453TIP3    H119300   7.240   0.753   4.939
 6453TIP3    H219301   7.170   0.876   4.995
 6454TIP3   OH219302   5.213   0.120   3.083
 6454TIP3    H119303   5.232   0.027   3.069
 6454TIP3    H219304   5.272   0.146   3.153
 6455TIP3   OH219305   0.441   4.795   0.334
 6455TIP3    H119306   0.528   4.758   0.347
 6455TIP3    H219307   0.385   4.719   0.321
 6456TIP3   OH219308   8.390   3.118   2.398
 6456TIP3    H119309   8.411   3.054   2.330
 6456TIP3    H219310   8.457   3.104   2.466
 6457TIP3   OH219311   1.635   3.574   4.129
 6457TIP3    H119312   1.719   3.536   4.105
 6457TIP3    H219313   1.587   3.503   4.172
 6458TIP3   OH219314   5.244   4.842   1.963
 6458TIP3    H119315   5.283   4.763   1.926
 6458TIP3    H219316   5.157   4.815   1.992
 6459TIP3   OH219317   2.147   3.421   4.220
 6459TIP3    H119318   2.099   3.433   4.303
 6459TIP3    H219319   2.222   3.480   4.228
 6460TIP3   OH219320   5.839   2.977   3.301
 6460TIP3    H119321   5.820   2.918   3.374
 6460TIP3    H219322   5.909   3.034   3.334
 6461TIP3   OH219323   6.935   3.755   2.839
 6461TIP3    H119324   6.853   3.749   2.888
 6461TIP3    H219325   6.923   3.697   2.764
 6462TIP3   OH219326   3.655   4.236   5.406
 6462TIP3    H119327   3.694   4.231   5.318
 6462TIP3    H219328   3.683   4.321   5.440
 6463TIP3   OH219329   3.410   5.347   4.936
 6463TIP3    H119330   3.459   5.397   4.870
 6463TIP3    H219331   3.455   5.263   4.940
 6464TIP3   OH219332   8.108   0.509   0.030
 6464TIP3    H119333   8.158   0.428   0.017
 6464TIP3    H219334   8.171   0.571   0.065
 6465TIP3   OH219335   2.885   0.374   5.783
 6465TIP3    H119336   2.824   0.320   5.833
 6465TIP3    H219337   2.855   0.464   5.798
 6466TIP3   OH219338   5.959   0.009   5.491
 6466TIP3    H119339   5.871   0.038   5.517
 6466TIP3    H219340   5.994   0.081   5.438
 6467TIP3   OH219341   8.130   5.581   5.614
 6467TIP3    H119342   8.210   5.539   5.643
 6467TIP3    H219343   8.134   5.669   5.652
 6468TIP3   OH219344   7.117   0.702   1.580
 6468TIP3    H119345   7.044   0.640   1.584
 6468TIP3    H219346   7.192   0.649   1.553
 6469TIP3   OH219347   7.715   4.008   2.946
 6469TIP3    H119348   7.757   4.092   2.967
 6469TIP3    H219349   7.627   4.031   2.918
 6470TIP3   OH219350   7.369   1.659   5.408
 6470TIP3    H119351   7.284   1.659   5.451
 6470TIP3    H219352   7.378   1.748   5.374
 6471TIP3   OH219353   1.224   7.111   2.322
 6471TIP3    H119354   1.274   7.187   2.353
 6471TIP3    H219355   1.252   7.099   2.231
 6472TIP3   OH219356   4.814   6.835   1.651
 6472TIP3    H119357   4.730   6.839   1.696
 6472TIP3    H219358   4.874   6.884   1.707
 6473TIP3   OH219359   4.272   2.612   4.578
 6473TIP3    H119360   4.338   2.640   4.642
 6473TIP3    H219361   4.323   2.579   4.504
 6474TIP3   OH219362   3.628   7.661   4.386
 6474TIP3    H119363   3.698   7.692   4.330
 6474TIP3    H219364   3.559   7.633   4.326
 6475TIP3   OH219365   4.700   7.195   4.967
 6475TIP3    H119366   4.784   7.151   4.951
 6475TIP3    H219367   4.680   7.239   4.885
 6476TIP3   OH219368   3.139   3.793   3.844
 6476TIP3    H119369   3.078   3.853   3.887
 6476TIP3    H219370   3.224   3.834   3.855
 6477TIP3   OH219371   0.956   1.681   6.645
 6477TIP3    H119372   0.968   1.586   6.642
 6477TIP3    H219373   1.044   1.716   6.650
 6478TIP3   OH219374   6.914   4.017   3.895
 6478TIP3    H119375   6.855   4.035   3.821
 6478TIP3    H219376   6.939   4.103   3.927
 6479TIP3   OH219377   7.652   1.074   2.219
 6479TIP3    H119378   7.746   1.085   2.207
 6479TIP3    H219379   7.612   1.111   2.140
 6480TIP3   OH219380   3.546   2.740   0.034
 6480TIP3    H119381   3.595   2.693  -0.034
 6480TIP3    H219382   3.491   2.674   0.075
 6481TIP3   OH219383   2.223   2.534   2.750
 6481TIP3    H119384   2.273   2.614   2.766
 6481TIP3    H219385   2.143   2.563   2.707
 6482TIP3   OH219386   5.248   3.576   3.193
 6482TIP3    H119387   5.321   3.517   3.208
 6482TIP3    H219388   5.274   3.629   3.117
 6483TIP3   OH219389   6.176   3.540   4.186
 6483TIP3    H119390   6.154   3.475   4.119
 6483TIP3    H219391   6.201   3.618   4.137
 6484TIP3   OH219392   5.168   5.640   2.449
 6484TIP3    H119393   5.146   5.566   2.391
 6484TIP3    H219394   5.252   5.616   2.487
 6485TIP3   OH219395   2.369   6.565   6.805
 6485TIP3    H119396   2.419   6.640   6.773
 6485TIP3    H219397   2.412   6.489   6.766
 6486TIP3   OH219398   0.374   1.065  -0.028
 6486TIP3    H119399   0.326   1.137  -0.069
 6486TIP3    H219400   0.375   1.087   0.065
 6487TIP3   OH219401   1.470   5.420   1.370
 6487TIP3    H119402   1.444   5.352   1.432
 6487TIP3    H219403   1.463   5.380   1.284
 6488TIP3   OH219404   6.560   1.354   1.390
 6488TIP3    H119405   6.648   1.343   1.426
 6488TIP3    H219406   6.502   1.336   1.464
 6489TIP3   OH219407   7.891   3.320   2.586
 6489TIP3    H119408   7.951   3.366   2.526
 6489TIP3    H219409   7.947   3.262   2.637
 6490TIP3   OH219410   3.177   1.777   2.122
 6490TIP3    H119411   3.231   1.698   2.125
 6490TIP3    H219412   3.130   1.771   2.039
 6491TIP3   OH219413   3.909   5.781   0.376
 6491TIP3    H119414   3.926   5.737   0.292
 6491TIP3    H219415   3.820   5.814   0.369
 6492TIP3   OH219416   5.852   2.836   5.624
 6492TIP3    H119417   5.880   2.893   5.695
 6492TIP3    H219418   5.932   2.789   5.598
 6493TIP3   OH219419   8.275   4.826   0.440
 6493TIP3    H119420   8.316   4.742   0.422
 6493TIP3    H219421   8.327   4.863   0.512
 6494TIP3   OH219422   2.221   2.055   3.820
 6494TIP3    H119423   2.178   2.036   3.903
 6494TIP3    H219424   2.231   2.150   3.819
 6495TIP3   OH219425   7.862   0.643   6.722
 6495TIP3    H119426   7.827   0.567   6.675
 6495TIP3    H219427   7.929   0.679   6.664
 6496TIP3   OH219428   5.456   1.168   5.748
 6496TIP3    H119429   5.406   1.099   5.790
 6496TIP3    H219430   5.547   1.139   5.753
 6497TIP3   OH219431   3.323   2.617   6.487
 6497TIP3    H119432   3.356   2.535   6.452
 6497TIP3    H219433   3.239   2.630   6.443
 6498TIP3   OH219434   6.521   7.438   6.753
 6498TIP3    H119435   6.458   7.410   6.688
 6498TIP3    H219436   6.468   7.462   6.829
 6499TIP3   OH219437   4.336   2.143   0.960
 6499TIP3    H119438   4.256   2.114   0.915
 6499TIP3    H219439   4.321   2.123   1.052
 6500TIP3   OH219440   6.324   6.790   0.644
 6500TIP3    H119441   6.311   6.698   0.620
 6500TIP3    H219442   6.285   6.798   0.731
 6501TIP3   OH219443   7.286   6.228   0.689
 6501TIP3    H119444   7.233   6.157   0.652
 6501TIP3    H219445   7.330   6.189   0.764
 6502TIP3   OH219446   4.348   4.877   6.477
 6502TIP3    H119447   4.427   4.930   6.491
 6502TIP3    H219448   4.380   4.798   6.435
 6503TIP3   OH219449   1.966   6.484   1.532
 6503TIP3    H119450   1.880   6.491   1.574
 6503TIP3    H219451   2.024   6.536   1.588
 6504TIP3   OH219452   4.322   7.850   3.474
 6504TIP3    H119453   4.316   7.843   3.378
 6504TIP3    H219454   4.415   7.843   3.493
 6505TIP3   OH219455   7.446   5.609   4.210
 6505TIP3    H119456   7.438   5.696   4.172
 6505TIP3    H219457   7.515   5.567   4.159
 6506TIP3   OH219458   6.291   5.965   3.359
 6506TIP3    H119459   6.261   5.905   3.290
 6506TIP3    H219460   6.386   5.952   3.362
 6507TIP3   OH219461   1.398   5.013   1.285
 6507TIP3    H119462   1.323   4.992   1.229
 6507TIP3    H219463   1.435   4.928   1.309
 6508TIP3   OH219464   5.701   6.375   6.364
 6508TIP3    H119465   5.613   6.357   6.330
 6508TIP3    H219466   5.715   6.308   6.431
 6509TIP3   OH219467   8.185   2.756   6.064
 6509TIP3    H119468   8.156   2.836   6.107
 6509TIP3    H219469   8.192   2.779   5.972
 6510TIP3   OH219470   4.987   4.885   0.284
 6510TIP3    H119471   5.081   4.870   0.274
 6510TIP3    H219472   4.962   4.933   0.205
 6511TIP3   OH219473   1.201   6.021   0.083
 6511TIP3    H119474   1.187   6.096   0.141
 6511TIP3    H219475   1.295   6.021   0.066
 6512TIP3   OH219476   8.229   1.992   5.581
 6512TIP3    H119477   8.232   1.938   5.502
 6512TIP3    H219478   8.184   2.072   5.554
 6513TIP3   OH219479   8.380   3.299   5.720
 6513TIP3    H119480   8.409   3.220   5.673
 6513TIP3    H219481   8.297   3.322   5.679
 6514TIP3   OH219482   0.778   7.091   1.581
 6514TIP3    H119483   0.869   7.117   1.568
 6514TIP3    H219484   0.738   7.097   1.494
 6515TIP3   OH219485   6.370   4.025   5.354
 6515TIP3    H119486   6.412   3.945   5.322
 6515TIP3    H219487   6.441   4.089   5.357
 6516TIP3   OH219488   4.952   4.284   0.930
 6516TIP3    H119489   5.004   4.332   0.995
 6516TIP3    H219490   4.861   4.296   0.958
 6517TIP3   OH219491   4.088   6.546   1.898
 6517TIP3    H119492   4.110   6.575   1.986
 6517TIP3    H219493   4.104   6.451   1.900
 6518TIP3   OH219494   5.787   7.626   0.256
 6518TIP3    H119495   5.812   7.643   0.165
 6518TIP3    H219496   5.749   7.538   0.255
 6519TIP3   OH219497   6.756   3.309   2.651
 6519TIP3    H119498   6.747   3.340   2.741
 6519TIP3    H219499   6.776   3.215   2.659
 6520TIP3   OH219500   3.310  -0.011   0.350
 6520TIP3    H119501   3.225   0.021   0.380
 6520TIP3    H219502   3.341   0.057   0.290
 6521TIP3   OH219503   0.932   6.853   6.062
 6521TIP3    H119504   1.011   6.840   6.114
 6521TIP3    H219505   0.869   6.791   6.099
 6522TIP3   OH219506   3.099   2.398   0.223
 6522TIP3    H119507   3.047   2.421   0.146
 6522TIP3    H219508   3.035   2.369   0.288
 6523TIP3   OH219509   3.256   4.751   2.100
 6523TIP3    H119510   3.240   4.720   2.189
 6523TIP3    H219511   3.198   4.826   2.089
 6524TIP3   OH219512   2.128   0.227   3.288
 6524TIP3    H119513   2.134   0.293   3.358
 6524TIP3    H219514   2.205   0.243   3.234
 6525TIP3   OH219515   0.742   0.021   2.044
 6525TIP3    H119516   0.700   0.027   1.958
 6525TIP3    H219517   0.731  -0.070   2.070
 6526TIP3   OH219518   3.847   1.679   0.985
 6526TIP3    H119519   3.792   1.757   0.977
 6526TIP3    H219520   3.882   1.665   0.896
 6527TIP3   OH219521   3.338   0.966   1.015
 6527TIP3    H119522   3.275   1.016   1.067
 6527TIP3    H219523   3.319   0.874   1.036
 6528TIP3   OH219524   7.037   7.870   0.480
 6528TIP3    H119525   7.030   7.877   0.384
 6528TIP3    H219526   7.074   7.783   0.495
 6529TIP3   OH219527   4.988   3.987   2.110
 6529TIP3    H119528   4.903   3.945   2.116
 6529TIP3    H219529   5.043   3.923   2.065
 6530TIP3   OH219530   0.768   7.716   2.530
 6530TIP3    H119531   0.738   7.640   2.579
 6530TIP3    H219532   0.721   7.712   2.447
 6531TIP3   OH219533   2.651   0.916   4.507
 6531TIP3    H119534   2.612   0.829   4.512
 6531TIP3    H219535   2.667   0.941   4.598
 6532TIP3   OH219536   1.815   7.441   6.596
 6532TIP3    H119537   1.741   7.459   6.537
 6532TIP3    H219538   1.893   7.452   6.541
 6533TIP3   OH219539   6.559   6.636   5.259
 6533TIP3    H119540   6.510   6.718   5.272
 6533TIP3    H219541   6.503   6.584   5.201
 6534TIP3   OH219542   4.188   1.016   5.029
 6534TIP3    H119543   4.263   0.956   5.021
 6534TIP3    H219544   4.215   1.095   4.983
 6535TIP3   OH219545   6.218   2.950   5.752
 6535TIP3    H119546   6.278   3.007   5.801
 6535TIP3    H219547   6.132   2.990   5.763
 6536TIP3   OH219548   0.626   6.127   4.213
 6536TIP3    H119549   0.534   6.107   4.197
 6536TIP3    H219550   0.673   6.069   4.154
 6537TIP3   OH219551   6.143   3.955   0.965
 6537TIP3    H119552   6.052   3.960   0.996
 6537TIP3    H219553   6.155   3.863   0.940
 6538TIP3   OH219554   1.826   3.341   0.349
 6538TIP3    H119555   1.813   3.261   0.298
 6538TIP3    H219556   1.901   3.384   0.308
 6539TIP3   OH219557   7.263   3.842   4.037
 6539TIP3    H119558   7.248   3.936   4.048
 6539TIP3    H219559   7.330   3.821   4.101
 6540TIP3   OH219560   7.792   0.106   5.067
 6540TIP3    H119561   7.782   0.154   5.149
 6540TIP3    H219562   7.747   0.022   5.082
 6541TIP3   OH219563   5.608   5.657   1.677
 6541TIP3    H119564   5.688   5.687   1.720
 6541TIP3    H219565   5.637   5.619   1.594
 6542TIP3   OH219566   4.418   4.674   4.046
 6542TIP3    H119567   4.364   4.624   3.985
 6542TIP3    H219568   4.501   4.627   4.049
 6543TIP3   OH219569   4.119   0.357   2.553
 6543TIP3    H119570   4.203   0.311   2.549
 6543TIP3    H219571   4.066   0.305   2.612
 6544TIP3   OH219572   5.141   4.336   4.595
 6544TIP3    H119573   5.090   4.255   4.592
 6544TIP3    H219574   5.089   4.400   4.547
 6545TIP3   OH219575   0.935   5.192  -0.024
 6545TIP3    H119576   0.936   5.146   0.061
 6545TIP3    H219577   0.926   5.284  -0.001
 6546TIP3   OH219578   2.255   3.537   5.398
 6546TIP3    H119579   2.251   3.626   5.434
 6546TIP3    H219580   2.212   3.482   5.464
 6547TIP3   OH219581   2.800   1.211   1.250
 6547TIP3    H119582   2.768   1.297   1.223
 6547TIP3    H219583   2.813   1.218   1.344
 6548TIP3   OH219584   7.813   7.658   3.553
 6548TIP3    H119585   7.749   7.689   3.617
 6548TIP3    H219586   7.820   7.729   3.489
 6549TIP3   OH219587   5.447   3.641   0.330
 6549TIP3    H119588   5.509   3.713   0.340
 6549TIP3    H219589   5.443   3.601   0.417
 6550TIP3   OH219590   8.037   7.034   2.777
 6550TIP3    H119591   8.016   7.084   2.698
 6550TIP3    H219592   8.100   6.968   2.748
 6551TIP3   OH219593   3.934   6.834   1.946
 6551TIP3    H119594   3.989   6.831   1.868
 6551TIP3    H219595   3.990   6.873   2.014
 6552TIP3   OH219596   7.294   0.337   4.228
 6552TIP3    H119597   7.310   0.422   4.267
 6552TIP3    H219598   7.249   0.287   4.296
 6553TIP3   OH219599   5.374   2.370   6.782
 6553TIP3    H119600   5.381   2.276   6.770
 6553TIP3    H219601   5.298   2.395   6.730
 6554TIP3   OH219602   7.179   3.470   6.405
 6554TIP3    H119603   7.085   3.487   6.409
 6554TIP3    H219604   7.214   3.513   6.483
 6555TIP3   OH219605   7.138   3.883   3.771
 6555TIP3    H119606   7.180   3.851   3.851
 6555TIP3    H219607   7.077   3.951   3.802
 6556TIP3   OH219608   4.886   0.261   2.565
 6556TIP3    H119609   4.973   0.301   2.559
 6556TIP3    H219610   4.860   0.275   2.656
 6557TIP3   OH219611   5.396   6.790   5.296
 6557TIP3    H119612   5.385   6.802   5.390
 6557TIP3    H219613   5.479   6.833   5.276
 6558TIP3   OH219614   0.635   1.236   0.439
 6558TIP3    H119615   0.728   1.229   0.458
 6558TIP3    H219616   0.609   1.321   0.473
 6559TIP3   OH219617   2.610   2.235   0.401
 6559TIP3    H119618   2.650   2.301   0.458
 6559TIP3    H219619   2.683   2.184   0.368
 6560TIP3   OH219620   7.538   4.394   3.478
 6560TIP3    H119621   7.633   4.402   3.469
 6560TIP3    H219622   7.523   4.300   3.486
 6561TIP3   OH219623   6.116   1.574   4.355
 6561TIP3    H119624   6.202   1.582   4.313
 6561TIP3    H219625   6.134   1.536   4.440
 6562TIP3   OH219626   3.202   6.359   4.804
 6562TIP3    H119627   3.239   6.373   4.891
 6562TIP3    H219628   3.116   6.403   4.807
 6563TIP3   OH219629   4.101   3.328   1.505
 6563TIP3    H119630   4.105   3.287   1.418
 6563TIP3    H219631   4.153   3.270   1.561
 6564TIP3   OH219632   7.892   0.394   4.496
 6564TIP3    H119633   7.803   0.371   4.468
 6564TIP3    H219634   7.949   0.344   4.438
 6565TIP3   OH219635   4.028   4.325   1.205
 6565TIP3    H119636   3.995   4.394   1.263
 6565TIP3    H219637   3.973   4.330   1.127
 6566TIP3   OH219638   0.390   5.301   3.855
 6566TIP3    H119639   0.415   5.305   3.763
 6566TIP3    H219640   0.430   5.220   3.887
 6567TIP3   OH219641   5.719   7.871   4.787
 6567TIP3    H119642   5.719   7.965   4.769
 6567TIP3    H219643   5.723   7.831   4.700
 6568TIP3   OH219644   2.749   1.156   0.667
 6568TIP3    H119645   2.747   1.198   0.753
 6568TIP3    H219646   2.670   1.189   0.623
 6569TIP3   OH219647   6.615   7.111   3.000
 6569TIP3    H119648   6.561   7.169   3.053
 6569TIP3    H219649   6.584   7.124   2.910
 6570TIP3   OH219650   0.240   0.545   4.712
 6570TIP3    H119651   0.238   0.529   4.618
 6570TIP3    H219652   0.283   0.630   4.721
 6571TIP3   OH219653   3.908   1.185   6.063
 6571TIP3    H119654   3.844   1.252   6.088
 6571TIP3    H219655   3.899   1.177   5.968
 6572TIP3   OH219656   0.770   1.828   0.995
 6572TIP3    H119657   0.709   1.900   1.012
 6572TIP3    H219658   0.788   1.790   1.081
 6573TIP3   OH219659   5.073   3.014   4.941
 6573TIP3    H119660   5.117   3.099   4.935
 6573TIP3    H219661   5.033   3.013   5.028
 6574TIP3   OH219662   3.079   3.183   0.243
 6574TIP3    H119663   3.044   3.264   0.281
 6574TIP3    H219664   3.091   3.204   0.151
 6575TIP3   OH219665   2.017   1.778   2.551
 6575TIP3    H119666   1.962   1.838   2.601
 6575TIP3    H219667   2.077   1.742   2.616
 6576TIP3   OH219668   4.737   4.300   2.676
 6576TIP3    H119669   4.666   4.235   2.676
 6576TIP3    H219670   4.783   4.285   2.593
 6577TIP3   OH219671   0.811   7.186   0.421
 6577TIP3    H119672   0.722   7.204   0.453
 6577TIP3    H219673   0.813   7.091   0.410
 6578TIP3   OH219674   4.270   2.533   3.232
 6578TIP3    H119675   4.213   2.609   3.246
 6578TIP3    H219676   4.266   2.486   3.315
 6579TIP3   OH219677   1.337   0.223   6.586
 6579TIP3    H119678   1.320   0.300   6.639
 6579TIP3    H219679   1.273   0.228   6.515
 6580TIP3   OH219680   3.688   1.373   3.136
 6580TIP3    H119681   3.764   1.353   3.191
 6580TIP3    H219682   3.725   1.384   3.048
 6581TIP3   OH219683   3.048   0.587   2.989
 6581TIP3    H119684   3.041   0.509   3.044
 6581TIP3    H219685   3.034   0.555   2.900
 6582TIP3   OH219686   1.210   0.422   5.607
 6582TIP3    H119687   1.258   0.446   5.687
 6582TIP3    H219688   1.118   0.424   5.634
 6583TIP3   OH219689   0.726   7.039   4.486
 6583TIP3    H119690   0.695   7.001   4.404
 6583TIP3    H219691   0.697   7.130   4.483
 6584TIP3   OH219692   0.773   2.401   3.763
 6584TIP3    H119693   0.845   2.361   3.714
 6584TIP3    H219694   0.695   2.376   3.713
 6585TIP3   OH219695   6.274   4.859   5.093
 6585TIP3    H119696   6.265   4.953   5.081
 6585TIP3    H219697   6.295   4.849   5.186
 6586TIP3   OH219698   8.341   7.180   5.627
 6586TIP3    H119699   8.305   7.104   5.581
 6586TIP3    H219700   8.301   7.256   5.585
 6587TIP3   OH219701   5.515   1.335   5.460
 6587TIP3    H119702   5.431   1.290   5.474
 6587TIP3    H219703   5.564   1.319   5.540
 6588TIP3   OH219704   0.484   1.570   1.091
 6588TIP3    H119705   0.514   1.507   1.025
 6588TIP3    H219706   0.510   1.531   1.175
 6589TIP3   OH219707   3.959   3.564   1.514
 6589TIP3    H119708   4.013   3.490   1.540
 6589TIP3    H219709   3.886   3.525   1.466
 6590TIP3   OH219710   2.337   1.413   5.025
 6590TIP3    H119711   2.368   1.458   5.104
 6590TIP3    H219712   2.392   1.336   5.018
 6591TIP3   OH219713   4.374   1.354   6.799
 6591TIP3    H119714   4.294   1.303   6.787
 6591TIP3    H219715   4.387   1.398   6.715
 6592TIP3   OH219716   1.752   1.854   3.995
 6592TIP3    H119717   1.736   1.924   3.932
 6592TIP3    H219718   1.695   1.782   3.966
 6593TIP3   OH219719   7.513   4.642   3.390
 6593TIP3    H119720   7.606   4.662   3.386
 6593TIP3    H219721   7.508   4.547   3.379
 6594TIP3   OH219722   0.346   0.450   5.837
 6594TIP3    H119723   0.407   0.378   5.853
 6594TIP3    H219724   0.369   0.516   5.902
 6595TIP3   OH219725   4.252   3.937   6.648
 6595TIP3    H119726   4.258   3.941   6.552
 6595TIP3    H219727   4.159   3.918   6.665
 6596TIP3   OH219728   7.857   2.053   5.891
 6596TIP3    H119729   7.833   2.043   5.983
 6596TIP3    H219730   7.950   2.031   5.887
 6597TIP3   OH219731   4.222   4.370   2.931
 6597TIP3    H119732   4.316   4.359   2.923
 6597TIP3    H219733   4.190   4.288   2.969
 6598TIP3   OH219734   5.757   6.727   1.597
 6598TIP3    H119735   5.754   6.683   1.512
 6598TIP3    H219736   5.850   6.742   1.613
 6599TIP3   OH219737   4.949   5.673   1.835
 6599TIP3    H119738   4.971   5.731   1.762
 6599TIP3    H219739   5.021   5.684   1.897
 6600TIP3   OH219740   2.489   1.960   0.130
 6600TIP3    H119741   2.459   1.869   0.131
 6600TIP3    H219742   2.553   1.964   0.060
 6601TIP3   OH219743   3.373   3.874   0.737
 6601TIP3    H119744   3.417   3.831   0.663
 6601TIP3    H219745   3.445   3.912   0.788
 6602TIP3   OH219746   8.006   4.295   3.834
 6602TIP3    H119747   8.074   4.326   3.894
 6602TIP3    H219748   8.026   4.202   3.823
 6603TIP3   OH219749   7.432   6.706   5.380
 6603TIP3    H119750   7.350   6.742   5.346
 6603TIP3    H219751   7.410   6.673   5.466
 6604TIP3   OH219752   6.109   7.062   1.015
 6604TIP3    H119753   6.093   7.086   1.106
 6604TIP3    H219754   6.144   6.973   1.019
 6605TIP3   OH219755   1.927   3.599   2.023
 6605TIP3    H119756   1.965   3.621   2.108
 6605TIP3    H219757   1.970   3.659   1.961
 6606TIP3   OH219758   6.870   0.501   1.231
 6606TIP3    H119759   6.964   0.488   1.221
 6606TIP3    H219760   6.847   0.450   1.309
 6607TIP3   OH219761   5.129   7.081   2.621
 6607TIP3    H119762   5.198   7.114   2.563
 6607TIP3    H219763   5.121   7.149   2.688
 6608TIP3   OH219764   3.898   3.425   6.424
 6608TIP3    H119765   3.949   3.398   6.501
 6608TIP3    H219766   3.862   3.343   6.389
 6609TIP3   OH219767   3.204   7.136   1.640
 6609TIP3    H119768   3.268   7.190   1.687
 6609TIP3    H219769   3.143   7.198   1.602
 6610TIP3   OH219770   6.287   0.092   1.185
 6610TIP3    H119771   6.194   0.085   1.204
 6610TIP3    H219772   6.292   0.145   1.105
 6611TIP3   OH219773   3.627   5.480   4.788
 6611TIP3    H119774   3.675   5.436   4.859
 6611TIP3    H219775   3.632   5.419   4.715
 6612TIP3   OH219776   3.338   7.385   2.381
 6612TIP3    H119777   3.412   7.429   2.424
 6612TIP3    H219778   3.281   7.358   2.453
 6613TIP3   OH219779   7.142   1.338   5.849
 6613TIP3    H119780   7.229   1.373   5.835
 6613TIP3    H219781   7.128   1.346   5.944
 6614TIP3   OH219782   4.356   5.126   1.970
 6614TIP3    H119783   4.374   5.117   1.877
 6614TIP3    H219784   4.386   5.214   1.992
 6615TIP3   OH219785   7.401   5.432   6.081
 6615TIP3    H119786   7.473   5.396   6.132
 6615TIP3    H219787   7.337   5.361   6.076
 6616TIP3   OH219788   5.351   6.818   0.794
 6616TIP3    H119789   5.389   6.879   0.857
 6616TIP3    H219790   5.260   6.809   0.820
 6617TIP3   OH219791   0.100   0.144   2.356
 6617TIP3    H119792   0.144   0.092   2.289
 6617TIP3    H219793   0.028   0.087   2.385
 6618TIP3   OH219794   8.220   4.439   6.000
 6618TIP3    H119795   8.231   4.532   5.980
 6618TIP3    H219796   8.230   4.433   6.095
 6619TIP3   OH219797   8.077   6.530   0.258
 6619TIP3    H119798   8.126   6.448   0.249
 6619TIP3    H219799   8.123   6.578   0.327
 6620TIP3   OH219800   0.668   0.080   0.784
 6620TIP3    H119801   0.760   0.061   0.763
 6620TIP3    H219802   0.671   0.165   0.829
 6621TIP3   OH219803   1.270   6.904   1.686
 6621TIP3    H119804   1.284   6.831   1.747
 6621TIP3    H219805   1.216   6.965   1.736
 6622TIP3   OH219806   2.945   5.433   1.718
 6622TIP3    H119807   3.037   5.452   1.736
 6622TIP3    H219808   2.903   5.519   1.716
 6623TIP3   OH219809   3.575   6.770   2.552
 6623TIP3    H119810   3.490   6.785   2.594
 6623TIP3    H219811   3.638   6.808   2.613
 6624TIP3   OH219812   5.850   3.451   5.302
 6624TIP3    H119813   5.934   3.427   5.342
 6624TIP3    H219814   5.865   3.538   5.266
 6625TIP3   OH219815   1.565   0.429   3.106
 6625TIP3    H119816   1.656   0.413   3.083
 6625TIP3    H219817   1.553   0.381   3.189
 6626TIP3   OH219818   5.911   7.535   6.155
 6626TIP3    H119819   5.996   7.540   6.198
 6626TIP3    H219820   5.875   7.623   6.162
 6627TIP3   OH219821   6.966   4.156   3.025
 6627TIP3    H119822   6.945   4.248   3.008
 6627TIP3    H219823   7.016   4.158   3.107
 6628TIP3   OH219824   6.054   0.353   4.804
 6628TIP3    H119825   5.981   0.404   4.839
 6628TIP3    H219826   6.116   0.348   4.877
 6629TIP3   OH219827   7.963   2.872   1.595
 6629TIP3    H119828   8.041   2.852   1.543
 6629TIP3    H219829   7.985   2.953   1.640
 6630TIP3   OH219830   0.320   5.564   0.140
 6630TIP3    H119831   0.361   5.480   0.158
 6630TIP3    H219832   0.351   5.622   0.210
 6631TIP3   OH219833   6.844   5.791   4.610
 6631TIP3    H119834   6.874   5.820   4.696
 6631TIP3    H219835   6.923   5.761   4.566
 6632TIP3   OH219836   2.239   4.570   0.478
 6632TIP3    H119837   2.193   4.652   0.495
 6632TIP3    H219838   2.195   4.532   0.402
 6633TIP3   OH219839   1.103   2.667   6.015
 6633TIP3    H119840   1.035   2.630   5.959
 6633TIP3    H219841   1.171   2.600   6.016
 6634TIP3   OH219842   4.768   2.039   2.374
 6634TIP3    H119843   4.745   2.069   2.462
 6634TIP3    H219844   4.733   2.106   2.315
 6635TIP3   OH219845   3.772   4.534   4.497
 6635TIP3    H119846   3.686   4.557   4.533
 6635TIP3    H219847   3.778   4.439   4.508
 6636TIP3   OH219848   3.346   1.268   1.489
 6636TIP3    H119849   3.300   1.349   1.466
 6636TIP3    H219850   3.386   1.286   1.574
 6637TIP3   OH219851   3.662   3.214   2.151
 6637TIP3    H119852   3.722   3.140   2.147
 6637TIP3    H219853   3.656   3.245   2.060
 6638TIP3   OH219854   8.068   2.295   6.053
 6638TIP3    H119855   8.020   2.360   6.103
 6638TIP3    H219856   8.132   2.260   6.115
 6639TIP3   OH219857   6.505   5.034   5.197
 6639TIP3    H119858   6.575   5.079   5.245
 6639TIP3    H219859   6.494   4.951   5.243
 6640TIP3   OH219860   1.929   6.826   3.734
 6640TIP3    H119861   1.935   6.735   3.705
 6640TIP3    H219862   1.981   6.829   3.814
 6641TIP3   OH219863   1.572   1.442   1.794
 6641TIP3    H119864   1.535   1.509   1.738
 6641TIP3    H219865   1.513   1.439   1.870
 6642TIP3   OH219866   8.217   4.106   6.077
 6642TIP3    H119867   8.137   4.142   6.039
 6642TIP3    H219868   8.286   4.132   6.016
 6643TIP3   OH219869   4.509   1.625   0.656
 6643TIP3    H119870   4.461   1.706   0.671
 6643TIP3    H219871   4.583   1.629   0.717
 6644TIP3   OH219872   7.611   0.242   4.462
 6644TIP3    H119873   7.571   0.288   4.388
 6644TIP3    H219874   7.673   0.182   4.421
 6645TIP3   OH219875   1.497   5.067   2.715
 6645TIP3    H119876   1.512   5.159   2.695
 6645TIP3    H219877   1.580   5.024   2.697
 6646TIP3   OH219878   1.412   4.153   4.459
 6646TIP3    H119879   1.478   4.219   4.478
 6646TIP3    H219880   1.428   4.084   4.524
 6647TIP3   OH219881   1.859   1.612   1.938
 6647TIP3    H119882   1.898   1.665   2.007
 6647TIP3    H219883   1.765   1.620   1.952
 6648TIP3   OH219884   4.799   4.735   0.426
 6648TIP3    H119885   4.716   4.782   0.420
 6648TIP3    H219886   4.855   4.778   0.361
 6649TIP3   OH219887   1.645   5.427   5.424
 6649TIP3    H119888   1.684   5.465   5.503
 6649TIP3    H219889   1.668   5.334   5.428
 6650TIP3   OH219890   5.530   3.949   0.595
 6650TIP3    H119891   5.465   4.011   0.564
 6650TIP3    H219892   5.606   3.963   0.538
 6651TIP3   OH219893   2.366   2.501   6.626
 6651TIP3    H119894   2.342   2.434   6.691
 6651TIP3    H219895   2.449   2.536   6.658
 6652TIP3   OH219896   2.619   6.386   3.558
 6652TIP3    H119897   2.695   6.348   3.514
 6652TIP3    H219898   2.604   6.330   3.634
 6653TIP3   OH219899   5.959   2.113   0.041
 6653TIP3    H119900   5.994   2.078  -0.041
 6653TIP3    H219901   5.999   2.061   0.109
 6654TIP3   OH219902   0.642   0.103   6.420
 6654TIP3    H119903   0.611   0.022   6.461
 6654TIP3    H219904   0.727   0.080   6.383
 6655TIP3   OH219905   7.081   5.073   0.633
 6655TIP3    H119906   7.130   4.999   0.596
 6655TIP3    H219907   7.001   5.078   0.581
 6656TIP3   OH219908   7.076   7.202   3.622
 6656TIP3    H119909   7.061   7.295   3.638
 6656TIP3    H219910   7.031   7.157   3.692
 6657TIP3   OH219911   4.919   1.218   0.672
 6657TIP3    H119912   4.924   1.137   0.724
 6657TIP3    H219913   4.978   1.203   0.598
 6658TIP3   OH219914   0.034   1.312   1.505
 6658TIP3    H119915  -0.018   1.392   1.502
 6658TIP3    H219916   0.099   1.328   1.574
 6659TIP3   OH219917   8.328   6.778   0.272
 6659TIP3    H119918   8.309   6.780   0.178
 6659TIP3    H219919   8.343   6.870   0.295
 6660TIP3   OH219920   5.386   0.490   1.533
 6660TIP3    H119921   5.453   0.540   1.579
 6660TIP3    H219922   5.314   0.484   1.596
 6661TIP3   OH219923   2.078   2.593   1.126
 6661TIP3    H119924   2.146   2.542   1.171
 6661TIP3    H219925   2.038   2.532   1.065
 6662TIP3   OH219926   0.411   3.501   6.761
 6662TIP3    H119927   0.447   3.584   6.730
 6662TIP3    H219928   0.488   3.445   6.776
 6663TIP3   OH219929   8.170   7.395   2.105
 6663TIP3    H119930   8.165   7.300   2.092
 6663TIP3    H219931   8.089   7.417   2.150
 6664TIP3   OH219932   5.521   1.509   4.781
 6664TIP3    H119933   5.537   1.603   4.776
 6664TIP3    H219934   5.531   1.488   4.874
 6665TIP3   OH219935   2.077   4.770   0.527
 6665TIP3    H119936   2.005   4.786   0.589
 6665TIP3    H219937   2.055   4.825   0.451
 6666TIP3   OH219938   7.828   1.883   2.708
 6666TIP3    H119939   7.903   1.871   2.649
 6666TIP3    H219940   7.760   1.826   2.673
 6667TIP3   OH219941   4.444   5.335   3.674
 6667TIP3    H119942   4.403   5.278   3.609
 6667TIP3    H219943   4.439   5.423   3.636
 6668TIP3   OH219944   1.530   7.628   5.895
 6668TIP3    H119945   1.538   7.696   5.962
 6668TIP3    H219946   1.593   7.654   5.827
 6669TIP3   OH219947   3.098   4.623   3.085
 6669TIP3    H119948   3.170   4.562   3.072
 6669TIP3    H219949   3.126   4.680   3.157
 6670TIP3   OH219950   8.097   4.076   1.277
 6670TIP3    H119951   8.163   4.010   1.255
 6670TIP3    H219952   8.017   4.045   1.235
 6671TIP3   OH219953   2.125   4.651   5.486
 6671TIP3    H119954   2.197   4.589   5.500
 6671TIP3    H219955   2.162   4.719   5.430
 6672TIP3   OH219956   0.831   3.077   0.878
 6672TIP3    H119957   0.754   3.128   0.852
 6672TIP3    H219958   0.795   2.998   0.918
 6673TIP3   OH219959   2.510   5.310   3.247
 6673TIP3    H119960   2.470   5.358   3.320
 6673TIP3    H219961   2.439   5.256   3.211
 6674TIP3   OH219962   3.170   6.169   5.804
 6674TIP3    H119963   3.231   6.176   5.878
 6674TIP3    H219964   3.143   6.259   5.787
 6675TIP3   OH219965   5.243   1.366   2.675
 6675TIP3    H119966   5.180   1.321   2.619
 6675TIP3    H219967   5.189   1.419   2.734
 6676TIP3   OH219968   8.114   1.464   5.740
 6676TIP3    H119969   8.206   1.490   5.744
 6676TIP3    H219970   8.092   1.437   5.829
 6677TIP3   OH219971   5.024   7.007   0.673
 6677TIP3    H119972   4.967   6.956   0.614
 6677TIP3    H219973   4.965   7.072   0.712
 6678TIP3   OH219974   4.728   0.346   1.449
 6678TIP3    H119975   4.679   0.351   1.531
 6678TIP3    H219976   4.819   0.346   1.476
 6679TIP3   OH219977   5.689   6.751   5.574
 6679TIP3    H119978   5.700   6.817   5.643
 6679TIP3    H219979   5.597   6.757   5.550
 6680TIP3   OH219980   1.874   7.724   3.767
 6680TIP3    H119981   1.886   7.696   3.676
 6680TIP3    H219982   1.844   7.646   3.813
 6681TIP3   OH219983   5.910   1.031   0.815
 6681TIP3    H119984   5.975   1.099   0.835
 6681TIP3    H219985   5.901   0.983   0.897
 6682TIP3   OH219986   5.144   5.230   2.463
 6682TIP3    H119987   5.081   5.174   2.509
 6682TIP3    H219988   5.191   5.276   2.533
 6683TIP3   OH219989   7.772   4.048   6.713
 6683TIP3    H119990   7.699   4.019   6.657
 6683TIP3    H219991   7.835   3.976   6.707
 6684TIP3   OH219992   5.432   0.312   0.886
 6684TIP3    H119993   5.383   0.393   0.902
 6684TIP3    H219994   5.482   0.298   0.966
 6685TIP3   OH219995   2.635   2.924   2.203
 6685TIP3    H119996   2.556   2.883   2.167
 6685TIP3    H219997   2.628   2.911   2.297
 6686TIP3   OH219998   0.087   7.255   0.144
 6686TIP3    H119999   0.117   7.168   0.116
 6686TIP3    H220000   0.168   7.305   0.158
 6687TIP3   OH220001   1.373   0.764   2.885
 6687TIP3    H120002   1.298   0.783   2.828
 6687TIP3    H220003   1.411   0.850   2.904
 6688TIP3   OH220004   5.178   3.604   0.159
 6688TIP3    H120005   5.113   3.535   0.173
 6688TIP3    H220006   5.144   3.679   0.208
 6689TIP3   OH220007   5.395   5.270   2.331
 6689TIP3    H120008   5.403   5.340   2.266
 6689TIP3    H220009   5.304   5.275   2.360
 6690TIP3   OH220010   7.372   0.593   1.500
 6690TIP3    H120011   7.417   0.517   1.463
 6690TIP3    H220012   7.437   0.664   1.496
 6691TIP3   OH220013   0.777   7.873   0.271
 6691TIP3    H120014   0.827   7.848   0.349
 6691TIP3    H220015   0.689   7.840   0.287
 6692TIP3   OH220016   3.275   5.688   6.814
 6692TIP3    H120017   3.291   5.611   6.761
 6692TIP3    H220018   3.346   5.688   6.878
 6693TIP3   OH220019   4.637   6.525   6.373
 6693TIP3    H120020   4.558   6.474   6.393
 6693TIP3    H220021   4.705   6.459   6.359
 6694TIP3   OH220022   2.490   1.985   2.643
 6694TIP3    H120023   2.496   2.059   2.583
 6694TIP3    H220024   2.414   1.936   2.613
 6695TIP3   OH220025   4.154   4.555   2.506
 6695TIP3    H120026   4.115   4.554   2.594
 6695TIP3    H220027   4.197   4.470   2.498
 6696TIP3   OH220028   0.894   5.776   1.552
 6696TIP3    H120029   0.817   5.755   1.500
 6696TIP3    H220030   0.860   5.792   1.640
 6697TIP3   OH220031   5.270   0.576   0.532
 6697TIP3    H120032   5.253   0.518   0.606
 6697TIP3    H220033   5.366   0.583   0.530
 6698TIP3   OH220034   5.960   6.326   0.413
 6698TIP3    H120035   6.041   6.313   0.462
 6698TIP3    H220036   5.974   6.408   0.365
 6699TIP3   OH220037   7.959   2.303   3.080
 6699TIP3    H120038   7.911   2.382   3.106
 6699TIP3    H220039   7.956   2.304   2.985
 6700TIP3   OH220040   0.051   7.290   4.207
 6700TIP3    H120041   0.092   7.372   4.231
 6700TIP3    H220042   0.118   7.242   4.158
 6701TIP3   OH220043   1.194   3.674  -0.017
 6701TIP3    H120044   1.123   3.678   0.047
 6701TIP3    H220045   1.273   3.662   0.034
 6702TIP3   OH220046   2.919   3.204   3.119
 6702TIP3    H120047   2.827   3.208   3.091
 6702TIP3    H220048   2.953   3.292   3.102
 6703TIP3   OH220049   5.845   0.359   4.400
 6703TIP3    H120050   5.858   0.295   4.469
 6703TIP3    H220051   5.836   0.443   4.446
 6704TIP3   OH220052   0.329   7.252   2.542
 6704TIP3    H120053   0.406   7.197   2.555
 6704TIP3    H220054   0.287   7.255   2.628
 6705TIP3   OH220055   6.794   5.876   0.478
 6705TIP3    H120056   6.715   5.894   0.529
 6705TIP3    H220057   6.812   5.783   0.494
 6706TIP3   OH220058   8.213   6.292   0.233
 6706TIP3    H120059   8.162   6.237   0.173
 6706TIP3    H220060   8.290   6.239   0.255
 6707TIP3   OH220061   4.693   2.165   5.524
 6707TIP3    H120062   4.751   2.149   5.599
 6707TIP3    H220063   4.739   2.230   5.471
 6708TIP3   OH220064   6.785   4.671   1.835
 6708TIP3    H120065   6.734   4.749   1.855
 6708TIP3    H220066   6.875   4.702   1.826
 6709TIP3   OH220067   5.436   3.115   3.937
 6709TIP3    H120068   5.416   3.050   4.004
 6709TIP3    H220069   5.524   3.144   3.958
 6710TIP3   OH220070   2.408   5.702   6.619
 6710TIP3    H120071   2.385   5.781   6.667
 6710TIP3    H220072   2.480   5.663   6.669
 6711TIP3   OH220073   6.791   5.080   0.861
 6711TIP3    H120074   6.704   5.046   0.840
 6711TIP3    H220075   6.818   5.128   0.783
 6712TIP3   OH220076   4.002   5.682   2.947
 6712TIP3    H120077   4.039   5.665   2.861
 6712TIP3    H220078   3.939   5.612   2.961
 6713TIP3   OH220079   3.253   1.467   1.046
 6713TIP3    H120080   3.195   1.399   1.080
 6713TIP3    H220081   3.200   1.547   1.049
 6714TIP3   OH220082   3.059   7.657   4.929
 6714TIP3    H120083   3.117   7.703   4.868
 6714TIP3    H220084   3.119   7.611   4.988
 6715TIP3   OH220085   2.858   7.531   3.208
 6715TIP3    H120086   2.782   7.493   3.252
 6715TIP3    H220087   2.826   7.551   3.120
 6716TIP3   OH220088   0.164   7.769   2.061
 6716TIP3    H120089   0.209   7.720   2.130
 6716TIP3    H220090   0.072   7.741   2.068
 6717TIP3   OH220091   4.511   4.995   4.552
 6717TIP3    H120092   4.421   5.027   4.548
 6717TIP3    H220093   4.547   5.012   4.465
 6718TIP3   OH220094   4.591   5.722   4.193
 6718TIP3    H120095   4.506   5.753   4.163
 6718TIP3    H220096   4.614   5.782   4.264
 6719TIP3   OH220097   1.441   2.919   0.645
 6719TIP3    H120098   1.402   2.899   0.560
 6719TIP3    H220099   1.386   2.989   0.680
 6720TIP3   OH220100   7.043   4.855   6.353
 6720TIP3    H120101   7.099   4.919   6.397
 6720TIP3    H220102   6.963   4.853   6.406
 6721TIP3   OH220103   2.351   4.169   3.046
 6721TIP3    H120104   2.370   4.081   3.080
 6721TIP3    H220105   2.282   4.154   2.981
 6722TIP3   OH220106   4.472   3.153   1.336
 6722TIP3    H120107   4.455   3.243   1.364
 6722TIP3    H220108   4.475   3.158   1.240
 6723TIP3   OH220109   0.087   6.250   4.459
 6723TIP3    H120110   0.168   6.222   4.502
 6723TIP3    H220111   0.017   6.219   4.516
 6724TIP3   OH220112   1.217   2.273   1.424
 6724TIP3    H120113   1.214   2.342   1.359
 6724TIP3    H220114   1.150   2.297   1.488
 6725TIP3   OH220115   0.835   0.144   2.740
 6725TIP3    H120116   0.780   0.190   2.676
 6725TIP3    H220117   0.919   0.190   2.737
 6726TIP3   OH220118   3.130   1.523   2.883
 6726TIP3    H120119   3.145   1.597   2.941
 6726TIP3    H220120   3.174   1.546   2.802
 6727TIP3   OH220121   3.791   2.635   2.693
 6727TIP3    H120122   3.770   2.541   2.692
 6727TIP3    H220123   3.869   2.642   2.746
 6728TIP3   OH220124   6.048   3.315   0.198
 6728TIP3    H120125   6.067   3.298   0.290
 6728TIP3    H220126   5.976   3.255   0.177
 6729TIP3   OH220127   4.534   5.576   1.464
 6729TIP3    H120128   4.492   5.644   1.413
 6729TIP3    H220129   4.623   5.608   1.478
 6730TIP3   OH220130   7.819   6.858   0.704
 6730TIP3    H120131   7.754   6.866   0.774
 6730TIP3    H220132   7.903   6.859   0.750
 6731TIP3   OH220133   3.585   3.151   5.445
 6731TIP3    H120134   3.642   3.171   5.519
 6731TIP3    H220135   3.519   3.091   5.480
 6732TIP3   OH220136   0.794   0.542   5.305
 6732TIP3    H120137   0.838   0.466   5.268
 6732TIP3    H220138   0.825   0.617   5.254
 6733TIP3   OH220139   6.423   6.264   0.978
 6733TIP3    H120140   6.429   6.279   0.884
 6733TIP3    H220141   6.330   6.274   0.998
 6734TIP3   OH220142   6.080   0.316   6.111
 6734TIP3    H120143   6.101   0.243   6.052
 6734TIP3    H220144   6.001   0.355   6.074
 6735TIP3   OH220145   3.405   6.227   2.302
 6735TIP3    H120146   3.427   6.147   2.255
 6735TIP3    H220147   3.474   6.236   2.368
 6736TIP3   OH220148   3.225   1.247   3.329
 6736TIP3    H120149   3.205   1.253   3.236
 6736TIP3    H220150   3.296   1.309   3.343
 6737TIP3   OH220151   3.549   5.127   1.115
 6737TIP3    H120152   3.617   5.064   1.089
 6737TIP3    H220153   3.572   5.152   1.204
 6738TIP3   OH220154   5.931   1.880   5.161
 6738TIP3    H120155   5.941   1.973   5.140
 6738TIP3    H220156   5.946   1.875   5.256
 6739TIP3   OH220157   0.794   7.413   1.296
 6739TIP3    H120158   0.834   7.342   1.345
 6739TIP3    H220159   0.757   7.371   1.218
 6740TIP3   OH220160   5.974   1.537   3.112
 6740TIP3    H120161   5.889   1.549   3.155
 6740TIP3    H220162   6.007   1.625   3.098
 6741TIP3   OH220163   4.145   2.013   3.132
 6741TIP3    H120164   4.055   2.036   3.110
 6741TIP3    H220165   4.146   2.007   3.228
 6742TIP3   OH220166   7.488   2.575   5.850
 6742TIP3    H120167   7.484   2.488   5.891
 6742TIP3    H220168   7.476   2.558   5.757
 6743TIP3   OH220169   5.668   5.781   5.751
 6743TIP3    H120170   5.647   5.848   5.686
 6743TIP3    H220171   5.598   5.716   5.741
 6744TIP3   OH220172   5.720   3.044   0.684
 6744TIP3    H120173   5.643   2.993   0.709
 6744TIP3    H220174   5.702   3.132   0.718
 6745TIP3   OH220175   5.887   1.100   5.557
 6745TIP3    H120176   5.952   1.035   5.584
 6745TIP3    H220177   5.837   1.118   5.637
 6746TIP3   OH220178   7.099   2.980   2.568
 6746TIP3    H120179   7.043   2.903   2.575
 6746TIP3    H220180   7.141   2.988   2.654
 6747TIP3   OH220181   6.781   2.205   3.723
 6747TIP3    H120182   6.875   2.223   3.732
 6747TIP3    H220183   6.760   2.231   3.633
 6748TIP3   OH220184   6.422   4.913   1.727
 6748TIP3    H120185   6.372   4.927   1.647
 6748TIP3    H220186   6.441   5.001   1.759
 6749TIP3   OH220187   7.233   4.149   1.874
 6749TIP3    H120188   7.222   4.093   1.798
 6749TIP3    H220189   7.283   4.224   1.842
 6750TIP3   OH220190   6.509   4.664   4.297
 6750TIP3    H120191   6.498   4.748   4.252
 6750TIP3    H220192   6.439   4.609   4.262
 6751TIP3   OH220193   4.357   5.399   1.639
 6751TIP3    H120194   4.419   5.333   1.671
 6751TIP3    H220195   4.409   5.454   1.580
 6752TIP3   OH220196   0.999   6.123   5.966
 6752TIP3    H120197   1.008   6.204   6.015
 6752TIP3    H220198   1.071   6.068   5.997
 6753TIP3   OH220199   3.957   7.677   3.092
 6753TIP3    H120200   3.910   7.742   3.040
 6753TIP3    H220201   3.985   7.725   3.170
 6754TIP3   OH220202   5.165   3.830   1.979
 6754TIP3    H120203   5.255   3.798   1.974
 6754TIP3    H220204   5.112   3.752   1.994
 6755TIP3   OH220205   2.118   6.156   6.301
 6755TIP3    H120206   2.183   6.092   6.330
 6755TIP3    H220207   2.040   6.104   6.280
 6756TIP3   OH220208   0.167   4.537   5.463
 6756TIP3    H120209   0.164   4.600   5.391
 6756TIP3    H220210   0.255   4.500   5.460
 6757TIP3   OH220211   7.259   5.545   3.576
 6757TIP3    H120212   7.301   5.488   3.640
 6757TIP3    H220213   7.315   5.622   3.571
 6758TIP3   OH220214   4.015   7.596   2.667
 6758TIP3    H120215   3.944   7.536   2.646
 6758TIP3    H220216   4.094   7.541   2.665
 6759TIP3   OH220217   1.228   0.423   4.939
 6759TIP3    H120218   1.193   0.401   5.025
 6759TIP3    H220219   1.153   0.415   4.879
 6760TIP3   OH220220   1.536   0.570   1.172
 6760TIP3    H120221   1.531   0.664   1.184
 6760TIP3    H220222   1.618   0.544   1.213
 6761TIP3   OH220223   3.357   6.593   0.230
 6761TIP3    H120224   3.275   6.618   0.274
 6761TIP3    H220225   3.332   6.521   0.172
 6762TIP3   OH220226   6.516   4.159   3.646
 6762TIP3    H120227   6.607   4.145   3.670
 6762TIP3    H220228   6.481   4.071   3.632
 6763TIP3   OH220229   8.055   7.043   4.249
 6763TIP3    H120230   7.992   7.084   4.309
 6763TIP3    H220231   8.141   7.063   4.286
 6764TIP3   OH220232   3.827   5.100   4.702
 6764TIP3    H120233   3.878   5.181   4.701
 6764TIP3    H220234   3.841   5.061   4.616
 6765TIP3   OH220235   6.778   4.113   0.961
 6765TIP3    H120236   6.863   4.094   0.922
 6765TIP3    H220237   6.733   4.168   0.897
 6766TIP3   OH220238   0.459   4.200   3.716
 6766TIP3    H120239   0.511   4.152   3.651
 6766TIP3    H220240   0.396   4.250   3.665
 6767TIP3   OH220241   7.293   2.248   4.644
 6767TIP3    H120242   7.305   2.230   4.737
 6767TIP3    H220243   7.198   2.251   4.632
 6768TIP3   OH220244   5.619   3.175   2.241
 6768TIP3    H120245   5.587   3.265   2.247
 6768TIP3    H220246   5.714   3.184   2.239
 6769TIP3   OH220247   5.288   7.843   0.248
 6769TIP3    H120248   5.229   7.796   0.307
 6769TIP3    H220249   5.367   7.790   0.244
 6770TIP3   OH220250   2.928   6.028   5.529
 6770TIP3    H120251   2.929   5.937   5.558
 6770TIP3    H220252   2.923   6.023   5.434
 6771TIP3   OH220253   3.049   6.075   1.002
 6771TIP3    H120254   3.038   6.096   0.910
 6771TIP3    H220255   3.026   5.982   1.009
 6772TIP3   OH220256   1.945   1.728   3.064
 6772TIP3    H120257   1.957   1.636   3.088
 6772TIP3    H220258   1.897   1.725   2.981
 6773TIP3   OH220259   0.351   5.062   3.027
 6773TIP3    H120260   0.319   5.119   3.097
 6773TIP3    H220261   0.298   5.086   2.951
 6774TIP3   OH220262   6.997   7.930   5.944
 6774TIP3    H120263   6.915   7.881   5.939
 6774TIP3    H220264   7.031   7.911   6.031
 6775TIP3   OH220265   1.634   7.003   3.095
 6775TIP3    H120266   1.644   6.914   3.129
 6775TIP3    H220267   1.715   7.021   3.048
 6776TIP3   OH220268   6.042   7.418   4.178
 6776TIP3    H120269   6.069   7.343   4.231
 6776TIP3    H220270   6.123   7.468   4.165
 6777TIP3   OH220271   8.008   7.705   4.881
 6777TIP3    H120272   8.095   7.677   4.908
 6777TIP3    H220273   8.006   7.799   4.901
 6778TIP3   OH220274   1.523   4.799   4.481
 6778TIP3    H120275   1.431   4.776   4.468
 6778TIP3    H220276   1.522   4.860   4.555
 6779TIP3   OH220277   6.521   0.321   0.996
 6779TIP3    H120278   6.589   0.268   1.035
 6779TIP3    H220279   6.495   0.383   1.065
 6780TIP3   OH220280   0.999   5.871   6.360
 6780TIP3    H120281   0.940   5.800   6.337
 6780TIP3    H220282   1.043   5.841   6.440
 6781TIP3   OH220283   6.382   5.993   5.448
 6781TIP3    H120284   6.345   5.946   5.374
 6781TIP3    H220285   6.309   6.041   5.485
 6782TIP3   OH220286   1.474   0.733   0.389
 6782TIP3    H120287   1.527   0.779   0.323
 6782TIP3    H220288   1.405   0.795   0.410
 6783TIP3   OH220289   2.314   1.513   0.929
 6783TIP3    H120290   2.337   1.501   0.837
 6783TIP3    H220291   2.220   1.533   0.928
 6784TIP3   OH220292   4.538   2.514   3.671
 6784TIP3    H120293   4.577   2.435   3.635
 6784TIP3    H220294   4.610   2.557   3.719
 6785TIP3   OH220295   1.781   2.686   0.517
 6785TIP3    H120296   1.869   2.649   0.517
 6785TIP3    H220297   1.793   2.775   0.549
 6786TIP3   OH220298   7.551   2.730   5.179
 6786TIP3    H120299   7.603   2.807   5.156
 6786TIP3    H220300   7.590   2.658   5.129
 6787TIP3   OH220301   1.787   3.935   6.763
 6787TIP3    H120302   1.880   3.949   6.747
 6787TIP3    H220303   1.746   4.020   6.748
 6788TIP3   OH220304   4.511   5.658   6.561
 6788TIP3    H120305   4.510   5.659   6.465
 6788TIP3    H220306   4.577   5.593   6.583
 6789TIP3   OH220307   5.818   4.156   6.387
 6789TIP3    H120308   5.726   4.182   6.383
 6789TIP3    H220309   5.826   4.088   6.320
 6790TIP3   OH220310   2.041   1.369   4.541
 6790TIP3    H120311   1.951   1.350   4.568
 6790TIP3    H220312   2.047   1.465   4.542
 6791TIP3   OH220313   7.099   7.269   4.393
 6791TIP3    H120314   7.167   7.327   4.428
 6791TIP3    H220315   7.132   7.181   4.409
 6792TIP3   OH220316   3.061   0.910   4.405
 6792TIP3    H120317   3.018   0.980   4.455
 6792TIP3    H220318   2.992   0.875   4.348
 6793TIP3   OH220319   4.970   6.242   6.757
 6793TIP3    H120320   5.018   6.171   6.800
 6793TIP3    H220321   4.962   6.310   6.823
 6794TIP3   OH220322   1.465   3.610   1.071
 6794TIP3    H120323   1.508   3.694   1.089
 6794TIP3    H220324   1.482   3.558   1.149
 6795TIP3   OH220325   7.316   1.670   5.732
 6795TIP3    H120326   7.348   1.660   5.822
 6795TIP3    H220327   7.385   1.720   5.687
 6796TIP3   OH220328   6.678   1.673   6.136
 6796TIP3    H120329   6.764   1.632   6.144
 6796TIP3    H220330   6.649   1.684   6.226
 6797TIP3   OH220331   5.096   3.724   4.747
 6797TIP3    H120332   5.098   3.757   4.658
 6797TIP3    H220333   5.168   3.661   4.750
 6798TIP3   OH220334   4.454   7.365   2.794
 6798TIP3    H120335   4.447   7.385   2.701
 6798TIP3    H220336   4.542   7.330   2.805
 6799TIP3   OH220337   0.436   0.401   3.325
 6799TIP3    H120338   0.341   0.392   3.334
 6799TIP3    H220339   0.465   0.315   3.293
 6800TIP3   OH220340   2.989   1.791   3.175
 6800TIP3    H120341   3.029   1.787   3.262
 6800TIP3    H220342   3.062   1.779   3.115
 6801TIP3   OH220343   7.846   3.098   3.333
 6801TIP3    H120344   7.760   3.125   3.302
 6801TIP3    H220345   7.873   3.028   3.273
 6802TIP3   OH220346   0.825   6.576   4.372
 6802TIP3    H120347   0.786   6.649   4.421
 6802TIP3    H220348   0.886   6.536   4.434
 6803TIP3   OH220349   3.434   5.657   6.448
 6803TIP3    H120350   3.475   5.594   6.506
 6803TIP3    H220351   3.414   5.732   6.504
 6804TIP3   OH220352   3.368   2.882   0.878
 6804TIP3    H120353   3.438   2.904   0.818
 6804TIP3    H220354   3.340   2.795   0.852
 6805TIP3   OH220355   5.763   5.190   0.612
 6805TIP3    H120356   5.790   5.227   0.529
 6805TIP3    H220357   5.743   5.099   0.592
 6806TIP3   OH220358   7.601   3.200   5.830
 6806TIP3    H120359   7.612   3.142   5.754
 6806TIP3    H220360   7.635   3.150   5.904
 6807TIP3   OH220361   5.201   0.318   6.077
 6807TIP3    H120362   5.244   0.402   6.092
 6807TIP3    H220363   5.135   0.312   6.146
 6808TIP3   OH220364   1.390   4.233   6.384
 6808TIP3    H120365   1.417   4.160   6.329
 6808TIP3    H220366   1.310   4.265   6.344
 6809TIP3   OH220367   2.990   1.515   5.877
 6809TIP3    H120368   2.909   1.563   5.891
 6809TIP3    H220369   2.988   1.493   5.783
 6810TIP3   OH220370   1.015   2.526   3.057
 6810TIP3    H120371   1.090   2.469   3.075
 6810TIP3    H220372   1.005   2.522   2.962
 6811TIP3   OH220373   3.538   5.564   4.436
 6811TIP3    H120374   3.519   5.515   4.356
 6811TIP3    H220375   3.477   5.530   4.501
 6812TIP3   OH220376   0.933   1.336   5.280
 6812TIP3    H120377   0.855   1.341   5.225
 6812TIP3    H220378   0.977   1.255   5.253
 6813TIP3   OH220379   1.971   5.921   3.714
 6813TIP3    H120380   1.952   6.013   3.693
 6813TIP3    H220381   1.885   5.879   3.716
 6814TIP3   OH220382   6.192   2.836   0.567
 6814TIP3    H120383   6.224   2.825   0.478
 6814TIP3    H220384   6.227   2.920   0.595
 6815TIP3   OH220385   5.770   5.990   2.440
 6815TIP3    H120386   5.797   5.903   2.411
 6815TIP3    H220387   5.676   5.993   2.424
 6816TIP3   OH220388   8.270   5.498   2.732
 6816TIP3    H120389   8.224   5.519   2.651
 6816TIP3    H220390   8.273   5.402   2.733
 6817TIP3   OH220391   7.544   2.202   2.105
 6817TIP3    H120392   7.456   2.215   2.070
 6817TIP3    H220393   7.588   2.287   2.092
 6818TIP3   OH220394   3.550   2.847   5.338
 6818TIP3    H120395   3.556   2.910   5.266
 6818TIP3    H220396   3.460   2.815   5.334
 6819TIP3   OH220397   4.293   0.697   4.182
 6819TIP3    H120398   4.340   0.649   4.114
 6819TIP3    H220399   4.356   0.761   4.215
 6820TIP3   OH220400   4.349   3.540   3.173
 6820TIP3    H120401   4.356   3.444   3.171
 6820TIP3    H220402   4.288   3.561   3.103
 6821TIP3   OH220403   2.929   1.298   5.059
 6821TIP3    H120404   2.902   1.334   5.143
 6821TIP3    H220405   3.020   1.274   5.071
 6822TIP3   OH220406   4.912   4.345   5.254
 6822TIP3    H120407   4.877   4.434   5.265
 6822TIP3    H220408   4.860   4.291   5.314
 6823TIP3   OH220409   7.929   6.597   0.554
 6823TIP3    H120410   7.870   6.569   0.485
 6823TIP3    H220411   7.970   6.677   0.521
 6824TIP3   OH220412   8.341   5.338   3.803
 6824TIP3    H120413   8.352   5.337   3.708
 6824TIP3    H220414   8.252   5.370   3.817
 6825TIP3   OH220415   2.592   6.935   2.861
 6825TIP3    H120416   2.505   6.970   2.879
 6825TIP3    H220417   2.619   6.895   2.944
 6826TIP3   OH220418   1.439   5.282   2.021
 6826TIP3    H120419   1.347   5.288   2.046
 6826TIP3    H220420   1.446   5.332   1.940
 6827TIP3   OH220421   4.780   2.608   4.369
 6827TIP3    H120422   4.825   2.523   4.369
 6827TIP3    H220423   4.696   2.590   4.327
 6828TIP3   OH220424   0.976   4.429   4.774
 6828TIP3    H120425   1.065   4.452   4.801
 6828TIP3    H220426   0.958   4.483   4.697
 6829TIP3   OH220427   0.350   5.184   2.697
 6829TIP3    H120428   0.411   5.111   2.708
 6829TIP3    H220429   0.273   5.160   2.748
 6830TIP3   OH220430   4.308   3.282   0.271
 6830TIP3    H120431   4.285   3.215   0.336
 6830TIP3    H220432   4.330   3.232   0.192
 6831TIP3   OH220433   3.758   3.341   4.081
 6831TIP3    H120434   3.799   3.394   4.150
 6831TIP3    H220435   3.774   3.251   4.107
 6832TIP3   OH220436   1.111   2.202   1.708
 6832TIP3    H120437   1.073   2.126   1.665
 6832TIP3    H220438   1.206   2.190   1.700
 6833TIP3   OH220439   4.742   1.267   1.778
 6833TIP3    H120440   4.743   1.271   1.874
 6833TIP3    H220441   4.716   1.356   1.751
 6834TIP3   OH220442   3.451   7.701   5.257
 6834TIP3    H120443   3.504   7.630   5.220
 6834TIP3    H220444   3.428   7.671   5.345
 6835TIP3   OH220445   3.554   7.532   1.226
 6835TIP3    H120446   3.509   7.555   1.145
 6835TIP3    H220447   3.607   7.609   1.247
 6836TIP3   OH220448   7.178   3.274   5.343
 6836TIP3    H120449   7.106   3.210   5.345
 6836TIP3    H220450   7.161   3.330   5.419
 6837TIP3   OH220451   7.300   6.597   2.781
 6837TIP3    H120452   7.211   6.620   2.807
 6837TIP3    H220453   7.288   6.550   2.698
 6838TIP3   OH220454   4.004   2.686   1.589
 6838TIP3    H120455   4.060   2.754   1.551
 6838TIP3    H220456   3.940   2.666   1.522
 6839TIP3   OH220457   1.763   5.737   3.663
 6839TIP3    H120458   1.779   5.655   3.709
 6839TIP3    H220459   1.769   5.713   3.570
 6840TIP3   OH220460   0.288   7.310   0.923
 6840TIP3    H120461   0.366   7.264   0.954
 6840TIP3    H220462   0.272   7.376   0.991
 6841TIP3   OH220463   1.757   5.024   2.673
 6841TIP3    H120464   1.794   5.077   2.603
 6841TIP3    H220465   1.772   4.933   2.645
 6842TIP3   OH220466   8.193   6.083   4.168
 6842TIP3    H120467   8.289   6.076   4.170
 6842TIP3    H220468   8.173   6.103   4.076
 6843TIP3   OH220469   3.785   0.414   6.855
 6843TIP3    H120470   3.795   0.508   6.840
 6843TIP3    H220471   3.702   0.392   6.814
 6844TIP3   OH220472   6.013   2.609   6.225
 6844TIP3    H120473   6.018   2.683   6.286
 6844TIP3    H220474   6.103   2.598   6.194
 6845TIP3   OH220475   1.678   3.615   3.153
 6845TIP3    H120476   1.721   3.701   3.146
 6845TIP3    H220477   1.674   3.583   3.063
 6846TIP3   OH220478   7.181   7.300   5.773
 6846TIP3    H120479   7.257   7.328   5.825
 6846TIP3    H220480   7.108   7.300   5.835
 6847TIP3   OH220481   4.303   0.358   3.255
 6847TIP3    H120482   4.309   0.294   3.326
 6847TIP3    H220483   4.347   0.436   3.289
 6848TIP3   OH220484   7.877   4.749   3.445
 6848TIP3    H120485   7.970   4.735   3.463
 6848TIP3    H220486   7.842   4.781   3.528
 6849TIP3   OH220487   3.516   6.647   3.326
 6849TIP3    H120488   3.449   6.590   3.289
 6849TIP3    H220489   3.598   6.613   3.292
 6850TIP3   OH220490   5.110   5.060   6.283
 6850TIP3    H120491   5.153   5.023   6.207
 6850TIP3    H220492   5.181   5.082   6.343
 6851TIP3   OH220493   8.342   3.013   4.713
 6851TIP3    H120494   8.273   2.962   4.756
 6851TIP3    H220495   8.321   3.104   4.732
 6852TIP3   OH220496   4.926   5.364   6.321
 6852TIP3    H120497   4.896   5.416   6.247
 6852TIP3    H220498   4.876   5.282   6.314
 6853TIP3   OH220499   5.747   7.027   2.256
 6853TIP3    H120500   5.685   6.974   2.205
 6853TIP3    H220501   5.812   6.964   2.288
 6854TIP3   OH220502   7.242   3.402   4.529
 6854TIP3    H120503   7.272   3.316   4.558
 6854TIP3    H220504   7.305   3.464   4.567
 6855TIP3   OH220505   0.786   4.242   3.068
 6855TIP3    H120506   0.868   4.200   3.091
 6855TIP3    H220507   0.718   4.182   3.099
 6856TIP3   OH220508   2.793   2.426   4.394
 6856TIP3    H120509   2.801   2.506   4.342
 6856TIP3    H220510   2.882   2.409   4.425
 6857TIP3   OH220511   5.391   5.310   3.116
 6857TIP3    H120512   5.407   5.232   3.062
 6857TIP3    H220513   5.434   5.381   3.068
 6858TIP3   OH220514   3.608   2.951   5.918
 6858TIP3    H120515   3.518   2.980   5.903
 6858TIP3    H220516   3.610   2.927   6.011
 6859TIP3   OH220517   3.487   6.044   1.840
 6859TIP3    H120518   3.528   6.100   1.774
 6859TIP3    H220519   3.490   5.956   1.802
 6860TIP3   OH220520   6.808   1.368   1.889
 6860TIP3    H120521   6.889   1.390   1.843
 6860TIP3    H220522   6.837   1.331   1.973
 6861TIP3   OH220523   8.404   0.339   2.703
 6861TIP3    H120524   8.486   0.346   2.654
 6861TIP3    H220525   8.336   0.358   2.638
 6862TIP3   OH220526   4.030   6.626   5.892
 6862TIP3    H120527   4.103   6.684   5.870
 6862TIP3    H220528   3.971   6.680   5.944
 6863TIP3   OH220529   8.328   4.710   2.554
 6863TIP3    H120530   8.324   4.735   2.647
 6863TIP3    H220531   8.296   4.620   2.552
 6864TIP3   OH220532   2.248   4.206   4.999
 6864TIP3    H120533   2.278   4.210   4.908
 6864TIP3    H220534   2.153   4.206   4.993
 6865TIP3   OH220535   0.937   2.947   5.389
 6865TIP3    H120536   0.878   2.970   5.317
 6865TIP3    H220537   0.911   2.858   5.413
 6866TIP3   OH220538   6.525   4.592   2.595
 6866TIP3    H120539   6.612   4.582   2.557
 6866TIP3    H220540   6.479   4.650   2.535
 6867TIP3   OH220541   4.715   7.275   4.176
 6867TIP3    H120542   4.629   7.300   4.208
 6867TIP3    H220543   4.740   7.345   4.116
 6868TIP3   OH220544   2.523   5.566   6.019
 6868TIP3    H120545   2.599   5.537   6.071
 6868TIP3    H220546   2.510   5.496   5.956
 6869TIP3   OH220547   2.766   0.971   3.070
 6869TIP3    H120548   2.682   1.008   3.100
 6869TIP3    H220549   2.743   0.918   2.994
 6870TIP3   OH220550   0.797   1.895   0.301
 6870TIP3    H120551   0.882   1.853   0.311
 6870TIP3    H220552   0.754   1.884   0.386
 6871TIP3   OH220553   1.169   0.112   4.712
 6871TIP3    H120554   1.249   0.111   4.765
 6871TIP3    H220555   1.160   0.203   4.684
 6872TIP3   OH220556   6.673   2.589   6.683
 6872TIP3    H120557   6.674   2.654   6.612
 6872TIP3    H220558   6.731   2.519   6.651
 6873TIP3   OH220559   0.625   3.196   4.794
 6873TIP3    H120560   0.596   3.256   4.726
 6873TIP3    H220561   0.714   3.173   4.769
 6874TIP3   OH220562   8.361   3.233   0.893
 6874TIP3    H120563   8.440   3.236   0.839
 6874TIP3    H220564   8.289   3.224   0.830
 6875TIP3   OH220565   4.131   4.242   3.794
 6875TIP3    H120566   4.069   4.228   3.721
 6875TIP3    H220567   4.146   4.154   3.829
 6876TIP3   OH220568   1.344   0.937   1.341
 6876TIP3    H120569   1.404   0.980   1.403
 6876TIP3    H220570   1.393   0.931   1.260
 6877TIP3   OH220571   2.572   2.441   4.577
 6877TIP3    H120572   2.612   2.389   4.646
 6877TIP3    H220573   2.637   2.444   4.507
 6878TIP3   OH220574   8.403   7.934   0.304
 6878TIP3    H120575   8.325   7.989   0.315
 6878TIP3    H220576   8.372   7.845   0.319
 6879TIP3   OH220577   1.877   1.087   1.736
 6879TIP3    H120578   1.846   1.062   1.823
 6879TIP3    H220579   1.797   1.101   1.685
 6880TIP3   OH220580   8.301   0.681   3.668
 6880TIP3    H120581   8.244   0.699   3.593
 6880TIP3    H220582   8.372   0.744   3.661
 6881TIP3   OH220583   3.750   5.302   0.942
 6881TIP3    H120584   3.793   5.299   1.027
 6881TIP3    H220585   3.793   5.234   0.890
 6882TIP3   OH220586   7.272   3.560   4.261
 6882TIP3    H120587   7.278   3.544   4.356
 6882TIP3    H220588   7.329   3.494   4.222
 6883TIP3   OH220589   0.806   0.644   2.977
 6883TIP3    H120590   0.743   0.687   2.920
 6883TIP3    H220591   0.793   0.686   3.063
 6884TIP3   OH220592   2.321   6.488   6.398
 6884TIP3    H120593   2.280   6.492   6.485
 6884TIP3    H220594   2.412   6.515   6.414
 6885TIP3   OH220595   5.681   6.278   4.874
 6885TIP3    H120596   5.652   6.257   4.785
 6885TIP3    H220597   5.610   6.330   4.911
 6886TIP3   OH220598   2.268   1.797   0.372
 6886TIP3    H120599   2.330   1.731   0.342
 6886TIP3    H220600   2.321   1.874   0.391
 6887TIP3   OH220601   7.376   7.486   3.362
 6887TIP3    H120602   7.297   7.490   3.309
 6887TIP3    H220603   7.390   7.576   3.392
 6888TIP3   OH220604   6.865   4.929   3.670
 6888TIP3    H120605   6.872   4.898   3.760
 6888TIP3    H220606   6.877   4.851   3.616
 6889TIP3   OH220607   0.891   5.396   5.895
 6889TIP3    H120608   0.817   5.431   5.845
 6889TIP3    H220609   0.852   5.369   5.978
 6890TIP3   OH220610   7.889   5.669   2.930
 6890TIP3    H120611   7.864   5.581   2.959
 6890TIP3    H220612   7.902   5.659   2.835
 6891TIP3   OH220613   5.383   7.835   3.374
 6891TIP3    H120614   5.428   7.752   3.388
 6891TIP3    H220615   5.308   7.813   3.319
 6892TIP3   OH220616   7.233   0.919   4.590
 6892TIP3    H120617   7.315   0.937   4.545
 6892TIP3    H220618   7.241   0.965   4.674
 6893TIP3   OH220619   7.426   1.213   3.395
 6893TIP3    H120620   7.427   1.134   3.341
 6893TIP3    H220621   7.513   1.215   3.437
 6894TIP3   OH220622   0.718   5.464   3.919
 6894TIP3    H120623   0.657   5.477   3.992
 6894TIP3    H220624   0.695   5.378   3.884
 6895TIP3   OH220625   7.426   1.387   4.918
 6895TIP3    H120626   7.484   1.356   4.987
 6895TIP3    H220627   7.359   1.439   4.964
 6896TIP3   OH220628   6.002   3.811   2.644
 6896TIP3    H120629   6.007   3.750   2.570
 6896TIP3    H220630   6.009   3.755   2.721
 6897TIP3   OH220631   3.596   7.353   4.715
 6897TIP3    H120632   3.560   7.439   4.693
 6897TIP3    H220633   3.607   7.354   4.810
 6898TIP3   OH220634   2.043   6.815   5.442
 6898TIP3    H120635   2.069   6.824   5.534
 6898TIP3    H220636   1.948   6.820   5.444
 6899TIP3   OH220637   6.341   3.163   3.196
 6899TIP3    H120638   6.356   3.127   3.284
 6899TIP3    H220639   6.395   3.241   3.193
 6900TIP3   OH220640   7.359   7.235   3.710
 6900TIP3    H120641   7.294   7.280   3.764
 6900TIP3    H220642   7.428   7.299   3.696
 6901TIP3   OH220643   5.954   4.941   4.351
 6901TIP3    H120644   5.907   4.970   4.429
 6901TIP3    H220645   5.953   4.846   4.356
 6902TIP3   OH220646   6.147   3.833   1.396
 6902TIP3    H120647   6.107   3.754   1.431
 6902TIP3    H220648   6.076   3.879   1.351
 6903TIP3   OH220649   5.967   7.871   2.546
 6903TIP3    H120650   6.052   7.833   2.569
 6903TIP3    H220651   5.959   7.858   2.452
 6904TIP3   OH220652   5.168   2.185   1.954
 6904TIP3    H120653   5.115   2.258   1.986
 6904TIP3    H220654   5.109   2.110   1.958
 6905TIP3   OH220655   1.818   3.933   0.969
 6905TIP3    H120656   1.766   4.010   0.945
 6905TIP3    H220657   1.839   3.892   0.885
 6906TIP3   OH220658   5.494   1.289   2.681
 6906TIP3    H120659   5.560   1.341   2.725
 6906TIP3    H220660   5.415   1.343   2.682
 6907TIP3   OH220661   6.922   4.427   6.344
 6907TIP3    H120662   6.985   4.415   6.414
 6907TIP3    H220663   6.845   4.377   6.372
 6908TIP3   OH220664   0.291   7.538   2.558
 6908TIP3    H120665   0.229   7.507   2.624
 6908TIP3    H220666   0.321   7.459   2.514
 6909TIP3   OH220667   2.031   4.960   3.299
 6909TIP3    H120668   2.028   5.022   3.372
 6909TIP3    H220669   1.952   4.907   3.310
 6910TIP3   OH220670   7.903   3.836   0.601
 6910TIP3    H120671   7.838   3.812   0.667
 6910TIP3    H220672   7.955   3.905   0.642
 6911TIP3   OH220673   2.728   4.474   0.909
 6911TIP3    H120674   2.823   4.474   0.916
 6911TIP3    H220675   2.699   4.532   0.980
 6912TIP3   OH220676   7.760   6.179   1.290
 6912TIP3    H120677   7.842   6.182   1.340
 6912TIP3    H220678   7.697   6.228   1.344
 6913TIP3   OH220679   5.321   0.382   3.893
 6913TIP3    H120680   5.292   0.467   3.925
 6913TIP3    H220681   5.397   0.360   3.947
 6914TIP3   OH220682   3.780   2.503   0.627
 6914TIP3    H120683   3.819   2.436   0.570
 6914TIP3    H220684   3.756   2.574   0.567
 6915TIP3   OH220685   7.588   4.092   4.635
 6915TIP3    H120686   7.540   4.174   4.640
 6915TIP3    H220687   7.650   4.096   4.708
 6916TIP3   OH220688   0.179   5.563   5.123
 6916TIP3    H120689   0.096   5.567   5.171
 6916TIP3    H220690   0.155   5.537   5.034
 6917TIP3   OH220691   8.111   5.694   5.287
 6917TIP3    H120692   8.196   5.653   5.304
 6917TIP3    H220693   8.088   5.663   5.199
 6918TIP3   OH220694   5.627   5.134   5.015
 6918TIP3    H120695   5.533   5.151   5.003
 6918TIP3    H220696   5.635   5.108   5.107
 6919TIP3   OH220697   0.481   7.757   6.417
 6919TIP3    H120698   0.488   7.792   6.506
 6919TIP3    H220699   0.393   7.782   6.387
 6920TIP3   OH220700   6.338   0.841   6.771
 6920TIP3    H120701   6.344   0.752   6.805
 6920TIP3    H220702   6.245   0.853   6.750
 6921TIP3   OH220703   0.600   4.674   6.386
 6921TIP3    H120704   0.578   4.718   6.468
 6921TIP3    H220705   0.563   4.730   6.318
 6922TIP3   OH220706   6.814   4.723   5.705
 6922TIP3    H120707   6.865   4.735   5.785
 6922TIP3    H220708   6.727   4.698   5.735
 6923TIP3   OH220709   2.851   5.087   4.895
 6923TIP3    H120710   2.894   5.155   4.843
 6923TIP3    H220711   2.766   5.074   4.853
 6924TIP3   OH220712   7.859   2.587   5.831
 6924TIP3    H120713   7.940   2.621   5.793
 6924TIP3    H220714   7.817   2.539   5.759
 6925TIP3   OH220715   2.651   0.933   1.045
 6925TIP3    H120716   2.621   1.020   1.016
 6925TIP3    H220717   2.742   0.947   1.071
 6926TIP3   OH220718   7.780   7.106   5.752
 6926TIP3    H120719   7.874   7.088   5.745
 6926TIP3    H220720   7.772   7.158   5.832
 6927TIP3   OH220721   7.586   5.380   6.458
 6927TIP3    H120722   7.507   5.433   6.463
 6927TIP3    H220723   7.599   5.364   6.365
 6928TIP3   OH220724   3.832   5.520   4.052
 6928TIP3    H120725   3.889   5.559   4.119
 6928TIP3    H220726   3.745   5.554   4.073
 6929TIP3   OH220727   5.534   4.679   4.394
 6929TIP3    H120728   5.578   4.598   4.416
 6929TIP3    H220729   5.456   4.681   4.450
 6930TIP3   OH220730   1.678   5.561   1.263
 6930TIP3    H120731   1.723   5.600   1.338
 6930TIP3    H220732   1.624   5.492   1.301
 6931TIP3   OH220733   5.257   7.670   4.424
 6931TIP3    H120734   5.275   7.750   4.375
 6931TIP3    H220735   5.343   7.631   4.437
 6932TIP3   OH220736   6.213   5.474   1.126
 6932TIP3    H120737   6.235   5.530   1.051
 6932TIP3    H220738   6.135   5.426   1.098
 6933TIP3   OH220739   6.285   6.195   0.247
 6933TIP3    H120740   6.330   6.223   0.326
 6933TIP3    H220741   6.345   6.134   0.205
 6934TIP3   OH220742   7.372   4.957   3.842
 6934TIP3    H120743   7.436   5.028   3.847
 6934TIP3    H220744   7.317   4.978   3.767
 6935TIP3   OH220745   6.691   7.291   3.793
 6935TIP3    H120746   6.704   7.351   3.866
 6935TIP3    H220747   6.745   7.326   3.722
 6936TIP3   OH220748   5.652   4.434   6.006
 6936TIP3    H120749   5.715   4.418   6.076
 6936TIP3    H220750   5.572   4.390   6.034
 6937TIP3   OH220751   1.743   2.650   3.720
 6937TIP3    H120752   1.734   2.599   3.640
 6937TIP3    H220753   1.666   2.626   3.772
 6938TIP3   OH220754   6.429   2.543   2.451
 6938TIP3    H120755   6.497   2.608   2.465
 6938TIP3    H220756   6.402   2.516   2.539
 6939TIP3   OH220757   6.034   3.685   4.408
 6939TIP3    H120758   5.942   3.691   4.433
 6939TIP3    H220759   6.033   3.648   4.320
 6940TIP3   OH220760   1.650   5.354   0.482
 6940TIP3    H120761   1.701   5.357   0.401
 6940TIP3    H220762   1.559   5.353   0.453
 6941TIP3   OH220763   4.680   1.891   5.828
 6941TIP3    H120764   4.744   1.843   5.879
 6941TIP3    H220765   4.729   1.962   5.788
 6942TIP3   OH220766   6.298   1.866   6.524
 6942TIP3    H120767   6.326   1.775   6.534
 6942TIP3    H220768   6.203   1.861   6.515
 6943TIP3   OH220769   8.185   3.454   1.260
 6943TIP3    H120770   8.191   3.550   1.251
 6943TIP3    H220771   8.134   3.441   1.341
 6944TIP3   OH220772   5.121   6.954   3.049
 6944TIP3    H120773   5.101   6.875   3.099
 6944TIP3    H220774   5.115   6.927   2.958
 6945TIP3   OH220775   4.300   6.411   3.483
 6945TIP3    H120776   4.381   6.366   3.459
 6945TIP3    H220777   4.240   6.392   3.410
 6946TIP3   OH220778   4.299   4.713   1.579
 6946TIP3    H120779   4.394   4.705   1.579
 6946TIP3    H220780   4.271   4.675   1.496
 6947TIP3   OH220781   7.433   4.136   1.164
 6947TIP3    H120782   7.340   4.152   1.178
 6947TIP3    H220783   7.457   4.196   1.094
 6948TIP3   OH220784   7.022   3.367   2.703
 6948TIP3    H120785   7.079   3.314   2.648
 6948TIP3    H220786   6.936   3.362   2.660
 6949TIP3   OH220787   3.247   7.044   5.112
 6949TIP3    H120788   3.231   6.997   5.193
 6949TIP3    H220789   3.337   7.024   5.090
 6950TIP3   OH220790   5.671   5.512   1.448
 6950TIP3    H120791   5.584   5.499   1.410
 6950TIP3    H220792   5.726   5.449   1.403
 6951TIP3   OH220793   8.300   1.184   3.934
 6951TIP3    H120794   8.224   1.224   3.976
 6951TIP3    H220795   8.321   1.241   3.860
 6952TIP3   OH220796   5.583   1.707   0.902
 6952TIP3    H120797   5.635   1.758   0.964
 6952TIP3    H220798   5.611   1.616   0.917
 6953TIP3   OH220799   2.313   1.651   6.609
 6953TIP3    H120800   2.258   1.724   6.637
 6953TIP3    H220801   2.391   1.659   6.664
 6954TIP3   OH220802   8.076   1.691   1.384
 6954TIP3    H120803   8.022   1.675   1.307
 6954TIP3    H220804   8.091   1.786   1.383
 6955TIP3   OH220805   3.394   0.295   2.474
 6955TIP3    H120806   3.427   0.307   2.386
 6955TIP3    H220807   3.439   0.361   2.527
 6956TIP3   OH220808   8.358   2.238   5.774
 6956TIP3    H120809   8.298   2.303   5.809
 6956TIP3    H220810   8.302   2.173   5.733
 6957TIP3   OH220811   1.413   5.690   6.037
 6957TIP3    H120812   1.384   5.706   5.947
 6957TIP3    H220813   1.507   5.674   6.030
 6958TIP3   OH220814   0.277   1.836   2.076
 6958TIP3    H120815   0.228   1.759   2.104
 6958TIP3    H220816   0.259   1.902   2.143
 6959TIP3   OH220817   4.063   2.368   1.600
 6959TIP3    H120818   4.135   2.426   1.579
 6959TIP3    H220819   3.985   2.423   1.593
 6960TIP3   OH220820   2.245   2.835   4.317
 6960TIP3    H120821   2.287   2.832   4.231
 6960TIP3    H220822   2.316   2.858   4.377
 6961TIP3   OH220823   7.331   5.187   6.625
 6961TIP3    H120824   7.382   5.153   6.699
 6961TIP3    H220825   7.377   5.156   6.548
 6962TIP3   OH220826   4.378   6.821   6.413
 6962TIP3    H120827   4.285   6.823   6.435
 6962TIP3    H220828   4.391   6.894   6.352
 6963TIP3   OH220829   5.067   7.775   3.734
 6963TIP3    H120830   5.146   7.808   3.691
 6963TIP3    H220831   5.079   7.680   3.736
 6964TIP3   OH220832   7.322   6.757   5.009
 6964TIP3    H120833   7.274   6.721   5.084
 6964TIP3    H220834   7.378   6.825   5.047
 6965TIP3   OH220835   6.138   4.146   0.740
 6965TIP3    H120836   6.120   4.084   0.669
 6965TIP3    H220837   6.158   4.092   0.816
 6966TIP3   OH220838   5.471   7.005   3.294
 6966TIP3    H120839   5.462   7.097   3.319
 6966TIP3    H220840   5.383   6.969   3.304
 6967TIP3   OH220841   1.621   6.731   0.427
 6967TIP3    H120842   1.576   6.659   0.471
 6967TIP3    H220843   1.577   6.739   0.342
 6968TIP3   OH220844   5.506   6.630   1.729
 6968TIP3    H120845   5.541   6.709   1.769
 6968TIP3    H220846   5.574   6.601   1.669
 6969TIP3   OH220847   2.457   1.293   4.638
 6969TIP3    H120848   2.433   1.376   4.597
 6969TIP3    H220849   2.375   1.246   4.647
 6970TIP3   OH220850   5.806   2.459   6.518
 6970TIP3    H120851   5.864   2.531   6.543
 6970TIP3    H220852   5.781   2.419   6.602
 6971TIP3   OH220853   6.542   5.432   3.337
 6971TIP3    H120854   6.605   5.502   3.320
 6971TIP3    H220855   6.587   5.352   3.310
 6972TIP3   OH220856   2.506   0.969   0.291
 6972TIP3    H120857   2.596   0.988   0.319
 6972TIP3    H220858   2.495   1.018   0.210
 6973TIP3   OH220859   3.291   6.228   0.267
 6973TIP3    H120860   3.198   6.228   0.288
 6973TIP3    H220861   3.307   6.142   0.229
 6974TIP3   OH220862   1.759   0.475   4.290
 6974TIP3    H120863   1.788   0.524   4.213
 6974TIP3    H220864   1.829   0.487   4.354
 6975TIP3   OH220865   1.550   3.301   2.515
 6975TIP3    H120866   1.580   3.373   2.570
 6975TIP3    H220867   1.458   3.290   2.538
 6976TIP3   OH220868   5.170   0.904   0.231
 6976TIP3    H120869   5.120   0.940   0.304
 6976TIP3    H220870   5.251   0.873   0.270
 6977TIP3   OH220871   4.125   5.576   6.002
 6977TIP3    H120872   4.168   5.511   6.058
 6977TIP3    H220873   4.150   5.660   6.039
 6978TIP3   OH220874   6.899   5.930   4.016
 6978TIP3    H120875   6.938   5.903   4.099
 6978TIP3    H220876   6.874   6.022   4.030
 6979TIP3   OH220877   4.984   7.390   6.325
 6979TIP3    H120878   4.902   7.421   6.363
 6979TIP3    H220879   5.024   7.468   6.286
 6980TIP3   OH220880   7.155   7.330   4.785
 6980TIP3    H120881   7.217   7.398   4.757
 6980TIP3    H220882   7.073   7.354   4.742
 6981TIP3   OH220883   1.569   3.832   2.732
 6981TIP3    H120884   1.628   3.907   2.721
 6981TIP3    H220885   1.532   3.843   2.819
 6982TIP3   OH220886   6.840   7.664   0.841
 6982TIP3    H120887   6.930   7.693   0.827
 6982TIP3    H220888   6.789   7.744   0.849
 6983TIP3   OH220889   5.387   7.592   6.036
 6983TIP3    H120890   5.390   7.671   5.981
 6983TIP3    H220891   5.457   7.536   6.002
 6984TIP3   OH220892   2.794   7.732   5.353
 6984TIP3    H120893   2.793   7.824   5.329
 6984TIP3    H220894   2.704   7.712   5.379
 6985TIP3   OH220895   4.114   3.480   4.093
 6985TIP3    H120896   4.038   3.484   4.036
 6985TIP3    H220897   4.106   3.396   4.138
 6986TIP3   OH220898   6.046   0.484   2.947
 6986TIP3    H120899   6.024   0.419   3.013
 6986TIP3    H220900   6.080   0.434   2.873
 6987TIP3   OH220901   3.635   5.623   5.735
 6987TIP3    H120902   3.665   5.627   5.826
 6987TIP3    H220903   3.559   5.565   5.738
 6988TIP3   OH220904   4.867   0.408   1.828
 6988TIP3    H120905   4.825   0.483   1.870
 6988TIP3    H220906   4.952   0.401   1.872
 6989TIP3   OH220907   2.352   2.321   4.676
 6989TIP3    H120908   2.426   2.364   4.633
 6989TIP3    H220909   2.392   2.252   4.730
 6990TIP3   OH220910   2.115   3.684   3.611
 6990TIP3    H120911   2.150   3.597   3.592
 6990TIP3    H220912   2.098   3.684   3.705
 6991TIP3   OH220913   7.040   3.853   1.756
 6991TIP3    H120914   7.097   3.787   1.797
 6991TIP3    H220915   6.988   3.804   1.693
 6992TIP3   OH220916   2.839   0.670   1.449
 6992TIP3    H120917   2.770   0.620   1.493
 6992TIP3    H220918   2.815   0.667   1.356
 6993TIP3   OH220919   7.087   0.453   1.994
 6993TIP3    H120920   7.177   0.423   1.988
 6993TIP3    H220921   7.049   0.402   2.066
 6994TIP3   OH220922   1.289   7.402   0.940
 6994TIP3    H120923   1.233   7.459   0.992
 6994TIP3    H220924   1.279   7.433   0.850
 6995TIP3   OH220925   8.079   2.458   1.929
 6995TIP3    H120926   8.148   2.520   1.953
 6995TIP3    H220927   8.124   2.375   1.914
 6996TIP3   OH220928   0.728   4.514   6.211
 6996TIP3    H120929   0.704   4.539   6.301
 6996TIP3    H220930   0.657   4.548   6.157
 6997TIP3   OH220931   2.441   1.719   2.928
 6997TIP3    H120932   2.446   1.814   2.931
 6997TIP3    H220933   2.393   1.694   3.007
 6998TIP3   OH220934   7.371   4.360   1.732
 6998TIP3    H120935   7.369   4.449   1.697
 6998TIP3    H220936   7.365   4.303   1.655
 6999TIP3   OH220937   3.126   7.585   5.741
 6999TIP3    H120938   3.096   7.626   5.823
 6999TIP3    H220939   3.062   7.613   5.676
 7000TIP3   OH220940   7.353   4.522   6.386
 7000TIP3    H120941   7.326   4.614   6.377
 7000TIP3    H220942   7.448   4.524   6.374
 7001TIP3   OH220943   7.547   3.202   6.641
 7001TIP3    H120944   7.609   3.192   6.714
 7001TIP3    H220945   7.475   3.252   6.678
 7002TIP3   OH220946   4.263   5.417   5.524
 7002TIP3    H120947   4.311   5.356   5.580
 7002TIP3    H220948   4.175   5.419   5.561
 7003TIP3   OH220949   2.324   6.975   2.176
 7003TIP3    H120950   2.371   6.984   2.259
 7003TIP3    H220951   2.320   6.881   2.161
 7004TIP3   OH220952   7.867   7.515   4.753
 7004TIP3    H120953   7.780   7.544   4.780
 7004TIP3    H220954   7.927   7.579   4.791
 7005TIP3   OH220955   3.478   7.329   0.036
 7005TIP3    H120956   3.513   7.411   0.001
 7005TIP3    H220957   3.443   7.352   0.122
 7006TIP3   OH220958   4.526   3.573   6.455
 7006TIP3    H120959   4.569   3.647   6.413
 7006TIP3    H220960   4.525   3.504   6.389
 7007TIP3   OH220961   6.591   0.281   1.634
 7007TIP3    H120962   6.506   0.319   1.653
 7007TIP3    H220963   6.647   0.312   1.706
 7008TIP3   OH220964   0.680   3.310   3.218
 7008TIP3    H120965   0.694   3.232   3.273
 7008TIP3    H220966   0.708   3.282   3.130
 7009TIP3   OH220967   0.749   3.317   2.046
 7009TIP3    H120968   0.842   3.320   2.024
 7009TIP3    H220969   0.747   3.313   2.141
 7010TIP3   OH220970   2.582   1.601   6.703
 7010TIP3    H120971   2.611   1.544   6.774
 7010TIP3    H220972   2.620   1.686   6.724
 7011TIP3   OH220973   2.484   7.866   0.172
 7011TIP3    H120974   2.446   7.806   0.235
 7011TIP3    H220975   2.448   7.952   0.195
 7012TIP3   OH220976   7.242   2.612   6.698
 7012TIP3    H120977   7.312   2.642   6.756
 7012TIP3    H220978   7.252   2.517   6.695
 7013TIP3   OH220979   0.734   1.422   4.038
 7013TIP3    H120980   0.809   1.410   4.097
 7013TIP3    H220981   0.740   1.349   3.977
 7014TIP3   OH220982   1.091   2.125   5.965
 7014TIP3    H120983   1.045   2.051   5.925
 7014TIP3    H220984   1.116   2.095   6.052
 7015TIP3   OH220985   7.917   7.785   5.361
 7015TIP3    H120986   7.888   7.872   5.333
 7015TIP3    H220987   7.841   7.728   5.348
 7016TIP3   OH220988   7.363   4.334   5.323
 7016TIP3    H120989   7.403   4.305   5.405
 7016TIP3    H220990   7.270   4.314   5.334
 7017TIP3   OH220991   3.882   5.535   3.546
 7017TIP3    H120992   3.960   5.488   3.575
 7017TIP3    H220993   3.826   5.539   3.624
 7018TIP3   OH220994   1.872   3.130   5.543
 7018TIP3    H120995   1.802   3.191   5.568
 7018TIP3    H220996   1.951   3.166   5.584
 7019TIP3   OH220997   6.580   7.140   5.609
 7019TIP3    H120998   6.630   7.222   5.616
 7019TIP3    H220999   6.504   7.163   5.556
 7020TIP3   OH221000   4.758   0.846   6.587
 7020TIP3    H121001   4.808   0.845   6.669
 7020TIP3    H221002   4.779   0.931   6.547
 7021TIP3   OH221003   2.497   2.151   0.924
 7021TIP3    H121004   2.505   2.237   0.882
 7021TIP3    H221005   2.510   2.089   0.852
 7022TIP3   OH221006   6.180   5.443   0.486
 7022TIP3    H121007   6.207   5.382   0.418
 7022TIP3    H221008   6.262   5.479   0.520
 7023TIP3   OH221009   4.014   4.806   0.930
 7023TIP3    H121010   4.046   4.783   1.017
 7023TIP3    H221011   4.091   4.797   0.873
 7024TIP3   OH221012   5.195   4.428   2.408
 7024TIP3    H121013   5.225   4.406   2.320
 7024TIP3    H221014   5.190   4.344   2.454
 7025TIP3   OH221015   7.281   2.993   1.305
 7025TIP3    H121016   7.275   2.902   1.336
 7025TIP3    H221017   7.194   3.013   1.271
 7026TIP3   OH221018   3.129   4.160   1.007
 7026TIP3    H121019   3.057   4.215   0.976
 7026TIP3    H221020   3.183   4.219   1.059
 7027TIP3   OH221021   4.438   2.976   2.241
 7027TIP3    H121022   4.378   2.989   2.314
 7027TIP3    H221023   4.517   2.938   2.281
 7028TIP3   OH221024   7.137   6.606   0.898
 7028TIP3    H121025   7.214   6.549   0.898
 7028TIP3    H221026   7.122   6.628   0.806
 7029TIP3   OH221027   7.013   1.599   3.016
 7029TIP3    H121028   7.060   1.518   3.036
 7029TIP3    H221029   6.965   1.619   3.097
 7030TIP3   OH221030   2.874   3.614   4.174
 7030TIP3    H121031   2.869   3.698   4.219
 7030TIP3    H221032   2.863   3.635   4.081
 7031TIP3   OH221033   6.102   7.499   2.685
 7031TIP3    H121034   6.197   7.497   2.673
 7031TIP3    H221035   6.066   7.488   2.597
 7032TIP3   OH221036   7.584   5.496   5.063
 7032TIP3    H121037   7.584   5.527   4.973
 7032TIP3    H221038   7.503   5.446   5.072
 7033TIP3   OH221039   6.289   6.130   3.927
 7033TIP3    H121040   6.351   6.077   3.977
 7033TIP3    H221041   6.284   6.213   3.975
 7034TIP3   OH221042   7.577   6.282   5.227
 7034TIP3    H121043   7.557   6.373   5.250
 7034TIP3    H221044   7.501   6.232   5.258
 7035TIP3   OH221045   8.196   4.669   0.041
 7035TIP3    H121046   8.170   4.657   0.132
 7035TIP3    H221047   8.187   4.763   0.025
 7036TIP3   OH221048   8.083   5.791   6.530
 7036TIP3    H121049   8.006   5.839   6.559
 7036TIP3    H221050   8.156   5.834   6.575
 7037TIP3   OH221051   5.897   6.516   3.008
 7037TIP3    H121052   5.911   6.486   3.098
 7037TIP3    H221053   5.909   6.437   2.955
 7038TIP3   OH221054   4.744   4.279   3.619
 7038TIP3    H121055   4.725   4.364   3.657
 7038TIP3    H221056   4.726   4.216   3.689
 7039TIP3   OH221057   3.052   1.331   6.081
 7039TIP3    H121058   3.136   1.367   6.110
 7039TIP3    H221059   3.036   1.372   5.996
 7040TIP3   OH221060   7.475   3.947   0.622
 7040TIP3    H121061   7.503   4.036   0.601
 7040TIP3    H221062   7.523   3.891   0.560
 7041TIP3   OH221063   3.261   1.535   3.451
 7041TIP3    H121064   3.253   1.626   3.423
 7041TIP3    H221065   3.332   1.500   3.398
 7042TIP3   OH221066   0.913   3.815   3.454
 7042TIP3    H121067   0.960   3.815   3.370
 7042TIP3    H221068   0.841   3.753   3.441
 7043TIP3   OH221069   1.440   5.692   1.755
 7043TIP3    H121070   1.492   5.752   1.808
 7043TIP3    H221071   1.428   5.738   1.672
 7044TIP3   OH221072   6.433   0.993   4.355
 7044TIP3    H121073   6.446   0.971   4.262
 7044TIP3    H221074   6.521   1.005   4.389
 7045TIP3   OH221075   1.113   4.701   5.455
 7045TIP3    H121076   1.048   4.674   5.390
 7045TIP3    H221077   1.063   4.754   5.517
 7046TIP3   OH221078   7.080   3.047   6.002
 7046TIP3    H121079   6.999   3.053   6.052
 7046TIP3    H221080   7.103   2.954   6.005
 7047TIP3   OH221081   3.926   0.071   3.868
 7047TIP3    H121082   3.921   0.103   3.958
 7047TIP3    H221083   4.018   0.048   3.856
 7048TIP3   OH221084   5.958   2.136   5.014
 7048TIP3    H121085   6.051   2.116   5.025
 7048TIP3    H221086   5.946   2.144   4.919
 7049TIP3   OH221087   1.629   1.027   6.804
 7049TIP3    H121088   1.561   1.008   6.739
 7049TIP3    H221089   1.620   0.957   6.868
 7050TIP3   OH221090   7.398   5.181   3.184
 7050TIP3    H121091   7.442   5.252   3.230
 7050TIP3    H221092   7.305   5.204   3.188
 7051TIP3   OH221093   0.891   2.821   3.962
 7051TIP3    H121094   0.932   2.908   3.968
 7051TIP3    H221095   0.806   2.832   4.004
 7052TIP3   OH221096   7.402   7.000   2.300
 7052TIP3    H121097   7.448   6.977   2.381
 7052TIP3    H221098   7.320   7.041   2.330
 7053TIP3   OH221099   0.182   3.228   5.942
 7053TIP3    H121100   0.181   3.283   6.021
 7053TIP3    H221101   0.140   3.281   5.875
 7054TIP3   OH221102   5.483   7.540   4.622
 7054TIP3    H121103   5.571   7.503   4.633
 7054TIP3    H221104   5.428   7.464   4.603
 7055TIP3   OH221105   0.148   5.795   3.209
 7055TIP3    H121106   0.228   5.766   3.254
 7055TIP3    H221107   0.180   5.848   3.136
 7056TIP3   OH221108   7.117   0.341   5.118
 7056TIP3    H121109   7.133   0.305   5.031
 7056TIP3    H221110   7.082   0.428   5.101
 7057TIP3   OH221111   6.621   2.300   1.967
 7057TIP3    H121112   6.687   2.334   2.028
 7057TIP3    H221113   6.625   2.205   1.979
 7058TIP3   OH221114   7.425   3.665   2.166
 7058TIP3    H121115   7.365   3.671   2.241
 7058TIP3    H221116   7.450   3.573   2.163
 7059TIP3   OH221117   4.567   2.112   0.571
 7059TIP3    H121118   4.484   2.070   0.547
 7059TIP3    H221119   4.581   2.087   0.662
 7060TIP3   OH221120   5.207   6.986   0.452
 7060TIP3    H121121   5.291   6.947   0.478
 7060TIP3    H221122   5.153   6.980   0.531
 7061TIP3   OH221123   7.107   5.001   5.126
 7061TIP3    H121124   7.021   5.009   5.166
 7061TIP3    H221125   7.089   4.993   5.032
 7062TIP3   OH221126   3.855   1.784   6.518
 7062TIP3    H121127   3.848   1.793   6.613
 7062TIP3    H221128   3.807   1.859   6.483
 7063TIP3   OH221129   7.691   7.630   6.664
 7063TIP3    H121130   7.728   7.712   6.633
 7063TIP3    H221131   7.639   7.598   6.591
 7064TIP3   OH221132   7.478   0.528   1.218
 7064TIP3    H121133   7.480   0.479   1.135
 7064TIP3    H221134   7.391   0.568   1.220
 7065TIP3   OH221135   2.013   5.453   4.975
 7065TIP3    H121136   1.979   5.518   5.036
 7065TIP3    H221137   1.943   5.441   4.911
 7066TIP3   OH221138   0.283   6.573   1.675
 7066TIP3    H121139   0.305   6.597   1.585
 7066TIP3    H221140   0.189   6.590   1.682
 7067TIP3   OH221141   0.350   3.899   2.049
 7067TIP3    H121142   0.427   3.915   2.103
 7067TIP3    H221143   0.350   3.970   1.985
 7068TIP3   OH221144   7.561   7.161   1.839
 7068TIP3    H121145   7.538   7.212   1.917
 7068TIP3    H221146   7.505   7.195   1.770
 7069TIP3   OH221147   2.633   2.987   4.077
 7069TIP3    H121148   2.676   2.997   3.992
 7069TIP3    H221149   2.557   3.045   4.072
 7070TIP3   OH221150   1.727   4.249   1.221
 7070TIP3    H121151   1.659   4.182   1.215
 7070TIP3    H221152   1.762   4.240   1.310
 7071TIP3   OH221153   3.780   4.248   4.447
 7071TIP3    H121154   3.771   4.234   4.352
 7071TIP3    H221155   3.844   4.183   4.474
 7072TIP3   OH221156   0.262   2.101   4.228
 7072TIP3    H121157   0.289   2.093   4.319
 7072TIP3    H221158   0.220   2.186   4.223
 7073TIP3   OH221159   0.065   3.519   0.807
 7073TIP3    H121160   0.069   3.546   0.899
 7073TIP3    H221161   0.134   3.453   0.799
 7074TIP3   OH221162   4.827   4.649   3.405
 7074TIP3    H121163   4.786   4.680   3.486
 7074TIP3    H221164   4.921   4.650   3.424
 7075TIP3   OH221165   1.368   5.001   1.970
 7075TIP3    H121166   1.286   5.022   2.015
 7075TIP3    H221167   1.417   5.083   1.970
 7076TIP3   OH221168   3.329   0.986   4.497
 7076TIP3    H121169   3.384   1.030   4.432
 7076TIP3    H221170   3.251   0.959   4.448
 7077TIP3   OH221171   5.700   6.189   2.600
 7077TIP3    H121172   5.634   6.222   2.539
 7077TIP3    H221173   5.737   6.113   2.557
 7078TIP3   OH221174   3.298   2.701   5.075
 7078TIP3    H121175   3.347   2.622   5.053
 7078TIP3    H221176   3.317   2.715   5.168
 7079TIP3   OH221177   1.071   1.794   0.888
 7079TIP3    H121178   1.053   1.705   0.919
 7079TIP3    H221179   1.159   1.790   0.850
 7080TIP3   OH221180   7.939   0.389   2.033
 7080TIP3    H121181   7.869   0.420   2.091
 7080TIP3    H221182   7.983   0.470   2.005
 7081TIP3   OH221183   4.505   6.993   2.839
 7081TIP3    H121184   4.601   6.993   2.837
 7081TIP3    H221185   4.482   7.066   2.895
 7082TIP3   OH221186   7.953   7.847   0.507
 7082TIP3    H121187   7.960   7.800   0.589
 7082TIP3    H221188   8.029   7.905   0.506
 7083TIP3   OH221189   0.203   7.375   6.547
 7083TIP3    H121190   0.199   7.286   6.584
 7083TIP3    H221191   0.291   7.406   6.571
 7084TIP3   OH221192   3.155   6.137   1.805
 7084TIP3    H121193   3.245   6.134   1.837
 7084TIP3    H221194   3.162   6.177   1.718
 7085TIP3   OH221195   3.676   0.837   6.431
 7085TIP3    H121196   3.628   0.909   6.471
 7085TIP3    H221197   3.727   0.877   6.361
 7086TIP3   OH221198   1.674   4.573   4.331
 7086TIP3    H121199   1.735   4.637   4.296
 7086TIP3    H221200   1.606   4.625   4.374
 7087TIP3   OH221201   6.192   5.221   2.294
 7087TIP3    H121202   6.266   5.236   2.352
 7087TIP3    H221203   6.229   5.222   2.206
 7088TIP3   OH221204   1.826   5.486   3.753
 7088TIP3    H121205   1.865   5.488   3.840
 7088TIP3    H221206   1.752   5.426   3.761
 7089TIP3   OH221207   3.318   2.518   2.498
 7089TIP3    H121208   3.403   2.481   2.476
 7089TIP3    H221209   3.273   2.449   2.546
 7090TIP3   OH221210   6.319   1.676   1.503
 7090TIP3    H121211   6.350   1.675   1.593
 7090TIP3    H221212   6.260   1.752   1.498
 7091TIP3   OH221213   7.197   4.344   0.171
 7091TIP3    H121214   7.206   4.249   0.166
 7091TIP3    H221215   7.267   4.378   0.115
 7092TIP3   OH221216   3.023   2.679   2.817
 7092TIP3    H121217   3.114   2.668   2.843
 7092TIP3    H221218   3.019   2.767   2.779
 7093TIP3   OH221219   2.678   6.082   3.167
 7093TIP3    H121220   2.616   6.141   3.122
 7093TIP3    H221221   2.673   6.109   3.259
 7094TIP3   OH221222   0.512   1.870   1.444
 7094TIP3    H121223   0.606   1.864   1.427
 7094TIP3    H221224   0.471   1.863   1.358
 7095TIP3   OH221225   1.666   2.306   3.270
 7095TIP3    H121226   1.667   2.303   3.175
 7095TIP3    H221227   1.608   2.379   3.292
 7096TIP3   OH221228   3.682   4.571   6.436
 7096TIP3    H121229   3.648   4.489   6.400
 7096TIP3    H221230   3.669   4.563   6.531
 7097TIP3   OH221231   0.398   6.221   5.411
 7097TIP3    H121232   0.438   6.290   5.463
 7097TIP3    H221233   0.366   6.265   5.332
 7098TIP3   OH221234   4.859   1.286   2.246
 7098TIP3    H121235   4.885   1.193   2.248
 7098TIP3    H221236   4.804   1.293   2.168
 7099TIP3   OH221237   2.064   1.482   1.472
 7099TIP3    H121238   1.984   1.527   1.501
 7099TIP3    H221239   2.069   1.405   1.529
 7100TIP3   OH221240   3.379   4.483   3.909
 7100TIP3    H121241   3.389   4.462   4.001
 7100TIP3    H221242   3.449   4.436   3.865
 7101TIP3   OH221243   7.432   0.775   2.149
 7101TIP3    H121244   7.514   0.751   2.192
 7101TIP3    H221245   7.397   0.692   2.117
 7102TIP3   OH221246   0.347   3.074   1.421
 7102TIP3    H121247   0.330   3.151   1.475
 7102TIP3    H221248   0.400   3.017   1.476
 7103TIP3   OH221249   1.375   4.831   0.117
 7103TIP3    H121250   1.304   4.781   0.076
 7103TIP3    H221251   1.354   4.828   0.211
 7104TIP3   OH221252   4.337   3.534   4.423
 7104TIP3    H121253   4.383   3.568   4.345
 7104TIP3    H221254   4.378   3.449   4.439
 7105TIP3   OH221255   7.310   6.974   3.678
 7105TIP3    H121256   7.318   7.068   3.691
 7105TIP3    H221257   7.272   6.942   3.760
 7106TIP3   OH221258   2.515   0.680   1.060
 7106TIP3    H121259   2.423   0.688   1.083
 7106TIP3    H221260   2.547   0.771   1.056
 7107TIP3   OH221261   7.671   2.028   1.007
 7107TIP3    H121262   7.614   2.032   0.930
 7107TIP3    H221263   7.742   2.089   0.987
 7108TIP3   OH221264   0.158   3.259   1.553
 7108TIP3    H121265   0.073   3.225   1.580
 7108TIP3    H221266   0.143   3.352   1.534
 7109TIP3   OH221267   7.905   5.781   4.539
 7109TIP3    H121268   7.896   5.867   4.496
 7109TIP3    H221269   7.925   5.721   4.468
 7110TIP3   OH221270   0.647   5.142   4.325
 7110TIP3    H121271   0.696   5.190   4.391
 7110TIP3    H221272   0.566   5.192   4.314
 7111TIP3   OH221273   1.568   5.388   5.883
 7111TIP3    H121274   1.598   5.462   5.936
 7111TIP3    H221275   1.563   5.422   5.794
 7112TIP3   OH221276   5.300   0.185   1.816
 7112TIP3    H121277   5.231   0.247   1.838
 7112TIP3    H221278   5.265   0.100   1.839
 7113TIP3   OH221279   3.070   0.259   3.508
 7113TIP3    H121280   3.048   0.352   3.513
 7113TIP3    H221281   3.109   0.239   3.593
 7114TIP3   OH221282   0.230   6.812   2.260
 7114TIP3    H121283   0.239   6.905   2.280
 7114TIP3    H221284   0.263   6.803   2.171
 7115TIP3   OH221285   1.434   6.968   4.058
 7115TIP3    H121286   1.517   7.005   4.088
 7115TIP3    H221287   1.369   7.034   4.080
 7116TIP3   OH221288   7.710   6.243   0.653
 7116TIP3    H121289   7.655   6.175   0.612
 7116TIP3    H221290   7.683   6.243   0.745
 7117TIP3   OH221291   4.848   2.775   0.599
 7117TIP3    H121292   4.813   2.751   0.686
 7117TIP3    H221293   4.845   2.693   0.549
 7118TIP3   OH221294   5.959   2.276   3.675
 7118TIP3    H121295   6.054   2.292   3.681
 7118TIP3    H221296   5.942   2.209   3.740
 7119TIP3   OH221297   8.199   6.515   4.869
 7119TIP3    H121298   8.212   6.487   4.960
 7119TIP3    H221299   8.153   6.598   4.876
 7120TIP3   OH221300   8.036   2.958   3.985
 7120TIP3    H121301   8.105   2.910   3.938
 7120TIP3    H221302   8.025   2.909   4.066
 7121TIP3   OH221303   0.096   5.050   3.525
 7121TIP3    H121304   0.055   5.136   3.541
 7121TIP3    H221305   0.149   5.063   3.447
 7122TIP3   OH221306   3.546   7.604   4.658
 7122TIP3    H121307   3.536   7.620   4.564
 7122TIP3    H221308   3.474   7.654   4.698
 7123TIP3   OH221309   4.407   5.865   4.070
 7123TIP3    H121310   4.369   5.931   4.128
 7123TIP3    H221311   4.449   5.915   4.000
 7124TIP3   OH221312   7.362   2.534   0.415
 7124TIP3    H121313   7.286   2.592   0.422
 7124TIP3    H221314   7.342   2.476   0.342
 7125TIP3   OH221315   6.239   3.574   5.185
 7125TIP3    H121316   6.330   3.549   5.206
 7125TIP3    H221317   6.223   3.535   5.100
 7126TIP3   OH221318   6.319   4.496   4.106
 7126TIP3    H121319   6.278   4.532   4.028
 7126TIP3    H221320   6.399   4.454   4.075
 7127TIP3   OH221321   6.087   3.904   6.516
 7127TIP3    H121322   6.074   3.982   6.570
 7127TIP3    H221323   6.179   3.909   6.488
 7128TIP3   OH221324   3.095   4.808   1.788
 7128TIP3    H121325   3.165   4.751   1.821
 7128TIP3    H221326   3.050   4.839   1.866
 7129TIP3   OH221327   2.835   7.049   4.868
 7129TIP3    H121328   2.896   7.103   4.921
 7129TIP3    H221329   2.801   7.110   4.803
 7130TIP3   OH221330   3.921   4.049   0.264
 7130TIP3    H121331   3.842   4.093   0.234
 7130TIP3    H221332   3.981   4.054   0.190
 7131TIP3   OH221333   4.767   7.612   2.669
 7131TIP3    H121334   4.789   7.571   2.752
 7131TIP3    H221335   4.848   7.607   2.618
 7132TIP3   OH221336   7.850   7.242   1.349
 7132TIP3    H121337   7.898   7.208   1.424
 7132TIP3    H221338   7.765   7.197   1.352
 7133TIP3   OH221339   1.789   6.889   1.483
 7133TIP3    H121340   1.732   6.868   1.408
 7133TIP3    H221341   1.768   6.979   1.505
 7134TIP3   OH221342   4.534   5.241   1.085
 7134TIP3    H121343   4.490   5.253   1.001
 7134TIP3    H221344   4.468   5.199   1.141
 7135TIP3   OH221345   4.483   1.014   3.083
 7135TIP3    H121346   4.424   0.953   3.128
 7135TIP3    H221347   4.461   1.099   3.120
 7136TIP3   OH221348   0.731   3.094   2.748
 7136TIP3    H121349   0.783   3.153   2.694
 7136TIP3    H221350   0.662   3.062   2.689
 7137TIP3   OH221351   2.162   4.221   1.276
 7137TIP3    H121352   2.129   4.170   1.202
 7137TIP3    H221353   2.144   4.312   1.253
 7138TIP3   OH221354   3.125   5.619   1.037
 7138TIP3    H121355   3.161   5.664   0.960
 7138TIP3    H221356   3.033   5.607   1.017
 7139TIP3   OH221357   2.334   2.774   0.581
 7139TIP3    H121358   2.341   2.682   0.556
 7139TIP3    H221359   2.415   2.814   0.551
 7140TIP3   OH221360   1.268   4.171   5.969
 7140TIP3    H121361   1.243   4.253   5.928
 7140TIP3    H221362   1.206   4.107   5.933
 7141TIP3   OH221363   3.781   0.864   4.096
 7141TIP3    H121364   3.724   0.941   4.087
 7141TIP3    H221365   3.721   0.790   4.099
 7142TIP3   OH221366   6.665   5.431   0.958
 7142TIP3    H121367   6.584   5.381   0.952
 7142TIP3    H221368   6.639   5.521   0.940
 7143TIP3   OH221369   2.183   4.756   3.569
 7143TIP3    H121370   2.211   4.843   3.600
 7143TIP3    H221371   2.253   4.728   3.510
 7144TIP3   OH221372   6.987   6.189   1.353
 7144TIP3    H121373   6.919   6.252   1.379
 7144TIP3    H221374   6.940   6.106   1.344
 7145TIP3   OH221375   4.416   5.243   4.743
 7145TIP3    H121376   4.325   5.264   4.722
 7145TIP3    H221377   4.459   5.234   4.659
 7146TIP3   OH221378   7.774   7.652   6.342
 7146TIP3    H121379   7.712   7.655   6.416
 7146TIP3    H221380   7.718   7.648   6.264
 7147TIP3   OH221381   1.500   4.337   0.643
 7147TIP3    H121382   1.482   4.243   0.634
 7147TIP3    H221383   1.521   4.366   0.555
 7148TIP3   OH221384   7.061   6.772   2.929
 7148TIP3    H121385   7.116   6.767   3.008
 7148TIP3    H221386   7.073   6.862   2.898
 7149TIP3   OH221387   0.959   5.557   5.597
 7149TIP3    H121388   1.051   5.577   5.583
 7149TIP3    H221389   0.939   5.491   5.530
 7150TIP3   OH221390   6.279   0.224   5.077
 7150TIP3    H121391   6.345   0.235   5.145
 7150TIP3    H221392   6.321   0.256   4.997
 7151TIP3   OH221393   0.040   5.729   2.089
 7151TIP3    H121394   0.129   5.695   2.089
 7151TIP3    H221395   0.010   5.717   1.999
 7152TIP3   OH221396   1.516   2.610   4.169
 7152TIP3    H121397   1.455   2.671   4.212
 7152TIP3    H221398   1.529   2.540   4.232
 7153TIP3   OH221399   5.565   4.608   5.144
 7153TIP3    H121400   5.538   4.698   5.125
 7153TIP3    H221401   5.520   4.586   5.225
 7154TIP3   OH221402   7.215   6.616   5.562
 7154TIP3    H121403   7.155   6.690   5.554
 7154TIP3    H221404   7.186   6.554   5.496
 7155TIP3   OH221405   3.598   2.365   5.840
 7155TIP3    H121406   3.527   2.394   5.783
 7155TIP3    H221407   3.643   2.297   5.789
 7156TIP3   OH221408   7.069   0.640   2.970
 7156TIP3    H121409   6.994   0.661   3.025
 7156TIP3    H221410   7.035   0.643   2.880
 7157TIP3   OH221411   1.184   6.652   3.468
 7157TIP3    H121412   1.188   6.734   3.419
 7157TIP3    H221413   1.262   6.603   3.440
 7158TIP3   OH221414   7.650   5.539   3.557
 7158TIP3    H121415   7.712   5.499   3.496
 7158TIP3    H221416   7.621   5.467   3.613
 7159TIP3   OH221417   1.245   6.176   4.294
 7159TIP3    H121418   1.308   6.237   4.256
 7159TIP3    H221419   1.177   6.166   4.228
 7160TIP3   OH221420   8.206   7.095   0.940
 7160TIP3    H121421   8.275   7.037   0.972
 7160TIP3    H221422   8.136   7.087   1.005
 7161TIP3   OH221423   1.609   5.307   2.662
 7161TIP3    H121424   1.685   5.365   2.648
 7161TIP3    H221425   1.546   5.362   2.708
 7162TIP3   OH221426   3.540   0.893   5.130
 7162TIP3    H121427   3.488   0.964   5.093
 7162TIP3    H221428   3.615   0.885   5.073
 7163TIP3   OH221429   5.727   7.558   5.413
 7163TIP3    H121430   5.784   7.582   5.487
 7163TIP3    H221431   5.683   7.479   5.442
 7164TIP3   OH221432   5.835   1.665   4.068
 7164TIP3    H121433   5.835   1.607   4.145
 7164TIP3    H221434   5.822   1.752   4.104
 7165TIP3   OH221435   1.779   5.389   0.739
 7165TIP3    H121436   1.858   5.352   0.699
 7165TIP3    H221437   1.720   5.404   0.665
 7166TIP3   OH221438   1.202   3.347   3.404
 7166TIP3    H121439   1.110   3.320   3.394
 7166TIP3    H221440   1.200   3.442   3.392
 7167TIP3   OH221441   5.097   3.965   1.678
 7167TIP3    H121442   5.008   3.999   1.671
 7167TIP3    H221443   5.136   4.013   1.751
 7168TIP3   OH221444   5.244   1.236   0.800
 7168TIP3    H121445   5.306   1.168   0.773
 7168TIP3    H221446   5.258   1.245   0.894
 7169TIP3   OH221447   1.381   1.225   5.938
 7169TIP3    H121448   1.350   1.137   5.918
 7169TIP3    H221449   1.336   1.280   5.873
 7170TIP3   OH221450   7.061   1.265   2.539
 7170TIP3    H121451   7.022   1.327   2.478
 7170TIP3    H221452   6.988   1.235   2.593
 7171TIP3   OH221453   2.235   0.082   4.692
 7171TIP3    H121454   2.297   0.031   4.640
 7171TIP3    H221455   2.155   0.030   4.691
 7172TIP3   OH221456   8.354   3.909   2.020
 7172TIP3    H121457   8.268   3.950   2.029
 7172TIP3    H221458   8.395   3.919   2.106
 7173TIP3   OH221459   7.620   4.994   2.480
 7173TIP3    H121460   7.589   4.987   2.570
 7173TIP3    H221461   7.634   4.903   2.453
 7174TIP3   OH221462   4.478   2.373   2.922
 7174TIP3    H121463   4.557   2.327   2.894
 7174TIP3    H221464   4.428   2.308   2.971
 7175TIP3   OH221465   7.462   6.838   3.119
 7175TIP3    H121466   7.435   6.790   3.197
 7175TIP3    H221467   7.488   6.924   3.152
 7176TIP3   OH221468   5.033   0.273   6.298
 7176TIP3    H121469   5.077   0.236   6.375
 7176TIP3    H221470   4.974   0.340   6.333
 7177TIP3   OH221471   6.616   6.227   2.362
 7177TIP3    H121472   6.633   6.303   2.417
 7177TIP3    H221473   6.545   6.255   2.305
 7178TIP3   OH221474   0.543   2.763   3.710
 7178TIP3    H121475   0.632   2.744   3.682
 7178TIP3    H221476   0.513   2.683   3.753
 7179TIP3   OH221477   5.822   3.934   5.003
 7179TIP3    H121478   5.896   3.907   4.948
 7179TIP3    H221479   5.765   3.983   4.944
 7180TIP3   OH221480   2.015   2.719   2.623
 7180TIP3    H121481   2.010   2.702   2.529
 7180TIP3    H221482   1.991   2.811   2.632
 7181TIP3   OH221483   3.442   7.770   3.584
 7181TIP3    H121484   3.438   7.690   3.532
 7181TIP3    H221485   3.354   7.806   3.579
 7182TIP3   OH221486   4.599   4.596   0.085
 7182TIP3    H121487   4.676   4.648   0.109
 7182TIP3    H221488   4.633   4.507   0.077
 7183TIP3   OH221489   7.228   4.114   0.551
 7183TIP3    H121490   7.293   4.049   0.524
 7183TIP3    H221491   7.279   4.193   0.566
 7184TIP3   OH221492   3.266   3.881   4.243
 7184TIP3    H121493   3.358   3.894   4.223
 7184TIP3    H221494   3.246   3.943   4.312
 7185TIP3   OH221495   7.868   3.383   1.884
 7185TIP3    H121496   7.895   3.346   1.968
 7185TIP3    H221497   7.807   3.453   1.907
 7186TIP3   OH221498   7.586   2.549   1.860
 7186TIP3    H121499   7.599   2.534   1.767
 7186TIP3    H221500   7.520   2.484   1.886
 7187TIP3   OH221501   7.456   5.337   1.026
 7187TIP3    H121502   7.387   5.285   1.067
 7187TIP3    H221503   7.531   5.278   1.022
 7188TIP3   OH221504   1.933   2.446   2.396
 7188TIP3    H121505   1.918   2.377   2.460
 7188TIP3    H221506   1.849   2.459   2.353
 7189TIP3   OH221507   6.643   7.670   2.603
 7189TIP3    H121508   6.624   7.636   2.516
 7189TIP3    H221509   6.735   7.698   2.599
 7190TIP3   OH221510   0.507   0.808   1.779
 7190TIP3    H121511   0.584   0.751   1.786
 7190TIP3    H221512   0.543   0.896   1.772
 7191TIP3   OH221513   2.273   0.377   3.829
 7191TIP3    H121514   2.327   0.344   3.901
 7191TIP3    H221515   2.311   0.337   3.750
 7192TIP3   OH221516   1.845   6.118   3.564
 7192TIP3    H121517   1.793   6.096   3.487
 7192TIP3    H221518   1.899   6.192   3.536
 7193TIP3   OH221519   6.026   2.898   3.879
 7193TIP3    H121520   6.066   2.948   3.808
 7193TIP3    H221521   5.961   2.957   3.918
 7194TIP3   OH221522   7.104   1.286   5.065
 7194TIP3    H121523   7.063   1.264   4.981
 7194TIP3    H221524   7.192   1.316   5.041
 7195TIP3   OH221525   0.440   4.148   3.050
 7195TIP3    H121526   0.505   4.153   2.981
 7195TIP3    H221527   0.458   4.223   3.106
 7196TIP3   OH221528   1.566   3.621   2.222
 7196TIP3    H121529   1.628   3.569   2.272
 7196TIP3    H221530   1.520   3.674   2.288
 7197TIP3   OH221531   4.311   1.483   2.828
 7197TIP3    H121532   4.242   1.546   2.846
 7197TIP3    H221533   4.351   1.513   2.747
 7198TIP3   OH221534   6.675   1.215   5.635
 7198TIP3    H121535   6.647   1.141   5.689
 7198TIP3    H221536   6.765   1.233   5.663
 7199TIP3   OH221537   3.507   2.229   2.014
 7199TIP3    H121538   3.514   2.138   2.043
 7199TIP3    H221539   3.419   2.236   1.977
 7200TIP3   OH221540   6.777   5.041   5.809
 7200TIP3    H121541   6.825   4.962   5.835
 7200TIP3    H221542   6.690   5.029   5.847
 7201TIP3   OH221543   6.321   7.203   4.610
 7201TIP3    H121544   6.410   7.179   4.586
 7201TIP3    H221545   6.287   7.125   4.654
 7202TIP3   OH221546   8.013   2.322   1.235
 7202TIP3    H121547   7.939   2.322   1.296
 7202TIP3    H221548   8.090   2.306   1.291
 7203TIP3   OH221549   3.242   2.709   5.919
 7203TIP3    H121550   3.170   2.709   5.982
 7203TIP3    H221551   3.291   2.789   5.939
 7204TIP3   OH221552   7.757   6.916   4.264
 7204TIP3    H121553   7.754   6.971   4.342
 7204TIP3    H221554   7.811   6.841   4.289
 7205TIP3   OH221555   1.656   4.999   3.654
 7205TIP3    H121556   1.630   4.907   3.640
 7205TIP3    H221557   1.671   5.032   3.565
 7206TIP3   OH221558   3.395   3.852   3.910
 7206TIP3    H121559   3.441   3.770   3.892
 7206TIP3    H221560   3.410   3.869   4.003
 7207TIP3   OH221561   1.345   0.958   4.284
 7207TIP3    H121562   1.323   1.050   4.294
 7207TIP3    H221563   1.264   0.912   4.306
 7208TIP3   OH221564   0.712   7.313   6.613
 7208TIP3    H121565   0.638   7.354   6.568
 7208TIP3    H221566   0.688   7.313   6.705
 7209TIP3   OH221567   3.718   3.830   4.478
 7209TIP3    H121568   3.770   3.910   4.468
 7209TIP3    H221569   3.757   3.768   4.416
 7210TIP3   OH221570   1.681   3.277   1.171
 7210TIP3    H121571   1.595   3.251   1.139
 7210TIP3    H221572   1.737   3.202   1.153
 7211TIP3   OH221573   6.412   3.325   6.600
 7211TIP3    H121574   6.370   3.411   6.607
 7211TIP3    H221575   6.390   3.281   6.682
 7212TIP3   OH221576   4.081   7.415   5.883
 7212TIP3    H121577   4.081   7.356   5.807
 7212TIP3    H221578   4.024   7.371   5.947
 7213TIP3   OH221579   7.429   6.812   6.728
 7213TIP3    H121580   7.445   6.862   6.648
 7213TIP3    H221581   7.438   6.877   6.799
 7214TIP3   OH221582   1.490   2.867   6.805
 7214TIP3    H121583   1.557   2.928   6.833
 7214TIP3    H221584   1.412   2.921   6.790
 7215TIP3   OH221585   7.456   1.189   3.029
 7215TIP3    H121586   7.530   1.212   3.086
 7215TIP3    H221587   7.432   1.101   3.056
 7216TIP3   OH221588   4.390   5.844   1.743
 7216TIP3    H121589   4.474   5.803   1.763
 7216TIP3    H221590   4.329   5.771   1.735
 7217TIP3   OH221591   6.932   4.433   5.854
 7217TIP3    H121592   6.866   4.386   5.801
 7217TIP3    H221593   6.916   4.403   5.943
 7218TIP3   OH221594   1.895   1.438   0.098
 7218TIP3    H121595   1.901   1.504   0.028
 7218TIP3    H221596   1.801   1.420   0.106
 7219TIP3   OH221597   1.305   2.053   5.682
 7219TIP3    H121598   1.257   2.135   5.686
 7219TIP3    H221599   1.394   2.076   5.710
 7220TIP3   OH221600   5.856   4.227   0.571
 7220TIP3    H121601   5.773   4.236   0.524
 7220TIP3    H221602   5.901   4.154   0.528
 7221TIP3   OH221603   4.092   0.235   0.672
 7221TIP3    H121604   4.116   0.297   0.603
 7221TIP3    H221605   4.173   0.188   0.691
 7222TIP3   OH221606   0.169   6.243   3.679
 7222TIP3    H121607   0.249   6.293   3.664
 7222TIP3    H221608   0.144   6.211   3.592
 7223TIP3   OH221609   1.653   7.526   6.410
 7223TIP3    H121610   1.611   7.611   6.396
 7223TIP3    H221611   1.601   7.465   6.357
 7224TIP3   OH221612   5.810   1.274   4.031
 7224TIP3    H121613   5.786   1.198   3.979
 7224TIP3    H221614   5.747   1.342   4.004
 7225TIP3   OH221615   7.267   3.810   3.293
 7225TIP3    H121616   7.278   3.888   3.239
 7225TIP3    H221617   7.274   3.842   3.383
 7226TIP3   OH221618   0.623   0.876   2.316
 7226TIP3    H121619   0.649   0.887   2.225
 7226TIP3    H221620   0.580   0.791   2.319
 7227TIP3   OH221621   4.613   2.071   2.909
 7227TIP3    H121622   4.621   2.000   2.845
 7227TIP3    H221623   4.524   2.063   2.943
 7228TIP3   OH221624   6.109   2.807   1.714
 7228TIP3    H121625   6.180   2.744   1.704
 7228TIP3    H221626   6.149   2.892   1.698
 7229TIP3   OH221627   6.738   4.720   3.919
 7229TIP3    H121628   6.768   4.809   3.940
 7229TIP3    H221629   6.655   4.733   3.872
 7230TIP3   OH221630   0.647   6.265   4.634
 7230TIP3    H121631   0.655   6.298   4.723
 7230TIP3    H221632   0.712   6.314   4.584
 7231TIP3   OH221633   3.067   0.801   1.936
 7231TIP3    H121634   3.149   0.772   1.895
 7231TIP3    H221635   3.088   0.805   2.030
 7232TIP3   OH221636   8.256   3.425   3.183
 7232TIP3    H121637   8.302   3.454   3.104
 7232TIP3    H221638   8.184   3.372   3.150
 7233TIP3   OH221639   5.505   0.442   6.439
 7233TIP3    H121640   5.411   0.425   6.440
 7233TIP3    H221641   5.518   0.508   6.507
 7234TIP3   OH221642   7.574   4.359   2.165
 7234TIP3    H121643   7.665   4.332   2.149
 7234TIP3    H221644   7.522   4.289   2.124
 7235TIP3   OH221645   4.905   3.517   1.051
 7235TIP3    H121646   4.973   3.458   1.084
 7235TIP3    H221647   4.855   3.541   1.130
 7236TIP3   OH221648   8.034   4.352   4.779
 7236TIP3    H121649   8.058   4.441   4.804
 7236TIP3    H221650   8.104   4.324   4.720
 7237TIP3   OH221651   7.316   1.871   2.241
 7237TIP3    H121652   7.342   1.819   2.316
 7237TIP3    H221653   7.357   1.957   2.256
 7238TIP3   OH221654   5.681   0.986   5.392
 7238TIP3    H121655   5.701   0.896   5.365
 7238TIP3    H221656   5.761   1.016   5.436
 7239TIP3   OH221657   2.983   5.169   1.827
 7239TIP3    H121658   2.958   5.253   1.790
 7239TIP3    H221659   2.901   5.120   1.834
 7240TIP3   OH221660   2.080   4.749   4.712
 7240TIP3    H121661   2.013   4.809   4.680
 7240TIP3    H221662   2.130   4.800   4.775
 7241TIP3   OH221663   4.413   1.781   5.021
 7241TIP3    H121664   4.374   1.694   5.029
 7241TIP3    H221665   4.443   1.802   5.109
 7242TIP3   OH221666   0.728   5.869   1.734
 7242TIP3    H121667   0.658   5.841   1.793
 7242TIP3    H221668   0.684   5.926   1.671
 7243TIP3   OH221669   3.369   3.871   0.436
 7243TIP3    H121670   3.402   3.959   0.418
 7243TIP3    H221671   3.304   3.884   0.505
 7244TIP3   OH221672   4.748   7.351   5.934
 7244TIP3    H121673   4.771   7.438   5.904
 7244TIP3    H221674   4.823   7.325   5.989
 7245TIP3   OH221675   3.760   1.409   6.152
 7245TIP3    H121676   3.781   1.487   6.205
 7245TIP3    H221677   3.694   1.362   6.203
 7246TIP3   OH221678   3.212   7.039   4.283
 7246TIP3    H121679   3.175   7.055   4.370
 7246TIP3    H221680   3.258   6.955   4.291
 7247TIP3   OH221681   5.106   0.997   3.056
 7247TIP3    H121682   5.162   1.030   2.985
 7247TIP3    H221683   5.079   0.910   3.026
 7248TIP3   OH221684   6.823   2.241   1.083
 7248TIP3    H121685   6.866   2.208   1.162
 7248TIP3    H221686   6.873   2.205   1.010
 7249TIP3   OH221687   2.168   2.908   5.662
 7249TIP3    H121688   2.119   2.867   5.734
 7249TIP3    H221689   2.159   3.002   5.677
 7250TIP3   OH221690   1.579   6.896   5.180
 7250TIP3    H121691   1.521   6.908   5.255
 7250TIP3    H221692   1.525   6.920   5.105
 7251TIP3   OH221693   1.319   1.824   1.043
 7251TIP3    H121694   1.252   1.888   1.068
 7251TIP3    H221695   1.284   1.740   1.073
 7252TIP3   OH221696   3.746   4.766   2.437
 7252TIP3    H121697   3.826   4.773   2.489
 7252TIP3    H221698   3.776   4.742   2.349
 7253TIP3   OH221699   3.276   4.310   5.034
 7253TIP3    H121700   3.184   4.291   5.052
 7253TIP3    H221701   3.290   4.277   4.946
 7254TIP3   OH221702   7.288   4.196   1.511
 7254TIP3    H121703   7.202   4.180   1.551
 7254TIP3    H221704   7.270   4.207   1.418
 7255TIP3   OH221705   8.120   7.399   5.165
 7255TIP3    H121706   8.035   7.418   5.126
 7255TIP3    H221707   8.150   7.320   5.119
 7256TIP3   OH221708   3.513   7.234   3.956
 7256TIP3    H121709   3.442   7.172   3.972
 7256TIP3    H221710   3.469   7.315   3.931
 7257TIP3   OH221711   4.917   3.000   3.489
 7257TIP3    H121712   4.832   3.025   3.452
 7257TIP3    H221713   4.966   3.082   3.494
 7258TIP3   OH221714   1.249   4.337   2.440
 7258TIP3    H121715   1.228   4.359   2.349
 7258TIP3    H221716   1.170   4.361   2.489
 7259TIP3   OH221717   7.546   0.317   1.443
 7259TIP3    H121718   7.516   0.229   1.420
 7259TIP3    H221719   7.558   0.361   1.360
 7260TIP3   OH221720   7.092   2.954   1.088
 7260TIP3    H121721   7.149   2.878   1.077
 7260TIP3    H221722   7.010   2.917   1.120
 7261TIP3   OH221723   7.100   6.703   4.323
 7261TIP3    H121724   7.119   6.694   4.230
 7261TIP3    H221725   7.035   6.635   4.341
 7262TIP3   OH221726   7.397   1.983   6.143
 7262TIP3    H121727   7.319   2.038   6.153
 7262TIP3    H221728   7.437   2.013   6.061
 7263TIP3   OH221729   1.204   0.126   2.504
 7263TIP3    H121730   1.179   0.201   2.558
 7263TIP3    H221731   1.267   0.162   2.441
 7264TIP3   OH221732   4.039   6.167   6.135
 7264TIP3    H121733   4.033   6.234   6.067
 7264TIP3    H221734   4.047   6.085   6.087
 7265TIP3   OH221735   7.962   3.203   0.094
 7265TIP3    H121736   7.881   3.224   0.142
 7265TIP3    H221737   8.019   3.164   0.161
 7266TIP3   OH221738   2.192   2.444   0.809
 7266TIP3    H121739   2.119   2.415   0.863
 7266TIP3    H221740   2.198   2.379   0.739
 7267TIP3   OH221741   7.573   7.615   2.881
 7267TIP3    H121742   7.585   7.592   2.789
 7267TIP3    H221743   7.653   7.584   2.924
 7268TIP3   OH221744   8.269   6.385   5.099
 7268TIP3    H121745   8.323   6.306   5.099
 7268TIP3    H221746   8.180   6.353   5.085
 7269TIP3   OH221747   3.764   7.118   1.699
 7269TIP3    H121748   3.718   7.043   1.663
 7269TIP3    H221749   3.764   7.103   1.794
 7270TIP3   OH221750   7.318   2.517   4.500
 7270TIP3    H121751   7.321   2.602   4.545
 7270TIP3    H221752   7.292   2.455   4.568
 7271TIP3   OH221753   5.345   1.313   3.056
 7271TIP3    H121754   5.330   1.228   3.015
 7271TIP3    H221755   5.258   1.353   3.062
 7272TIP3   OH221756   4.594   7.199   6.778
 7272TIP3    H121757   4.541   7.271   6.744
 7272TIP3    H221758   4.606   7.140   6.703
 7273TIP3   OH221759   1.879   6.888   4.604
 7273TIP3    H121760   1.971   6.867   4.585
 7273TIP3    H221761   1.865   6.854   4.693
 7274TIP3   OH221762   7.369   3.332   6.274
 7274TIP3    H121763   7.345   3.240   6.290
 7274TIP3    H221764   7.305   3.382   6.323
 7275TIP3   OH221765   6.551   6.019   0.949
 7275TIP3    H121766   6.535   6.111   0.971
 7275TIP3    H221767   6.597   5.983   1.025
 7276TIP3   OH221768   2.773   6.211   4.635
 7276TIP3    H121769   2.754   6.227   4.727
 7276TIP3    H221770   2.757   6.295   4.592
 7277TIP3   OH221771   0.212   6.657   5.248
 7277TIP3    H121772   0.228   6.727   5.184
 7277TIP3    H221773   0.160   6.592   5.201
 7278TIP3   OH221774   3.139   4.759   6.789
 7278TIP3    H121775   3.227   4.748   6.753
 7278TIP3    H221776   3.138   4.847   6.826
 7279TIP3   OH221777   0.694   4.881   3.710
 7279TIP3    H121778   0.617   4.890   3.765
 7279TIP3    H221779   0.685   4.794   3.670
 7280TIP3   OH221780   1.688   2.808   4.379
 7280TIP3    H121781   1.734   2.754   4.314
 7280TIP3    H221782   1.739   2.889   4.383
 7281TIP3   OH221783   7.431   1.035   1.032
 7281TIP3    H121784   7.355   1.088   1.009
 7281TIP3    H221785   7.457   1.067   1.119
 7282TIP3   OH221786   1.757   0.621   0.435
 7282TIP3    H121787   1.663   0.640   0.441
 7282TIP3    H221788   1.772   0.608   0.342
 7283TIP3   OH221789   5.083   0.748   4.781
 7283TIP3    H121790   5.144   0.766   4.709
 7283TIP3    H221791   5.014   0.694   4.742
 7284TIP3   OH221792   3.854   3.789   5.758
 7284TIP3    H121793   3.938   3.818   5.792
 7284TIP3    H221794   3.845   3.699   5.788
 7285TIP3   OH221795   2.039   6.075   0.217
 7285TIP3    H121796   2.072   6.044   0.133
 7285TIP3    H221797   2.042   5.997   0.274
 7286TIP3   OH221798   0.358   4.994   1.861
 7286TIP3    H121799   0.383   4.957   1.946
 7286TIP3    H221800   0.264   4.975   1.854
 7287TIP3   OH221801   4.875   3.573   6.210
 7287TIP3    H121802   4.967   3.574   6.182
 7287TIP3    H221803   4.877   3.530   6.295
 7288TIP3   OH221804   4.013   5.472   5.411
 7288TIP3    H121805   3.961   5.493   5.333
 7288TIP3    H221806   3.981   5.534   5.477
 7289TIP3   OH221807   5.859   4.793   6.611
 7289TIP3    H121808   5.943   4.799   6.567
 7289TIP3    H221809   5.880   4.783   6.703
 7290TIP3   OH221810   2.926   7.193   3.897
 7290TIP3    H121811   2.872   7.254   3.946
 7290TIP3    H221812   2.936   7.117   3.954
 7291TIP3   OH221813   6.464   6.882   1.258
 7291TIP3    H121814   6.456   6.953   1.195
 7291TIP3    H221815   6.381   6.882   1.305
 7292TIP3   OH221816   6.100   7.928   5.374
 7292TIP3    H121817   6.159   7.928   5.298
 7292TIP3    H221818   6.096   7.837   5.401
 7293TIP3   OH221819   3.791   1.312   4.588
 7293TIP3    H121820   3.876   1.356   4.591
 7293TIP3    H221821   3.728   1.380   4.608
 7294TIP3   OH221822   0.792   5.488   3.196
 7294TIP3    H121823   0.749   5.556   3.145
 7294TIP3    H221824   0.794   5.412   3.138
 7295TIP3   OH221825   4.950   2.345   4.732
 7295TIP3    H121826   4.859   2.375   4.731
 7295TIP3    H221827   4.980   2.360   4.821
 7296TIP3   OH221828   4.727   2.439   5.712
 7296TIP3    H121829   4.650   2.440   5.657
 7296TIP3    H221830   4.731   2.350   5.748
 7297TIP3   OH221831   7.899   2.896   4.305
 7297TIP3    H121832   7.982   2.852   4.288
 7297TIP3    H221833   7.837   2.826   4.321
 7298TIP3   OH221834   8.256   1.932   4.092
 7298TIP3    H121835   8.325   1.865   4.084
 7298TIP3    H221836   8.191   1.907   4.026
 7299TIP3   OH221837   4.651   4.831   3.030
 7299TIP3    H121838   4.626   4.795   2.945
 7299TIP3    H221839   4.629   4.763   3.093
 7300TIP3   OH221840   2.706   1.323   1.560
 7300TIP3    H121841   2.743   1.407   1.589
 7300TIP3    H221842   2.779   1.261   1.567
 7301TIP3   OH221843   7.091   3.948   2.905
 7301TIP3    H121844   7.020   3.885   2.889
 7301TIP3    H221845   7.045   4.027   2.936
 7302TIP3   OH221846   1.523   5.106   5.723
 7302TIP3    H121847   1.537   5.055   5.802
 7302TIP3    H221848   1.451   5.165   5.745
 7303TIP3   OH221849   5.530   7.008   3.794
 7303TIP3    H121850   5.524   6.912   3.803
 7303TIP3    H221851   5.587   7.034   3.866
 7304TIP3   OH221852   2.353   2.834   1.060
 7304TIP3    H121853   2.330   2.796   1.145
 7304TIP3    H221854   2.314   2.774   0.996
 7305TIP3   OH221855   3.756   2.049   2.526
 7305TIP3    H121856   3.804   2.064   2.607
 7305TIP3    H221857   3.677   2.102   2.535
 7306TIP3   OH221858   4.388   5.996   4.968
 7306TIP3    H121859   4.299   6.016   4.939
 7306TIP3    H221860   4.444   6.019   4.894
 7307TIP3   OH221861   8.351   2.196   6.188
 7307TIP3    H121862   8.370   2.121   6.133
 7307TIP3    H221863   8.313   2.158   6.268
 7308TIP3   OH221864   6.584   1.108   1.753
 7308TIP3    H121865   6.660   1.049   1.751
 7308TIP3    H221866   6.542   1.090   1.837
 7309TIP3   OH221867   2.974   5.909   3.221
 7309TIP3    H121868   3.018   5.860   3.151
 7309TIP3    H221869   2.889   5.866   3.229
 7310TIP3   OH221870   6.782   5.783   6.405
 7310TIP3    H121871   6.831   5.841   6.346
 7310TIP3    H221872   6.741   5.843   6.468
 7311TIP3   OH221873   0.190   0.377   0.724
 7311TIP3    H121874   0.166   0.427   0.646
 7311TIP3    H221875   0.282   0.355   0.711
 7312TIP3   OH221876   2.553   1.609   4.670
 7312TIP3    H121877   2.522   1.632   4.757
 7312TIP3    H221878   2.629   1.665   4.655
 7313TIP3   OH221879   0.342   1.610   4.983
 7313TIP3    H121880   0.429   1.572   4.986
 7313TIP3    H221881   0.312   1.595   4.893
 7314TIP3   OH221882   1.167   7.705   1.019
 7314TIP3    H121883   1.153   7.797   0.998
 7314TIP3    H221884   1.138   7.658   0.941
 7315TIP3   OH221885   2.733   4.257   3.854
 7315TIP3    H121886   2.802   4.270   3.790
 7315TIP3    H221887   2.763   4.304   3.932
 7316TIP3   OH221888   1.123   3.918   2.056
 7316TIP3    H121889   1.207   3.899   2.016
 7316TIP3    H221890   1.081   3.979   1.995
 7317TIP3   OH221891   6.155   4.277   4.156
 7317TIP3    H121892   6.219   4.346   4.174
 7317TIP3    H221893   6.108   4.308   4.078
 7318TIP3   OH221894   3.190   5.489   4.842
 7318TIP3    H121895   3.252   5.422   4.869
 7318TIP3    H221896   3.172   5.539   4.922
 7319TIP3   OH221897   1.389   0.707   4.843
 7319TIP3    H121898   1.444   0.684   4.768
 7319TIP3    H221899   1.416   0.795   4.867
 7320TIP3   OH221900   0.003   2.045   4.327
 7320TIP3    H121901   0.092   2.048   4.292
 7320TIP3    H221902  -0.051   2.018   4.254
 7321TIP3   OH221903   0.441   0.726   1.516
 7321TIP3    H121904   0.460   0.780   1.594
 7321TIP3    H221905   0.454   0.636   1.546
 7322TIP3   OH221906   6.313   7.865   2.875
 7322TIP3    H121907   6.372   7.824   2.939
 7322TIP3    H221908   6.368   7.927   2.828
 7323TIP3   OH221909   8.027   2.817   1.190
 7323TIP3    H121910   8.069   2.900   1.168
 7323TIP3    H221911   7.935   2.839   1.205
 7324TIP3   OH221912   0.699   4.168   6.157
 7324TIP3    H121913   0.610   4.201   6.152
 7324TIP3    H221914   0.748   4.238   6.200
 7325TIP3   OH221915   1.047   7.452   1.772
 7325TIP3    H121916   1.128   7.408   1.743
 7325TIP3    H221917   1.021   7.404   1.850
 7326TIP3   OH221918   1.789   0.610   5.100
 7326TIP3    H121919   1.838   0.548   5.046
 7326TIP3    H221920   1.787   0.691   5.049
 7327TIP3   OH221921   5.358   2.295   5.072
 7327TIP3    H121922   5.450   2.318   5.084
 7327TIP3    H221923   5.334   2.336   4.989
 7328TIP3   OH221924   3.481   1.860   2.929
 7328TIP3    H121925   3.488   1.786   2.990
 7328TIP3    H221926   3.497   1.937   2.983
 7329TIP3   OH221927   3.341   3.124   2.371
 7329TIP3    H121928   3.332   3.095   2.281
 7329TIP3    H221929   3.296   3.058   2.423
 7330TIP3   OH221930   1.834   4.732   5.757
 7330TIP3    H121931   1.854   4.822   5.783
 7330TIP3    H221932   1.838   4.733   5.662
 7331TIP3   OH221933   4.843   1.812   2.238
 7331TIP3    H121934   4.823   1.897   2.276
 7331TIP3    H221935   4.768   1.757   2.260
 7332TIP3   OH221936   8.225   7.767   6.087
 7332TIP3    H121937   8.143   7.732   6.122
 7332TIP3    H221938   8.234   7.726   6.001
 7333TIP3   OH221939   0.720   6.743   2.738
 7333TIP3    H121940   0.796   6.739   2.795
 7333TIP3    H221941   0.753   6.782   2.657
 7334TIP3   OH221942   6.886   3.955   5.847
 7334TIP3    H121943   6.957   4.005   5.889
 7334TIP3    H221944   6.849   3.902   5.917
 7335TIP3   OH221945   0.387   4.721   0.862
 7335TIP3    H121946   0.383   4.749   0.771
 7335TIP3    H221947   0.342   4.791   0.910
 7336TIP3   OH221948   2.053   3.873   3.164
 7336TIP3    H121949   1.976   3.822   3.140
 7336TIP3    H221950   2.101   3.884   3.082
 7337TIP3   OH221951   7.250   1.842   0.359
 7337TIP3    H121952   7.322   1.881   0.409
 7337TIP3    H221953   7.245   1.894   0.279
 7338TIP3   OH221954   0.201   6.724   0.262
 7338TIP3    H121955   0.108   6.743   0.273
 7338TIP3    H221956   0.206   6.679   0.177
 7339TIP3   OH221957   8.147   4.153   0.354
 7339TIP3    H121958   8.094   4.145   0.275
 7339TIP3    H221959   8.082   4.164   0.425
 7340TIP3   OH221960   4.941   7.531   3.536
 7340TIP3    H121961   4.983   7.602   3.488
 7340TIP3    H221962   5.013   7.480   3.572
 7341TIP3   OH221963   4.236   1.562   1.793
 7341TIP3    H121964   4.295   1.616   1.740
 7341TIP3    H221965   4.279   1.477   1.796
 7342TIP3   OH221966   2.097   7.866   5.678
 7342TIP3    H121967   2.010   7.872   5.716
 7342TIP3    H221968   2.106   7.775   5.650
 7343TIP3   OH221969   3.030   0.808   3.579
 7343TIP3    H121970   3.058   0.895   3.548
 7343TIP3    H221971   2.940   0.821   3.608
 7344TIP3   OH221972   7.730   1.925   2.952
 7344TIP3    H121973   7.766   1.888   2.872
 7344TIP3    H221974   7.806   1.952   3.003
 7345TIP3   OH221975   3.348   2.547   4.815
 7345TIP3    H121976   3.407   2.621   4.797
 7345TIP3    H221977   3.351   2.494   4.736
 7346TIP3   OH221978   4.542   3.389   0.512
 7346TIP3    H121979   4.554   3.444   0.590
 7346TIP3    H221980   4.516   3.304   0.546
 7347TIP3   OH221981   2.106   1.906   3.195
 7347TIP3    H121982   2.083   1.890   3.286
 7347TIP3    H221983   2.066   1.834   3.147
 7348TIP3   OH221984   2.143   0.057   2.988
 7348TIP3    H121985   2.051   0.034   2.973
 7348TIP3    H221986   2.165   0.012   3.070
 7349TIP3   OH221987   3.902   7.407   1.891
 7349TIP3    H121988   3.963   7.380   1.959
 7349TIP3    H221989   3.944   7.383   1.809
 7350TIP3   OH221990   5.316   7.233   4.931
 7350TIP3    H121991   5.299   7.327   4.935
 7350TIP3    H221992   5.335   7.215   4.839
 7351TIP3   OH221993   7.688   2.492   3.517
 7351TIP3    H121994   7.636   2.563   3.554
 7351TIP3    H221995   7.754   2.536   3.464
 7352TIP3   OH221996   4.607   4.522   2.058
 7352TIP3    H121997   4.624   4.434   2.024
 7352TIP3    H221998   4.517   4.519   2.089
 7353TIP3   OH221999   0.153   1.084   5.817
 7353TIP3    H122000   0.202   1.154   5.774
 7353TIP3    H222001   0.064   1.118   5.824
 7354TIP3   OH222002   8.421   4.749   6.254
 7354TIP3    H122003   8.370   4.827   6.230
 7354TIP3    H222004   8.400   4.734   6.346
 7355TIP3   OH222005   3.491   4.276   0.743
 7355TIP3    H122006   3.565   4.221   0.771
 7355TIP3    H222007   3.415   4.218   0.747
 7356TIP3   OH222008   1.434   7.072   5.028
 7356TIP3    H122009   1.363   7.091   5.090
 7356TIP3    H222010   1.412   7.124   4.951
 7357TIP3   OH222011   1.816   4.293   3.100
 7357TIP3    H122012   1.819   4.231   3.027
 7357TIP3    H222013   1.735   4.271   3.146
 7358TIP3   OH222014   0.939   0.602   5.985
 7358TIP3    H122015   0.999   0.535   6.018
 7358TIP3    H222016   0.987   0.644   5.913
 7359TIP3   OH222017   5.091   1.937   6.562
 7359TIP3    H122018   5.182   1.966   6.571
 7359TIP3    H222019   5.048   2.008   6.513
 7360TIP3   OH222020   6.422   3.870   4.239
 7360TIP3    H122021   6.397   3.863   4.331
 7360TIP3    H222022   6.345   3.907   4.196
 7361TIP3   OH222023   1.697   2.793   4.039
 7361TIP3    H122024   1.716   2.738   3.963
 7361TIP3    H222025   1.620   2.752   4.079
 7362TIP3   OH222026   1.960   7.343   3.038
 7362TIP3    H122027   1.868   7.351   3.065
 7362TIP3    H222028   1.969   7.252   3.011
 7363TIP3   OH222029   7.764   4.466   4.807
 7363TIP3    H122030   7.711   4.386   4.808
 7363TIP3    H222031   7.843   4.441   4.757
 7364TIP3   OH222032   1.568   4.719   6.189
 7364TIP3    H122033   1.597   4.690   6.103
 7364TIP3    H222034   1.649   4.740   6.236
 7365TIP3   OH222035   0.953   2.184   3.613
 7365TIP3    H122036   1.007   2.202   3.536
 7365TIP3    H222037   1.016   2.169   3.683
 7366TIP3   OH222038   2.743   4.440   4.607
 7366TIP3    H122039   2.768   4.368   4.549
 7366TIP3    H222040   2.716   4.397   4.688
 7367TIP3   OH222041   8.241   0.813   3.411
 7367TIP3    H122042   8.157   0.804   3.365
 7367TIP3    H222043   8.271   0.901   3.389
 7368TIP3   OH222044   2.637   2.878   4.950
 7368TIP3    H122045   2.629   2.956   5.005
 7368TIP3    H222046   2.702   2.824   4.994
 7369TIP3   OH222047   2.702   6.796   1.420
 7369TIP3    H122048   2.681   6.704   1.432
 7369TIP3    H222049   2.620   6.842   1.441
 7370TIP3   OH222050   1.598   4.905   0.446
 7370TIP3    H122051   1.511   4.876   0.418
 7370TIP3    H222052   1.584   4.946   0.531
 7371TIP3   OH222053   0.176   3.999   4.074
 7371TIP3    H122054   0.186   3.949   3.993
 7371TIP3    H222055   0.226   4.079   4.059
 7372TIP3   OH222056   1.304   6.803   1.429
 7372TIP3    H122057   1.317   6.840   1.516
 7372TIP3    H222058   1.210   6.794   1.419
 7373TIP3   OH222059   2.921   5.013   0.640
 7373TIP3    H122060   2.941   5.105   0.656
 7373TIP3    H222061   2.864   4.987   0.713
 7374TIP3   OH222062   7.140   1.899   3.793
 7374TIP3    H122063   7.189   1.855   3.863
 7374TIP3    H222064   7.118   1.829   3.731
 7375TIP3   OH222065   2.640   6.221   6.476
 7375TIP3    H122066   2.729   6.241   6.446
 7375TIP3    H222067   2.594   6.194   6.396
 7376TIP3   OH222068   6.772   2.453   1.609
 7376TIP3    H122069   6.738   2.438   1.521
 7376TIP3    H222070   6.718   2.396   1.665
 7377TIP3   OH222071   4.381   7.702   4.087
 7377TIP3    H122072   4.319   7.628   4.087
 7377TIP3    H222073   4.404   7.712   3.994
 7378TIP3   OH222074   3.155   6.937   1.432
 7378TIP3    H122075   3.207   6.974   1.360
 7378TIP3    H222076   3.181   6.987   1.509
 7379TIP3   OH222077   4.788   0.796   0.802
 7379TIP3    H122078   4.773   0.746   0.882
 7379TIP3    H222079   4.824   0.732   0.740
 7380TIP3   OH222080   3.293   4.258   0.274
 7380TIP3    H122081   3.355   4.222   0.338
 7380TIP3    H222082   3.348   4.298   0.207
 7381TIP3   OH222083   0.661   4.472   2.798
 7381TIP3    H122084   0.608   4.552   2.788
 7381TIP3    H222085   0.714   4.489   2.876
 7382TIP3   OH222086   0.155   0.054   3.643
 7382TIP3    H122087   0.242   0.071   3.606
 7382TIP3    H222088   0.136  -0.037   3.621
 7383TIP3   OH222089   6.397   2.636   6.722
 7383TIP3    H122090   6.492   2.643   6.714
 7383TIP3    H222091   6.371   2.575   6.654
 7384TIP3   OH222092   4.221   5.025   4.448
 7384TIP3    H122093   4.279   4.971   4.394
 7384TIP3    H222094   4.210   4.975   4.529
 7385TIP3   OH222095   8.366   6.216   5.826
 7385TIP3    H122096   8.441   6.275   5.813
 7385TIP3    H222097   8.334   6.236   5.914
 7386TIP3   OH222098   5.395   4.385   3.162
 7386TIP3    H122099   5.361   4.382   3.072
 7386TIP3    H222100   5.439   4.301   3.174
 7387TIP3   OH222101   6.394   7.564   2.667
 7387TIP3    H122102   6.486   7.580   2.647
 7387TIP3    H222103   6.396   7.490   2.729
 7388TIP3   OH222104   2.728   1.179   6.638
 7388TIP3    H122105   2.737   1.208   6.547
 7388TIP3    H222106   2.817   1.155   6.665
 7389TIP3   OH222107   1.181   5.614   1.891
 7389TIP3    H122108   1.207   5.524   1.910
 7389TIP3    H222109   1.255   5.667   1.919
 7390TIP3   OH222110   0.184   1.559   6.579
 7390TIP3    H122111   0.204   1.485   6.636
 7390TIP3    H222112   0.101   1.537   6.537
 7391TIP3   OH222113   6.412   0.970   2.910
 7391TIP3    H122114   6.380   0.885   2.941
 7391TIP3    H222115   6.426   0.957   2.817
 7392TIP3   OH222116   7.008   5.011   4.865
 7392TIP3    H122117   6.945   5.053   4.923
 7392TIP3    H222118   6.957   4.946   4.818
 7393TIP3   OH222119   7.777   3.120   5.436
 7393TIP3    H122120   7.783   3.089   5.346
 7393TIP3    H222121   7.763   3.214   5.428
 7394TIP3   OH222122   0.667   3.036   3.312
 7394TIP3    H122123   0.584   3.042   3.360
 7394TIP3    H222124   0.728   2.997   3.374
 7395TIP3   OH222125   2.778   0.088   2.175
 7395TIP3    H122126   2.856   0.073   2.227
 7395TIP3    H222127   2.758   0.181   2.187
 7396TIP3   OH222128   6.323   6.978   4.306
 7396TIP3    H122129   6.327   6.940   4.218
 7396TIP3    H222130   6.378   6.921   4.359
 7397TIP3   OH222131   5.059   7.510   3.977
 7397TIP3    H122132   5.014   7.595   3.974
 7397TIP3    H222133   5.092   7.503   4.066
 7398TIP3   OH222134   6.925   1.396   2.352
 7398TIP3    H122135   6.904   1.342   2.276
 7398TIP3    H222136   6.842   1.438   2.374
 7399TIP3   OH222137   0.489   2.801   4.806
 7399TIP3    H122138   0.460   2.738   4.871
 7399TIP3    H222139   0.488   2.885   4.853
 7400TIP3   OH222140   5.218   3.223   5.618
 7400TIP3    H122141   5.207   3.146   5.674
 7400TIP3    H222142   5.267   3.285   5.673
 7401TIP3   OH222143   1.902   1.090   3.449
 7401TIP3    H122144   1.951   1.161   3.406
 7401TIP3    H222145   1.881   1.029   3.379
 7402TIP3   OH222146   6.595   4.184   0.756
 7402TIP3    H122147   6.620   4.179   0.664
 7402TIP3    H222148   6.511   4.229   0.755
 7403TIP3   OH222149   4.602   0.135   5.286
 7403TIP3    H122150   4.664   0.182   5.230
 7403TIP3    H222151   4.621   0.165   5.375
 7404TIP3   OH222152   4.644   7.821   0.185
 7404TIP3    H122153   4.727   7.773   0.182
 7404TIP3    H222154   4.619   7.833   0.094
 7405TIP3   OH222155   5.813   4.659   1.312
 7405TIP3    H122156   5.794   4.710   1.233
 7405TIP3    H222157   5.809   4.724   1.383
 7406TIP3   OH222158   1.087   0.996   3.037
 7406TIP3    H122159   1.120   0.967   2.953
 7406TIP3    H222160   1.072   1.090   3.027
 7407TIP3   OH222161   5.033   3.237   3.570
 7407TIP3    H122162   5.109   3.288   3.597
 7407TIP3    H222163   4.998   3.200   3.651
 7408TIP3   OH222164   4.024   5.356   3.913
 7408TIP3    H122165   4.112   5.347   3.948
 7408TIP3    H222166   3.979   5.412   3.976
 7409TIP3   OH222167   3.771   5.209   2.577
 7409TIP3    H122168   3.725   5.128   2.599
 7409TIP3    H222169   3.833   5.222   2.649
 7410TIP3   OH222170   2.567   6.525   1.405
 7410TIP3    H122171   2.540   6.456   1.345
 7410TIP3    H222172   2.500   6.526   1.473
 7411TIP3   OH222173   0.688   5.033   2.002
 7411TIP3    H122174   0.612   4.976   1.996
 7411TIP3    H222175   0.655   5.112   2.044
 7412TIP3   OH222176   4.458   0.599   4.798
 7412TIP3    H122177   4.542   0.612   4.843
 7412TIP3    H222178   4.431   0.510   4.821
 7413TIP3   OH222179   1.030   6.782   6.501
 7413TIP3    H122180   1.017   6.850   6.566
 7413TIP3    H222181   1.050   6.703   6.551
 7414TIP3   OH222182   3.189   6.552   1.644
 7414TIP3    H122183   3.097   6.540   1.665
 7414TIP3    H222184   3.235   6.536   1.726
 7415TIP3   OH222185   6.833   2.215   5.942
 7415TIP3    H122186   6.760   2.154   5.938
 7415TIP3    H222187   6.910   2.160   5.956
 7416TIP3   OH222188   5.984   0.861   3.061
 7416TIP3    H122189   6.061   0.853   3.004
 7416TIP3    H222190   6.018   0.858   3.150
 7417TIP3   OH222191   5.988   6.206   1.589
 7417TIP3    H122192   6.069   6.165   1.560
 7417TIP3    H222193   5.929   6.133   1.607
 7418TIP3   OH222194   1.787   0.328   3.620
 7418TIP3    H122195   1.761   0.405   3.671
 7418TIP3    H222196   1.876   0.309   3.649
 7419TIP3   OH222197   2.840   4.672   0.660
 7419TIP3    H122198   2.916   4.644   0.711
 7419TIP3    H222199   2.783   4.595   0.656
 7420TIP3   OH222200   5.752   5.521   5.981
 7420TIP3    H122201   5.826   5.461   5.982
 7420TIP3    H222202   5.707   5.502   5.899
 7421TIP3   OH222203   6.112   5.271   4.077
 7421TIP3    H122204   6.122   5.195   4.133
 7421TIP3    H222205   6.061   5.333   4.129
 7422TIP3   OH222206   5.893   0.237   5.780
 7422TIP3    H122207   5.950   0.171   5.819
 7422TIP3    H222208   5.855   0.283   5.855
 7423TIP3   OH222209   1.773   0.913   0.749
 7423TIP3    H122210   1.748   0.957   0.668
 7423TIP3    H222211   1.868   0.921   0.752
 7424TIP3   OH222212   4.949   6.334   6.493
 7424TIP3    H122213   4.952   6.337   6.588
 7424TIP3    H222214   4.889   6.263   6.472
 7425TIP3   OH222215   1.078   0.286   2.671
 7425TIP3    H122216   1.043   0.324   2.590
 7425TIP3    H222217   1.117   0.360   2.718
 7426TIP3   OH222218   7.521   1.182   6.405
 7426TIP3    H122219   7.490   1.098   6.438
 7426TIP3    H222220   7.443   1.238   6.403
 7427TIP3   OH222221   2.438   2.398   3.557
 7427TIP3    H122222   2.459   2.423   3.467
 7427TIP3    H222223   2.347   2.424   3.568
 7428TIP3   OH222224   2.997   2.330   4.813
 7428TIP3    H122225   3.033   2.243   4.828
 7428TIP3    H222226   3.012   2.347   4.720
 7429TIP3   OH222227   7.824   7.898   0.256
 7429TIP3    H122228   7.867   7.875   0.338
 7429TIP3    H222229   7.744   7.845   0.255
 7430TIP3   OH222230   8.094   3.765   3.786
 7430TIP3    H122231   8.165   3.717   3.744
 7430TIP3    H222232   8.020   3.705   3.784
 7431TIP3   OH222233   7.435   6.836   2.632
 7431TIP3    H122234   7.418   6.896   2.705
 7431TIP3    H222235   7.405   6.751   2.663
 7432TIP3   OH222236   4.998   3.164   0.504
 7432TIP3    H122237   5.029   3.189   0.417
 7432TIP3    H222238   5.075   3.171   0.561
 7433TIP3   OH222239   0.704   4.713   0.383
 7433TIP3    H122240   0.711   4.654   0.458
 7433TIP3    H222241   0.752   4.792   0.410
 7434TIP3   OH222242   3.543   6.629   2.126
 7434TIP3    H122243   3.542   6.711   2.175
 7434TIP3    H222244   3.617   6.638   2.066
 7435TIP3   OH222245   2.199   7.695   1.433
 7435TIP3    H122246   2.199   7.704   1.529
 7435TIP3    H222247   2.283   7.654   1.413
 7436TIP3   OH222248   4.612   3.585   1.684
 7436TIP3    H122249   4.534   3.630   1.717
 7436TIP3    H222250   4.613   3.604   1.591
 7437TIP3   OH222251   3.885   5.119   3.986
 7437TIP3    H122252   3.927   5.196   3.948
 7437TIP3    H222253   3.854   5.069   3.910
 7438TIP3   OH222254   2.266   4.912   2.831
 7438TIP3    H122255   2.192   4.955   2.874
 7438TIP3    H222256   2.342   4.944   2.879
 7439TIP3   OH222257   4.022   4.028   3.265
 7439TIP3    H122258   4.090   4.047   3.330
 7439TIP3    H222259   4.062   3.965   3.206
 7440TIP3   OH222260   8.391   4.441   0.104
 7440TIP3    H122261   8.322   4.392   0.059
 7440TIP3    H222262   8.352   4.467   0.187
 7441TIP3   OH222263   0.863   6.906   2.042
 7441TIP3    H122264   0.812   6.886   1.963
 7441TIP3    H222265   0.856   7.001   2.051
 7442TIP3   OH222266   7.449   6.830   2.062
 7442TIP3    H122267   7.544   6.816   2.059
 7442TIP3    H222268   7.437   6.894   2.132
 7443TIP3   OH222269   1.973   0.842   3.937
 7443TIP3    H122270   1.949   0.870   3.848
 7443TIP3    H222271   2.031   0.910   3.969
 7444TIP3   OH222272   5.977   1.825   6.829
 7444TIP3    H122273   5.907   1.851   6.889
 7444TIP3    H222274   5.994   1.734   6.851
 7445TIP3   OH222275   6.517   3.706   0.491
 7445TIP3    H122276   6.528   3.796   0.460
 7445TIP3    H222277   6.525   3.712   0.586
 7446TIP3   OH222278   6.943   4.552   0.522
 7446TIP3    H122279   6.979   4.619   0.579
 7446TIP3    H222280   6.875   4.509   0.575
 7447TIP3   OH222281   1.081   1.187   4.740
 7447TIP3    H122282   1.046   1.110   4.786
 7447TIP3    H222283   1.018   1.257   4.760
 7448TIP3   OH222284   7.503   3.663   6.024
 7448TIP3    H122285   7.508   3.677   6.118
 7448TIP3    H222286   7.450   3.736   5.992
 7449TIP3   OH222287   2.745   7.531   0.410
 7449TIP3    H122288   2.658   7.569   0.396
 7449TIP3    H222289   2.761   7.543   0.504
 7450TIP3   OH222290   1.006   1.414   4.158
 7450TIP3    H122291   1.050   1.459   4.230
 7450TIP3    H222292   1.014   1.321   4.179
 7451TIP3   OH222293   0.555   0.290   5.908
 7451TIP3    H122294   0.552   0.207   5.957
 7451TIP3    H222295   0.629   0.337   5.946
 7452TIP3   OH222296   8.076   0.012   3.657
 7452TIP3    H122297   8.054   0.104   3.641
 7452TIP3    H222298   8.105  -0.021   3.572
 7453TIP3   OH222299   0.190   7.503   5.978
 7453TIP3    H122300   0.191   7.596   6.000
 7453TIP3    H222301   0.181   7.459   6.063
 7454TIP3   OH222302   2.040   0.618   5.261
 7454TIP3    H122303   1.953   0.641   5.226
 7454TIP3    H222304   2.101   0.646   5.193
 7455TIP3   OH222305   8.092   3.180   3.853
 7455TIP3    H122306   8.062   3.119   3.920
 7455TIP3    H222307   8.093   3.265   3.896
 7456TIP3   OH222308   3.239   7.229   4.074
 7456TIP3    H122309   3.151   7.264   4.089
 7456TIP3    H222310   3.261   7.186   4.156
 7457TIP3   OH222311   1.147   5.914   2.165
 7457TIP3    H122312   1.064   5.920   2.213
 7457TIP3    H222313   1.213   5.937   2.230
 7458TIP3   OH222314   0.226   2.235   3.037
 7458TIP3    H122315   0.139   2.238   3.078
 7458TIP3    H222316   0.212   2.269   2.949
 7459TIP3   OH222317   6.777   1.637   4.947
 7459TIP3    H122318   6.685   1.642   4.971
 7459TIP3    H222319   6.809   1.727   4.955
 7460TIP3   OH222320   1.851   6.443   5.625
 7460TIP3    H122321   1.875   6.468   5.714
 7460TIP3    H222322   1.815   6.522   5.586
 7461TIP3   OH222323   3.221   2.510   5.528
 7461TIP3    H122324   3.205   2.604   5.535
 7461TIP3    H222325   3.271   2.488   5.607
 7462TIP3   OH222326   3.884   4.547   4.107
 7462TIP3    H122327   3.897   4.642   4.105
 7462TIP3    H222328   3.879   4.522   4.014
 7463TIP3   OH222329   1.300   0.478   5.891
 7463TIP3    H122330   1.315   0.568   5.921
 7463TIP3    H222331   1.237   0.442   5.954
 7464TIP3   OH222332   1.161   5.723   4.830
 7464TIP3    H122333   1.086   5.752   4.777
 7464TIP3    H222334   1.167   5.787   4.901
 7465TIP3   OH222335   8.371   0.570   5.019
 7465TIP3    H122336   8.371   0.484   4.976
 7465TIP3    H222337   8.296   0.615   4.982
 7466TIP3   OH222338   5.135   6.114   2.834
 7466TIP3    H122339   5.083   6.043   2.796
 7466TIP3    H222340   5.081   6.192   2.822
 7467TIP3   OH222341   3.639   1.462   6.639
 7467TIP3    H122342   3.558   1.446   6.688
 7467TIP3    H222343   3.608   1.491   6.553
 7468TIP3   OH222344   4.292   6.350   1.704
 7468TIP3    H122345   4.295   6.430   1.651
 7468TIP3    H222346   4.288   6.279   1.640
 7469TIP3   OH222347   7.568   6.988   3.512
 7469TIP3    H122348   7.504   7.007   3.580
 7469TIP3    H222349   7.538   7.039   3.436
 7470TIP3   OH222350   6.911   6.049   6.614
 7470TIP3    H122351   6.943   6.138   6.600
 7470TIP3    H222352   6.990   5.995   6.615
 7471TIP3   OH222353   7.472   3.102   1.624
 7471TIP3    H122354   7.489   3.010   1.647
 7471TIP3    H222355   7.501   3.151   1.701
 7472TIP3   OH222356   7.584   1.657   4.171
 7472TIP3    H122357   7.536   1.739   4.182
 7472TIP3    H222358   7.612   1.634   4.260
 7473TIP3   OH222359   6.273   0.113   5.537
 7473TIP3    H122360   6.313   0.200   5.532
 7473TIP3    H222361   6.187   0.124   5.496
 7474TIP3   OH222362   6.247   6.859   2.618
 7474TIP3    H122363   6.236   6.880   2.711
 7474TIP3    H222364   6.315   6.792   2.617
 7475TIP3   OH222365   1.664   5.609   6.022
 7475TIP3    H122366   1.750   5.633   5.989
 7475TIP3    H222367   1.675   5.607   6.117
 7476TIP3   OH222368   7.558   6.585   1.678
 7476TIP3    H122369   7.625   6.521   1.702
 7476TIP3    H222370   7.606   6.668   1.670
 7477TIP3   OH222371   3.479   5.738   2.595
 7477TIP3    H122372   3.562   5.768   2.631
 7477TIP3    H222373   3.504   5.666   2.537
 7478TIP3   OH222374   0.199   6.485   0.624
 7478TIP3    H122375   0.235   6.573   0.609
 7478TIP3    H222376   0.158   6.462   0.541
 7479TIP3   OH222377   3.414   6.601   6.276
 7479TIP3    H122378   3.425   6.660   6.201
 7479TIP3    H222379   3.334   6.553   6.257
 7480TIP3   OH222380   5.913   5.584   1.693
 7480TIP3    H122381   5.940   5.668   1.730
 7480TIP3    H222382   5.983   5.562   1.631
 7481TIP3   OH222383   7.095   1.983   2.968
 7481TIP3    H122384   7.138   1.926   2.903
 7481TIP3    H222385   7.157   1.985   3.041
 7482TIP3   OH222386   0.455   7.208   5.469
 7482TIP3    H122387   0.380   7.208   5.410
 7482TIP3    H222388   0.531   7.203   5.412
 7483TIP3   OH222389   0.626   6.497   2.758
 7483TIP3    H122390   0.667   6.581   2.780
 7483TIP3    H222391   0.632   6.492   2.662
 7484TIP3   OH222392   7.293   3.481   3.854
 7484TIP3    H122393   7.259   3.403   3.898
 7484TIP3    H222394   7.379   3.494   3.892
 7485TIP3   OH222395   1.570   1.751   0.944
 7485TIP3    H122396   1.479   1.763   0.972
 7485TIP3    H222397   1.573   1.662   0.910
 7486TIP3   OH222398   4.065   4.755   1.214
 7486TIP3    H122399   4.126   4.791   1.278
 7486TIP3    H222400   4.039   4.670   1.251
 7487TIP3   OH222401   7.163   5.265   2.923
 7487TIP3    H122402   7.154   5.340   2.983
 7487TIP3    H222403   7.146   5.189   2.978
 7488TIP3   OH222404   4.813   3.878   1.408
 7488TIP3    H122405   4.866   3.819   1.461
 7488TIP3    H222406   4.849   3.870   1.320
 7489TIP3   OH222407   7.697   2.179   2.755
 7489TIP3    H122408   7.749   2.237   2.810
 7489TIP3    H222409   7.755   2.105   2.736
 7490TIP3   OH222410   7.568   2.437   2.959
 7490TIP3    H122411   7.527   2.503   2.902
 7490TIP3    H222412   7.524   2.355   2.936
 7491TIP3   OH222413   3.300   7.665   1.366
 7491TIP3    H122414   3.389   7.629   1.370
 7491TIP3    H222415   3.261   7.640   1.450
 7492TIP3   OH222416   6.307   4.875   4.448
 7492TIP3    H122417   6.394   4.916   4.446
 7492TIP3    H222418   6.313   4.805   4.383
 7493TIP3   OH222419   4.382   1.153   2.706
 7493TIP3    H122420   4.338   1.173   2.789
 7493TIP3    H222421   4.341   1.072   2.677
 7494TIP3   OH222422   1.346   3.124   6.024
 7494TIP3    H122423   1.426   3.086   6.060
 7494TIP3    H222424   1.326   3.197   6.083
 7495TIP3   OH222425   0.529   1.018   4.005
 7495TIP3    H122426   0.516   1.112   4.017
 7495TIP3    H222427   0.479   0.997   3.926
 7496TIP3   OH222428   6.281   0.867   1.444
 7496TIP3    H122429   6.295   0.961   1.433
 7496TIP3    H222430   6.204   0.848   1.390
 7497TIP3   OH222431   1.925   2.591   4.588
 7497TIP3    H122432   2.017   2.575   4.571
 7497TIP3    H222433   1.891   2.631   4.508
 7498TIP3   OH222434   2.278   5.987   0.933
 7498TIP3    H122435   2.309   6.048   1.000
 7498TIP3    H222436   2.193   5.956   0.967
 7499TIP3   OH222437   3.124   1.620   1.660
 7499TIP3    H122438   3.206   1.669   1.657
 7499TIP3    H222439   3.143   1.536   1.618
 7500TIP3   OH222440   4.466   5.688   0.417
 7500TIP3    H122441   4.471   5.709   0.510
 7500TIP3    H222442   4.553   5.657   0.394
 7501TIP3   OH222443   1.871   2.708   6.227
 7501TIP3    H122444   1.847   2.746   6.143
 7501TIP3    H222445   1.859   2.779   6.290
 7502TIP3   OH222446   6.698   2.131   4.567
 7502TIP3    H122447   6.685   2.081   4.487
 7502TIP3    H222448   6.769   2.086   4.613
 7503TIP3   OH222449   7.891   5.530   3.724
 7503TIP3    H122450   7.956   5.538   3.654
 7503TIP3    H222451   7.853   5.618   3.731
 7504TIP3   OH222452   7.665   2.793   1.031
 7504TIP3    H122453   7.607   2.847   1.084
 7504TIP3    H222454   7.617   2.778   0.949
 7505TIP3   OH222455   5.573   5.708   1.127
 7505TIP3    H122456   5.543   5.625   1.090
 7505TIP3    H222457   5.669   5.704   1.120
 7506TIP3   OH222458   6.204   2.316   0.040
 7506TIP3    H122459   6.227   2.226   0.018
 7506TIP3    H222460   6.119   2.330  -0.002
 7507TIP3   OH222461   3.770   4.141   4.038
 7507TIP3    H122462   3.752   4.054   4.003
 7507TIP3    H222463   3.864   4.153   4.027
 7508TIP3   OH222464   6.028   5.673   5.342
 7508TIP3    H122465   6.041   5.767   5.357
 7508TIP3    H222466   6.022   5.665   5.247
 7509TIP3   OH222467   8.362   5.315   3.079
 7509TIP3    H122468   8.403   5.368   3.147
 7509TIP3    H222469   8.420   5.325   3.003
 7510TIP3   OH222470   7.775   5.680   5.974
 7510TIP3    H122471   7.737   5.629   5.903
 7510TIP3    H222472   7.870   5.675   5.960
 7511TIP3   OH222473   0.197   5.502   4.841
 7511TIP3    H122474   0.170   5.427   4.787
 7511TIP3    H222475   0.287   5.482   4.866
 7512TIP3   OH222476   2.719   5.135   6.169
 7512TIP3    H122477   2.651   5.156   6.105
 7512TIP3    H222478   2.676   5.075   6.231
 7513TIP3   OH222479   1.973   3.035   6.088
 7513TIP3    H122480   2.017   3.067   6.009
 7513TIP3    H222481   1.883   3.021   6.062
 7514TIP3   OH222482   3.459   1.490   5.907
 7514TIP3    H122483   3.551   1.489   5.881
 7514TIP3    H222484   3.422   1.412   5.866
 7515TIP3   OH222485   2.402   5.178   4.583
 7515TIP3    H122486   2.384   5.254   4.529
 7515TIP3    H222487   2.360   5.105   4.538
 7516TIP3   OH222488   0.284   3.266   4.779
 7516TIP3    H122489   0.236   3.349   4.782
 7516TIP3    H222490   0.279   3.240   4.686
 7517TIP3   OH222491   7.326   3.750   5.482
 7517TIP3    H122492   7.242   3.705   5.488
 7517TIP3    H222493   7.377   3.700   5.418
 7518TIP3   OH222494   3.225   4.807   1.222
 7518TIP3    H122495   3.154   4.835   1.163
 7518TIP3    H222496   3.283   4.755   1.167
 7519TIP3   OH222497   7.491   3.331   2.751
 7519TIP3    H122498   7.494   3.427   2.760
 7519TIP3    H222499   7.540   3.313   2.671
 7520TIP3   OH222500   7.469   3.019   5.648
 7520TIP3    H122501   7.424   2.960   5.588
 7520TIP3    H222502   7.412   3.023   5.725
 7521TIP3   OH222503   5.213   7.514   2.998
 7521TIP3    H122504   5.250   7.545   2.915
 7521TIP3    H222505   5.284   7.464   3.039
 7522TIP3   OH222506   0.253   0.637   5.076
 7522TIP3    H122507   0.252   0.572   5.146
 7522TIP3    H222508   0.164   0.636   5.041
 7523TIP3   OH222509   0.960   6.316   4.300
 7523TIP3    H122510   0.894   6.326   4.369
 7523TIP3    H222511   1.033   6.270   4.343
 7524TIP3   OH222512   7.895   7.931  -0.019
 7524TIP3    H122513   7.888   7.841  -0.052
 7524TIP3    H222514   7.841   7.932   0.060
 7525TIP3   OH222515   5.668   2.996   2.848
 7525TIP3    H122516   5.695   2.904   2.841
 7525TIP3    H222517   5.725   3.032   2.916
 7526TIP3   OH222518   3.797   2.655   4.944
 7526TIP3    H122519   3.890   2.669   4.958
 7526TIP3    H222520   3.755   2.700   5.017
 7527TIP3   OH222521   6.107   5.301   3.597
 7527TIP3    H122522   6.079   5.309   3.688
 7527TIP3    H222523   6.025   5.297   3.547
 7528TIP3   OH222524   1.572   0.319   1.955
 7528TIP3    H122525   1.514   0.247   1.930
 7528TIP3    H222526   1.514   0.385   1.994
 7529TIP3   OH222527   6.865   0.119   0.401
 7529TIP3    H122528   6.931   0.087   0.339
 7529TIP3    H222529   6.793   0.149   0.345
 7530TIP3   OH222530   7.608   4.976   2.046
 7530TIP3    H122531   7.536   4.916   2.062
 7530TIP3    H222532   7.647   4.945   1.964
 7531TIP3   OH222533   1.498   1.749   3.584
 7531TIP3    H122534   1.443   1.671   3.582
 7531TIP3    H222535   1.500   1.775   3.676
 7532TIP3   OH222536   5.472   5.691   4.621
 7532TIP3    H122537   5.396   5.732   4.578
 7532TIP3    H222538   5.476   5.603   4.584
 7533TIP3   OH222539   6.022   6.215   6.810
 7533TIP3    H122540   5.928   6.230   6.806
 7533TIP3    H222541   6.034   6.153   6.882
 7534TIP3   OH222542   7.200   0.324   5.898
 7534TIP3    H122543   7.234   0.369   5.821
 7534TIP3    H222544   7.237   0.372   5.972
 7535TIP3   OH222545   1.311   6.431   4.444
 7535TIP3    H122546   1.248   6.379   4.495
 7535TIP3    H222547   1.346   6.495   4.507
 7536TIP3   OH222548   6.816   0.137   3.800
 7536TIP3    H122549   6.779   0.225   3.788
 7536TIP3    H222550   6.741   0.082   3.822
 7537TIP3   OH222551   6.527   3.262   2.928
 7537TIP3    H122552   6.506   3.172   2.905
 7537TIP3    H222553   6.623   3.267   2.921
 7538TIP3   OH222554   1.044   6.559   0.216
 7538TIP3    H122555   1.034   6.483   0.159
 7538TIP3    H222556   1.139   6.568   0.228
 7539TIP3   OH222557   1.164   2.284   2.547
 7539TIP3    H122558   1.106   2.290   2.623
 7539TIP3    H222559   1.106   2.265   2.474
 7540TIP3   OH222560   5.741   3.282   3.244
 7540TIP3    H122561   5.792   3.243   3.173
 7540TIP3    H222562   5.806   3.316   3.304
 7541TIP3   OH222563   2.909   1.505   1.970
 7541TIP3    H122564   2.960   1.586   1.969
 7541TIP3    H222565   2.957   1.446   2.029
 7542TIP3   OH222566   4.133   7.759   4.509
 7542TIP3    H122567   4.039   7.775   4.514
 7542TIP3    H222568   4.160   7.799   4.427
 7543TIP3   OH222569   2.293   1.142   3.276
 7543TIP3    H122570   2.206   1.181   3.267
 7543TIP3    H222571   2.277   1.055   3.312
 7544TIP3   OH222572   1.586   6.238   4.634
 7544TIP3    H122573   1.669   6.247   4.681
 7544TIP3    H222574   1.544   6.323   4.643
 7545TIP3   OH222575   5.794   3.925   0.496
 7545TIP3    H122576   5.874   3.968   0.467
 7545TIP3    H222577   5.823   3.839   0.526
 7546TIP3   OH222578   5.172   6.176   0.887
 7546TIP3    H122579   5.177   6.269   0.865
 7546TIP3    H222580   5.250   6.160   0.940
 7547TIP3   OH222581   3.860   4.852   1.947
 7547TIP3    H122582   3.940   4.905   1.946
 7547TIP3    H222583   3.876   4.786   2.014
 7548TIP3   OH222584   7.402   4.296   6.110
 7548TIP3    H122585   7.401   4.333   6.022
 7548TIP3    H222586   7.315   4.312   6.145
 7549TIP3   OH222587   2.197   1.520   4.807
 7549TIP3    H122588   2.247   1.477   4.876
 7549TIP3    H222589   2.106   1.496   4.825
 7550TIP3   OH222590   5.080   1.692   3.474
 7550TIP3    H122591   5.103   1.649   3.392
 7550TIP3    H222592   5.144   1.658   3.538
 7551TIP3   OH222593   7.148   7.112   6.792
 7551TIP3    H122594   7.163   7.022   6.763
 7551TIP3    H222595   7.058   7.113   6.823
 7552TIP3   OH222596   2.887   6.190   3.876
 7552TIP3    H122597   2.966   6.162   3.922
 7552TIP3    H222598   2.918   6.218   3.790
 7553TIP3   OH222599   2.356   4.451   2.728
 7553TIP3    H122600   2.355   4.378   2.666
 7553TIP3    H222601   2.404   4.521   2.683
 7554TIP3   OH222602   1.131   2.311   0.654
 7554TIP3    H122603   1.131   2.290   0.747
 7554TIP3    H222604   1.212   2.360   0.640
 7555TIP3   OH222605   0.113   2.114   0.393
 7555TIP3    H122606   0.090   2.097   0.484
 7555TIP3    H222607   0.119   2.027   0.353
 7556TIP3   OH222608   2.874   7.544   0.999
 7556TIP3    H122609   2.846   7.454   0.979
 7556TIP3    H222610   2.966   7.546   0.976
 7557TIP3   OH222611   5.609   3.816   6.368
 7557TIP3    H122612   5.597   3.850   6.457
 7557TIP3    H222613   5.571   3.883   6.311
 7558TIP3   OH222614   1.605   4.379   5.798
 7558TIP3    H122615   1.700   4.394   5.800
 7558TIP3    H222616   1.596   4.283   5.804
 7559TIP3   OH222617   1.744   4.875   0.884
 7559TIP3    H122618   1.725   4.804   0.945
 7559TIP3    H222619   1.818   4.921   0.923
 7560TIP3   OH222620   1.350   5.513   4.876
 7560TIP3    H122621   1.343   5.485   4.785
 7560TIP3    H222622   1.281   5.578   4.887
 7561TIP3   OH222623   4.249   2.027   5.059
 7561TIP3    H122624   4.301   1.947   5.051
 7561TIP3    H222625   4.233   2.054   4.969
 7562TIP3   OH222626   8.439   2.768   0.027
 7562TIP3    H122627   8.403   2.856   0.012
 7562TIP3    H222628   8.385   2.732   0.097
 7563TIP3   OH222629   3.341   2.582   1.161
 7563TIP3    H122630   3.346   2.567   1.067
 7563TIP3    H222631   3.252   2.559   1.185
 7564TIP3   OH222632   4.400   3.415   1.422
 7564TIP3    H122633   4.369   3.402   1.512
 7564TIP3    H222634   4.415   3.510   1.416
 7565TIP3   OH222635   2.001   5.144   3.514
 7565TIP3    H122636   1.963   5.119   3.598
 7565TIP3    H222637   2.069   5.208   3.536
 7566TIP3   OH222638   1.581   0.658   3.444
 7566TIP3    H122639   1.516   0.598   3.409
 7566TIP3    H222640   1.541   0.694   3.523
 7567TIP3   OH222641   7.325   5.289   1.655
 7567TIP3    H122642   7.231   5.290   1.639
 7567TIP3    H222643   7.348   5.196   1.659
 7568TIP3   OH222644   2.325   1.648   5.755
 7568TIP3    H122645   2.255   1.688   5.807
 7568TIP3    H222646   2.362   1.581   5.812
 7569TIP3   OH222647   3.853   6.485   4.249
 7569TIP3    H122648   3.908   6.473   4.171
 7569TIP3    H222649   3.769   6.515   4.215
 7570TIP3   OH222650   3.019   6.201   0.250
 7570TIP3    H122651   2.986   6.217   0.162
 7570TIP3    H222652   2.946   6.161   0.297
 7571TIP3   OH222653   4.244   5.486   5.245
 7571TIP3    H122654   4.176   5.553   5.258
 7571TIP3    H222655   4.264   5.455   5.333
 7572TIP3   OH222656   8.403   1.344   6.419
 7572TIP3    H122657   8.456   1.268   6.395
 7572TIP3    H222658   8.322   1.307   6.455
 7573TIP3   OH222659   1.134   1.448   5.820
 7573TIP3    H122660   1.055   1.464   5.769
 7573TIP3    H222661   1.114   1.481   5.908
 7574TIP3   OH222662   7.817   5.070   1.504
 7574TIP3    H122663   7.741   5.019   1.477
 7574TIP3    H222664   7.831   5.045   1.596
 7575TIP3   OH222665   5.784   5.178   4.384
 7575TIP3    H122666   5.766   5.085   4.367
 7575TIP3    H222667   5.787   5.185   4.480
 7576TIP3   OH222668   2.418   7.000   5.895
 7576TIP3    H122669   2.405   7.070   5.831
 7576TIP3    H222670   2.409   6.919   5.844
 7577TIP3   OH222671   8.350   0.217   0.831
 7577TIP3    H122672   8.328   0.229   0.924
 7577TIP3    H222673   8.422   0.278   0.816
 7578TIP3   OH222674   2.569   2.512   2.427
 7578TIP3    H122675   2.493   2.487   2.478
 7578TIP3    H222676   2.552   2.476   2.340
 7579TIP3   OH222677   7.055   0.629   5.147
 7579TIP3    H122678   7.130   0.677   5.112
 7579TIP3    H222679   6.983   0.692   5.145
 7580TIP3   OH222680   0.330   4.198   5.799
 7580TIP3    H122681   0.268   4.247   5.745
 7580TIP3    H222682   0.371   4.263   5.855
 7581TIP3   OH222683   6.018   6.432   1.779
 7581TIP3    H122684   6.021   6.343   1.744
 7581TIP3    H222685   6.036   6.488   1.703
 7582TIP3   OH222686   6.653   1.425   5.988
 7582TIP3    H122687   6.632   1.375   6.067
 7582TIP3    H222688   6.640   1.516   6.012
 7583TIP3   OH222689   5.649   3.222   0.021
 7583TIP3    H122690   5.580   3.155   0.029
 7583TIP3    H222691   5.637   3.258  -0.066
 7584TIP3   OH222692   7.243   0.439   6.723
 7584TIP3    H122693   7.183   0.506   6.690
 7584TIP3    H222694   7.317   0.441   6.662
 7585TIP3   OH222695   7.890   4.722   0.976
 7585TIP3    H122696   7.826   4.696   0.910
 7585TIP3    H222697   7.921   4.639   1.013
 7586TIP3   OH222698   2.093   1.604   5.606
 7586TIP3    H122699   2.176   1.592   5.653
 7586TIP3    H222700   2.118   1.642   5.522
 7587TIP3   OH222701   3.926   1.186   0.157
 7587TIP3    H122702   3.888   1.114   0.207
 7587TIP3    H222703   3.871   1.261   0.178
 7588TIP3   OH222704   0.395   2.031   6.570
 7588TIP3    H122705   0.377   1.971   6.641
 7588TIP3    H222706   0.320   2.090   6.568
 7589TIP3   OH222707   7.592   7.085   0.468
 7589TIP3    H122708   7.572   7.060   0.558
 7589TIP3    H222709   7.529   7.154   0.448
 7590TIP3   OH222710   7.292   2.412   5.974
 7590TIP3    H122711   7.239   2.439   6.049
 7590TIP3    H222712   7.245   2.444   5.898
 7591TIP3   OH222713   6.005   6.678   2.560
 7591TIP3    H122714   6.096   6.705   2.550
 7591TIP3    H222715   5.974   6.663   2.470
 7592TIP3   OH222716   2.865   5.855   2.115
 7592TIP3    H122717   2.939   5.841   2.175
 7592TIP3    H222718   2.865   5.949   2.099
 7593TIP3   OH222719   2.725   0.189   0.605
 7593TIP3    H122720   2.821   0.178   0.605
 7593TIP3    H222721   2.712   0.280   0.578
 7594TIP3   OH222722   1.468   1.662   4.578
 7594TIP3    H122723   1.549   1.664   4.629
 7594TIP3    H222724   1.496   1.680   4.488
 7595TIP3   OH222725   5.644   4.550   4.700
 7595TIP3    H122726   5.631   4.518   4.789
 7595TIP3    H222727   5.607   4.482   4.644
 7596TIP3   OH222728   3.253   0.946   3.171
 7596TIP3    H122729   3.293   0.866   3.203
 7596TIP3    H222730   3.181   0.916   3.115
 7597TIP3   OH222731   5.326   5.127   1.003
 7597TIP3    H122732   5.266   5.178   1.057
 7597TIP3    H222733   5.412   5.141   1.042
 7598TIP3   OH222734   5.567   2.779   4.004
 7598TIP3    H122735   5.592   2.768   3.912
 7598TIP3    H222736   5.471   2.775   4.003
 7599TIP3   OH222737   4.632   2.683   5.592
 7599TIP3    H122738   4.569   2.728   5.649
 7599TIP3    H222739   4.717   2.698   5.633
 7600TIP3   OH222740   1.606   6.450   6.133
 7600TIP3    H122741   1.557   6.520   6.175
 7600TIP3    H222742   1.542   6.379   6.121
 7601TIP3   OH222743   3.284   3.966   5.397
 7601TIP3    H122744   3.301   4.050   5.354
 7601TIP3    H222745   3.219   3.923   5.341
 7602TIP3   OH222746   5.908   7.396   4.457
 7602TIP3    H122747   5.954   7.421   4.537
 7602TIP3    H222748   5.906   7.475   4.404
 7603TIP3   OH222749   6.867   7.396   0.105
 7603TIP3    H122750   6.852   7.425   0.194
 7603TIP3    H222751   6.789   7.422   0.057
 7604TIP3   OH222752   8.299   0.761   6.405
 7604TIP3    H122753   8.253   0.820   6.346
 7604TIP3    H222754   8.353   0.819   6.459
 7605TIP3   OH222755   4.768   4.058   3.875
 7605TIP3    H122756   4.773   3.982   3.933
 7605TIP3    H222757   4.757   4.020   3.788
 7606TIP3   OH222758   2.530   7.381   4.450
 7606TIP3    H122759   2.513   7.466   4.491
 7606TIP3    H222760   2.460   7.371   4.385
 7607TIP3   OH222761   7.769   2.990   6.487
 7607TIP3    H122762   7.742   3.045   6.413
 7607TIP3    H222763   7.790   3.052   6.557
 7608TIP3   OH222764   5.810   4.589   2.263
 7608TIP3    H122765   5.815   4.684   2.271
 7608TIP3    H222766   5.875   4.556   2.325
 7609TIP3   OH222767   5.985   6.773   0.555
 7609TIP3    H122768   5.929   6.697   0.538
 7609TIP3    H222769   6.010   6.804   0.468
 7610TIP3   OH222770   5.354   7.677   1.220
 7610TIP3    H122771   5.320   7.619   1.288
 7610TIP3    H222772   5.311   7.761   1.237
 7611TIP3   OH222773   1.419   4.802   4.987
 7611TIP3    H122774   1.355   4.840   5.047
 7611TIP3    H222775   1.428   4.711   5.015
 7612TIP3   OH222776   6.841   2.810   2.560
 7612TIP3    H122777   6.762   2.757   2.574
 7612TIP3    H222778   6.854   2.810   2.465
 7613TIP3   OH222779   4.827   1.852   3.001
 7613TIP3    H122780   4.872   1.771   3.025
 7613TIP3    H222781   4.837   1.909   3.077
 7614TIP3   OH222782   5.709   1.528   0.298
 7614TIP3    H122783   5.677   1.602   0.350
 7614TIP3    H222784   5.686   1.550   0.208
 7615TIP3   OH222785   4.723   1.004   2.396
 7615TIP3    H122786   4.677   0.946   2.457
 7615TIP3    H222787   4.781   1.055   2.452
 7616TIP3   OH222788   3.711   0.355   2.600
 7616TIP3    H122789   3.664   0.272   2.608
 7616TIP3    H222790   3.735   0.361   2.508
 7617TIP3   OH222791   4.907   6.132   0.939
 7617TIP3    H122792   4.862   6.214   0.917
 7617TIP3    H222793   4.996   6.144   0.905
 7618TIP3   OH222794   7.486   0.007   0.951
 7618TIP3    H122795   7.547  -0.037   0.893
 7618TIP3    H222796   7.434   0.063   0.893
 7619TIP3   OH222797   0.093   0.542   1.952
 7619TIP3    H122798   0.107   0.587   2.035
 7619TIP3    H222799   0.164   0.572   1.896
 7620TIP3   OH222800   7.915   2.260   5.725
 7620TIP3    H122801   7.854   2.328   5.752
 7620TIP3    H222802   7.908   2.193   5.793
 7621TIP3   OH222803   5.097   4.813   6.077
 7621TIP3    H122804   5.082   4.799   5.984
 7621TIP3    H222805   5.157   4.887   6.081
 7622TIP3   OH222806   1.317   7.732   5.569
 7622TIP3    H122807   1.309   7.784   5.489
 7622TIP3    H222808   1.245   7.762   5.625
 7623TIP3   OH222809   2.119   4.100   5.651
 7623TIP3    H122810   2.074   4.180   5.624
 7623TIP3    H222811   2.191   4.131   5.706
 7624TIP3   OH222812   0.992   0.387   2.430
 7624TIP3    H122813   0.976   0.301   2.391
 7624TIP3    H222814   1.023   0.441   2.358
 7625TIP3   OH222815   7.283   2.928   4.019
 7625TIP3    H122816   7.314   2.905   4.106
 7625TIP3    H222817   7.217   2.862   3.999
 7626TIP3   OH222818   2.252   7.732   4.832
 7626TIP3    H122819   2.317   7.715   4.900
 7626TIP3    H222820   2.294   7.794   4.773
 7627TIP3   OH222821   5.316   1.405   0.474
 7627TIP3    H122822   5.361   1.386   0.391
 7627TIP3    H222823   5.385   1.433   0.533
 7628TIP3   OH222824   4.771   2.281   0.138
 7628TIP3    H122825   4.712   2.216   0.100
 7628TIP3    H222826   4.855   2.267   0.094
 7629TIP3   OH222827   7.243   7.100   4.122
 7629TIP3    H122828   7.157   7.088   4.163
 7629TIP3    H222829   7.306   7.076   4.189
 7630TIP3   OH222830   2.741   7.792   4.377
 7630TIP3    H122831   2.826   7.824   4.347
 7630TIP3    H222832   2.759   7.751   4.462
 7631TIP3   OH222833   7.989   7.233   4.856
 7631TIP3    H122834   8.065   7.264   4.808
 7631TIP3    H222835   7.915   7.278   4.816
 7632TIP3   OH222836   0.370   4.465   6.844
 7632TIP3    H122837   0.367   4.496   6.934
 7632TIP3    H222838   0.400   4.375   6.851
 7633TIP3   OH222839   5.912   2.728   0.550
 7633TIP3    H122840   5.991   2.782   0.551
 7633TIP3    H222841   5.926   2.668   0.477
 7634TIP3   OH222842   6.703   1.934   1.549
 7634TIP3    H122843   6.769   1.983   1.597
 7634TIP3    H222844   6.629   1.927   1.609
 7635TIP3   OH222845   1.409   0.685   1.796
 7635TIP3    H122846   1.320   0.656   1.814
 7635TIP3    H222847   1.462   0.646   1.866
 7636TIP3   OH222848   2.834   7.765   1.766
 7636TIP3    H122849   2.928   7.786   1.765
 7636TIP3    H222850   2.800   7.814   1.841
 7637TIP3   OH222851   4.446   2.545   5.822
 7637TIP3    H122852   4.498   2.516   5.747
 7637TIP3    H222853   4.434   2.639   5.807
 7638TIP3   OH222854   4.901   1.530   6.803
 7638TIP3    H122855   4.816   1.500   6.834
 7638TIP3    H222856   4.942   1.452   6.765
 7639TIP3   OH222857   2.102   2.339   6.771
 7639TIP3    H122858   2.192   2.360   6.797
 7639TIP3    H222859   2.093   2.246   6.790
 7640TIP3   OH222860   8.150   0.240   3.899
 7640TIP3    H122861   8.217   0.205   3.841
 7640TIP3    H222862   8.131   0.327   3.864
 7641TIP3   OH222863   1.891   2.320   0.070
 7641TIP3    H122864   1.881   2.231   0.035
 7641TIP3    H222865   1.867   2.377  -0.003
 7642TIP3   OH222866   4.215   3.823   3.838
 7642TIP3    H122867   4.286   3.763   3.861
 7642TIP3    H222868   4.189   3.796   3.750
 7643TIP3   OH222869   8.052   4.734   6.478
 7643TIP3    H122870   8.073   4.755   6.569
 7643TIP3    H222871   7.969   4.780   6.462
 7644TIP3   OH222872   5.807   6.538   0.807
 7644TIP3    H122873   5.743   6.555   0.876
 7644TIP3    H222874   5.768   6.574   0.728
 7645TIP3   OH222875   2.209   4.909   1.729
 7645TIP3    H122876   2.151   4.908   1.806
 7645TIP3    H222877   2.292   4.874   1.761
 7646TIP3   OH222878   7.547   1.105   6.131
 7646TIP3    H122879   7.542   1.127   6.224
 7646TIP3    H222880   7.465   1.059   6.113
 7647TIP3   OH222881   7.751   2.660   4.304
 7647TIP3    H122882   7.751   2.695   4.215
 7647TIP3    H222883   7.839   2.626   4.318
 7648TIP3   OH222884   6.682   7.376   1.275
 7648TIP3    H122885   6.732   7.295   1.265
 7648TIP3    H222886   6.709   7.431   1.202
 7649TIP3   OH222887   4.173   4.950   5.528
 7649TIP3    H122888   4.111   5.018   5.501
 7649TIP3    H222889   4.241   4.997   5.576
 7650TIP3   OH222890   5.259   1.194   5.518
 7650TIP3    H122891   5.293   1.169   5.604
 7650TIP3    H222892   5.263   1.113   5.466
 7651TIP3   OH222893   0.938   4.400   2.473
 7651TIP3    H122894   0.846   4.422   2.489
 7651TIP3    H222895   0.956   4.437   2.386
 7652TIP3   OH222896   4.993   6.734   6.678
 7652TIP3    H122897   4.989   6.733   6.582
 7652TIP3    H222898   4.903   6.722   6.706
 7653TIP3   OH222899   2.690   4.622   5.685
 7653TIP3    H122900   2.775   4.581   5.702
 7653TIP3    H222901   2.710   4.697   5.629
 7654TIP3   OH222902   8.049   7.520   3.628
 7654TIP3    H122903   7.967   7.566   3.607
 7654TIP3    H222904   8.036   7.432   3.594
 7655TIP3   OH222905   0.489   5.038   3.865
 7655TIP3    H122906   0.506   4.980   3.939
 7655TIP3    H222907   0.397   5.021   3.842
 7656TIP3   OH222908   5.656   1.508   1.220
 7656TIP3    H122909   5.692   1.503   1.132
 7656TIP3    H222910   5.732   1.520   1.277
 7657TIP3   OH222911   5.011   5.976   4.429
 7657TIP3    H122912   4.944   5.959   4.363
 7657TIP3    H222913   4.991   6.063   4.463
 7658TIP3   OH222914   7.332   6.448   3.507
 7658TIP3    H122915   7.264   6.454   3.440
 7658TIP3    H222916   7.333   6.535   3.548
 7659TIP3   OH222917   2.948   5.112   3.003
 7659TIP3    H122918   2.880   5.052   2.972
 7659TIP3    H222919   2.918   5.140   3.089
 7660TIP3   OH222920   3.451   7.593   0.623
 7660TIP3    H122921   3.430   7.687   0.621
 7660TIP3    H222922   3.535   7.587   0.578
 7661TIP3   OH222923   0.669   5.498   2.789
 7661TIP3    H122924   0.733   5.568   2.776
 7661TIP3    H222925   0.715   5.433   2.843
 7662TIP3   OH222926   3.458   1.778   2.672
 7662TIP3    H122927   3.552   1.766   2.682
 7662TIP3    H222928   3.428   1.808   2.758
 7663TIP3   OH222929   1.017   4.313   3.343
 7663TIP3    H122930   1.033   4.244   3.408
 7663TIP3    H222931   0.934   4.351   3.368
 7664TIP3   OH222932   7.230   2.415   2.932
 7664TIP3    H122933   7.246   2.398   3.025
 7664TIP3    H222934   7.147   2.371   2.914
 7665TIP3   OH222935   5.866   3.985   1.019
 7665TIP3    H122936   5.772   3.969   1.018
 7665TIP3    H222937   5.878   4.063   0.965
 7666TIP3   OH222938   2.270   0.569   4.999
 7666TIP3    H122939   2.252   0.497   5.060
 7666TIP3    H222940   2.191   0.623   5.003
 7667TIP3   OH222941   4.519   4.315   6.377
 7667TIP3    H122942   4.499   4.386   6.315
 7667TIP3    H222943   4.590   4.266   6.336
 7668TIP3   OH222944   3.615   1.080   4.072
 7668TIP3    H122945   3.543   1.104   4.014
 7668TIP3    H222946   3.586   1.108   4.159
 7669TIP3   OH222947   3.016   1.630   1.050
 7669TIP3    H122948   2.969   1.638   1.133
 7669TIP3    H222949   2.978   1.554   1.008
 7670TIP3   OH222950   8.132   7.058   6.787
 7670TIP3    H122951   8.182   7.132   6.752
 7670TIP3    H222952   8.127   6.995   6.716
 7671TIP3   OH222953   4.208   0.872   2.932
 7671TIP3    H122954   4.197   0.877   2.837
 7671TIP3    H222955   4.167   0.789   2.956
 7672TIP3   OH222956   4.356   4.860   5.199
 7672TIP3    H122957   4.351   4.943   5.247
 7672TIP3    H222958   4.450   4.842   5.194
 7673TIP3   OH222959   5.495   5.585   2.931
 7673TIP3    H122960   5.524   5.668   2.968
 7673TIP3    H222961   5.560   5.564   2.865
 7674TIP3   OH222962   2.059   0.292   3.719
 7674TIP3    H122963   2.132   0.349   3.741
 7674TIP3    H222964   2.099   0.220   3.668
 7675TIP3   OH222965   7.904   0.089   0.136
 7675TIP3    H122966   7.939   0.127   0.056
 7675TIP3    H222967   7.973   0.031   0.168
 7676TIP3   OH222968   0.217   4.023   5.982
 7676TIP3    H122969   0.271   4.079   5.926
 7676TIP3    H222970   0.136   4.010   5.933
 7677TIP3   OH222971   4.814   1.418   0.819
 7677TIP3    H122972   4.834   1.362   0.744
 7677TIP3    H222973   4.719   1.414   0.827
 7678TIP3   OH222974   6.020   1.841   0.533
 7678TIP3    H122975   6.060   1.909   0.587
 7678TIP3    H222976   5.936   1.823   0.576
 7679TIP3   OH222977   8.397   6.081   0.193
 7679TIP3    H122978   8.308   6.056   0.172
 7679TIP3    H222979   8.452   6.011   0.157
 7680TIP3   OH222980   8.212   3.221   5.102
 7680TIP3    H122981   8.301   3.218   5.137
 7680TIP3    H222982   8.157   3.232   5.179
 7681TIP3   OH222983   0.773   0.253   0.068
 7681TIP3    H122984   0.682   0.228   0.082
 7681TIP3    H222985   0.769   0.337   0.023
 7682TIP3   OH222986   1.854   4.176   2.266
 7682TIP3    H122987   1.785   4.234   2.234
 7682TIP3    H222988   1.814   4.089   2.267
 7683TIP3   OH222989   7.936   4.529   0.756
 7683TIP3    H122990   7.931   4.476   0.835
 7683TIP3    H222991   7.845   4.536   0.726
 7684TIP3   OH222992   6.314   1.492  -0.011
 7684TIP3    H122993   6.260   1.570  -0.019
 7684TIP3    H222994   6.364   1.505   0.070
 7685TIP3   OH222995   8.098   3.997   1.598
 7685TIP3    H122996   8.011   3.959   1.586
 7685TIP3    H222997   8.158   3.925   1.580
 7686TIP3   OH222998   5.921   7.514   4.728
 7686TIP3    H122999   6.016   7.519   4.723
 7686TIP3    H223000   5.895   7.595   4.773
 7687TIP3   OH223001   4.138   1.248   3.593
 7687TIP3    H123002   4.091   1.249   3.509
 7687TIP3    H223003   4.131   1.158   3.622
 7688TIP3   OH223004   7.345   3.153   4.600
 7688TIP3    H123005   7.433   3.160   4.637
 7688TIP3    H223006   7.287   3.167   4.675
 7689TIP3   OH223007   0.100   1.377   2.462
 7689TIP3    H123008   0.129   1.286   2.456
 7689TIP3    H223009   0.057   1.383   2.547
 7690TIP3   OH223010   8.169   4.711   2.070
 7690TIP3    H123011   8.244   4.687   2.124
 7690TIP3    H223012   8.147   4.800   2.098
 7691TIP3   OH223013   7.654   7.934   1.739
 7691TIP3    H123014   7.569   7.911   1.700
 7691TIP3    H223015   7.718   7.887   1.686
 7692TIP3   OH223016   1.016   3.522   0.807
 7692TIP3    H123017   1.021   3.489   0.897
 7692TIP3    H223018   1.065   3.605   0.809
 7693TIP3   OH223019   7.217   4.354   2.080
 7693TIP3    H123020   7.231   4.373   2.173
 7693TIP3    H223021   7.180   4.266   2.078
 7694TIP3   OH223022   8.149   4.388   3.369
 7694TIP3    H123023   8.106   4.311   3.333
 7694TIP3    H223024   8.078   4.446   3.393
 7695TIP3   OH223025   5.570   2.600   0.834
 7695TIP3    H123026   5.646   2.541   0.838
 7695TIP3    H223027   5.524   2.585   0.916
 7696TIP3   OH223028   5.329   3.416   4.046
 7696TIP3    H123029   5.404   3.375   4.088
 7696TIP3    H223030   5.358   3.506   4.030
 7697TIP3   OH223031   2.650   3.622   0.019
 7697TIP3    H123032   2.585   3.553   0.019
 7697TIP3    H223033   2.601   3.702   0.037
 7698TIP3   OH223034   6.659   5.942   6.615
 7698TIP3    H123035   6.741   5.991   6.624
 7698TIP3    H223036   6.591   6.003   6.641
 7699TIP3   OH223037   3.982   1.800   6.129
 7699TIP3    H123038   3.938   1.865   6.073
 7699TIP3    H223039   3.916   1.732   6.143
 7700TIP3   OH223040   7.003   2.675   3.336
 7700TIP3    H123041   7.061   2.598   3.337
 7700TIP3    H223042   6.962   2.673   3.250
 7701TIP3   OH223043   5.099   5.655   6.089
 7701TIP3    H123044   5.022   5.711   6.083
 7701TIP3    H223045   5.121   5.635   5.998
 7702TIP3   OH223046   2.763   4.406   2.818
 7702TIP3    H123047   2.832   4.392   2.753
 7702TIP3    H223048   2.697   4.339   2.797
 7703TIP3   OH223049   6.141   2.786   3.010
 7703TIP3    H123050   6.190   2.796   3.092
 7703TIP3    H223051   6.176   2.854   2.953
 7704TIP3   OH223052   3.863   4.862   6.528
 7704TIP3    H123053   3.902   4.835   6.445
 7704TIP3    H223054   3.929   4.918   6.568
 7705TIP3   OH223055   7.127   5.626   4.025
 7705TIP3    H123056   7.222   5.635   4.020
 7705TIP3    H223057   7.094   5.694   3.966
 7706TIP3   OH223058   4.398   6.812   4.496
 7706TIP3    H123059   4.339   6.872   4.541
 7706TIP3    H223060   4.345   6.734   4.477
 7707TIP3   OH223061   4.944   4.262   0.283
 7707TIP3    H123062   4.873   4.314   0.321
 7707TIP3    H223063   4.911   4.234   0.197
 7708TIP3   OH223064   7.766   2.271   3.357
 7708TIP3    H123065   7.736   2.351   3.398
 7708TIP3    H223066   7.782   2.211   3.430
 7709TIP3   OH223067   6.984   1.204   4.411
 7709TIP3    H123068   6.892   1.204   4.438
 7709TIP3    H223069   6.987   1.263   4.336
 7710TIP3   OH223070   6.382   1.786   5.198
 7710TIP3    H123071   6.406   1.714   5.257
 7710TIP3    H223072   6.420   1.864   5.238
 7711TIP3   OH223073   1.323   4.888   5.565
 7711TIP3    H123074   1.299   4.968   5.612
 7711TIP3    H223075   1.273   4.892   5.483
 7712TIP3   OH223076   7.244   2.084   5.796
 7712TIP3    H123077   7.237   2.105   5.889
 7712TIP3    H223078   7.333   2.112   5.772
 7713TIP3   OH223079   3.711   6.110   2.004
 7713TIP3    H123080   3.733   6.017   2.000
 7713TIP3    H223081   3.618   6.113   1.983
 7714TIP3   OH223082   0.024   1.294   0.701
 7714TIP3    H123083   0.096   1.232   0.687
 7714TIP3    H223084   0.004   1.287   0.794
 7715TIP3   OH223085   2.870   7.863   2.772
 7715TIP3    H123086   2.946   7.808   2.795
 7715TIP3    H223087   2.884   7.886   2.680
 7716TIP3   OH223088   1.706   6.139   0.431
 7716TIP3    H123089   1.646   6.167   0.501
 7716TIP3    H223090   1.771   6.085   0.476
 7717TIP3   OH223091   4.437   4.621   0.974
 7717TIP3    H123092   4.369   4.687   0.987
 7717TIP3    H223093   4.397   4.557   0.915
 7718TIP3   OH223094   5.343   3.828   0.751
 7718TIP3    H123095   5.389   3.892   0.697
 7718TIP3    H223096   5.266   3.805   0.700
 7719TIP3   OH223097   8.055   5.127   6.131
 7719TIP3    H123098   8.033   5.034   6.125
 7719TIP3    H223099   8.131   5.137   6.073
 7720TIP3   OH223100   1.212   1.308   2.464
 7720TIP3    H123101   1.289   1.364   2.454
 7720TIP3    H223102   1.233   1.229   2.415
 7721TIP3   OH223103   5.946   3.522   3.793
 7721TIP3    H123104   6.006   3.595   3.774
 7721TIP3    H223105   6.004   3.445   3.799
 7722TIP3   OH223106   0.122   6.204   5.473
 7722TIP3    H123107   0.046   6.237   5.425
 7722TIP3    H223108   0.105   6.110   5.483
 7723TIP3   OH223109   4.408   5.438   3.262
 7723TIP3    H123110   4.489   5.408   3.220
 7723TIP3    H223111   4.379   5.363   3.313
 7724TIP3   OH223112   4.961   5.341   3.639
 7724TIP3    H123113   5.022   5.276   3.673
 7724TIP3    H223114   4.877   5.319   3.679
 7725TIP3   OH223115   5.410   3.385   6.550
 7725TIP3    H123116   5.406   3.338   6.633
 7725TIP3    H223117   5.488   3.439   6.555
 7726TIP3   OH223118   5.172   0.786   1.597
 7726TIP3    H123119   5.189   0.881   1.601
 7726TIP3    H223120   5.130   0.773   1.512
 7727TIP3   OH223121   6.522   3.762   1.700
 7727TIP3    H123122   6.496   3.728   1.786
 7727TIP3    H223123   6.547   3.853   1.717
 7728TIP3   OH223124   5.267   3.625   6.789
 7728TIP3    H123125   5.318   3.581   6.856
 7728TIP3    H223126   5.180   3.636   6.828
 7729TIP3   OH223127   5.343   4.498   0.470
 7729TIP3    H123128   5.259   4.540   0.449
 7729TIP3    H223129   5.328   4.405   0.456
 7730TIP3   OH223130   5.930   2.404   5.161
 7730TIP3    H123131   5.952   2.325   5.210
 7730TIP3    H223132   5.927   2.473   5.227
 7731TIP3   OH223133   3.799   0.787   0.933
 7731TIP3    H123134   3.730   0.854   0.939
 7731TIP3    H223135   3.827   0.789   0.841
 7732TIP3   OH223136   1.506   5.730   0.678
 7732TIP3    H123137   1.440   5.782   0.726
 7732TIP3    H223138   1.484   5.639   0.700
 7733TIP3   OH223139   3.776   3.978   3.168
 7733TIP3    H123140   3.866   4.007   3.185
 7733TIP3    H223141   3.772   3.889   3.204
 7734TIP3   OH223142   6.676   3.829   5.086
 7734TIP3    H123143   6.747   3.766   5.074
 7734TIP3    H223144   6.717   3.914   5.071
 7735TIP3   OH223145   8.172   1.028   0.462
 7735TIP3    H123146   8.224   1.078   0.526
 7735TIP3    H223147   8.219   0.945   0.452
 7736TIP3   OH223148   2.450   4.425   0.404
 7736TIP3    H123149   2.376   4.474   0.440
 7736TIP3    H223150   2.411   4.363   0.343
 7737TIP3   OH223151   1.030   1.139   6.541
 7737TIP3    H123152   1.008   1.130   6.448
 7737TIP3    H223153   1.095   1.071   6.557
 7738TIP3   OH223154   7.701   1.010   0.551
 7738TIP3    H123155   7.611   0.980   0.565
 7738TIP3    H223156   7.729   1.042   0.636
 7739TIP3   OH223157   4.121   4.517   5.197
 7739TIP3    H123158   4.115   4.520   5.292
 7739TIP3    H223159   4.096   4.605   5.169
 7740TIP3   OH223160   6.150   3.890   0.601
 7740TIP3    H123161   6.155   3.796   0.619
 7740TIP3    H223162   6.239   3.922   0.616
 7741TIP3   OH223163   5.123   5.588   4.424
 7741TIP3    H123164   5.185   5.659   4.440
 7741TIP3    H223165   5.067   5.621   4.354
 7742TIP3   OH223166   7.685   0.859   5.938
 7742TIP3    H123167   7.761   0.847   5.881
 7742TIP3    H223168   7.706   0.937   5.989
 7743TIP3   OH223169   2.540   4.199   4.357
 7743TIP3    H123170   2.551   4.172   4.266
 7743TIP3    H223171   2.629   4.212   4.389
 7744TIP3   OH223172   3.339   5.880   4.011
 7744TIP3    H123173   3.270   5.874   4.077
 7744TIP3    H223174   3.420   5.864   4.059
 7745TIP3   OH223175   2.016   1.575   3.876
 7745TIP3    H123176   2.065   1.647   3.917
 7745TIP3    H223177   1.943   1.617   3.832
 7746TIP3   OH223178   3.524   0.857   5.712
 7746TIP3    H123179   3.551   0.787   5.771
 7746TIP3    H223180   3.585   0.929   5.729
 7747TIP3   OH223181   5.815   5.943   3.852
 7747TIP3    H123182   5.890   5.989   3.889
 7747TIP3    H223183   5.847   5.904   3.771
 7748TIP3   OH223184   4.723   0.336   6.655
 7748TIP3    H123185   4.787   0.267   6.676
 7748TIP3    H223186   4.763   0.386   6.585
 7749TIP3   OH223187   2.864   5.264   3.857
 7749TIP3    H123188   2.850   5.326   3.784
 7749TIP3    H223189   2.934   5.207   3.826
 7750TIP3   OH223190   1.293   1.623   2.090
 7750TIP3    H123191   1.340   1.700   2.058
 7750TIP3    H223192   1.202   1.638   2.065
 7751TIP3   OH223193   6.238   7.520   6.043
 7751TIP3    H123194   6.183   7.476   5.979
 7751TIP3    H223195   6.224   7.613   6.028
 7752TIP3   OH223196   8.113   4.389   2.350
 7752TIP3    H123197   8.027   4.362   2.381
 7752TIP3    H223198   8.100   4.409   2.257
 7753TIP3   OH223199   2.287   7.134   1.815
 7753TIP3    H123200   2.194   7.115   1.825
 7753TIP3    H223201   2.331   7.073   1.874
 7754TIP3   OH223202   0.480   5.152   4.666
 7754TIP3    H123203   0.452   5.214   4.734
 7754TIP3    H223204   0.552   5.104   4.705
 7755TIP3   OH223205   4.527   0.805   4.046
 7755TIP3    H123206   4.614   0.811   4.008
 7755TIP3    H223207   4.504   0.712   4.041
 7756TIP3   OH223208   8.261   3.771   2.301
 7756TIP3    H123209   8.310   3.852   2.288
 7756TIP3    H223210   8.273   3.750   2.393
 7757TIP3   OH223211   0.914   7.655   1.282
 7757TIP3    H123212   0.894   7.562   1.293
 7757TIP3    H223213   0.853   7.685   1.215
 7758TIP3   OH223214   6.180   7.006   4.714
 7758TIP3    H123215   6.175   6.947   4.790
 7758TIP3    H223216   6.126   6.963   4.647
 7759TIP3   OH223217   5.820   3.949   6.131
 7759TIP3    H123218   5.860   3.882   6.186
 7759TIP3    H223219   5.727   3.946   6.152
 7760TIP3   OH223220   1.082   4.642   5.824
 7760TIP3    H123221   1.036   4.716   5.863
 7760TIP3    H223222   1.014   4.592   5.778
 7761TIP3   OH223223   6.219   2.815   3.291
 7761TIP3    H123224   6.250   2.888   3.343
 7761TIP3    H223225   6.142   2.782   3.337
 7762TIP3   OH223226   7.203   5.069   0.215
 7762TIP3    H123227   7.250   5.067   0.299
 7762TIP3    H223228   7.266   5.104   0.153
 7763TIP3   OH223229   7.560   5.886   0.692
 7763TIP3    H123230   7.585   5.802   0.730
 7763TIP3    H223231   7.510   5.863   0.614
 7764TIP3   OH223232   3.001   7.321   3.662
 7764TIP3    H123233   3.029   7.392   3.719
 7764TIP3    H223234   2.964   7.255   3.721
 7765TIP3   OH223235   4.687   4.392   0.944
 7765TIP3    H123236   4.628   4.321   0.967
 7765TIP3    H223237   4.646   4.435   0.869
 7766TIP3   OH223238   1.097   4.804   0.645
 7766TIP3    H123239   1.142   4.830   0.565
 7766TIP3    H223240   1.162   4.818   0.715
 7767TIP3   OH223241   4.405   0.502   2.976
 7767TIP3    H123242   4.408   0.525   3.069
 7767TIP3    H223243   4.320   0.458   2.964
 7768TIP3   OH223244   5.400   2.542   0.509
 7768TIP3    H123245   5.382   2.557   0.417
 7768TIP3    H223246   5.469   2.605   0.531
 7769TIP3   OH223247   1.261   4.835   0.846
 7769TIP3    H123248   1.283   4.864   0.935
 7769TIP3    H223249   1.309   4.753   0.835
 7770TIP3   OH223250   6.415   7.127   1.111
 7770TIP3    H123251   6.352   7.119   1.039
 7770TIP3    H223252   6.484   7.185   1.076
 7771TIP3   OH223253   1.819   3.703   4.562
 7771TIP3    H123254   1.835   3.790   4.600
 7771TIP3    H223255   1.751   3.718   4.496
 7772TIP3   OH223256   2.332   2.926   2.376
 7772TIP3    H123257   2.260   2.871   2.344
 7772TIP3    H223258   2.361   2.882   2.456
 7773TIP3   OH223259   3.793   6.290   0.746
 7773TIP3    H123260   3.765   6.278   0.837
 7773TIP3    H223261   3.767   6.380   0.725
 7774TIP3   OH223262   4.095   7.043   4.847
 7774TIP3    H123263   4.165   7.037   4.782
 7774TIP3    H223264   4.130   7.002   4.926
 7775TIP3   OH223265   3.651   4.747   1.204
 7775TIP3    H123266   3.612   4.762   1.290
 7775TIP3    H223267   3.719   4.814   1.196
 7776TIP3   OH223268   6.894   2.555   3.793
 7776TIP3    H123269   6.948   2.503   3.853
 7776TIP3    H223270   6.847   2.615   3.850
 7777TIP3   OH223271   5.430   6.377   1.389
 7777TIP3    H123272   5.461   6.287   1.397
 7777TIP3    H223273   5.381   6.393   1.470
 7778TIP3   OH223274   2.617   5.981   1.101
 7778TIP3    H123275   2.597   5.910   1.039
 7778TIP3    H223276   2.592   6.061   1.055
 7779TIP3   OH223277   2.233   1.488   4.255
 7779TIP3    H123278   2.145   1.519   4.277
 7779TIP3    H223279   2.278   1.481   4.340
 7780TIP3   OH223280   5.776   7.003   1.454
 7780TIP3    H123281   5.734   6.925   1.489
 7780TIP3    H223282   5.718   7.075   1.479
 7781TIP3   OH223283   1.824   1.318   1.978
 7781TIP3    H123284   1.832   1.386   1.912
 7781TIP3    H223285   1.864   1.356   2.057
 7782TIP3   OH223286   2.907   4.807   4.135
 7782TIP3    H123287   2.820   4.822   4.098
 7782TIP3    H223288   2.898   4.826   4.228
 7783TIP3   OH223289   2.574   5.738  -0.017
 7783TIP3    H123290   2.485   5.718   0.009
 7783TIP3    H223291   2.620   5.654  -0.015
 7784TIP3   OH223292   3.656   7.785   0.747
 7784TIP3    H123293   3.653   7.766   0.653
 7784TIP3    H223294   3.684   7.703   0.787
 7785TIP3   OH223295   8.029   4.821   0.596
 7785TIP3    H123296   8.087   4.846   0.524
 7785TIP3    H223297   7.950   4.874   0.583
 7786TIP3   OH223298   3.072   2.566   0.727
 7786TIP3    H123299   2.983   2.560   0.762
 7786TIP3    H223300   3.080   2.490   0.669
 7787TIP3   OH223301   2.472   4.644   2.300
 7787TIP3    H123302   2.455   4.641   2.206
 7787TIP3    H223303   2.443   4.731   2.327
 7788TIP3   OH223304   5.332   6.369   6.513
 7788TIP3    H123305   5.355   6.311   6.440
 7788TIP3    H223306   5.350   6.457   6.481
 7789TIP3   OH223307   1.121   2.245   4.659
 7789TIP3    H123308   1.067   2.274   4.732
 7789TIP3    H223309   1.187   2.188   4.699
 7790TIP3   OH223310   1.687   7.916   5.702
 7790TIP3    H123311   1.624   7.960   5.760
 7790TIP3    H223312   1.655   7.826   5.696
 7791TIP3   OH223313   6.395   6.416   3.557
 7791TIP3    H123314   6.403   6.325   3.586
 7791TIP3    H223315   6.301   6.432   3.554
 7792TIP3   OH223316   1.594   7.663   5.639
 7792TIP3    H123317   1.502   7.645   5.622
 7792TIP3    H223318   1.640   7.627   5.564
 7793TIP3   OH223319   1.277   6.689   0.504
 7793TIP3    H123320   1.276   6.636   0.425
 7793TIP3    H223321   1.218   6.643   0.565
 7794TIP3   OH223322   1.850   2.040   5.030
 7794TIP3    H123323   1.844   1.971   4.964
 7794TIP3    H223324   1.887   2.115   4.983
 7795TIP3   OH223325   2.858   5.835   0.958
 7795TIP3    H123326   2.764   5.825   0.943
 7795TIP3    H223327   2.892   5.745   0.959
 7796TIP3   OH223328   6.088   3.928   4.879
 7796TIP3    H123329   6.089   3.988   4.804
 7796TIP3    H223330   6.162   3.957   4.933
 7797TIP3   OH223331   5.881   1.713   6.388
 7797TIP3    H123332   5.815   1.659   6.432
 7797TIP3    H223333   5.911   1.773   6.456
 7798TIP3   OH223334   0.609   4.251   5.248
 7798TIP3    H123335   0.642   4.340   5.235
 7798TIP3    H223336   0.527   4.249   5.198
 7799TIP3   OH223337   4.884   6.569   1.872
 7799TIP3    H123338   4.832   6.505   1.823
 7799TIP3    H223339   4.830   6.648   1.874
 7800TIP3   OH223340   1.864   1.779   0.195
 7800TIP3    H123341   1.822   1.718   0.254
 7800TIP3    H223342   1.866   1.733   0.111
 7801TIP3   OH223343   5.779   3.590   4.425
 7801TIP3    H123344   5.764   3.502   4.460
 7801TIP3    H223345   5.695   3.614   4.386
 7802TIP3   OH223346   1.854   4.746   6.272
 7802TIP3    H123347   1.844   4.689   6.196
 7802TIP3    H223348   1.928   4.709   6.320
 7803TIP3   OH223349   7.676   1.633   1.132
 7803TIP3    H123350   7.676   1.725   1.107
 7803TIP3    H223351   7.596   1.598   1.093
 7804TIP3   OH223352   1.390   5.163   4.871
 7804TIP3    H123353   1.397   5.145   4.965
 7804TIP3    H223354   1.462   5.223   4.853
 7805TIP3   OH223355   4.654   2.927   1.694
 7805TIP3    H123356   4.665   2.841   1.735
 7805TIP3    H223357   4.569   2.923   1.650
 7806TIP3   OH223358   4.666   4.752   0.958
 7806TIP3    H123359   4.709   4.732   0.874
 7806TIP3    H223360   4.587   4.698   0.957
 7807TIP3   OH223361   1.142   6.276   5.141
 7807TIP3    H123362   1.201   6.351   5.129
 7807TIP3    H223363   1.198   6.200   5.126
 7808TIP3   OH223364   7.941   1.691   6.582
 7808TIP3    H123365   7.889   1.747   6.641
 7808TIP3    H223366   7.914   1.716   6.494
 7809TIP3   OH223367   7.064   4.411   3.466
 7809TIP3    H123368   7.121   4.481   3.498
 7809TIP3    H223369   7.124   4.340   3.444
 7810TIP3   OH223370   1.413   2.094   2.727
 7810TIP3    H123371   1.345   2.034   2.698
 7810TIP3    H223372   1.440   2.061   2.812
 7811TIP3   OH223373   6.150   6.648   2.200
 7811TIP3    H123374   6.157   6.571   2.143
 7811TIP3    H223375   6.184   6.618   2.284
 7812TIP3   OH223376   1.593   4.390   4.777
 7812TIP3    H123377   1.577   4.379   4.684
 7812TIP3    H223378   1.687   4.407   4.783
 7813TIP3   OH223379   4.660   5.886   4.549
 7813TIP3    H123380   4.652   5.844   4.635
 7813TIP3    H223381   4.733   5.840   4.507
 7814TIP3   OH223382   4.993   2.967   5.208
 7814TIP3    H123383   4.931   2.955   5.279
 7814TIP3    H223384   5.020   2.878   5.184
 7815TIP3   OH223385   4.199   0.768   3.712
 7815TIP3    H123386   4.243   0.684   3.700
 7815TIP3    H223387   4.124   0.749   3.768
 7816TIP3   OH223388   7.082   5.366   2.279
 7816TIP3    H123389   7.091   5.271   2.285
 7816TIP3    H223390   6.989   5.383   2.293
 7817TIP3   OH223391   5.851   5.341   1.271
 7817TIP3    H123392   5.877   5.253   1.300
 7817TIP3    H223393   5.888   5.350   1.183
 7818TIP3   OH223394   3.412   7.844   4.397
 7818TIP3    H123395   3.444   7.894   4.473
 7818TIP3    H223396   3.491   7.820   4.349
 7819TIP3   OH223397   4.628   6.238   0.569
 7819TIP3    H123398   4.638   6.224   0.663
 7819TIP3    H223399   4.561   6.306   0.562
 7820TIP3   OH223400   7.671   5.603   4.472
 7820TIP3    H123401   7.725   5.677   4.500
 7820TIP3    H223402   7.612   5.640   4.406
 7821TIP3   OH223403   5.273   1.140   2.211
 7821TIP3    H123404   5.279   1.235   2.205
 7821TIP3    H223405   5.179   1.121   2.216
 7822TIP3   OH223406   5.769   4.041   1.600
 7822TIP3    H123407   5.704   3.973   1.586
 7822TIP3    H223408   5.750   4.107   1.534
 7823TIP3   OH223409   2.079   2.834   5.229
 7823TIP3    H123410   2.127   2.899   5.178
 7823TIP3    H223411   2.131   2.754   5.221
 7824TIP3   OH223412   7.422   1.062   3.788
 7824TIP3    H123413   7.388   1.061   3.699
 7824TIP3    H223414   7.395   0.978   3.825
 7825TIP3   OH223415   6.952   4.806   5.932
 7825TIP3    H123416   6.925   4.747   6.002
 7825TIP3    H223417   7.041   4.833   5.957
 7826TIP3   OH223418   6.314   1.542   1.953
 7826TIP3    H123419   6.307   1.558   2.047
 7826TIP3    H223420   6.295   1.449   1.942
 7827TIP3   OH223421   2.851   6.977   0.006
 7827TIP3    H123422   2.764   7.000   0.040
 7827TIP3    H223423   2.911   6.994   0.079
 7828TIP3   OH223424   3.007   5.380   0.354
 7828TIP3    H123425   2.988   5.341   0.439
 7828TIP3    H223426   3.068   5.451   0.373
 7829TIP3   OH223427   5.864   1.081   1.916
 7829TIP3    H123428   5.922   1.031   1.973
 7829TIP3    H223429   5.911   1.087   1.833
 7830TIP3   OH223430   3.617   5.867   1.157
 7830TIP3    H123431   3.582   5.863   1.246
 7830TIP3    H223432   3.545   5.904   1.105
 7831TIP3   OH223433   4.066   7.837   2.513
 7831TIP3    H123434   4.146   7.824   2.463
 7831TIP3    H223435   4.002   7.866   2.448
 7832TIP3   OH223436   3.691   7.605   3.109
 7832TIP3    H123437   3.772   7.651   3.089
 7832TIP3    H223438   3.698   7.582   3.202
 7833TIP3   OH223439   3.603   1.017   3.375
 7833TIP3    H123440   3.696   1.010   3.397
 7833TIP3    H223441   3.558   1.024   3.459
 7834TIP3   OH223442   6.918   7.549   5.240
 7834TIP3    H123443   6.849   7.534   5.175
 7834TIP3    H223444   6.997   7.515   5.199
 7835TIP3   OH223445   0.288   0.196   0.135
 7835TIP3    H123446   0.243   0.220   0.055
 7835TIP3    H223447   0.231   0.130   0.176
 7836TIP3   OH223448   2.021   7.093   0.353
 7836TIP3    H123449   2.009   7.079   0.447
 7836TIP3    H223450   2.002   7.186   0.340
 7837TIP3   OH223451   1.612   7.568   2.835
 7837TIP3    H123452   1.579   7.565   2.925
 7837TIP3    H223453   1.547   7.620   2.788
 7838TIP3   OH223454   4.460   6.705   2.835
 7838TIP3    H123455   4.462   6.681   2.742
 7838TIP3    H223456   4.471   6.800   2.836
 7839TIP3   OH223457   5.559   0.967   1.170
 7839TIP3    H123458   5.605   1.044   1.202
 7839TIP3    H223459   5.600   0.894   1.216
 7840TIP3   OH223460   5.447   0.860   5.083
 7840TIP3    H123461   5.447   0.930   5.149
 7840TIP3    H223462   5.388   0.893   5.015
 7841TIP3   OH223463   6.483   1.114   0.422
 7841TIP3    H123464   6.530   1.137   0.502
 7841TIP3    H223465   6.550   1.080   0.363
 7842TIP3   OH223466   3.712   5.991   4.483
 7842TIP3    H123467   3.626   5.977   4.443
 7842TIP3    H223468   3.742   5.904   4.508
 7843TIP3   OH223469   5.408   2.391   4.800
 7843TIP3    H123470   5.501   2.398   4.779
 7843TIP3    H223471   5.367   2.360   4.719
 7844TIP3   OH223472   3.234   5.160   4.678
 7844TIP3    H123473   3.246   5.137   4.770
 7844TIP3    H223474   3.320   5.146   4.638
 7845TIP3   OH223475   6.320   7.378   2.841
 7845TIP3    H123476   6.270   7.314   2.790
 7845TIP3    H223477   6.397   7.330   2.870
 7846TIP3   OH223478   3.890   4.549   3.205
 7846TIP3    H123479   3.872   4.475   3.264
 7846TIP3    H223480   3.985   4.550   3.196
 7847TIP3   OH223481   2.395   4.513   3.968
 7847TIP3    H123482   2.485   4.512   4.002
 7847TIP3    H223483   2.343   4.475   4.038
 7848TIP3   OH223484   4.702   2.746   3.545
 7848TIP3    H123485   4.660   2.689   3.480
 7848TIP3    H223486   4.706   2.832   3.503
 7849TIP3   OH223487   1.186   1.338   1.532
 7849TIP3    H123488   1.109   1.290   1.564
 7849TIP3    H223489   1.230   1.369   1.612
 7850TIP3   OH223490   0.352   1.864   5.371
 7850TIP3    H123491   0.369   1.933   5.308
 7850TIP3    H223492   0.431   1.809   5.369
 7851TIP3   OH223493   3.578   7.380   6.601
 7851TIP3    H123494   3.599   7.334   6.683
 7851TIP3    H223495   3.542   7.464   6.629
 7852TIP3   OH223496   2.468   0.148   5.107
 7852TIP3    H123497   2.409   0.211   5.065
 7852TIP3    H223498   2.520   0.112   5.034
 7853TIP3   OH223499   4.651   1.179   1.018
 7853TIP3    H123500   4.716   1.111   1.036
 7853TIP3    H223501   4.634   1.219   1.104
 7854TIP3   OH223502   2.183   7.656   1.952
 7854TIP3    H123503   2.194   7.563   1.932
 7854TIP3    H223504   2.141   7.658   2.037
 7855TIP3   OH223505   5.603   4.425   4.471
 7855TIP3    H123506   5.537   4.358   4.488
 7855TIP3    H223507   5.664   4.384   4.410
 7856TIP3   OH223508   1.109   6.382   6.880
 7856TIP3    H123509   1.087   6.313   6.818
 7856TIP3    H223510   1.204   6.383   6.883
 7857TIP3   OH223511   1.618   5.691   1.975
 7857TIP3    H123512   1.658   5.608   2.001
 7857TIP3    H223513   1.524   5.673   1.972
 7858TIP3   OH223514   2.574   4.149   4.103
 7858TIP3    H123515   2.599   4.206   4.030
 7858TIP3    H223516   2.503   4.095   4.068
 7859TIP3   OH223517   4.467   0.121   3.704
 7859TIP3    H123518   4.549   0.123   3.754
 7859TIP3    H223519   4.427   0.037   3.728
 7860TIP3   OH223520   6.465   6.068   3.064
 7860TIP3    H123521   6.411   6.028   2.995
 7860TIP3    H223522   6.507   5.994   3.108
 7861TIP3   OH223523   0.892   7.127   0.975
 7861TIP3    H123524   0.987   7.118   0.986
 7861TIP3    H223525   0.875   7.219   0.992
 7862TIP3   OH223526   5.244   1.985   5.475
 7862TIP3    H123527   5.275   1.987   5.384
 7862TIP3    H223528   5.153   2.013   5.470
 7863TIP3   OH223529   3.678   3.101   4.598
 7863TIP3    H123530   3.745   3.032   4.598
 7863TIP3    H223531   3.603   3.062   4.553
 7864TIP3   OH223532   4.695   0.617   5.375
 7864TIP3    H123533   4.697   0.584   5.285
 7864TIP3    H223534   4.780   0.661   5.386
 7865TIP3   OH223535   2.376   7.056   3.444
 7865TIP3    H123536   2.362   6.981   3.502
 7865TIP3    H223537   2.299   7.111   3.457
 7866TIP3   OH223538   8.203   7.287   1.803
 7866TIP3    H123539   8.261   7.337   1.860
 7866TIP3    H223540   8.208   7.331   1.718
 7867TIP3   OH223541   5.767   3.722   5.904
 7867TIP3    H123542   5.754   3.797   5.963
 7867TIP3    H223543   5.849   3.682   5.935
 7868TIP3   OH223544   4.353   6.358   0.306
 7868TIP3    H123545   4.319   6.268   0.303
 7868TIP3    H223546   4.278   6.412   0.284
 7869TIP3   OH223547   0.681   5.524   5.107
 7869TIP3    H123548   0.771   5.503   5.132
 7869TIP3    H223549   0.677   5.620   5.108
 7870TIP3   OH223550   3.054   7.277   0.665
 7870TIP3    H123551   3.143   7.313   0.663
 7870TIP3    H223552   3.061   7.194   0.617
 7871TIP3   OH223553   3.248   2.037   0.155
 7871TIP3    H123554   3.301   1.993   0.222
 7871TIP3    H223555   3.169   2.064   0.202
 7872TIP3   OH223556   4.234   6.044   0.551
 7872TIP3    H123557   4.310   6.047   0.494
 7872TIP3    H223558   4.167   6.093   0.504
 7873TIP3   OH223559   4.807   6.327   2.446
 7873TIP3    H123560   4.811   6.323   2.351
 7873TIP3    H223561   4.865   6.256   2.475
 7874TIP3   OH223562   3.184   0.068   2.818
 7874TIP3    H123563   3.115   0.038   2.758
 7874TIP3    H223564   3.256   0.007   2.804
 7875TIP3   OH223565   4.870   5.446   0.379
 7875TIP3    H123566   4.853   5.355   0.404
 7875TIP3    H223567   4.949   5.469   0.427
 7876TIP3   OH223568   7.178   5.942   0.608
 7876TIP3    H123569   7.229   5.863   0.628
 7876TIP3    H223570   7.123   5.955   0.685
 7877TIP3   OH223571   5.929   5.786   4.799
 7877TIP3    H123572   5.973   5.710   4.761
 7877TIP3    H223573   5.994   5.856   4.796
 7878TIP3   OH223574   8.037   6.367   2.535
 7878TIP3    H123575   8.120   6.356   2.489
 7878TIP3    H223576   8.045   6.452   2.578
 7879TIP3   OH223577   2.495   4.855   0.081
 7879TIP3    H123578   2.468   4.859   0.173
 7879TIP3    H223579   2.535   4.769   0.071
 7880TIP3   OH223580   5.077   6.609   2.570
 7880TIP3    H123581   5.133   6.544   2.612
 7880TIP3    H223582   5.049   6.568   2.488
 7881TIP3   OH223583   1.855   6.917   1.106
 7881TIP3    H123584   1.847   6.856   1.178
 7881TIP3    H223585   1.803   6.993   1.131
 7882TIP3   OH223586   4.603   0.032   6.504
 7882TIP3    H123587   4.559  -0.004   6.427
 7882TIP3    H223588   4.579   0.124   6.505
 7883TIP3   OH223589   1.662   7.814   0.673
 7883TIP3    H123590   1.691   7.813   0.582
 7883TIP3    H223591   1.694   7.731   0.709
 7884TIP3   OH223592   5.815   5.986   3.368
 7884TIP3    H123593   5.901   5.987   3.326
 7884TIP3    H223594   5.806   6.072   3.408
 7885TIP3   OH223595   5.267   4.905   2.864
 7885TIP3    H123596   5.181   4.902   2.906
 7885TIP3    H223597   5.281   4.816   2.831
 7886TIP3   OH223598   0.201   6.155   6.560
 7886TIP3    H123599   0.288   6.177   6.592
 7886TIP3    H223600   0.207   6.166   6.465
 7887TIP3   OH223601   1.548   4.529   2.323
 7887TIP3    H123602   1.469   4.580   2.341
 7887TIP3    H223603   1.575   4.495   2.408
 7888TIP3   OH223604   5.140   5.194   3.768
 7888TIP3    H123605   5.212   5.246   3.802
 7888TIP3    H223606   5.110   5.143   3.843
 7889TIP3   OH223607   6.249   6.049   1.621
 7889TIP3    H123608   6.294   6.053   1.536
 7889TIP3    H223609   6.320   6.050   1.685
 7890TIP3   OH223610   0.320   5.547   5.401
 7890TIP3    H123611   0.311   5.604   5.477
 7890TIP3    H223612   0.271   5.591   5.332
 7891TIP3   OH223613   5.062   7.802   2.901
 7891TIP3    H123614   5.116   7.842   2.969
 7891TIP3    H223615   5.111   7.723   2.875
 7892TIP3   OH223616   3.661   5.122   6.162
 7892TIP3    H123617   3.576   5.142   6.201
 7892TIP3    H223618   3.642   5.106   6.069
 7893TIP3   OH223619   6.730   1.759   5.612
 7893TIP3    H123620   6.773   1.804   5.686
 7893TIP3    H223621   6.736   1.666   5.635
 7894TIP3   OH223622   6.059   1.416   1.716
 7894TIP3    H123623   6.061   1.497   1.767
 7894TIP3    H223624   5.982   1.425   1.660
 7895TIP3   OH223625   8.298   5.127   6.034
 7895TIP3    H123626   8.338   5.202   6.078
 7895TIP3    H223627   8.299   5.058   6.100
 7896TIP3   OH223628   7.032   2.476   4.673
 7896TIP3    H123629   6.959   2.500   4.730
 7896TIP3    H223630   7.018   2.383   4.652
 7897TIP3   OH223631   2.180   6.605   2.113
 7897TIP3    H123632   2.268   6.636   2.136
 7897TIP3    H223633   2.121   6.670   2.151
 7898TIP3   OH223634   2.333   5.645   1.642
 7898TIP3    H123635   2.381   5.562   1.643
 7898TIP3    H223636   2.368   5.692   1.566
 7899TIP3   OH223637   6.138   3.668   3.468
 7899TIP3    H123638   6.223   3.682   3.425
 7899TIP3    H223639   6.077   3.722   3.419
 7900TIP3   OH223640   4.925   0.097   5.967
 7900TIP3    H123641   4.890   0.159   5.903
 7900TIP3    H223642   4.882   0.014   5.947
 7901TIP3   OH223643   0.849   7.635   0.596
 7901TIP3    H123644   0.867   7.590   0.514
 7901TIP3    H223645   0.799   7.713   0.571
 7902TIP3   OH223646   5.992   6.702   5.065
 7902TIP3    H123647   5.959   6.746   5.143
 7902TIP3    H223648   6.072   6.749   5.042
 7903TIP3   OH223649   7.447   5.831   6.147
 7903TIP3    H123650   7.394   5.911   6.151
 7903TIP3    H223651   7.387   5.761   6.173
 7904TIP3   OH223652   4.258   3.070   4.141
 7904TIP3    H123653   4.308   2.989   4.148
 7904TIP3    H223654   4.252   3.086   4.047
 7905TIP3   OH223655   4.944   1.606   3.089
 7905TIP3    H123656   4.894   1.534   3.050
 7905TIP3    H223657   4.924   1.600   3.183
 7906TIP3   OH223658   6.337   3.817   2.392
 7906TIP3    H123659   6.385   3.738   2.367
 7906TIP3    H223660   6.324   3.864   2.309
 7907TIP3   OH223661   4.279   6.037   2.958
 7907TIP3    H123662   4.255   6.078   2.875
 7907TIP3    H223663   4.318   6.108   3.009
 7908TIP3   OH223664   6.732   7.223   2.618
 7908TIP3    H123665   6.659   7.195   2.674
 7908TIP3    H223666   6.718   7.175   2.536
 7909TIP3   OH223667   5.051   2.028   0.671
 7909TIP3    H123668   5.013   2.085   0.603
 7909TIP3    H223669   5.103   1.964   0.622
 7910TIP3   OH223670   8.374   2.924   4.432
 7910TIP3    H123671   8.319   2.964   4.500
 7910TIP3    H223672   8.463   2.948   4.456
 7911TIP3   OH223673   4.345   5.072   1.243
 7911TIP3    H123674   4.365   5.019   1.166
 7911TIP3    H223675   4.326   5.008   1.311
 7912TIP3   OH223676   4.537   6.003   5.191
 7912TIP3    H123677   4.473   6.011   5.121
 7912TIP3    H223678   4.485   5.989   5.270
 7913TIP3   OH223679   4.132   4.039   2.588
 7913TIP3    H123680   4.114   4.028   2.494
 7913TIP3    H223681   4.095   3.960   2.628
 7914TIP3   OH223682   7.921   6.578   2.033
 7914TIP3    H123683   7.994   6.582   2.094
 7914TIP3    H223684   7.930   6.656   1.979
 7915TIP3   OH223685   1.825   2.330   4.060
 7915TIP3    H123686   1.905   2.329   4.113
 7915TIP3    H223687   1.815   2.421   4.033
 7916TIP3   OH223688   3.084   1.970   3.758
 7916TIP3    H123689   3.012   1.955   3.697
 7916TIP3    H223690   3.150   1.904   3.734
 7917TIP3   OH223691   8.390   1.663   0.169
 7917TIP3    H123692   8.307   1.702   0.197
 7917TIP3    H223693   8.456   1.710   0.220
 7918TIP3   OH223694   0.372   2.531   3.752
 7918TIP3    H123695   0.379   2.520   3.847
 7918TIP3    H223696   0.353   2.444   3.718
 7919TIP3   OH223697   7.274   4.029   3.147
 7919TIP3    H123698   7.238   4.004   3.062
 7919TIP3    H223699   7.355   4.075   3.125
 7920TIP3   OH223700   8.036   7.787   2.724
 7920TIP3    H123701   8.005   7.776   2.814
 7920TIP3    H223702   8.089   7.867   2.726
 7921TIP3   OH223703   5.501   6.362   6.747
 7921TIP3    H123704   5.413   6.399   6.745
 7921TIP3    H223705   5.515   6.328   6.658
 7922TIP3   OH223706   2.220   7.154   4.838
 7922TIP3    H123707   2.191   7.200   4.759
 7922TIP3    H223708   2.145   7.100   4.864
 7923TIP3   OH223709   8.289   2.216   3.081
 7923TIP3    H123710   8.287   2.137   3.027
 7923TIP3    H223711   8.266   2.287   3.021
 7924TIP3   OH223712   0.703   1.296   5.507
 7924TIP3    H123713   0.675   1.273   5.419
 7924TIP3    H223714   0.629   1.274   5.563
 7925TIP3   OH223715   0.791   5.466   1.505
 7925TIP3    H123716   0.791   5.371   1.513
 7925TIP3    H223717   0.747   5.497   1.584
 7926TIP3   OH223718   7.532   6.361   3.826
 7926TIP3    H123719   7.550   6.319   3.910
 7926TIP3    H223720   7.497   6.447   3.848
 7927TIP3   OH223721   2.987   4.388   5.577
 7927TIP3    H123722   2.933   4.325   5.530
 7927TIP3    H223723   3.008   4.345   5.660
 7928TIP3   OH223724   2.289   5.591   3.184
 7928TIP3    H123725   2.368   5.591   3.130
 7928TIP3    H223726   2.318   5.624   3.269
 7929TIP3   OH223727   1.186   3.048   5.290
 7929TIP3    H123728   1.231   3.033   5.373
 7929TIP3    H223729   1.093   3.051   5.314
 7930TIP3   OH223730   6.072   7.640   0.392
 7930TIP3    H123731   6.062   7.659   0.299
 7930TIP3    H223732   6.088   7.725   0.433
 7931TIP3   OH223733   3.977   1.370   2.226
 7931TIP3    H123734   4.034   1.398   2.298
 7931TIP3    H223735   3.987   1.439   2.160
 7932TIP3   OH223736   6.171   6.807   6.016
 7932TIP3    H123737   6.185   6.714   6.032
 7932TIP3    H223738   6.152   6.843   6.103
 7933TIP3   OH223739   3.693   6.449   2.266
 7933TIP3    H123740   3.760   6.429   2.201
 7933TIP3    H223741   3.641   6.520   2.227
 7934TIP3   OH223742   0.587   1.799   2.083
 7934TIP3    H123743   0.495   1.825   2.074
 7934TIP3    H223744   0.597   1.775   2.175
 7935TIP3   OH223745   7.541   4.747   2.972
 7935TIP3    H123746   7.521   4.745   3.066
 7935TIP3    H223747   7.511   4.832   2.942
 7936TIP3   OH223748   5.770   0.750   5.671
 7936TIP3    H123749   5.728   0.667   5.691
 7936TIP3    H223750   5.822   0.733   5.592
 7937TIP3   OH223751   0.334   0.914   2.088
 7937TIP3    H123752   0.425   0.942   2.083
 7937TIP3    H223753   0.290   0.985   2.136
 7938TIP3   OH223754   4.779   1.483   3.899
 7938TIP3    H123755   4.812   1.561   3.944
 7938TIP3    H223756   4.683   1.490   3.906
 7939TIP3   OH223757   3.819   1.364   2.678
 7939TIP3    H123758   3.781   1.418   2.609
 7939TIP3    H223759   3.908   1.345   2.648
 7940TIP3   OH223760   1.266   2.450   2.194
 7940TIP3    H123761   1.299   2.533   2.161
 7940TIP3    H223762   1.236   2.403   2.116
 7941TIP3   OH223763   7.620   2.587   6.579
 7941TIP3    H123764   7.579   2.670   6.605
 7941TIP3    H223765   7.623   2.591   6.484
 7942TIP3   OH223766   6.862   0.444   5.742
 7942TIP3    H123767   6.854   0.385   5.817
 7942TIP3    H223768   6.791   0.418   5.684
 7943TIP3   OH223769   1.826   7.612   3.305
 7943TIP3    H123770   1.824   7.635   3.212
 7943TIP3    H223771   1.761   7.542   3.314
 7944TIP3   OH223772   6.601   5.552   4.187
 7944TIP3    H123773   6.513   5.527   4.159
 7944TIP3    H223774   6.640   5.594   4.110
 7945TIP3   OH223775   4.744   6.275   1.913
 7945TIP3    H123776   4.750   6.328   1.834
 7945TIP3    H223777   4.740   6.339   1.984
 7946TIP3   OH223778   1.033   4.865   1.938
 7946TIP3    H123779   1.059   4.956   1.920
 7946TIP3    H223780   1.032   4.859   2.034
 7947TIP3   OH223781   0.512   2.408   2.140
 7947TIP3    H123782   0.556   2.477   2.191
 7947TIP3    H223783   0.419   2.430   2.146
 7948TIP3   OH223784   2.045   5.849   0.378
 7948TIP3    H123785   1.984   5.780   0.351
 7948TIP3    H223786   2.018   5.872   0.467
 7949TIP3   OH223787   2.156   4.372   2.204
 7949TIP3    H123788   2.105   4.293   2.218
 7949TIP3    H223789   2.213   4.352   2.130
 7950TIP3   OH223790   5.153   6.191   1.980
 7950TIP3    H123791   5.204   6.155   2.052
 7950TIP3    H223792   5.183   6.142   1.903
 7951TIP3   OH223793   2.373   7.861   5.947
 7951TIP3    H123794   2.305   7.925   5.926
 7951TIP3    H223795   2.452   7.913   5.961
 7952TIP3   OH223796   4.212   3.570   2.939
 7952TIP3    H123797   4.131   3.530   2.907
 7952TIP3    H223798   4.266   3.582   2.861
 7953TIP3   OH223799   6.539   7.853   3.449
 7953TIP3    H123800   6.605   7.887   3.387
 7953TIP3    H223801   6.556   7.759   3.453
 7954TIP3   OH223802   7.230   5.225   6.084
 7954TIP3    H123803   7.207   5.196   6.173
 7954TIP3    H223804   7.178   5.169   6.027
 7955TIP3   OH223805   0.384   6.542   3.058
 7955TIP3    H123806   0.380   6.447   3.046
 7955TIP3    H223807   0.310   6.562   3.115
 7956TIP3   OH223808   1.413   5.423   0.070
 7956TIP3    H123809   1.459   5.351   0.028
 7956TIP3    H223810   1.378   5.385   0.151
 7957TIP3   OH223811   2.104   4.103   6.233
 7957TIP3    H123812   2.186   4.102   6.185
 7957TIP3    H223813   2.048   4.041   6.186
 7958TIP3   OH223814   7.929   1.090   2.762
 7958TIP3    H123815   7.857   1.066   2.704
 7958TIP3    H223816   8.006   1.048   2.724
 7959TIP3   OH223817   5.645   1.207   0.762
 7959TIP3    H123818   5.719   1.147   0.774
 7959TIP3    H223819   5.571   1.150   0.741
 7960TIP3   OH223820   1.770   5.791   4.639
 7960TIP3    H123821   1.688   5.835   4.662
 7960TIP3    H223822   1.801   5.838   4.562
 7961TIP3   OH223823   0.498   3.990   0.295
 7961TIP3    H123824   0.461   3.906   0.323
 7961TIP3    H223825   0.586   3.991   0.332
 7962TIP3   OH223826   4.301   0.867   3.222
 7962TIP3    H123827   4.259   0.871   3.135
 7962TIP3    H223828   4.235   0.827   3.278
 7963TIP3   OH223829   6.050   4.676   2.955
 7963TIP3    H123830   6.020   4.585   2.961
 7963TIP3    H223831   6.078   4.686   2.864
 7964TIP3   OH223832   1.305   3.419   5.341
 7964TIP3    H123833   1.376   3.481   5.354
 7964TIP3    H223834   1.324   3.378   5.256
 7965TIP3   OH223835   5.405   3.978   4.931
 7965TIP3    H123836   5.477   4.006   4.876
 7965TIP3    H223837   5.404   3.882   4.922
 7966TIP3   OH223838   7.550   0.564   3.884
 7966TIP3    H123839   7.466   0.550   3.928
 7966TIP3    H223840   7.573   0.477   3.850
 7967TIP3   OH223841   1.156   7.172   6.145
 7967TIP3    H123842   1.211   7.248   6.159
 7967TIP3    H223843   1.202   7.121   6.079
 7968TIP3   OH223844   3.041   6.401   5.276
 7968TIP3    H123845   2.952   6.368   5.261
 7968TIP3    H223846   3.093   6.358   5.208
 7969TIP3   OH223847   1.828   2.450   2.812
 7969TIP3    H123848   1.847   2.420   2.723
 7969TIP3    H223849   1.766   2.522   2.801
 7970TIP3   OH223850   7.022   1.205   0.398
 7970TIP3    H123851   6.971   1.125   0.388
 7970TIP3    H223852   7.044   1.209   0.492
 7971TIP3   OH223853   2.492   0.525   6.115
 7971TIP3    H123854   2.500   0.449   6.173
 7971TIP3    H223855   2.405   0.516   6.076
 7972TIP3   OH223856   7.866   4.171   2.321
 7972TIP3    H123857   7.892   4.081   2.302
 7972TIP3    H223858   7.828   4.203   2.239
 7973TIP3   OH223859   7.527   1.023   5.751
 7973TIP3    H123860   7.557   0.943   5.794
 7973TIP3    H223861   7.432   1.016   5.753
 7974TIP3   OH223862   6.432   5.116   6.815
 7974TIP3    H123863   6.516   5.137   6.855
 7974TIP3    H223864   6.374   5.100   6.889
 7975TIP3   OH223865   5.660   5.363   6.823
 7975TIP3    H123866   5.740   5.319   6.851
 7975TIP3    H223867   5.600   5.291   6.800
 7976TIP3   OH223868   3.159   7.877   4.513
 7976TIP3    H123869   3.233   7.879   4.452
 7976TIP3    H223870   3.135   7.969   4.524
 7977TIP3   OH223871   5.910   7.027   4.966
 7977TIP3    H123872   5.820   7.062   4.963
 7977TIP3    H223873   5.947   7.064   5.047
 7978TIP3   OH223874   3.980   0.802   3.891
 7978TIP3    H123875   3.924   0.800   3.968
 7978TIP3    H223876   3.929   0.757   3.823
 7979TIP3   OH223877   4.760   5.532   6.177
 7979TIP3    H123878   4.698   5.558   6.245
 7979TIP3    H223879   4.772   5.612   6.124
 7980TIP3   OH223880   6.733   7.484   4.833
 7980TIP3    H123881   6.731   7.462   4.926
 7980TIP3    H223882   6.725   7.580   4.832
 7981TIP3   OH223883   0.592   3.812   3.190
 7981TIP3    H123884   0.500   3.822   3.214
 7981TIP3    H223885   0.612   3.720   3.208
 7982TIP3   OH223886   6.280   1.437   3.697
 7982TIP3    H123887   6.342   1.430   3.624
 7982TIP3    H223888   6.306   1.368   3.758
 7983TIP3   OH223889   3.992   6.580   1.002
 7983TIP3    H123890   3.993   6.667   1.044
 7983TIP3    H223891   3.900   6.554   1.005
 7984TIP3   OH223892   2.928   0.426   1.193
 7984TIP3    H123893   2.995   0.444   1.259
 7984TIP3    H223894   2.863   0.495   1.205
 7985TIP3   OH223895   4.951   3.565   4.060
 7985TIP3    H123896   5.008   3.514   4.117
 7985TIP3    H223897   4.956   3.521   3.975
 7986TIP3   OH223898   5.570   2.988   1.383
 7986TIP3    H123899   5.492   3.033   1.350
 7986TIP3    H223900   5.543   2.953   1.468
 7987TIP3   OH223901   5.113   2.464   1.197
 7987TIP3    H123902   5.086   2.490   1.285
 7987TIP3    H223903   5.135   2.546   1.153
 7988TIP3   OH223904   3.631   2.490   3.148
 7988TIP3    H123905   3.639   2.583   3.128
 7988TIP3    H223906   3.613   2.487   3.242
 7989TIP3   OH223907   2.970   6.955   2.313
 7989TIP3    H123908   2.887   7.002   2.324
 7989TIP3    H223909   3.012   6.999   2.239
 7990TIP3   OH223910   1.068   0.637   3.140
 7990TIP3    H123911   1.008   0.614   3.069
 7990TIP3    H223912   1.155   0.625   3.103
 7991TIP3   OH223913   4.694   1.840   4.938
 7991TIP3    H123914   4.637   1.845   5.016
 7991TIP3    H223915   4.700   1.746   4.919
 7992TIP3   OH223916   2.026   5.853   1.016
 7992TIP3    H123917   1.945   5.815   0.983
 7992TIP3    H223918   1.998   5.928   1.069
 7993TIP3   OH223919   5.990   6.303   3.920
 7993TIP3    H123920   6.017   6.220   3.959
 7993TIP3    H223921   6.011   6.369   3.987
 7994TIP3   OH223922   5.824   2.165   0.767
 7994TIP3    H123923   5.762   2.133   0.701
 7994TIP3    H223924   5.792   2.130   0.850
 7995TIP3   OH223925   5.857   3.267   4.717
 7995TIP3    H123926   5.924   3.334   4.703
 7995TIP3    H223927   5.858   3.252   4.812
 7996TIP3   OH223928   6.736   1.720   1.107
 7996TIP3    H123929   6.708   1.659   1.175
 7996TIP3    H223930   6.785   1.787   1.155
 7997TIP3   OH223931   4.076   0.570   4.278
 7997TIP3    H123932   4.048   0.611   4.360
 7997TIP3    H223933   4.148   0.625   4.247
 7998TIP3   OH223934   8.029   1.805   5.131
 7998TIP3    H123935   8.071   1.801   5.045
 7998TIP3    H223936   7.947   1.758   5.120
 7999TIP3   OH223937   0.291   6.526   6.184
 7999TIP3    H123938   0.297   6.489   6.096
 7999TIP3    H223939   0.380   6.552   6.206
 8000TIP3   OH223940   4.174   1.109   6.038
 8000TIP3    H123941   4.142   1.085   5.951
 8000TIP3    H223942   4.121   1.184   6.063
 8001TIP3   OH223943   0.785   2.644   5.377
 8001TIP3    H123944   0.707   2.675   5.423
 8001TIP3    H223945   0.751   2.600   5.299
 8002TIP3   OH223946   0.179   4.069   5.533
 8002TIP3    H123947   0.160   4.000   5.469
 8002TIP3    H223948   0.274   4.082   5.526
 8003TIP3   OH223949   5.580   7.662   4.333
 8003TIP3    H123950   5.664   7.636   4.297
 8003TIP3    H223951   5.529   7.693   4.258
 8004TIP3   OH223952   2.557   6.648   3.655
 8004TIP3    H123953   2.549   6.568   3.603
 8004TIP3    H223954   2.625   6.629   3.719
 8005TIP3   OH223955   6.013   7.877   4.872
 8005TIP3    H123956   5.984   7.921   4.952
 8005TIP3    H223957   5.945   7.811   4.856
 8006TIP3   OH223958   2.959   2.968   2.782
 8006TIP3    H123959   3.021   3.020   2.832
 8006TIP3    H223960   2.873   2.996   2.814
 8007TIP3   OH223961   5.682   0.962   4.217
 8007TIP3    H123962   5.630   1.018   4.160
 8007TIP3    H223963   5.756   1.018   4.244
 8008TIP3   OH223964   3.258   5.831   6.292
 8008TIP3    H123965   3.329   5.788   6.340
 8008TIP3    H223966   3.201   5.866   6.359
 8009TIP3   OH223967   4.137   3.472   2.243
 8009TIP3    H123968   4.104   3.429   2.163
 8009TIP3    H223969   4.170   3.556   2.213
 8010TIP3   OH223970   0.017   7.796   5.746
 8010TIP3    H123971   0.062   7.868   5.701
 8010TIP3    H223972  -0.075   7.806   5.721
 8011TIP3   OH223973   3.763   2.188   6.000
 8011TIP3    H123974   3.711   2.263   5.970
 8011TIP3    H223975   3.851   2.205   5.964
 8012TIP3   OH223976   1.913   3.676   4.098
 8012TIP3    H123977   1.966   3.651   4.173
 8012TIP3    H223978   1.860   3.749   4.130
 8013TIP3   OH223979   2.502   4.924   5.497
 8013TIP3    H123980   2.588   4.966   5.493
 8013TIP3    H223981   2.502   4.878   5.581
 8014TIP3   OH223982   3.565   4.771   1.772
 8014TIP3    H123983   3.585   4.760   1.865
 8014TIP3    H223984   3.641   4.816   1.736
 8015TIP3   OH223985   6.204   6.210   3.005
 8015TIP3    H123986   6.288   6.167   3.022
 8015TIP3    H223987   6.218   6.301   3.030
 8016TIP3   OH223988   0.835   6.371   0.701
 8016TIP3    H123989   0.831   6.433   0.629
 8016TIP3    H223990   0.926   6.340   0.701
 8017TIP3   OH223991   8.110   4.288   2.817
 8017TIP3    H123992   8.155   4.205   2.800
 8017TIP3    H223993   8.078   4.281   2.907
 8018TIP3   OH223994   7.197   4.900   3.622
 8018TIP3    H123995   7.121   4.843   3.626
 8018TIP3    H223996   7.161   4.989   3.629
 8019TIP3   OH223997   0.966   2.530   3.986
 8019TIP3    H123998   0.905   2.457   3.996
 8019TIP3    H223999   0.910   2.607   3.973
 8020TIP3   OH224000   0.016   7.636   4.078
 8020TIP3    H124001   0.095   7.586   4.053
 8020TIP3    H224002   0.047   7.701   4.141
 8021TIP3   OH224003   0.335   0.215   3.848
 8021TIP3    H124004   0.387   0.223   3.768
 8021TIP3    H224005   0.288   0.133   3.839
 8022TIP3   OH224006   1.927   0.916   4.787
 8022TIP3    H124007   1.986   0.977   4.832
 8022TIP3    H224008   1.890   0.967   4.715
 8023TIP3   OH224009   6.715   6.940   1.031
 8023TIP3    H124010   6.658   6.897   0.967
 8023TIP3    H224011   6.669   7.021   1.053
 8024TIP3   OH224012   5.346   6.466   1.134
 8024TIP3    H124013   5.299   6.549   1.142
 8024TIP3    H224014   5.362   6.439   1.225
 8025TIP3   OH224015   7.268   3.985   6.811
 8025TIP3    H124016   7.175   4.000   6.795
 8025TIP3    H224017   7.270   3.902   6.859
 8026TIP3   OH224018   5.343   2.478   4.394
 8026TIP3    H124019   5.293   2.516   4.466
 8026TIP3    H224020   5.324   2.384   4.399
 8027TIP3   OH224021   4.770   2.287   2.189
 8027TIP3    H124022   4.713   2.325   2.122
 8027TIP3    H224023   4.838   2.353   2.203
 8028TIP3   OH224024   1.382   5.502   0.729
 8028TIP3    H124025   1.335   5.553   0.795
 8028TIP3    H224026   1.372   5.411   0.759
 8029TIP3   OH224027   7.856   3.923   0.364
 8029TIP3    H124028   7.839   3.857   0.296
 8029TIP3    H224029   7.865   3.873   0.444
 8030TIP3   OH224030   8.211   1.678   5.996
 8030TIP3    H124031   8.168   1.594   6.010
 8030TIP3    H224032   8.148   1.729   5.945
 8031TIP3   OH224033   4.173   3.351   5.289
 8031TIP3    H124034   4.179   3.256   5.300
 8031TIP3    H224035   4.203   3.387   5.373
 8032TIP3   OH224036   6.981   0.096   6.406
 8032TIP3    H124037   6.906   0.074   6.461
 8032TIP3    H224038   7.004   0.014   6.363
 8033TIP3   OH224039   8.003   7.785   2.978
 8033TIP3    H124040   7.918   7.745   2.997
 8033TIP3    H224041   8.037   7.810   3.064
 8034TIP3   OH224042   7.293   7.486   4.425
 8034TIP3    H124043   7.382   7.476   4.391
 8034TIP3    H224044   7.281   7.581   4.431
 8035TIP3   OH224045   5.180   6.073   0.570
 8035TIP3    H124046   5.216   6.143   0.625
 8035TIP3    H224047   5.256   6.035   0.527
 8036TIP3   OH224048   8.373   5.451   6.731
 8036TIP3    H124049   8.443   5.462   6.666
 8036TIP3    H224050   8.384   5.527   6.789
 8037TIP3   OH224051   0.802   6.011   6.163
 8037TIP3    H124052   0.870   6.024   6.097
 8037TIP3    H224053   0.821   5.925   6.200
 8038TIP3   OH224054   4.466   5.261   4.471
 8038TIP3    H124055   4.413   5.239   4.394
 8038TIP3    H224056   4.554   5.231   4.448
 8039TIP3   OH224057   3.357   2.537   0.166
 8039TIP3    H124058   3.366   2.542   0.261
 8039TIP3    H224059   3.274   2.490   0.152
 8040TIP3   OH224060   6.305   6.953   5.441
 8040TIP3    H124061   6.288   6.860   5.452
 8040TIP3    H224062   6.218   6.991   5.426
 8041TIP3   OH224063   2.117   2.568   0.306
 8041TIP3    H124064   2.131   2.650   0.259
 8041TIP3    H224065   2.146   2.501   0.245
 8042TIP3   OH224066   2.824   4.287   5.342
 8042TIP3    H124067   2.780   4.204   5.324
 8042TIP3    H224068   2.767   4.354   5.304
 8043TIP3   OH224069   7.172   6.951   6.058
 8043TIP3    H124070   7.111   6.993   6.120
 8043TIP3    H224071   7.178   6.861   6.089
 8044TIP3   OH224072   1.268   5.856   0.771
 8044TIP3    H124073   1.233   5.929   0.719
 8044TIP3    H224074   1.310   5.899   0.845
 8045TIP3   OH224075   7.034   1.057   3.286
 8045TIP3    H124076   6.985   0.983   3.251
 8045TIP3    H224077   7.121   1.049   3.247
 8046TIP3   OH224078   5.970   1.144   0.345
 8046TIP3    H124079   6.022   1.126   0.423
 8046TIP3    H224080   5.947   1.237   0.352
 8047TIP3   OH224081   0.215   5.958   3.472
 8047TIP3    H124082   0.127   5.931   3.447
 8047TIP3    H224083   0.257   5.878   3.503
 8048TIP3   OH224084   6.144   1.757   6.128
 8048TIP3    H124085   6.055   1.782   6.100
 8048TIP3    H224086   6.130   1.701   6.204
 8049TIP3   OH224087   2.185   4.839   3.121
 8049TIP3    H124088   2.136   4.871   3.045
 8049TIP3    H224089   2.137   4.873   3.197
 8050TIP3   OH224090   5.443   7.280   3.401
 8050TIP3    H124091   5.476   7.248   3.485
 8050TIP3    H224092   5.388   7.355   3.424
 8051TIP3   OH224093   1.665   6.127   3.339
 8051TIP3    H124094   1.697   6.214   3.316
 8051TIP3    H224095   1.578   6.142   3.376
 8052TIP3   OH224096   7.323   1.230   1.985
 8052TIP3    H124097   7.284   1.313   2.013
 8052TIP3    H224098   7.250   1.182   1.943
 8053TIP3   OH224099   6.003   1.886   6.559
 8053TIP3    H124100   5.995   1.981   6.546
 8053TIP3    H224101   5.997   1.874   6.654
 8054TIP3   OH224102   3.609   5.459   0.065
 8054TIP3    H124103   3.682   5.444   0.004
 8054TIP3    H224104   3.541   5.399   0.036
 8055TIP3   OH224105   5.551   5.140   1.166
 8055TIP3    H124106   5.585   5.109   1.251
 8055TIP3    H224107   5.599   5.221   1.150
 8056TIP3   OH224108   4.249   5.590   1.808
 8056TIP3    H124109   4.204   5.525   1.863
 8056TIP3    H224110   4.279   5.540   1.732
 8057TIP3   OH224111   5.634   2.963   0.104
 8057TIP3    H124112   5.566   2.950   0.170
 8057TIP3    H224113   5.643   2.877   0.062
 8058TIP3   OH224114   7.959   6.157   3.372
 8058TIP3    H124115   7.930   6.069   3.399
 8058TIP3    H224116   7.878   6.201   3.348
 8059TIP3   OH224117   2.785   1.725   5.907
 8059TIP3    H124118   2.822   1.801   5.951
 8059TIP3    H224119   2.700   1.754   5.875
 8060TIP3   OH224120   2.357   4.189   1.483
 8060TIP3    H124121   2.323   4.202   1.394
 8060TIP3    H224122   2.331   4.100   1.506
 8061TIP3   OH224123   0.237   1.761   2.643
 8061TIP3    H124124   0.168   1.706   2.680
 8061TIP3    H224125   0.192   1.816   2.579
 8062TIP3   OH224126   5.614   6.854   2.097
 8062TIP3    H124127   5.595   6.858   2.004
 8062TIP3    H224128   5.676   6.782   2.107
 8063TIP3   OH224129   0.620   3.323   0.874
 8063TIP3    H124130   0.659   3.316   0.961
 8063TIP3    H224131   0.662   3.398   0.834
 8064TIP3   OH224132   7.674   6.034   6.834
 8064TIP3    H124133   7.753   6.006   6.880
 8064TIP3    H224134   7.706   6.081   6.757
 8065TIP3   OH224135   0.110   4.638   0.525
 8065TIP3    H124136   0.199   4.618   0.494
 8065TIP3    H224137   0.113   4.622   0.619
 8066TIP3   OH224138   3.350   0.678   3.659
 8066TIP3    H124139   3.306   0.598   3.632
 8066TIP3    H224140   3.436   0.673   3.618
 8067TIP3   OH224141   0.925   6.911   3.846
 8067TIP3    H124142   0.832   6.927   3.835
 8067TIP3    H224143   0.963   6.997   3.862
 8068TIP3   OH224144   0.673   1.434   6.457
 8068TIP3    H124145   0.597   1.375   6.459
 8068TIP3    H224146   0.699   1.435   6.365
 8069TIP3   OH224147   0.176   0.347   3.415
 8069TIP3    H124148   0.114   0.382   3.350
 8069TIP3    H224149   0.141   0.375   3.499
 8070TIP3   OH224150   7.882   7.201   0.689
 8070TIP3    H124151   7.965   7.200   0.736
 8070TIP3    H224152   7.862   7.294   0.677
 8071TIP3   OH224153   0.429   6.742   4.569
 8071TIP3    H124154   0.418   6.648   4.588
 8071TIP3    H224155   0.351   6.766   4.520
 8072TIP3   OH224156   8.270   0.605   2.361
 8072TIP3    H124157   8.280   0.694   2.325
 8072TIP3    H224158   8.349   0.559   2.333
 8073TIP3   OH224159   7.619   5.954   1.450
 8073TIP3    H124160   7.563   6.000   1.388
 8073TIP3    H224161   7.589   5.983   1.536
 8074TIP3   OH224162   6.115   4.220   6.302
 8074TIP3    H124163   6.148   4.276   6.372
 8074TIP3    H224164   6.020   4.219   6.313
 8075TIP3   OH224165   7.628   1.485   3.876
 8075TIP3    H124166   7.555   1.424   3.885
 8075TIP3    H224167   7.696   1.433   3.833
 8076TIP3   OH224168   1.255   0.906   0.201
 8076TIP3    H124169   1.169   0.866   0.184
 8076TIP3    H224170   1.318   0.846   0.160
 8077TIP3   OH224171   7.401   4.907   4.149
 8077TIP3    H124172   7.452   4.983   4.123
 8077TIP3    H224173   7.422   4.894   4.242
 8078TIP3   OH224174   0.577   2.389   5.498
 8078TIP3    H124175   0.590   2.295   5.510
 8078TIP3    H224176   0.484   2.403   5.510
 8079TIP3   OH224177   6.250   7.859   3.775
 8079TIP3    H124178   6.266   7.768   3.751
 8079TIP3    H224179   6.231   7.856   3.869
 8080TIP3   OH224180   0.940   2.400   2.089
 8080TIP3    H124181   0.896   2.479   2.057
 8080TIP3    H224182   0.890   2.328   2.052
 8081TIP3   OH224183   1.765   1.904   4.769
 8081TIP3    H124184   1.844   1.853   4.748
 8081TIP3    H224185   1.715   1.906   4.687
 8082TIP3   OH224186   0.853   5.703   2.706
 8082TIP3    H124187   0.838   5.797   2.697
 8082TIP3    H224188   0.840   5.668   2.618
 8083TIP3   OH224189   6.456   3.440   5.367
 8083TIP3    H124190   6.524   3.507   5.377
 8083TIP3    H224191   6.453   3.397   5.453
 8084TIP3   OH224192   5.335   2.430   3.456
 8084TIP3    H124193   5.340   2.383   3.539
 8084TIP3    H224194   5.425   2.433   3.424
 8085TIP3   OH224195   7.530   7.281   3.033
 8085TIP3    H124196   7.594   7.269   2.963
 8085TIP3    H224197   7.458   7.329   2.992
 8086TIP3   OH224198   1.444   2.130   1.428
 8086TIP3    H124199   1.419   2.049   1.473
 8086TIP3    H224200   1.364   2.184   1.430
 8087TIP3   OH224201   1.346   0.754   2.210
 8087TIP3    H124202   1.379   0.832   2.166
 8087TIP3    H224203   1.418   0.692   2.207
 8088TIP3   OH224204   6.405   3.084   4.215
 8088TIP3    H124205   6.392   3.093   4.309
 8088TIP3    H224206   6.468   3.153   4.193
 8089TIP3   OH224207   1.530   0.461   6.477
 8089TIP3    H124208   1.525   0.380   6.529
 8089TIP3    H224209   1.561   0.527   6.540
 8090TIP3   OH224210   2.871   1.288   2.939
 8090TIP3    H124211   2.795   1.231   2.948
 8090TIP3    H224212   2.886   1.323   3.027
 8091TIP3   OH224213   0.076   6.640   1.851
 8091TIP3    H124214   0.160   6.681   1.873
 8091TIP3    H224215   0.093   6.546   1.854
 8092TIP3   OH224216   6.228   3.439   1.099
 8092TIP3    H124217   6.232   3.534   1.094
 8092TIP3    H224218   6.314   3.414   1.135
 8093TIP3   OH224219   1.146   0.877   6.596
 8093TIP3    H124220   1.166   0.783   6.597
 8093TIP3    H224221   1.222   0.918   6.638
 8094TIP3   OH224222   7.857   7.032   4.022
 8094TIP3    H124223   7.930   7.088   4.047
 8094TIP3    H224224   7.859   6.960   4.085
 8095TIP3   OH224225   0.738   3.975   0.743
 8095TIP3    H124226   0.811   4.037   0.732
 8095TIP3    H224227   0.740   3.952   0.836
 8096TIP3   OH224228   3.732   6.466   2.897
 8096TIP3    H124229   3.779   6.521   2.960
 8096TIP3    H224230   3.730   6.518   2.817
 8097TIP3   OH224231   3.836   7.118   4.860
 8097TIP3    H124232   3.854   7.202   4.818
 8097TIP3    H224233   3.911   7.063   4.838
 8098TIP3   OH224234   4.461   4.364   0.361
 8098TIP3    H124235   4.381   4.416   0.364
 8098TIP3    H224236   4.451   4.309   0.283
 8099TIP3   OH224237   1.602   1.097   0.361
 8099TIP3    H124238   1.670   1.032   0.379
 8099TIP3    H224239   1.639   1.152   0.291
 8100TIP3   OH224240   5.440   6.607   4.278
 8100TIP3    H124241   5.345   6.613   4.274
 8100TIP3    H224242   5.457   6.527   4.329
 8101TIP3   OH224243   6.577   3.671   6.292
 8101TIP3    H124244   6.507   3.660   6.357
 8101TIP3    H224245   6.656   3.640   6.336
 8102TIP3   OH224246   7.448   0.915   1.907
 8102TIP3    H124247   7.427   1.007   1.927
 8102TIP3    H224248   7.443   0.871   1.992
 8103TIP3   OH224249   0.525   4.161   4.899
 8103TIP3    H124250   0.540   4.072   4.932
 8103TIP3    H224251   0.580   4.167   4.821
 8104TIP3   OH224252   3.625   3.721   1.006
 8104TIP3    H124253   3.541   3.709   1.051
 8104TIP3    H224254   3.604   3.704   0.914
 8105TIP3   OH224255   3.054   5.910   0.362
 8105TIP3    H124256   3.095   5.923   0.276
 8105TIP3    H224257   3.059   5.996   0.404
 8106TIP3   OH224258   2.700   7.215   5.049
 8106TIP3    H124259   2.772   7.235   4.988
 8106TIP3    H224260   2.645   7.153   5.002
 8107TIP3   OH224261   5.935   1.125   5.259
 8107TIP3    H124262   5.892   1.129   5.345
 8107TIP3    H224263   6.019   1.083   5.276
 8108TIP3   OH224264   2.016   6.791   1.427
 8108TIP3    H124265   1.949   6.843   1.470
 8108TIP3    H224266   1.968   6.730   1.371
 8109TIP3   OH224267   3.745   2.451   0.269
 8109TIP3    H124268   3.682   2.411   0.329
 8109TIP3    H224269   3.764   2.536   0.308
 8110TIP3   OH224270   5.039   5.857   6.554
 8110TIP3    H124271   5.091   5.818   6.484
 8110TIP3    H224272   5.097   5.921   6.594
 8111TIP3   OH224273   6.529   7.636   5.660
 8111TIP3    H124274   6.443   7.676   5.673
 8111TIP3    H224275   6.561   7.672   5.577
 8112TIP3   OH224276   6.351   5.358   4.412
 8112TIP3    H124277   6.432   5.320   4.445
 8112TIP3    H224278   6.282   5.301   4.446
 8113TIP3   OH224279   7.382   1.143   4.326
 8113TIP3    H124280   7.337   1.156   4.409
 8113TIP3    H224281   7.471   1.117   4.350
 8114TIP3   OH224282   2.612   1.613   3.946
 8114TIP3    H124283   2.527   1.578   3.974
 8114TIP3    H224284   2.623   1.580   3.857
 8115TIP3   OH224285  -0.014   2.688   2.208
 8115TIP3    H124286  -0.061   2.630   2.268
 8115TIP3    H224287   0.063   2.717   2.258
 8116TIP3   OH224288   3.305   5.964   2.676
 8116TIP3    H124289   3.357   6.015   2.738
 8116TIP3    H224290   3.364   5.895   2.646
 8117TIP3   OH224291   5.898   7.211   3.635
 8117TIP3    H124292   5.889   7.119   3.613
 8117TIP3    H224293   5.939   7.212   3.722
 8118TIP3   OH224294   6.937   5.696   2.124
 8118TIP3    H124295   6.916   5.678   2.032
 8118TIP3    H224296   7.008   5.760   2.120
 8119TIP3   OH224297   6.097   1.399   0.624
 8119TIP3    H124298   6.047   1.403   0.542
 8119TIP3    H224299   6.188   1.413   0.597
 8120TIP3   OH224300   1.098   1.565   5.324
 8120TIP3    H124301   1.181   1.518   5.323
 8120TIP3    H224302   1.032   1.497   5.337
 8121TIP3   OH224303   5.224   6.974   1.683
 8121TIP3    H124304   5.154   7.026   1.642
 8121TIP3    H224305   5.300   7.033   1.684
 8122TIP3   OH224306   5.051   3.936   5.554
 8122TIP3    H124307   4.987   3.942   5.482
 8122TIP3    H224308   5.015   3.870   5.613
 8123TIP3   OH224309   3.362   1.567   4.305
 8123TIP3    H124310   3.320   1.651   4.322
 8123TIP3    H224311   3.296   1.502   4.328
 8124TIP3   OH224312   7.669   2.512   5.077
 8124TIP3    H124313   7.758   2.546   5.085
 8124TIP3    H224314   7.671   2.429   5.125
 8125TIP3   OH224315   3.422   6.594   3.816
 8125TIP3    H124316   3.395   6.576   3.906
 8125TIP3    H224317   3.516   6.581   3.817
 8126TIP3   OH224318   5.470   6.181   5.711
 8126TIP3    H124319   5.431   6.245   5.652
 8126TIP3    H224320   5.464   6.098   5.664
 8127TIP3   OH224321   8.426   0.387   1.668
 8127TIP3    H124322   8.355   0.444   1.697
 8127TIP3    H224323   8.387   0.336   1.596
 8128TIP3   OH224324   6.603   5.107   4.009
 8128TIP3    H124325   6.648   5.127   3.927
 8128TIP3    H224326   6.654   5.154   4.076
 8129TIP3   OH224327   2.258   1.766   1.589
 8129TIP3    H124328   2.175   1.721   1.602
 8129TIP3    H224329   2.299   1.765   1.676
 8130TIP3   OH224330   2.858   5.601   5.578
 8130TIP3    H124331   2.900   5.665   5.636
 8130TIP3    H224332   2.903   5.611   5.494
 8131TIP3   OH224333   6.443   5.045   3.447
 8131TIP3    H124334   6.422   5.114   3.510
 8131TIP3    H224335   6.461   5.092   3.366
 8132TIP3   OH224336   2.123   7.122   5.623
 8132TIP3    H124337   2.070   7.173   5.562
 8132TIP3    H224338   2.063   7.096   5.692
 8133TIP3   OH224339   5.984   1.432   5.774
 8133TIP3    H124340   6.074   1.413   5.750
 8133TIP3    H224341   5.955   1.355   5.823
 8134TIP3   OH224342   6.162   5.687   0.929
 8134TIP3    H124343   6.090   5.709   0.870
 8134TIP3    H224344   6.223   5.638   0.874
 8135TIP3   OH224345   0.785   6.779   5.715
 8135TIP3    H124346   0.805   6.821   5.799
 8135TIP3    H224347   0.785   6.852   5.652
 8136TIP3   OH224348   0.529   2.632   6.218
 8136TIP3    H124349   0.620   2.651   6.196
 8136TIP3    H224350   0.530   2.539   6.241
 8137TIP3   OH224351   8.147   5.422   5.925
 8137TIP3    H124352   8.219   5.481   5.903
 8137TIP3    H224353   8.095   5.470   5.990
 8138TIP3   OH224354   2.734   6.110   0.315
 8138TIP3    H124355   2.689   6.129   0.397
 8138TIP3    H224356   2.679   6.044   0.272
 8139TIP3   OH224357   2.964   1.869   4.072
 8139TIP3    H124358   2.933   1.786   4.036
 8139TIP3    H224359   3.024   1.844   4.142
 8140TIP3   OH224360   2.708   5.733   4.810
 8140TIP3    H124361   2.753   5.648   4.805
 8140TIP3    H224362   2.634   5.717   4.869
 8141TIP3   OH224363   0.787   0.126   1.530
 8141TIP3    H124364   0.877   0.105   1.508
 8141TIP3    H224365   0.771   0.211   1.489
 8142TIP3   OH224366   2.973   1.090   1.916
 8142TIP3    H124367   3.011   1.004   1.932
 8142TIP3    H224368   2.891   1.089   1.965
 8143TIP3   OH224369   6.449   1.358   3.472
 8143TIP3    H124370   6.430   1.397   3.387
 8143TIP3    H224371   6.537   1.389   3.493
 8144TIP3   OH224372   1.262   5.093   0.132
 8144TIP3    H124373   1.280   5.139   0.049
 8144TIP3    H224374   1.299   5.006   0.119
 8145TIP3   OH224375   7.365   6.319   4.363
 8145TIP3    H124376   7.271   6.303   4.372
 8145TIP3    H224377   7.371   6.410   4.334
 8146TIP3   OH224378   7.889   2.855   3.168
 8146TIP3    H124379   7.939   2.808   3.101
 8146TIP3    H224380   7.798   2.840   3.145
 8147TIP3   OH224381   3.215   6.786   6.546
 8147TIP3    H124382   3.305   6.815   6.530
 8147TIP3    H224383   3.220   6.740   6.630
 8148TIP3   OH224384   3.927   7.340   0.696
 8148TIP3    H124385   3.961   7.256   0.665
 8148TIP3    H224386   3.876   7.318   0.774
 8149TIP3   OH224387   7.867   6.570   3.784
 8149TIP3    H124388   7.832   6.555   3.872
 8149TIP3    H224389   7.874   6.483   3.746
 8150TIP3   OH224390   6.576   1.553   2.107
 8150TIP3    H124391   6.597   1.640   2.141
 8150TIP3    H224392   6.533   1.569   2.023
 8151TIP3   OH224393   3.576   3.251   0.787
 8151TIP3    H124394   3.668   3.231   0.802
 8151TIP3    H224395   3.569   3.260   0.692
 8152TIP3   OH224396   3.784   3.815   5.499
 8152TIP3    H124397   3.699   3.856   5.483
 8152TIP3    H224398   3.796   3.820   5.594
 8153TIP3   OH224399   7.359   0.320   0.193
 8153TIP3    H124400   7.285   0.261   0.206
 8153TIP3    H224401   7.326   0.406   0.219
 8154TIP3   OH224402   1.866   4.378   1.719
 8154TIP3    H124403   1.903   4.462   1.744
 8154TIP3    H224404   1.838   4.338   1.802
 8155TIP3   OH224405   7.601   7.934   5.464
 8155TIP3    H124406   7.507   7.946   5.451
 8155TIP3    H224407   7.613   7.839   5.462
 8156TIP3   OH224408   4.366   3.268   5.615
 8156TIP3    H124409   4.353   3.348   5.565
 8156TIP3    H224410   4.278   3.238   5.638
 8157TIP3   OH224411   1.210   5.975   5.741
 8157TIP3    H124412   1.188   5.883   5.751
 8157TIP3    H224413   1.292   5.986   5.788
 8158TIP3   OH224414   7.637   0.323   2.643
 8158TIP3    H124415   7.720   0.340   2.598
 8158TIP3    H224416   7.602   0.410   2.661
 8159TIP3   OH224417   6.376   5.247   3.621
 8159TIP3    H124418   6.281   5.257   3.609
 8159TIP3    H224419   6.386   5.228   3.715
 8160TIP3   OH224420   0.466   1.175   1.473
 8160TIP3    H124421   0.555   1.181   1.437
 8160TIP3    H224422   0.478   1.139   1.561
 8161TIP3   OH224423   6.291   3.739   5.843
 8161TIP3    H124424   6.283   3.810   5.779
 8161TIP3    H224425   6.317   3.783   5.924
 8162TIP3   OH224426   7.460   1.775   4.411
 8162TIP3    H124427   7.385   1.735   4.366
 8162TIP3    H224428   7.500   1.833   4.346
 8163TIP3   OH224429   0.587   3.904  -0.009
 8163TIP3    H124430   0.623   3.852  -0.081
 8163TIP3    H224431   0.631   3.871   0.069
 8164TIP3   OH224432   2.522   6.356   6.713
 8164TIP3    H124433   2.540   6.307   6.633
 8164TIP3    H224434   2.565   6.305   6.782
 8165TIP3   OH224435   5.488   5.418   0.364
 8165TIP3    H124436   5.518   5.502   0.400
 8165TIP3    H224437   5.568   5.368   0.349
 8166TIP3   OH224438   1.643   5.274   3.819
 8166TIP3    H124439   1.602   5.195   3.855
 8166TIP3    H224440   1.577   5.309   3.759
 8167TIP3   OH224441   6.724   6.431   2.735
 8167TIP3    H124442   6.804   6.451   2.783
 8167TIP3    H224443   6.655   6.475   2.786
 8168TIP3   OH224444   0.661   7.096   1.339
 8168TIP3    H124445   0.604   7.173   1.337
 8168TIP3    H224446   0.615   7.030   1.287
 8169TIP3   OH224447   7.306   6.886   3.933
 8169TIP3    H124448   7.298   6.962   3.991
 8169TIP3    H224449   7.240   6.824   3.964
 8170TIP3   OH224450   6.684   7.193   6.050
 8170TIP3    H124451   6.720   7.119   6.098
 8170TIP3    H224452   6.596   7.166   6.026
 8171TIP3   OH224453   0.864   6.209   2.750
 8171TIP3    H124454   0.774   6.199   2.781
 8171TIP3    H224455   0.872   6.302   2.730
 8172TIP3   OH224456   6.925   4.343   4.973
 8172TIP3    H124457   6.892   4.430   4.993
 8172TIP3    H224458   7.019   4.349   4.985
 8173TIP3   OH224459   2.248  -0.006   3.416
 8173TIP3    H124460   2.200   0.073   3.389
 8173TIP3    H224461   2.269   0.010   3.508
 8174TIP3   OH224462   7.021   7.883   6.514
 8174TIP3    H124463   6.990   7.824   6.583
 8174TIP3    H224464   7.014   7.970   6.553
 8175TIP3   OH224465   5.010   3.216   6.794
 8175TIP3    H124466   4.933   3.245   6.745
 8175TIP3    H224467   5.020   3.124   6.771
 8176TIP3   OH224468   5.432   5.520   3.676
 8176TIP3    H124469   5.482   5.599   3.659
 8176TIP3    H224470   5.440   5.504   3.770
 8177TIP3   OH224471   6.431   5.771   5.631
 8177TIP3    H124472   6.419   5.859   5.595
 8177TIP3    H224473   6.370   5.717   5.581
 8178TIP3   OH224474   0.503   3.436   0.351
 8178TIP3    H124475   0.440   3.484   0.297
 8178TIP3    H224476   0.516   3.492   0.427
 8179TIP3   OH224477   6.981   2.626   1.440
 8179TIP3    H124478   6.926   2.639   1.363
 8179TIP3    H224479   6.931   2.664   1.512
 8180TIP3   OH224480   0.461   0.929   5.995
 8180TIP3    H124481   0.412   0.897   5.919
 8180TIP3    H224482   0.523   0.860   6.015
 8181TIP3   OH224483   6.014   0.674   1.523
 8181TIP3    H124484   6.023   0.720   1.440
 8181TIP3    H224485   5.920   0.671   1.540
 8182TIP3   OH224486   2.544   6.962   0.678
 8182TIP3    H124487   2.586   6.884   0.714
 8182TIP3    H224488   2.616   7.018   0.650
 8183TIP3   OH224489   3.327   4.210   4.776
 8183TIP3    H124490   3.284   4.125   4.770
 8183TIP3    H224491   3.418   4.192   4.751
 8184TIP3   OH224492   3.427   2.902   3.846
 8184TIP3    H124493   3.450   2.857   3.765
 8184TIP3    H224494   3.438   2.995   3.825
 8185TIP3   OH224495   0.828   6.518   6.313
 8185TIP3    H124496   0.909   6.487   6.353
 8185TIP3    H224497   0.805   6.596   6.364
 8186TIP3   OH224498   7.122   2.579   0.845
 8186TIP3    H124499   7.154   2.617   0.764
 8186TIP3    H224500   7.123   2.484   0.829
 8187TIP3   OH224501   4.277   4.834   0.787
 8187TIP3    H124502   4.358   4.822   0.738
 8187TIP3    H224503   4.289   4.917   0.832
 8188TIP3   OH224504   3.872   2.686   3.474
 8188TIP3    H124505   3.791   2.634   3.477
 8188TIP3    H224506   3.846   2.769   3.434
 8189TIP3   OH224507   4.984   4.125   5.734
 8189TIP3    H124508   4.959   4.059   5.799
 8189TIP3    H224509   5.012   4.073   5.658
 8190TIP3   OH224510   1.374   4.207   5.338
 8190TIP3    H124511   1.288   4.227   5.301
 8190TIP3    H224512   1.379   4.257   5.419
 8191TIP3   OH224513   6.790   1.841   4.215
 8191TIP3    H124514   6.841   1.826   4.135
 8191TIP3    H224515   6.851   1.819   4.286
 8192TIP3   OH224516   0.681   6.968   6.205
 8192TIP3    H124517   0.747   7.033   6.181
 8192TIP3    H224518   0.663   6.920   6.124
 8193TIP3   OH224519   7.822   5.151   3.420
 8193TIP3    H124520   7.779   5.131   3.503
 8193TIP3    H224521   7.820   5.069   3.371
 8194TIP3   OH224522   1.784   5.169   6.342
 8194TIP3    H124523   1.817   5.222   6.415
 8194TIP3    H224524   1.809   5.080   6.365
 8195TIP3   OH224525   5.845   6.803   5.300
 8195TIP3    H124526   5.774   6.859   5.268
 8195TIP3    H224527   5.803   6.748   5.367
 8196TIP3   OH224528   3.010   3.753   0.904
 8196TIP3    H124529   3.033   3.802   0.983
 8196TIP3    H224530   3.005   3.818   0.835
 8197TIP3   OH224531   7.041   4.310   0.818
 8197TIP3    H124532   7.076   4.259   0.746
 8197TIP3    H224533   7.110   4.373   0.839
 8198TIP3   OH224534   1.641   1.034   4.291
 8198TIP3    H124535   1.648   1.127   4.271
 8198TIP3    H224536   1.562   1.005   4.245
 8199TIP3   OH224537   3.539   4.505   3.428
 8199TIP3    H124538   3.562   4.481   3.338
 8199TIP3    H224539   3.473   4.441   3.454
 8200TIP3   OH224540   1.323   5.950   5.322
 8200TIP3    H124541   1.333   5.887   5.394
 8200TIP3    H224542   1.284   6.028   5.363
 8201TIP3   OH224543   4.318   0.210   0.905
 8201TIP3    H124544   4.336   0.225   0.812
 8201TIP3    H224545   4.316   0.297   0.943
 8202TIP3   OH224546   5.533   0.623   3.503
 8202TIP3    H124547   5.580   0.615   3.587
 8202TIP3    H224548   5.560   0.546   3.453
 8203TIP3   OH224549   3.731   5.551   3.769
 8203TIP3    H124550   3.737   5.642   3.796
 8203TIP3    H224551   3.760   5.501   3.845
 8204TIP3   OH224552   6.263   1.153   5.538
 8204TIP3    H124553   6.215   1.192   5.611
 8204TIP3    H224554   6.203   1.087   5.502
 8205TIP3   OH224555   7.169   7.654   1.532
 8205TIP3    H124556   7.130   7.741   1.527
 8205TIP3    H224557   7.217   7.654   1.615
 8206TIP3   OH224558   7.018   5.590   3.719
 8206TIP3    H124559   7.078   5.561   3.650
 8206TIP3    H224560   7.047   5.679   3.740
 8207TIP3   OH224561   7.024   2.789   3.972
 8207TIP3    H124562   6.932   2.764   3.976
 8207TIP3    H224563   7.029   2.850   3.898
 8208TIP3   OH224564   7.842   5.202   4.406
 8208TIP3    H124565   7.864   5.217   4.498
 8208TIP3    H224566   7.800   5.116   4.405
 8209TIP3   OH224567   5.492   0.829   3.320
 8209TIP3    H124568   5.516   0.767   3.389
 8209TIP3    H224569   5.397   0.820   3.311
 8210TIP3   OH224570   1.551   5.836   3.905
 8210TIP3    H124571   1.542   5.766   3.970
 8210TIP3    H224572   1.642   5.828   3.875
 8211TIP3   OH224573   6.005   6.065  -0.011
 8211TIP3    H124574   5.934   6.111   0.033
 8211TIP3    H224575   6.058   6.134  -0.051
 8212TIP3   OH224576   2.179   3.379   5.607
 8212TIP3    H124577   2.202   3.326   5.531
 8212TIP3    H224578   2.137   3.318   5.667
 8213TIP3   OH224579   1.611   5.229   0.022
 8213TIP3    H124580   1.672   5.221  -0.051
 8213TIP3    H224581   1.658   5.192   0.097
 8214TIP3   OH224582   6.750   1.330   6.240
 8214TIP3    H124583   6.720   1.412   6.280
 8214TIP3    H224584   6.703   1.261   6.287
 8215TIP3   OH224585   3.416   0.948   0.426
 8215TIP3    H124586   3.462   0.878   0.472
 8215TIP3    H224587   3.426   1.024   0.483
 8216TIP3   OH224588   6.505   6.826   6.635
 8216TIP3    H124589   6.538   6.738   6.651
 8216TIP3    H224590   6.411   6.814   6.618
 8217TIP3   OH224591   0.907   6.359   4.584
 8217TIP3    H124592   0.943   6.440   4.619
 8217TIP3    H224593   0.944   6.291   4.640
 8218TIP3   OH224594   1.066   1.430   4.437
 8218TIP3    H124595   1.057   1.509   4.490
 8218TIP3    H224596   0.983   1.384   4.450
 8219TIP3   OH224597   5.450   4.856   5.191
 8219TIP3    H124598   5.426   4.940   5.230
 8219TIP3    H224599   5.388   4.844   5.120
 8220TIP3   OH224600   6.747   0.670   4.656
 8220TIP3    H124601   6.805   0.729   4.705
 8220TIP3    H224602   6.796   0.649   4.576
 8221TIP3   OH224603   6.402   3.571   6.801
 8221TIP3    H124604   6.405   3.483   6.839
 8221TIP3    H224605   6.445   3.626   6.866
 8222TIP3   OH224606   1.170   2.752   5.579
 8222TIP3    H124607   1.080   2.772   5.605
 8222TIP3    H224608   1.161   2.691   5.505
 8223TIP3   OH224609   5.645   2.266   0.380
 8223TIP3    H124610   5.601   2.266   0.295
 8223TIP3    H224611   5.663   2.174   0.398
 8224TIP3   OH224612   5.819   2.523   1.862
 8224TIP3    H124613   5.791   2.432   1.853
 8224TIP3    H224614   5.744   2.574   1.830
 8225TIP3   OH224615   1.084   6.690   5.675
 8225TIP3    H124616   1.117   6.658   5.759
 8225TIP3    H224617   0.991   6.703   5.689
 8226TIP3   OH224618   7.484   3.769   3.008
 8226TIP3    H124619   7.572   3.803   3.024
 8226TIP3    H224620   7.432   3.801   3.082
 8227TIP3   OH224621   6.548   2.932   0.759
 8227TIP3    H124622   6.627   2.889   0.792
 8227TIP3    H224623   6.496   2.861   0.721
 8228TIP3   OH224624   4.104   6.780   6.213
 8228TIP3    H124625   4.097   6.684   6.220
 8228TIP3    H224626   4.024   6.813   6.253
 8229TIP3   OH224627   5.572   2.277   4.189
 8229TIP3    H124628   5.614   2.309   4.109
 8229TIP3    H224629   5.633   2.299   4.259
 8230TIP3   OH224630   6.119   3.273   5.211
 8230TIP3    H124631   6.114   3.247   5.303
 8230TIP3    H224632   6.091   3.365   5.211
 8231TIP3   OH224633   0.109   6.597   5.579
 8231TIP3    H124634   0.065   6.571   5.497
 8231TIP3    H224635   0.202   6.599   5.556
 8232TIP3   OH224636   8.032   2.756   4.572
 8232TIP3    H124637   7.949   2.742   4.616
 8232TIP3    H224638   8.025   2.707   4.490
 8233TIP3   OH224639   6.695   2.415   2.527
 8233TIP3    H124640   6.666   2.497   2.568
 8233TIP3    H224641   6.687   2.350   2.596
 8234TIP3   OH224642   5.244   6.780   4.766
 8234TIP3    H124643   5.185   6.709   4.793
 8234TIP3    H224644   5.311   6.737   4.713
 8235TIP3   OH224645   3.015   3.910   1.319
 8235TIP3    H124646   2.952   3.839   1.327
 8235TIP3    H224647   2.992   3.971   1.389
 8236TIP3   OH224648   6.409   3.976   0.675
 8236TIP3    H124649   6.490   4.015   0.642
 8236TIP3    H224650   6.435   3.929   0.755
 8237TIP3   OH224651   4.437   0.825   1.737
 8237TIP3    H124652   4.426   0.767   1.812
 8237TIP3    H224653   4.499   0.892   1.767
 8238TIP3   OH224654   0.663   1.062   6.854
 8238TIP3    H124655   0.741   1.014   6.882
 8238TIP3    H224656   0.615   1.000   6.800
 8239TIP3   OH224657   7.152   6.930   3.413
 8239TIP3    H124658   7.146   6.889   3.499
 8239TIP3    H224659   7.230   6.986   3.417
 8240TIP3   OH224660   5.270   0.945   4.288
 8240TIP3    H124661   5.301   1.011   4.226
 8240TIP3    H224662   5.205   0.991   4.340
 8241TIP3   OH224663   6.097   4.767   6.225
 8241TIP3    H124664   6.023   4.750   6.167
 8241TIP3    H224665   6.104   4.863   6.228
 8242TIP3   OH224666   4.421   3.739   3.339
 8242TIP3    H124667   4.395   3.664   3.286
 8242TIP3    H224668   4.412   3.814   3.281
 8243TIP3   OH224669   8.088  -0.010   4.314
 8243TIP3    H124670   8.091   0.053   4.242
 8243TIP3    H224671   8.156   0.020   4.375
 8244TIP3   OH224672   5.458   7.008   0.547
 8244TIP3    H124673   5.461   7.101   0.570
 8244TIP3    H224674   5.445   6.963   0.630
 8245TIP3   OH224675   0.070   5.589   3.802
 8245TIP3    H124676   0.133   5.604   3.871
 8245TIP3    H224677   0.050   5.495   3.807
 8246TIP3   OH224678   3.289   4.293   2.634
 8246TIP3    H124679   3.326   4.224   2.580
 8246TIP3    H224680   3.260   4.360   2.572
 8247TIP3   OH224681   1.202   5.937   6.733
 8247TIP3    H124682   1.183   5.957   6.825
 8247TIP3    H224683   1.296   5.922   6.730
 8248TIP3   OH224684   4.120   1.947   3.861
 8248TIP3    H124685   4.205   1.932   3.819
 8248TIP3    H224686   4.141   1.958   3.954
 8249TIP3   OH224687   7.647   7.653   5.457
 8249TIP3    H124688   7.653   7.630   5.549
 8249TIP3    H224689   7.601   7.580   5.416
 8250TIP3   OH224690   2.924   3.462   6.590
 8250TIP3    H124691   2.957   3.471   6.501
 8250TIP3    H224692   2.941   3.370   6.613
 8251TIP3   OH224693   8.036   4.319   5.397
 8251TIP3    H124694   8.088   4.239   5.387
 8251TIP3    H224695   8.020   4.349   5.308
 8252TIP3   OH224696   4.612   1.937   0.794
 8252TIP3    H124697   4.556   1.913   0.868
 8252TIP3    H224698   4.680   1.870   0.793
 8253TIP3   OH224699   0.304   2.162   6.028
 8253TIP3    H124700   0.263   2.076   6.019
 8253TIP3    H224701   0.340   2.162   6.117
 8254TIP3   OH224702   1.920   5.695   5.953
 8254TIP3    H124703   1.920   5.697   5.857
 8254TIP3    H224704   2.013   5.690   5.977
 8255TIP3   OH224705   5.461   1.564   1.878
 8255TIP3    H124706   5.464   1.656   1.902
 8255TIP3    H224707   5.411   1.561   1.797
 8256TIP3   OH224708   6.667   1.489   3.595
 8256TIP3    H124709   6.631   1.568   3.555
 8256TIP3    H224710   6.657   1.503   3.689
 8257TIP3   OH224711   0.779   3.530   1.670
 8257TIP3    H124712   0.785   3.616   1.710
 8257TIP3    H224713   0.825   3.472   1.730
 8258TIP3   OH224714   5.359   0.953   1.930
 8258TIP3    H124715   5.449   0.973   1.957
 8258TIP3    H224716   5.330   0.886   1.992
 8259TIP3   OH224717   4.690   2.966   1.358
 8259TIP3    H124718   4.613   3.017   1.382
 8259TIP3    H224719   4.758   2.997   1.417
 8260TIP3   OH224720   5.119   1.789   5.169
 8260TIP3    H124721   5.142   1.742   5.249
 8260TIP3    H224722   5.203   1.814   5.131
 8261TIP3   OH224723   0.360   3.150   5.260
 8261TIP3    H124724   0.305   3.129   5.185
 8261TIP3    H224725   0.306   3.128   5.336
 8262TIP3   OH224726   5.575   7.316   5.458
 8262TIP3    H124727   5.490   7.335   5.418
 8262TIP3    H224728   5.558   7.241   5.516
 8263TIP3   OH224729   7.978   1.299   0.015
 8263TIP3    H124730   7.912   1.240   0.051
 8263TIP3    H224731   8.049   1.297   0.079
 8264TIP3   OH224732  -0.004   6.837   5.400
 8264TIP3    H124733  -0.059   6.885   5.339
 8264TIP3    H224734   0.072   6.811   5.349
 8265TIP3   OH224735   2.217   7.612   2.781
 8265TIP3    H124736   2.137   7.608   2.727
 8265TIP3    H224737   2.185   7.638   2.868
 8266TIP3   OH224738   6.282   2.366   2.319
 8266TIP3    H124739   6.334   2.423   2.376
 8266TIP3    H224740   6.293   2.403   2.231
 8267TIP3   OH224741   1.763   6.017   2.532
 8267TIP3    H124742   1.743   6.011   2.625
 8267TIP3    H224743   1.856   6.038   2.528
 8268TIP3   OH224744   4.055   5.014   3.252
 8268TIP3    H124745   4.138   4.971   3.273
 8268TIP3    H224746   3.989   4.946   3.264
 8269TIP3   OH224747   3.654   4.058   6.496
 8269TIP3    H124748   3.733   4.104   6.470
 8269TIP3    H224749   3.681   3.967   6.505
 8270TIP3   OH224750   0.703   0.248   2.510
 8270TIP3    H124751   0.684   0.269   2.418
 8270TIP3    H224752   0.735   0.158   2.508
 8271TIP3   OH224753   4.132   4.119   0.060
 8271TIP3    H124754   4.079   4.188   0.019
 8271TIP3    H224755   4.114   4.041   0.007
 8272TIP3   OH224756   0.205   6.296   5.712
 8272TIP3    H124757   0.177   6.275   5.623
 8272TIP3    H224758   0.300   6.293   5.708
 8273TIP3   OH224759   5.660   2.269   1.604
 8273TIP3    H124760   5.726   2.241   1.541
 8273TIP3    H224761   5.586   2.211   1.590
 8274TIP3   OH224762   6.003   7.840   3.398
 8274TIP3    H124763   6.051   7.838   3.314
 8274TIP3    H224764   5.911   7.845   3.373
 8275TIP3   OH224765   8.233   7.537   0.160
 8275TIP3    H124766   8.208   7.585   0.238
 8275TIP3    H224767   8.306   7.587   0.123
 8276TIP3   OH224768   0.142   2.860   6.163
 8276TIP3    H124769   0.114   2.914   6.237
 8276TIP3    H224770   0.090   2.892   6.089
 8277TIP3   OH224771   2.355   6.439   1.550
 8277TIP3    H124772   2.338   6.432   1.644
 8277TIP3    H224773   2.327   6.354   1.514
 8278TIP3   OH224774   0.708   2.283   6.083
 8278TIP3    H124775   0.678   2.193   6.097
 8278TIP3    H224776   0.670   2.308   5.999
 8279TIP3   OH224777   3.351   4.987   2.722
 8279TIP3    H124778   3.409   5.021   2.790
 8279TIP3    H224779   3.387   4.901   2.701
 8280TIP3   OH224780   7.796   7.638  -0.025
 8280TIP3    H124781   7.729   7.675  -0.082
 8280TIP3    H224782   7.754   7.560   0.013
 8281TIP3   OH224783   5.161   2.462   5.658
 8281TIP3    H124784   5.133   2.521   5.728
 8281TIP3    H224785   5.104   2.484   5.584
 8282TIP3   OH224786   4.146   5.466   0.845
 8282TIP3    H124787   4.088   5.506   0.780
 8282TIP3    H224788   4.170   5.382   0.806
 8283TIP3   OH224789   2.572   3.328   4.952
 8283TIP3    H124790   2.537   3.417   4.943
 8283TIP3    H224791   2.607   3.307   4.866
 8284TIP3   OH224792   3.400   7.774   5.538
 8284TIP3    H124793   3.306   7.787   5.533
 8284TIP3    H224794   3.435   7.863   5.548
 8285TIP3   OH224795   1.664   2.726   0.809
 8285TIP3    H124796   1.750   2.738   0.769
 8285TIP3    H224797   1.682   2.697   0.899
 8286TIP3   OH224798   0.024   0.435   5.876
 8286TIP3    H124799   0.105   0.484   5.864
 8286TIP3    H224800   0.026   0.368   5.807
 8287TIP3   OH224801   2.762   6.755   0.410
 8287TIP3    H124802   2.794   6.665   0.403
 8287TIP3    H224803   2.671   6.751   0.381
 8288TIP3   OH224804   4.576   5.180   4.066
 8288TIP3    H124805   4.534   5.260   4.098
 8288TIP3    H224806   4.669   5.199   4.066
 8289TIP3   OH224807   0.207   0.464   1.472
 8289TIP3    H124808   0.147   0.453   1.545
 8289TIP3    H224809   0.156   0.512   1.406
 8290TIP3   OH224810   6.018   5.946   5.437
 8290TIP3    H124811   6.006   5.906   5.523
 8290TIP3    H224812   5.932   5.941   5.395
 8291TIP3   OH224813   5.483   5.536   3.400
 8291TIP3    H124814   5.525   5.456   3.367
 8291TIP3    H224815   5.435   5.507   3.478
 8292TIP3   OH224816   7.343   1.441   3.167
 8292TIP3    H124817   7.284   1.378   3.125
 8292TIP3    H224818   7.377   1.394   3.243
 8293TIP3   OH224819   6.811   3.360   2.002
 8293TIP3    H124820   6.853   3.421   1.940
 8293TIP3    H224821   6.873   3.354   2.075
 8294TIP3   OH224822   6.801   6.191   1.037
 8294TIP3    H124823   6.889   6.208   1.004
 8294TIP3    H224824   6.766   6.278   1.059
 8295TIP3   OH224825   6.722   6.043   4.601
 8295TIP3    H124826   6.752   5.963   4.559
 8295TIP3    H224827   6.687   6.015   4.686
 8296TIP3   OH224828   5.358   4.126   3.809
 8296TIP3    H124829   5.399   4.093   3.888
 8296TIP3    H224830   5.391   4.070   3.739
 8297TIP3   OH224831   7.310   1.127   1.421
 8297TIP3    H124832   7.243   1.086   1.367
 8297TIP3    H224833   7.392   1.108   1.377
 8298TIP3   OH224834   8.139   0.114   6.074
 8298TIP3    H124835   8.089   0.084   6.150
 8298TIP3    H224836   8.158   0.206   6.093
 8299TIP3   OH224837   6.808   7.667   3.265
 8299TIP3    H124838   6.834   7.576   3.276
 8299TIP3    H224839   6.720   7.662   3.226
 8300TIP3   OH224840   7.660   6.407   1.083
 8300TIP3    H124841   7.712   6.485   1.064
 8300TIP3    H224842   7.604   6.433   1.156
 8301TIP3   OH224843   8.242   7.301   3.431
 8301TIP3    H124844   8.213   7.390   3.417
 8301TIP3    H224845   8.180   7.265   3.495
 8302TIP3   OH224846   0.351   2.001   2.971
 8302TIP3    H124847   0.319   2.091   2.981
 8302TIP3    H224848   0.317   1.955   3.047
 8303TIP3   OH224849   2.207   2.015   1.487
 8303TIP3    H124850   2.222   1.925   1.516
 8303TIP3    H224851   2.290   2.060   1.506
 8304TIP3   OH224852   2.981   1.076   4.641
 8304TIP3    H124853   2.903   1.031   4.674
 8304TIP3    H224854   3.045   1.067   4.712
 8305TIP3   OH224855   4.751   3.808   0.537
 8305TIP3    H124856   4.748   3.750   0.461
 8305TIP3    H224857   4.840   3.843   0.538
 8306TIP3   OH224858   7.179   7.157   2.381
 8306TIP3    H124859   7.131   7.106   2.315
 8306TIP3    H224860   7.141   7.244   2.377
 8307TIP3   OH224861   4.827   2.307   4.496
 8307TIP3    H124862   4.917   2.306   4.527
 8307TIP3    H224863   4.778   2.356   4.562
 8308TIP3   OH224864   2.694   5.741   3.224
 8308TIP3    H124865   2.681   5.685   3.301
 8308TIP3    H224866   2.607   5.777   3.206
 8309TIP3   OH224867   2.557   6.595   5.240
 8309TIP3    H124868   2.566   6.504   5.268
 8309TIP3    H224869   2.586   6.646   5.316
 8310TIP3   OH224870   3.073   3.664   4.650
 8310TIP3    H124871   3.081   3.589   4.592
 8310TIP3    H224872   3.128   3.643   4.725
 8311TIP3   OH224873   8.163   6.505   1.215
 8311TIP3    H124874   8.202   6.420   1.194
 8311TIP3    H224875   8.126   6.493   1.302
 8312TIP3   OH224876   2.061   0.917   0.757
 8312TIP3    H124877   2.077   0.868   0.838
 8312TIP3    H224878   2.110   0.870   0.690
 8313TIP3   OH224879   8.316   7.590   3.709
 8313TIP3    H124880   8.337   7.525   3.777
 8313TIP3    H224881   8.227   7.568   3.682
 8314TIP3   OH224882   6.503   2.711   3.844
 8314TIP3    H124883   6.488   2.646   3.775
 8314TIP3    H224884   6.416   2.743   3.866
 8315TIP3   OH224885   7.603   1.198   1.957
 8315TIP3    H124886   7.671   1.263   1.975
 8315TIP3    H224887   7.521   1.245   1.969
 8316TIP3   OH224888   3.574   5.374   2.692
 8316TIP3    H124889   3.606   5.371   2.602
 8316TIP3    H224890   3.648   5.343   2.745
 8317TIP3   OH224891   2.148   5.761   3.555
 8317TIP3    H124892   2.087   5.690   3.533
 8317TIP3    H224893   2.092   5.829   3.592
 8318TIP3   OH224894   5.738   5.067   5.316
 8318TIP3    H124895   5.747   5.005   5.387
 8318TIP3    H224896   5.734   5.153   5.359
 8319TIP3   OH224897   3.107   1.157   3.763
 8319TIP3    H124898   3.119   1.250   3.741
 8319TIP3    H224899   3.150   1.146   3.848
 8320TIP3   OH224900   3.213   3.187   4.372
 8320TIP3    H124901   3.246   3.138   4.448
 8320TIP3    H224902   3.248   3.275   4.383
 8321TIP3   OH224903   3.882   0.131   5.539
 8321TIP3    H124904   3.811   0.095   5.486
 8321TIP3    H224905   3.913   0.207   5.490
 8322TIP3   OH224906   1.790   1.034   4.588
 8322TIP3    H124907   1.784   1.129   4.581
 8322TIP3    H224908   1.700   1.004   4.586
 8323TIP3   OH224909   6.799   2.849   0.809
 8323TIP3    H124910   6.821   2.766   0.852
 8323TIP3    H224911   6.848   2.847   0.727
 8324TIP3   OH224912   5.988   2.366   2.640
 8324TIP3    H124913   6.066   2.317   2.664
 8324TIP3    H224914   5.947   2.386   2.724
 8325TIP3   OH224915   2.536   0.849   5.571
 8325TIP3    H124916   2.507   0.772   5.521
 8325TIP3    H224917   2.538   0.920   5.507
 8326TIP3   OH224918   6.818   5.098   5.566
 8326TIP3    H124919   6.798   5.074   5.656
 8326TIP3    H224920   6.815   5.015   5.518
 8327TIP3   OH224921   0.617   5.705   3.108
 8327TIP3    H124922   0.576   5.688   3.024
 8327TIP3    H224923   0.548   5.691   3.173
 8328TIP3   OH224924   3.308   4.364   5.456
 8328TIP3    H124925   3.305   4.459   5.444
 8328TIP3    H224926   3.268   4.349   5.542
 8329TIP3   OH224927   1.440   7.882   0.852
 8329TIP3    H124928   1.517   7.838   0.815
 8329TIP3    H224929   1.468   7.973   0.862
 8330TIP3   OH224930   5.677   6.797   1.119
 8330TIP3    H124931   5.771   6.807   1.106
 8330TIP3    H224932   5.637   6.856   1.056
 8331TIP3   OH224933   4.609   4.545   6.174
 8331TIP3    H124934   4.613   4.640   6.178
 8331TIP3    H224935   4.596   4.525   6.081
 8332TIP3   OH224936   6.676   0.623   4.126
 8332TIP3    H124937   6.656   0.583   4.041
 8332TIP3    H224938   6.591   0.631   4.169
 8333TIP3   OH224939   5.649   2.158   3.534
 8333TIP3    H124940   5.713   2.088   3.543
 8333TIP3    H224941   5.643   2.196   3.621
 8334TIP3   OH224942   2.860   3.222   1.991
 8334TIP3    H124943   2.901   3.306   1.971
 8334TIP3    H224944   2.766   3.241   1.987
 8335TIP3   OH224945   6.150   3.988   3.843
 8335TIP3    H124946   6.200   4.069   3.830
 8335TIP3    H224947   6.172   3.959   3.931
 8336TIP3   OH224948   1.323   5.037   6.039
 8336TIP3    H124949   1.319   5.127   6.008
 8336TIP3    H224950   1.414   5.010   6.022
 8337TIP3   OH224951   3.401   0.255   5.752
 8337TIP3    H124952   3.396   0.260   5.657
 8337TIP3    H224953   3.412   0.345   5.781
 8338TIP3   OH224954   3.391   2.000   1.491
 8338TIP3    H124955   3.417   2.074   1.546
 8338TIP3    H224956   3.459   1.996   1.423
 8339TIP3   OH224957   2.416   1.132   1.898
 8339TIP3    H124958   2.460   1.127   1.813
 8339TIP3    H224959   2.369   1.050   1.906
 8340TIP3   OH224960   5.372   7.040   2.219
 8340TIP3    H124961   5.293   7.090   2.199
 8340TIP3    H224962   5.429   7.053   2.143
 8341TIP3   OH224963   7.760   7.798   3.179
 8341TIP3    H124964   7.742   7.704   3.188
 8341TIP3    H224965   7.779   7.828   3.268
 8342TIP3   OH224966   3.135   3.709   3.598
 8342TIP3    H124967   3.041   3.709   3.582
 8342TIP3    H224968   3.144   3.737   3.689
 8343TIP3   OH224969   5.856   7.303   2.778
 8343TIP3    H124970   5.890   7.230   2.726
 8343TIP3    H224971   5.934   7.339   2.821
 8344TIP3   OH224972   0.754   4.183   4.239
 8344TIP3    H124973   0.767   4.091   4.216
 8344TIP3    H224974   0.673   4.182   4.291
 8345TIP3   OH224975   5.120   3.652   0.914
 8345TIP3    H124976   5.179   3.671   0.987
 8345TIP3    H224977   5.058   3.588   0.949
 8346TIP3   OH224978   4.894   1.946   1.358
 8346TIP3    H124979   4.925   2.036   1.368
 8346TIP3    H224980   4.943   1.912   1.283
 8347TIP3   OH224981   0.740   6.707   1.380
 8347TIP3    H124982   0.734   6.637   1.445
 8347TIP3    H224983   0.676   6.772   1.410
 8348TIP3   OH224984   6.041   5.179   2.616
 8348TIP3    H124985   6.069   5.264   2.650
 8348TIP3    H224986   5.959   5.197   2.570
 8349TIP3   OH224987   7.298   5.584   5.266
 8349TIP3    H124988   7.286   5.652   5.199
 8349TIP3    H224989   7.360   5.622   5.327
 8350TIP3   OH224990   1.231   4.235   4.265
 8350TIP3    H124991   1.183   4.302   4.314
 8350TIP3    H224992   1.306   4.214   4.320
 8351TIP3   OH224993   5.732   5.670   3.985
 8351TIP3    H124994   5.722   5.765   3.993
 8351TIP3    H224995   5.763   5.641   4.071
 8352TIP3   OH224996   0.575   3.056   0.714
 8352TIP3    H124997   0.498   3.087   0.761
 8352TIP3    H224998   0.611   3.134   0.671
 8353TIP3   OH224999   4.168   4.787   6.722
 8353TIP3    H125000   4.207   4.823   6.643
 8353TIP3    H225001   4.152   4.694   6.702
 8354TIP3   OH225002   3.618   6.851   0.814
 8354TIP3    H125003   3.626   6.771   0.762
 8354TIP3    H225004   3.700   6.898   0.799
 8355TIP3   OH225005   3.737   4.659   0.601
 8355TIP3    H125006   3.774   4.748   0.601
 8355TIP3    H225007   3.746   4.629   0.691
 8356TIP3   OH225008   6.540   0.417   4.256
 8356TIP3    H125009   6.562   0.384   4.169
 8356TIP3    H225010   6.446   0.439   4.250
 8357TIP3   OH225011   2.638   2.135   5.214
 8357TIP3    H125012   2.670   2.174   5.296
 8357TIP3    H225013   2.687   2.054   5.205
 8358TIP3   OH225014   6.932   0.516   1.630
 8358TIP3    H125015   6.878   0.467   1.568
 8358TIP3    H225016   6.889   0.505   1.715
 8359TIP3   OH225017   2.821   6.681   4.716
 8359TIP3    H125018   2.886   6.697   4.647
 8359TIP3    H225019   2.801   6.768   4.750
 8360TIP3   OH225020   5.460   4.240   1.110
 8360TIP3    H125021   5.501   4.202   1.032
 8360TIP3    H225022   5.466   4.334   1.096
 8361TIP3   OH225023   1.982   3.556   6.513
 8361TIP3    H125024   1.890   3.572   6.535
 8361TIP3    H225025   2.007   3.481   6.566
 8362TIP3   OH225026   4.559   7.690   4.746
 8362TIP3    H125027   4.492   7.739   4.794
 8362TIP3    H225028   4.519   7.671   4.662
 8363TIP3   OH225029   5.772   5.525   3.737
 8363TIP3    H125030   5.839   5.466   3.772
 8363TIP3    H225031   5.757   5.589   3.806
 8364TIP3   OH225032   5.097   2.431   2.457
 8364TIP3    H125033   5.156   2.398   2.524
 8364TIP3    H225034   5.091   2.525   2.474
 8365TIP3   OH225035   5.516   1.979   0.116
 8365TIP3    H125036   5.574   1.975   0.192
 8365TIP3    H225037   5.478   2.067   0.119
 8366TIP3   OH225038   0.744   4.809   3.345
 8366TIP3    H125039   0.752   4.734   3.405
 8366TIP3    H225040   0.652   4.835   3.352
 8367TIP3   OH225041   4.383   7.855   4.856
 8367TIP3    H125042   4.294   7.867   4.823
 8367TIP3    H225043   4.414   7.944   4.875
 8368TIP3   OH225044   4.720   7.354   2.548
 8368TIP3    H125045   4.713   7.317   2.460
 8368TIP3    H225046   4.814   7.367   2.561
 8369TIP3   OH225047   2.013   1.724   5.055
 8369TIP3    H125048   1.930   1.756   5.091
 8369TIP3    H225049   1.988   1.650   4.999
 8370TIP3   OH225050   2.394   4.300   2.048
 8370TIP3    H125051   2.379   4.242   1.974
 8370TIP3    H225052   2.438   4.246   2.113
 8371TIP3   OH225053   0.846   5.317   3.618
 8371TIP3    H125054   0.850   5.241   3.559
 8371TIP3    H225055   0.925   5.311   3.671
 8372TIP3   OH225056   3.579   3.500   0.396
 8372TIP3    H125057   3.640   3.570   0.374
 8372TIP3    H225058   3.618   3.421   0.357
 8373TIP3   OH225059   2.037   7.254   0.982
 8373TIP3    H125060   2.091   7.239   1.059
 8373TIP3    H225061   2.037   7.171   0.936
 8374TIP3   OH225062   0.236   2.451   2.132
 8374TIP3    H125063   0.182   2.475   2.208
 8374TIP3    H225064   0.182   2.474   2.057
 8375TIP3   OH225065   3.418   7.748   5.954
 8375TIP3    H125066   3.504   7.789   5.963
 8375TIP3    H225067   3.431   7.682   5.886
 8376TIP3   OH225068   0.032   1.839   1.585
 8376TIP3    H125069   0.079   1.773   1.534
 8376TIP3    H225070  -0.016   1.789   1.651
 8377TIP3   OH225071   2.812   6.467   0.905
 8377TIP3    H125072   2.749   6.522   0.950
 8377TIP3    H225073   2.843   6.406   0.972
 8378TIP3   OH225074   6.841   1.846   2.238
 8378TIP3    H125075   6.802   1.927   2.205
 8378TIP3    H225076   6.766   1.787   2.250
 8379TIP3   OH225077   4.650   4.830   6.194
 8379TIP3    H125078   4.583   4.897   6.183
 8379TIP3    H225079   4.723   4.875   6.236
 8380TIP3   OH225080   7.748   3.617   3.306
 8380TIP3    H125081   7.784   3.700   3.272
 8380TIP3    H225082   7.669   3.643   3.353
 8381TIP3   OH225083   4.322   3.379   1.009
 8381TIP3    H125084   4.247   3.374   0.950
 8381TIP3    H225085   4.287   3.352   1.095
 8382TIP3   OH225086   6.737   0.967   6.745
 8382TIP3    H125087   6.790   0.892   6.772
 8382TIP3    H225088   6.728   1.020   6.824
 8383TIP3   OH225089   2.818   4.988   1.909
 8383TIP3    H125090   2.760   4.961   1.838
 8383TIP3    H225091   2.775   4.955   1.988
 8384TIP3   OH225092   6.509   2.776   0.084
 8384TIP3    H125093   6.580   2.772   0.021
 8384TIP3    H225094   6.437   2.728   0.042
 8385TIP3   OH225095   5.549   4.834   1.510
 8385TIP3    H125096   5.469   4.874   1.475
 8385TIP3    H225097   5.521   4.796   1.594
 8386TIP3   OH225098   4.240   3.967   5.319
 8386TIP3    H125099   4.209   3.892   5.370
 8386TIP3    H225100   4.190   4.042   5.353
 8387TIP3   OH225101   3.216   6.398   6.559
 8387TIP3    H125102   3.258   6.431   6.638
 8387TIP3    H225103   3.177   6.475   6.518
 8388TIP3   OH225104   7.777   6.936   5.076
 8388TIP3    H125105   7.818   7.022   5.086
 8388TIP3    H225106   7.809   6.885   5.150
 8389TIP3   OH225107   0.255   7.213   4.620
 8389TIP3    H125108   0.336   7.163   4.632
 8389TIP3    H225109   0.185   7.149   4.635
 8390TIP3   OH225110   1.843   3.933   3.364
 8390TIP3    H125111   1.935   3.933   3.336
 8390TIP3    H225112   1.796   3.971   3.290
 8391TIP3   OH225113   6.001   0.457   2.316
 8391TIP3    H125114   5.911   0.468   2.285
 8391TIP3    H225115   5.995   0.471   2.411
 8392TIP3   OH225116   3.562   2.644   6.797
 8392TIP3    H125117   3.598   2.726   6.762
 8392TIP3    H225118   3.565   2.655   6.892
 8393TIP3   OH225119   1.343   2.538   0.120
 8393TIP3    H125120   1.406   2.575   0.058
 8393TIP3    H225121   1.268   2.597   0.117
 8394TIP3   OH225122   4.603   3.426   4.308
 8394TIP3    H125123   4.556   3.363   4.361
 8394TIP3    H225124   4.572   3.412   4.219
 8395TIP3   OH225125   4.870   0.584   0.150
 8395TIP3    H125126   4.816   0.646   0.101
 8395TIP3    H225127   4.866   0.503   0.098
 8396TIP3   OH225128   3.626   0.735   2.503
 8396TIP3    H125129   3.534   0.718   2.521
 8396TIP3    H225130   3.664   0.750   2.590
 8397TIP3   OH225131   8.333   2.651   5.347
 8397TIP3    H125132   8.291   2.577   5.391
 8397TIP3    H225133   8.290   2.729   5.383
 8398TIP3   OH225134   5.922   3.389   3.487
 8398TIP3    H125135   5.986   3.457   3.471
 8398TIP3    H225136   5.850   3.433   3.533
 8399TIP3   OH225137   7.159   5.119   6.390
 8399TIP3    H125138   7.250   5.124   6.361
 8399TIP3    H225139   7.133   5.210   6.404
 8400TIP3   OH225140   5.762   1.749   0.670
 8400TIP3    H125141   5.691   1.766   0.732
 8400TIP3    H225142   5.722   1.762   0.584
 8401TIP3   OH225143   6.340   2.905   3.728
 8401TIP3    H125144   6.402   2.878   3.660
 8401TIP3    H225145   6.386   2.972   3.778
 8402TIP3   OH225146   5.033   1.496   2.377
 8402TIP3    H125147   5.063   1.407   2.394
 8402TIP3    H225148   4.941   1.486   2.351
 8403TIP3   OH225149   2.915   7.418   4.520
 8403TIP3    H125150   2.914   7.418   4.616
 8403TIP3    H225151   2.935   7.509   4.497
 8404TIP3   OH225152   1.572   4.265   3.250
 8404TIP3    H125153   1.538   4.176   3.242
 8404TIP3    H225154   1.509   4.309   3.308
 8405TIP3   OH225155   6.826   4.123   2.770
 8405TIP3    H125156   6.855   4.120   2.861
 8405TIP3    H225157   6.818   4.032   2.744
 8406TIP3   OH225158   6.781   3.117   5.566
 8406TIP3    H125159   6.871   3.093   5.543
 8406TIP3    H225160   6.741   3.144   5.483
 8407TIP3   OH225161   2.706   0.978   4.774
 8407TIP3    H125162   2.715   0.896   4.822
 8407TIP3    H225163   2.709   1.046   4.842
 8408TIP3   OH225164   7.277   0.967   0.307
 8408TIP3    H125165   7.214   0.916   0.256
 8408TIP3    H225166   7.328   1.014   0.241
 8409TIP3   OH225167   2.624   6.146   3.938
 8409TIP3    H125168   2.708   6.153   3.892
 8409TIP3    H225169   2.558   6.151   3.868
 8410TIP3   OH225170   5.140   1.613   0.566
 8410TIP3    H125171   5.144   1.579   0.656
 8410TIP3    H225172   5.209   1.565   0.520
 8411TIP3   OH225173   6.515   3.409   2.540
 8411TIP3    H125174   6.597   3.369   2.569
 8411TIP3    H225175   6.447   3.349   2.568
 8412TIP3   OH225176   7.507   3.953   1.403
 8412TIP3    H125177   7.554   3.975   1.322
 8412TIP3    H225178   7.417   3.937   1.374
 8413TIP3   OH225179   0.223   7.668   1.698
 8413TIP3    H125180   0.161   7.678   1.625
 8413TIP3    H225181   0.203   7.741   1.757
 8414TIP3   OH225182   3.823   6.772   0.229
 8414TIP3    H125183   3.905   6.805   0.266
 8414TIP3    H225184   3.795   6.839   0.167
 8415TIP3   OH225185   1.897   4.511   5.403
 8415TIP3    H125186   1.986   4.545   5.407
 8415TIP3    H225187   1.889   4.475   5.314
 8416TIP3   OH225188   7.040   5.462   0.145
 8416TIP3    H125189   6.984   5.499   0.076
 8416TIP3    H225190   7.093   5.396   0.100
 8417TIP3   OH225191   7.595   7.473   3.217
 8417TIP3    H125192   7.545   7.420   3.155
 8417TIP3    H225193   7.533   7.492   3.287
 8418TIP3   OH225194   3.553   5.056   0.279
 8418TIP3    H125195   3.537   4.996   0.351
 8418TIP3    H225196   3.468   5.064   0.235
 8419TIP3   OH225197   4.853   5.026   6.221
 8419TIP3    H125198   4.868   4.973   6.143
 8419TIP3    H225199   4.941   5.046   6.254
 8420TIP3   OH225200   3.925   3.946   3.694
 8420TIP3    H125201   3.921   4.023   3.638
 8420TIP3    H225202   3.991   3.967   3.760
 8421TIP3   OH225203   2.520   5.831   0.689
 8421TIP3    H125204   2.428   5.855   0.675
 8421TIP3    H225205   2.555   5.816   0.602
 8422TIP3   OH225206   2.930   5.524   1.447
 8422TIP3    H125207   2.947   5.471   1.525
 8422TIP3    H225208   2.909   5.611   1.481
 8423TIP3   OH225209   2.310   1.606   3.161
 8423TIP3    H125210   2.271   1.544   3.099
 8423TIP3    H225211   2.288   1.571   3.247
 8424TIP3   OH225212   3.988   0.234   0.922
 8424TIP3    H125213   4.029   0.230   0.835
 8424TIP3    H225214   3.990   0.326   0.945
 8425TIP3   OH225215   3.744   5.741   1.448
 8425TIP3    H125216   3.714   5.652   1.465
 8425TIP3    H225217   3.793   5.734   1.366
 8426TIP3   OH225218   5.042   7.110   1.550
 8426TIP3    H125219   4.954   7.115   1.588
 8426TIP3    H225220   5.050   7.188   1.495
 8427TIP3   OH225221   2.572   2.000   2.916
 8427TIP3    H125222   2.559   2.021   2.824
 8427TIP3    H225223   2.562   2.084   2.961
 8428TIP3   OH225224   5.301   4.987   6.096
 8428TIP3    H125225   5.342   4.934   6.027
 8428TIP3    H225226   5.375   5.013   6.152
 8429TIP3   OH225227   4.919   7.393   3.000
 8429TIP3    H125228   4.962   7.323   3.049
 8429TIP3    H225229   4.983   7.464   2.998
 8430TIP3   OH225230   1.966   5.549   3.522
 8430TIP3    H125231   1.931   5.514   3.604
 8430TIP3    H225232   1.915   5.505   3.454
 8431TIP3   OH225233   7.082   3.616   5.170
 8431TIP3    H125234   7.034   3.682   5.220
 8431TIP3    H225235   7.174   3.630   5.194
 8432TIP3   OH225236   6.457   4.700   4.870
 8432TIP3    H125237   6.393   4.642   4.828
 8432TIP3    H225238   6.406   4.777   4.896
 8433TIP3   OH225239   7.767   2.041   2.237
 8433TIP3    H125240   7.790   2.050   2.145
 8433TIP3    H225241   7.690   2.096   2.248
 8434TIP3   OH225242   1.289   3.189   3.864
 8434TIP3    H125243   1.349   3.155   3.930
 8434TIP3    H225244   1.346   3.223   3.795
 8435TIP3   OH225245   4.641   2.029   6.544
 8435TIP3    H125246   4.681   2.046   6.629
 8435TIP3    H225247   4.602   2.113   6.519
 8436TIP3   OH225248   3.751   4.299   5.157
 8436TIP3    H125249   3.763   4.391   5.180
 8436TIP3    H225250   3.687   4.300   5.086
 8437TIP3   OH225251   6.700   0.685   3.539
 8437TIP3    H125252   6.705   0.757   3.602
 8437TIP3    H225253   6.706   0.727   3.453
 8438TIP3   OH225254   1.760   1.349   1.608
 8438TIP3    H125255   1.682   1.354   1.664
 8438TIP3    H225256   1.745   1.270   1.555
 8439TIP3   OH225257   5.018   4.768   0.897
 8439TIP3    H125258   4.945   4.789   0.839
 8439TIP3    H225259   5.091   4.750   0.838
 8440TIP3   OH225260   5.943   5.772   0.777
 8440TIP3    H125261   5.963   5.864   0.758
 8440TIP3    H225262   5.919   5.735   0.692
 8441TIP3   OH225263   5.270   3.948   2.538
 8441TIP3    H125264   5.211   3.879   2.566
 8441TIP3    H225265   5.347   3.902   2.504
 8442TIP3   OH225266   6.257   5.654   6.414
 8442TIP3    H125267   6.183   5.691   6.462
 8442TIP3    H225268   6.332   5.668   6.471
 8443TIP3   OH225269   6.154   2.357   6.037
 8443TIP3    H125270   6.211   2.431   6.058
 8443TIP3    H225271   6.118   2.329   6.121
 8444TIP3   OH225272   1.371   5.228   4.211
 8444TIP3    H125273   1.430   5.186   4.149
 8444TIP3    H225274   1.294   5.172   4.214
 8445TIP3   OH225275   5.311   0.946   5.862
 8445TIP3    H125276   5.306   0.935   5.957
 8445TIP3    H225277   5.320   0.856   5.828
 8446TIP3   OH225278   1.129   7.013   1.887
 8446TIP3    H125279   1.039   7.046   1.892
 8446TIP3    H225280   1.130   6.938   1.947
 8447TIP3   OH225281   1.884   3.106   5.271
 8447TIP3    H125282   1.970   3.066   5.262
 8447TIP3    H225283   1.864   3.098   5.364
 8448TIP3   OH225284   5.320   4.455   1.329
 8448TIP3    H125285   5.347   4.498   1.247
 8448TIP3    H225286   5.267   4.521   1.374
 8449TIP3   OH225287   0.166   3.112   2.824
 8449TIP3    H125288   0.200   3.075   2.905
 8449TIP3    H225289   0.097   3.172   2.852
 8450TIP3   OH225290   3.534   4.393   2.816
 8450TIP3    H125291   3.612   4.438   2.849
 8450TIP3    H225292   3.567   4.332   2.750
 8451TIP3   OH225293   4.842   7.041   1.169
 8451TIP3    H125294   4.825   6.964   1.114
 8451TIP3    H225295   4.898   7.008   1.239
 8452TIP3   OH225296   6.938   1.582   4.215
 8452TIP3    H125297   6.854   1.574   4.262
 8452TIP3    H225298   6.913   1.608   4.126
 8453TIP3   OH225299   1.912   0.251   6.608
 8453TIP3    H125300   1.979   0.231   6.542
 8453TIP3    H225301   1.858   0.172   6.611
 8454TIP3   OH225302   5.550   5.211   1.674
 8454TIP3    H125303   5.636   5.253   1.674
 8454TIP3    H225304   5.554   5.149   1.747
 8455TIP3   OH225305   2.506   3.467   6.662
 8455TIP3    H125306   2.576   3.427   6.712
 8455TIP3    H225307   2.430   3.410   6.677
 8456TIP3   OH225308   0.247   0.342   6.122
 8456TIP3    H125309   0.320   0.394   6.089
 8456TIP3    H225310   0.194   0.403   6.173
 8457TIP3   OH225311   5.961   3.589   2.450
 8457TIP3    H125312   5.909   3.555   2.523
 8457TIP3    H225313   5.924   3.547   2.372
 8458TIP3   OH225314   6.723   6.770   3.084
 8458TIP3    H125315   6.762   6.814   3.160
 8458TIP3    H225316   6.703   6.841   3.023
 8459TIP3   OH225317   6.964   2.898   1.806
 8459TIP3    H125318   7.005   2.978   1.773
 8459TIP3    H225319   7.037   2.842   1.832
 8460TIP3   OH225320   4.794   1.823   0.050
 8460TIP3    H125321   4.826   1.742   0.012
 8460TIP3    H225322   4.839   1.892   0.002
 8461TIP3   OH225323   2.841   1.020   6.067
 8461TIP3    H125324   2.749   1.001   6.085
 8461TIP3    H225325   2.865   0.957   5.999
 8462TIP3   OH225326   8.060   3.116   1.696
 8462TIP3    H125327   7.984   3.173   1.707
 8462TIP3    H225328   8.125   3.170   1.650
 8463TIP3   OH225329   4.019   5.199   1.796
 8463TIP3    H125330   4.034   5.285   1.835
 8463TIP3    H225331   4.042   5.210   1.704
 8464TIP3   OH225332   2.968   6.943   4.649
 8464TIP3    H125333   3.006   7.024   4.614
 8464TIP3    H225334   2.943   6.965   4.739
 8465TIP3   OH225335   8.315   6.454   5.371
 8465TIP3    H125336   8.256   6.404   5.428
 8465TIP3    H225337   8.297   6.421   5.283
 8466TIP3   OH225338   3.323   0.332   3.816
 8466TIP3    H125339   3.332   0.349   3.722
 8466TIP3    H225340   3.262   0.259   3.822
 8467TIP3   OH225341   5.193   0.183   2.459
 8467TIP3    H125342   5.168   0.267   2.499
 8467TIP3    H225343   5.142   0.179   2.378
 8468TIP3   OH225344   7.639   6.186   0.922
 8468TIP3    H125345   7.655   6.259   0.981
 8468TIP3    H225346   7.689   6.113   0.960
 8469TIP3   OH225347   5.171   5.626   4.810
 8469TIP3    H125348   5.091   5.664   4.772
 8469TIP3    H225349   5.190   5.550   4.755
 8470TIP3   OH225350   4.974   7.385   2.649
 8470TIP3    H125351   5.004   7.327   2.718
 8470TIP3    H225352   5.050   7.440   2.629
 8471TIP3   OH225353   6.645   1.935   6.043
 8471TIP3    H125354   6.550   1.934   6.057
 8471TIP3    H225355   6.674   1.849   6.071
 8472TIP3   OH225356   4.778   0.234   4.538
 8472TIP3    H125357   4.693   0.190   4.534
 8472TIP3    H225358   4.810   0.218   4.627
 8473TIP3   OH225359   5.555   4.552   1.126
 8473TIP3    H125360   5.639   4.506   1.126
 8473TIP3    H225361   5.550   4.595   1.040
 8474TIP3   OH225362   0.684   1.040   2.515
 8474TIP3    H125363   0.607   1.052   2.571
 8474TIP3    H225364   0.659   0.970   2.455
 8475TIP3   OH225365   2.053   2.040   0.613
 8475TIP3    H125366   2.043   1.986   0.535
 8475TIP3    H225367   2.108   1.988   0.671
 8476TIP3   OH225368   1.392   0.057   4.903
 8476TIP3    H125369   1.478   0.055   4.944
 8476TIP3    H225370   1.409   0.036   4.811
 8477TIP3   OH225371   6.025   6.819   4.537
 8477TIP3    H125372   5.947   6.793   4.489
 8477TIP3    H225373   6.006   6.794   4.628
 8478TIP3   OH225374   6.477   2.862   6.126
 8478TIP3    H125375   6.471   2.942   6.178
 8478TIP3    H225376   6.502   2.794   6.189
 8479TIP3   OH225377   6.855   6.013   2.026
 8479TIP3    H125378   6.821   6.077   1.964
 8479TIP3    H225379   6.883   6.064   2.101
 8480TIP3   OH225380   1.170   5.796   1.631
 8480TIP3    H125381   1.090   5.764   1.590
 8480TIP3    H225382   1.210   5.719   1.671
 8481TIP3   OH225383   0.081   4.685   4.396
 8481TIP3    H125384   0.025   4.696   4.472
 8481TIP3    H225385   0.140   4.761   4.397
 8482TIP3   OH225386   6.859   6.161   3.245
 8482TIP3    H125387   6.835   6.198   3.160
 8482TIP3    H225388   6.954   6.158   3.245
 8483TIP3   OH225389   7.983   7.168   1.599
 8483TIP3    H125390   7.972   7.258   1.630
 8483TIP3    H225391   7.922   7.117   1.653
 8484TIP3   OH225392   3.141   5.890   4.249
 8484TIP3    H125393   3.160   5.808   4.293
 8484TIP3    H225394   3.177   5.958   4.306
 8485TIP3   OH225395   4.847   2.872   5.436
 8485TIP3    H125396   4.937   2.866   5.469
 8485TIP3    H225397   4.825   2.965   5.445
 8486TIP3   OH225398   1.851   1.642   2.818
 8486TIP3    H125399   1.839   1.712   2.753
 8486TIP3    H225400   1.910   1.580   2.775
 8487TIP3   OH225401   6.107   3.022   2.414
 8487TIP3    H125402   6.113   2.973   2.496
 8487TIP3    H225403   6.042   2.974   2.362
 8488TIP3   OH225404   4.331   6.872   4.213
 8488TIP3    H125405   4.417   6.914   4.221
 8488TIP3    H225406   4.314   6.837   4.301
 8489TIP3   OH225407   3.068   0.518   3.307
 8489TIP3    H125408   3.058   0.514   3.402
 8489TIP3    H225409   3.057   0.611   3.286
 8490TIP3   OH225410   8.274   1.323   3.309
 8490TIP3    H125411   8.181   1.345   3.314
 8490TIP3    H225412   8.315   1.378   3.375
 8491TIP3   OH225413   1.523   7.485   1.508
 8491TIP3    H125414   1.430   7.506   1.494
 8491TIP3    H225415   1.523   7.435   1.590
 8492TIP3   OH225416   3.988   3.183   4.511
 8492TIP3    H125417   4.038   3.139   4.579
 8492TIP3    H225418   3.915   3.224   4.558
 8493TIP3   OH225419   2.304   7.840   4.503
 8493TIP3    H125420   2.364   7.846   4.429
 8493TIP3    H225421   2.280   7.931   4.522
 8494TIP3   OH225422   8.018   6.274   3.979
 8494TIP3    H125423   8.046   6.279   4.070
 8494TIP3    H225424   8.062   6.348   3.936
 8495TIP3   OH225425   7.376   6.986   2.866
 8495TIP3    H125426   7.398   6.929   2.939
 8495TIP3    H225427   7.283   7.006   2.878
 8496TIP3   OH225428   2.025   0.906   6.064
 8496TIP3    H125429   2.090   0.922   5.995
 8496TIP3    H225430   1.975   0.831   6.032
 8497TIP3   OH225431   4.761   6.168   6.365
 8497TIP3    H125432   4.705   6.091   6.370
 8497TIP3    H225433   4.721   6.223   6.298
 8498TIP3   OH225434   2.243   1.150   6.155
 8498TIP3    H125435   2.251   1.110   6.242
 8498TIP3    H225436   2.300   1.096   6.100
 8499TIP3   OH225437   6.963   0.783   3.396
 8499TIP3    H125438   6.950   0.840   3.472
 8499TIP3    H225439   7.040   0.730   3.418
 8500TIP3   OH225440   7.216   6.561   3.832
 8500TIP3    H125441   7.273   6.606   3.770
 8500TIP3    H225442   7.142   6.530   3.779
 8501TIP3   OH225443   1.977   7.043   4.931
 8501TIP3    H125444   1.992   6.955   4.896
 8501TIP3    H225445   1.968   7.031   5.025
 8502TIP3   OH225446   4.462   7.274   0.052
 8502TIP3    H125447   4.404   7.306  -0.017
 8502TIP3    H225448   4.484   7.352   0.103
 8503TIP3   OH225449   5.801   0.501   4.938
 8503TIP3    H125450   5.744   0.578   4.938
 8503TIP3    H225451   5.745   0.429   4.909
 8504TIP3   OH225452   0.575   1.999   5.824
 8504TIP3    H125453   0.553   2.087   5.853
 8504TIP3    H225454   0.500   1.971   5.771
 8505TIP3   OH225455   4.147   6.285   2.003
 8505TIP3    H125456   4.193   6.282   2.087
 8505TIP3    H225457   4.181   6.211   1.953
 8506TIP3   OH225458   4.962   7.240   6.063
 8506TIP3    H125459   4.981   7.285   6.146
 8506TIP3    H225460   5.043   7.251   6.012
 8507TIP3   OH225461   8.017   0.067   5.241
 8507TIP3    H125462   8.108   0.089   5.218
 8507TIP3    H225463   7.968   0.077   5.159
 8508TIP3   OH225464   6.277   3.375   6.298
 8508TIP3    H125465   6.344   3.328   6.348
 8508TIP3    H225466   6.194   3.343   6.333
 8509TIP3   OH225467   0.873   4.501   3.773
 8509TIP3    H125468   0.842   4.486   3.684
 8509TIP3    H225469   0.905   4.416   3.802
 8510TIP3   OH225470   6.514   1.067   4.913
 8510TIP3    H125471   6.533   1.006   4.841
 8510TIP3    H225472   6.420   1.056   4.930
 8511TIP3   OH225473   3.324   1.147   6.847
 8511TIP3    H125474   3.299   1.143   6.755
 8511TIP3    H225475   3.283   1.070   6.887
 8512TIP3   OH225476   0.725   1.466   0.247
 8512TIP3    H125477   0.784   1.461   0.322
 8512TIP3    H225478   0.769   1.415   0.179
 8513TIP3   OH225479   6.501   7.040   1.626
 8513TIP3    H125480   6.440   7.056   1.698
 8513TIP3    H225481   6.478   7.105   1.560
 8514TIP3   OH225482   5.189   1.166   3.438
 8514TIP3    H125483   5.097   1.162   3.464
 8514TIP3    H225484   5.237   1.182   3.519
 8515TIP3   OH225485   5.336   3.743   4.513
 8515TIP3    H125486   5.397   3.673   4.539
 8515TIP3    H225487   5.386   3.796   4.451
 8516TIP3   OH225488   3.684   3.228   0.300
 8516TIP3    H125489   3.766   3.209   0.254
 8516TIP3    H225490   3.622   3.163   0.266
 8517TIP3   OH225491   4.270   4.787   2.006
 8517TIP3    H125492   4.216   4.744   1.940
 8517TIP3    H225493   4.352   4.805   1.961
 8518TIP3   OH225494   7.609   5.723   2.283
 8518TIP3    H125495   7.561   5.723   2.366
 8518TIP3    H225496   7.549   5.681   2.221
 8519TIP3   OH225497   3.260   0.997   2.682
 8519TIP3    H125498   3.192   1.046   2.728
 8519TIP3    H225499   3.272   1.044   2.599
 8520TIP3   OH225500   4.128   0.715   0.124
 8520TIP3    H125501   4.150   0.713   0.031
 8520TIP3    H225502   4.066   0.644   0.135
 8521TIP3   OH225503   3.019   6.707   5.288
 8521TIP3    H125504   2.989   6.732   5.201
 8521TIP3    H225505   3.002   6.613   5.294
 8522TIP3   OH225506   2.920   0.312   1.587
 8522TIP3    H125507   2.974   0.380   1.548
 8522TIP3    H225508   2.896   0.347   1.673
 8523TIP3   OH225509   1.859   1.502   5.898
 8523TIP3    H125510   1.862   1.577   5.839
 8523TIP3    H225511   1.777   1.512   5.946
 8524TIP3   OH225512   4.931   5.137   0.132
 8524TIP3    H125513   4.875   5.214   0.144
 8524TIP3    H225514   4.942   5.130   0.037
 8525TIP3   OH225515   7.838   6.061   2.710
 8525TIP3    H125516   7.779   6.059   2.635
 8525TIP3    H225517   7.890   5.982   2.703
 8526TIP3   OH225518   5.889   3.725   5.280
 8526TIP3    H125519   5.980   3.746   5.261
 8526TIP3    H225520   5.848   3.809   5.300
 8527TIP3   OH225521   3.283   7.055   6.338
 8527TIP3    H125522   3.330   7.005   6.405
 8527TIP3    H225523   3.329   7.139   6.335
 8528TIP3   OH225524   6.399   0.933   6.351
 8528TIP3    H125525   6.435   0.968   6.433
 8528TIP3    H225526   6.476   0.923   6.294
 8529TIP3   OH225527   4.923   1.536   4.198
 8529TIP3    H125528   4.890   1.446   4.193
 8529TIP3    H225529   4.874   1.576   4.269
 8530TIP3   OH225530   6.860   1.880   5.040
 8530TIP3    H125531   6.856   1.938   5.116
 8530TIP3    H225532   6.954   1.865   5.026
 8531TIP3   OH225533   4.863   2.501   1.014
 8531TIP3    H125534   4.830   2.553   1.087
 8531TIP3    H225535   4.950   2.473   1.041
 8532TIP3   OH225536   5.780   7.810   0.449
 8532TIP3    H125537   5.778   7.762   0.532
 8532TIP3    H225538   5.820   7.748   0.387
 8533TIP3   OH225539   6.095   0.523   3.982
 8533TIP3    H125540   6.046   0.531   4.063
 8533TIP3    H225541   6.030   0.501   3.916
 8534TIP3   OH225542   3.064   6.600   6.422
 8534TIP3    H125543   3.113   6.678   6.448
 8534TIP3    H225544   2.981   6.607   6.471
 8535TIP3   OH225545   5.636   5.019   6.088
 8535TIP3    H125546   5.609   4.927   6.081
 8535TIP3    H225547   5.620   5.041   6.180
 8536TIP3   OH225548   5.246   2.283   2.626
 8536TIP3    H125549   5.293   2.201   2.608
 8536TIP3    H225550   5.258   2.298   2.719
 8537TIP3   OH225551   1.335   7.282   1.980
 8537TIP3    H125552   1.342   7.194   2.017
 8537TIP3    H225553   1.241   7.301   1.980
 8538TIP3   OH225554   1.872   2.384   0.338
 8538TIP3    H125555   1.923   2.459   0.366
 8538TIP3    H225556   1.870   2.390   0.242
 8539TIP3   OH225557   1.138   5.115   3.430
 8539TIP3    H125558   1.196   5.058   3.480
 8539TIP3    H225559   1.051   5.099   3.467
 8540TIP3   OH225560   1.852   7.459   2.390
 8540TIP3    H125561   1.843   7.374   2.346
 8540TIP3    H225562   1.803   7.520   2.335
 8541TIP3   OH225563   0.205   6.038   2.626
 8541TIP3    H125564   0.193   5.950   2.591
 8541TIP3    H225565   0.239   6.089   2.553
 8542TIP3   OH225566   2.990   2.826   1.611
 8542TIP3    H125567   2.992   2.767   1.686
 8542TIP3    H225568   3.024   2.774   1.538
 8543TIP3   OH225569   4.818   2.896   6.034
 8543TIP3    H125570   4.886   2.854   6.086
 8543TIP3    H225571   4.739   2.892   6.089
 8544TIP3   OH225572   0.409   7.816   5.155
 8544TIP3    H125573   0.460   7.736   5.147
 8544TIP3    H225574   0.336   7.805   5.093
 8545TIP3   OH225575   8.289   2.859   3.560
 8545TIP3    H125576   8.315   2.888   3.472
 8545TIP3    H225577   8.354   2.794   3.584
 8546TIP3   OH225578   4.376   6.079   3.657
 8546TIP3    H125579   4.410   6.061   3.570
 8546TIP3    H225580   4.327   6.000   3.680
 8547TIP3   OH225581   7.463   7.903   0.952
 8547TIP3    H125582   7.485   7.996   0.951
 8547TIP3    H225583   7.547   7.858   0.941
 8548TIP3   OH225584   3.275   2.603   2.786
 8548TIP3    H125585   3.360   2.648   2.786
 8548TIP3    H225586   3.261   2.579   2.695
 8549TIP3   OH225587   2.443   2.014   0.410
 8549TIP3    H125588   2.472   2.102   0.434
 8549TIP3    H225589   2.467   2.006   0.317
 8550TIP3   OH225590   3.376   0.878   6.527
 8550TIP3    H125591   3.320   0.953   6.546
 8550TIP3    H225592   3.385   0.832   6.610
 8551TIP3   OH225593   2.615   5.165   1.397
 8551TIP3    H125594   2.697   5.213   1.390
 8551TIP3    H225595   2.620   5.099   1.328
 8552TIP3   OH225596   4.536   0.866   3.530
 8552TIP3    H125597   4.492   0.898   3.610
 8552TIP3    H225598   4.604   0.807   3.562
 8553TIP3   OH225599   7.909   2.616   0.412
 8553TIP3    H125600   7.816   2.613   0.438
 8553TIP3    H225601   7.908   2.658   0.326
 8554TIP3   OH225602   6.292   7.481   1.328
 8554TIP3    H125603   6.299   7.449   1.418
 8554TIP3    H225604   6.333   7.567   1.330
 8555TIP3   OH225605   5.188   1.747   1.034
 8555TIP3    H125606   5.233   1.825   1.003
 8555TIP3    H225607   5.097   1.760   1.009
 8556TIP3   OH225608   3.624   0.155   2.277
 8556TIP3    H125609   3.703   0.179   2.326
 8556TIP3    H225610   3.585   0.239   2.253
 8557TIP3   OH225611   1.080   4.443   4.034
 8557TIP3    H125612   1.072   4.379   3.964
 8557TIP3    H225613   1.014   4.417   4.098
 8558TIP3   OH225614   4.952   6.542   3.994
 8558TIP3    H125615   4.917   6.572   4.078
 8558TIP3    H225616   4.942   6.616   3.935
 8559TIP3   OH225617   5.507   1.683   4.148
 8559TIP3    H125618   5.557   1.760   4.123
 8559TIP3    H225619   5.476   1.646   4.065
 8560TIP3   OH225620  -0.024   1.938   1.938
 8560TIP3    H125621  -0.054   1.893   1.859
 8560TIP3    H225622   0.045   1.997   1.908
 8561TIP3   OH225623   4.770   0.825   3.936
 8561TIP3    H125624   4.818   0.752   3.974
 8561TIP3    H225625   4.834   0.896   3.931
 8562TIP3   OH225626   2.926   2.137   4.302
 8562TIP3    H125627   2.845   2.176   4.271
 8562TIP3    H225628   2.972   2.110   4.222
 8563TIP3   OH225629   7.436   2.043   1.166
 8563TIP3    H125630   7.519   2.041   1.118
 8563TIP3    H225631   7.423   1.952   1.195
 8564TIP3   OH225632   7.418   5.081   6.368
 8564TIP3    H125633   7.450   4.995   6.397
 8564TIP3    H225634   7.471   5.102   6.292
 8565TIP3   OH225635   2.115   1.161   4.375
 8565TIP3    H125636   2.084   1.235   4.427
 8565TIP3    H225637   2.059   1.161   4.298
 8566TIP3   OH225638   7.268   3.702   2.392
 8566TIP3    H125639   7.268   3.769   2.460
 8566TIP3    H225640   7.185   3.656   2.403
 8567TIP3   OH225641   1.799   1.678   5.392
 8567TIP3    H125642   1.810   1.758   5.444
 8567TIP3    H225643   1.888   1.647   5.376
 8568TIP3   OH225644   0.375   1.940   5.665
 8568TIP3    H125645   0.397   1.914   5.575
 8568TIP3    H225646   0.283   1.965   5.661
 8569TIP3   OH225647   6.780   3.421   6.625
 8569TIP3    H125648   6.797   3.501   6.674
 8569TIP3    H225649   6.787   3.351   6.691
 8570TIP3   OH225650   2.728   1.757   4.292
 8570TIP3    H125651   2.764   1.693   4.229
 8570TIP3    H225652   2.640   1.776   4.259
 8571TIP3   OH225653   2.527   6.878   5.433
 8571TIP3    H125654   2.439   6.883   5.469
 8571TIP3    H225655   2.568   6.805   5.481
 8572TIP3   OH225656   1.103   7.676   1.947
 8572TIP3    H125657   1.055   7.621   1.885
 8572TIP3    H225658   1.097   7.628   2.030
 8573TIP3   OH225659   4.558   5.979   5.647
 8573TIP3    H125660   4.569   5.935   5.563
 8573TIP3    H225661   4.579   5.912   5.713
 8574TIP3   OH225662   7.855   1.119   5.269
 8574TIP3    H125663   7.856   1.079   5.357
 8574TIP3    H225664   7.848   1.044   5.209
 8575TIP3   OH225665   4.956   6.191   1.528
 8575TIP3    H125666   4.941   6.104   1.489
 8575TIP3    H225667   4.884   6.245   1.494
 8576TIP3   OH225668   4.482   7.247   0.974
 8576TIP3    H125669   4.416   7.204   0.919
 8576TIP3    H225670   4.463   7.340   0.966
 8577TIP3   OH225671   2.917   1.882   2.134
 8577TIP3    H125672   3.001   1.844   2.160
 8577TIP3    H225673   2.857   1.859   2.205
 8578TIP3   OH225674   8.138   3.367   6.353
 8578TIP3    H125675   8.196   3.406   6.418
 8578TIP3    H225676   8.119   3.279   6.387
 8579TIP3   OH225677   5.413   3.081   2.089
 8579TIP3    H125678   5.480   3.104   2.153
 8579TIP3    H225679   5.349   3.030   2.139
 8580TIP3   OH225680   1.122   4.420   3.601
 8580TIP3    H125681   1.049   4.457   3.553
 8580TIP3    H225682   1.096   4.329   3.619
 8581TIP3   OH225683   6.306   7.887   2.409
 8581TIP3    H125684   6.264   7.837   2.339
 8581TIP3    H225685   6.269   7.852   2.490
 8582TIP3   OH225686   2.749   5.819   2.436
 8582TIP3    H125687   2.744   5.883   2.365
 8582TIP3    H225688   2.842   5.815   2.459
 8583TIP3   OH225689   0.830   7.014   4.179
 8583TIP3    H125690   0.839   7.106   4.153
 8583TIP3    H225691   0.759   6.980   4.126
 8584TIP3   OH225692   7.091   0.279   1.707
 8584TIP3    H125693   7.010   0.324   1.684
 8584TIP3    H225694   7.087   0.270   1.803
 8585TIP3   OH225695   6.690   2.478   5.267
 8585TIP3    H125696   6.752   2.436   5.327
 8585TIP3    H225697   6.624   2.410   5.251
 8586TIP3   OH225698   4.414   2.954   1.524
 8586TIP3    H125699   4.332   2.909   1.505
 8586TIP3    H225700   4.407   3.038   1.480
 8587TIP3   OH225701   4.896   5.906   4.146
 8587TIP3    H125702   4.854   5.831   4.104
 8587TIP3    H225703   4.940   5.952   4.074
 8588TIP3   OH225704   3.415   1.966   5.396
 8588TIP3    H125705   3.472   2.042   5.407
 8588TIP3    H225706   3.327   2.003   5.386
 8589TIP3   OH225707   7.800   2.325   1.401
 8589TIP3    H125708   7.797   2.395   1.466
 8589TIP3    H225709   7.712   2.322   1.363
 8590TIP3   OH225710   3.821   1.782   0.591
 8590TIP3    H125711   3.727   1.763   0.587
 8590TIP3    H225712   3.835   1.847   0.523
 8591TIP3   OH225713   6.806   7.506   1.886
 8591TIP3    H125714   6.853   7.457   1.953
 8591TIP3    H225715   6.859   7.497   1.807
 8592TIP3   OH225716   0.798   2.135   0.669
 8592TIP3    H125717   0.788   2.230   0.671
 8592TIP3    H225718   0.844   2.114   0.750
 8593TIP3   OH225719   5.393   5.659   0.184
 8593TIP3    H125720   5.398   5.614   0.269
 8593TIP3    H225721   5.479   5.699   0.173
 8594TIP3   OH225722   6.609   1.993   3.632
 8594TIP3    H125723   6.599   1.917   3.689
 8594TIP3    H225724   6.682   2.042   3.670
 8595TIP3   OH225725   1.287   4.643   6.344
 8595TIP3    H125726   1.330   4.669   6.263
 8595TIP3    H225727   1.204   4.604   6.316
 8596TIP3   OH225728   0.997   0.243   4.153
 8596TIP3    H125729   1.018   0.336   4.150
 8596TIP3    H225730   0.986   0.218   4.061
 8597TIP3   OH225731   2.475   0.319   2.056
 8597TIP3    H125732   2.388   0.280   2.049
 8597TIP3    H225733   2.477   0.386   1.987
 8598TIP3   OH225734   5.129   3.795   4.054
 8598TIP3    H125735   5.058   3.731   4.044
 8598TIP3    H225736   5.092   3.878   4.024
 8599TIP3   OH225737   1.955   5.947   6.274
 8599TIP3    H125738   1.954   5.868   6.220
 8599TIP3    H225739   1.884   5.933   6.337
 8600TIP3   OH225740   3.752   2.696   5.219
 8600TIP3    H125741   3.677   2.706   5.278
 8600TIP3    H225742   3.810   2.769   5.242
 8601TIP3   OH225743   7.508   3.171   4.022
 8601TIP3    H125744   7.570   3.139   3.956
 8601TIP3    H225745   7.469   3.091   4.057
 8602TIP3   OH225746   5.503   0.730   2.869
 8602TIP3    H125747   5.464   0.718   2.783
 8602TIP3    H225748   5.509   0.825   2.879
 8603TIP3   OH225749   1.319   2.598   0.446
 8603TIP3    H125750   1.410   2.587   0.418
 8603TIP3    H225751   1.273   2.626   0.367
 8604TIP3   OH225752   7.540   2.612   1.299
 8604TIP3    H125753   7.611   2.655   1.252
 8604TIP3    H225754   7.465   2.670   1.288
 8605TIP3   OH225755   2.283   3.020   4.596
 8605TIP3    H125756   2.260   3.082   4.527
 8605TIP3    H225757   2.205   3.014   4.651
 8606TIP3   OH225758   4.080   0.706   0.411
 8606TIP3    H125759   4.127   0.689   0.329
 8606TIP3    H225760   4.021   0.777   0.390
 8607TIP3   OH225761   3.160   2.957   2.541
 8607TIP3    H125762   3.214   2.882   2.565
 8607TIP3    H225763   3.108   2.975   2.619
 8608TIP3   OH225764   6.424   5.088   0.371
 8608TIP3    H125765   6.371   5.053   0.442
 8608TIP3    H225766   6.514   5.072   0.397
 8609TIP3   OH225767   8.178   3.088   3.042
 8609TIP3    H125768   8.202   3.067   3.132
 8609TIP3    H225769   8.118   3.163   3.051
 8610TIP3   OH225770   4.054   1.018   3.704
 8610TIP3    H125771   4.131   0.960   3.700
 8610TIP3    H225772   3.993   0.973   3.761
 8611TIP3   OH225773   0.774   7.657   6.101
 8611TIP3    H125774   0.713   7.726   6.074
 8611TIP3    H225775   0.717   7.584   6.125
 8612TIP3   OH225776   3.211   1.265   5.074
 8612TIP3    H125777   3.193   1.222   5.157
 8612TIP3    H225778   3.299   1.300   5.084
 8613TIP3   OH225779   6.039   3.129   4.987
 8613TIP3    H125780   6.079   3.186   5.052
 8613TIP3    H225781   5.947   3.125   5.012
 8614TIP3   OH225782   3.985   0.217   5.238
 8614TIP3    H125783   4.023   0.275   5.173
 8614TIP3    H225784   3.972   0.272   5.315
 8615TIP3   OH225785   6.411   7.234   4.098
 8615TIP3    H125786   6.443   7.163   4.042
 8615TIP3    H225787   6.457   7.220   4.181
 8616TIP3   OH225788   0.791   3.936   1.374
 8616TIP3    H125789   0.754   3.865   1.427
 8616TIP3    H225790   0.885   3.927   1.383
 8617TIP3   OH225791   3.622   6.007   4.815
 8617TIP3    H125792   3.545   6.043   4.860
 8617TIP3    H225793   3.598   5.917   4.796
 8618TIP3   OH225794   2.150   5.875   1.633
 8618TIP3    H125795   2.153   5.783   1.659
 8618TIP3    H225796   2.127   5.872   1.540
 8619TIP3   OH225797   4.566   0.216   2.931
 8619TIP3    H125798   4.486   0.268   2.939
 8619TIP3    H225799   4.564   0.184   2.841
 8620TIP3   OH225800   1.145   7.485   1.210
 8620TIP3    H125801   1.236   7.496   1.239
 8620TIP3    H225802   1.104   7.570   1.225
 8621TIP3   OH225803   6.730   4.748   0.740
 8621TIP3    H125804   6.705   4.661   0.771
 8621TIP3    H225805   6.679   4.809   0.793
 8622TIP3   OH225806   3.029   1.743   1.890
 8622TIP3    H125807   3.043   1.735   1.795
 8622TIP3    H225808   2.953   1.800   1.898
 8623TIP3   OH225809   7.013   2.362   4.989
 8623TIP3    H125810   6.984   2.283   4.944
 8623TIP3    H225811   6.934   2.415   4.997
 8624TIP3   OH225812   3.809   1.101   3.855
 8624TIP3    H125813   3.752   1.097   3.932
 8624TIP3    H225814   3.891   1.137   3.888
 8625TIP3   OH225815   6.160   5.354   4.788
 8625TIP3    H125816   6.227   5.316   4.731
 8625TIP3    H225817   6.128   5.280   4.840
 8626TIP3   OH225818   6.033   7.695   5.785
 8626TIP3    H125819   6.049   7.755   5.858
 8626TIP3    H225820   6.053   7.608   5.821
 8627TIP3   OH225821   0.131   6.538   0.065
 8627TIP3    H125822   0.183   6.477   0.012
 8627TIP3    H225823   0.054   6.555   0.012
 8628TIP3   OH225824   0.058   0.023   0.239
 8628TIP3    H125825   0.115  -0.008   0.310
 8628TIP3    H225826  -0.020   0.055   0.283
 8629TIP3   OH225827   5.855   4.170   0.212
 8629TIP3    H125828   5.832   4.127   0.129
 8629TIP3    H225829   5.923   4.115   0.250
 8630TIP3   OH225830   7.457   0.715   5.933
 8630TIP3    H125831   7.479   0.625   5.906
 8630TIP3    H225832   7.542   0.755   5.952
 8631TIP3   OH225833   2.550   6.475   2.577
 8631TIP3    H125834   2.637   6.491   2.541
 8631TIP3    H225835   2.555   6.386   2.612
 8632TIP3   OH225836   5.174   7.193   2.094
 8632TIP3    H125837   5.132   7.244   2.025
 8632TIP3    H225838   5.105   7.137   2.128
 8633TIP3   OH225839   2.962   7.266   1.200
 8633TIP3    H125840   2.911   7.269   1.281
 8633TIP3    H225841   2.966   7.173   1.178
 8634TIP3   OH225842   4.415   2.850   4.113
 8634TIP3    H125843   4.435   2.822   4.024
 8634TIP3    H225844   4.378   2.773   4.155
 8635TIP3   OH225845   7.534   2.030   0.142
 8635TIP3    H125846   7.439   2.026   0.155
 8635TIP3    H225847   7.561   1.938   0.141
 8636TIP3   OH225848   5.543   0.753   0.086
 8636TIP3    H125849   5.536   0.663   0.055
 8636TIP3    H225850   5.629   0.758   0.127
 8637TIP3   OH225851   6.419   2.243   6.568
 8637TIP3    H125852   6.353   2.247   6.500
 8637TIP3    H225853   6.501   2.226   6.521
 8638TIP3   OH225854   0.982   1.977   1.565
 8638TIP3    H125855   0.893   1.958   1.594
 8638TIP3    H225856   1.003   1.906   1.504
 8639TIP3   OH225857   8.354   5.045   6.300
 8639TIP3    H125858   8.441   5.060   6.338
 8639TIP3    H225859   8.294   5.085   6.364
 8640TIP3   OH225860   7.855   7.790   1.570
 8640TIP3    H125861   7.891   7.791   1.659
 8640TIP3    H225862   7.874   7.701   1.538
 8641TIP3   OH225863   1.843   4.007   1.991
 8641TIP3    H125864   1.748   4.007   1.986
 8641TIP3    H225865   1.868   4.098   1.976
 8642TIP3   OH225866   5.234   7.544   0.367
 8642TIP3    H125867   5.191   7.488   0.431
 8642TIP3    H225868   5.310   7.493   0.337
 8643TIP3   OH225869   4.265   2.816   2.795
 8643TIP3    H125870   4.355   2.843   2.812
 8643TIP3    H225871   4.269   2.720   2.790
 8644TIP3   OH225872   2.338   1.265   2.706
 8644TIP3    H125873   2.288   1.255   2.624
 8644TIP3    H225874   2.425   1.231   2.685
 8645TIP3   OH225875   5.044   3.447   2.539
 8645TIP3    H125876   4.978   3.402   2.592
 8645TIP3    H225877   5.041   3.403   2.454
 8646TIP3   OH225878   5.045   4.878   2.258
 8646TIP3    H125879   5.060   4.971   2.273
 8646TIP3    H225880   5.031   4.870   2.164
 8647TIP3   OH225881   5.563   4.407   4.928
 8647TIP3    H125882   5.566   4.452   5.013
 8647TIP3    H225883   5.476   4.428   4.893
 8648TIP3   OH225884   5.117   5.832   5.544
 8648TIP3    H125885   5.038   5.876   5.511
 8648TIP3    H225886   5.124   5.754   5.489
 8649TIP3   OH225887   3.064   2.226   5.771
 8649TIP3    H125888   3.013   2.161   5.821
 8649TIP3    H225889   3.102   2.283   5.838
 8650TIP3   OH225890   6.200   6.263   4.246
 8650TIP3    H125891   6.263   6.208   4.200
 8650TIP3    H225892   6.140   6.201   4.289
 8651TIP3   OH225893   2.294   2.903   1.421
 8651TIP3    H125894   2.279   2.931   1.511
 8651TIP3    H225895   2.290   2.807   1.424
 8652TIP3   OH225896   7.720   2.069   6.821
 8652TIP3    H125897   7.709   2.149   6.769
 8652TIP3    H225898   7.705   1.998   6.758
 8653TIP3   OH225899   7.107   4.233   5.328
 8653TIP3    H125900   7.053   4.252   5.405
 8653TIP3    H225901   7.126   4.140   5.334
 8654TIP3   OH225902   1.017   6.352   6.445
 8654TIP3    H125903   1.082   6.422   6.457
 8654TIP3    H225904   1.056   6.276   6.489
 8655TIP3   OH225905   5.923   3.029   4.519
 8655TIP3    H125906   5.989   3.084   4.476
 8655TIP3    H225907   5.884   3.086   4.586
 8656TIP3   OH225908   5.075   1.101   0.067
 8656TIP3    H125909   5.141   1.043   0.106
 8656TIP3    H225910   5.121   1.184   0.054
 8657TIP3   OH225911   3.874   4.284   3.299
 8657TIP3    H125912   3.781   4.267   3.284
 8657TIP3    H225913   3.919   4.221   3.243
 8658TIP3   OH225914   7.548   2.602   4.692
 8658TIP3    H125915   7.473   2.659   4.675
 8658TIP3    H225916   7.519   2.544   4.763
 8659TIP3   OH225917   4.612   2.586   3.330
 8659TIP3    H125918   4.619   2.662   3.273
 8659TIP3    H225919   4.625   2.511   3.272
 8660TIP3   OH225920   8.226   2.923   5.394
 8660TIP3    H125921   8.163   2.870   5.345
 8660TIP3    H225922   8.172   2.979   5.450
 8661TIP3   OH225923   4.228   2.402   6.550
 8661TIP3    H125924   4.240   2.336   6.481
 8661TIP3    H225925   4.286   2.374   6.620
 8662TIP3   OH225926   7.998   1.567   2.965
 8662TIP3    H125927   7.916   1.559   2.915
 8662TIP3    H225928   7.986   1.508   3.039
 8663TIP3   OH225929   5.765   1.973   2.108
 8663TIP3    H125930   5.714   2.054   2.112
 8663TIP3    H225931   5.713   1.913   2.055
 8664TIP3   OH225932   3.891   2.979   5.878
 8664TIP3    H125933   3.808   2.964   5.923
 8664TIP3    H225934   3.931   3.052   5.926
 8665TIP3   OH225935   3.194   5.533   2.205
 8665TIP3    H125936   3.126   5.518   2.271
 8665TIP3    H225937   3.204   5.449   2.161
 8666TIP3   OH225938   4.626   3.374   6.203
 8666TIP3    H125939   4.631   3.469   6.214
 8666TIP3    H225940   4.675   3.355   6.123
 8667TIP3   OH225941   1.430   0.225   5.782
 8667TIP3    H125942   1.391   0.148   5.824
 8667TIP3    H225943   1.382   0.299   5.819
 8668TIP3   OH225944   7.740   3.253   1.033
 8668TIP3    H125945   7.795   3.204   0.972
 8668TIP3    H225946   7.650   3.234   1.005
 8669TIP3   OH225947   7.026   4.849   1.815
 8669TIP3    H125948   7.027   4.929   1.764
 8669TIP3    H225949   7.029   4.878   1.906
 8670TIP3   OH225950   5.504   4.211   1.751
 8670TIP3    H125951   5.541   4.263   1.680
 8670TIP3    H225952   5.518   4.120   1.724
 8671TIP3   OH225953   5.815   0.191   2.518
 8671TIP3    H125954   5.756   0.117   2.501
 8671TIP3    H225955   5.780   0.231   2.598
 8672TIP3   OH225956   4.024   2.617   0.669
 8672TIP3    H125957   3.932   2.594   0.673
 8672TIP3    H225958   4.056   2.573   0.590
 8673TIP3   OH225959   0.759   2.243   2.644
 8673TIP3    H125960   0.734   2.303   2.574
 8673TIP3    H225961   0.676   2.211   2.679
 8674TIP3   OH225962   0.645   6.572   5.750
 8674TIP3    H125963   0.702   6.646   5.727
 8674TIP3    H225964   0.681   6.539   5.832
 8675TIP3   OH225965   4.314   7.248   2.287
 8675TIP3    H125966   4.344   7.256   2.377
 8675TIP3    H225967   4.384   7.201   2.242
 8676TIP3   OH225968   3.443   2.877   6.148
 8676TIP3    H125969   3.502   2.807   6.176
 8676TIP3    H225970   3.357   2.848   6.177
 8677TIP3   OH225971   2.747   2.000   0.612
 8677TIP3    H125972   2.725   1.908   0.629
 8677TIP3    H225973   2.738   2.009   0.517
 8678TIP3   OH225974   1.868   7.500   5.795
 8678TIP3    H125975   1.779   7.472   5.773
 8678TIP3    H225976   1.893   7.442   5.867
 8679TIP3   OH225977   3.944   6.063   3.270
 8679TIP3    H125978   3.989   6.066   3.354
 8679TIP3    H225979   3.962   5.976   3.236
 8680TIP3   OH225980   7.043   0.921   1.026
 8680TIP3    H125981   7.086   0.991   1.075
 8680TIP3    H225982   6.960   0.907   1.072
 8681TIP3   OH225983   1.721   7.852   0.369
 8681TIP3    H125984   1.808   7.850   0.329
 8681TIP3    H225985   1.678   7.929   0.331
 8682TIP3   OH225986   6.166   5.791   1.676
 8682TIP3    H125987   6.174   5.886   1.669
 8682TIP3    H225988   6.177   5.773   1.769
 8683TIP3   OH225989   5.665   5.933   1.854
 8683TIP3    H125990   5.581   5.950   1.812
 8683TIP3    H225991   5.685   6.014   1.901
 8684TIP3   OH225992   7.167   2.051   2.680
 8684TIP3    H125993   7.210   1.969   2.707
 8684TIP3    H225994   7.235   2.118   2.688
 8685TIP3   OH225995   2.141   5.176   4.910
 8685TIP3    H125996   2.212   5.238   4.895
 8685TIP3    H225997   2.061   5.227   4.894
 8686TIP3   OH225998   5.824   5.275   0.330
 8686TIP3    H125999   5.845   5.186   0.303
 8686TIP3    H226000   5.805   5.321   0.248
 8687TIP3   OH226001   4.797   5.011   2.417
 8687TIP3    H126002   4.773   4.937   2.362
 8687TIP3    H226003   4.762   4.989   2.504
 8688TIP3   OH226004   4.601   7.856   4.376
 8688TIP3    H126005   4.523   7.814   4.412
 8688TIP3    H226006   4.596   7.946   4.407
 8689TIP3   OH226007   0.232   5.998   5.288
 8689TIP3    H126008   0.310   5.942   5.293
 8689TIP3    H226009   0.259   6.081   5.328
 8690TIP3   OH226010   2.566   7.782   1.250
 8690TIP3    H126011   2.639   7.721   1.238
 8690TIP3    H226012   2.496   7.747   1.196
 8691TIP3   OH226013   2.535   3.486   3.089
 8691TIP3    H126014   2.604   3.548   3.061
 8691TIP3    H226015   2.463   3.502   3.028
 8692TIP3   OH226016   7.200   7.091   5.568
 8692TIP3    H126017   7.200   7.131   5.655
 8692TIP3    H226018   7.126   7.031   5.570
 8693TIP3   OH226019   8.127   1.782   0.229
 8693TIP3    H126020   8.038   1.782   0.262
 8693TIP3    H226021   8.157   1.873   0.238
 8694TIP3   OH226022   5.616   2.300   1.254
 8694TIP3    H126023   5.676   2.333   1.187
 8694TIP3    H226024   5.633   2.354   1.331
 8695TIP3   OH226025   6.506   1.080   3.477
 8695TIP3    H126026   6.600   1.079   3.464
 8695TIP3    H226027   6.478   1.168   3.449
 8696TIP3   OH226028   3.812   6.189   1.756
 8696TIP3    H126029   3.744   6.214   1.694
 8696TIP3    H226030   3.769   6.190   1.842
 8697TIP3   OH226031   1.666   7.517   1.010
 8697TIP3    H126032   1.661   7.612   1.017
 8697TIP3    H226033   1.656   7.486   1.100
 8698TIP3   OH226034   2.222   0.438   5.581
 8698TIP3    H126035   2.189   0.447   5.491
 8698TIP3    H226036   2.272   0.357   5.580
 8699TIP3   OH226037   1.713   6.596   3.797
 8699TIP3    H126038   1.808   6.590   3.804
 8699TIP3    H226039   1.695   6.588   3.703
 8700TIP3   OH226040   6.600   4.871   6.147
 8700TIP3    H126041   6.551   4.799   6.107
 8700TIP3    H226042   6.548   4.949   6.126
 8701TIP3   OH226043   7.451   3.634   1.744
 8701TIP3    H126044   7.477   3.668   1.659
 8701TIP3    H226045   7.488   3.546   1.747
 8702TIP3   OH226046   0.679   1.457   3.610
 8702TIP3    H126047   0.697   1.544   3.646
 8702TIP3    H226048   0.610   1.472   3.546
 8703TIP3   OH226049   6.687   0.484   6.005
 8703TIP3    H126050   6.745   0.560   5.998
 8703TIP3    H226051   6.746   0.409   6.009
 8704TIP3   OH226052   5.022   5.379   0.914
 8704TIP3    H126053   4.926   5.386   0.912
 8704TIP3    H226054   5.041   5.295   0.872
 8705TIP3   OH226055   0.361   3.524   1.379
 8705TIP3    H126056   0.352   3.449   1.438
 8705TIP3    H226057   0.298   3.588   1.412
 8706TIP3   OH226058   7.502   0.758   6.800
 8706TIP3    H126059   7.516   0.710   6.718
 8706TIP3    H226060   7.589   0.768   6.838
 8707TIP3   OH226061   6.196   4.303   3.061
 8707TIP3    H126062   6.287   4.306   3.033
 8707TIP3    H226063   6.197   4.252   3.142
 8708TIP3   OH226064   0.648   1.973   2.784
 8708TIP3    H126065   0.644   2.045   2.847
 8708TIP3    H226066   0.562   1.930   2.791
 8709TIP3   OH226067   3.976   0.902   4.368
 8709TIP3    H126068   3.947   0.877   4.281
 8709TIP3    H226069   3.938   0.988   4.383
 8710TIP3   OH226070   2.502   2.393   2.191
 8710TIP3    H126071   2.480   2.399   2.098
 8710TIP3    H226072   2.544   2.307   2.200
 8711TIP3   OH226073   0.974   3.298   1.600
 8711TIP3    H126074   0.961   3.388   1.572
 8711TIP3    H226075   1.032   3.260   1.534
 8712TIP3   OH226076   7.207   3.652   1.871
 8712TIP3    H126077   7.276   3.661   1.805
 8712TIP3    H226078   7.213   3.560   1.899
 8713TIP3   OH226079   6.436   4.167   4.268
 8713TIP3    H126080   6.409   4.087   4.313
 8713TIP3    H226081   6.531   4.160   4.262
 8714TIP3   OH226082   3.295   7.116   0.295
 8714TIP3    H126083   3.346   7.146   0.370
 8714TIP3    H226084   3.330   7.028   0.277
 8715TIP3   OH226085   2.286   6.807   6.404
 8715TIP3    H126086   2.317   6.789   6.315
 8715TIP3    H226087   2.355   6.773   6.460
 8716TIP3   OH226088   3.263   0.022   4.261
 8716TIP3    H126089   3.358   0.018   4.254
 8716TIP3    H226090   3.240   0.109   4.227
 8717TIP3   OH226091   8.253   4.546   5.220
 8717TIP3    H126092   8.265   4.629   5.173
 8717TIP3    H226093   8.270   4.568   5.311
 8718TIP3   OH226094   5.695   5.557   2.128
 8718TIP3    H126095   5.702   5.605   2.046
 8718TIP3    H226096   5.605   5.524   2.130
 8719TIP3   OH226097   5.951   0.792   0.668
 8719TIP3    H126098   5.899   0.723   0.710
 8719TIP3    H226099   5.930   0.871   0.716
 8720TIP3   OH226100   4.213   4.253   1.783
 8720TIP3    H126101   4.200   4.208   1.866
 8720TIP3    H226102   4.291   4.212   1.745
 8721TIP3   OH226103   7.976   4.434   5.672
 8721TIP3    H126104   8.061   4.459   5.636
 8721TIP3    H226105   7.997   4.397   5.758
 8722TIP3   OH226106   2.040   4.557   3.745
 8722TIP3    H126107   2.061   4.493   3.677
 8722TIP3    H226108   1.983   4.511   3.806
 8723TIP3   OH226109   1.495   3.404   6.676
 8723TIP3    H126110   1.519   3.348   6.603
 8723TIP3    H226111   1.412   3.444   6.650
 8724TIP3   OH226112   0.162   0.048   3.306
 8724TIP3    H126113   0.072   0.050   3.272
 8724TIP3    H226114   0.176   0.135   3.343
 8725TIP3   OH226115   4.685   1.894   1.524
 8725TIP3    H126116   4.630   1.972   1.521
 8725TIP3    H226117   4.739   1.899   1.445
 8726TIP3   OH226118   2.552   1.264   5.545
 8726TIP3    H126119   2.612   1.236   5.476
 8726TIP3    H226120   2.606   1.316   5.604
 8727TIP3   OH226121   3.460   3.599   0.076
 8727TIP3    H126122   3.446   3.615   0.170
 8727TIP3    H226123   3.395   3.653   0.033
 8728TIP3   OH226124   4.220   2.239   1.804
 8728TIP3    H126125   4.190   2.148   1.806
 8728TIP3    H226126   4.139   2.290   1.802
 8729TIP3   OH226127   4.675   1.156   3.403
 8729TIP3    H126128   4.703   1.091   3.339
 8729TIP3    H226129   4.677   1.109   3.487
 8730TIP3   OH226130   5.307   6.000   3.036
 8730TIP3    H126131   5.386   6.055   3.042
 8730TIP3    H226132   5.260   6.035   2.961
 8731TIP3   OH226133   6.621   6.173   5.428
 8731TIP3    H126134   6.673   6.093   5.427
 8731TIP3    H226135   6.530   6.143   5.425
 8732TIP3   OH226136   7.617   5.628   0.825
 8732TIP3    H126137   7.605   5.599   0.734
 8732TIP3    H226138   7.711   5.646   0.832
 8733TIP3   OH226139   6.973   1.929   6.391
 8733TIP3    H126140   6.966   1.865   6.320
 8733TIP3    H226141   6.909   1.901   6.456
 8734TIP3   OH226142   7.725   3.949   3.469
 8734TIP3    H126143   7.774   4.022   3.506
 8734TIP3    H226144   7.788   3.878   3.462
 8735TIP3   OH226145   8.041   3.786   5.442
 8735TIP3    H126146   8.026   3.877   5.469
 8735TIP3    H226147   8.136   3.776   5.447
 8736TIP3   OH226148   2.311   7.085   4.051
 8736TIP3    H126149   2.219   7.089   4.076
 8736TIP3    H226150   2.310   7.086   3.955
 8737TIP3   OH226151   3.247   5.874   4.649
 8737TIP3    H126152   3.153   5.890   4.648
 8737TIP3    H226153   3.282   5.932   4.716
 8738TIP3   OH226154   7.351   3.893   2.788
 8738TIP3    H126155   7.258   3.906   2.804
 8738TIP3    H226156   7.394   3.930   2.864
 8739TIP3   OH226157   4.305   2.830   1.093
 8739TIP3    H126158   4.250   2.826   1.015
 8739TIP3    H226159   4.275   2.907   1.140
 8740TIP3   OH226160   6.784   3.628   4.743
 8740TIP3    H126161   6.766   3.721   4.734
 8740TIP3    H226162   6.702   3.584   4.718
 8741TIP3   OH226163   5.190   4.154   0.989
 8741TIP3    H126164   5.146   4.139   0.905
 8741TIP3    H226165   5.237   4.236   0.978
 8742TIP3   OH226166   4.300   5.788   1.091
 8742TIP3    H126167   4.330   5.698   1.085
 8742TIP3    H226168   4.363   5.831   1.150
 8743TIP3   OH226169   7.291   0.406   2.883
 8743TIP3    H126170   7.349   0.468   2.926
 8743TIP3    H226171   7.351   0.346   2.837
 8744TIP3   OH226172   2.930   0.279   3.794
 8744TIP3    H126173   2.885   0.347   3.845
 8744TIP3    H226174   2.872   0.203   3.798
 8745TIP3   OH226175   0.792   5.379   6.198
 8745TIP3    H126176   0.697   5.380   6.197
 8745TIP3    H226177   0.817   5.451   6.256
 8746TIP3   OH226178   8.318   0.762   0.450
 8746TIP3    H126179   8.371   0.729   0.522
 8746TIP3    H226180   8.303   0.685   0.395
 8747TIP3   OH226181   2.907   5.609   4.215
 8747TIP3    H126182   2.868   5.528   4.182
 8747TIP3    H226183   2.979   5.626   4.154
 8748TIP3   OH226184   7.769   5.190   2.773
 8748TIP3    H126185   7.794   5.198   2.865
 8748TIP3    H226186   7.716   5.267   2.755
 8749TIP3   OH226187   6.941   7.021   1.339
 8749TIP3    H126188   6.861   6.973   1.360
 8749TIP3    H226189   6.917   7.077   1.266
 8750TIP3   OH226190   0.608   3.909   6.875
 8750TIP3    H126191   0.559   3.882   6.797
 8750TIP3    H226192   0.700   3.896   6.851
 8751TIP3   OH226193   3.860   1.018   3.460
 8751TIP3    H126194   3.933   0.967   3.495
 8751TIP3    H226195   3.840   1.082   3.528
 8752TIP3   OH226196   7.076   3.741   5.983
 8752TIP3    H126197   7.118   3.819   5.945
 8752TIP3    H226198   7.057   3.766   6.074
 8753TIP3   OH226199   0.026   6.916   6.565
 8753TIP3    H126200   0.000   6.923   6.473
 8753TIP3    H226201   0.091   6.986   6.577
 8754TIP3   OH226202   0.238   5.457   5.866
 8754TIP3    H126203   0.316   5.473   5.813
 8754TIP3    H226204   0.247   5.367   5.896
 8755TIP3   OH226205   5.182   7.834   2.048
 8755TIP3    H126206   5.147   7.749   2.076
 8755TIP3    H226207   5.107   7.881   2.014
 8756TIP3   OH226208   1.981   3.808   1.863
 8756TIP3    H126209   1.925   3.873   1.905
 8756TIP3    H226210   1.928   3.774   1.790
 8757TIP3   OH226211   5.819   6.645   2.075
 8757TIP3    H126212   5.898   6.693   2.052
 8757TIP3    H226213   5.840   6.604   2.159
 8758TIP3   OH226214   7.596   1.010   5.131
 8758TIP3    H126215   7.670   1.000   5.191
 8758TIP3    H226216   7.624   0.967   5.051
 8759TIP3   OH226217   8.122   3.083   2.297
 8759TIP3    H126218   8.206   3.104   2.339
 8759TIP3    H226219   8.094   3.003   2.340
 8760TIP3   OH226220   7.656   7.098   5.522
 8760TIP3    H126221   7.683   7.113   5.612
 8760TIP3    H226222   7.711   7.157   5.470
 8761TIP3   OH226223   4.333   2.114   4.010
 8761TIP3    H126224   4.296   2.044   4.064
 8761TIP3    H226225   4.309   2.195   4.055
 8762TIP3   OH226226   7.867   5.045   2.565
 8762TIP3    H126227   7.800   5.046   2.496
 8762TIP3    H226228   7.838   5.112   2.627
 8763TIP3   OH226229   5.311   2.377   2.884
 8763TIP3    H126230   5.345   2.445   2.942
 8763TIP3    H226231   5.232   2.346   2.927
 8764TIP3   OH226232   6.564   0.321   0.337
 8764TIP3    H126233   6.481   0.275   0.324
 8764TIP3    H226234   6.571   0.381   0.263
 8765TIP3   OH226235   5.757   0.435   6.702
 8765TIP3    H126236   5.753   0.490   6.780
 8765TIP3    H226237   5.841   0.457   6.662
 8766TIP3   OH226238   8.005   2.782   6.447
 8766TIP3    H126239   8.071   2.745   6.388
 8766TIP3    H226240   7.940   2.821   6.389
 8767TIP3   OH226241   0.705   1.720   2.325
 8767TIP3    H126242   0.686   1.626   2.319
 8767TIP3    H226243   0.720   1.736   2.418
 8768TIP3   OH226244   7.418   7.098   4.422
 8768TIP3    H126245   7.443   7.076   4.512
 8768TIP3    H226246   7.489   7.155   4.391
 8769TIP3   OH226247   6.805   5.596   0.514
 8769TIP3    H126248   6.822   5.598   0.609
 8769TIP3    H226249   6.874   5.541   0.478
 8770TIP3   OH226250   5.455   1.084   5.258
 8770TIP3    H126251   5.527   1.067   5.319
 8770TIP3    H226252   5.492   1.145   5.194
 8771TIP3   OH226253   7.839   5.602   4.784
 8771TIP3    H126254   7.872   5.680   4.740
 8771TIP3    H226255   7.744   5.615   4.787
 8772TIP3   OH226256   5.804   6.207   5.190
 8772TIP3    H126257   5.830   6.253   5.110
 8772TIP3    H226258   5.778   6.277   5.250
 8773TIP3   OH226259   8.393   7.387   2.417
 8773TIP3    H126260   8.369   7.356   2.504
 8773TIP3    H226261   8.336   7.462   2.402
 8774TIP3   OH226262   1.325   7.527   3.804
 8774TIP3    H126263   1.350   7.554   3.892
 8774TIP3    H226264   1.237   7.564   3.792
 8775TIP3   OH226265   8.153   1.189   6.189
 8775TIP3    H126266   8.152   1.235   6.273
 8775TIP3    H226267   8.189   1.103   6.210
 8776TIP3   OH226268   6.913   3.713   3.585
 8776TIP3    H126269   6.905   3.662   3.665
 8776TIP3    H226270   6.955   3.795   3.612
 8777TIP3   OH226271   1.654   2.099   2.606
 8777TIP3    H126272   1.616   2.124   2.522
 8777TIP3    H226273   1.579   2.091   2.665
 8778TIP3   OH226274   1.567   4.654   5.889
 8778TIP3    H126275   1.605   4.570   5.866
 8778TIP3    H226276   1.487   4.660   5.837
 8779TIP3   OH226277   1.778   1.379   6.545
 8779TIP3    H126278   1.753   1.391   6.636
 8779TIP3    H226279   1.710   1.426   6.496
 8780TIP3   OH226280   3.688   6.621   0.684
 8780TIP3    H126281   3.616   6.579   0.636
 8780TIP3    H226282   3.767   6.589   0.642
 8781TIP3   OH226283   4.616   1.544   1.781
 8781TIP3    H126284   4.578   1.620   1.826
 8781TIP3    H226285   4.641   1.578   1.695
 8782TIP3   OH226286   1.237   0.687   1.212
 8782TIP3    H126287   1.312   0.652   1.164
 8782TIP3    H226288   1.269   0.768   1.251
 8783TIP3   OH226289   4.124   6.107   4.940
 8783TIP3    H126290   4.113   6.014   4.960
 8783TIP3    H226291   4.035   6.143   4.944
 8784TIP3   OH226292   3.458   1.230   3.859
 8784TIP3    H126293   3.373   1.212   3.898
 8784TIP3    H226294   3.440   1.245   3.766
 8785TIP3   OH226295   1.221   0.832   6.220
 8785TIP3    H126296   1.295   0.804   6.166
 8785TIP3    H226297   1.202   0.757   6.275
 8786TIP3   OH226298   0.557   2.286   3.620
 8786TIP3    H126299   0.576   2.261   3.530
 8786TIP3    H226300   0.462   2.283   3.627
 8787TIP3   OH226301   2.256   5.198   5.243
 8787TIP3    H126302   2.267   5.286   5.206
 8787TIP3    H226303   2.161   5.185   5.246
 8788TIP3   OH226304   6.003   1.690   4.635
 8788TIP3    H126305   6.024   1.596   4.637
 8788TIP3    H226306   6.006   1.716   4.727
 8789TIP3   OH226307   2.755   7.587   1.246
 8789TIP3    H126308   2.757   7.503   1.291
 8789TIP3    H226309   2.809   7.573   1.168
 8790TIP3   OH226310   3.191   1.038   3.522
 8790TIP3    H126311   3.132   1.081   3.583
 8790TIP3    H226312   3.218   1.107   3.461
 8791TIP3   OH226313   7.505   1.823   5.621
 8791TIP3    H126314   7.546   1.882   5.558
 8791TIP3    H226315   7.486   1.878   5.696
 8792TIP3   OH226316   4.069   4.759   1.722
 8792TIP3    H126317   4.139   4.764   1.656
 8792TIP3    H226318   3.988   4.758   1.670
 8793TIP3   OH226319   3.802   7.634   2.352
 8793TIP3    H126320   3.756   7.577   2.291
 8793TIP3    H226321   3.814   7.716   2.304
 8794TIP3   OH226322   1.680   4.457   0.168
 8794TIP3    H126323   1.677   4.472   0.073
 8794TIP3    H226324   1.717   4.370   0.177
 8795TIP3   OH226325   1.587   0.383   5.595
 8795TIP3    H126326   1.529   0.339   5.657
 8795TIP3    H226327   1.533   0.401   5.519
 8796TIP3   OH226328   4.143   0.655   5.074
 8796TIP3    H126329   4.068   0.715   5.075
 8796TIP3    H226330   4.125   0.595   5.001
 8797TIP3   OH226331   2.390   4.096   2.233
 8797TIP3    H126332   2.314   4.076   2.287
 8797TIP3    H226333   2.382   4.036   2.158
 8798TIP3   OH226334   4.353   0.002   5.157
 8798TIP3    H126335   4.438   0.047   5.157
 8798TIP3    H226336   4.375  -0.089   5.180
 8799TIP3   OH226337   0.660   7.037   3.778
 8799TIP3    H126338   0.724   7.091   3.733
 8799TIP3    H226339   0.611   6.994   3.708
 8800TIP3   OH226340   0.787   6.434   3.338
 8800TIP3    H126341   0.847   6.359   3.335
 8800TIP3    H226342   0.758   6.445   3.248
 8801TIP3   OH226343   4.527   6.316   3.375
 8801TIP3    H126344   4.533   6.223   3.399
 8801TIP3    H226345   4.605   6.355   3.413
 8802TIP3   OH226346   6.569   2.729   0.335
 8802TIP3    H126347   6.635   2.659   0.340
 8802TIP3    H226348   6.562   2.749   0.242
 8803TIP3   OH226349   2.679   3.056   2.860
 8803TIP3    H126350   2.664   3.124   2.926
 8803TIP3    H226351   2.619   3.079   2.789
 8804TIP3   OH226352   2.929   2.231   3.788
 8804TIP3    H126353   2.957   2.145   3.819
 8804TIP3    H226354   3.006   2.287   3.800
 8805TIP3   OH226355   6.931   0.306   0.672
 8805TIP3    H126356   7.022   0.322   0.698
 8805TIP3    H226357   6.930   0.214   0.644
 8806TIP3   OH226358   1.313   4.707   6.611
 8806TIP3    H126359   1.370   4.631   6.628
 8806TIP3    H226360   1.295   4.702   6.517
 8807TIP3   OH226361   1.888   0.492   1.971
 8807TIP3    H126362   1.915   0.413   1.925
 8807TIP3    H226363   1.854   0.461   2.055
 8808TIP3   OH226364   2.516   0.616   4.449
 8808TIP3    H126365   2.467   0.536   4.470
 8808TIP3    H226366   2.582   0.622   4.519
 8809TIP3   OH226367   0.415   1.864   1.172
 8809TIP3    H126368   0.494   1.918   1.163
 8809TIP3    H226369   0.439   1.779   1.135
 8810TIP3   OH226370   7.579   4.261   5.852
 8810TIP3    H126371   7.499   4.309   5.830
 8810TIP3    H226372   7.638   4.328   5.887
 8811TIP3   OH226373   6.842   6.546   4.998
 8811TIP3    H126374   6.855   6.542   4.903
 8811TIP3    H226375   6.768   6.488   5.015
 8812TIP3   OH226376   4.551   7.016   0.281
 8812TIP3    H126377   4.646   7.018   0.293
 8812TIP3    H226378   4.539   6.980   0.193
 8813TIP3   OH226379   3.958   6.524   3.250
 8813TIP3    H126380   3.974   6.539   3.343
 8813TIP3    H226381   3.877   6.572   3.232
 8814TIP3   OH226382   8.133   4.961   2.174
 8814TIP3    H126383   8.222   4.996   2.170
 8814TIP3    H226384   8.077   5.036   2.156
 8815TIP3   OH226385   3.834   0.588   2.379
 8815TIP3    H126386   3.757   0.603   2.434
 8815TIP3    H226387   3.797   0.566   2.293
 8816TIP3   OH226388   8.124   0.605   6.550
 8816TIP3    H126389   8.207   0.650   6.537
 8816TIP3    H226390   8.149   0.514   6.569
 8817TIP3   OH226391   4.525   5.249   6.339
 8817TIP3    H126392   4.487   5.164   6.361
 8817TIP3    H226393   4.543   5.244   6.245
 8818TIP3   OH226394   1.253   7.466   4.298
 8818TIP3    H126395   1.236   7.558   4.276
 8818TIP3    H226396   1.348   7.463   4.314
 8819TIP3   OH226397   3.328   6.742   0.668
 8819TIP3    H126398   3.348   6.674   0.605
 8819TIP3    H226399   3.245   6.715   0.707
 8820TIP3   OH226400   4.946   4.638   4.146
 8820TIP3    H126401   4.947   4.640   4.050
 8820TIP3    H226402   5.011   4.572   4.170
 8821TIP3   OH226403   4.021   4.340   5.679
 8821TIP3    H126404   3.932   4.355   5.709
 8821TIP3    H226405   4.057   4.277   5.741
 8822TIP3   OH226406   6.528   2.713   1.476
 8822TIP3    H126407   6.501   2.763   1.400
 8822TIP3    H226408   6.606   2.665   1.447
 8823TIP3   OH226409   7.529   0.538   2.037
 8823TIP3    H126410   7.612   0.510   2.074
 8823TIP3    H226411   7.552   0.574   1.951
 8824TIP3   OH226412   0.310   2.494   5.459
 8824TIP3    H126413   0.256   2.442   5.518
 8824TIP3    H226414   0.252   2.516   5.386
 8825TIP3   OH226415   0.495   2.271   5.863
 8825TIP3    H126416   0.459   2.352   5.828
 8825TIP3    H226417   0.429   2.240   5.925
 8826TIP3   OH226418   3.607   6.064   3.931
 8826TIP3    H126419   3.662   6.059   4.009
 8826TIP3    H226420   3.546   6.136   3.949
 8827TIP3   OH226421   5.325   2.895   5.297
 8827TIP3    H126422   5.376   2.923   5.374
 8827TIP3    H226423   5.365   2.941   5.224
 8828TIP3   OH226424   4.387   5.381   2.404
 8828TIP3    H126425   4.329   5.322   2.452
 8828TIP3    H226426   4.472   5.337   2.405
 8829TIP3   OH226427   0.686   0.272   5.037
 8829TIP3    H126428   0.628   0.250   4.964
 8829TIP3    H226429   0.629   0.319   5.098
 8830TIP3   OH226430   6.952   0.747   2.407
 8830TIP3    H126431   7.034   0.790   2.431
 8830TIP3    H226432   6.966   0.717   2.317
 8831TIP3   OH226433   0.288   4.489   4.476
 8831TIP3    H126434   0.264   4.502   4.568
 8831TIP3    H226435   0.213   4.526   4.427
 8832TIP3   OH226436   2.459   4.858   3.071
 8832TIP3    H126437   2.460   4.786   3.008
 8832TIP3    H226438   2.368   4.865   3.099
 8833TIP3   OH226439   7.415   3.167   5.206
 8833TIP3    H126440   7.358   3.221   5.260
 8833TIP3    H226441   7.380   3.078   5.214
 8834TIP3   OH226442   3.385   4.495   6.187
 8834TIP3    H126443   3.379   4.563   6.255
 8834TIP3    H226444   3.366   4.413   6.233
 8835TIP3   OH226445   3.794   5.591   0.891
 8835TIP3    H126446   3.784   5.496   0.885
 8835TIP3    H226447   3.722   5.626   0.839
 8836TIP3   OH226448   6.291   3.255   0.028
 8836TIP3    H126449   6.379   3.275   0.062
 8836TIP3    H226450   6.232   3.295   0.092
 8837TIP3   OH226451   7.921   2.687   2.655
 8837TIP3    H126452   7.866   2.761   2.682
 8837TIP3    H226453   7.860   2.623   2.619
 8838TIP3   OH226454   4.570   0.317   5.517
 8838TIP3    H126455   4.487   0.364   5.508
 8838TIP3    H226456   4.633   0.383   5.544
 8839TIP3   OH226457   4.500   2.290   5.939
 8839TIP3    H126458   4.531   2.295   6.030
 8839TIP3    H226459   4.495   2.382   5.911
 8840TIP3   OH226460   2.591   5.891   0.216
 8840TIP3    H126461   2.612   5.832   0.144
 8840TIP3    H226462   2.506   5.929   0.192
 8841TIP3   OH226463   3.293   7.371   0.570
 8841TIP3    H126464   3.340   7.451   0.596
 8841TIP3    H226465   3.253   7.392   0.486
 8842TIP3   OH226466   1.365   6.351   3.542
 8842TIP3    H126467   1.403   6.274   3.501
 8842TIP3    H226468   1.379   6.421   3.479
 8843TIP3   OH226469   0.240   4.514   6.548
 8843TIP3    H126470   0.191   4.439   6.516
 8843TIP3    H226471   0.276   4.485   6.632
 8844TIP3   OH226472   0.955   2.233   5.159
 8844TIP3    H126473   1.030   2.204   5.211
 8844TIP3    H226474   0.879   2.198   5.206
 8845TIP3   OH226475   5.076   6.768   0.839
 8845TIP3    H126476   5.043   6.841   0.786
 8845TIP3    H226477   5.034   6.778   0.924
 8846TIP3   OH226478   0.747   4.852   1.663
 8846TIP3    H126479   0.774   4.910   1.592
 8846TIP3    H226480   0.786   4.891   1.742
 8847TIP3   OH226481   4.977   1.434   5.047
 8847TIP3    H126482   4.934   1.501   5.101
 8847TIP3    H226483   4.941   1.351   5.079
 8848TIP3   OH226484   4.612   4.551   3.770
 8848TIP3    H126485   4.520   4.526   3.764
 8848TIP3    H226486   4.647   4.494   3.839
 8849TIP3   OH226487   0.062   7.225   2.196
 8849TIP3    H126488  -0.027   7.220   2.161
 8849TIP3    H226489   0.050   7.247   2.288
 8850TIP3   OH226490   3.879   7.871   0.032
 8850TIP3    H126491   3.922   7.952   0.003
 8850TIP3    H226492   3.824   7.898   0.106
 8851TIP3   OH226493   4.455   1.518   5.935
 8851TIP3    H126494   4.531   1.489   5.985
 8851TIP3    H226495   4.426   1.440   5.888
 8852TIP3   OH226496   3.958   2.550   1.143
 8852TIP3    H126497   3.874   2.584   1.173
 8852TIP3    H226498   4.018   2.566   1.217
 8853TIP3   OH226499   0.443   1.233   6.505
 8853TIP3    H126500   0.482   1.155   6.545
 8853TIP3    H226501   0.416   1.205   6.417
 8854TIP3   OH226502   7.662   5.291   0.669
 8854TIP3    H126503   7.698   5.265   0.754
 8854TIP3    H226504   7.699   5.378   0.653
 8855TIP3   OH226505   3.261   3.959   5.695
 8855TIP3    H126506   3.241   3.867   5.712
 8855TIP3    H226507   3.289   3.962   5.604
 8856TIP3   OH226508   7.643   7.366   1.594
 8856TIP3    H126509   7.636   7.302   1.523
 8856TIP3    H226510   7.560   7.413   1.593
 8857TIP3   OH226511   7.255   0.082   6.183
 8857TIP3    H126512   7.170   0.044   6.160
 8857TIP3    H226513   7.251   0.172   6.149
 8858TIP3   OH226514   5.183   5.902   2.393
 8858TIP3    H126515   5.186   5.810   2.422
 8858TIP3    H226516   5.143   5.898   2.306
 8859TIP3   OH226517   8.023   0.662   1.670
 8859TIP3    H126518   8.101   0.620   1.706
 8859TIP3    H226519   7.990   0.717   1.741
 8860TIP3   OH226520   5.270   5.728   1.069
 8860TIP3    H126521   5.344   5.780   1.098
 8860TIP3    H226522   5.205   5.737   1.139
 8861TIP3   OH226523   3.793   4.548   3.841
 8861TIP3    H126524   3.726   4.479   3.839
 8861TIP3    H226525   3.744   4.628   3.824
 8862TIP3   OH226526   4.845   3.446   1.769
 8862TIP3    H126527   4.776   3.503   1.735
 8862TIP3    H226528   4.797   3.375   1.812
 8863TIP3   OH226529   3.382   5.944   5.614
 8863TIP3    H126530   3.419   6.018   5.662
 8863TIP3    H226531   3.315   5.983   5.557
 8864TIP3   OH226532   3.656   0.031   5.418
 8864TIP3    H126533   3.595  -0.010   5.357
 8864TIP3    H226534   3.620   0.118   5.433
 8865TIP3   OH226535   0.455   7.051   4.621
 8865TIP3    H126536   0.438   6.964   4.658
 8865TIP3    H226537   0.545   7.046   4.588
 8866TIP3   OH226538   1.641   2.102   5.189
 8866TIP3    H126539   1.574   2.112   5.121
 8866TIP3    H226540   1.720   2.079   5.141
 8867TIP3   OH226541   3.318   1.969   3.926
 8867TIP3    H126542   3.230   1.944   3.954
 8867TIP3    H226543   3.313   1.975   3.831
 8868TIP3   OH226544   7.134   3.486   5.935
 8868TIP3    H126545   7.118   3.575   5.966
 8868TIP3    H226546   7.080   3.431   5.992
 8869TIP3   OH226547   1.032   4.118   3.146
 8869TIP3    H126548   1.112   4.131   3.095
 8869TIP3    H226549   1.040   4.180   3.219
 8870TIP3   OH226550   7.628   0.634   5.604
 8870TIP3    H126551   7.625   0.721   5.644
 8870TIP3    H226552   7.569   0.640   5.529
 8871TIP3   OH226553   6.086   1.936   0.229
 8871TIP3    H126554   6.101   1.916   0.321
 8871TIP3    H226555   6.059   1.853   0.190
 8872TIP3   OH226556   3.180   5.445   6.166
 8872TIP3    H126557   3.112   5.382   6.144
 8872TIP3    H226558   3.206   5.423   6.255
 8873TIP3   OH226559   2.287   1.868   2.484
 8873TIP3    H126560   2.194   1.845   2.483
 8873TIP3    H226561   2.288   1.962   2.467
 8874TIP3   OH226562   7.157   4.043   0.163
 8874TIP3    H126563   7.175   4.027   0.070
 8874TIP3    H226564   7.226   3.995   0.209
 8875TIP3   OH226565   0.105   7.663   2.404
 8875TIP3    H126566   0.022   7.646   2.449
 8875TIP3    H226567   0.171   7.621   2.458
 8876TIP3   OH226568   8.108   2.182   3.300
 8876TIP3    H126569   8.147   2.204   3.216
 8876TIP3    H226570   8.042   2.250   3.314
 8877TIP3   OH226571   8.160   7.767   3.905
 8877TIP3    H126572   8.073   7.733   3.928
 8877TIP3    H226573   8.220   7.710   3.953
 8878TIP3   OH226574   0.409   3.859   3.686
 8878TIP3    H126575   0.322   3.849   3.645
 8878TIP3    H226576   0.429   3.952   3.676
 8879TIP3   OH226577   6.976   4.712   3.543
 8879TIP3    H126578   7.056   4.684   3.500
 8879TIP3    H226579   6.913   4.724   3.472
 8880TIP3   OH226580   3.799   6.335   5.020
 8880TIP3    H126581   3.775   6.242   5.012
 8880TIP3    H226582   3.788   6.370   4.932
 8881TIP3   OH226583   4.928   0.287   0.056
 8881TIP3    H126584   4.846   0.247   0.085
 8881TIP3    H226585   4.946   0.245  -0.028
 8882TIP3   OH226586   0.295   2.991   3.885
 8882TIP3    H126587   0.333   3.014   3.970
 8882TIP3    H226588   0.257   2.905   3.899
 8883TIP3   OH226589   5.056   2.768   2.847
 8883TIP3    H126590   4.969   2.733   2.863
 8883TIP3    H226591   5.105   2.746   2.927
 8884TIP3   OH226592   2.785   3.971   4.972
 8884TIP3    H126593   2.845   3.966   5.046
 8884TIP3    H226594   2.836   3.938   4.898
 8885TIP3   OH226595   5.659   4.935   4.395
 8885TIP3    H126596   5.645   4.846   4.428
 8885TIP3    H226597   5.633   4.931   4.303
 8886TIP3   OH226598   8.238   2.582   4.118
 8886TIP3    H126599   8.230   2.530   4.038
 8886TIP3    H226600   8.232   2.673   4.088
 8887TIP3   OH226601   7.156   0.514   0.831
 8887TIP3    H126602   7.160   0.532   0.925
 8887TIP3    H226603   7.068   0.543   0.805
 8888TIP3   OH226604   6.634   0.151   0.807
 8888TIP3    H126605   6.604   0.125   0.720
 8888TIP3    H226606   6.566   0.209   0.840
 8889TIP3   OH226607   7.578   3.421   2.166
 8889TIP3    H126608   7.642   3.480   2.206
 8889TIP3    H226609   7.626   3.339   2.153
 8890TIP3   OH226610   6.984   6.233   0.474
 8890TIP3    H126611   7.062   6.269   0.431
 8890TIP3    H226612   6.981   6.142   0.444
 8891TIP3   OH226613   1.626   0.061   3.500
 8891TIP3    H126614   1.595  -0.009   3.442
 8891TIP3    H226615   1.549   0.116   3.514
 8892TIP3   OH226616   5.899   3.231   6.154
 8892TIP3    H126617   5.956   3.218   6.229
 8892TIP3    H226618   5.875   3.324   6.159
 8893TIP3   OH226619   3.930   1.755   3.025
 8893TIP3    H126620   3.968   1.669   3.009
 8893TIP3    H226621   3.941   1.769   3.119
 8894TIP3   OH226622   6.140   5.412   2.731
 8894TIP3    H126623   6.079   5.477   2.768
 8894TIP3    H226624   6.200   5.393   2.803
 8895TIP3   OH226625   5.878   1.508   0.765
 8895TIP3    H126626   5.889   1.603   0.757
 8895TIP3    H226627   5.957   1.471   0.725
 8896TIP3   OH226628   5.722   7.065   6.118
 8896TIP3    H126629   5.813   7.036   6.104
 8896TIP3    H226630   5.678   6.988   6.154
 8897TIP3   OH226631   7.518   7.214   2.145
 8897TIP3    H126632   7.500   7.308   2.150
 8897TIP3    H226633   7.441   7.172   2.182
 8898TIP3   OH226634   1.183   6.812   2.131
 8898TIP3    H126635   1.088   6.815   2.125
 8898TIP3    H226636   1.204   6.718   2.136
 8899TIP3   OH226637   0.858   4.425   4.188
 8899TIP3    H126638   0.800   4.356   4.156
 8899TIP3    H226639   0.899   4.388   4.266
 8900TIP3   OH226640   4.982   6.944   4.686
 8900TIP3    H126641   5.077   6.933   4.686
 8900TIP3    H226642   4.965   7.013   4.622
 8901TIP3   OH226643   5.891   3.798   6.345
 8901TIP3    H126644   5.807   3.830   6.377
 8901TIP3    H226645   5.957   3.840   6.401
 8902TIP3   OH226646   6.219   2.215   2.585
 8902TIP3    H126647   6.287   2.218   2.653
 8902TIP3    H226648   6.267   2.230   2.503
 8903TIP3   OH226649   0.332   4.539   0.340
 8903TIP3    H126650   0.328   4.496   0.255
 8903TIP3    H226651   0.405   4.497   0.385
 8904TIP3   OH226652   3.599   1.025   2.773
 8904TIP3    H126653   3.672   1.040   2.712
 8904TIP3    H226654   3.549   1.106   2.771
 8905TIP3   OH226655   5.938   6.934   3.599
 8905TIP3    H126656   5.975   6.877   3.666
 8905TIP3    H226657   5.970   6.898   3.516
 8906TIP3   OH226658   6.171   5.399   6.338
 8906TIP3    H126659   6.118   5.374   6.413
 8906TIP3    H226660   6.213   5.481   6.364
 8907TIP3   OH226661   2.266   0.785   3.630
 8907TIP3    H126662   2.290   0.791   3.723
 8907TIP3    H226663   2.190   0.726   3.630
 8908TIP3   OH226664   4.385   7.464   5.784
 8908TIP3    H126665   4.321   7.410   5.832
 8908TIP3    H226666   4.464   7.410   5.783
 8909TIP3   OH226667   0.974   3.846   2.575
 8909TIP3    H126668   0.999   3.925   2.622
 8909TIP3    H226669   0.955   3.876   2.486
 8910TIP3   OH226670   3.582   0.969   6.040
 8910TIP3    H126671   3.509   0.991   6.097
 8910TIP3    H226672   3.580   1.035   5.971
 8911TIP3   OH226673   3.833   3.897   5.166
 8911TIP3    H126674   3.880   3.978   5.186
 8911TIP3    H226675   3.761   3.925   5.109
 8912TIP3   OH226676   2.313   6.085   0.375
 8912TIP3    H126677   2.277   6.144   0.310
 8912TIP3    H226678   2.300   5.997   0.337
 8913TIP3   OH226679   5.537   1.210   1.478
 8913TIP3    H126680   5.545   1.260   1.560
 8913TIP3    H226681   5.451   1.234   1.445
 8914TIP3   OH226682   1.433   1.535   6.166
 8914TIP3    H126683   1.375   1.592   6.115
 8914TIP3    H226684   1.375   1.474   6.211
 8915TIP3   OH226685   1.592   6.444   6.677
 8915TIP3    H126686   1.591   6.366   6.622
 8915TIP3    H226687   1.684   6.457   6.700
 8916TIP3   OH226688   1.273   2.028   3.255
 8916TIP3    H126689   1.235   1.966   3.193
 8916TIP3    H226690   1.336   2.078   3.203
 8917TIP3   OH226691   3.946   2.564   3.863
 8917TIP3    H126692   3.993   2.632   3.911
 8917TIP3    H226693   3.913   2.505   3.930
 8918TIP3   OH226694   6.245   7.186   2.653
 8918TIP3    H126695   6.179   7.122   2.678
 8918TIP3    H226696   6.217   7.217   2.567
 8919TIP3   OH226697   0.826   6.079   0.174
 8919TIP3    H126698   0.790   5.992   0.157
 8919TIP3    H226699   0.802   6.098   0.265
 8920TIP3   OH226700   7.387   1.686   6.848
 8920TIP3    H126701   7.337   1.668   6.928
 8920TIP3    H226702   7.330   1.656   6.777
 8921TIP3   OH226703   5.155   4.321   1.760
 8921TIP3    H126704   5.187   4.236   1.791
 8921TIP3    H226705   5.145   4.310   1.665
 8922TIP3   OH226706   5.769   4.696   5.714
 8922TIP3    H126707   5.864   4.699   5.703
 8922TIP3    H226708   5.752   4.612   5.755
 8923TIP3   OH226709   6.681   6.077   2.848
 8923TIP3    H126710   6.666   5.983   2.860
 8923TIP3    H226711   6.621   6.119   2.910
 8924TIP3   OH226712   5.300   2.722   1.723
 8924TIP3    H126713   5.339   2.660   1.661
 8924TIP3    H226714   5.230   2.765   1.673
 8925TIP3   OH226715  -0.016   0.231   2.954
 8925TIP3    H126716   0.037   0.159   2.918
 8925TIP3    H226717  -0.031   0.288   2.879
 8926TIP3   OH226718   2.055   6.182   2.214
 8926TIP3    H126719   2.036   6.133   2.294
 8926TIP3    H226720   2.141   6.220   2.229
 8927TIP3   OH226721   5.146   5.881   0.870
 8927TIP3    H126722   5.145   5.977   0.862
 8927TIP3    H226723   5.225   5.863   0.921
 8928TIP3   OH226724   6.319   3.139   2.299
 8928TIP3    H126725   6.304   3.233   2.305
 8928TIP3    H226726   6.235   3.099   2.322
 8929TIP3   OH226727   2.905   2.548   6.029
 8929TIP3    H126728   2.866   2.470   6.068
 8929TIP3    H226729   2.876   2.546   5.938
 8930TIP3   OH226730   0.914   4.848   5.903
 8930TIP3    H126731   0.924   4.941   5.882
 8930TIP3    H226732   0.886   4.847   5.994
 8931TIP3   OH226733   4.017   6.858   1.405
 8931TIP3    H126734   4.099   6.853   1.356
 8931TIP3    H226735   3.993   6.951   1.400
 8932TIP3   OH226736   6.031   7.422   5.853
 8932TIP3    H126737   6.106   7.411   5.793
 8932TIP3    H226738   5.955   7.402   5.799
 8933TIP3   OH226739   7.649   4.118   0.075
 8933TIP3    H126740   7.742   4.100   0.070
 8933TIP3    H226741   7.609   4.057   0.014
 8934TIP3   OH226742   2.762   4.031   5.345
 8934TIP3    H126743   2.809   4.006   5.423
 8934TIP3    H226744   2.687   3.971   5.341
 8935TIP3   OH226745   0.849   2.294   1.708
 8935TIP3    H126746   0.811   2.303   1.795
 8935TIP3    H226747   0.942   2.276   1.724
 8936TIP3   OH226748   1.698   0.330   6.715
 8936TIP3    H126749   1.786   0.329   6.678
 8936TIP3    H226750   1.674   0.238   6.723
 8937TIP3   OH226751   6.754   1.096   3.361
 8937TIP3    H126752   6.708   1.039   3.300
 8937TIP3    H226753   6.847   1.082   3.342
 8938TIP3   OH226754   4.317   0.409   5.528
 8938TIP3    H126755   4.281   0.321   5.535
 8938TIP3    H226756   4.289   0.440   5.442
 8939TIP3   OH226757   0.757   2.296   4.002
 8939TIP3    H126758   0.681   2.239   3.996
 8939TIP3    H226759   0.760   2.342   3.918
 8940TIP3   OH226760   4.379   6.648   4.030
 8940TIP3    H126761   4.392   6.720   4.093
 8940TIP3    H226762   4.328   6.583   4.078
 8941TIP3   OH226763   0.120   5.744   5.368
 8941TIP3    H126764   0.127   5.760   5.462
 8941TIP3    H226765   0.135   5.830   5.328
 8942TIP3   OH226766   6.417   4.573   3.098
 8942TIP3    H126767   6.401   4.667   3.089
 8942TIP3    H226768   6.437   4.544   3.009
 8943TIP3   OH226769   6.109   0.252   2.163
 8943TIP3    H126770   6.056   0.332   2.166
 8943TIP3    H226771   6.109   0.219   2.253
 8944TIP3   OH226772   1.239   7.485   0.698
 8944TIP3    H126773   1.235   7.577   0.673
 8944TIP3    H226774   1.280   7.441   0.622
 8945TIP3   OH226775   0.052   3.246   3.823
 8945TIP3    H126776   0.003   3.210   3.749
 8945TIP3    H226777   0.085   3.169   3.869
 8946TIP3   OH226778   7.047   6.740   2.522
 8946TIP3    H126779   7.005   6.664   2.482
 8946TIP3    H226780   7.128   6.706   2.559
 8947TIP3   OH226781   1.973   5.560   6.473
 8947TIP3    H126782   2.043   5.621   6.492
 8947TIP3    H226783   1.997   5.521   6.389
 8948TIP3   OH226784   0.218   2.783   5.561
 8948TIP3    H126785   0.154   2.723   5.599
 8948TIP3    H226786   0.266   2.817   5.636
 8949TIP3   OH226787   3.163   2.303   2.642
 8949TIP3    H126788   3.184   2.227   2.588
 8949TIP3    H226789   3.070   2.294   2.661
 8950TIP3   OH226790   7.416   4.167   5.561
 8950TIP3    H126791   7.490   4.129   5.610
 8950TIP3    H226792   7.364   4.092   5.533
 8951TIP3   OH226793   4.149   0.777   3.424
 8951TIP3    H126794   4.063   0.734   3.425
 8951TIP3    H226795   4.167   0.797   3.516
 8952TIP3   OH226796   6.630   6.977   6.419
 8952TIP3    H126797   6.660   6.915   6.352
 8952TIP3    H226798   6.589   6.923   6.485
 8953TIP3   OH226799   3.999   6.579   2.989
 8953TIP3    H126800   4.025   6.670   3.002
 8953TIP3    H226801   3.966   6.551   3.075
 8954TIP3   OH226802   4.096   5.277   2.347
 8954TIP3    H126803   4.190   5.259   2.345
 8954TIP3    H226804   4.058   5.213   2.287
 8955TIP3   OH226805   4.627   4.597   6.452
 8955TIP3    H126806   4.630   4.509   6.413
 8955TIP3    H226807   4.701   4.643   6.412
 8956TIP3   OH226808   2.518   0.182   1.752
 8956TIP3    H126809   2.596   0.209   1.801
 8956TIP3    H226810   2.548   0.109   1.698
 8957TIP3   OH226811   2.274   4.294   6.519
 8957TIP3    H126812   2.204   4.255   6.571
 8957TIP3    H226813   2.289   4.380   6.559
 8958TIP3   OH226814   2.511   3.224   2.682
 8958TIP3    H126815   2.537   3.314   2.698
 8958TIP3    H226816   2.496   3.219   2.588
 8959TIP3   OH226817   6.632   1.077   1.303
 8959TIP3    H126818   6.607   1.167   1.327
 8959TIP3    H226819   6.683   1.046   1.377
 8960TIP3   OH226820   4.194   5.868   3.723
 8960TIP3    H126821   4.152   5.867   3.809
 8960TIP3    H226822   4.121   5.872   3.661
 8961TIP3   OH226823   0.080   6.331   3.925
 8961TIP3    H126824   0.009   6.269   3.940
 8961TIP3    H226825   0.116   6.308   3.840
 8962TIP3   OH226826   6.790   0.984   1.530
 8962TIP3    H126827   6.749   0.928   1.596
 8962TIP3    H226828   6.883   0.983   1.552
 8963TIP3   OH226829   6.991   7.111   3.278
 8963TIP3    H126830   7.065   7.063   3.316
 8963TIP3    H226831   6.969   7.177   3.344
 8964TIP3   OH226832   6.066   2.908   1.995
 8964TIP3    H126833   6.113   2.859   1.927
 8964TIP3    H226834   6.103   2.996   1.991
 8965TIP3   OH226835   6.801   1.875   6.593
 8965TIP3    H126836   6.783   1.820   6.669
 8965TIP3    H226837   6.715   1.911   6.569
 8966TIP3   OH226838   1.236   4.601   2.281
 8966TIP3    H126839   1.248   4.550   2.201
 8966TIP3    H226840   1.263   4.690   2.257
 8967TIP3   OH226841   6.624   3.925   6.194
 8967TIP3    H126842   6.714   3.919   6.226
 8967TIP3    H226843   6.583   3.844   6.223
 8968TIP3   OH226844   0.485   3.970   2.715
 8968TIP3    H126845   0.568   3.924   2.703
 8968TIP3    H226846   0.509   4.061   2.734
 8969TIP3   OH226847   1.880   2.852   1.531
 8969TIP3    H126848   1.873   2.858   1.627
 8969TIP3    H226849   1.921   2.767   1.515
 8970TIP3   OH226850   5.828   2.763   4.316
 8970TIP3    H126851   5.782   2.687   4.279
 8970TIP3    H226852   5.917   2.755   4.282
 8971TIP3   OH226853   6.021   1.862   1.205
 8971TIP3    H126854   5.984   1.900   1.126
 8971TIP3    H226855   6.106   1.905   1.215
 8972TIP3   OH226856   5.050   7.226   5.289
 8972TIP3    H126857   5.079   7.137   5.270
 8972TIP3    H226858   4.956   7.218   5.307
 8973TIP3   OH226859   0.700   3.640   3.462
 8973TIP3    H126860   0.625   3.591   3.427
 8973TIP3    H226861   0.667   3.679   3.543
 8974TIP3   OH226862   1.331   4.665   5.723
 8974TIP3    H126863   1.331   4.744   5.669
 8974TIP3    H226864   1.243   4.663   5.762
 8975TIP3   OH226865   5.439   4.243   6.072
 8975TIP3    H126866   5.398   4.257   6.157
 8975TIP3    H226867   5.365   4.232   6.011
 8976TIP3   OH226868   0.730   1.209   1.427
 8976TIP3    H126869   0.739   1.272   1.498
 8976TIP3    H226870   0.819   1.178   1.411
 8977TIP3   OH226871   7.839   7.686   5.930
 8977TIP3    H126872   7.789   7.759   5.896
 8977TIP3    H226873   7.795   7.662   6.011
 8978TIP3   OH226874   1.530   3.747   1.327
 8978TIP3    H126875   1.613   3.756   1.280
 8978TIP3    H226876   1.521   3.653   1.342
 8979TIP3   OH226877   6.626   4.834   3.555
 8979TIP3    H126878   6.554   4.844   3.617
 8979TIP3    H226879   6.610   4.900   3.488
 8980TIP3   OH226880   0.022   4.001   5.014
 8980TIP3    H126881  -0.023   3.916   5.017
 8980TIP3    H226882   0.105   3.986   5.058
 8981TIP3   OH226883   0.908   2.901   1.424
 8981TIP3    H126884   0.893   2.996   1.421
 8981TIP3    H226885   0.832   2.864   1.377
 8982TIP3   OH226886   4.644   6.514   5.965
 8982TIP3    H126887   4.628   6.552   5.879
 8982TIP3    H226888   4.735   6.486   5.963
 8983TIP3   OH226889   6.258   4.754   2.195
 8983TIP3    H126890   6.321   4.692   2.160
 8983TIP3    H226891   6.180   4.701   2.213
 8984TIP3   OH226892   7.087   6.239   2.104
 8984TIP3    H126893   7.017   6.249   2.169
 8984TIP3    H226894   7.166   6.230   2.157
 8985TIP3   OH226895   0.208   5.921   4.773
 8985TIP3    H126896   0.293   5.930   4.816
 8985TIP3    H226897   0.148   5.900   4.845
 8986TIP3   OH226898   1.736   3.835   5.477
 8986TIP3    H126899   1.663   3.798   5.527
 8986TIP3    H226900   1.715   3.928   5.470
 8987TIP3   OH226901   6.538   0.475   2.345
 8987TIP3    H126902   6.526   0.565   2.314
 8987TIP3    H226903   6.632   0.467   2.357
 8988TIP3   OH226904   2.596   1.351   3.067
 8988TIP3    H126905   2.501   1.364   3.068
 8988TIP3    H226906   2.625   1.391   2.985
 8989TIP3   OH226907   2.937   1.468   5.620
 8989TIP3    H126908   2.961   1.483   5.529
 8989TIP3    H226909   2.955   1.375   5.635
 8990TIP3   OH226910   4.703   4.248   6.656
 8990TIP3    H126911   4.744   4.242   6.570
 8990TIP3    H226912   4.618   4.206   6.646
 8991TIP3   OH226913   1.575   3.445   4.780
 8991TIP3    H126914   1.481   3.433   4.773
 8991TIP3    H226915   1.609   3.423   4.694
 8992TIP3   OH226916   6.473   0.245   5.299
 8992TIP3    H126917   6.435   0.161   5.327
 8992TIP3    H226918   6.567   0.227   5.291
 8993TIP3   OH226919   6.759   2.969   3.324
 8993TIP3    H126920   6.732   3.015   3.244
 8993TIP3    H226921   6.710   2.886   3.320
 8994TIP3   OH226922   5.846   2.296   3.422
 8994TIP3    H126923   5.772   2.240   3.445
 8994TIP3    H226924   5.909   2.283   3.493
 8995TIP3   OH226925   0.273   7.684   0.234
 8995TIP3    H126926   0.355   7.732   0.225
 8995TIP3    H226927   0.242   7.706   0.322
 8996TIP3   OH226928   4.965   6.723   3.545
 8996TIP3    H126929   4.968   6.747   3.452
 8996TIP3    H226930   4.885   6.672   3.554
 8997TIP3   OH226931   7.196   3.091   5.745
 8997TIP3    H126932   7.175   3.089   5.838
 8997TIP3    H226933   7.141   3.023   5.706
 8998TIP3   OH226934   0.762   3.612   1.131
 8998TIP3    H126935   0.692   3.636   1.071
 8998TIP3    H226936   0.723   3.547   1.189
 8999TIP3   OH226937   1.799   4.597   6.044
 8999TIP3    H126938   1.761   4.648   5.973
 8999TIP3    H226939   1.842   4.523   6.001
 9000TIP3   OH226940   3.886   5.085   2.302
 9000TIP3    H126941   3.826   5.071   2.229
 9000TIP3    H226942   3.829   5.104   2.377
 9001TIP3   OH226943   5.076   6.498   4.723
 9001TIP3    H126944   5.014   6.561   4.759
 9001TIP3    H226945   5.068   6.508   4.628
 9002TIP3   OH226946   1.603   6.401   0.350
 9002TIP3    H126947   1.627   6.310   0.331
 9002TIP3    H226948   1.652   6.423   0.429
 9003TIP3   OH226949   2.970   1.462   3.491
 9003TIP3    H126950   2.984   1.410   3.412
 9003TIP3    H226951   3.034   1.533   3.485
 9004TIP3   OH226952   6.345   3.197   5.891
 9004TIP3    H126953   6.256   3.212   5.860
 9004TIP3    H226954   6.396   3.269   5.853
 9005TIP3   OH226955   7.836   0.988   5.512
 9005TIP3    H126956   7.792   1.019   5.591
 9005TIP3    H226957   7.880   0.908   5.538
 9006TIP3   OH226958   3.634   6.658   3.582
 9006TIP3    H126959   3.595   6.686   3.499
 9006TIP3    H226960   3.728   6.673   3.571
 9007TIP3   OH226961   4.883   7.459   1.721
 9007TIP3    H126962   4.833   7.419   1.650
 9007TIP3    H226963   4.926   7.534   1.681
 9008TIP3   OH226964   4.606   4.728   2.758
 9008TIP3    H126965   4.538   4.664   2.736
 9008TIP3    H226966   4.683   4.699   2.709
 9009TIP3   OH226967   7.001   0.754   1.295
 9009TIP3    H126968   7.017   0.730   1.386
 9009TIP3    H226969   6.933   0.693   1.266
 9010TIP3   OH226970   3.703   0.043   5.097
 9010TIP3    H126971   3.754  -0.037   5.111
 9010TIP3    H226972   3.769   0.113   5.096
 9011TIP3   OH226973   6.864   1.105   3.829
 9011TIP3    H126974   6.831   1.146   3.749
 9011TIP3    H226975   6.849   1.170   3.897
 9012TIP3   OH226976   0.015   6.588   5.985
 9012TIP3    H126977   0.105   6.563   5.964
 9012TIP3    H226978  -0.017   6.517   6.042
 9013TIP3   OH226979   1.464   6.071   1.508
 9013TIP3    H126980   1.385   6.028   1.476
 9013TIP3    H226981   1.528   6.000   1.516
 9014TIP3   OH226982   2.014   3.756   5.092
 9014TIP3    H126983   2.008   3.760   5.188
 9014TIP3    H226984   2.100   3.717   5.076
 9015TIP3   OH226985   5.110   2.696   2.500
 9015TIP3    H126986   5.177   2.732   2.558
 9015TIP3    H226987   5.029   2.740   2.527
 9016TIP3   OH226988   1.867   5.983   1.445
 9016TIP3    H126989   1.851   5.908   1.502
 9016TIP3    H226990   1.903   6.050   1.503
 9017TIP3   OH226991   6.090   4.426   1.623
 9017TIP3    H126992   6.131   4.367   1.560
 9017TIP3    H226993   6.004   4.389   1.639
 9018TIP3   OH226994   4.908   1.846   1.054
 9018TIP3    H126995   4.814   1.849   1.074
 9018TIP3    H226996   4.932   1.937   1.037
 9019TIP3   OH226997   8.218   6.066   3.323
 9019TIP3    H126998   8.203   6.006   3.250
 9019TIP3    H226999   8.132   6.104   3.341
 9020TIP3   OH227000   4.203   0.903   2.352
 9020TIP3    H127001   4.126   0.847   2.347
 9020TIP3    H227002   4.263   0.867   2.287
 9021TIP3   OH227003   3.002   4.077   2.646
 9021TIP3    H127004   3.021   4.039   2.560
 9021TIP3    H227005   2.996   4.171   2.630
 9022TIP3   OH227006   8.163   3.428   0.370
 9022TIP3    H127007   8.126   3.516   0.365
 9022TIP3    H227008   8.086   3.370   0.367
 9023TIP3   OH227009   2.951   0.980   5.037
 9023TIP3    H127010   2.905   0.900   5.012
 9023TIP3    H227011   2.886   1.049   5.026
 9024TIP3   OH227012   4.221   2.645   0.215
 9024TIP3    H127013   4.285   2.578   0.193
 9024TIP3    H227014   4.268   2.728   0.203
 9025TIP3   OH227015   2.064   7.655   0.039
 9025TIP3    H127016   2.115   7.680   0.117
 9025TIP3    H227017   2.016   7.577   0.066
 9026TIP3   OH227018   1.560   7.212   4.626
 9026TIP3    H127019   1.609   7.164   4.559
 9026TIP3    H227020   1.617   7.211   4.703
 9027TIP3   OH227021   5.882   2.158   2.481
 9027TIP3    H127022   5.927   2.224   2.534
 9027TIP3    H227023   5.795   2.194   2.465
 9028TIP3   OH227024   6.282   2.019   0.428
 9028TIP3    H127025   6.235   2.051   0.505
 9028TIP3    H227026   6.371   2.053   0.439
 9029TIP3   OH227027   0.406   2.371   5.079
 9029TIP3    H127028   0.444   2.445   5.125
 9029TIP3    H227029   0.315   2.396   5.065
 9030TIP3   OH227030   6.150   6.002   6.062
 9030TIP3    H127031   6.202   6.069   6.107
 9030TIP3    H227032   6.124   5.941   6.131
 9031TIP3   OH227033   8.256   0.261   1.116
 9031TIP3    H127034   8.208   0.188   1.154
 9031TIP3    H227035   8.341   0.259   1.159
 9032TIP3   OH227036   4.125   7.584   1.512
 9032TIP3    H127037   4.190   7.517   1.534
 9032TIP3    H227038   4.043   7.535   1.500
 9033TIP3   OH227039   7.847   3.424   3.489
 9033TIP3    H127040   7.838   3.481   3.412
 9033TIP3    H227041   7.778   3.358   3.478
 9034TIP3   OH227042   3.523   1.569   1.702
 9034TIP3    H127043   3.448   1.623   1.679
 9034TIP3    H227044   3.590   1.631   1.728
 9035TIP3   OH227045   6.778   2.079   1.770
 9035TIP3    H127046   6.824   2.002   1.802
 9035TIP3    H227047   6.691   2.073   1.809
 9036TIP3   OH227048   6.098  -0.017   2.969
 9036TIP3    H127049   6.056  -0.046   3.050
 9036TIP3    H227050   6.059   0.068   2.951
 9037TIP3   OH227051   1.053   1.328   2.210
 9037TIP3    H127052   1.105   1.347   2.288
 9037TIP3    H227053   0.984   1.269   2.240
 9038TIP3   OH227054   2.456   0.776   2.679
 9038TIP3    H127055   2.485   0.866   2.667
 9038TIP3    H227056   2.425   0.748   2.593
 9039TIP3   OH227057   3.501   7.313   4.316
 9039TIP3    H127058   3.488   7.385   4.254
 9039TIP3    H227059   3.594   7.293   4.310
 9040TIP3   OH227060   8.208   3.338   0.068
 9040TIP3    H127061   8.194   3.430   0.088
 9040TIP3    H227062   8.121   3.299   0.073
 9041TIP3   OH227063   4.363   4.448   3.709
 9041TIP3    H127064   4.389   4.357   3.723
 9041TIP3    H227065   4.304   4.445   3.634
 9042TIP3   OH227066   1.280   1.672   3.349
 9042TIP3    H127067   1.267   1.678   3.443
 9042TIP3    H227068   1.211   1.727   3.311
 9043TIP3   OH227069   6.043   3.697   5.987
 9043TIP3    H127070   6.130   3.704   5.948
 9043TIP3    H227071   6.059   3.658   6.073
 9044TIP3   OH227072   0.219   0.438   4.417
 9044TIP3    H127073   0.248   0.347   4.426
 9044TIP3    H227074   0.237   0.460   4.326
 9045TIP3   OH227075   7.535   5.444   3.110
 9045TIP3    H127076   7.622   5.417   3.078
 9045TIP3    H227077   7.551   5.477   3.198
 9046TIP3   OH227078   0.438   0.322   0.628
 9046TIP3    H127079   0.488   0.390   0.582
 9046TIP3    H227080   0.402   0.268   0.557
 9047TIP3   OH227081   2.769   2.587   5.068
 9047TIP3    H127082   2.820   2.559   5.144
 9047TIP3    H227083   2.790   2.523   5.000
 9048TIP3   OH227084   4.069   6.778   4.711
 9048TIP3    H127085   4.111   6.802   4.793
 9048TIP3    H227086   4.065   6.860   4.661
 9049TIP3   OH227087   1.834   0.184   0.573
 9049TIP3    H127088   1.847   0.278   0.571
 9049TIP3    H227089   1.921   0.147   0.560
 9050TIP3   OH227090   4.046   5.109   3.000
 9050TIP3    H127091   4.030   5.079   3.090
 9050TIP3    H227092   4.139   5.091   2.985
 9051TIP3   OH227093   5.006   3.412   0.237
 9051TIP3    H127094   4.912   3.400   0.255
 9051TIP3    H227095   5.041   3.324   0.230
 9052TIP3   OH227096   6.246   1.760  -0.007
 9052TIP3    H127097   6.184   1.816  -0.053
 9052TIP3    H227098   6.332   1.792  -0.036
 9053TIP3   OH227099   0.888   2.616   0.073
 9053TIP3    H127100   0.972   2.569   0.076
 9053TIP3    H227101   0.855   2.611   0.163
 9054TIP3   OH227102   3.506   1.346   2.129
 9054TIP3    H127103   3.600   1.332   2.115
 9054TIP3    H227104   3.491   1.319   2.220
 9055TIP3   OH227105   4.875   3.939   0.202
 9055TIP3    H127106   4.855   3.845   0.204
 9055TIP3    H227107   4.794   3.982   0.229
 9056TIP3   OH227108   6.394   3.889   3.670
 9056TIP3    H127109   6.345   3.910   3.750
 9056TIP3    H227110   6.453   3.819   3.696
 9057TIP3   OH227111   3.768   6.618   1.737
 9057TIP3    H127112   3.747   6.699   1.692
 9057TIP3    H227113   3.750   6.636   1.829
 9058TIP3   OH227114   4.034   3.569   1.157
 9058TIP3    H127115   3.951   3.566   1.204
 9058TIP3    H227116   4.055   3.663   1.152
 9059TIP3   OH227117   4.939   6.789   6.387
 9059TIP3    H127118   4.883   6.777   6.311
 9059TIP3    H227119   4.951   6.884   6.393
 9060TIP3   OH227120   6.488   6.403   4.498
 9060TIP3    H127121   6.496   6.459   4.576
 9060TIP3    H227122   6.429   6.333   4.526
 9061TIP3   OH227123   7.240   5.189   4.454
 9061TIP3    H127124   7.223   5.183   4.360
 9061TIP3    H227125   7.336   5.190   4.461
 9062TIP3   OH227126   0.450   2.836   4.550
 9062TIP3    H127127   0.369   2.885   4.559
 9062TIP3    H227128   0.474   2.812   4.640
 9063TIP3   OH227129   7.223   5.620   2.231
 9063TIP3    H127130   7.136   5.588   2.256
 9063TIP3    H227131   7.206   5.690   2.169
 9064TIP3   OH227132   7.557   5.624   3.314
 9064TIP3    H127133   7.595   5.569   3.383
 9064TIP3    H227134   7.566   5.713   3.347
 9065TIP3   OH227135   6.746   4.936   1.089
 9065TIP3    H127136   6.754   4.997   1.016
 9065TIP3    H227137   6.654   4.939   1.113
 9066TIP3   OH227138   2.259   1.546   0.027
 9066TIP3    H127139   2.279   1.560  -0.066
 9066TIP3    H227140   2.214   1.461   0.029
 9067TIP3   OH227141   5.492   6.296   2.422
 9067TIP3    H127142   5.470   6.388   2.406
 9067TIP3    H227143   5.408   6.250   2.418
 9068TIP3   OH227144   3.894   7.084   4.299
 9068TIP3    H127145   3.946   7.051   4.225
 9068TIP3    H227146   3.805   7.088   4.265
 9069TIP3   OH227147   2.346   0.408   0.042
 9069TIP3    H127148   2.266   0.367   0.073
 9069TIP3    H227149   2.347   0.393  -0.052
 9070TIP3   OH227150   0.175   1.815   1.017
 9070TIP3    H127151   0.144   1.900   0.988
 9070TIP3    H227152   0.263   1.807   0.981
 9071TIP3   OH227153   3.415   7.579   4.234
 9071TIP3    H127154   3.324   7.579   4.263
 9071TIP3    H227155   3.412   7.613   4.144
 9072TIP3   OH227156   4.269   1.293   1.960
 9072TIP3    H127157   4.268   1.262   1.870
 9072TIP3    H227158   4.193   1.252   2.001
 9073TIP3   OH227159   2.935   3.157   6.608
 9073TIP3    H127160   2.963   3.099   6.538
 9073TIP3    H227161   2.894   3.100   6.672
 9074TIP3   OH227162   5.070   2.566   3.491
 9074TIP3    H127163   5.006   2.496   3.483
 9074TIP3    H227164   5.154   2.525   3.470
 9075TIP3   OH227165   3.539   5.838   1.648
 9075TIP3    H127166   3.482   5.854   1.573
 9075TIP3    H227167   3.618   5.800   1.611
 9076TIP3   OH227168   7.606   1.397   6.659
 9076TIP3    H127169   7.597   1.447   6.578
 9076TIP3    H227170   7.700   1.382   6.667
 9077TIP3   OH227171   1.249   2.183   6.556
 9077TIP3    H127172   1.224   2.202   6.465
 9077TIP3    H227173   1.333   2.227   6.567
 9078TIP3   OH227174   6.488   3.435   6.102
 9078TIP3    H127175   6.419   3.394   6.154
 9078TIP3    H227176   6.545   3.477   6.167
 9079TIP3   OH227177   2.629   2.943   2.486
 9079TIP3    H127178   2.562   2.920   2.550
 9079TIP3    H227179   2.706   2.894   2.513
 9080TIP3   OH227180   3.970   3.765   0.124
 9080TIP3    H127181   3.944   3.676   0.102
 9080TIP3    H227182   3.977   3.765   0.220
 9081TIP3   OH227183   0.058   4.468   2.753
 9081TIP3    H127184  -0.032   4.459   2.721
 9081TIP3    H227185   0.053   4.446   2.846
 9082TIP3   OH227186   2.253   7.149   0.121
 9082TIP3    H127187   2.266   7.087   0.193
 9082TIP3    H227188   2.332   7.203   0.121
 9083TIP3   OH227189   2.640   5.856   3.601
 9083TIP3    H127190   2.594   5.833   3.682
 9083TIP3    H227191   2.573   5.895   3.545
 9084TIP3   OH227192   5.506   6.616   0.470
 9084TIP3    H127193   5.453   6.603   0.549
 9084TIP3    H227194   5.595   6.626   0.502
 9085TIP3   OH227195   0.631   7.149   4.990
 9085TIP3    H127196   0.541   7.162   5.021
 9085TIP3    H227197   0.654   7.232   4.948
 9086TIP3   OH227198   2.912   0.987   6.503
 9086TIP3    H127199   2.951   0.972   6.589
 9086TIP3    H227200   2.982   1.025   6.450
 9087TIP3   OH227201   0.976   5.393   4.946
 9087TIP3    H127202   1.039   5.361   4.883
 9087TIP3    H227203   0.922   5.455   4.897
 9088TIP3   OH227204   8.117   6.823   2.116
 9088TIP3    H127205   8.210   6.820   2.091
 9088TIP3    H227206   8.119   6.833   2.212
 9089TIP3   OH227207   6.531   5.106   6.544
 9089TIP3    H127208   6.523   5.200   6.528
 9089TIP3    H227209   6.512   5.097   6.638
 9090TIP3   OH227210   5.276   3.902   5.403
 9090TIP3    H127211   5.199   3.900   5.459
 9090TIP3    H227212   5.273   3.819   5.355
 9091TIP3   OH227213   1.383   6.492   3.291
 9091TIP3    H127214   1.407   6.583   3.307
 9091TIP3    H227215   1.458   6.455   3.244
 9092TIP3   OH227216   1.037   0.642   2.623
 9092TIP3    H127217   1.046   0.715   2.562
 9092TIP3    H227218   0.971   0.586   2.583
 9093TIP3   OH227219   4.252   3.534   0.539
 9093TIP3    H127220   4.184   3.597   0.515
 9093TIP3    H227221   4.333   3.584   0.533
 9094TIP3   OH227222   6.474   6.806   4.494
 9094TIP3    H127223   6.553   6.752   4.497
 9094TIP3    H227224   6.405   6.745   4.465
 9095TIP3   OH227225   4.146   0.938   1.923
 9095TIP3    H127226   4.141   1.017   1.977
 9095TIP3    H227227   4.133   0.969   1.834
 9096TIP3   OH227228   4.675   3.626   1.151
 9096TIP3    H127229   4.587   3.654   1.126
 9096TIP3    H227230   4.712   3.586   1.072
 9097TIP3   OH227231   5.092   4.043   3.284
 9097TIP3    H127232   5.021   4.059   3.347
 9097TIP3    H227233   5.145   3.974   3.323
 9098TIP3   OH227234   6.426   4.230   2.623
 9098TIP3    H127235   6.410   4.288   2.548
 9098TIP3    H227236   6.358   4.163   2.616
 9099TIP3   OH227237   3.034   6.489   4.000
 9099TIP3    H127238   2.968   6.554   3.975
 9099TIP3    H227239   3.007   6.460   4.088
 9100TIP3   OH227240   6.004   7.057   4.159
 9100TIP3    H127241   6.048   7.125   4.210
 9100TIP3    H227242   5.974   6.994   4.225
 9101TIP3   OH227243   1.990   5.001   4.360
 9101TIP3    H127244   2.082   5.011   4.385
 9101TIP3    H227245   1.949   5.083   4.389
 9102TIP3   OH227246   0.620   4.558   0.851
 9102TIP3    H127247   0.685   4.557   0.921
 9102TIP3    H227248   0.572   4.640   0.865
 9103TIP3   OH227249   5.482   4.152   2.023
 9103TIP3    H127250   5.574   4.142   2.045
 9103TIP3    H227251   5.482   4.172   1.929
 9104TIP3   OH227252   1.507   1.402   2.944
 9104TIP3    H127253   1.439   1.336   2.939
 9104TIP3    H227254   1.581   1.357   2.986
 9105TIP3   OH227255   3.325   4.242   6.268
 9105TIP3    H127256   3.375   4.179   6.216
 9105TIP3    H227257   3.245   4.196   6.291
 9106TIP3   OH227258   1.436   4.683   3.126
 9106TIP3    H127259   1.415   4.683   3.220
 9106TIP3    H227260   1.442   4.776   3.103
 9107TIP3   OH227261   1.441   3.903   2.974
 9107TIP3    H127262   1.367   3.842   2.979
 9107TIP3    H227263   1.403   3.985   2.944
 9108TIP3   OH227264   2.264   0.186   5.867
 9108TIP3    H127265   2.177   0.164   5.834
 9108TIP3    H227266   2.316   0.203   5.788
 9109TIP3   OH227267   0.859   2.321   1.099
 9109TIP3    H127268   0.830   2.351   1.013
 9109TIP3    H227269   0.907   2.395   1.136
 9110TIP3   OH227270   5.778   7.714   2.365
 9110TIP3    H127271   5.687   7.727   2.391
 9110TIP3    H227272   5.789   7.769   2.288
 9111TIP3   OH227273   0.645   3.604   0.126
 9111TIP3    H127274   0.671   3.641   0.042
 9111TIP3    H227275   0.578   3.540   0.104
 9112TIP3   OH227276   1.425   7.299   5.235
 9112TIP3    H127277   1.442   7.392   5.246
 9112TIP3    H227278   1.512   7.259   5.228
 9113TIP3   OH227279   5.050   1.420   2.052
 9113TIP3    H127280   4.974   1.389   2.101
 9113TIP3    H227281   5.123   1.413   2.114
 9114TIP3   OH227282   6.306   2.638   5.422
 9114TIP3    H127283   6.306   2.659   5.329
 9114TIP3    H227284   6.397   2.647   5.449
 9115TIP3   OH227285   1.349   2.917   0.407
 9115TIP3    H127286   1.317   3.004   0.382
 9115TIP3    H227287   1.302   2.857   0.348
 9116TIP3   OH227288   4.182   3.090   0.963
 9116TIP3    H127289   4.121   3.164   0.952
 9116TIP3    H227290   4.206   3.066   0.874
 9117TIP3   OH227291   1.103   1.261   3.025
 9117TIP3    H127292   1.099   1.336   2.966
 9117TIP3    H227293   1.174   1.283   3.086
 9118TIP3   OH227294   0.531   7.845  -0.027
 9118TIP3    H127295   0.436   7.834  -0.035
 9118TIP3    H227296   0.541   7.932   0.012
 9119TIP3   OH227297   1.358   5.478   3.206
 9119TIP3    H127298   1.374   5.563   3.248
 9119TIP3    H227299   1.263   5.474   3.195
 9120TIP3   OH227300   2.048   2.715   2.912
 9120TIP3    H127301   2.019   2.629   2.942
 9120TIP3    H227302   2.041   2.710   2.817
 9121TIP3   OH227303   7.190   1.030   3.548
 9121TIP3    H127304   7.202   1.017   3.454
 9121TIP3    H227305   7.114   0.976   3.570
 9122TIP3   OH227306   0.222   5.115   6.354
 9122TIP3    H127307   0.297   5.061   6.328
 9122TIP3    H227308   0.242   5.202   6.320
 9123TIP3   OH227309   4.052   4.403   4.314
 9123TIP3    H127310   3.984   4.458   4.275
 9123TIP3    H227311   4.133   4.451   4.299
 9124TIP3   OH227312   6.280   2.157   1.770
 9124TIP3    H127313   6.208   2.099   1.747
 9124TIP3    H227314   6.237   2.236   1.804
 9125TIP3   OH227315   3.356   4.659   0.638
 9125TIP3    H127316   3.442   4.667   0.678
 9125TIP3    H227317   3.367   4.593   0.570
 9126TIP3   OH227318   6.732   3.286   5.329
 9126TIP3    H127319   6.653   3.326   5.291
 9126TIP3    H227320   6.771   3.237   5.257
 9127TIP3   OH227321   3.745   2.369   2.780
 9127TIP3    H127322   3.808   2.327   2.838
 9127TIP3    H227323   3.667   2.384   2.835
 9128TIP3   OH227324   5.219   2.641   6.822
 9128TIP3    H127325   5.259   2.598   6.897
 9128TIP3    H227326   5.290   2.651   6.759
 9129TIP3   OH227327   2.184   1.901   0.824
 9129TIP3    H127328   2.143   1.919   0.908
 9129TIP3    H227329   2.145   1.819   0.795
 9130TIP3   OH227330   2.451   3.024   1.823
 9130TIP3    H127331   2.505   3.079   1.766
 9130TIP3    H227332   2.433   3.079   1.899
 9131TIP3   OH227333   3.212   6.374   3.785
 9131TIP3    H127334   3.282   6.440   3.788
 9131TIP3    H227335   3.139   6.415   3.832
 9132TIP3   OH227336   1.503   5.583   4.039
 9132TIP3    H127337   1.412   5.608   4.060
 9132TIP3    H227338   1.550   5.595   4.121
 9133TIP3   OH227339   8.301   6.293   1.105
 9133TIP3    H127340   8.308   6.211   1.155
 9133TIP3    H227341   8.243   6.271   1.032
 9134TIP3   OH227342   2.897   1.871   0.932
 9134TIP3    H127343   2.893   1.836   0.843
 9134TIP3    H227344   2.957   1.813   0.979
 9135TIP3   OH227345   4.356   5.988   3.377
 9135TIP3    H127346   4.349   5.893   3.386
 9135TIP3    H227347   4.409   6.001   3.298
 9136TIP3   OH227348   7.478   0.428   0.960
 9136TIP3    H127349   7.552   0.367   0.955
 9136TIP3    H227350   7.504   0.502   0.905
 9137TIP3   OH227351   4.437   0.388   3.781
 9137TIP3    H127352   4.411   0.297   3.796
 9137TIP3    H227353   4.509   0.383   3.718
 9138TIP3   OH227354   2.892   0.037   5.362
 9138TIP3    H127355   2.857   0.081   5.439
 9138TIP3    H227356   2.987   0.046   5.370
 9139TIP3   OH227357   3.801   3.184   6.246
 9139TIP3    H127358   3.788   3.111   6.307
 9139TIP3    H227359   3.716   3.226   6.240
 9140TIP3   OH227360   0.441   4.871   5.817
 9140TIP3    H127361   0.414   4.908   5.901
 9140TIP3    H227362   0.533   4.848   5.830
 9141TIP3   OH227363   7.009   5.199   3.969
 9141TIP3    H127364   7.075   5.164   3.910
 9141TIP3    H227365   6.987   5.285   3.931
 9142TIP3   OH227366   8.147   1.168   0.733
 9142TIP3    H127367   8.073   1.206   0.686
 9142TIP3    H227368   8.162   1.228   0.806
 9143TIP3   OH227369   4.717   6.438   1.692
 9143TIP3    H127370   4.639   6.493   1.691
 9143TIP3    H227371   4.725   6.408   1.602
 9144TIP3   OH227372   1.411   2.590   5.424
 9144TIP3    H127373   1.460   2.512   5.399
 9144TIP3    H227374   1.429   2.601   5.517
 9145TIP3   OH227375   1.716   1.754   6.352
 9145TIP3    H127376   1.793   1.729   6.404
 9145TIP3    H227377   1.654   1.683   6.366
 9146TIP3   OH227378   0.535   0.226   0.287
 9146TIP3    H127379   0.532   0.303   0.343
 9146TIP3    H227380   0.456   0.232   0.233
 9147TIP3   OH227381   0.150   3.513   2.353
 9147TIP3    H127382   0.072   3.461   2.337
 9147TIP3    H227383   0.203   3.460   2.413
 9148TIP3   OH227384   1.387   5.276   3.413
 9148TIP3    H127385   1.377   5.317   3.328
 9148TIP3    H227386   1.311   5.219   3.422
 9149TIP3   OH227387   4.838   0.247   3.560
 9149TIP3    H127388   4.752   0.288   3.559
 9149TIP3    H227389   4.882   0.281   3.482
 9150TIP3   OH227390   6.154   7.330   4.951
 9150TIP3    H127391   6.243   7.295   4.954
 9150TIP3    H227392   6.166   7.424   4.944
 9151TIP3   OH227393   1.752   3.415   3.301
 9151TIP3    H127394   1.726   3.492   3.251
 9151TIP3    H227395   1.761   3.346   3.235
 9152TIP3   OH227396   4.085   5.763   5.237
 9152TIP3    H127397   4.142   5.761   5.314
 9152TIP3    H227398   3.997   5.760   5.272
 9153TIP3   OH227399   0.287   1.066   3.461
 9153TIP3    H127400   0.297   0.992   3.401
 9153TIP3    H227401   0.356   1.127   3.436
 9154TIP3   OH227402   2.022   5.588   1.719
 9154TIP3    H127403   2.080   5.625   1.785
 9154TIP3    H227404   1.992   5.505   1.756
 9155TIP3   OH227405   3.610   0.557   6.474
 9155TIP3    H127406   3.537   0.510   6.435
 9155TIP3    H227407   3.585   0.649   6.468
 9156TIP3   OH227408   5.716   3.833   2.926
 9156TIP3    H127409   5.746   3.919   2.895
 9156TIP3    H227410   5.791   3.775   2.913
 9157TIP3   OH227411   1.575   1.980   0.820
 9157TIP3    H127412   1.575   1.897   0.868
 9157TIP3    H227413   1.636   1.966   0.748
 9158TIP3   OH227414   0.040   1.726   4.120
 9158TIP3    H127415  -0.015   1.655   4.086
 9158TIP3    H227416   0.121   1.682   4.147
 9159TIP3   OH227417   2.483   5.078   5.125
 9159TIP3    H127418   2.484   4.994   5.079
 9159TIP3    H227419   2.396   5.082   5.165
 9160TIP3   OH227420   1.653   7.505   5.428
 9160TIP3    H127421   1.614   7.519   5.342
 9160TIP3    H227422   1.748   7.503   5.411
 9161TIP3   OH227423   0.049   2.552   2.674
 9161TIP3    H127424   0.076   2.591   2.757
 9161TIP3    H227425  -0.045   2.566   2.669
 9162TIP3   OH227426   2.193   1.158   0.683
 9162TIP3    H127427   2.213   1.125   0.595
 9162TIP3    H227428   2.130   1.095   0.718
 9163TIP3   OH227429   3.498   3.037   3.190
 9163TIP3    H127430   3.467   3.112   3.241
 9163TIP3    H227431   3.492   2.963   3.250
 9164TIP3   OH227432   5.444   0.870   0.304
 9164TIP3    H127433   5.468   0.822   0.383
 9164TIP3    H227434   5.483   0.821   0.232
 9165TIP3   OH227435   0.411   4.416   5.507
 9165TIP3    H127436   0.441   4.392   5.420
 9165TIP3    H227437   0.402   4.333   5.553
 9166TIP3   OH227438   1.901   1.605   4.582
 9166TIP3    H127439   1.832   1.664   4.553
 9166TIP3    H227440   1.863   1.556   4.654
 9167TIP3   OH227441   1.723   0.562   3.758
 9167TIP3    H127442   1.719   0.529   3.848
 9167TIP3    H227443   1.752   0.653   3.767
 9168TIP3   OH227444   5.572   1.552   5.857
 9168TIP3    H127445   5.517   1.630   5.860
 9168TIP3    H227446   5.661   1.585   5.870
 9169TIP3   OH227447   4.646   1.316   5.905
 9169TIP3    H127448   4.561   1.277   5.881
 9169TIP3    H227449   4.660   1.290   5.996
 9170TIP3   OH227450   7.117   4.956   4.566
 9170TIP3    H127451   7.145   5.028   4.510
 9170TIP3    H227452   7.181   4.954   4.637
 9171TIP3   OH227453   4.979   3.753   4.992
 9171TIP3    H127454   4.976   3.661   5.020
 9171TIP3    H227455   5.003   3.748   4.899
 9172TIP3   OH227456   2.929   2.067   4.846
 9172TIP3    H127457   2.919   1.996   4.782
 9172TIP3    H227458   2.993   2.033   4.909
 9173TIP3   OH227459   0.608   1.469   1.321
 9173TIP3    H127460   0.538   1.528   1.350
 9173TIP3    H227461   0.613   1.402   1.390
 9174TIP3   OH227462   5.848   5.829   3.589
 9174TIP3    H127463   5.840   5.744   3.547
 9174TIP3    H227464   5.805   5.890   3.529
 9175TIP3   OH227465   0.658   5.449   1.259
 9175TIP3    H127466   0.699   5.438   1.345
 9175TIP3    H227467   0.577   5.398   1.264
 9176TIP3   OH227468   0.303   2.679   6.349
 9176TIP3    H127469   0.389   2.649   6.320
 9176TIP3    H227470   0.322   2.738   6.423
 9177TIP3   OH227471   3.196   2.974   4.608
 9177TIP3    H127472   3.114   3.013   4.640
 9177TIP3    H227473   3.239   2.940   4.687
 9178TIP3   OH227474   5.793   4.533   4.077
 9178TIP3    H127475   5.736   4.456   4.066
 9178TIP3    H227476   5.792   4.576   3.992
 9179TIP3   OH227477   5.805   4.036   5.775
 9179TIP3    H127478   5.854   4.057   5.854
 9179TIP3    H227479   5.865   3.982   5.723
 9180TIP3   OH227480   3.962   1.240   4.913
 9180TIP3    H127481   3.889   1.194   4.954
 9180TIP3    H227482   4.002   1.176   4.855
 9181TIP3   OH227483   6.670   4.519   3.683
 9181TIP3    H127484   6.575   4.521   3.674
 9181TIP3    H227485   6.691   4.597   3.735
 9182TIP3   OH227486   0.721   6.072   4.442
 9182TIP3    H127487   0.667   6.119   4.506
 9182TIP3    H227488   0.702   6.115   4.359
 9183TIP3   OH227489   7.675   1.220   5.666
 9183TIP3    H127490   7.633   1.141   5.702
 9183TIP3    H227491   7.602   1.276   5.642
 9184TIP3   OH227492   0.031   0.816   0.896
 9184TIP3    H127493   0.086   0.865   0.836
 9184TIP3    H227494  -0.054   0.860   0.894
 9185TIP3   OH227495   1.255   7.340   2.729
 9185TIP3    H127496   1.286   7.371   2.644
 9185TIP3    H227497   1.313   7.266   2.749
 9186TIP3   OH227498   5.356   2.644   1.221
 9186TIP3    H127499   5.435   2.696   1.209
 9186TIP3    H227500   5.284   2.707   1.217
 9187TIP3   OH227501   4.145   4.551   6.591
 9187TIP3    H127502   4.105   4.464   6.592
 9187TIP3    H227503   4.231   4.538   6.550
 9188TIP3   OH227504   2.255   6.147   6.682
 9188TIP3    H127505   2.244   6.064   6.729
 9188TIP3    H227506   2.292   6.122   6.597
 9189TIP3   OH227507   5.405   5.720   1.345
 9189TIP3    H127508   5.448   5.783   1.402
 9189TIP3    H227509   5.453   5.725   1.263
 9190TIP3   OH227510   8.239   3.574   0.651
 9190TIP3    H127511   8.321   3.577   0.700
 9190TIP3    H227512   8.252   3.503   0.588
 9191TIP3   OH227513   6.688   2.904   4.177
 9191TIP3    H127514   6.721   2.954   4.103
 9191TIP3    H227515   6.622   2.960   4.217
 9192TIP3   OH227516   4.781   1.366   5.399
 9192TIP3    H127517   4.722   1.402   5.332
 9192TIP3    H227518   4.867   1.363   5.356
 9193TIP3   OH227519   6.802   0.366   1.802
 9193TIP3    H127520   6.845   0.280   1.797
 9193TIP3    H227521   6.807   0.390   1.895
 9194TIP3   OH227522   6.068   2.859   5.308
 9194TIP3    H127523   6.156   2.892   5.327
 9194TIP3    H227524   6.063   2.859   5.212
 9195TIP3   OH227525   6.441   1.405   5.016
 9195TIP3    H127526   6.427   1.357   5.098
 9195TIP3    H227527   6.363   1.385   4.964
 9196TIP3   OH227528   3.175   6.647   3.042
 9196TIP3    H127529   3.122   6.571   3.069
 9196TIP3    H227530   3.111   6.717   3.032
 9197TIP3   OH227531   3.465   7.391   1.959
 9197TIP3    H127532   3.391   7.378   1.899
 9197TIP3    H227533   3.426   7.434   2.035
 9198TIP3   OH227534   6.196   3.924   4.409
 9198TIP3    H127535   6.182   3.831   4.429
 9198TIP3    H227536   6.246   3.956   4.484
 9199TIP3   OH227537   2.669   0.581   3.075
 9199TIP3    H127538   2.694   0.516   3.141
 9199TIP3    H227539   2.573   0.579   3.074
 9200TIP3   OH227540   2.731   5.053   5.444
 9200TIP3    H127541   2.772   5.123   5.495
 9200TIP3    H227542   2.721   5.090   5.356
 9201TIP3   OH227543   0.233   5.120   4.531
 9201TIP3    H127544   0.307   5.103   4.590
 9201TIP3    H227545   0.234   5.215   4.518
 9202TIP3   OH227546   3.757   1.950   2.822
 9202TIP3    H127547   3.671   1.957   2.863
 9202TIP3    H227548   3.815   2.000   2.879
 9203TIP3   OH227549   7.135   5.409   6.638
 9203TIP3    H127550   7.202   5.341   6.645
 9203TIP3    H227551   7.052   5.360   6.639
 9204TIP3   OH227552   5.709   2.897   6.886
 9204TIP3    H127553   5.625   2.899   6.840
 9204TIP3    H227554   5.758   2.826   6.844
 9205TIP3   OH227555   1.260   0.339   0.699
 9205TIP3    H127556   1.327   0.397   0.663
 9205TIP3    H227557   1.303   0.253   0.704
 9206TIP3   OH227558   1.388   4.142   6.654
 9206TIP3    H127559   1.481   4.123   6.662
 9206TIP3    H227560   1.377   4.168   6.562
 9207TIP3   OH227561   4.321   1.771   6.863
 9207TIP3    H127562   4.401   1.782   6.810
 9207TIP3    H227563   4.273   1.701   6.819
 9208TIP3   OH227564   0.396   5.137   0.820
 9208TIP3    H127565   0.348   5.141   0.903
 9208TIP3    H227566   0.468   5.076   0.838
 9209TIP3   OH227567   0.784   4.181   1.494
 9209TIP3    H127568   0.693   4.208   1.504
 9209TIP3    H227569   0.782   4.114   1.426
 9210TIP3   OH227570   5.169   5.337   5.552
 9210TIP3    H127571   5.188   5.324   5.459
 9210TIP3    H227572   5.076   5.359   5.555
 9211TIP3   OH227573   7.830   4.797   2.968
 9211TIP3    H127574   7.744   4.764   2.943
 9211TIP3    H227575   7.863   4.732   3.031
 9212TIP3   OH227576   0.788   6.191   3.564
 9212TIP3    H127577   0.851   6.144   3.509
 9212TIP3    H227578   0.774   6.132   3.639
 9213TIP3   OH227579   1.954   7.589   1.521
 9213TIP3    H127580   1.990   7.583   1.432
 9213TIP3    H227581   1.906   7.672   1.521
 9214TIP3   OH227582   7.906   3.343   0.367
 9214TIP3    H127583   7.849   3.287   0.315
 9214TIP3    H227584   7.896   3.310   0.457
 9215TIP3   OH227585   5.456   3.187   0.287
 9215TIP3    H127586   5.461   3.226   0.374
 9215TIP3    H227587   5.457   3.093   0.303
 9216TIP3   OH227588   1.017   7.232   0.586
 9216TIP3    H127589   0.987   7.227   0.495
 9216TIP3    H227590   1.008   7.143   0.620
 9217TIP3   OH227591   4.334   3.976   1.997
 9217TIP3    H127592   4.250   4.021   2.008
 9217TIP3    H227593   4.311   3.887   1.972
 9218TIP3   OH227594   1.075   1.554   3.926
 9218TIP3    H127595   1.050   1.501   4.001
 9218TIP3    H227596   1.110   1.635   3.963
 9219TIP3   OH227597   4.142   1.438   4.940
 9219TIP3    H127598   4.090   1.358   4.943
 9219TIP3    H227599   4.097   1.494   4.877
 9220TIP3   OH227600   4.745   2.704   5.249
 9220TIP3    H127601   4.763   2.769   5.316
 9220TIP3    H227602   4.830   2.684   5.210
 9221TIP3   OH227603   3.511   1.104   4.948
 9221TIP3    H127604   3.468   1.163   4.886
 9221TIP3    H227605   3.510   1.019   4.904
 9222TIP3   OH227606   7.491   6.928   5.138
 9222TIP3    H127607   7.580   6.911   5.108
 9222TIP3    H227608   7.495   7.017   5.173
 9223TIP3   OH227609   8.056   5.882   0.458
 9223TIP3    H127610   8.150   5.900   0.447
 9223TIP3    H227611   8.034   5.923   0.541
 9224TIP3   OH227612   1.141   6.015   3.365
 9224TIP3    H127613   1.090   6.070   3.306
 9224TIP3    H227614   1.087   6.007   3.444
 9225TIP3   OH227615   1.198   5.714   2.499
 9225TIP3    H127616   1.240   5.728   2.583
 9225TIP3    H227617   1.197   5.800   2.458
 9226TIP3   OH227618   6.792   0.099   3.268
 9226TIP3    H127619   6.824   0.133   3.185
 9226TIP3    H227620   6.842   0.147   3.335
 9227TIP3   OH227621   1.538   6.997   1.712
 9227TIP3    H127622   1.457   6.975   1.758
 9227TIP3    H227623   1.568   6.914   1.676
 9228TIP3   OH227624   2.377   5.459   0.601
 9228TIP3    H127625   2.343   5.491   0.518
 9228TIP3    H227626   2.472   5.466   0.593
 9229TIP3   OH227627   8.330   1.380   0.463
 9229TIP3    H127628   8.368   1.360   0.549
 9229TIP3    H227629   8.237   1.364   0.473
 9230TIP3   OH227630   6.551   6.658   2.408
 9230TIP3    H127631   6.557   6.752   2.394
 9230TIP3    H227632   6.517   6.649   2.497
 9231TIP3   OH227633   8.011   3.840   4.709
 9231TIP3    H127634   7.976   3.898   4.641
 9231TIP3    H227635   8.025   3.898   4.784
 9232TIP3   OH227636   0.411   1.437   4.482
 9232TIP3    H127637   0.362   1.514   4.509
 9232TIP3    H227638   0.384   1.368   4.543
 9233TIP3   OH227639   2.457   6.177   3.733
 9233TIP3    H127640   2.374   6.221   3.751
 9233TIP3    H227641   2.443   6.135   3.648
 9234TIP3   OH227642   8.276   4.798   5.071
 9234TIP3    H127643   8.188   4.817   5.104
 9234TIP3    H227644   8.263   4.774   4.980
 9235TIP3   OH227645   3.134   3.329   6.104
 9235TIP3    H127646   3.171   3.244   6.079
 9235TIP3    H227647   3.055   3.337   6.050
 9236TIP3   OH227648   4.174   0.231   5.768
 9236TIP3    H127649   4.179   0.192   5.681
 9236TIP3    H227650   4.093   0.195   5.806
 9237TIP3   OH227651   0.187   5.527   2.988
 9237TIP3    H127652   0.240   5.514   2.909
 9237TIP3    H227653   0.147   5.613   2.976
 9238TIP3   OH227654   0.844   7.611   4.095
 9238TIP3    H127655   0.756   7.576   4.108
 9238TIP3    H227656   0.874   7.571   4.014
 9239TIP3   OH227657   1.877   0.193   2.264
 9239TIP3    H127658   1.859   0.195   2.358
 9239TIP3    H227659   1.796   0.162   2.225
 9240TIP3   OH227660   5.199   6.107   6.681
 9240TIP3    H127661   5.110   6.138   6.668
 9240TIP3    H227662   5.245   6.181   6.721
 9241TIP3   OH227663   5.525   6.605   3.200
 9241TIP3    H127664   5.534   6.522   3.246
 9241TIP3    H227665   5.438   6.637   3.224
 9242TIP3   OH227666   3.300   5.872   0.545
 9242TIP3    H127667   3.340   5.903   0.464
 9242TIP3    H227668   3.226   5.932   0.560
 9243TIP3   OH227669   1.979   3.495   5.833
 9243TIP3    H127670   1.976   3.418   5.890
 9243TIP3    H227671   2.004   3.460   5.748
 9244TIP3   OH227672   6.109   0.994   2.786
 9244TIP3    H127673   6.048   0.927   2.755
 9244TIP3    H227674   6.184   0.988   2.726
 9245TIP3   OH227675   7.461   5.109   5.347
 9245TIP3    H127676   7.374   5.092   5.309
 9245TIP3    H227677   7.448   5.094   5.441
 9246TIP3   OH227678   1.818   0.011   3.904
 9246TIP3    H127679   1.749  -0.017   3.965
 9246TIP3    H227680   1.802   0.104   3.891
 9247TIP3   OH227681   2.315   0.801   3.901
 9247TIP3    H127682   2.256   0.860   3.949
 9247TIP3    H227683   2.383   0.779   3.964
 9248TIP3   OH227684   5.235   0.556   0.916
 9248TIP3    H127685   5.157   0.578   0.967
 9248TIP3    H227686   5.303   0.613   0.951
 9249TIP3   OH227687   1.961   7.308   2.606
 9249TIP3    H127688   1.919   7.351   2.532
 9249TIP3    H227689   1.897   7.315   2.677
 9250TIP3   OH227690   4.387   4.289   6.620
 9250TIP3    H127691   4.432   4.304   6.537
 9250TIP3    H227692   4.301   4.256   6.596
 9251TIP3   OH227693   6.867   3.764   0.178
 9251TIP3    H127694   6.943   3.727   0.223
 9251TIP3    H227695   6.862   3.715   0.096
 9252TIP3   OH227696   3.458   5.060   4.548
 9252TIP3    H127697   3.469   5.041   4.455
 9252TIP3    H227698   3.516   4.998   4.593
 9253TIP3   OH227699   1.279   5.125   5.119
 9253TIP3    H127700   1.301   5.051   5.175
 9253TIP3    H227701   1.185   5.116   5.103
 9254TIP3   OH227702   0.429   6.494   0.289
 9254TIP3    H127703   0.453   6.412   0.246
 9254TIP3    H227704   0.334   6.489   0.300
 9255TIP3   OH227705   0.284   1.683   4.467
 9255TIP3    H127706   0.327   1.707   4.386
 9255TIP3    H227707   0.192   1.708   4.455
 9256TIP3   OH227708   2.610   3.186   4.387
 9256TIP3    H127709   2.684   3.246   4.394
 9256TIP3    H227710   2.645   3.101   4.411
 9257TIP3   OH227711   3.950   3.711   0.748
 9257TIP3    H127712   3.989   3.634   0.789
 9257TIP3    H227713   3.946   3.776   0.818
 9258TIP3   OH227714   7.245   7.330   3.938
 9258TIP3    H127715   7.172   7.271   3.954
 9258TIP3    H227716   7.313   7.300   3.999
 9259TIP3   OH227717   1.617   0.288   4.887
 9259TIP3    H127718   1.659   0.202   4.888
 9259TIP3    H227719   1.678   0.343   4.837
 9260TIP3   OH227720   2.256   7.608   6.580
 9260TIP3    H127721   2.169   7.629   6.546
 9260TIP3    H227722   2.315   7.665   6.531
 9261TIP3   OH227723   6.119   6.552   3.477
 9261TIP3    H127724   6.041   6.508   3.444
 9261TIP3    H227725   6.089   6.599   3.555
 9262TIP3   OH227726   2.440   1.180   1.048
 9262TIP3    H127727   2.428   1.211   0.958
 9262TIP3    H227728   2.435   1.259   1.101
 9263TIP3   OH227729   2.440   4.826   1.854
 9263TIP3    H127730   2.524   4.786   1.829
 9263TIP3    H227731   2.390   4.754   1.894
 9264TIP3   OH227732   5.551   4.189   4.627
 9264TIP3    H127733   5.472   4.153   4.667
 9264TIP3    H227734   5.623   4.148   4.675
 9265TIP3   OH227735   4.685   6.782   4.360
 9265TIP3    H127736   4.676   6.849   4.293
 9265TIP3    H227737   4.606   6.790   4.413
 9266TIP3   OH227738   7.802   2.571   3.065
 9266TIP3    H127739   7.721   2.556   3.017
 9266TIP3    H227740   7.860   2.614   3.002
 9267TIP3   OH227741   0.204   1.687   1.262
 9267TIP3    H127742   0.116   1.690   1.298
 9267TIP3    H227743   0.200   1.741   1.183
 9268TIP3   OH227744   4.738   1.034   5.850
 9268TIP3    H127745   4.736   1.116   5.801
 9268TIP3    H227746   4.822   1.037   5.897
 9269TIP3   OH227747   3.840   6.749   3.430
 9269TIP3    H127748   3.809   6.838   3.446
 9269TIP3    H227749   3.934   6.752   3.451
 9270TIP3   OH227750   6.656   0.832   0.553
 9270TIP3    H127751   6.620   0.805   0.468
 9270TIP3    H227752   6.589   0.809   0.617
 9271TIP3   OH227753   5.638   4.831   3.228
 9271TIP3    H127754   5.546   4.803   3.234
 9271TIP3    H227755   5.682   4.760   3.182
 9272TIP3   OH227756   5.311   0.173   4.327
 9272TIP3    H127757   5.230   0.189   4.376
 9272TIP3    H227758   5.314   0.077   4.316
 9273TIP3   OH227759   3.736   1.781   4.868
 9273TIP3    H127760   3.704   1.869   4.849
 9273TIP3    H227761   3.665   1.739   4.916
 9274TIP3   OH227762   7.927   5.767   2.019
 9274TIP3    H127763   7.866   5.697   1.993
 9274TIP3    H227764   7.882   5.848   1.995
 9275TIP3   OH227765   5.545   0.415   5.276
 9275TIP3    H127766   5.518   0.416   5.184
 9275TIP3    H227767   5.501   0.339   5.314
 9276TIP3   OH227768   1.654   4.105   2.667
 9276TIP3    H127769   1.731   4.147   2.630
 9276TIP3    H227770   1.588   4.112   2.598
 9277TIP3   OH227771   3.719   2.663   3.730
 9277TIP3    H127772   3.807   2.639   3.759
 9277TIP3    H227773   3.690   2.590   3.676
 9278TIP3   OH227774   1.127   0.645   1.584
 9278TIP3    H127775   1.219   0.630   1.561
 9278TIP3    H227776   1.114   0.739   1.576
 9279TIP3   OH227777   1.629   7.530   3.817
 9279TIP3    H127778   1.549   7.543   3.868
 9279TIP3    H227779   1.651   7.438   3.829
 9280TIP3   OH227780   2.480   7.826   4.306
 9280TIP3    H127781   2.557   7.776   4.332
 9280TIP3    H227782   2.430   7.765   4.251
 9281TIP3   OH227783   5.520   0.851   1.559
 9281TIP3    H127784   5.466   0.928   1.578
 9281TIP3    H227785   5.609   0.877   1.586
 9282TIP3   OH227786   3.479   0.768   0.229
 9282TIP3    H127787   3.480   0.860   0.252
 9282TIP3    H227788   3.456   0.722   0.310
 9283TIP3   OH227789   7.469   5.808   5.839
 9283TIP3    H127790   7.492   5.796   5.931
 9283TIP3    H227791   7.428   5.894   5.835
 9284TIP3   OH227792   1.776   5.673   1.505
 9284TIP3    H127793   1.851   5.614   1.513
 9284TIP3    H227794   1.771   5.717   1.589
 9285TIP3   OH227795   5.198   2.608   4.599
 9285TIP3    H127796   5.224   2.694   4.632
 9285TIP3    H227797   5.114   2.590   4.642
 9286TIP3   OH227798   2.726   5.349   5.463
 9286TIP3    H127799   2.796   5.327   5.402
 9286TIP3    H227800   2.761   5.423   5.514
 9287TIP3   OH227801   0.955   6.996   1.225
 9287TIP3    H127802   0.899   7.043   1.164
 9287TIP3    H227803   0.942   7.040   1.309
 9288TIP3   OH227804   5.972   2.052   2.749
 9288TIP3    H127805   5.878   2.039   2.739
 9288TIP3    H227806   6.004   2.070   2.661
 9289TIP3   OH227807   0.977   5.568   1.285
 9289TIP3    H127808   0.923   5.584   1.208
 9289TIP3    H227809   0.915   5.564   1.358
 9290TIP3   OH227810   0.940   6.376   1.337
 9290TIP3    H127811   0.865   6.341   1.288
 9290TIP3    H227812   0.976   6.299   1.382
 9291TIP3   OH227813   5.289   5.011   0.251
 9291TIP3    H127814   5.383   4.992   0.257
 9291TIP3    H227815   5.285   5.106   0.246
 9292TIP3   OH227816   4.547   0.111   2.693
 9292TIP3    H127817   4.466   0.144   2.654
 9292TIP3    H227818   4.584   0.054   2.626
 9293TIP3   OH227819   2.356   0.289   4.081
 9293TIP3    H127820   2.362   0.287   4.177
 9293TIP3    H227821   2.328   0.200   4.057
 9294TIP3   OH227822   0.708   1.366   2.569
 9294TIP3    H127823   0.678   1.444   2.615
 9294TIP3    H227824   0.801   1.380   2.555
 9295TIP3   OH227825   8.236   7.428   3.068
 9295TIP3    H127826   8.264   7.341   3.095
 9295TIP3    H227827   8.182   7.459   3.140
 9296TIP3   OH227828   5.090   6.468   2.316
 9296TIP3    H127829   5.134   6.384   2.327
 9296TIP3    H227830   5.002   6.446   2.287
 9297TIP3   OH227831   1.695   7.074   0.439
 9297TIP3    H127832   1.740   7.030   0.367
 9297TIP3    H227833   1.605   7.087   0.408
 9298TIP3   OH227834   5.640   6.145   3.651
 9298TIP3    H127835   5.603   6.133   3.738
 9298TIP3    H227836   5.570   6.121   3.590
 9299TIP3   OH227837   1.543   2.913   6.548
 9299TIP3    H127838   1.530   2.901   6.642
 9299TIP3    H227839   1.461   2.884   6.508
 9300TIP3   OH227840   3.749   0.444   0.964
 9300TIP3    H127841   3.712   0.493   0.890
 9300TIP3    H227842   3.832   0.409   0.930
 9301TIP3   OH227843   8.055   2.284   2.606
 9301TIP3    H127844   8.057   2.190   2.588
 9301TIP3    H227845   7.993   2.319   2.542
 9302TIP3   OH227846   7.658   4.710   2.370
 9302TIP3    H127847   7.732   4.764   2.342
 9302TIP3    H227848   7.582   4.748   2.325
 9303TIP3   OH227849   8.287   4.126   6.371
 9303TIP3    H127850   8.194   4.106   6.362
 9303TIP3    H227851   8.315   4.154   6.284
 9304TIP3   OH227852   2.621   6.695   4.092
 9304TIP3    H127853   2.684   6.662   4.028
 9304TIP3    H227854   2.556   6.626   4.099
 9305TIP3   OH227855   5.803   1.198   5.038
 9305TIP3    H127856   5.859   1.199   5.116
 9305TIP3    H227857   5.842   1.133   4.980
 9306TIP3   OH227858   0.523   7.555   5.176
 9306TIP3    H127859   0.486   7.545   5.264
 9306TIP3    H227860   0.478   7.488   5.124
 9307TIP3   OH227861   1.189   7.139   0.989
 9307TIP3    H127862   1.246   7.068   0.962
 9307TIP3    H227863   1.228   7.217   0.950
 9308TIP3   OH227864   0.571   2.647   6.721
 9308TIP3    H127865   0.539   2.581   6.782
 9308TIP3    H227866   0.509   2.720   6.730
 9309TIP3   OH227867   0.488   4.986   1.597
 9309TIP3    H127868   0.563   4.926   1.599
 9309TIP3    H227869   0.465   4.998   1.689
 9310TIP3   OH227870   3.200   5.729   1.622
 9310TIP3    H127871   3.211   5.812   1.576
 9310TIP3    H227872   3.243   5.665   1.565
 9311TIP3   OH227873   7.744   3.430   4.140
 9311TIP3    H127874   7.746   3.342   4.102
 9311TIP3    H227875   7.768   3.416   4.232
 9312TIP3   OH227876   3.802   6.075   3.556
 9312TIP3    H127877   3.756   6.137   3.499
 9312TIP3    H227878   3.891   6.109   3.560
 9313TIP3   OH227879   8.111   6.841   6.527
 9313TIP3    H127880   8.159   6.788   6.463
 9313TIP3    H227881   8.057   6.899   6.474
 9314TIP3   OH227882   7.516   4.870   0.851
 9314TIP3    H127883   7.520   4.891   0.757
 9314TIP3    H227884   7.604   4.888   0.883
 9315TIP3   OH227885   3.417   2.007   0.414
 9315TIP3    H127886   3.344   2.069   0.415
 9315TIP3    H227887   3.495   2.062   0.402
 9316TIP3   OH227888   3.874   5.403   2.420
 9316TIP3    H127889   3.962   5.366   2.421
 9316TIP3    H227890   3.819   5.334   2.457
 9317TIP3   OH227891   1.300   0.626   3.359
 9317TIP3    H127892   1.266   0.713   3.339
 9317TIP3    H227893   1.305   0.581   3.275
 9318TIP3   OH227894   0.360   4.252   5.130
 9318TIP3    H127895   0.282   4.290   5.088
 9318TIP3    H227896   0.424   4.246   5.059
 9319TIP3   OH227897   1.701   6.997   3.805
 9319TIP3    H127898   1.787   6.968   3.774
 9319TIP3    H227899   1.646   6.919   3.797
 9320TIP3   OH227900   0.819   1.750   2.585
 9320TIP3    H127901   0.891   1.689   2.570
 9320TIP3    H227902   0.859   1.826   2.627
 9321TIP3   OH227903   6.458   1.336   5.522
 9321TIP3    H127904   6.552   1.321   5.537
 9321TIP3    H227905   6.421   1.249   5.513
 9322TIP3   OH227906   1.290   1.298   5.646
 9322TIP3    H127907   1.222   1.233   5.627
 9322TIP3    H227908   1.245   1.364   5.700
 9323TIP3   OH227909   1.678   5.119   0.271
 9323TIP3    H127910   1.702   5.034   0.234
 9323TIP3    H227911   1.637   5.098   0.355
 9324TIP3   OH227912   3.728   1.915   0.170
 9324TIP3    H127913   3.728   2.007   0.142
 9324TIP3    H227914   3.770   1.915   0.256
 9325TIP3   OH227915   4.030   3.271   0.835
 9325TIP3    H127916   4.043   3.273   0.741
 9325TIP3    H227917   4.011   3.362   0.858
 9326TIP3   OH227918   4.761   6.743   6.191
 9326TIP3    H127919   4.675   6.721   6.156
 9326TIP3    H227920   4.787   6.821   6.143
 9327TIP3   OH227921   4.857   7.802   5.084
 9327TIP3    H127922   4.838   7.722   5.133
 9327TIP3    H227923   4.836   7.780   4.993
 9328TIP3   OH227924   1.382   2.692   1.320
 9328TIP3    H127925   1.343   2.618   1.273
 9328TIP3    H227926   1.470   2.662   1.343
 9329TIP3   OH227927   7.457   6.322   2.110
 9329TIP3    H127928   7.388   6.296   2.171
 9329TIP3    H227929   7.413   6.381   2.049
 9330TIP3   OH227930   1.470   7.627   5.218
 9330TIP3    H127931   1.453   7.603   5.127
 9330TIP3    H227932   1.399   7.686   5.241
 9331TIP3   OH227933   2.182   5.475   1.484
 9331TIP3    H127934   2.275   5.464   1.464
 9331TIP3    H227935   2.179   5.553   1.540
 9332TIP3   OH227936   4.736   4.613   1.805
 9332TIP3    H127937   4.675   4.593   1.877
 9332TIP3    H227938   4.822   4.587   1.839
 9333TIP3   OH227939   2.061   1.178   2.991
 9333TIP3    H127940   2.006   1.164   2.914
 9333TIP3    H227941   2.052   1.097   3.041
 9334TIP3   OH227942   1.882   2.784   1.833
 9334TIP3    H127943   1.948   2.716   1.821
 9334TIP3    H227944   1.827   2.751   1.904
 9335TIP3   OH227945  -0.024   5.058   2.161
 9335TIP3    H127946  -0.010   5.072   2.067
 9335TIP3    H227947   0.063   5.037   2.195
 9336TIP3   OH227948   6.585   1.683   0.814
 9336TIP3    H127949   6.624   1.755   0.765
 9336TIP3    H227950   6.557   1.621   0.747
 9337TIP3   OH227951   4.754   4.192   6.125
 9337TIP3    H127952   4.664   4.169   6.101
 9337TIP3    H227953   4.760   4.174   6.219
 9338TIP3   OH227954   2.646   1.707   2.667
 9338TIP3    H127955   2.598   1.788   2.679
 9338TIP3    H227956   2.736   1.735   2.647
 9339TIP3   OH227957   4.048   3.320   6.637
 9339TIP3    H127958   4.022   3.241   6.685
 9339TIP3    H227959   4.143   3.323   6.647
 9340TIP3   OH227960   4.395   3.012   3.300
 9340TIP3    H127961   4.314   3.055   3.274
 9340TIP3    H227962   4.427   2.972   3.219
 9341TIP3   OH227963   0.599   3.915   4.962
 9341TIP3    H127964   0.544   3.845   4.997
 9341TIP3    H227965   0.677   3.913   5.017
 9342TIP3   OH227966   0.871   4.804   6.164
 9342TIP3    H127967   0.827   4.770   6.242
 9342TIP3    H227968   0.953   4.840   6.197
 9343TIP3   OH227969   4.112   6.673   3.510
 9343TIP3    H127970   4.169   6.681   3.434
 9343TIP3    H227971   4.154   6.727   3.577
 9344TIP3   OH227972   5.595   3.921   5.611
 9344TIP3    H127973   5.645   3.840   5.599
 9344TIP3    H227974   5.654   3.978   5.660
 9345TIP3   OH227975   7.266   3.914   5.156
 9345TIP3    H127976   7.287   3.820   5.153
 9345TIP3    H227977   7.348   3.957   5.130
 9346TIP3   OH227978   5.496   7.119   5.624
 9346TIP3    H127979   5.504   7.092   5.716
 9346TIP3    H227980   5.423   7.068   5.590
 9347TIP3   OH227981   7.660   1.646   3.194
 9347TIP3    H127982   7.663   1.738   3.219
 9347TIP3    H227983   7.617   1.646   3.108
 9348TIP3   OH227984   8.279   0.395   6.542
 9348TIP3    H127985   8.247   0.305   6.531
 9348TIP3    H227986   8.350   0.403   6.479
 9349TIP3   OH227987   2.683   3.982   1.285
 9349TIP3    H127988   2.589   3.967   1.297
 9349TIP3    H227989   2.724   3.932   1.355
 9350TIP3   OH227990   7.410   4.828   2.293
 9350TIP3    H127991   7.320   4.797   2.286
 9350TIP3    H227992   7.402   4.920   2.318
 9351TIP3   OH227993   6.237   1.481   5.634
 9351TIP3    H127994   6.211   1.495   5.544
 9351TIP3    H227995   6.320   1.433   5.628
 9352TIP3   OH227996   8.296   2.298   6.789
 9352TIP3    H127997   8.245   2.371   6.826
 9352TIP3    H227998   8.315   2.325   6.700
 9353TIP3   OH227999   0.920   6.566   3.824
 9353TIP3    H128000   0.877   6.497   3.875
 9353TIP3    H228001   0.877   6.563   3.739
 9354TIP3   OH228002   5.688   7.854   5.532
 9354TIP3    H128003   5.626   7.782   5.527
 9354TIP3    H228004   5.638   7.926   5.571
 9355TIP3   OH228005   1.772   4.431   2.172
 9355TIP3    H128006   1.692   4.457   2.217
 9355TIP3    H228007   1.838   4.493   2.203
 9356TIP3   OH228008   3.111   0.630   0.403
 9356TIP3    H128009   3.104   0.711   0.353
 9356TIP3    H228010   3.190   0.642   0.456
 9357TIP3   OH228011   3.939   6.666   5.403
 9357TIP3    H128012   3.871   6.723   5.366
 9357TIP3    H228013   3.951   6.597   5.338
 9358TIP3   OH228014   1.885   4.639   0.326
 9358TIP3    H128015   1.900   4.729   0.355
 9358TIP3    H228016   1.943   4.630   0.250
 9359TIP3   OH228017   6.060   0.235   5.357
 9359TIP3    H128018   6.054   0.196   5.270
 9359TIP3    H228019   5.992   0.302   5.358
 9360TIP3   OH228020   2.777   4.729   2.504
 9360TIP3    H128021   2.845   4.668   2.532
 9360TIP3    H228022   2.754   4.702   2.415
 9361TIP3   OH228023   7.657   7.420   0.123
 9361TIP3    H128024   7.628   7.387   0.208
 9361TIP3    H228025   7.576   7.450   0.080
 9362TIP3   OH228026   0.949   5.245   2.118
 9362TIP3    H128027   0.892   5.309   2.075
 9362TIP3    H228028   0.985   5.293   2.193
 9363TIP3   OH228029   7.906   4.613   0.363
 9363TIP3    H128030   7.878   4.704   0.358
 9363TIP3    H228031   7.972   4.612   0.432
 9364TIP3   OH228032   5.679   2.054   0.523
 9364TIP3    H128033   5.585   2.038   0.519
 9364TIP3    H228034   5.718   1.966   0.524
 9365TIP3   OH228035   7.244   0.732   3.351
 9365TIP3    H128036   7.257   0.821   3.317
 9365TIP3    H228037   7.252   0.676   3.274
 9366TIP3   OH228038   6.578   7.646   3.101
 9366TIP3    H128039   6.493   7.605   3.082
 9366TIP3    H228040   6.599   7.695   3.022
 9367TIP3   OH228041   5.042   5.319   1.798
 9367TIP3    H128042   4.969   5.262   1.823
 9367TIP3    H228043   5.014   5.359   1.716
 9368TIP3   OH228044   1.715   4.111   5.507
 9368TIP3    H128045   1.775   4.184   5.518
 9368TIP3    H228046   1.678   4.123   5.419
 9369TIP3   OH228047   0.886   3.088   3.076
 9369TIP3    H128048   0.791   3.082   3.066
 9369TIP3    H228049   0.917   3.000   3.054
 9370TIP3   OH228050   4.402   4.136   4.287
 9370TIP3    H128051   4.373   4.058   4.335
 9370TIP3    H228052   4.394   4.207   4.351
 9371TIP3   OH228053   4.282   1.345   1.094
 9371TIP3    H128054   4.256   1.425   1.048
 9371TIP3    H228055   4.243   1.274   1.043
 9372TIP3   OH228056   0.505   6.784   5.311
 9372TIP3    H128057   0.556   6.734   5.247
 9372TIP3    H228058   0.432   6.820   5.260
 9373TIP3   OH228059   0.269   2.791   3.534
 9373TIP3    H128060   0.332   2.817   3.601
 9373TIP3    H228061   0.231   2.709   3.567
 9374TIP3   OH228062   5.350   4.707   1.225
 9374TIP3    H128063   5.374   4.784   1.277
 9374TIP3    H228064   5.426   4.692   1.169
 9375TIP3   OH228065   6.007   3.249   1.054
 9375TIP3    H128066   5.995   3.183   1.121
 9375TIP3    H228067   6.089   3.294   1.078
 9376TIP3   OH228068   7.106   7.769   5.084
 9376TIP3    H128069   7.145   7.682   5.095
 9376TIP3    H228070   7.044   7.759   5.011
 9377TIP3   OH228071   3.960   6.478   5.224
 9377TIP3    H128072   3.899   6.419   5.180
 9377TIP3    H228073   4.026   6.500   5.157
 9378TIP3   OH228074   3.924   5.611   5.614
 9378TIP3    H128075   3.987   5.679   5.638
 9378TIP3    H228076   3.852   5.622   5.676
 9379TIP3   OH228077   1.187   3.105   5.798
 9379TIP3    H128078   1.129   3.047   5.847
 9379TIP3    H228079   1.255   3.130   5.861
 9380TIP3   OH228080   8.171   2.558   2.713
 9380TIP3    H128081   8.155   2.463   2.708
 9380TIP3    H228082   8.093   2.597   2.673
 9381TIP3   OH228083   1.413   1.706   5.634
 9381TIP3    H128084   1.434   1.671   5.548
 9381TIP3    H228085   1.323   1.736   5.627
 9382TIP3   OH228086   4.961   7.268   2.400
 9382TIP3    H128087   4.960   7.363   2.390
 9382TIP3    H228088   5.007   7.253   2.482
 9383TIP3   OH228089   5.186   7.005   4.478
 9383TIP3    H128090   5.273   7.045   4.478
 9383TIP3    H228091   5.133   7.062   4.534
 9384TIP3   OH228092   7.447   7.450   5.780
 9384TIP3    H128093   7.539   7.471   5.769
 9384TIP3    H228094   7.420   7.413   5.695
 9385TIP3   OH228095   2.362   5.762   3.381
 9385TIP3    H128096   2.403   5.845   3.406
 9385TIP3    H228097   2.277   5.762   3.425
 9386TIP3   OH228098   7.059   3.459   3.403
 9386TIP3    H128099   7.007   3.535   3.427
 9386TIP3    H228100   7.140   3.495   3.367
 9387TIP3   OH228101   5.471   1.183   6.273
 9387TIP3    H128102   5.508   1.265   6.239
 9387TIP3    H228103   5.537   1.117   6.252
 9388TIP3   OH228104   1.359   5.453   4.593
 9388TIP3    H128105   1.415   5.394   4.542
 9388TIP3    H228106   1.405   5.537   4.592
 9389TIP3   OH228107   2.893   1.550   2.487
 9389TIP3    H128108   2.878   1.539   2.581
 9389TIP3    H228109   2.986   1.570   2.480
 9390TIP3   OH228110   3.197   4.720   6.115
 9390TIP3    H128111   3.238   4.652   6.169
 9390TIP3    H228112   3.152   4.776   6.178
 9391TIP3   OH228113   8.211   3.148   0.517
 9391TIP3    H128114   8.164   3.167   0.598
 9391TIP3    H228115   8.268   3.224   0.504
 9392TIP3   OH228116   0.988   0.508   3.407
 9392TIP3    H128117   1.059   0.554   3.452
 9392TIP3    H228118   0.989   0.544   3.318
 9393TIP3   OH228119   4.253   7.135   6.724
 9393TIP3    H128120   4.290   7.222   6.738
 9393TIP3    H228121   4.327   7.082   6.693
 9394TIP3   OH228122   7.193   4.753   5.586
 9394TIP3    H128123   7.141   4.821   5.544
 9394TIP3    H228124   7.268   4.740   5.529
 9395TIP3   OH228125   4.106   7.699   5.839
 9395TIP3    H128126   4.089   7.624   5.897
 9395TIP3    H228127   4.190   7.678   5.798
 9396TIP3   OH228128   2.142   5.045   4.646
 9396TIP3    H128129   2.048   5.025   4.644
 9396TIP3    H228130   2.156   5.089   4.729
 9397TIP3   OH228131   6.039   6.179   4.508
 9397TIP3    H128132   6.016   6.266   4.478
 9397TIP3    H228133   5.957   6.140   4.537
 9398TIP3   OH228134   4.326   4.441   0.081
 9398TIP3    H128135   4.396   4.385   0.048
 9398TIP3    H228136   4.258   4.436   0.015
 9399TIP3   OH228137   1.104   0.386   6.068
 9399TIP3    H128138   1.074   0.341   6.146
 9399TIP3    H228139   1.103   0.319   6.000
 9400TIP3   OH228140   2.552   0.105   2.586
 9400TIP3    H128141   2.469   0.109   2.539
 9400TIP3    H228142   2.609   0.054   2.530
 9401TIP3   OH228143   4.935   5.458   5.813
 9401TIP3    H128144   4.982   5.374   5.818
 9401TIP3    H228145   5.004   5.524   5.820
 9402TIP3   OH228146   4.242   5.271   3.414
 9402TIP3    H128147   4.172   5.285   3.351
 9402TIP3    H228148   4.197   5.250   3.496
 9403TIP3   OH228149   3.766   4.496   1.196
 9403TIP3    H128150   3.793   4.474   1.107
 9403TIP3    H228151   3.734   4.586   1.190
 9404TIP3   OH228152   0.891   1.529   0.535
 9404TIP3    H128153   0.971   1.526   0.483
 9404TIP3    H228154   0.901   1.606   0.590
 9405TIP3   OH228155   1.128   3.997   4.886
 9405TIP3    H128156   1.052   3.942   4.869
 9405TIP3    H228157   1.135   3.999   4.981
 9406TIP3   OH228158   0.489   5.041   2.331
 9406TIP3    H128159   0.475   5.103   2.403
 9406TIP3    H228160   0.525   5.095   2.261
 9407TIP3   OH228161   6.086   6.440   5.250
 9407TIP3    H128162   6.019   6.387   5.293
 9407TIP3    H228163   6.168   6.414   5.292
 9408TIP3   OH228164   5.578   4.647   3.696
 9408TIP3    H128165   5.519   4.703   3.645
 9408TIP3    H228166   5.557   4.558   3.666
 9409TIP3   OH228167   7.530   1.698   2.931
 9409TIP3    H128168   7.582   1.773   2.959
 9409TIP3    H228169   7.479   1.730   2.857
 9410TIP3   OH228170   3.857   7.446   1.418
 9410TIP3    H128171   3.842   7.540   1.414
 9410TIP3    H228172   3.769   7.408   1.422
 9411TIP3   OH228173   4.334   6.333   4.672
 9411TIP3    H128174   4.405   6.338   4.736
 9411TIP3    H228175   4.379   6.324   4.587
 9412TIP3   OH228176   2.314   0.686   6.555
 9412TIP3    H128177   2.397   0.676   6.601
 9412TIP3    H228178   2.336   0.737   6.477
 9413TIP3   OH228179   6.652   7.680   4.215
 9413TIP3    H128180   6.638   7.681   4.120
 9413TIP3    H228181   6.634   7.770   4.242
 9414TIP3   OH228182   5.276   7.113   3.793
 9414TIP3    H128183   5.352   7.057   3.809
 9414TIP3    H228184   5.269   7.116   3.697
 9415TIP3   OH228185   0.692   1.663   0.761
 9415TIP3    H128186   0.706   1.705   0.845
 9415TIP3    H228187   0.750   1.711   0.701
 9416TIP3   OH228188   6.592   4.215   0.487
 9416TIP3    H128189   6.621   4.182   0.402
 9416TIP3    H228190   6.524   4.279   0.466
 9417TIP3   OH228191   0.795   3.617   0.363
 9417TIP3    H128192   0.734   3.626   0.290
 9417TIP3    H228193   0.739   3.603   0.439
 9418TIP3   OH228194   0.555   2.269   2.851
 9418TIP3    H128195   0.505   2.268   2.933
 9418TIP3    H228196   0.638   2.310   2.874
 9419TIP3   OH228197   6.781   3.695   4.322
 9419TIP3    H128198   6.758   3.608   4.355
 9419TIP3    H228199   6.835   3.678   4.245
 9420TIP3   OH228200   2.680   0.104   6.180
 9420TIP3    H128201   2.664   0.013   6.153
 9420TIP3    H228202   2.629   0.157   6.120
 9421TIP3   OH228203   4.667   7.688   1.513
 9421TIP3    H128204   4.623   7.632   1.449
 9421TIP3    H228205   4.606   7.691   1.588
 9422TIP3   OH228206   1.700   6.626   5.485
 9422TIP3    H128207   1.698   6.712   5.527
 9422TIP3    H228208   1.610   6.593   5.494
 9423TIP3   OH228209   8.128   4.959   5.808
 9423TIP3    H128210   8.189   5.025   5.843
 9423TIP3    H228211   8.045   4.978   5.850
 9424TIP3   OH228212  -0.023   4.784   3.299
 9424TIP3    H128213   0.062   4.743   3.317
 9424TIP3    H228214  -0.002   4.873   3.273
 9425TIP3   OH228215   5.249   6.821   6.367
 9425TIP3    H128216   5.176   6.761   6.354
 9425TIP3    H228217   5.294   6.823   6.282
 9426TIP3   OH228218   0.613   6.936   4.044
 9426TIP3    H128219   0.576   6.850   4.021
 9426TIP3    H228220   0.616   6.983   3.961
 9427TIP3   OH228221   8.211   3.427   5.472
 9427TIP3    H128222   8.117   3.443   5.471
 9427TIP3    H228223   8.250   3.511   5.495
 9428TIP3   OH228224   3.816   7.386   0.321
 9428TIP3    H128225   3.814   7.370   0.227
 9428TIP3    H228226   3.840   7.302   0.359
 9429TIP3   OH228227   5.467   0.422   2.633
 9429TIP3    H128228   5.478   0.336   2.592
 9429TIP3    H228229   5.380   0.418   2.673
 9430TIP3   OH228230   0.225   6.054   5.921
 9430TIP3    H128231   0.308   6.082   5.959
 9430TIP3    H228232   0.193   6.131   5.873
 9431TIP3   OH228233   6.190   6.991   2.373
 9431TIP3    H128234   6.259   6.942   2.329
 9431TIP3    H228235   6.196   6.965   2.465
 9432TIP3   OH228236   6.769   5.769   0.044
 9432TIP3    H128237   6.841   5.749  -0.016
 9432TIP3    H228238   6.691   5.767  -0.012
 9433TIP3   OH228239   4.156   6.101   6.419
 9433TIP3    H128240   4.139   6.126   6.328
 9433TIP3    H228241   4.208   6.022   6.413
 9434TIP3   OH228242   6.864   4.863   4.623
 9434TIP3    H128243   6.873   4.774   4.588
 9434TIP3    H228244   6.939   4.910   4.586
 9435TIP3   OH228245   2.256   0.973   4.869
 9435TIP3    H128246   2.304   1.014   4.942
 9435TIP3    H228247   2.251   1.041   4.803
 9436TIP3   OH228248   0.318   3.408   3.734
 9436TIP3    H128249   0.268   3.386   3.813
 9436TIP3    H228250   0.406   3.426   3.766
 9437TIP3   OH228251   4.345   2.944   2.530
 9437TIP3    H128252   4.259   2.902   2.531
 9437TIP3    H228253   4.398   2.892   2.591
 9438TIP3   OH228254   5.294   3.829   6.000
 9438TIP3    H128255   5.314   3.842   5.907
 9438TIP3    H228256   5.212   3.877   6.013
 9439TIP3   OH228257   7.686   0.778   3.111
 9439TIP3    H128258   7.683   0.738   3.198
 9439TIP3    H228259   7.653   0.867   3.125
 9440TIP3   OH228260   2.227   4.267   4.730
 9440TIP3    H128261   2.239   4.356   4.761
 9440TIP3    H228262   2.316   4.233   4.718
 9441TIP3   OH228263   7.901   5.741   3.999
 9441TIP3    H128264   7.995   5.728   3.986
 9441TIP3    H228265   7.892   5.835   4.015
 9442TIP3   OH228266   0.400   5.505   3.494
 9442TIP3    H128267   0.413   5.429   3.550
 9442TIP3    H228268   0.414   5.473   3.405
 9443TIP3   OH228269   3.095   7.670   5.319
 9443TIP3    H128270   3.118   7.732   5.388
 9443TIP3    H228271   3.001   7.655   5.329
 9444TIP3   OH228272   6.522   0.801   2.585
 9444TIP3    H128273   6.497   0.753   2.505
 9444TIP3    H228274   6.595   0.857   2.557
 9445TIP3   OH228275   7.789   1.388   2.372
 9445TIP3    H128276   7.714   1.404   2.315
 9445TIP3    H228277   7.750   1.365   2.456
 9446TIP3   OH228278   5.193   7.875   1.512
 9446TIP3    H128279   5.224   7.848   1.598
 9446TIP3    H228280   5.107   7.834   1.504
 9447TIP3   OH228281   4.941   7.677   6.773
 9447TIP3    H128282   4.857   7.648   6.810
 9447TIP3    H228283   4.931   7.771   6.763
 9448TIP3   OH228284   4.087   5.836   3.164
 9448TIP3    H128285   4.182   5.829   3.169
 9448TIP3    H228286   4.062   5.772   3.097
 9449TIP3   OH228287   3.643   6.251   4.606
 9449TIP3    H128288   3.678   6.167   4.637
 9449TIP3    H228289   3.622   6.235   4.514
 9450TIP3   OH228290   0.896   0.958   3.442
 9450TIP3    H128291   0.875   1.046   3.409
 9450TIP3    H228292   0.902   0.904   3.363
 9451TIP3   OH228293   2.583   6.824   3.116
 9451TIP3    H128294   2.517   6.767   3.157
 9451TIP3    H228295   2.660   6.768   3.107
 9452TIP3   OH228296   8.079   1.351   4.010
 9452TIP3    H128297   8.021   1.387   4.077
 9452TIP3    H228298   8.026   1.351   3.930
 9453TIP3   OH228299   3.387   7.591   0.922
 9453TIP3    H128300   3.437   7.667   0.894
 9453TIP3    H228301   3.440   7.516   0.896
 9454TIP3   OH228302   2.266   6.745   4.728
 9454TIP3    H128303   2.280   6.828   4.682
 9454TIP3    H228304   2.191   6.762   4.785
 9455TIP3   OH228305   7.012   0.451   0.063
 9455TIP3    H128306   7.006   0.526   0.121
 9455TIP3    H228307   7.035   0.488  -0.022
 9456TIP3   OH228308   2.791   0.714   4.937
 9456TIP3    H128309   2.796   0.629   4.981
 9456TIP3    H228310   2.699   0.741   4.948
 9457TIP3   OH228311   6.834   3.129   6.137
 9457TIP3    H128312   6.823   3.034   6.128
 9457TIP3    H228313   6.847   3.142   6.231
 9458TIP3   OH228314   6.993   3.192   0.518
 9458TIP3    H128315   6.977   3.104   0.483
 9458TIP3    H228316   6.943   3.196   0.599
 9459TIP3   OH228317   6.971   1.978   6.042
 9459TIP3    H128318   7.057   1.991   6.083
 9459TIP3    H228319   6.966   1.884   6.026
 9460TIP3   OH228320   0.539   3.418   4.663
 9460TIP3    H128321   0.564   3.389   4.576
 9460TIP3    H228322   0.447   3.445   4.654
 9461TIP3   OH228323   1.627   5.801   5.757
 9461TIP3    H128324   1.588   5.887   5.773
 9461TIP3    H228325   1.718   5.819   5.735
 9462TIP3   OH228326   1.908   6.790   1.757
 9462TIP3    H128327   1.894   6.697   1.777
 9462TIP3    H228328   1.848   6.807   1.684
 9463TIP3   OH228329   5.946   6.702   6.771
 9463TIP3    H128330   6.030   6.656   6.762
 9463TIP3    H228331   5.914   6.712   6.681
 9464TIP3   OH228332   4.196   0.847   1.060
 9464TIP3    H128333   4.238   0.807   0.984
 9464TIP3    H228334   4.114   0.800   1.070
 9465TIP3   OH228335   4.287   6.651   0.476
 9465TIP3    H128336   4.248   6.604   0.402
 9465TIP3    H228337   4.330   6.727   0.437
 9466TIP3   OH228338   3.405   1.965   0.755
 9466TIP3    H128339   3.342   2.012   0.700
 9466TIP3    H228340   3.413   2.019   0.833
 9467TIP3   OH228341   4.246   2.017   0.663
 9467TIP3    H128342   4.247   1.942   0.723
 9467TIP3    H228343   4.204   2.086   0.714
 9468TIP3   OH228344   2.837   7.465   0.683
 9468TIP3    H128345   2.872   7.533   0.741
 9468TIP3    H228346   2.891   7.388   0.700
 9469TIP3   OH228347   4.135   0.950   1.360
 9469TIP3    H128348   4.048   0.989   1.364
 9469TIP3    H228349   4.139   0.907   1.275
 9470TIP3   OH228350   3.223   2.006   5.915
 9470TIP3    H128351   3.163   1.978   5.985
 9470TIP3    H228352   3.305   1.962   5.935
 9471TIP3   OH228353   2.872   2.482   0.093
 9471TIP3    H128354   2.797   2.461   0.039
 9471TIP3    H228355   2.874   2.577   0.097
 9472TIP3   OH228356   2.917   0.739   0.587
 9472TIP3    H128357   3.002   0.767   0.622
 9472TIP3    H228358   2.878   0.688   0.659
 9473TIP3   OH228359   6.020   6.656   3.738
 9473TIP3    H128360   6.032   6.668   3.832
 9473TIP3    H228361   5.938   6.606   3.731
 9474TIP3   OH228362   5.421   1.645   2.309
 9474TIP3    H128363   5.485   1.717   2.305
 9474TIP3    H228364   5.338   1.686   2.284
 9475TIP3   OH228365   3.352   2.125   0.982
 9475TIP3    H128366   3.262   2.092   0.988
 9475TIP3    H228367   3.361   2.185   1.057
 9476TIP3   OH228368   7.451   3.625   1.453
 9476TIP3    H128369   7.456   3.594   1.362
 9476TIP3    H228370   7.530   3.677   1.465
 9477TIP3   OH228371   1.110   0.934   5.034
 9477TIP3    H128372   1.144   0.844   5.033
 9477TIP3    H228373   1.181   0.985   5.074
 9478TIP3   OH228374   2.106   2.889   0.445
 9478TIP3    H128375   2.079   2.826   0.378
 9478TIP3    H228376   2.156   2.837   0.507
 9479TIP3   OH228377   2.439   6.028   3.420
 9479TIP3    H128378   2.468   6.110   3.378
 9479TIP3    H228379   2.343   6.035   3.423
 9480TIP3   OH228380   4.942   3.626   1.464
 9480TIP3    H128381   4.876   3.557   1.455
 9480TIP3    H228382   4.951   3.639   1.558
 9481TIP3   OH228383   0.558   6.367   1.596
 9481TIP3    H128384   0.514   6.309   1.534
 9481TIP3    H228385   0.645   6.328   1.607
 9482TIP3   OH228386   1.345   0.565   3.059
 9482TIP3    H128387   1.424   0.511   3.066
 9482TIP3    H228388   1.376   0.649   3.024
 9483TIP3   OH228389   8.092   5.193   2.411
 9483TIP3    H128390   8.148   5.123   2.445
 9483TIP3    H228391   8.003   5.163   2.430
 9484TIP3   OH228392   2.093   1.950   6.184
 9484TIP3    H128393   2.005   1.933   6.151
 9484TIP3    H228394   2.109   1.882   6.249
 9485TIP3   OH228395   7.365   6.884   4.270
 9485TIP3    H128396   7.283   6.904   4.315
 9485TIP3    H228397   7.431   6.936   4.315
 9486TIP3   OH228398   5.565   3.348   4.197
 9486TIP3    H128399   5.618   3.291   4.142
 9486TIP3    H228400   5.586   3.320   4.287
 9487TIP3   OH228401   3.438   3.850   1.639
 9487TIP3    H128402   3.356   3.895   1.620
 9487TIP3    H228403   3.496   3.920   1.671
 9488TIP3   OH228404   0.903   7.477   3.850
 9488TIP3    H128405   0.993   7.501   3.828
 9488TIP3    H228406   0.870   7.435   3.770
 9489TIP3   OH228407   2.990   7.684   4.488
 9489TIP3    H128408   3.060   7.748   4.501
 9489TIP3    H228409   2.931   7.698   4.562
 9490TIP3   OH228410   6.037   2.848   6.367
 9490TIP3    H128411   5.965   2.898   6.406
 9490TIP3    H228412   6.115   2.900   6.386
 9491TIP3   OH228413   2.764   6.892   1.771
 9491TIP3    H128414   2.803   6.927   1.851
 9491TIP3    H228415   2.824   6.918   1.701
 9492TIP3   OH228416   6.475   6.262   2.633
 9492TIP3    H128417   6.428   6.342   2.656
 9492TIP3    H228418   6.567   6.285   2.642
 9493TIP3   OH228419   0.558   0.049   1.795
 9493TIP3    H128420   0.463   0.046   1.780
 9493TIP3    H228421   0.585   0.135   1.764
 9494TIP3   OH228422   5.362   5.744   3.224
 9494TIP3    H128423   5.338   5.705   3.309
 9494TIP3    H228424   5.457   5.733   3.219
 9495TIP3   OH228425   3.324   6.285   6.249
 9495TIP3    H128426   3.370   6.203   6.269
 9495TIP3    H228427   3.261   6.294   6.320
 9496TIP3   OH228428   4.421   2.144   5.532
 9496TIP3    H128429   4.418   2.086   5.457
 9496TIP3    H228430   4.509   2.132   5.568
 9497TIP3   OH228431   8.161   0.008   2.819
 9497TIP3    H128432   8.230   0.039   2.760
 9497TIP3    H228433   8.089   0.071   2.807
 9498TIP3   OH228434   5.104   6.523   6.388
 9498TIP3    H128435   5.066   6.597   6.437
 9498TIP3    H228436   5.070   6.445   6.432
 9499TIP3   OH228437   6.957   7.799   6.793
 9499TIP3    H128438   7.025   7.741   6.828
 9499TIP3    H228439   6.884   7.789   6.853
 9500TIP3   OH228440   3.342   2.383   4.584
 9500TIP3    H128441   3.393   2.375   4.504
 9500TIP3    H228442   3.251   2.375   4.556
 9501TIP3   OH228443   1.829   5.502   1.994
 9501TIP3    H128444   1.881   5.570   2.037
 9501TIP3    H228445   1.833   5.427   2.053
 9502TIP3   OH228446   5.147   4.414   5.943
 9502TIP3    H128447   5.054   4.431   5.934
 9502TIP3    H228448   5.157   4.321   5.922
 9503TIP3   OH228449   2.650   2.933   3.325
 9503TIP3    H128450   2.609   3.019   3.332
 9503TIP3    H228451   2.578   2.873   3.310
 9504TIP3   OH228452   2.479   1.869   4.170
 9504TIP3    H128453   2.416   1.896   4.103
 9504TIP3    H228454   2.470   1.936   4.238
 9505TIP3   OH228455   8.231   0.911   6.189
 9505TIP3    H128456   8.303   0.868   6.143
 9505TIP3    H228457   8.152   0.874   6.150
 9506TIP3   OH228458   0.021   6.721   6.775
 9506TIP3    H128459   0.089   6.683   6.719
 9506TIP3    H228460   0.009   6.809   6.741
 9507TIP3   OH228461   2.884   4.636   4.744
 9507TIP3    H128462   2.849   4.595   4.665
 9507TIP3    H228463   2.807   4.647   4.800
 9508TIP3   OH228464   7.079   0.060   0.674
 9508TIP3    H128465   7.139  -0.015   0.670
 9508TIP3    H228466   7.133   0.134   0.646
 9509TIP3   OH228467   4.542   7.469   5.069
 9509TIP3    H128468   4.506   7.386   5.100
 9509TIP3    H228469   4.534   7.529   5.143
 9510TIP3   OH228470   2.278   2.648   3.698
 9510TIP3    H128471   2.304   2.603   3.778
 9510TIP3    H228472   2.335   2.725   3.694
 9511TIP3   OH228473   0.005   4.982   1.354
 9511TIP3    H128474  -0.061   4.947   1.414
 9511TIP3    H228475   0.044   4.905   1.313
 9512TIP3   OH228476   6.392   2.331   1.580
 9512TIP3    H128477   6.365   2.324   1.489
 9512TIP3    H228478   6.335   2.269   1.626
 9513TIP3   OH228479   2.247   2.356   5.000
 9513TIP3    H128480   2.318   2.375   5.061
 9513TIP3    H228481   2.291   2.337   4.918
 9514TIP3   OH228482   5.246   6.406   2.731
 9514TIP3    H128483   5.332   6.449   2.734
 9514TIP3    H228484   5.264   6.319   2.694
 9515TIP3   OH228485   7.663   5.022   6.727
 9515TIP3    H128486   7.722   5.092   6.755
 9515TIP3    H228487   7.720   4.948   6.707
 9516TIP3   OH228488   7.787   4.849   4.162
 9516TIP3    H128489   7.775   4.799   4.082
 9516TIP3    H228490   7.793   4.940   4.133
 9517TIP3   OH228491   4.694   4.986   2.685
 9517TIP3    H128492   4.634   4.918   2.715
 9517TIP3    H228493   4.645   5.068   2.696
 9518TIP3   OH228494   8.279   0.610   5.592
 9518TIP3    H128495   8.255   0.686   5.644
 9518TIP3    H228496   8.371   0.624   5.570
 9519TIP3   OH228497   4.469   4.190   5.809
 9519TIP3    H128498   4.533   4.120   5.817
 9519TIP3    H228499   4.449   4.194   5.715
 9520TIP3   OH228500   2.923   4.748   0.375
 9520TIP3    H128501   2.933   4.745   0.470
 9520TIP3    H228502   3.000   4.794   0.344
 9521TIP3   OH228503   6.089   5.116   5.666
 9521TIP3    H128504   6.176   5.115   5.705
 9521TIP3    H228505   6.052   5.200   5.692
 9522TIP3   OH228506   6.311   1.757   4.122
 9522TIP3    H128507   6.316   1.851   4.104
 9522TIP3    H228508   6.251   1.723   4.055
 9523TIP3   OH228509   2.241   3.449   0.608
 9523TIP3    H128510   2.154   3.450   0.647
 9523TIP3    H228511   2.236   3.381   0.541
 9524TIP3   OH228512   3.824   7.855   2.209
 9524TIP3    H128513   3.810   7.939   2.254
 9524TIP3    H228514   3.784   7.867   2.123
 9525TIP3   OH228515   0.906   6.049   2.521
 9525TIP3    H128516   0.877   6.098   2.598
 9525TIP3    H228517   0.987   6.092   2.494
 9526TIP3   OH228518   1.323   6.124   1.944
 9526TIP3    H128519   1.268   6.094   1.872
 9526TIP3    H228520   1.394   6.060   1.948
 9527TIP3   OH228521   4.290   1.885   0.262
 9527TIP3    H128522   4.377   1.846   0.268
 9527TIP3    H228523   4.295   1.943   0.186
 9528TIP3   OH228524   3.749   2.153   2.231
 9528TIP3    H128525   3.699   2.110   2.300
 9528TIP3    H228526   3.702   2.234   2.214
 9529TIP3   OH228527   7.389   4.628   4.672
 9529TIP3    H128528   7.328   4.588   4.733
 9529TIP3    H228529   7.403   4.561   4.605
 9530TIP3   OH228530   8.079   5.148   3.777
 9530TIP3    H128531   7.995   5.194   3.771
 9530TIP3    H228532   8.126   5.194   3.846
 9531TIP3   OH228533   5.255   1.185   4.104
 9531TIP3    H128534   5.187   1.236   4.147
 9531TIP3    H228535   5.210   1.140   4.033
 9532TIP3   OH228536   2.244   2.375   5.748
 9532TIP3    H128537   2.270   2.283   5.742
 9532TIP3    H228538   2.313   2.422   5.701
 9533TIP3   OH228539   7.106   6.156   6.269
 9533TIP3    H128540   7.113   6.065   6.298
 9533TIP3    H228541   7.036   6.193   6.323
 9534TIP3   OH228542   2.899   0.859   5.302
 9534TIP3    H128543   2.889   0.899   5.388
 9534TIP3    H228544   2.909   0.933   5.242
 9535TIP3   OH228545   0.201   2.315   2.747
 9535TIP3    H128546   0.132   2.367   2.707
 9535TIP3    H228547   0.272   2.377   2.764
 9536TIP3   OH228548   0.333   6.483   6.798
 9536TIP3    H128549   0.279   6.435   6.860
 9536TIP3    H228550   0.271   6.522   6.737
 9537TIP3   OH228551   5.711   2.503   2.557
 9537TIP3    H128552   5.735   2.569   2.492
 9537TIP3    H228553   5.792   2.455   2.573
 9538TIP3   OH228554   3.491   3.058   1.863
 9538TIP3    H128555   3.567   3.114   1.876
 9538TIP3    H228556   3.510   3.011   1.782
 9539TIP3   OH228557   4.092   6.087   4.642
 9539TIP3    H128558   4.057   6.102   4.730
 9539TIP3    H228559   4.169   6.144   4.638
 9540TIP3   OH228560   3.020   0.034   1.858
 9540TIP3    H128561   2.971   0.117   1.860
 9540TIP3    H228562   2.992  -0.012   1.937
 9541TIP3   OH228563   0.105   1.902   2.468
 9541TIP3    H128564   0.048   1.967   2.509
 9541TIP3    H228565   0.104   1.924   2.375
 9542TIP3   OH228566   5.751   2.961   4.091
 9542TIP3    H128567   5.669   2.921   4.064
 9542TIP3    H228568   5.794   2.893   4.143
 9543TIP3   OH228569   5.344   3.936   1.011
 9543TIP3    H128570   5.292   4.015   0.994
 9543TIP3    H228571   5.348   3.891   0.927
 9544TIP3   OH228572   7.670   7.572   2.617
 9544TIP3    H128573   7.653   7.650   2.564
 9544TIP3    H228574   7.764   7.555   2.606
 9545TIP3   OH228575   1.070   7.629   0.213
 9545TIP3    H128576   1.042   7.544   0.248
 9545TIP3    H228577   1.020   7.693   0.263
 9546TIP3   OH228578   1.882  -0.014   3.641
 9546TIP3    H128579   1.880   0.015   3.732
 9546TIP3    H228580   1.824   0.048   3.595
 9547TIP3   OH228581   6.818   6.583   6.018
 9547TIP3    H128582   6.782   6.639   5.948
 9547TIP3    H228583   6.857   6.509   5.971
 9548TIP3   OH228584   2.759   7.701   6.703
 9548TIP3    H128585   2.683   7.754   6.727
 9548TIP3    H228586   2.804   7.753   6.636
 9549TIP3   OH228587   5.722   7.027   2.712
 9549TIP3    H128588   5.687   6.972   2.781
 9549TIP3    H228589   5.648   7.039   2.652
 9550TIP3   OH228590   2.183   0.443   6.527
 9550TIP3    H128591   2.211   0.426   6.438
 9550TIP3    H228592   2.217   0.530   6.547
 9551TIP3   OH228593   2.438   6.505   4.163
 9551TIP3    H128594   2.423   6.435   4.226
 9551TIP3    H228595   2.352   6.547   4.152
 9552TIP3   OH228596   6.038   7.338   0.327
 9552TIP3    H128597   6.013   7.371   0.240
 9552TIP3    H228598   6.030   7.415   0.384
 9553TIP3   OH228599   7.284   1.249   5.269
 9553TIP3    H128600   7.194   1.277   5.248
 9553TIP3    H228601   7.276   1.205   5.354
 9554TIP3   OH228602   4.744   4.678   2.356
 9554TIP3    H128603   4.758   4.674   2.451
 9554TIP3    H228604   4.813   4.623   2.320
 9555TIP3   OH228605   3.720   5.412   5.508
 9555TIP3    H128606   3.671   5.410   5.590
 9555TIP3    H228607   3.802   5.456   5.530
 9556TIP3   OH228608   5.831   5.778   0.307
 9556TIP3    H128609   5.850   5.729   0.387
 9556TIP3    H228610   5.907   5.836   0.296
 9557TIP3   OH228611   1.733   0.316   3.944
 9557TIP3    H128612   1.711   0.272   4.026
 9557TIP3    H228613   1.821   0.351   3.960
 9558TIP3   OH228614   2.984   6.840   3.076
 9558TIP3    H128615   3.026   6.897   3.139
 9558TIP3    H228616   2.897   6.824   3.112
 9559TIP3   OH228617   6.220   3.314   4.678
 9559TIP3    H128618   6.179   3.246   4.731
 9559TIP3    H228619   6.314   3.307   4.698
 9560TIP3   OH228620   1.592   5.908   2.965
 9560TIP3    H128621   1.529   5.968   3.005
 9560TIP3    H228622   1.675   5.929   3.008
 9561TIP3   OH228623   1.764   3.496   3.766
 9561TIP3    H128624   1.828   3.486   3.696
 9561TIP3    H228625   1.784   3.426   3.828
 9562TIP3   OH228626   5.319   6.850   0.229
 9562TIP3    H128627   5.341   6.943   0.221
 9562TIP3    H228628   5.264   6.844   0.307
 9563TIP3   OH228629   1.097   4.292   2.152
 9563TIP3    H128630   1.152   4.364   2.119
 9563TIP3    H228631   1.090   4.232   2.078
 9564TIP3   OH228632   1.597   1.157   3.259
 9564TIP3    H128633   1.625   1.066   3.251
 9564TIP3    H228634   1.502   1.152   3.268
 9565TIP3   OH228635   2.065   0.799   1.945
 9565TIP3    H128636   1.991   0.830   1.892
 9565TIP3    H228637   2.037   0.715   1.980
 9566TIP3   OH228638   3.227   4.212   1.838
 9566TIP3    H128639   3.243   4.121   1.815
 9566TIP3    H228640   3.297   4.261   1.793
 9567TIP3   OH228641   0.397   3.486   5.876
 9567TIP3    H128642   0.481   3.441   5.885
 9567TIP3    H228643   0.341   3.424   5.828
 9568TIP3   OH228644   3.205   3.238   6.518
 9568TIP3    H128645   3.181   3.330   6.504
 9568TIP3    H228646   3.122   3.191   6.517
 9569TIP3   OH228647   2.351   3.788   2.335
 9569TIP3    H128648   2.442   3.815   2.340
 9569TIP3    H228649   2.337   3.770   2.242
 9570TIP3   OH228650   7.326   3.014   3.005
 9570TIP3    H128651   7.306   2.920   3.008
 9570TIP3    H228652   7.301   3.046   3.091
 9571TIP3   OH228653   8.274   7.370   5.453
 9571TIP3    H128654   8.314   7.414   5.379
 9571TIP3    H228655   8.197   7.327   5.417
 9572TIP3   OH228656   1.200   5.512   6.129
 9572TIP3    H128657   1.159   5.521   6.215
 9572TIP3    H228658   1.277   5.568   6.133
 9573TIP3   OH228659   2.452   1.793   5.014
 9573TIP3    H128660   2.456   1.716   5.070
 9573TIP3    H228661   2.374   1.840   5.044
 9574TIP3   OH228662   1.294   0.305   4.488
 9574TIP3    H128663   1.255   0.383   4.450
 9574TIP3    H228664   1.324   0.333   4.574
 9575TIP3   OH228665   4.153   2.632   1.309
 9575TIP3    H128666   4.224   2.661   1.252
 9575TIP3    H228667   4.197   2.610   1.392
 9576TIP3   OH228668   0.611   5.678   6.023
 9576TIP3    H128669   0.656   5.638   5.949
 9576TIP3    H228670   0.594   5.768   5.995
 9577TIP3   OH228671   2.396   0.506   0.421
 9577TIP3    H128672   2.310   0.537   0.393
 9577TIP3    H228673   2.450   0.585   0.422
 9578TIP3   OH228674   1.749   6.932   6.127
 9578TIP3    H128675   1.796   6.997   6.180
 9578TIP3    H228676   1.656   6.948   6.146
 9579TIP3   OH228677   7.576   1.125   4.789
 9579TIP3    H128678   7.614   1.056   4.844
 9579TIP3    H228679   7.482   1.106   4.789
 9580TIP3   OH228680   1.865   4.945   4.657
 9580TIP3    H128681   1.814   4.879   4.704
 9580TIP3    H228682   1.800   4.998   4.611
 9581TIP3   OH228683   7.459   2.240   2.612
 9581TIP3    H128684   7.422   2.323   2.642
 9581TIP3    H228685   7.544   2.234   2.656
 9582TIP3   OH228686   4.018   6.499   6.294
 9582TIP3    H128687   3.965   6.421   6.313
 9582TIP3    H228688   4.094   6.465   6.247
 9583TIP3   OH228689   5.316   5.084   2.024
 9583TIP3    H128690   5.387   5.136   1.985
 9583TIP3    H228691   5.324   4.998   1.982
 9584TIP3   OH228692   3.079   0.759   5.501
 9584TIP3    H128693   3.098   0.812   5.578
 9584TIP3    H228694   3.152   0.697   5.496
 9585TIP3   OH228695   4.757   0.449   0.905
 9585TIP3    H128696   4.704   0.381   0.865
 9585TIP3    H228697   4.803   0.491   0.832
 9586TIP3   OH228698   2.312   2.758   6.020
 9586TIP3    H128699   2.326   2.663   6.016
 9586TIP3    H228700   2.377   2.789   6.082
 9587TIP3   OH228701   3.417   4.012   4.469
 9587TIP3    H128702   3.449   4.102   4.465
 9587TIP3    H228703   3.493   3.959   4.444
 9588TIP3   OH228704   6.585   5.700   3.513
 9588TIP3    H128705   6.505   5.653   3.539
 9588TIP3    H228706   6.552   5.777   3.466
 9589TIP3   OH228707   2.043   4.398   0.579
 9589TIP3    H128708   1.968   4.389   0.520
 9589TIP3    H228709   2.112   4.435   0.524
 9590TIP3   OH228710   8.058   6.501   0.953
 9590TIP3    H128711   8.060   6.409   0.927
 9590TIP3    H228712   8.108   6.504   1.034
 9591TIP3   OH228713   1.544   1.124   6.315
 9591TIP3    H128714   1.592   1.206   6.309
 9591TIP3    H228715   1.611   1.057   6.326
 9592TIP3   OH228716   1.517   3.256   1.501
 9592TIP3    H128717   1.574   3.278   1.575
 9592TIP3    H228718   1.552   3.174   1.467
 9593TIP3   OH228719   0.933   2.166   1.308
 9593TIP3    H128720   0.916   2.224   1.234
 9593TIP3    H228721   0.931   2.224   1.384
 9594TIP3   OH228722   2.040   4.308   3.610
 9594TIP3    H128723   1.977   4.274   3.674
 9594TIP3    H228724   2.018   4.262   3.529
 9595TIP3   OH228725   5.568   6.007   0.221
 9595TIP3    H128726   5.548   6.049   0.138
 9595TIP3    H228727   5.664   6.004   0.224
 9596TIP3   OH228728   0.539   5.727   0.245
 9596TIP3    H128729   0.570   5.735   0.154
 9596TIP3    H228730   0.610   5.681   0.290
 9597TIP3   OH228731   4.225   1.516   4.171
 9597TIP3    H128732   4.315   1.542   4.149
 9597TIP3    H228733   4.233   1.470   4.254
 9598TIP3   OH228734   2.490   3.461   1.305
 9598TIP3    H128735   2.579   3.473   1.270
 9598TIP3    H228736   2.491   3.374   1.344
 9599TIP3   OH228737   5.807   6.494   5.139
 9599TIP3    H128738   5.758   6.507   5.221
 9599TIP3    H228739   5.877   6.558   5.142
 9600TIP3   OH228740   7.429   2.544   3.188
 9600TIP3    H128741   7.382   2.460   3.181
 9600TIP3    H228742   7.492   2.542   3.116
 9601TIP3   OH228743   5.396   0.336   4.556
 9601TIP3    H128744   5.462   0.284   4.510
 9601TIP3    H228745   5.341   0.372   4.486
 9602TIP3   OH228746   3.463   2.985   0.613
 9602TIP3    H128747   3.488   3.069   0.574
 9602TIP3    H228748   3.389   2.955   0.560
 9603TIP3   OH228749   8.049   7.348   6.695
 9603TIP3    H128750   7.984   7.279   6.703
 9603TIP3    H228751   8.002   7.421   6.655
 9604TIP3   OH228752   7.903   6.448   4.546
 9604TIP3    H128753   7.823   6.402   4.521
 9604TIP3    H228754   7.908   6.523   4.486
 9605TIP3   OH228755   6.046   6.499   4.091
 9605TIP3    H128756   6.040   6.576   4.148
 9605TIP3    H228757   6.106   6.440   4.137
 9606TIP3   OH228758   6.053   0.509   4.255
 9606TIP3    H128759   5.992   0.450   4.299
 9606TIP3    H228760   6.035   0.595   4.294
 9607TIP3   OH228761   1.589   5.450   3.494
 9607TIP3    H128762   1.542   5.464   3.576
 9607TIP3    H228763   1.522   5.420   3.432
 9608TIP3   OH228764   7.967   5.834   2.638
 9608TIP3    H128765   8.030   5.810   2.570
 9608TIP3    H228766   7.891   5.779   2.620
 9609TIP3   OH228767   7.445   4.481   1.393
 9609TIP3    H128768   7.485   4.516   1.314
 9609TIP3    H228769   7.489   4.398   1.409
 9610TIP3   OH228770   2.328   4.694   0.807
 9610TIP3    H128771   2.328   4.615   0.754
 9610TIP3    H228772   2.241   4.696   0.848
 9611TIP3   OH228773   2.859   7.249   2.857
 9611TIP3    H128774   2.807   7.300   2.919
 9611TIP3    H228775   2.949   7.256   2.890
 9612TIP3   OH228776   0.048   6.920   3.910
 9612TIP3    H128777   0.120   6.930   3.848
 9612TIP3    H228778   0.076   6.968   3.987
 9613TIP3   OH228779   7.260   6.561   2.235
 9613TIP3    H128780   7.319   6.622   2.192
 9613TIP3    H228781   7.180   6.563   2.182
 9614TIP3   OH228782   4.996   2.161   2.620
 9614TIP3    H128783   4.974   2.115   2.701
 9614TIP3    H228784   5.084   2.194   2.635
 9615TIP3   OH228785   8.271   6.136   5.385
 9615TIP3    H128786   8.263   6.100   5.297
 9615TIP3    H228787   8.189   6.184   5.399
 9616TIP3   OH228788   1.778   3.907   2.356
 9616TIP3    H128789   1.789   3.818   2.390
 9616TIP3    H228790   1.684   3.913   2.338
 9617TIP3   OH228791   4.686   7.609   6.113
 9617TIP3    H128792   4.703   7.703   6.103
 9617TIP3    H228793   4.626   7.588   6.042
 9618TIP3   OH228794   1.008   5.957   1.374
 9618TIP3    H128795   0.971   5.924   1.456
 9618TIP3    H228796   0.932   5.990   1.326
 9619TIP3   OH228797   1.884   0.349   0.071
 9619TIP3    H128798   1.883   0.312  -0.018
 9619TIP3    H228799   1.797   0.329   0.106
 9620TIP3   OH228800   8.275   0.821   5.756
 9620TIP3    H128801   8.233   0.907   5.768
 9620TIP3    H228802   8.329   0.809   5.834
 9621TIP3   OH228803   4.347   0.184   3.461
 9621TIP3    H128804   4.431   0.165   3.420
 9621TIP3    H228805   4.360   0.166   3.554
 9622TIP3   OH228806   4.810   7.469   5.011
 9622TIP3    H128807   4.729   7.481   5.059
 9622TIP3    H228808   4.879   7.476   5.077
 9623TIP3   OH228809   3.044   6.013   6.225
 9623TIP3    H128810   3.003   5.982   6.306
 9623TIP3    H228811   3.132   5.975   6.227
 9624TIP3   OH228812   1.326   1.768   2.414
 9624TIP3    H128813   1.305   1.750   2.322
 9624TIP3    H228814   1.268   1.710   2.463
 9625TIP3   OH228815   2.010   0.066   4.101
 9625TIP3    H128816   1.943   0.046   4.036
 9625TIP3    H228817   1.975   0.141   4.149
 9626TIP3   OH228818   8.063   3.249   3.429
 9626TIP3    H128819   7.999   3.188   3.391
 9626TIP3    H228820   8.014   3.329   3.444
 9627TIP3   OH228821   6.396   3.003   2.077
 9627TIP3    H128822   6.364   3.081   2.033
 9627TIP3    H228823   6.382   3.021   2.170
 9628TIP3   OH228824   5.789   1.418   6.313
 9628TIP3    H128825   5.727   1.491   6.313
 9628TIP3    H228826   5.838   1.429   6.232
 9629TIP3   OH228827   0.358   6.035   4.519
 9629TIP3    H128828   0.343   6.030   4.425
 9629TIP3    H228829   0.387   5.948   4.544
 9630TIP3   OH228830   0.620   4.105   1.171
 9630TIP3    H128831   0.570   4.183   1.193
 9630TIP3    H228832   0.589   4.039   1.234
 9631TIP3   OH228833   2.302   5.233   0.735
 9631TIP3    H128834   2.326   5.311   0.685
 9631TIP3    H228835   2.261   5.174   0.670
 9632TIP3   OH228836   0.003   6.770   1.168
 9632TIP3    H128837   0.007   6.822   1.088
 9632TIP3    H228838   0.002   6.679   1.137
 9633TIP3   OH228839   4.076   4.747   4.266
 9633TIP3    H128840   4.003   4.749   4.328
 9633TIP3    H228841   4.146   4.700   4.313
 9634TIP3   OH228842   7.126   5.890   2.531
 9634TIP3    H128843   7.068   5.905   2.605
 9634TIP3    H228844   7.179   5.970   2.526
 9635TIP3   OH228845   0.457   4.842   0.634
 9635TIP3    H128846   0.519   4.914   0.628
 9635TIP3    H228847   0.433   4.822   0.543
 9636TIP3   OH228848   0.110   7.808   3.679
 9636TIP3    H128849   0.195   7.765   3.682
 9636TIP3    H228850   0.058   7.762   3.745
 9637TIP3   OH228851   6.894   7.577   5.512
 9637TIP3    H128852   6.918   7.669   5.525
 9637TIP3    H228853   6.914   7.560   5.420
 9638TIP3   OH228854   3.049   6.467   2.823
 9638TIP3    H128855   3.133   6.425   2.845
 9638TIP3    H228856   3.071   6.527   2.753
 9639TIP3   OH228857   7.354   3.649   5.178
 9639TIP3    H128858   7.359   3.598   5.097
 9639TIP3    H228859   7.446   3.664   5.203
 9640TIP3   OH228860   7.727   3.852   2.374
 9640TIP3    H128861   7.704   3.847   2.467
 9640TIP3    H228862   7.747   3.945   2.360
 9641TIP3   OH228863   2.910   2.844   5.086
 9641TIP3    H128864   2.848   2.840   5.159
 9641TIP3    H228865   2.905   2.757   5.046
 9642TIP3   OH228866   2.064   3.027   1.306
 9642TIP3    H128867   2.148   3.000   1.345
 9642TIP3    H228868   2.004   2.955   1.326
 9643TIP3   OH228869   2.023   6.607   4.379
 9643TIP3    H128870   2.076   6.685   4.360
 9643TIP3    H228871   2.086   6.535   4.380
 9644TIP3   OH228872   8.270   7.582   1.448
 9644TIP3    H128873   8.338   7.528   1.487
 9644TIP3    H228874   8.219   7.614   1.523
 9645TIP3   OH228875   6.334   7.436   1.664
 9645TIP3    H128876   6.329   7.388   1.747
 9645TIP3    H228877   6.410   7.400   1.620
 9646TIP3   OH228878   1.263   3.032   0.058
 9646TIP3    H128879   1.280   3.054   0.150
 9646TIP3    H228880   1.311   3.098   0.008
 9647TIP3   OH228881   5.805   0.819   0.974
 9647TIP3    H128882   5.733   0.877   1.000
 9647TIP3    H228883   5.772   0.731   0.990
 9648TIP3   OH228884   0.959   0.983   2.016
 9648TIP3    H128885   0.971   0.894   2.048
 9648TIP3    H228886   1.010   1.038   2.076
 9649TIP3   OH228887   5.748   0.578   2.218
 9649TIP3    H128888   5.706   0.653   2.176
 9649TIP3    H228889   5.700   0.566   2.300
 9650TIP3   OH228890   0.772   1.732   5.262
 9650TIP3    H128891   0.782   1.821   5.294
 9650TIP3    H228892   0.796   1.676   5.336
 9651TIP3   OH228893   5.600   2.753   5.639
 9651TIP3    H128894   5.599   2.673   5.691
 9651TIP3    H228895   5.693   2.777   5.633
 9652TIP3   OH228896   2.041   1.152   4.951
 9652TIP3    H128897   2.123   1.125   4.911
 9652TIP3    H228898   2.067   1.215   5.019
 9653TIP3   OH228899   6.587   5.157   2.313
 9653TIP3    H128900   6.539   5.091   2.263
 9653TIP3    H228901   6.597   5.119   2.400
 9654TIP3   OH228902   3.985   6.513   4.012
 9654TIP3    H128903   3.980   6.486   3.920
 9654TIP3    H228904   3.979   6.608   4.010
 9655TIP3   OH228905   5.169   6.529   5.586
 9655TIP3    H128906   5.157   6.598   5.522
 9655TIP3    H228907   5.240   6.475   5.551
 9656TIP3   OH228908   5.263   7.304   5.997
 9656TIP3    H128909   5.243   7.392   6.028
 9656TIP3    H228910   5.346   7.313   5.951
 9657TIP3   OH228911   0.334   5.981   3.961
 9657TIP3    H128912   0.377   5.896   3.954
 9657TIP3    H228913   0.265   5.979   3.894
 9658TIP3   OH228914   7.816   0.289   5.761
 9658TIP3    H128915   7.876   0.309   5.689
 9658TIP3    H228916   7.834   0.356   5.827
 9659TIP3   OH228917   5.453   0.563   4.736
 9659TIP3    H128918   5.444   0.512   4.656
 9659TIP3    H228919   5.492   0.646   4.708
 9660TIP3   OH228920   1.750   2.224   6.364
 9660TIP3    H128921   1.761   2.318   6.379
 9660TIP3    H228922   1.822   2.183   6.412
 9661TIP3   OH228923   5.681   2.798   5.979
 9661TIP3    H128924   5.612   2.769   6.038
 9661TIP3    H228925   5.721   2.873   6.024
 9662TIP3   OH228926   7.312   0.806   3.816
 9662TIP3    H128927   7.331   0.737   3.880
 9662TIP3    H228928   7.250   0.864   3.860
 9663TIP3   OH228929   3.469   3.715   2.062
 9663TIP3    H128930   3.543   3.749   2.112
 9663TIP3    H228931   3.508   3.686   1.979
 9664TIP3   OH228932   0.987   0.158   6.751
 9664TIP3    H128933   0.917   0.098   6.726
 9664TIP3    H228934   1.053   0.148   6.683
 9665TIP3   OH228935   2.651   5.884   4.572
 9665TIP3    H128936   2.695   5.828   4.509
 9665TIP3    H228937   2.683   5.854   4.657
 9666TIP3   OH228938   1.644   6.538   3.516
 9666TIP3    H128939   1.687   6.517   3.433
 9666TIP3    H228940   1.580   6.605   3.493
 9667TIP3   OH228941   7.719   6.064   3.758
 9667TIP3    H128942   7.644   6.118   3.734
 9667TIP3    H228943   7.708   5.983   3.710
 9668TIP3   OH228944   2.315   5.306   2.975
 9668TIP3    H128945   2.276   5.250   3.042
 9668TIP3    H228946   2.252   5.377   2.964
 9669TIP3   OH228947   6.898   3.105   5.135
 9669TIP3    H128948   6.829   3.044   5.161
 9669TIP3    H228949   6.888   3.115   5.041
 9670TIP3   OH228950   4.269   4.298   2.520
 9670TIP3    H128951   4.279   4.269   2.430
 9670TIP3    H228952   4.210   4.233   2.560
 9671TIP3   OH228953   2.416   6.005   1.327
 9671TIP3    H128954   2.481   5.980   1.261
 9671TIP3    H228955   2.365   5.925   1.342
 9672TIP3   OH228956   6.636   0.848   6.263
 9672TIP3    H128957   6.605   0.757   6.261
 9672TIP3    H228958   6.708   0.850   6.200
 9673TIP3   OH228959   7.156   0.018   5.325
 9673TIP3    H128960   7.089   0.029   5.258
 9673TIP3    H228961   7.238   0.036   5.280
 9674TIP3   OH228962   8.172   7.394   4.469
 9674TIP3    H128963   8.079   7.417   4.477
 9674TIP3    H228964   8.211   7.467   4.420
 9675TIP3   OH228965   5.157   1.597   5.986
 9675TIP3    H128966   5.126   1.588   6.076
 9675TIP3    H228967   5.077   1.610   5.934
 9676TIP3   OH228968   6.947   2.332   3.281
 9676TIP3    H128969   6.937   2.242   3.250
 9676TIP3    H228970   7.040   2.340   3.301
 9677TIP3   OH228971   2.544   0.688   6.726
 9677TIP3    H128972   2.495   0.699   6.807
 9677TIP3    H228973   2.606   0.760   6.725
 9678TIP3   OH228974   3.681   7.700   2.598
 9678TIP3    H128975   3.684   7.614   2.641
 9678TIP3    H228976   3.725   7.685   2.514
 9679TIP3   OH228977   1.077   5.124   1.886
 9679TIP3    H128978   1.004   5.152   1.941
 9679TIP3    H228979   1.121   5.205   1.861
 9680TIP3   OH228980   1.267   3.325   6.176
 9680TIP3    H128981   1.182   3.361   6.149
 9680TIP3    H228982   1.273   3.344   6.270
 9681TIP3   OH228983   1.305   3.628   1.938
 9681TIP3    H128984   1.220   3.636   1.896
 9681TIP3    H228985   1.299   3.548   1.991
 9682TIP3   OH228986   7.926   0.931   0.369
 9682TIP3    H128987   7.854   0.950   0.430
 9682TIP3    H228988   8.004   0.964   0.413
 9683TIP3   OH228989   1.707   7.603   4.884
 9683TIP3    H128990   1.675   7.595   4.795
 9683TIP3    H228991   1.765   7.679   4.883
 9684TIP3   OH228992   0.252   7.162   5.725
 9684TIP3    H128993   0.170   7.210   5.714
 9684TIP3    H228994   0.236   7.078   5.682
 9685TIP3   OH228995   1.155   4.772   4.038
 9685TIP3    H128996   1.077   4.793   3.986
 9685TIP3    H228997   1.131   4.693   4.087
 9686TIP3   OH228998   5.403   1.122   0.438
 9686TIP3    H128999   5.389   1.053   0.373
 9686TIP3    H229000   5.467   1.180   0.398
 9687TIP3   OH229001   2.542   7.149   0.886
 9687TIP3    H129002   2.487   7.227   0.890
 9687TIP3    H229003   2.512   7.103   0.808
 9688TIP3   OH229004   0.379   3.599   6.390
 9688TIP3    H129005   0.324   3.671   6.358
 9688TIP3    H229006   0.320   3.547   6.445
 9689TIP3   OH229007   0.502   7.050   2.595
 9689TIP3    H129008   0.564   7.031   2.525
 9689TIP3    H229009   0.556   7.085   2.666
 9690TIP3   OH229010   6.301   0.165   0.290
 9690TIP3    H129011   6.252   0.107   0.348
 9690TIP3    H229012   6.257   0.158   0.206
 9691TIP3   OH229013   7.590   0.193   0.346
 9691TIP3    H129014   7.510   0.232   0.312
 9691TIP3    H229015   7.590   0.104   0.311
 9692TIP3   OH229016   8.030   3.620   2.348
 9692TIP3    H129017   8.028   3.700   2.399
 9692TIP3    H229018   8.091   3.563   2.395
 9693TIP3   OH229019   3.350   3.079   1.413
 9693TIP3    H129020   3.316   3.003   1.365
 9693TIP3    H229021   3.325   3.062   1.504
 9694TIP3   OH229022   5.125   2.208   4.407
 9694TIP3    H129023   5.211   2.198   4.449
 9694TIP3    H229024   5.126   2.146   4.334
 9695TIP3   OH229025   5.493   7.875   2.459
 9695TIP3    H129026   5.406   7.909   2.481
 9695TIP3    H229027   5.478   7.811   2.390
 9696TIP3   OH229028   3.956   2.268   0.496
 9696TIP3    H129029   4.028   2.205   0.498
 9696TIP3    H229030   3.994   2.349   0.462
 9697TIP3   OH229031   2.462   5.671   6.347
 9697TIP3    H129032   2.423   5.706   6.427
 9697TIP3    H229033   2.516   5.598   6.376
 9698TIP3   OH229034   7.095   0.722   4.191
 9698TIP3    H129035   7.070   0.730   4.099
 9698TIP3    H229036   7.054   0.798   4.233
 9699TIP3   OH229037   5.367   2.604   0.254
 9699TIP3    H129038   5.414   2.559   0.184
 9699TIP3    H229039   5.275   2.586   0.236
 9700TIP3   OH229040   2.310   3.518   2.904
 9700TIP3    H129041   2.220   3.515   2.937
 9700TIP3    H229042   2.313   3.598   2.851
 9701TIP3   OH229043   1.644   2.668   6.734
 9701TIP3    H129044   1.651   2.618   6.816
 9701TIP3    H229045   1.574   2.731   6.750
 9702TIP3   OH229046   3.490   3.367   2.779
 9702TIP3    H129047   3.462   3.365   2.871
 9702TIP3    H229048   3.491   3.460   2.756
 9703TIP3   OH229049   8.164   7.801   5.182
 9703TIP3    H129050   8.126   7.889   5.182
 9703TIP3    H229051   8.125   7.758   5.258
 9704TIP3   OH229052   7.332   0.010   6.813
 9704TIP3    H129053   7.400   0.039   6.873
 9704TIP3    H229054   7.314   0.087   6.758
 9705TIP3   OH229055   1.302   2.217  -0.003
 9705TIP3    H129056   1.317   2.253   0.085
 9705TIP3    H229057   1.389   2.215  -0.043
 9706TIP3   OH229058   1.777   5.077   2.331
 9706TIP3    H129059   1.684   5.093   2.316
 9706TIP3    H229060   1.809   5.155   2.375
 9707TIP3   OH229061   8.237   6.127   3.878
 9707TIP3    H129062   8.273   6.116   3.790
 9707TIP3    H229063   8.148   6.158   3.864
 9708TIP3   OH229064   4.557   4.674   5.000
 9708TIP3    H129065   4.552   4.581   5.023
 9708TIP3    H229066   4.622   4.710   5.061
 9709TIP3   OH229067   3.587   3.240   1.392
 9709TIP3    H129068   3.540   3.159   1.373
 9709TIP3    H229069   3.585   3.288   1.308
 9710TIP3   OH229070   6.132   1.294   3.431
 9710TIP3    H129071   6.088   1.377   3.449
 9710TIP3    H229072   6.126   1.245   3.514
 9711TIP3   OH229073   6.423   2.330   5.365
 9711TIP3    H129074   6.506   2.292   5.393
 9711TIP3    H229075   6.372   2.338   5.445
 9712TIP3   OH229076   8.056   5.423   6.197
 9712TIP3    H129077   8.028   5.331   6.188
 9712TIP3    H229078   7.986   5.464   6.248
 9713TIP3   OH229079   7.316   5.723   2.739
 9713TIP3    H129080   7.262   5.723   2.661
 9713TIP3    H229081   7.355   5.636   2.742
 9714TIP3   OH229082   1.071   1.591   1.775
 9714TIP3    H129083   1.099   1.683   1.774
 9714TIP3    H229084   1.030   1.580   1.861
 9715TIP3   OH229085   1.174   3.779   2.920
 9715TIP3    H129086   1.130   3.720   2.860
 9715TIP3    H229087   1.123   3.860   2.915
 9716TIP3   OH229088   1.287   5.918   1.359
 9716TIP3    H129089   1.193   5.938   1.367
 9716TIP3    H229090   1.291   5.823   1.352
 9717TIP3   OH229091   2.367   6.120   4.071
 9717TIP3    H129092   2.295   6.066   4.038
 9717TIP3    H229093   2.445   6.082   4.031
 9718TIP3   OH229094   3.390   3.118   2.779
 9718TIP3    H129095   3.428   3.205   2.764
 9718TIP3    H229096   3.303   3.136   2.813
 9719TIP3   OH229097   8.062   0.422   6.798
 9719TIP3    H129098   8.110   0.494   6.838
 9719TIP3    H229099   8.014   0.463   6.726
 9720TIP3   OH229100   6.551   6.309   6.133
 9720TIP3    H129101   6.529   6.293   6.224
 9720TIP3    H229102   6.520   6.232   6.086
 9721TIP3   OH229103   2.509   0.742   0.450
 9721TIP3    H129104   2.499   0.786   0.366
 9721TIP3    H229105   2.583   0.786   0.492
 9722TIP3   OH229106   4.890   1.957   3.240
 9722TIP3    H129107   4.979   1.949   3.273
 9722TIP3    H229108   4.836   1.911   3.305
 9723TIP3   OH229109   0.133   2.079   1.507
 9723TIP3    H129110   0.097   1.994   1.531
 9723TIP3    H229111   0.128   2.082   1.412
 9724TIP3   OH229112   6.746   4.932   4.256
 9724TIP3    H129113   6.769   4.839   4.258
 9724TIP3    H229114   6.657   4.935   4.223
 9725TIP3   OH229115   2.437   0.186   6.075
 9725TIP3    H129116   2.418   0.120   6.141
 9725TIP3    H229117   2.361   0.186   6.017
 9726TIP3   OH229118   8.394   1.777   5.722
 9726TIP3    H129119   8.328   1.842   5.695
 9726TIP3    H229120   8.362   1.746   5.806
 9727TIP3   OH229121   4.082   6.843   0.249
 9727TIP3    H129122   4.131   6.844   0.331
 9727TIP3    H229123   4.129   6.905   0.193
 9728TIP3   OH229124   1.528   7.789   6.329
 9728TIP3    H129125   1.534   7.881   6.355
 9728TIP3    H229126   1.552   7.788   6.236
 9729TIP3   OH229127   7.876   2.378   2.786
 9729TIP3    H129128   7.802   2.416   2.738
 9729TIP3    H229129   7.940   2.357   2.719
 9730TIP3   OH229130   8.003   5.243   6.578
 9730TIP3    H129131   8.047   5.327   6.567
 9730TIP3    H229132   8.069   5.178   6.551
 9731TIP3   OH229133   8.108   6.210   4.380
 9731TIP3    H129134   8.168   6.193   4.452
 9731TIP3    H229135   8.126   6.139   4.318
 9732TIP3   OH229136   1.101   4.760   5.024
 9732TIP3    H129137   1.078   4.825   5.090
 9732TIP3    H229138   1.046   4.781   4.949
 9733TIP3   OH229139   5.069   3.799   2.693
 9733TIP3    H129140   4.998   3.862   2.681
 9733TIP3    H229141   5.024   3.718   2.717
 9734TIP3   OH229142   1.710   5.734   5.290
 9734TIP3    H129143   1.745   5.710   5.376
 9734TIP3    H229144   1.681   5.824   5.300
 9735TIP3   OH229145   6.197   4.700   2.724
 9735TIP3    H129146   6.188   4.607   2.706
 9735TIP3    H229147   6.225   4.738   2.641
 9736TIP3   OH229148   3.415   7.507   2.658
 9736TIP3    H129149   3.474   7.561   2.710
 9736TIP3    H229150   3.342   7.487   2.717
 9737TIP3   OH229151   5.534   2.257   0.126
 9737TIP3    H129152   5.446   2.278   0.094
 9737TIP3    H229153   5.588   2.330   0.094
 9738TIP3   OH229154   4.315   6.869   1.995
 9738TIP3    H129155   4.263   6.797   2.031
 9738TIP3    H229156   4.258   6.908   1.928
 9739TIP3   OH229157   1.530   1.401   0.392
 9739TIP3    H129158   1.452   1.431   0.346
 9739TIP3    H229159   1.547   1.313   0.357
 9740TIP3   OH229160   0.631   7.505   5.566
 9740TIP3    H129161   0.659   7.480   5.654
 9740TIP3    H229162   0.694   7.463   5.508
 9741TIP3   OH229163   4.465   4.933   1.035
 9741TIP3    H129164   4.466   4.961   0.944
 9741TIP3    H229165   4.544   4.880   1.044
 9742TIP3   OH229166   7.225   1.470   1.025
 9742TIP3    H129167   7.290   1.490   1.093
 9742TIP3    H229168   7.225   1.548   0.969
 9743TIP3   OH229169   6.523   7.588   4.606
 9743TIP3    H129170   6.500   7.543   4.687
 9743TIP3    H229171   6.488   7.532   4.536
 9744TIP3   OH229172   0.393   5.470   2.784
 9744TIP3    H129173   0.485   5.481   2.807
 9744TIP3    H229174   0.387   5.380   2.750
 9745TIP3   OH229175   4.316   0.113   1.602
 9745TIP3    H129176   4.393   0.071   1.641
 9745TIP3    H229177   4.296   0.059   1.526
 9746TIP3   OH229178   0.658   1.092   2.900
 9746TIP3    H129179   0.614   1.063   2.980
 9746TIP3    H229180   0.586   1.111   2.840
 9747TIP3   OH229181   5.910   7.387   1.918
 9747TIP3    H129182   5.980   7.386   1.984
 9747TIP3    H229183   5.953   7.417   1.838
 9748TIP3   OH229184   2.374   0.377   4.447
 9748TIP3    H129185   2.409   0.289   4.434
 9748TIP3    H229186   2.316   0.369   4.524
 9749TIP3   OH229187   5.440   1.815   2.783
 9749TIP3    H129188   5.382   1.823   2.859
 9749TIP3    H229189   5.395   1.753   2.725
 9750TIP3   OH229190   5.955   2.622   5.830
 9750TIP3    H129191   5.867   2.657   5.846
 9750TIP3    H229192   5.982   2.663   5.748
 9751TIP3   OH229193   0.950   3.575   2.557
 9751TIP3    H129194   0.950   3.668   2.581
 9751TIP3    H229195   1.004   3.569   2.479
 9752TIP3   OH229196   0.545   5.329   0.193
 9752TIP3    H129197   0.481   5.259   0.175
 9752TIP3    H229198   0.629   5.284   0.194
 9753TIP3   OH229199   7.431   1.662   3.771
 9753TIP3    H129200   7.479   1.582   3.792
 9753TIP3    H229201   7.495   1.732   3.780
 9754TIP3   OH229202   4.629   2.531   2.465
 9754TIP3    H129203   4.665   2.563   2.548
 9754TIP3    H229204   4.671   2.446   2.452
 9755TIP3   OH229205   2.095   7.795   2.942
 9755TIP3    H129206   2.056   7.840   2.868
 9755TIP3    H229207   2.188   7.817   2.937
 9756TIP3   OH229208   1.652   4.258   5.264
 9756TIP3    H129209   1.561   4.246   5.292
 9756TIP3    H229210   1.660   4.352   5.247
 9757TIP3   OH229211   7.224   6.717   0.565
 9757TIP3    H129212   7.156   6.671   0.516
 9757TIP3    H229213   7.276   6.647   0.606
 9758TIP3   OH229214   1.120   1.157   2.724
 9758TIP3    H129215   1.156   1.240   2.692
 9758TIP3    H229216   1.026   1.173   2.730
 9759TIP3   OH229217   5.794   3.083   0.419
 9759TIP3    H129218   5.779   3.043   0.505
 9759TIP3    H229219   5.737   3.160   0.418
 9760TIP3   OH229220   3.153   1.396   4.798
 9760TIP3    H129221   3.150   1.449   4.877
 9760TIP3    H229222   3.163   1.306   4.830
 9761TIP3   OH229223   0.522   4.087   3.485
 9761TIP3    H129224   0.603   4.044   3.457
 9761TIP3    H229225   0.512   4.160   3.426
 9762TIP3   OH229226   2.396   7.117   6.450
 9762TIP3    H129227   2.305   7.141   6.469
 9762TIP3    H229228   2.431   7.091   6.535
 9763TIP3   OH229229   5.685   5.958   5.536
 9763TIP3    H129230   5.708   6.047   5.509
 9763TIP3    H229231   5.719   5.903   5.466
 9764TIP3   OH229232   0.803   5.540   3.463
 9764TIP3    H129233   0.787   5.502   3.377
 9764TIP3    H229234   0.829   5.466   3.517
 9765TIP3   OH229235   4.192   6.430   4.883
 9765TIP3    H129236   4.233   6.422   4.797
 9765TIP3    H229237   4.113   6.377   4.878
 9766TIP3   OH229238   2.517   4.645   5.898
 9766TIP3    H129239   2.560   4.636   5.812
 9766TIP3    H229240   2.493   4.555   5.922
 9767TIP3   OH229241   3.419   6.184   5.307
 9767TIP3    H129242   3.351   6.140   5.358
 9767TIP3    H229243   3.372   6.235   5.241
 9768TIP3   OH229244   6.505   0.979   6.600
 9768TIP3    H129245   6.585   0.985   6.651
 9768TIP3    H229246   6.443   0.933   6.658
 9769TIP3   OH229247   1.014   6.581   6.686
 9769TIP3    H129248   1.075   6.544   6.750
 9769TIP3    H229249   0.947   6.512   6.675
 9770TIP3   OH229250   7.092   1.246   3.663
 9770TIP3    H129251   7.002   1.224   3.637
 9770TIP3    H229252   7.139   1.162   3.656
 9771TIP3   OH229253   3.737   2.890   0.184
 9771TIP3    H129254   3.645   2.875   0.160
 9771TIP3    H229255   3.774   2.939   0.110
 9772TIP3   OH229256   2.950   4.318   6.455
 9772TIP3    H129257   2.901   4.359   6.526
 9772TIP3    H229258   3.042   4.326   6.482
 9773TIP3   OH229259   7.659   1.614   6.811
 9773TIP3    H129260   7.579   1.666   6.815
 9773TIP3    H229261   7.637   1.539   6.757
 9774TIP3   OH229262   6.431   0.869   0.702
 9774TIP3    H129263   6.430   0.833   0.791
 9774TIP3    H229264   6.371   0.943   0.705
 9775TIP3   OH229265   0.178   0.723   2.527
 9775TIP3    H129266   0.207   0.653   2.586
 9775TIP3    H229267   0.085   0.734   2.546
 9776TIP3   OH229268   7.665   2.544   1.582
 9776TIP3    H129269   7.759   2.559   1.569
 9776TIP3    H229270   7.622   2.597   1.515
 9777TIP3   OH229271   8.021   7.181   5.567
 9777TIP3    H129272   8.020   7.148   5.657
 9777TIP3    H229273   8.097   7.140   5.527
 9778TIP3   OH229274   5.306   1.437   3.921
 9778TIP3    H129275   5.229   1.451   3.975
 9778TIP3    H229276   5.276   1.381   3.849
 9779TIP3   OH229277   1.499   4.531   2.889
 9779TIP3    H129278   1.434   4.474   2.848
 9779TIP3    H229279   1.461   4.554   2.973
 9780TIP3   OH229280   7.308   7.789   4.403
 9780TIP3    H129281   7.306   7.856   4.471
 9780TIP3    H229282   7.400   7.765   4.395
 9781TIP3   OH229283   8.356   5.993   5.639
 9781TIP3    H129284   8.378   6.059   5.705
 9781TIP3    H229285   8.320   6.044   5.566
 9782TIP3   OH229286   7.213   3.261   4.859
 9782TIP3    H129287   7.220   3.170   4.886
 9782TIP3    H229288   7.148   3.300   4.918
 9783TIP3   OH229289   5.637   5.334   5.756
 9783TIP3    H129290   5.685   5.254   5.777
 9783TIP3    H229291   5.592   5.315   5.674
 9784TIP3   OH229292   0.353   6.408   3.442
 9784TIP3    H129293   0.300   6.355   3.383
 9784TIP3    H229294   0.441   6.370   3.437
 9785TIP3   OH229295   3.349   0.033   2.375
 9785TIP3    H129296   3.366   0.106   2.435
 9785TIP3    H229297   3.310  -0.035   2.430
 9786TIP3   OH229298   6.893   2.853   2.238
 9786TIP3    H129299   6.806   2.865   2.200
 9786TIP3    H229300   6.908   2.758   2.233
 9787TIP3   OH229301   0.499   0.608   0.071
 9787TIP3    H129302   0.461   0.588   0.157
 9787TIP3    H229303   0.442   0.676   0.035
 9788TIP3   OH229304   1.015   5.301   4.063
 9788TIP3    H129305   1.063   5.366   4.116
 9788TIP3    H229306   0.946   5.351   4.020
 9789TIP3   OH229307   4.610   7.111   0.559
 9789TIP3    H129308   4.591   7.079   0.471
 9789TIP3    H229309   4.677   7.179   0.545
 9790TIP3   OH229310   6.479   2.884   5.854
 9790TIP3    H129311   6.478   2.867   5.949
 9790TIP3    H229312   6.528   2.965   5.845
 9791TIP3   OH229313   7.682   5.720   5.427
 9791TIP3    H129314   7.587   5.706   5.427
 9791TIP3    H229315   7.701   5.755   5.514
 9792TIP3   OH229316   5.507   4.891   1.022
 9792TIP3    H129317   5.517   4.949   1.098
 9792TIP3    H229318   5.431   4.925   0.976
 9793TIP3   OH229319   7.071   5.614   0.885
 9793TIP3    H129320   7.106   5.655   0.964
 9793TIP3    H229321   7.146   5.606   0.826
 9794TIP3   OH229322   6.081   7.791   2.051
 9794TIP3    H129323   5.998   7.749   2.027
 9794TIP3    H229324   6.082   7.872   2.001
 9795TIP3   OH229325   6.097   0.458   1.692
 9795TIP3    H129326   6.079   0.526   1.626
 9795TIP3    H229327   6.057   0.379   1.656
 9796TIP3   OH229328   6.123   7.064   1.940
 9796TIP3    H129329   6.212   7.089   1.964
 9796TIP3    H229330   6.115   6.974   1.970
 9797TIP3   OH229331   3.905   0.673   5.306
 9797TIP3    H129332   3.839   0.682   5.375
 9797TIP3    H229333   3.962   0.750   5.318
 9798TIP3   OH229334   7.829   4.968   5.491
 9798TIP3    H129335   7.907   4.916   5.511
 9798TIP3    H229336   7.855   5.022   5.417
 9799TIP3   OH229337   0.034   2.653   3.719
 9799TIP3    H129338   0.070   2.582   3.667
 9799TIP3    H229339   0.099   2.668   3.788
 9800TIP3   OH229340   5.075   5.549   1.436
 9800TIP3    H129341   5.093   5.543   1.342
 9800TIP3    H229342   5.033   5.466   1.458
 9801TIP3   OH229343   1.825   6.646   1.293
 9801TIP3    H129344   1.772   6.614   1.220
 9801TIP3    H229345   1.803   6.589   1.366
 9802TIP3   OH229346   6.996   5.434   0.415
 9802TIP3    H129347   7.080   5.418   0.457
 9802TIP3    H229348   7.013   5.422   0.321
 9803TIP3   OH229349   3.169   3.153   4.107
 9803TIP3    H129350   3.214   3.069   4.097
 9803TIP3    H229351   3.160   3.164   4.202
 9804TIP3   OH229352   4.771   1.397   6.314
 9804TIP3    H129353   4.693   1.405   6.259
 9804TIP3    H229354   4.841   1.439   6.263
 9805TIP3   OH229355   6.736   4.521   6.698
 9805TIP3    H129356   6.818   4.559   6.665
 9805TIP3    H229357   6.667   4.566   6.649
 9806TIP3   OH229358   4.634   0.316   1.730
 9806TIP3    H129359   4.624   0.220   1.735
 9806TIP3    H229360   4.713   0.334   1.780
 9807TIP3   OH229361   0.845   3.352  -0.009
 9807TIP3    H129362   0.903   3.424   0.019
 9807TIP3    H229363   0.890   3.273   0.021
 9808TIP3   OH229364   5.255   0.558   6.409
 9808TIP3    H129365   5.213   0.594   6.487
 9808TIP3    H229366   5.311   0.629   6.377
 9809TIP3   OH229367   0.487   5.842   5.296
 9809TIP3    H129368   0.489   5.816   5.204
 9809TIP3    H229369   0.524   5.768   5.344
 9810TIP3   OH229370   4.753   0.800   0.018
 9810TIP3    H129371   4.765   0.843   0.103
 9810TIP3    H229372   4.805   0.853  -0.043
 9811TIP3   OH229373   4.699   3.403   3.619
 9811TIP3    H129374   4.732   3.333   3.563
 9811TIP3    H229375   4.604   3.399   3.610
 9812TIP3   OH229376   5.085   6.868   2.786
 9812TIP3    H129377   5.088   6.937   2.720
 9812TIP3    H229378   5.130   6.794   2.745
 9813TIP3   OH229379   4.596   6.330   6.673
 9813TIP3    H129380   4.588   6.316   6.579
 9813TIP3    H229381   4.510   6.361   6.700
 9814TIP3   OH229382   7.334   2.670   1.694
 9814TIP3    H129383   7.260   2.692   1.750
 9814TIP3    H229384   7.383   2.752   1.686
 9815TIP3   OH229385   3.262   5.338   5.238
 9815TIP3    H129386   3.310   5.255   5.235
 9815TIP3    H229387   3.261   5.369   5.148
 9816TIP3   OH229388   0.950   2.320   4.881
 9816TIP3    H129389   0.975   2.412   4.881
 9816TIP3    H229390   0.944   2.296   4.973
 9817TIP3   OH229391   2.641   3.986   3.020
 9817TIP3    H129392   2.722   3.983   2.969
 9817TIP3    H229393   2.599   3.902   3.003
 9818TIP3   OH229394   6.376   2.939   2.956
 9818TIP3    H129395   6.354   3.018   3.006
 9818TIP3    H229396   6.425   2.884   3.018
 9819TIP3   OH229397   6.549   6.061   5.774
 9819TIP3    H129398   6.628   6.114   5.784
 9819TIP3    H229399   6.507   6.094   5.695
 9820TIP3   OH229400   6.906   4.641   4.986
 9820TIP3    H129401   6.921   4.667   4.895
 9820TIP3    H229402   6.827   4.689   5.012
 9821TIP3   OH229403   6.156   5.751   3.151
 9821TIP3    H129404   6.071   5.719   3.119
 9821TIP3    H229405   6.183   5.686   3.215
 9822TIP3   OH229406   3.145   0.810   0.752
 9822TIP3    H129407   3.162   0.799   0.846
 9822TIP3    H229408   3.112   0.900   0.744
 9823TIP3   OH229409   4.257   7.066   3.147
 9823TIP3    H129410   4.282   7.094   3.235
 9823TIP3    H229411   4.280   7.139   3.090
 9824TIP3   OH229412   7.082   1.613   5.506
 9824TIP3    H129413   7.035   1.613   5.589
 9824TIP3    H229414   7.083   1.521   5.480
 9825TIP3   OH229415   1.876   0.380   5.916
 9825TIP3    H129416   1.787   0.365   5.949
 9825TIP3    H229417   1.871   0.356   5.823
 9826TIP3   OH229418   8.282   7.591   5.863
 9826TIP3    H129419   8.349   7.652   5.833
 9826TIP3    H229420   8.330   7.515   5.893
 9827TIP3   OH229421   8.117   7.612   0.428
 9827TIP3    H129422   8.207   7.631   0.455
 9827TIP3    H229423   8.075   7.697   0.421
 9828TIP3   OH229424   6.047   6.017   0.322
 9828TIP3    H129425   6.097   5.962   0.382
 9828TIP3    H229426   6.113   6.062   0.270
 9829TIP3   OH229427   4.651   3.032   3.401
 9829TIP3    H129428   4.560   3.008   3.380
 9829TIP3    H229429   4.650   3.128   3.402
 9830TIP3   OH229430   7.474   0.486   5.759
 9830TIP3    H129431   7.541   0.494   5.692
 9830TIP3    H229432   7.395   0.524   5.720
 9831TIP3   OH229433   3.440   7.723   3.234
 9831TIP3    H129434   3.530   7.730   3.201
 9831TIP3    H229435   3.443   7.652   3.298
 9832TIP3   OH229436   0.801   7.571   0.321
 9832TIP3    H129437   0.712   7.593   0.347
 9832TIP3    H229438   0.801   7.476   0.312
 9833TIP3   OH229439   1.456   6.307   6.429
 9833TIP3    H129440   1.419   6.230   6.472
 9833TIP3    H229441   1.550   6.302   6.449
 9834TIP3   OH229442   2.800   7.881   6.171
 9834TIP3    H129443   2.864   7.948   6.145
 9834TIP3    H229444   2.853   7.812   6.210
 9835TIP3   OH229445   0.511   7.010   0.575
 9835TIP3    H129446   0.441   6.981   0.517
 9835TIP3    H229447   0.503   7.105   0.577
 9836TIP3   OH229448   4.614   1.179   6.657
 9836TIP3    H129449   4.570   1.096   6.673
 9836TIP3    H229450   4.670   1.193   6.733
 9837TIP3   OH229451   4.616   2.561   6.809
 9837TIP3    H129452   4.571   2.565   6.894
 9837TIP3    H229453   4.628   2.652   6.784
 9838TIP3   OH229454   6.031   3.242   0.474
 9838TIP3    H129455   6.084   3.227   0.552
 9838TIP3    H229456   5.970   3.168   0.472
 9839TIP3   OH229457   0.653   5.985   6.558
 9839TIP3    H129458   0.698   6.061   6.520
 9839TIP3    H229459   0.666   5.994   6.652
 9840TIP3   OH229460   7.049   3.147   0.895
 9840TIP3    H129461   7.094   3.226   0.924
 9840TIP3    H229462   7.070   3.082   0.962
 9841TIP3   OH229463   2.189   2.391   2.365
 9841TIP3    H129464   2.212   2.403   2.272
 9841TIP3    H229465   2.102   2.429   2.373
 9842TIP3   OH229466   4.384   5.615   4.721
 9842TIP3    H129467   4.446   5.592   4.652
 9842TIP3    H229468   4.398   5.550   4.790
 9843TIP3   OH229469   5.144   6.614   0.357
 9843TIP3    H129470   5.117   6.703   0.380
 9843TIP3    H229471   5.147   6.613   0.261
 9844TIP3   OH229472   7.661   3.942   4.094
 9844TIP3    H129473   7.649   3.926   4.001
 9844TIP3    H229474   7.591   3.893   4.136
 9845TIP3   OH229475   6.286   1.414   6.694
 9845TIP3    H129476   6.218   1.361   6.736
 9845TIP3    H229477   6.339   1.350   6.645
 9846TIP3   OH229478   6.178   1.178   0.833
 9846TIP3    H129479   6.119   1.249   0.857
 9846TIP3    H229480   6.265   1.218   0.835
 9847TIP3   OH229481   4.704   1.618   2.712
 9847TIP3    H129482   4.633   1.561   2.682
 9847TIP3    H229483   4.749   1.567   2.779
 9848TIP3   OH229484   5.133   0.666   0.099
 9848TIP3    H129485   5.115   0.752   0.138
 9848TIP3    H229486   5.055   0.614   0.119
 9849TIP3   OH229487   3.292   1.532   6.135
 9849TIP3    H129488   3.280   1.467   6.204
 9849TIP3    H229489   3.347   1.487   6.070
 9850TIP3   OH229490   1.175   0.430   3.865
 9850TIP3    H129491   1.100   0.421   3.806
 9850TIP3    H229492   1.199   0.523   3.860
 9851TIP3   OH229493   6.051   3.183   6.373
 9851TIP3    H129494   6.126   3.125   6.361
 9851TIP3    H229495   5.996   3.138   6.437
 9852TIP3   OH229496   3.613   1.444   4.327
 9852TIP3    H129497   3.547   1.496   4.281
 9852TIP3    H229498   3.680   1.508   4.353
 9853TIP3   OH229499   6.035   3.925   5.590
 9853TIP3    H129500   6.080   3.860   5.536
 9853TIP3    H229501   5.987   3.979   5.528
 9854TIP3   OH229502   1.551   2.470   1.321
 9854TIP3    H129503   1.641   2.493   1.347
 9854TIP3    H229504   1.558   2.382   1.285
 9855TIP3   OH229505   4.255   6.038   1.909
 9855TIP3    H129506   4.328   5.999   1.862
 9855TIP3    H229507   4.180   6.028   1.850
 9856TIP3   OH229508   5.900   2.130   6.504
 9856TIP3    H129509   5.949   2.193   6.452
 9856TIP3    H229510   5.812   2.131   6.467
 9857TIP3   OH229511   1.776   7.558   0.686
 9857TIP3    H129512   1.731   7.478   0.661
 9857TIP3    H229513   1.860   7.554   0.639
 9858TIP3   OH229514   1.412   4.922   4.738
 9858TIP3    H129515   1.409   5.007   4.780
 9858TIP3    H229516   1.381   4.861   4.805
 9859TIP3   OH229517   1.402   3.564   0.170
 9859TIP3    H129518   1.471   3.613   0.125
 9859TIP3    H229519   1.438   3.476   0.180
 9860TIP3   OH229520   8.260   7.640   2.573
 9860TIP3    H129521   8.182   7.686   2.542
 9860TIP3    H229522   8.240   7.619   2.665
 9861TIP3   OH229523   1.749   3.752   1.165
 9861TIP3    H129524   1.749   3.819   1.097
 9861TIP3    H229525   1.840   3.748   1.195
 9862TIP3   OH229526   0.782   5.393   5.415
 9862TIP3    H129527   0.698   5.371   5.375
 9862TIP3    H229528   0.847   5.366   5.350
 9863TIP3   OH229529   2.880   6.345   6.625
 9863TIP3    H129530   2.900   6.334   6.532
 9863TIP3    H229531   2.868   6.439   6.637
 9864TIP3   OH229532   0.568   4.269   0.847
 9864TIP3    H129533   0.558   4.363   0.833
 9864TIP3    H229534   0.480   4.234   0.842
 9865TIP3   OH229535   0.823   4.995   4.807
 9865TIP3    H129536   0.844   4.998   4.714
 9865TIP3    H229537   0.860   4.911   4.837
 9866TIP3   OH229538   3.205   2.411   5.948
 9866TIP3    H129539   3.259   2.477   5.904
 9866TIP3    H229540   3.138   2.462   5.994
 9867TIP3   OH229541   7.637   0.658   5.096
 9867TIP3    H129542   7.712   0.640   5.154
 9867TIP3    H229543   7.602   0.572   5.074
 9868TIP3   OH229544   4.002   3.177   6.040
 9868TIP3    H129545   3.939   3.173   6.112
 9868TIP3    H229546   4.081   3.134   6.074
 9869TIP3   OH229547   3.074   0.544   3.588
 9869TIP3    H129548   3.072   0.639   3.591
 9869TIP3    H229549   3.018   0.517   3.661
 9870TIP3   OH229550   7.812   2.220   3.991
 9870TIP3    H129551   7.763   2.252   3.915
 9870TIP3    H229552   7.854   2.299   4.027
 9871TIP3   OH229553   4.505   1.507   2.043
 9871TIP3    H129554   4.442   1.578   2.027
 9871TIP3    H229555   4.535   1.482   1.956
 9872TIP3   OH229556   3.343   5.432   2.813
 9872TIP3    H129557   3.432   5.398   2.813
 9872TIP3    H229558   3.344   5.500   2.746
 9873TIP3   OH229559   3.702   6.213   6.060
 9873TIP3    H129560   3.637   6.280   6.039
 9873TIP3    H229561   3.783   6.244   6.019
 9874TIP3   OH229562   6.672   6.911   2.509
 9874TIP3    H129563   6.660   6.845   2.577
 9874TIP3    H229564   6.761   6.943   2.521
 9875TIP3   OH229565   7.051   7.450   3.738
 9875TIP3    H129566   6.982   7.513   3.718
 9875TIP3    H229567   7.088   7.480   3.821
 9876TIP3   OH229568   5.806   5.202   2.445
 9876TIP3    H129569   5.742   5.266   2.477
 9876TIP3    H229570   5.753   5.134   2.403
 9877TIP3   OH229571   7.690   0.345   6.852
 9877TIP3    H129572   7.691   0.253   6.825
 9877TIP3    H229573   7.701   0.394   6.770
 9878TIP3   OH229574   4.540   3.645   0.661
 9878TIP3    H129575   4.560   3.708   0.592
 9878TIP3    H229576   4.626   3.622   0.697
 9879TIP3   OH229577   0.707   3.236   1.468
 9879TIP3    H129578   0.762   3.285   1.529
 9879TIP3    H229579   0.729   3.144   1.484
 9880TIP3   OH229580   6.511   0.215   4.536
 9880TIP3    H129581   6.502   0.176   4.449
 9880TIP3    H229582   6.552   0.299   4.522
 9881TIP3   OH229583   5.504   3.958   6.137
 9881TIP3    H129584   5.428   3.912   6.101
 9881TIP3    H229585   5.484   4.051   6.123
 9882TIP3   OH229586   0.452   1.542   5.810
 9882TIP3    H129587   0.384   1.575   5.752
 9882TIP3    H229588   0.521   1.608   5.806
 9883TIP3   OH229589   8.358   4.637   2.274
 9883TIP3    H129590   8.353   4.657   2.367
 9883TIP3    H229591   8.337   4.544   2.267
 9884TIP3   OH229592   6.214   6.284   6.223
 9884TIP3    H129593   6.127   6.282   6.262
 9884TIP3    H229594   6.259   6.208   6.261
 9885TIP3   OH229595   1.431   3.317   4.073
 9885TIP3    H129596   1.406   3.227   4.095
 9885TIP3    H229597   1.525   3.311   4.054
 9886TIP3   OH229598   4.495   5.544   0.761
 9886TIP3    H129599   4.450   5.625   0.738
 9886TIP3    H229600   4.466   5.525   0.850
 9887TIP3   OH229601   4.855   2.243   6.795
 9887TIP3    H129602   4.949   2.237   6.777
 9887TIP3    H229603   4.846   2.209   6.884
 9888TIP3   OH229604   3.766   5.328   0.461
 9888TIP3    H129605   3.713   5.337   0.541
 9888TIP3    H229606   3.752   5.410   0.414
 9889TIP3   OH229607   5.953   6.426   4.427
 9889TIP3    H129608   6.043   6.454   4.413
 9889TIP3    H229609   5.916   6.492   4.486
 9890TIP3   OH229610   2.949   2.458   5.469
 9890TIP3    H129611   3.044   2.471   5.475
 9890TIP3    H229612   2.934   2.436   5.378
 9891TIP3   OH229613   0.618   3.078   3.804
 9891TIP3    H129614   0.599   3.104   3.894
 9891TIP3    H229615   0.589   2.987   3.799
 9892TIP3   OH229616   3.791   1.430   4.991
 9892TIP3    H129617   3.770   1.509   4.941
 9892TIP3    H229618   3.863   1.389   4.943
 9893TIP3   OH229619   2.216   3.522   2.406
 9893TIP3    H129620   2.305   3.552   2.387
 9893TIP3    H229621   2.221   3.427   2.395
 9894TIP3   OH229622   7.963   6.347   0.684
 9894TIP3    H129623   7.970   6.441   0.672
 9894TIP3    H229624   7.869   6.329   0.683
 9895TIP3   OH229625   5.198   5.326   6.297
 9895TIP3    H129626   5.103   5.326   6.297
 9895TIP3    H229627   5.223   5.414   6.325
 9896TIP3   OH229628   3.060   4.054   5.073
 9896TIP3    H129629   3.022   4.105   5.002
 9896TIP3    H229630   3.075   4.116   5.143
 9897TIP3   OH229631   3.615   4.790   3.415
 9897TIP3    H129632   3.593   4.698   3.404
 9897TIP3    H229633   3.546   4.837   3.368
 9898TIP3   OH229634   7.918   6.451   6.651
 9898TIP3    H129635   7.953   6.540   6.653
 9898TIP3    H229636   7.996   6.394   6.648
 9899TIP3   OH229637   6.435   2.470   2.758
 9899TIP3    H129638   6.393   2.500   2.838
 9899TIP3    H229639   6.452   2.377   2.773
 9900TIP3   OH229640   3.556   5.220   3.509
 9900TIP3    H129641   3.620   5.252   3.446
 9900TIP3    H229642   3.471   5.247   3.474
 9901TIP3   OH229643   5.068   4.693   3.222
 9901TIP3    H129644   5.081   4.787   3.216
 9901TIP3    H229645   5.094   4.671   3.312
 9902TIP3   OH229646   0.873   4.496   5.706
 9902TIP3    H129647   0.854   4.481   5.613
 9902TIP3    H229648   0.791   4.478   5.751
 9903TIP3   OH229649   1.762   3.106   5.928
 9903TIP3    H129650   1.850   3.118   5.892
 9903TIP3    H229651   1.709   3.078   5.854
 9904TIP3   OH229652   5.794   3.544   4.992
 9904TIP3    H129653   5.723   3.601   5.023
 9904TIP3    H229654   5.844   3.599   4.932
 9905TIP3   OH229655   1.287   0.574   4.392
 9905TIP3    H129656   1.381   0.592   4.395
 9905TIP3    H229657   1.258   0.611   4.309
 9906TIP3   OH229658   0.955   3.651   0.117
 9906TIP3    H129659   0.891   3.625   0.183
 9906TIP3    H229660   0.905   3.659   0.036
 9907TIP3   OH229661   4.983   7.382   6.769
 9907TIP3    H129662   4.960   7.304   6.718
 9907TIP3    H229663   4.994   7.450   6.703
 9908TIP3   OH229664   2.971   5.730   6.040
 9908TIP3    H129665   2.999   5.718   6.131
 9908TIP3    H229666   2.926   5.815   6.041
 9909TIP3   OH229667   3.811   6.060   5.648
 9909TIP3    H129668   3.762   5.979   5.634
 9909TIP3    H229669   3.799   6.078   5.742
 9910TIP3   OH229670   2.961   5.677   1.910
 9910TIP3    H129671   3.051   5.689   1.941
 9910TIP3    H229672   2.909   5.736   1.965
 9911TIP3   OH229673   5.571   5.657   0.457
 9911TIP3    H129674   5.636   5.722   0.484
 9911TIP3    H229675   5.535   5.623   0.540
 9912TIP3   OH229676   1.949   4.195   0.774
 9912TIP3    H129677   1.967   4.237   0.690
 9912TIP3    H229678   2.023   4.217   0.829
 9913TIP3   OH229679   3.036   6.441   3.206
 9913TIP3    H129680   3.028   6.439   3.301
 9913TIP3    H229681   3.016   6.352   3.178
 9914TIP3   OH229682   5.841   1.622   5.915
 9914TIP3    H129683   5.904   1.603   5.845
 9914TIP3    H229684   5.872   1.570   5.989
 9915TIP3   OH229685   4.909   2.779   0.114
 9915TIP3    H129686   4.817   2.762   0.093
 9915TIP3    H229687   4.912   2.780   0.210
 9916TIP3   OH229688   5.437   1.044   0.700
 9916TIP3    H129689   5.385   0.964   0.706
 9916TIP3    H229690   5.418   1.078   0.612
 9917TIP3   OH229691   7.655   5.332   5.290
 9917TIP3    H129692   7.650   5.367   5.201
 9917TIP3    H229693   7.581   5.272   5.296
 9918TIP3   OH229694   2.063   6.673   6.855
 9918TIP3    H129695   2.002   6.606   6.823
 9918TIP3    H229696   2.101   6.711   6.775
 9919TIP3   OH229697   6.345   2.366   1.269
 9919TIP3    H129698   6.410   2.347   1.201
 9919TIP3    H229699   6.277   2.416   1.224
 9920TIP3   OH229700   0.797   6.967   2.501
 9920TIP3    H129701   0.884   6.969   2.539
 9920TIP3    H229702   0.792   6.884   2.454
 9921TIP3   OH229703   3.240   1.740   4.761
 9921TIP3    H129704   3.246   1.680   4.686
 9921TIP3    H229705   3.225   1.683   4.836
 9922TIP3   OH229706   5.041   3.549   3.380
 9922TIP3    H129707   5.016   3.569   3.290
 9922TIP3    H229708   5.130   3.515   3.373
 9923TIP3   OH229709   2.897   0.774   0.235
 9923TIP3    H129710   2.915   0.743   0.324
 9923TIP3    H229711   2.819   0.725   0.208
 9924TIP3   OH229712   8.032   6.062   5.958
 9924TIP3    H129713   7.946   6.022   5.961
 9924TIP3    H229714   8.045   6.086   5.866
 9925TIP3   OH229715   5.724   6.234   5.482
 9925TIP3    H129716   5.819   6.233   5.489
 9925TIP3    H229717   5.697   6.308   5.537
 9926TIP3   OH229718   5.846   0.085   6.066
 9926TIP3    H129719   5.935   0.050   6.072
 9926TIP3    H229720   5.851   0.169   6.111
 9927TIP3   OH229721   6.092   0.021   3.817
 9927TIP3    H129722   6.031   0.093   3.800
 9927TIP3    H229723   6.172   0.048   3.771
 9928TIP3   OH229724   0.836   1.779   4.816
 9928TIP3    H129725   0.787   1.804   4.894
 9928TIP3    H229726   0.897   1.852   4.801
 9929TIP3   OH229727   4.705   2.497   4.661
 9929TIP3    H129728   4.722   2.590   4.651
 9929TIP3    H229729   4.621   2.493   4.707
 9930TIP3   OH229730   6.307   0.638   4.199
 9930TIP3    H129731   6.311   0.656   4.105
 9930TIP3    H229732   6.224   0.591   4.210
 9931TIP3   OH229733   4.158   7.151   1.519
 9931TIP3    H129734   4.241   7.122   1.481
 9931TIP3    H229735   4.091   7.114   1.463
 9932TIP3   OH229736   3.839   5.638   5.121
 9932TIP3    H129737   3.848   5.720   5.170
 9932TIP3    H229738   3.750   5.639   5.088
 9933TIP3   OH229739   4.226   0.437   5.968
 9933TIP3    H129740   4.228   0.361   5.910
 9933TIP3    H229741   4.259   0.509   5.915
 9934TIP3   OH229742   3.202   2.067   2.534
 9934TIP3    H129743   3.272   2.051   2.471
 9934TIP3    H229744   3.122   2.036   2.491
 9935TIP3   OH229745   2.776   7.187   2.357
 9935TIP3    H129746   2.749   7.158   2.444
 9935TIP3    H229747   2.700   7.234   2.322
 9936TIP3   OH229748   0.792   0.967   4.008
 9936TIP3    H129749   0.790   0.933   4.098
 9936TIP3    H229750   0.700   0.982   3.987
 9937TIP3   OH229751   5.214   6.966   4.976
 9937TIP3    H129752   5.240   7.053   4.945
 9937TIP3    H229753   5.230   6.908   4.902
 9938TIP3   OH229754   7.627   1.364   1.600
 9938TIP3    H129755   7.658   1.424   1.668
 9938TIP3    H229756   7.534   1.352   1.620
 9939TIP3   OH229757   5.606   7.223   3.624
 9939TIP3    H129758   5.568   7.148   3.671
 9939TIP3    H229759   5.700   7.215   3.640
 9940TIP3   OH229760   2.803   3.802   6.473
 9940TIP3    H129761   2.749   3.879   6.454
 9940TIP3    H229762   2.862   3.830   6.542
 9941TIP3   OH229763   0.353   0.170   2.164
 9941TIP3    H129764   0.329   0.263   2.166
 9941TIP3    H229765   0.447   0.170   2.181
 9942TIP3   OH229766   1.968   6.484   2.804
 9942TIP3    H129767   1.933   6.437   2.879
 9942TIP3    H229768   1.976   6.574   2.833
 9943TIP3   OH229769   1.808   6.523   0.228
 9943TIP3    H129770   1.827   6.439   0.188
 9943TIP3    H229771   1.730   6.507   0.282
 9944TIP3   OH229772   1.522   6.223   5.508
 9944TIP3    H129773   1.560   6.297   5.462
 9944TIP3    H229774   1.586   6.152   5.498
 9945TIP3   OH229775   3.624   7.016   2.794
 9945TIP3    H129776   3.626   6.945   2.858
 9945TIP3    H229777   3.551   6.993   2.736
 9946TIP3   OH229778   0.670   1.733   3.583
 9946TIP3    H129779   0.646   1.767   3.497
 9946TIP3    H229780   0.716   1.805   3.625
 9947TIP3   OH229781   0.405   6.279   1.373
 9947TIP3    H129782   0.403   6.342   1.301
 9947TIP3    H229783   0.385   6.195   1.333
 9948TIP3   OH229784   0.523   6.762   1.678
 9948TIP3    H129785   0.493   6.712   1.602
 9948TIP3    H229786   0.448   6.818   1.700
 9949TIP3   OH229787   1.508   6.020   5.866
 9949TIP3    H129788   1.563   6.088   5.827
 9949TIP3    H229789   1.567   5.970   5.922
 9950TIP3   OH229790   4.031   5.733   0.913
 9950TIP3    H129791   4.096   5.667   0.935
 9950TIP3    H229792   3.952   5.683   0.891
 9951TIP3   OH229793   8.094   5.499   6.610
 9951TIP3    H129794   8.160   5.493   6.679
 9951TIP3    H229795   8.105   5.587   6.574
 9952TIP3   OH229796   5.689   7.241   1.784
 9952TIP3    H129797   5.729   7.159   1.814
 9952TIP3    H229798   5.738   7.309   1.829
 9953TIP3   OH229799   0.574   3.091   5.666
 9953TIP3    H129800   0.489   3.129   5.642
 9953TIP3    H229801   0.600   3.139   5.745
 9954TIP3   OH229802   5.476   6.562   2.701
 9954TIP3    H129803   5.439   6.650   2.698
 9954TIP3    H229804   5.496   6.541   2.610
 9955TIP3   OH229805   1.434   6.484   4.728
 9955TIP3    H129806   1.372   6.539   4.776
 9955TIP3    H229807   1.480   6.545   4.669
 9956TIP3   OH229808   0.719   7.424   5.312
 9956TIP3    H129809   0.653   7.480   5.272
 9956TIP3    H229810   0.681   7.336   5.310
 9957TIP3   OH229811   7.845   3.627   3.712
 9957TIP3    H129812   7.801   3.660   3.790
 9957TIP3    H229813   7.793   3.552   3.684
 9958TIP3   OH229814   5.118   4.921   0.038
 9958TIP3    H129815   5.076   5.007   0.032
 9958TIP3    H229816   5.190   4.934   0.099
 9959TIP3   OH229817   4.225   4.163   3.414
 9959TIP3    H129818   4.178   4.244   3.437
 9959TIP3    H229819   4.222   4.110   3.493
 9960TIP3   OH229820   1.706   2.031   4.510
 9960TIP3    H129821   1.724   2.120   4.481
 9960TIP3    H229822   1.776   1.978   4.472
 9961TIP3   OH229823   7.929   4.157   6.007
 9961TIP3    H129824   7.881   4.128   6.085
 9961TIP3    H229825   7.909   4.090   5.941
 9962TIP3   OH229826   7.704   5.968   1.093
 9962TIP3    H129827   7.675   5.887   1.134
 9962TIP3    H229828   7.738   6.021   1.165
 9963TIP3   OH229829   2.415   3.559   4.937
 9963TIP3    H129830   2.345   3.580   4.999
 9963TIP3    H229831   2.447   3.644   4.906
 9964TIP3   OH229832   2.699   6.453   4.491
 9964TIP3    H129833   2.649   6.533   4.505
 9964TIP3    H229834   2.788   6.482   4.474
 9965TIP3   OH229835   7.503   6.145   4.042
 9965TIP3    H129836   7.545   6.074   4.091
 9965TIP3    H229837   7.410   6.137   4.062
 9966TIP3   OH229838   6.814   6.139   6.142
 9966TIP3    H129839   6.845   6.054   6.174
 9966TIP3    H229840   6.719   6.134   6.150
 9967TIP3   OH229841   0.596   7.859   5.991
 9967TIP3    H129842   0.541   7.800   6.043
 9967TIP3    H229843   0.561   7.851   5.902
 9968TIP3   OH229844   3.579   6.978   4.810
 9968TIP3    H129845   3.633   6.918   4.759
 9968TIP3    H229846   3.639   7.046   4.839
 9969TIP3   OH229847   2.191   5.947   4.650
 9969TIP3    H129848   2.129   5.951   4.723
 9969TIP3    H229849   2.256   6.015   4.670
 9970TIP3   OH229850   6.101   0.894   5.645
 9970TIP3    H129851   6.196   0.892   5.661
 9970TIP3    H229852   6.083   0.812   5.600
 9971TIP3   OH229853   6.547   3.276   2.135
 9971TIP3    H129854   6.630   3.290   2.090
 9971TIP3    H229855   6.481   3.315   2.078
 9972TIP3   OH229856   4.032   5.509   2.178
 9972TIP3    H129857   3.983   5.587   2.206
 9972TIP3    H229858   4.035   5.454   2.256
 9973TIP3   OH229859   7.206   0.697   4.745
 9973TIP3    H129860   7.247   0.761   4.687
 9973TIP3    H229861   7.136   0.659   4.693
 9974TIP3   OH229862   7.468   3.399   5.648
 9974TIP3    H129863   7.378   3.367   5.649
 9974TIP3    H229864   7.488   3.409   5.555
 9975TIP3   OH229865   5.971   0.544   0.254
 9975TIP3    H129866   5.920   0.603   0.308
 9975TIP3    H229867   6.051   0.529   0.304
 9976TIP3   OH229868   5.164   3.801   6.307
 9976TIP3    H129869   5.080   3.786   6.351
 9976TIP3    H229870   5.228   3.810   6.377
 9977TIP3   OH229871   7.710   6.854   5.431
 9977TIP3    H129872   7.621   6.840   5.400
 9977TIP3    H229873   7.709   6.943   5.467
 9978TIP3   OH229874   6.713   5.273   4.201
 9978TIP3    H129875   6.698   5.364   4.174
 9978TIP3    H229876   6.796   5.277   4.250
 9979TIP3   OH229877   7.683   5.172   1.763
 9979TIP3    H129878   7.774   5.202   1.754
 9979TIP3    H229879   7.637   5.214   1.690
 9980TIP3   OH229880   1.147   3.599   6.213
 9980TIP3    H129881   1.219   3.634   6.160
 9980TIP3    H229882   1.069   3.612   6.159
 9981TIP3   OH229883   1.486   7.464   0.484
 9981TIP3    H129884   1.503   7.444   0.576
 9981TIP3    H229885   1.412   7.408   0.460
 9982TIP3   OH229886   0.342   0.737   0.451
 9982TIP3    H129887   0.307   0.722   0.539
 9982TIP3    H229888   0.288   0.807   0.415
 9983TIP3   OH229889   1.495   6.755   0.177
 9983TIP3    H129890   1.566   6.808   0.141
 9983TIP3    H229891   1.432   6.749   0.105
 9984TIP3   OH229892   1.573   2.420   5.085
 9984TIP3    H129893   1.650   2.438   5.032
 9984TIP3    H229894   1.575   2.486   5.154
 9985TIP3   OH229895   0.375   4.510   1.055
 9985TIP3    H129896   0.389   4.568   0.980
 9985TIP3    H229897   0.371   4.569   1.131
 9986TIP3   OH229898   3.500   6.937   3.071
 9986TIP3    H129899   3.454   6.931   3.155
 9986TIP3    H229900   3.559   6.862   3.070
 9987TIP3   OH229901   6.240   6.895   0.411
 9987TIP3    H129902   6.248   6.987   0.433
 9987TIP3    H229903   6.280   6.849   0.485
 9988TIP3   OH229904   3.336   3.027   5.514
 9988TIP3    H129905   3.373   3.015   5.601
 9988TIP3    H229906   3.274   2.955   5.503
 9989TIP3   OH229907   0.728   5.278   4.774
 9989TIP3    H129908   0.788   5.327   4.718
 9989TIP3    H229909   0.774   5.196   4.793
 9990TIP3   OH229910   6.313   2.339   0.803
 9990TIP3    H129911   6.254   2.281   0.851
 9990TIP3    H229912   6.255   2.400   0.758
 9991TIP3   OH229913   6.396   2.544   4.616
 9991TIP3    H129914   6.409   2.636   4.596
 9991TIP3    H229915   6.443   2.530   4.699
 9992TIP3   OH229916   0.542   7.028   3.520
 9992TIP3    H129917   0.460   7.076   3.525
 9992TIP3    H229918   0.517   6.940   3.492
 9993TIP3   OH229919   8.170   5.808   2.454
 9993TIP3    H129920   8.225   5.886   2.452
 9993TIP3    H229921   8.212   5.747   2.392
 9994TIP3   OH229922   1.752   5.805   1.737
 9994TIP3    H129923   1.822   5.857   1.776
 9994TIP3    H229924   1.717   5.753   1.810
 9995TIP3   OH229925   7.048   3.002   5.333
 9995TIP3    H129926   7.131   2.965   5.303
 9995TIP3    H229927   7.001   3.026   5.253
 9996TIP3   OH229928   5.422   0.040   1.606
 9996TIP3    H129929   5.416   0.120   1.658
 9996TIP3    H229930   5.380  -0.027   1.660
 9997TIP3   OH229931   5.018   2.358   2.946
 9997TIP3    H129932   5.015   2.408   3.028
 9997TIP3    H229933   4.977   2.274   2.968
 9998TIP3   OH229934   5.803   6.758   6.549
 9998TIP3    H129935   5.734   6.811   6.587
 9998TIP3    H229936   5.784   6.757   6.455
 9999TIP3   OH229937   1.800   7.299   0.569
 9999TIP3    H129938   1.736   7.244   0.523
 9999TIP3    H229939   1.869   7.239   0.595
10000TIP3   OH229940   6.474   6.138   6.597
10000TIP3    H129941   6.401   6.077   6.588
10000TIP3    H229942   6.434   6.225   6.590
10001TIP3   OH229943   3.837   5.022   0.933
10001TIP3    H129944   3.782   5.020   0.855
10001TIP3    H229945   3.905   4.958   0.917
10002TIP3   OH229946   3.776   1.753   5.512
10002TIP3    H129947   3.777   1.697   5.589
10002TIP3    H229948   3.813   1.699   5.443
10003TIP3   OH229949   5.383   3.379   0.105
10003TIP3    H129950   5.348   3.353   0.020
10003TIP3    H229951   5.419   3.298   0.142
10004TIP3   OH229952   0.237   2.146   3.383
10004TIP3    H129953   0.270   2.092   3.311
10004TIP3    H229954   0.290   2.120   3.458
10005TIP3   OH229955   6.962   4.485   0.064
10005TIP3    H129956   7.035   4.428   0.088
10005TIP3    H229957   6.973   4.499  -0.030
10006TIP3   OH229958   0.079   5.459   4.101
10006TIP3    H129959   0.034   5.375   4.093
10006TIP3    H229960   0.045   5.496   4.183
10007TIP3   OH229961   4.977   5.197   5.885
10007TIP3    H129962   4.944   5.121   5.933
10007TIP3    H229963   5.036   5.240   5.947
10008TIP3   OH229964   6.120   6.868   3.970
10008TIP3    H129965   6.039   6.818   3.980
10008TIP3    H229966   6.118   6.930   4.043
10009TIP3   OH229967   1.371   4.038   3.480
10009TIP3    H129968   1.423   4.035   3.560
10009TIP3    H229969   1.392   3.956   3.435
10010TIP3   OH229970   5.179   5.320   6.027
10010TIP3    H129971   5.273   5.331   6.019
10010TIP3    H229972   5.161   5.330   6.120
10011TIP3   OH229973   4.548   4.247   3.800
10011TIP3    H129974   4.604   4.250   3.878
10011TIP3    H229975   4.509   4.159   3.802
10012TIP3   OH229976   4.691   3.184   4.114
10012TIP3    H129977   4.694   3.095   4.078
10012TIP3    H229978   4.606   3.218   4.086
10013TIP3   OH229979   4.475   1.237   1.302
10013TIP3    H129980   4.408   1.268   1.242
10013TIP3    H229981   4.478   1.303   1.371
10014TIP3   OH229982   1.608   4.725   6.786
10014TIP3    H129983   1.644   4.752   6.702
10014TIP3    H229984   1.674   4.666   6.822
10015TIP3   OH229985   2.604   5.469   6.505
10015TIP3    H129986   2.582   5.382   6.536
10015TIP3    H229987   2.660   5.506   6.574
10016TIP3   OH229988   6.478   1.556   0.182
10016TIP3    H129989   6.538   1.506   0.237
10016TIP3    H229990   6.473   1.642   0.224
10017TIP3   OH229991   4.228   0.954   6.264
10017TIP3    H129992   4.198   1.001   6.186
10017TIP3    H229993   4.175   0.875   6.266
10018TIP3   OH229994   0.570   4.385   4.380
10018TIP3    H129995   0.534   4.416   4.297
10018TIP3    H229996   0.496   4.343   4.424
10019TIP3   OH229997   1.317   6.167   4.550
10019TIP3    H129998   1.295   6.182   4.457
10019TIP3    H229999   1.408   6.194   4.558
10020TIP3   OH230000   7.696   1.397   6.399
10020TIP3    H130001   7.770   1.365   6.451
10020TIP3    H230002   7.635   1.323   6.397
10021TIP3   OH230003   2.217   7.000   3.087
10021TIP3    H130004   2.236   6.973   2.997
10021TIP3    H230005   2.280   7.070   3.104
10022TIP3   OH230006   4.005   1.189   4.044
10022TIP3    H130007   4.044   1.105   4.070
10022TIP3    H230008   3.976   1.228   4.126
10023TIP3   OH230009   6.129   3.152   3.020
10023TIP3    H130010   6.198   3.137   3.084
10023TIP3    H230011   6.139   3.244   2.996
10024TIP3   OH230012   4.713   3.876   4.598
10024TIP3    H130013   4.738   3.880   4.690
10024TIP3    H230014   4.651   3.804   4.592
10025TIP3   OH230015   4.894   2.391   3.940
10025TIP3    H130016   4.948   2.428   4.009
10025TIP3    H230017   4.956   2.371   3.869
10026TIP3   OH230018   4.150   7.280   5.101
10026TIP3    H130019   4.095   7.213   5.142
10026TIP3    H230020   4.229   7.233   5.074
10027TIP3   OH230021   0.867   7.148   6.136
10027TIP3    H130022   0.962   7.136   6.138
10027TIP3    H230023   0.846   7.151   6.042
10028TIP3   OH230024   5.844   7.639   1.972
10028TIP3    H130025   5.855   7.545   1.956
10028TIP3    H230026   5.755   7.657   1.942
10029TIP3   OH230027   6.716   5.124   2.042
10029TIP3    H130028   6.741   5.132   2.134
10029TIP3    H230029   6.668   5.205   2.023
10030TIP3   OH230030   3.625   4.488   4.225
10030TIP3    H130031   3.619   4.474   4.130
10030TIP3    H230032   3.708   4.534   4.237
10031TIP3   OH230033   4.856   6.010   1.901
10031TIP3    H130034   4.822   6.093   1.937
10031TIP3    H230035   4.832   6.012   1.809
10032TIP3   OH230036   7.606   2.778   2.046
10032TIP3    H130037   7.669   2.839   2.009
10032TIP3    H230038   7.625   2.695   2.003
10033TIP3   OH230039   2.089   3.969   2.154
10033TIP3    H130040   2.006   3.967   2.107
10033TIP3    H230041   2.064   3.972   2.247
10034TIP3   OH230042   6.765   2.246   4.202
10034TIP3    H130043   6.694   2.189   4.231
10034TIP3    H230044   6.752   2.256   4.107
10035TIP3   OH230045   4.226   1.543   3.713
10035TIP3    H130046   4.318   1.541   3.691
10035TIP3    H230047   4.219   1.492   3.794
10036TIP3   OH230048   0.744   2.403   0.864
10036TIP3    H130049   0.771   2.454   0.787
10036TIP3    H230050   0.648   2.408   0.863
10037TIP3   OH230051   8.075   3.151   4.845
10037TIP3    H130052   8.117   3.216   4.790
10037TIP3    H230053   8.126   3.152   4.927
10038TIP3   OH230054   3.865   5.461   6.821
10038TIP3    H130055   3.913   5.538   6.850
10038TIP3    H230056   3.920   5.422   6.753
10039TIP3   OH230057   1.300   0.385  -0.004
10039TIP3    H130058   1.294   0.470   0.041
10039TIP3    H230059   1.256   0.324   0.054
10040TIP3   OH230060   7.121   0.953   3.910
10040TIP3    H130061   7.181   0.978   3.980
10040TIP3    H230062   7.047   1.013   3.918
10041TIP3   OH230063   5.335   1.039   2.529
10041TIP3    H130064   5.377   1.112   2.575
10041TIP3    H230065   5.329   1.068   2.438
10042TIP3   OH230066   1.330   3.099   1.617
10042TIP3    H130067   1.379   3.165   1.568
10042TIP3    H230068   1.284   3.048   1.550
10043TIP3   OH230069   5.813   6.092   4.612
10043TIP3    H130070   5.767   6.164   4.571
10043TIP3    H230071   5.744   6.034   4.644
10044TIP3   OH230072   7.060   2.781   5.115
10044TIP3    H130073   7.122   2.722   5.073
10044TIP3    H230074   6.996   2.723   5.157
10045TIP3   OH230075   6.712   0.133   1.162
10045TIP3    H130076   6.644   0.141   1.228
10045TIP3    H230077   6.791   0.108   1.212
10046TIP3   OH230078   8.395   2.449   4.294
10046TIP3    H130079   8.353   2.518   4.243
10046TIP3    H230080   8.325   2.385   4.309
10047TIP3   OH230081   3.542   3.283   6.263
10047TIP3    H130082   3.497   3.202   6.285
10047TIP3    H230083   3.534   3.337   6.341
10048TIP3   OH230084   6.907   2.375   0.373
10048TIP3    H130085   6.960   2.333   0.440
10048TIP3    H230086   6.969   2.392   0.301
10049TIP3   OH230087   5.986   5.322   6.543
10049TIP3    H130088   5.904   5.323   6.592
10049TIP3    H230089   6.047   5.276   6.600
10050TIP3   OH230090   2.057   7.577   5.606
10050TIP3    H130091   2.005   7.549   5.682
10050TIP3    H230092   1.992   7.588   5.536
10051TIP3   OH230093   6.030   7.190   5.152
10051TIP3    H130094   6.052   7.262   5.093
10051TIP3    H230095   5.939   7.206   5.177
10052TIP3   OH230096   0.634   4.776   4.654
10052TIP3    H130097   0.557   4.830   4.671
10052TIP3    H230098   0.702   4.838   4.628
10053TIP3   OH230099   0.774   1.920   1.707
10053TIP3    H130100   0.696   1.972   1.685
10053TIP3    H230101   0.783   1.930   1.802
10054TIP3   OH230102   1.763   3.444   2.336
10054TIP3    H130103   1.735   3.367   2.386
10054TIP3    H230104   1.809   3.409   2.261
10055TIP3   OH230105   0.720   2.448   5.212
10055TIP3    H130106   0.684   2.418   5.296
10055TIP3    H230107   0.775   2.375   5.182
10056TIP3   OH230108   4.897   2.011   4.929
10056TIP3    H130109   4.827   1.947   4.922
10056TIP3    H230110   4.861   2.091   4.891
10057TIP3   OH230111   2.541   5.370   5.808
10057TIP3    H130112   2.492   5.379   5.727
10057TIP3    H230113   2.605   5.300   5.791
10058TIP3   OH230114   1.238   5.843   3.000
10058TIP3    H130115   1.259   5.933   2.974
10058TIP3    H230116   1.142   5.841   3.001
10059TIP3   OH230117   5.235   2.677   4.946
10059TIP3    H130118   5.291   2.737   4.896
10059TIP3    H230119   5.279   2.593   4.941
10060TIP3   OH230120   4.661   2.895   2.375
10060TIP3    H130121   4.690   2.832   2.309
10060TIP3    H230122   4.699   2.863   2.457
10061TIP3   OH230123   3.514   5.034   4.257
10061TIP3    H130124   3.524   5.098   4.186
10061TIP3    H230125   3.514   4.949   4.213
10062TIP3   OH230126   4.335   1.893   1.329
10062TIP3    H130127   4.264   1.928   1.275
10062TIP3    H230128   4.368   1.970   1.376
10063TIP3   OH230129   2.105   5.845   4.421
10063TIP3    H130130   2.187   5.848   4.371
10063TIP3    H230131   2.126   5.887   4.504
10064TIP3   OH230132   2.823   7.528   6.448
10064TIP3    H130133   2.853   7.535   6.538
10064TIP3    H230134   2.869   7.451   6.414
10065TIP3   OH230135   3.047   7.001   6.569
10065TIP3    H130136   3.094   6.921   6.544
10065TIP3    H230137   2.968   7.000   6.515
10066TIP3   OH230138   4.574   6.049   3.196
10066TIP3    H130139   4.611   6.058   3.284
10066TIP3    H230140   4.607   6.124   3.148
10067TIP3   OH230141   6.370   3.329   1.623
10067TIP3    H130142   6.404   3.240   1.609
10067TIP3    H230143   6.444   3.378   1.657
10068TIP3   OH230144   1.656   4.145   4.008
10068TIP3    H130145   1.570   4.121   3.976
10068TIP3    H230146   1.645   4.235   4.041
10069TIP3   OH230147   3.123   1.182   5.330
10069TIP3    H130148   3.167   1.142   5.406
10069TIP3    H230149   3.030   1.183   5.355
10070TIP3   OH230150   3.137   2.750   5.615
10070TIP3    H130151   3.082   2.697   5.673
10070TIP3    H230152   3.163   2.825   5.669
10071TIP3   OH230153   4.014   6.603   1.325
10071TIP3    H130154   3.931   6.596   1.280
10071TIP3    H230155   4.005   6.682   1.379
10072TIP3   OH230156   7.050   7.035   2.124
10072TIP3    H130157   6.994   6.977   2.176
10072TIP3    H230158   7.085   6.979   2.055
10073TIP3   OH230159   0.540   6.466   6.466
10073TIP3    H130160   0.506   6.451   6.378
10073TIP3    H230161   0.541   6.561   6.476
10074TIP3   OH230162   3.964   7.435   2.409
10074TIP3    H130163   4.050   7.476   2.400
10074TIP3    H230164   3.902   7.507   2.393
10075TIP3   OH230165   6.728   0.439   3.219
10075TIP3    H130166   6.688   0.444   3.133
10075TIP3    H230167   6.654   0.445   3.280
10076TIP3   OH230168   6.764   6.655   1.050
10076TIP3    H130169   6.745   6.747   1.031
10076TIP3    H230170   6.752   6.610   0.966
10077TIP3   OH230171   1.507   7.377   1.764
10077TIP3    H130172   1.460   7.349   1.842
10077TIP3    H230173   1.550   7.458   1.789
10078TIP3   OH230174   1.521   6.113   4.005
10078TIP3    H130175   1.469   6.033   4.006
10078TIP3    H230176   1.592   6.094   3.943
10079TIP3   OH230177   1.292   2.069   1.994
10079TIP3    H130178   1.351   1.995   1.978
10079TIP3    H230179   1.207   2.029   2.008
10080TIP3   OH230180   2.777   3.012   4.505
10080TIP3    H130181   2.732   2.971   4.579
10080TIP3    H230182   2.860   3.044   4.542
10081TIP3   OH230183   6.782   4.494   4.129
10081TIP3    H130184   6.806   4.551   4.055
10081TIP3    H230185   6.704   4.447   4.098
10082TIP3   OH230186   4.940   2.764   4.078
10082TIP3    H130187   4.944   2.752   3.983
10082TIP3    H230188   5.001   2.700   4.113
10083TIP3   OH230189   5.286   4.240   1.491
10083TIP3    H130190   5.294   4.308   1.425
10083TIP3    H230191   5.279   4.158   1.441
10084TIP3   OH230192   3.886   6.413   6.836
10084TIP3    H130193   3.960   6.365   6.873
10084TIP3    H230194   3.913   6.432   6.746
10085TIP3   OH230195   4.461   6.081   1.071
10085TIP3    H130196   4.439   6.082   0.978
10085TIP3    H230197   4.380   6.109   1.114
10086TIP3   OH230198   6.867   3.319   1.196
10086TIP3    H130199   6.821   3.382   1.251
10086TIP3    H230200   6.889   3.247   1.255
10087TIP3   OH230201   5.520   1.051   3.165
10087TIP3    H130202   5.501   0.973   3.217
10087TIP3    H230203   5.552   1.115   3.229
10088TIP3   OH230204   8.006   3.553   6.722
10088TIP3    H130205   7.922   3.523   6.687
10088TIP3    H230206   7.995   3.647   6.735
10089TIP3   OH230207   7.509   5.769   2.522
10089TIP3    H130208   7.516   5.859   2.490
10089TIP3    H230209   7.560   5.769   2.603
10090TIP3   OH230210   1.056   5.042   4.603
10090TIP3    H130211   1.112   5.090   4.540
10090TIP3    H230212   1.089   5.069   4.689
10091TIP3   OH230213   4.435   0.950   6.638
10091TIP3    H130214   4.364   0.946   6.703
10091TIP3    H230215   4.475   0.863   6.641
10092TIP3   OH230216   7.238   0.564   0.278
10092TIP3    H130217   7.149   0.537   0.257
10092TIP3    H230218   7.228   0.633   0.344
10093TIP3   OH230219   2.458   1.961   6.741
10093TIP3    H130220   2.458   1.980   6.647
10093TIP3    H230221   2.546   1.929   6.759
10094TIP3   OH230222   2.878   0.028   6.377
10094TIP3    H130223   2.904   0.117   6.404
10094TIP3    H230224   2.794   0.040   6.333
10095TIP3   OH230225   7.239   4.853   1.286
10095TIP3    H130226   7.194   4.864   1.202
10095TIP3    H230227   7.209   4.926   1.339
10096TIP3   OH230228   1.442   2.823   5.225
10096TIP3    H130229   1.452   2.757   5.294
10096TIP3    H230230   1.445   2.906   5.271
10097TIP3   OH230231   4.210   3.141   1.680
10097TIP3    H130232   4.255   3.059   1.657
10097TIP3    H230233   4.236   3.158   1.770
10098TIP3   OH230234   2.551   3.279   3.588
10098TIP3    H130235   2.566   3.246   3.677
10098TIP3    H230236   2.529   3.371   3.601
10099TIP3   OH230237   0.649   6.249   6.193
10099TIP3    H130238   0.689   6.316   6.248
10099TIP3    H230239   0.707   6.174   6.201
10100TIP3   OH230240   2.187   1.189   6.723
10100TIP3    H130241   2.165   1.132   6.650
10100TIP3    H230242   2.217   1.270   6.682
10101TIP3   OH230243   5.458   7.868   6.732
10101TIP3    H130244   5.497   7.952   6.707
10101TIP3    H230245   5.520   7.802   6.701
10102TIP3   OH230246   1.991   3.992   0.166
10102TIP3    H130247   2.020   3.999   0.075
10102TIP3    H230248   2.038   3.915   0.200
10103TIP3   OH230249   1.797   1.354   4.664
10103TIP3    H130250   1.716   1.362   4.614
10103TIP3    H230251   1.768   1.341   4.754
10104TIP3   OH230252   0.869   5.292   0.426
10104TIP3    H130253   0.805   5.363   0.434
10104TIP3    H230254   0.826   5.227   0.372
10105TIP3   OH230255   6.150   1.345   3.021
10105TIP3    H130256   6.108   1.337   2.935
10105TIP3    H230257   6.090   1.398   3.072
10106TIP3   OH230258   5.832   0.405   3.916
10106TIP3    H130259   5.792   0.396   4.003
10106TIP3    H230260   5.851   0.315   3.889
10107TIP3   OH230261   6.208   0.673   0.992
10107TIP3    H130262   6.191   0.767   0.998
10107TIP3    H230263   6.228   0.657   0.900
10108TIP3   OH230264   6.137   3.815   0.133
10108TIP3    H130265   6.220   3.857   0.154
10108TIP3    H230266   6.131   3.741   0.194
10109TIP3   OH230267   5.939   0.275   3.436
10109TIP3    H130268   5.988   0.194   3.443
10109TIP3    H230269   5.854   0.255   3.474
10110TIP3   OH230270   1.473   3.771   0.718
10110TIP3    H130271   1.430   3.695   0.758
10110TIP3    H230272   1.565   3.746   0.713
10111TIP3   OH230273   7.800   5.999   4.714
10111TIP3    H130274   7.819   6.015   4.622
10111TIP3    H230275   7.720   5.948   4.714
10112TIP3   OH230276   3.003   1.049   2.527
10112TIP3    H130277   3.034   1.044   2.437
10112TIP3    H230278   3.029   1.136   2.557
10113TIP3   OH230279   1.839   4.434   4.029
10113TIP3    H130280   1.882   4.364   4.077
10113TIP3    H230281   1.776   4.470   4.091
10114TIP3   OH230282   0.042   5.098   3.888
10114TIP3    H130283   0.101   5.122   3.959
10114TIP3    H230284  -0.008   5.178   3.871
10115TIP3   OH230285   3.431   3.339   5.678
10115TIP3    H130286   3.384   3.343   5.595
10115TIP3    H230287   3.520   3.370   5.658
10116TIP3   OH230288   2.346   5.796   4.341
10116TIP3    H130289   2.368   5.781   4.433
10116TIP3    H230290   2.427   5.826   4.301
10117TIP3   OH230291   0.105   4.786   1.899
10117TIP3    H130292   0.147   4.746   1.976
10117TIP3    H230293   0.070   4.869   1.931
10118TIP3   OH230294   7.304   1.710   3.118
10118TIP3    H130295   7.300   1.615   3.109
10118TIP3    H230296   7.342   1.740   3.035
10119TIP3   OH230297   7.642   6.438   0.120
10119TIP3    H130298   7.612   6.352   0.150
10119TIP3    H230299   7.594   6.452   0.038
10120TIP3   OH230300   1.610   5.895   2.265
10120TIP3    H130301   1.698   5.910   2.300
10120TIP3    H230302   1.617   5.916   2.172
10121TIP3   OH230303   6.391   3.049   4.489
10121TIP3    H130304   6.434   3.093   4.562
10121TIP3    H230305   6.333   2.985   4.531
10122TIP3   OH230306   3.646   7.809   1.261
10122TIP3    H130307   3.704   7.837   1.191
10122TIP3    H230308   3.571   7.869   1.256
10123TIP3   OH230309   6.036   2.701   3.474
10123TIP3    H130310   6.077   2.660   3.551
10123TIP3    H230311   5.968   2.757   3.511
10124TIP3   OH230312   1.885   0.861   4.375
10124TIP3    H130313   1.972   0.856   4.414
10124TIP3    H230314   1.836   0.920   4.433
10125TIP3   OH230315   5.897   3.350   5.875
10125TIP3    H130316   5.911   3.395   5.959
10125TIP3    H230317   5.803   3.358   5.859
10126TIP3   OH230318   4.501   5.441   4.145
10126TIP3    H130319   4.431   5.415   4.085
10126TIP3    H230320   4.458   5.498   4.208
10127TIP3   OH230321   5.213   6.395   6.790
10127TIP3    H130322   5.211   6.385   6.694
10127TIP3    H230323   5.231   6.488   6.804
10128TIP3   OH230324   3.691   6.069   6.336
10128TIP3    H130325   3.688   6.097   6.244
10128TIP3    H230326   3.600   6.049   6.357
10129TIP3   OH230327   1.138   6.209   2.461
10129TIP3    H130328   1.067   6.272   2.452
10129TIP3    H230329   1.190   6.219   2.382
10130TIP3   OH230330   4.338   1.602   0.307
10130TIP3    H130331   4.418   1.645   0.339
10130TIP3    H230332   4.320   1.643   0.223
10131TIP3   OH230333   7.997   0.674   0.350
10131TIP3    H130334   8.075   0.654   0.297
10131TIP3    H230335   7.990   0.769   0.347
10132TIP3   OH230336   7.380   3.094   6.090
10132TIP3    H130337   7.417   3.024   6.035
10132TIP3    H230338   7.296   3.114   6.049
10133TIP3   OH230339   0.466   3.128   3.480
10133TIP3    H130340   0.386   3.113   3.531
10133TIP3    H230341   0.512   3.196   3.528
10134TIP3   OH230342   4.767   6.808   0.752
10134TIP3    H130343   4.713   6.887   0.749
10134TIP3    H230344   4.822   6.814   0.674
10135TIP3   OH230345   3.750   3.685   0.559
10135TIP3    H130346   3.830   3.669   0.609
10135TIP3    H230347   3.731   3.778   0.574
10136TIP3   OH230348   5.734   0.267   3.088
10136TIP3    H130349   5.747   0.333   3.155
10136TIP3    H230350   5.699   0.316   3.013
10137TIP3   OH230351   1.803   2.834   5.979
10137TIP3    H130352   1.727   2.780   5.958
10137TIP3    H230353   1.798   2.907   5.918
10138TIP3   OH230354   0.649   2.838   3.076
10138TIP3    H130355   0.683   2.898   3.142
10138TIP3    H230356   0.587   2.783   3.124
10139TIP3   OH230357   6.001   3.510   4.640
10139TIP3    H130358   6.043   3.549   4.563
10139TIP3    H230359   5.988   3.583   4.700
10140TIP3   OH230360   4.320   7.905   5.647
10140TIP3    H130361   4.347   7.813   5.648
10140TIP3    H230362   4.373   7.945   5.578
10141TIP3   OH230363   0.508   6.719   4.259
10141TIP3    H130364   0.479   6.632   4.232
10141TIP3    H230365   0.582   6.740   4.202
10142TIP3   OH230366   5.254   2.194   1.056
10142TIP3    H130367   5.185   2.260   1.058
10142TIP3    H230368   5.240   2.146   0.975
10143TIP3   OH230369   2.981   5.626   6.306
10143TIP3    H130370   3.017   5.657   6.389
10143TIP3    H230371   3.040   5.556   6.279
10144TIP3   OH230372   6.048   7.180   3.910
10144TIP3    H130373   6.086   7.105   3.864
10144TIP3    H230374   6.057   7.157   4.003
10145TIP3   OH230375   5.525   5.447   1.009
10145TIP3    H130376   5.458   5.480   0.948
10145TIP3    H230377   5.547   5.360   0.976
10146TIP3   OH230378   6.577   0.564   1.780
10146TIP3    H130379   6.575   0.576   1.685
10146TIP3    H230380   6.493   0.599   1.810
10147TIP3   OH230381   3.236   7.821   5.142
10147TIP3    H130382   3.163   7.770   5.177
10147TIP3    H230383   3.314   7.779   5.179
10148TIP3   OH230384   6.548   4.939   0.841
10148TIP3    H130385   6.496   4.898   0.772
10148TIP3    H230386   6.486   4.955   0.912
10149TIP3   OH230387   0.180   4.049   1.277
10149TIP3    H130388   0.138   4.022   1.196
10149TIP3    H230389   0.223   4.132   1.256
10150TIP3   OH230390   3.454   2.371   4.284
10150TIP3    H130391   3.471   2.330   4.199
10150TIP3    H230392   3.438   2.463   4.264
10151TIP3   OH230393   0.826   5.541   1.053
10151TIP3    H130394   0.768   5.516   1.125
10151TIP3    H230395   0.776   5.520   0.974
10152TIP3   OH230396   1.862   5.959   5.689
10152TIP3    H130397   1.911   6.001   5.761
10152TIP3    H230398   1.897   5.871   5.684
10153TIP3   OH230399   0.850   7.829   6.472
10153TIP3    H130400   0.944   7.817   6.487
10153TIP3    H230401   0.845   7.892   6.400
10154TIP3   OH230402   2.396   3.716   2.773
10154TIP3    H130403   2.343   3.731   2.694
10154TIP3    H230404   2.486   3.734   2.744
10155TIP3   OH230405   6.062   1.091   0.059
10155TIP3    H130406   6.147   1.126   0.085
10155TIP3    H230407   6.006   1.104   0.136
10156TIP3   OH230408   6.881   4.292   4.284
10156TIP3    H130409   6.853   4.375   4.247
10156TIP3    H230410   6.855   4.296   4.376
10157TIP3   OH230411   3.500   2.108   6.581
10157TIP3    H130412   3.421   2.098   6.635
10157TIP3    H230413   3.508   2.202   6.568
10158TIP3   OH230414   0.507   2.187   0.849
10158TIP3    H130415   0.515   2.217   0.759
10158TIP3    H230416   0.506   2.268   0.901
10159TIP3   OH230417   1.702   2.664   2.504
10159TIP3    H130418   1.684   2.571   2.509
10159TIP3    H230419   1.712   2.691   2.595
10160TIP3   OH230420   2.456   1.685   2.161
10160TIP3    H130421   2.484   1.607   2.114
10160TIP3    H230422   2.473   1.665   2.253
10161TIP3   OH230423   0.128   3.521   4.802
10161TIP3    H130424   0.130   3.506   4.897
10161TIP3    H230425   0.071   3.596   4.791
10162TIP3   OH230426   4.463   0.641   1.971
10162TIP3    H130427   4.558   0.652   1.971
10162TIP3    H230428   4.450   0.546   1.963
10163TIP3   OH230429   6.457   5.240   0.705
10163TIP3    H130430   6.485   5.155   0.740
10163TIP3    H230431   6.440   5.293   0.783
10164TIP3   OH230432   1.860   7.591   4.501
10164TIP3    H130433   1.925   7.661   4.499
10164TIP3    H230434   1.806   7.605   4.424
10165TIP3   OH230435   5.269   4.934   4.359
10165TIP3    H130436   5.269   4.854   4.412
10165TIP3    H230437   5.358   4.941   4.325
10166TIP3   OH230438   2.289   3.164   5.460
10166TIP3    H130439   2.373   3.176   5.504
10166TIP3    H230440   2.307   3.103   5.388
10167TIP3   OH230441   8.265   5.616   2.280
10167TIP3    H130442   8.203   5.557   2.238
10167TIP3    H230443   8.319   5.648   2.208
10168TIP3   OH230444   6.197   3.357   3.812
10168TIP3    H130445   6.287   3.346   3.842
10168TIP3    H230446   6.204   3.361   3.717
10169TIP3   OH230447   6.647   6.358   5.124
10169TIP3    H130448   6.663   6.441   5.169
10169TIP3    H230449   6.560   6.331   5.153
10170TIP3   OH230450   0.278   5.957   3.028
10170TIP3    H130451   0.334   5.913   2.964
10170TIP3    H230452   0.207   5.994   2.975
10171TIP3   OH230453   8.062   0.113   2.485
10171TIP3    H130454   7.976   0.148   2.459
10171TIP3    H230455   8.124   0.182   2.461
10172TIP3   OH230456   4.881   3.787   0.875
10172TIP3    H130457   4.972   3.761   0.888
10172TIP3    H230458   4.847   3.725   0.809
10173TIP3   OH230459   2.630   1.681   1.668
10173TIP3    H130460   2.584   1.618   1.723
10173TIP3    H230461   2.720   1.647   1.663
10174TIP3   OH230462   5.334   5.697   1.685
10174TIP3    H130463   5.307   5.606   1.673
10174TIP3    H230464   5.430   5.695   1.675
10175TIP3   OH230465   0.014   1.119   2.207
10175TIP3    H130466  -0.040   1.157   2.138
10175TIP3    H230467   0.104   1.136   2.180
10176TIP3   OH230468   0.365   5.195   5.832
10176TIP3    H130469   0.325   5.114   5.800
10176TIP3    H230470   0.385   5.177   5.924
10177TIP3   OH230471   2.689   1.203   0.274
10177TIP3    H130472   2.722   1.242   0.356
10177TIP3    H230473   2.652   1.277   0.226
10178TIP3   OH230474   5.998   1.861   5.422
10178TIP3    H130475   6.093   1.861   5.419
10178TIP3    H230476   5.976   1.839   5.513
10179TIP3   OH230477   7.593   1.051   4.506
10179TIP3    H130478   7.605   1.057   4.601
10179TIP3    H230479   7.660   0.990   4.477
10180TIP3   OH230480   3.025   4.238   2.383
10180TIP3    H130481   3.018   4.146   2.360
10180TIP3    H230482   3.102   4.269   2.335
10181TIP3   OH230483   6.837   3.333   4.887
10181TIP3    H130484   6.915   3.316   4.941
10181TIP3    H230485   6.872   3.350   4.799
10182TIP3   OH230486   3.452   6.539   0.510
10182TIP3    H130487   3.453   6.571   0.420
10182TIP3    H230488   3.447   6.443   0.501
10183TIP3   OH230489   0.532   5.463   6.413
10183TIP3    H130490   0.617   5.422   6.427
10183TIP3    H230491   0.550   5.557   6.410
10184TIP3   OH230492   3.665   3.560   6.452
10184TIP3    H130493   3.754   3.528   6.441
10184TIP3    H230494   3.628   3.506   6.522
10185TIP3   OH230495   5.644   2.544   1.519
10185TIP3    H130496   5.731   2.558   1.481
10185TIP3    H230497   5.654   2.464   1.572
10186TIP3   OH230498   2.296   1.571   6.310
10186TIP3    H130499   2.341   1.486   6.315
10186TIP3    H230500   2.305   1.608   6.398
10187TIP3   OH230501   1.758   4.810   2.264
10187TIP3    H130502   1.745   4.750   2.338
10187TIP3    H230503   1.786   4.892   2.305
10188TIP3   OH230504   6.039   1.408   6.517
10188TIP3    H130505   6.045   1.364   6.602
10188TIP3    H230506   5.975   1.356   6.468
10189TIP3   OH230507   6.339   0.228   3.005
10189TIP3    H130508   6.416   0.283   2.997
10189TIP3    H230509   6.294   0.236   2.921
10190TIP3   OH230510   3.391   6.825   4.330
10190TIP3    H130511   3.441   6.745   4.312
10190TIP3    H230512   3.456   6.886   4.367
10191TIP3   OH230513   2.096   0.370   0.456
10191TIP3    H130514   2.096   0.342   0.365
10191TIP3    H230515   2.181   0.341   0.490
10192TIP3   OH230516   8.216   7.614   6.508
10192TIP3    H130517   8.274   7.545   6.474
10192TIP3    H230518   8.144   7.567   6.550
10193TIP3   OH230519   5.397   6.536   2.373
10193TIP3    H130520   5.317   6.557   2.324
10193TIP3    H230521   5.432   6.622   2.399
10194TIP3   OH230522   4.259   6.531   0.950
10194TIP3    H130523   4.259   6.484   0.867
10194TIP3    H230524   4.168   6.561   0.961
10195TIP3   OH230525   7.547   6.579   4.023
10195TIP3    H130526   7.582   6.637   3.955
10195TIP3    H230527   7.624   6.533   4.057
10196TIP3   OH230528   4.755   6.217   3.051
10196TIP3    H130529   4.714   6.231   2.965
10196TIP3    H230530   4.775   6.124   3.053
10197TIP3   OH230531   8.160   2.807   4.823
10197TIP3    H130532   8.101   2.770   4.888
10197TIP3    H230533   8.120   2.786   4.739
10198TIP3   OH230534   2.998   2.039   1.632
10198TIP3    H130535   2.934   2.026   1.703
10198TIP3    H230536   3.002   1.954   1.588
10199TIP3   OH230537   1.962   0.483   4.469
10199TIP3    H130538   1.960   0.548   4.540
10199TIP3    H230539   2.037   0.510   4.416
10200TIP3   OH230540   2.847   6.227   5.700
10200TIP3    H130541   2.757   6.197   5.706
10200TIP3    H230542   2.892   6.159   5.648
10201TIP3   OH230543   5.605   7.241   6.373
10201TIP3    H130544   5.642   7.241   6.284
10201TIP3    H230545   5.617   7.151   6.404
10202TIP3   OH230546   5.275   4.075   2.193
10202TIP3    H130547   5.292   3.982   2.209
10202TIP3    H230548   5.336   4.098   2.123
10203TIP3   OH230549   3.089   6.280   4.511
10203TIP3    H130550   3.151   6.218   4.473
10203TIP3    H230551   3.114   6.285   4.604
10204TIP3   OH230552   4.188   2.077   1.198
10204TIP3    H130553   4.122   2.140   1.170
10204TIP3    H230554   4.174   2.001   1.142
10205TIP3   OH230555   5.738   7.208   5.272
10205TIP3    H130556   5.702   7.276   5.216
10205TIP3    H230557   5.719   7.237   5.361
10206TIP3   OH230558  -0.006   5.592   5.899
10206TIP3    H130559   0.015   5.683   5.916
10206TIP3    H230560   0.079   5.550   5.882
10207TIP3   OH230561   6.286   3.690   0.915
10207TIP3    H130562   6.341   3.736   0.978
10207TIP3    H230563   6.348   3.647   0.856
10208TIP3   OH230564   6.288   2.778   0.329
10208TIP3    H130565   6.283   2.854   0.271
10208TIP3    H230566   6.381   2.753   0.328
10209TIP3   OH230567   1.271   0.280   1.744
10209TIP3    H130568   1.260   0.185   1.745
10209TIP3    H230569   1.191   0.313   1.704
10210TIP3   OH230570   6.300   6.213   4.559
10210TIP3    H130571   6.235   6.205   4.489
10210TIP3    H230572   6.278   6.142   4.620
10211TIP3   OH230573   5.166   7.269   2.814
10211TIP3    H130574   5.246   7.220   2.831
10211TIP3    H230575   5.133   7.292   2.901
10212TIP3   OH230576   7.022   1.177   6.430
10212TIP3    H130577   6.941   1.192   6.383
10212TIP3    H230578   7.020   1.240   6.502
10213TIP3   OH230579   1.945   1.432   3.085
10213TIP3    H130580   1.997   1.361   3.047
10213TIP3    H230581   1.858   1.420   3.048
10214TIP3   OH230582   2.837   7.889   2.508
10214TIP3    H130583   2.811   7.813   2.456
10214TIP3    H230584   2.755   7.933   2.530
10215TIP3   OH230585   0.627   7.014   6.536
10215TIP3    H130586   0.666   6.933   6.504
10215TIP3    H230587   0.679   7.083   6.494
10216TIP3   OH230588   2.408   6.071   2.622
10216TIP3    H130589   2.376   5.984   2.597
10216TIP3    H230590   2.461   6.056   2.700
10217TIP3   OH230591   7.836   0.757   3.666
10217TIP3    H130592   7.801   0.782   3.580
10217TIP3    H230593   7.927   0.786   3.664
10218TIP3   OH230594   8.235   4.572   3.717
10218TIP3    H130595   8.214   4.625   3.639
10218TIP3    H230596   8.156   4.576   3.770
10219TIP3   OH230597   4.282   7.166   0.504
10219TIP3    H130598   4.246   7.205   0.424
10219TIP3    H230599   4.311   7.241   0.556
10220TIP3   OH230600   6.798   1.653   6.825
10220TIP3    H130601   6.774   1.632   6.735
10220TIP3    H230602   6.868   1.592   6.846
10221TIP3   OH230603   2.505   1.038   2.771
10221TIP3    H130604   2.590   1.016   2.734
10221TIP3    H230605   2.519   1.034   2.866
10222TIP3   OH230606   7.622   1.577   1.805
10222TIP3    H130607   7.647   1.637   1.875
10222TIP3    H230608   7.587   1.633   1.735
10223TIP3   OH230609   4.212   4.873   2.457
10223TIP3    H130610   4.159   4.887   2.379
10223TIP3    H230611   4.284   4.818   2.428
10224TIP3   OH230612   4.439   6.640   4.728
10224TIP3    H130613   4.498   6.707   4.695
10224TIP3    H230614   4.358   6.652   4.678
10225TIP3   OH230615   4.771   3.928   3.636
10225TIP3    H130616   4.833   3.935   3.563
10225TIP3    H230617   4.797   3.847   3.681
10226TIP3   OH230618   0.202   7.791   5.990
10226TIP3    H130619   0.288   7.791   5.948
10226TIP3    H230620   0.158   7.868   5.954
10227TIP3   OH230621   0.929   0.965   6.811
10227TIP3    H130622   0.950   0.972   6.718
10227TIP3    H230623   1.013   0.948   6.853
10228TIP3   OH230624   1.421   2.657   2.051
10228TIP3    H130625   1.496   2.602   2.074
10228TIP3    H230626   1.446   2.699   1.969
10229TIP3   OH230627   7.179   6.709   5.270
10229TIP3    H130628   7.091   6.741   5.250
10229TIP3    H230629   7.167   6.615   5.287
10230TIP3   OH230630   0.016   5.276   4.709
10230TIP3    H130631  -0.028   5.209   4.657
10230TIP3    H230632  -0.052   5.313   4.764
10231TIP3   OH230633   3.885   4.761   5.768
10231TIP3    H130634   3.805   4.718   5.799
10231TIP3    H230635   3.939   4.769   5.847
10232TIP3   OH230636   6.478   6.673   2.670
10232TIP3    H130637   6.533   6.712   2.737
10232TIP3    H230638   6.428   6.605   2.715
10233TIP3   OH230639   3.652   0.864   4.834
10233TIP3    H130640   3.622   0.810   4.761
10233TIP3    H230641   3.690   0.941   4.793
10234TIP3   OH230642   8.335   1.112   5.116
10234TIP3    H130643   8.345   1.024   5.153
10234TIP3    H230644   8.335   1.098   5.021
10235TIP3   OH230645   7.258   2.725   1.273
10235TIP3    H130646   7.224   2.661   1.209
10235TIP3    H230647   7.218   2.698   1.356
10236TIP3   OH230648   7.278   7.909   6.392
10236TIP3    H130649   7.211   7.919   6.460
10236TIP3    H230650   7.238   7.942   6.312
10237TIP3   OH230651   5.131   4.727   5.126
10237TIP3    H130652   5.155   4.668   5.197
10237TIP3    H230653   5.093   4.803   5.169
10238TIP3   OH230654   7.737   0.658   4.652
10238TIP3    H130655   7.822   0.615   4.659
10238TIP3    H230656   7.677   0.601   4.700
10239TIP3   OH230657   3.500   0.015   4.861
10239TIP3    H130658   3.464  -0.069   4.891
10239TIP3    H230659   3.577   0.029   4.915
10240TIP3   OH230660   0.243   5.955   0.677
10240TIP3    H130661   0.315   6.014   0.657
10240TIP3    H230662   0.176   6.011   0.715
10241TIP3   OH230663   7.123   6.162   5.246
10241TIP3    H130664   7.094   6.193   5.160
10241TIP3    H230665   7.094   6.071   5.249
10242TIP3   OH230666   3.364   3.469   1.820
10242TIP3    H130667   3.271   3.475   1.797
10242TIP3    H230668   3.400   3.406   1.758
10243TIP3   OH230669   3.109   7.087   0.908
10243TIP3    H130670   3.087   7.170   0.866
10243TIP3    H230671   3.048   7.024   0.869
10244TIP3   OH230672   0.039   6.530   3.613
10244TIP3    H130673  -0.054   6.509   3.606
10244TIP3    H230674   0.083   6.446   3.600
10245TIP3   OH230675   0.302   5.528   3.973
10245TIP3    H130676   0.226   5.511   4.028
10245TIP3    H230677   0.321   5.444   3.932
10246TIP3   OH230678   7.525   1.736   0.389
10246TIP3    H130679   7.509   1.643   0.399
10246TIP3    H230680   7.496   1.756   0.300
10247TIP3   OH230681   7.877   2.613   3.327
10247TIP3    H130682   7.854   2.578   3.241
10247TIP3    H230683   7.889   2.707   3.312
10248TIP3   OH230684   7.991   1.450   4.494
10248TIP3    H130685   7.984   1.364   4.535
10248TIP3    H230686   7.958   1.437   4.405
10249TIP3   OH230687   2.237   5.379   4.194
10249TIP3    H130688   2.167   5.423   4.242
10249TIP3    H230689   2.219   5.397   4.102
10250TIP3   OH230690   5.925   6.517   6.021
10250TIP3    H130691   6.009   6.550   6.052
10250TIP3    H230692   5.932   6.422   6.031
10251TIP3   OH230693   4.781   1.434   1.297
10251TIP3    H130694   4.868   1.442   1.257
10251TIP3    H230695   4.795   1.384   1.377
10252TIP3   OH230696   5.961   0.746   3.692
10252TIP3    H130697   5.938   0.658   3.660
10252TIP3    H230698   6.044   0.766   3.649
10253TIP3   OH230699   7.187   1.194   1.019
10253TIP3    H130700   7.202   1.283   0.987
10253TIP3    H230701   7.104   1.200   1.067
10254TIP3   OH230702   2.669   6.659   5.547
10254TIP3    H130703   2.654   6.567   5.569
10254TIP3    H230704   2.749   6.682   5.594
10255TIP3   OH230705   3.355   1.113   0.117
10255TIP3    H130706   3.295   1.146   0.184
10255TIP3    H230707   3.440   1.111   0.159
10256TIP3   OH230708   3.711   3.244   1.871
10256TIP3    H130709   3.765   3.314   1.834
10256TIP3    H230710   3.736   3.166   1.822
10257TIP3   OH230711   2.505   7.114   2.021
10257TIP3    H130712   2.457   7.092   2.102
10257TIP3    H230713   2.553   7.193   2.042
10258TIP3   OH230714   2.925   2.122   2.985
10258TIP3    H130715   2.974   2.167   3.054
10258TIP3    H230716   2.871   2.059   3.032
10259TIP3   OH230717   8.017   4.674   2.585
10259TIP3    H130718   8.011   4.765   2.613
10259TIP3    H230719   8.020   4.624   2.667
10260TIP3   OH230720   2.528   5.668   2.375
10260TIP3    H130721   2.540   5.655   2.469
10260TIP3    H230722   2.609   5.708   2.345
10261TIP3   OH230723   7.841   5.817   3.448
10261TIP3    H130724   7.802   5.816   3.361
10261TIP3    H230725   7.769   5.844   3.506
10262TIP3   OH230726   3.526   6.582   4.411
10262TIP3    H130727   3.552   6.493   4.386
10262TIP3    H230728   3.463   6.570   4.481
10263TIP3   OH230729   2.083   3.751   0.229
10263TIP3    H130730   2.169   3.726   0.195
10263TIP3    H230731   2.022   3.696   0.181
10264TIP3   OH230732   5.040   5.762   5.106
10264TIP3    H130733   5.000   5.825   5.045
10264TIP3    H230734   5.010   5.676   5.075
10265TIP3   OH230735   1.001   5.051   3.997
10265TIP3    H130736   1.041   5.135   4.020
10265TIP3    H230737   0.942   5.032   4.070
10266TIP3   OH230738   7.080   2.453   6.151
10266TIP3    H130739   7.004   2.408   6.188
10266TIP3    H230740   7.087   2.534   6.201
10267TIP3   OH230741   7.245   1.431   5.590
10267TIP3    H130742   7.339   1.437   5.576
10267TIP3    H230743   7.222   1.513   5.635
10268TIP3   OH230744   4.273   2.206   2.580
10268TIP3    H130745   4.309   2.292   2.563
10268TIP3    H230746   4.183   2.223   2.607
10269TIP3   OH230747   0.718   5.153   5.102
10269TIP3    H130748   0.659   5.228   5.111
10269TIP3    H230749   0.661   5.077   5.102
10270TIP3   OH230750   0.539   1.185   3.473
10270TIP3    H130751   0.598   1.111   3.458
10270TIP3    H230752   0.564   1.248   3.406
10271TIP3   OH230753   6.418   4.064   1.673
10271TIP3    H130754   6.512   4.071   1.657
10271TIP3    H230755   6.411   4.015   1.755
10272TIP3   OH230756   6.782   7.451   6.834
10272TIP3    H130757   6.848   7.465   6.767
10272TIP3    H230758   6.699   7.455   6.787
10273TIP3   OH230759   2.145   7.608   5.181
10273TIP3    H130760   2.234   7.581   5.203
10273TIP3    H230761   2.156   7.693   5.137
10274TIP3   OH230762   6.252   7.568   0.680
10274TIP3    H130763   6.334   7.616   0.667
10274TIP3    H230764   6.262   7.489   0.627
10275TIP3   OH230765   7.541   6.240   6.346
10275TIP3    H130766   7.463   6.211   6.298
10275TIP3    H230767   7.611   6.240   6.280
10276TIP3   OH230768   8.391   3.921   3.814
10276TIP3    H130769   8.435   3.996   3.774
10276TIP3    H230770   8.325   3.960   3.872
10277TIP3   OH230771   5.016   6.518   0.709
10277TIP3    H130772   5.044   6.605   0.737
10277TIP3    H230773   4.993   6.473   0.790
10278TIP3   OH230774   8.290   5.092   0.852
10278TIP3    H130775   8.275   5.028   0.922
10278TIP3    H230776   8.355   5.152   0.888
10279TIP3   OH230777   2.572   2.553   6.830
10279TIP3    H130778   2.598   2.616   6.897
10279TIP3    H230779   2.651   2.501   6.813
10280TIP3   OH230780   7.548   4.583   1.164
10280TIP3    H130781   7.464   4.569   1.119
10280TIP3    H230782   7.555   4.678   1.174
10281TIP3   OH230783   1.102   1.496   4.770
10281TIP3    H130784   1.182   1.463   4.729
10281TIP3    H230785   1.129   1.522   4.858
10282TIP3   OH230786   7.694   6.832   0.341
10282TIP3    H130787   7.736   6.746   0.343
10282TIP3    H230788   7.601   6.814   0.354
10283TIP3   OH230789   2.716   4.460   1.916
10283TIP3    H130790   2.799   4.506   1.902
10283TIP3    H230791   2.737   4.394   1.983
10284TIP3   OH230792   7.441   7.560   1.038
10284TIP3    H130793   7.478   7.540   0.952
10284TIP3    H230794   7.513   7.547   1.099
10285TIP3   OH230795   6.088   0.161   1.885
10285TIP3    H130796   6.097   0.191   1.976
10285TIP3    H230797   5.998   0.128   1.880
10286TIP3   OH230798   4.940   0.444   0.376
10286TIP3    H130799   4.892   0.506   0.321
10286TIP3    H230800   5.027   0.440   0.336
10287TIP3   OH230801   2.973   0.149   4.717
10287TIP3    H130802   2.984   0.238   4.750
10287TIP3    H230803   3.019   0.148   4.633
10288TIP3   OH230804   3.959   4.440   5.976
10288TIP3    H130805   3.889   4.378   5.955
10288TIP3    H230806   4.027   4.421   5.912
10289TIP3   OH230807   0.648   3.187   4.066
10289TIP3    H130808   0.695   3.263   4.100
10289TIP3    H230809   0.606   3.148   4.144
10290TIP3   OH230810   6.006   3.420   1.837
10290TIP3    H130811   5.921   3.465   1.843
10290TIP3    H230812   6.036   3.413   1.928
10291TIP3   OH230813   1.146   1.631   0.495
10291TIP3    H130814   1.190   1.609   0.412
10291TIP3    H230815   1.184   1.715   0.520
10292TIP3   OH230816   4.917   7.022   4.930
10292TIP3    H130817   5.007   7.012   4.961
10292TIP3    H230818   4.918   6.985   4.842
10293TIP3   OH230819   4.479   1.127   2.011
10293TIP3    H130820   4.438   1.052   2.055
10293TIP3    H230821   4.406   1.183   1.987
10294TIP3   OH230822   6.132   1.923   2.499
10294TIP3    H130823   6.162   2.006   2.535
10294TIP3    H230824   6.075   1.947   2.426
10295TIP3   OH230825   6.954   2.314   2.871
10295TIP3    H130826   6.866   2.315   2.833
10295TIP3    H230827   6.955   2.236   2.927
10296TIP3   OH230828   5.651   2.770   5.350
10296TIP3    H130829   5.588   2.705   5.321
10296TIP3    H230830   5.610   2.811   5.426
10297TIP3   OH230831   6.075   4.066   4.650
10297TIP3    H130832   6.062   4.063   4.555
10297TIP3    H230833   6.151   4.122   4.662
10298TIP3   OH230834   3.321   4.644   1.836
10298TIP3    H130835   3.312   4.648   1.931
10298TIP3    H230836   3.399   4.696   1.816
10299TIP3   OH230837   6.302   5.894   4.770
10299TIP3    H130838   6.285   5.912   4.677
10299TIP3    H230839   6.343   5.807   4.770
10300TIP3   OH230840   3.301   1.811   3.662
10300TIP3    H130841   3.389   1.848   3.671
10300TIP3    H230842   3.282   1.817   3.569
10301TIP3   OH230843   0.941   1.219   1.629
10301TIP3    H130844   1.007   1.163   1.670
10301TIP3    H230845   0.893   1.258   1.703
10302TIP3   OH230846   4.096   3.020   2.858
10302TIP3    H130847   4.178   2.982   2.827
10302TIP3    H230848   4.086   3.101   2.808
10303TIP3   OH230849   1.096   1.802   4.385
10303TIP3    H130850   1.151   1.862   4.435
10303TIP3    H230851   1.055   1.747   4.451
10304TIP3   OH230852   3.378   4.562   5.150
10304TIP3    H130853   3.348   4.473   5.129
10304TIP3    H230854   3.314   4.619   5.107
10305TIP3   OH230855   7.625   4.359   1.826
10305TIP3    H130856   7.530   4.343   1.822
10305TIP3    H230857   7.641   4.425   1.759
10306TIP3   OH230858   3.900   6.912   1.052
10306TIP3    H130859   3.894   6.882   0.961
10306TIP3    H230860   3.990   6.892   1.078
10307TIP3   OH230861   3.836   7.615   4.608
10307TIP3    H130862   3.812   7.674   4.537
10307TIP3    H230863   3.761   7.556   4.616
10308TIP3   OH230864   2.227   3.145   3.309
10308TIP3    H130865   2.273   3.061   3.310
10308TIP3    H230866   2.190   3.153   3.397
10309TIP3   OH230867   0.266  -0.006   1.416
10309TIP3    H130868   0.256  -0.079   1.478
10309TIP3    H230869   0.330   0.052   1.457
10310TIP3   OH230870   7.354   5.895   3.242
10310TIP3    H130871   7.379   5.866   3.154
10310TIP3    H230872   7.265   5.929   3.232
10311TIP3   OH230873   2.076   1.630   0.850
10311TIP3    H130874   2.019   1.628   0.927
10311TIP3    H230875   2.033   1.571   0.788
10312TIP3   OH230876   5.638   7.058   3.062
10312TIP3    H130877   5.562   7.047   3.119
10312TIP3    H230878   5.620   7.002   2.986
10313TIP3   OH230879   3.763   6.694   3.169
10313TIP3    H130880   3.798   6.737   3.247
10313TIP3    H230881   3.764   6.763   3.102
10314TIP3   OH230882   6.801   3.085   4.001
10314TIP3    H130883   6.827   3.158   4.057
10314TIP3    H230884   6.880   3.064   3.952
10315TIP3   OH230885   0.466   2.367   3.132
10315TIP3    H130886   0.379   2.326   3.125
10315TIP3    H230887   0.449   2.461   3.122
10316TIP3   OH230888   0.452   2.292   6.259
10316TIP3    H130889   0.491   2.357   6.318
10316TIP3    H230890   0.512   2.289   6.184
10317TIP3   OH230891   5.970   4.231   3.372
10317TIP3    H130892   6.063   4.245   3.353
10317TIP3    H230893   5.968   4.203   3.463
10318TIP3   OH230894   0.389   2.650   1.539
10318TIP3    H130895   0.350   2.595   1.471
10318TIP3    H230896   0.458   2.596   1.577
10319TIP3   OH230897   6.793   4.670   4.349
10319TIP3    H130898   6.698   4.661   4.338
10319TIP3    H230899   6.830   4.593   4.305
10320TIP3   OH230900   2.305   1.553   4.560
10320TIP3    H130901   2.390   1.582   4.593
10320TIP3    H230902   2.255   1.529   4.638
10321TIP3   OH230903   4.261   4.436   6.325
10321TIP3    H130904   4.172   4.439   6.361
10321TIP3    H230905   4.279   4.343   6.311
10322TIP3   OH230906   7.746   5.131   4.669
10322TIP3    H130907   7.690   5.208   4.663
10322TIP3    H230908   7.686   5.057   4.660
10323TIP3   OH230909   5.648   3.127   6.111
10323TIP3    H130910   5.742   3.143   6.122
10323TIP3    H230911   5.627   3.167   6.027
10324TIP3   OH230912   3.407   6.062   6.441
10324TIP3    H130913   3.476   6.107   6.491
10324TIP3    H230914   3.374   5.995   6.502
10325TIP3   OH230915   1.316   1.246   6.218
10325TIP3    H130916   1.375   1.181   6.257
10325TIP3    H230917   1.328   1.235   6.124
10326TIP3   OH230918   5.274   7.037   6.548
10326TIP3    H130919   5.263   6.965   6.486
10326TIP3    H230920   5.246   7.115   6.500
10327TIP3   OH230921   2.651   6.089   1.740
10327TIP3    H130922   2.575   6.038   1.769
10327TIP3    H230923   2.616   6.175   1.720
10328TIP3   OH230924   3.268   1.883   6.640
10328TIP3    H130925   3.225   1.798   6.653
10328TIP3    H230926   3.262   1.926   6.726
10329TIP3   OH230927   4.525   3.172   0.742
10329TIP3    H130928   4.458   3.109   0.718
10329TIP3    H230929   4.607   3.123   0.736
10330TIP3   OH230930   7.736   0.492   3.568
10330TIP3    H130931   7.643   0.469   3.567
10330TIP3    H230932   7.750   0.531   3.654
10331TIP3   OH230933   4.873   4.761   6.692
10331TIP3    H130934   4.875   4.668   6.713
10331TIP3    H230935   4.780   4.784   6.695
10332TIP3   OH230936   5.221   0.844   0.526
10332TIP3    H130937   5.206   0.831   0.619
10332TIP3    H230938   5.242   0.757   0.492
10333TIP3   OH230939   1.037   4.147   1.096
10333TIP3    H130940   1.035   4.188   1.183
10333TIP3    H230941   0.951   4.165   1.058
10334TIP3   OH230942   2.391   2.503   1.019
10334TIP3    H130943   2.299   2.529   1.023
10334TIP3    H230944   2.405   2.478   0.928
10335TIP3   OH230945   4.829   1.805   6.728
10335TIP3    H130946   4.760   1.748   6.696
10335TIP3    H230947   4.908   1.777   6.681
10336TIP3   OH230948   8.245   7.307   0.018
10336TIP3    H130949   8.217   7.379   0.075
10336TIP3    H230950   8.339   7.299   0.035
10337TIP3   OH230951   4.562   7.763   2.579
10337TIP3    H130952   4.618   7.695   2.615
10337TIP3    H230953   4.617   7.808   2.515
10338TIP3   OH230954   2.218   7.253   2.698
10338TIP3    H130955   2.127   7.263   2.669
10338TIP3    H230956   2.248   7.342   2.716
10339TIP3   OH230957   1.257   3.513   3.995
10339TIP3    H130958   1.267   3.554   4.081
10339TIP3    H230959   1.317   3.438   3.997
10340TIP3   OH230960   1.481   5.033   4.009
10340TIP3    H130961   1.568   4.995   4.002
10340TIP3    H230962   1.436   4.980   4.075
10341TIP3   OH230963   0.105   0.230   5.024
10341TIP3    H130964   0.177   0.180   5.063
10341TIP3    H230965   0.113   0.317   5.063
10342TIP3   OH230966   2.845   1.313   2.306
10342TIP3    H130967   2.750   1.323   2.315
10342TIP3    H230968   2.881   1.394   2.341
10343TIP3   OH230969   5.018   4.214   3.528
10343TIP3    H130970   5.087   4.216   3.594
10343TIP3    H230971   4.940   4.247   3.574
10344TIP3   OH230972   1.636   5.967   2.006
10344TIP3    H130973   1.638   5.871   2.006
10344TIP3    H230974   1.703   5.993   1.943
10345TIP3   OH230975   6.994   0.923   4.307
10345TIP3    H130976   6.921   0.921   4.368
10345TIP3    H230977   7.009   1.016   4.291
10346TIP3   OH230978   6.488   1.546   4.650
10346TIP3    H130979   6.493   1.472   4.710
10346TIP3    H230980   6.548   1.611   4.686
10347TIP3   OH230981   7.571   3.757   0.446
10347TIP3    H130982   7.644   3.747   0.385
10347TIP3    H230983   7.563   3.671   0.488
10348TIP3   OH230984   7.015   7.793   2.364
10348TIP3    H130985   7.005   7.850   2.441
10348TIP3    H230986   6.925   7.779   2.334
10349TIP3   OH230987   2.730   1.065   2.643
10349TIP3    H130988   2.673   1.022   2.579
10349TIP3    H230989   2.817   1.059   2.605
10350TIP3   OH230990   2.093   0.580   3.805
10350TIP3    H130991   2.113   0.651   3.866
10350TIP3    H230992   2.165   0.518   3.816
10351TIP3   OH230993   8.209   6.029   1.447
10351TIP3    H130994   8.140   6.092   1.470
10351TIP3    H230995   8.211   5.967   1.520
10352TIP3   OH230996   5.878   3.443   1.344
10352TIP3    H130997   5.816   3.372   1.362
10352TIP3    H230998   5.905   3.428   1.254
10353TIP3   OH230999   1.675   7.165   5.247
10353TIP3    H131000   1.665   7.079   5.206
10353TIP3    H231001   1.737   7.212   5.191
10354TIP3   OH231002   2.351   2.989   5.247
10354TIP3    H131003   2.298   2.992   5.167
10354TIP3    H231004   2.439   3.011   5.218
10355TIP3   OH231005   8.090   7.063   1.874
10355TIP3    H131006   8.144   7.131   1.835
10355TIP3    H231007   8.014   7.056   1.817
10356TIP3   OH231008   1.137   4.040   0.214
10356TIP3    H131009   1.135   3.946   0.234
10356TIP3    H231010   1.115   4.044   0.121
10357TIP3   OH231011   0.377   7.540   1.955
10357TIP3    H131012   0.401   7.633   1.960
10357TIP3    H231013   0.336   7.521   2.040
10358TIP3   OH231014   7.166   6.808   1.276
10358TIP3    H131015   7.155   6.853   1.192
10358TIP3    H231016   7.090   6.835   1.327
10359TIP3   OH231017   6.035   1.363   1.006
10359TIP3    H131018   5.948   1.389   0.979
10359TIP3    H231019   6.079   1.445   1.031
10360TIP3   OH231020   2.899   5.812   4.407
10360TIP3    H131021   2.918   5.725   4.372
10360TIP3    H231022   2.936   5.872   4.344
10361TIP3   OH231023   6.000   5.445   1.989
10361TIP3    H131024   5.990   5.515   2.054
10361TIP3    H231025   6.045   5.487   1.916
10362TIP3   OH231026   4.682   2.995   0.141
10362TIP3    H131027   4.768   3.024   0.112
10362TIP3    H231028   4.670   3.036   0.227
10363TIP3   OH231029   5.440   0.107   5.083
10363TIP3    H131030   5.526   0.114   5.041
10363TIP3    H231031   5.459   0.107   5.177
10364TIP3   OH231032   0.127   5.104   5.576
10364TIP3    H131033   0.172   5.184   5.548
10364TIP3    H231034   0.080   5.129   5.655
10365TIP3   OH231035   5.060   3.160   1.892
10365TIP3    H131036   5.028   3.070   1.881
10365TIP3    H231037   5.051   3.199   1.805
10366TIP3   OH231038   2.375   5.748   4.600
10366TIP3    H131039   2.456   5.776   4.643
10366TIP3    H231040   2.314   5.821   4.613
10367TIP3   OH231041   3.776   1.032   0.659
10367TIP3    H131042   3.848   1.052   0.720
10367TIP3    H231043   3.817   1.032   0.573
10368TIP3   OH231044   6.584   3.481   1.720
10368TIP3    H131045   6.610   3.573   1.708
10368TIP3    H231046   6.663   3.431   1.704
10369TIP3   OH231047   4.704   1.763   6.322
10369TIP3    H131048   4.640   1.713   6.272
10369TIP3    H231049   4.712   1.715   6.405
10370TIP3   OH231050   3.594   5.143   4.858
10370TIP3    H131051   3.663   5.104   4.804
10370TIP3    H231052   3.641   5.204   4.915
10371TIP3   OH231053   0.727   3.564   5.016
10371TIP3    H131054   0.737   3.583   4.923
10371TIP3    H231055   0.815   3.578   5.053
10372TIP3   OH231056   5.755   4.257   4.298
10372TIP3    H131057   5.812   4.257   4.221
10372TIP3    H231058   5.815   4.252   4.372
10373TIP3   OH231059   6.648   1.074   0.221
10373TIP3    H131060   6.644   0.979   0.222
10373TIP3    H231061   6.624   1.098   0.131
10374TIP3   OH231062   1.787   1.890   0.643
10374TIP3    H131063   1.870   1.935   0.624
10374TIP3    H231064   1.726   1.922   0.577
10375TIP3   OH231065   8.278   2.893   0.950
10375TIP3    H131066   8.222   2.896   0.872
10375TIP3    H231067   8.235   2.949   1.013
10376TIP3   OH231068   5.437   2.010   2.593
10376TIP3    H131069   5.358   1.995   2.540
10376TIP3    H231070   5.435   1.941   2.659
10377TIP3   OH231071   5.923   4.776   5.256
10377TIP3    H131072   5.882   4.779   5.169
10377TIP3    H231073   5.881   4.701   5.299
10378TIP3   OH231074   5.445   5.443   1.286
10378TIP3    H131075   5.487   5.456   1.201
10378TIP3    H231076   5.397   5.524   1.303
10379TIP3   OH231077   2.428   5.151   1.912
10379TIP3    H131078   2.393   5.185   1.830
10379TIP3    H231079   2.351   5.125   1.963
10380TIP3   OH231080   0.188   5.824   6.617
10380TIP3    H131081   0.177   5.905   6.568
10380TIP3    H231082   0.143   5.839   6.700
10381TIP3   OH231083   2.711   0.525   6.539
10381TIP3    H131084   2.649   0.460   6.505
10381TIP3    H231085   2.656   0.597   6.571
10382TIP3   OH231086   4.854   7.771   4.806
10382TIP3    H131087   4.762   7.750   4.792
10382TIP3    H231088   4.900   7.725   4.736
10383TIP3   OH231089   6.186   6.441   2.027
10383TIP3    H131090   6.226   6.361   1.995
10383TIP3    H231091   6.131   6.471   1.954
10384TIP3   OH231092   7.067   6.838   6.763
10384TIP3    H131093   6.984   6.795   6.780
10384TIP3    H231094   7.126   6.805   6.830
10385TIP3   OH231095   0.194   6.601   6.601
10385TIP3    H131096   0.261   6.641   6.546
10385TIP3    H231097   0.159   6.529   6.547
10386TIP3   OH231098   0.276   1.124   1.279
10386TIP3    H131099   0.246   1.209   1.247
10386TIP3    H231100   0.328   1.145   1.357
10387TIP3   OH231101   0.059   1.203   0.301
10387TIP3    H131102  -0.014   1.201   0.239
10387TIP3    H231103   0.029   1.260   0.372
10388TIP3   OH231104   5.307   3.184   4.205
10388TIP3    H131105   5.362   3.240   4.260
10388TIP3    H231106   5.294   3.235   4.125
10389TIP3   OH231107   6.010   7.494   1.693
10389TIP3    H131108   5.946   7.471   1.626
10389TIP3    H231109   6.089   7.446   1.668
10390TIP3   OH231110   0.404   6.717   5.811
10390TIP3    H131111   0.397   6.788   5.747
10390TIP3    H231112   0.488   6.675   5.790
10391TIP3   OH231113   4.617   4.485   4.053
10391TIP3    H131114   4.593   4.403   4.095
10391TIP3    H231115   4.710   4.474   4.030
10392TIP3   OH231116   2.542   6.152   0.499
10392TIP3    H131117   2.537   6.136   0.594
10392TIP3    H231118   2.458   6.120   0.466
10393TIP3   OH231119   0.974   3.606   1.920
10393TIP3    H131120   0.901   3.639   1.971
10393TIP3    H231121   0.991   3.674   1.855
10394TIP3   OH231122   2.478   1.514   1.812
10394TIP3    H131123   2.537   1.472   1.874
10394TIP3    H231124   2.419   1.444   1.784
10395TIP3   OH231125   6.486   4.957   3.098
10395TIP3    H131126   6.417   4.909   3.052
10395TIP3    H231127   6.439   5.027   3.144
10396TIP3   OH231128   2.097   0.789   4.999
10396TIP3    H131129   2.157   0.831   4.937
10396TIP3    H231130   2.010   0.801   4.960
10397TIP3   OH231131   0.678   6.360   4.880
10397TIP3    H131132   0.751   6.333   4.936
10397TIP3    H231133   0.701   6.448   4.851
10398TIP3   OH231134   8.006   3.306   4.546
10398TIP3    H131135   8.042   3.340   4.464
10398TIP3    H231136   7.966   3.223   4.523
10399TIP3   OH231137   6.443   0.986   5.291
10399TIP3    H131138   6.520   1.006   5.345
10399TIP3    H231139   6.418   1.071   5.253
10400TIP3   OH231140  -0.043   4.972   5.368
10400TIP3    H131141   0.030   4.981   5.429
10400TIP3    H231142  -0.022   4.895   5.316
10401TIP3   OH231143   4.037   0.713   2.243
10401TIP3    H131144   4.093   0.639   2.218
10401TIP3    H231145   3.984   0.680   2.315
10402TIP3   OH231146   6.593   2.345   2.298
10402TIP3    H131147   6.630   2.376   2.380
10402TIP3    H231148   6.537   2.417   2.268
10403TIP3   OH231149   1.021   1.811   3.297
10403TIP3    H131150   0.956   1.880   3.312
10403TIP3    H231151   0.973   1.742   3.253
10404TIP3   OH231152   4.078   6.044   5.508
10404TIP3    H131153   4.034   6.128   5.492
10404TIP3    H231154   4.017   5.978   5.474
10405TIP3   OH231155   5.322   2.298   6.374
10405TIP3    H131156   5.319   2.229   6.441
10405TIP3    H231157   5.416   2.313   6.361
10406TIP3   OH231158   4.103   0.095   3.392
10406TIP3    H131159   4.062   0.165   3.342
10406TIP3    H231160   4.190   0.129   3.413
10407TIP3   OH231161   4.056   3.017   2.177
10407TIP3    H131162   4.076   3.060   2.260
10407TIP3    H231163   3.962   3.032   2.165
10408TIP3   OH231164   7.388   5.019   1.679
10408TIP3    H131165   7.397   4.965   1.758
10408TIP3    H231166   7.452   4.983   1.618
10409TIP3   OH231167   6.479   6.989   0.194
10409TIP3    H131168   6.555   6.964   0.246
10409TIP3    H231169   6.416   7.022   0.258
10410TIP3   OH231170   6.458   6.639   0.963
10410TIP3    H131171   6.532   6.690   0.929
10410TIP3    H231172   6.491   6.603   1.045
10411TIP3   OH231173   1.706   0.676   6.638
10411TIP3    H131174   1.738   0.666   6.728
10411TIP3    H231175   1.765   0.624   6.585
10412TIP3   OH231176   5.513   5.841   5.043
10412TIP3    H131177   5.481   5.874   5.127
10412TIP3    H231178   5.586   5.899   5.020
10413TIP3   OH231179   7.189   0.254   1.433
10413TIP3    H131180   7.241   0.176   1.452
10413TIP3    H231181   7.134   0.266   1.510
10414TIP3   OH231182   4.991   2.898   0.415
10414TIP3    H131183   5.026   2.977   0.456
10414TIP3    H231184   4.964   2.842   0.488
10415TIP3   OH231185   5.979   3.651   5.690
10415TIP3    H131186   5.986   3.747   5.686
10415TIP3    H231187   5.987   3.630   5.783
10416TIP3   OH231188   2.012   4.811   2.111
10416TIP3    H131189   2.097   4.770   2.095
10416TIP3    H231190   1.979   4.766   2.189
10417TIP3   OH231191   0.579   6.261   3.408
10417TIP3    H131192   0.615   6.227   3.490
10417TIP3    H231193   0.633   6.337   3.387
10418TIP3   OH231194   4.696   6.005   6.835
10418TIP3    H131195   4.734   5.923   6.866
10418TIP3    H231196   4.647   5.981   6.757
10419TIP3   OH231197   6.886   6.861   2.255
10419TIP3    H131198   6.857   6.771   2.241
10419TIP3    H231199   6.915   6.863   2.346
10420TIP3   OH231200   8.051   5.985   6.288
10420TIP3    H131201   7.965   6.023   6.307
10420TIP3    H231202   8.032   5.892   6.271
10421TIP3   OH231203   1.634   4.688   1.058
10421TIP3    H131204   1.662   4.597   1.046
10421TIP3    H231205   1.540   4.686   1.039
10422TIP3   OH231206   1.809   7.045   6.503
10422TIP3    H131207   1.850   7.011   6.423
10422TIP3    H231208   1.878   7.041   6.569
10423TIP3   OH231209   7.747   1.643   4.392
10423TIP3    H131210   7.839   1.666   4.400
10423TIP3    H231211   7.701   1.727   4.392
10424TIP3   OH231212   5.173   6.454   3.865
10424TIP3    H131213   5.180   6.517   3.794
10424TIP3    H231214   5.128   6.501   3.936
10425TIP3   OH231215   2.092   2.895   1.984
10425TIP3    H131216   2.120   2.983   2.007
10425TIP3    H231217   2.058   2.902   1.895
10426TIP3   OH231218   3.628   5.600   3.397
10426TIP3    H131219   3.664   5.646   3.321
10426TIP3    H231220   3.701   5.591   3.457
10427TIP3   OH231221   7.725   7.429   1.042
10427TIP3    H131222   7.659   7.446   0.975
10427TIP3    H231223   7.704   7.342   1.076
10428TIP3   OH231224   3.532   7.769   1.903
10428TIP3    H131225   3.538   7.849   1.850
10428TIP3    H231226   3.546   7.799   1.993
10429TIP3   OH231227   2.220   6.523   0.561
10429TIP3    H131228   2.193   6.480   0.641
10429TIP3    H231229   2.181   6.471   0.491
10430TIP3   OH231230   0.784   2.509   5.615
10430TIP3    H131231   0.790   2.563   5.537
10430TIP3    H231232   0.717   2.444   5.594
10431TIP3   OH231233   1.276   7.735   4.240
10431TIP3    H131234   1.318   7.821   4.233
10431TIP3    H231235   1.187   7.754   4.268
10432TIP3   OH231236   7.442   1.483   0.092
10432TIP3    H131237   7.348   1.498   0.102
10432TIP3    H231238   7.476   1.480   0.182
10433TIP3   OH231239   2.810   4.224   4.471
10433TIP3    H131240   2.787   4.160   4.539
10433TIP3    H231241   2.858   4.173   4.406
10434TIP3   OH231242   3.283   2.240   5.189
10434TIP3    H131243   3.250   2.297   5.119
10434TIP3    H231244   3.318   2.301   5.254
10435TIP3   OH231245   1.406   0.354   4.075
10435TIP3    H131246   1.466   0.417   4.036
10435TIP3    H231247   1.324   0.366   4.027
10436TIP3   OH231248   0.207   1.648   6.114
10436TIP3    H131249   0.222   1.560   6.080
10436TIP3    H231250   0.120   1.645   6.153
10437TIP3   OH231251   6.019   6.171   2.480
10437TIP3    H131252   5.929   6.149   2.458
10437TIP3    H231253   6.070   6.097   2.449
10438TIP3   OH231254   3.058   3.544   3.930
10438TIP3    H131255   3.127   3.479   3.938
10438TIP3    H231256   3.104   3.628   3.929
10439TIP3   OH231257   3.716   7.166   6.215
10439TIP3    H131258   3.698   7.139   6.305
10439TIP3    H231259   3.642   7.131   6.165
10440TIP3   OH231260   4.903   2.337   3.493
10440TIP3    H131261   4.808   2.329   3.502
10440TIP3    H231262   4.920   2.312   3.402
10441TIP3   OH231263   4.467   6.942   3.490
10441TIP3    H131264   4.371   6.944   3.487
10441TIP3    H231265   4.488   6.974   3.578
10442TIP3   OH231266   4.095   2.245   0.785
10442TIP3    H131267   4.017   2.283   0.824
10442TIP3    H231268   4.143   2.320   0.748
10443TIP3   OH231269   7.724   0.815   2.274
10443TIP3    H131270   7.812   0.827   2.311
10443TIP3    H231271   7.691   0.903   2.261
10444TIP3   OH231272   0.833   1.956   5.917
10444TIP3    H131273   0.757   1.983   5.865
10444TIP3    H231274   0.805   1.969   6.008
10445TIP3   OH231275   1.437   6.498   0.661
10445TIP3    H131276   1.348   6.480   0.630
10445TIP3    H231277   1.430   6.581   0.708
10446TIP3   OH231278   8.093   7.581   5.458
10446TIP3    H131279   8.184   7.596   5.484
10446TIP3    H231280   8.058   7.668   5.441
10447TIP3   OH231281   1.065   3.424   5.715
10447TIP3    H131282   1.005   3.470   5.656
10447TIP3    H231283   1.137   3.395   5.659
10448TIP3   OH231284   0.592   3.826   4.381
10448TIP3    H131285   0.507   3.814   4.338
10448TIP3    H231286   0.570   3.834   4.474
10449TIP3   OH231287   1.609   3.603   3.466
10449TIP3    H131288   1.621   3.546   3.390
10449TIP3    H231289   1.697   3.628   3.492
10450TIP3   OH231290   3.553   3.866   1.328
10450TIP3    H131291   3.486   3.842   1.264
10450TIP3    H231292   3.525   3.823   1.409
10451TIP3   OH231293   1.017   1.571   2.083
10451TIP3    H131294   1.026   1.499   2.145
10451TIP3    H231295   0.925   1.568   2.056
10452TIP3   OH231296   0.817   7.678   3.587
10452TIP3    H131297   0.860   7.595   3.607
10452TIP3    H231298   0.889   7.742   3.584
10453TIP3   OH231299   7.390   6.606   4.252
10453TIP3    H131300   7.421   6.571   4.169
10453TIP3    H231301   7.356   6.693   4.230
10454TIP3   OH231302   1.113   2.012   2.999
10454TIP3    H131303   1.069   1.951   3.058
10454TIP3    H231304   1.063   2.008   2.917
10455TIP3   OH231305   2.752   3.277   0.124
10455TIP3    H131306   2.658   3.267   0.142
10455TIP3    H231307   2.789   3.308   0.207
10456TIP3   OH231308   0.930   5.506   4.667
10456TIP3    H131309   1.000   5.475   4.610
10456TIP3    H231310   0.928   5.601   4.653
10457TIP3   OH231311   0.742   4.955   1.362
10457TIP3    H131312   0.775   4.866   1.372
10457TIP3    H231313   0.681   4.951   1.289
10458TIP3   OH231314   1.162   0.644   5.101
10458TIP3    H131315   1.219   0.629   5.176
10458TIP3    H231316   1.207   0.604   5.027
10459TIP3   OH231317   3.782   3.185   3.356
10459TIP3    H131318   3.857   3.196   3.298
10459TIP3    H231319   3.758   3.273   3.382
10460TIP3   OH231320   6.087   0.872   6.657
10460TIP3    H131321   6.021   0.896   6.722
10460TIP3    H231322   6.077   0.778   6.645
10461TIP3   OH231323   6.428   4.163   2.893
10461TIP3    H131324   6.473   4.080   2.880
10461TIP3    H231325   6.417   4.199   2.805
10462TIP3   OH231326   2.553   7.069   4.379
10462TIP3    H131327   2.638   7.026   4.394
10462TIP3    H231328   2.568   7.161   4.401
10463TIP3   OH231329   6.573   0.825   5.113
10463TIP3    H131330   6.523   0.878   5.175
10463TIP3    H231331   6.538   0.737   5.122
10464TIP3   OH231332   0.800   5.031   2.573
10464TIP3    H131333   0.873   4.981   2.537
10464TIP3    H231334   0.784   5.100   2.509
10465TIP3   OH231335   5.190   2.934   2.688
10465TIP3    H131336   5.258   2.868   2.671
10465TIP3    H231337   5.128   2.890   2.746
10466TIP3   OH231338   4.649   7.871   2.326
10466TIP3    H131339   4.727   7.889   2.274
10466TIP3    H231340   4.590   7.945   2.307
10467TIP3   OH231341   1.537   6.577   5.002
10467TIP3    H131342   1.597   6.616   4.938
10467TIP3    H231343   1.454   6.622   4.987
10468TIP3   OH231344   1.970   2.109   6.569
10468TIP3    H131345   2.013   2.030   6.600
10468TIP3    H231346   2.035   2.154   6.515
10469TIP3   OH231347   6.792   4.428   0.719
10469TIP3    H131348   6.852   4.393   0.785
10469TIP3    H231349   6.706   4.427   0.760
10470TIP3   OH231350   4.635   7.467   3.959
10470TIP3    H131351   4.598   7.477   4.046
10470TIP3    H231352   4.630   7.555   3.920
10471TIP3   OH231353   8.076   2.635   5.624
10471TIP3    H131354   8.158   2.644   5.673
10471TIP3    H231355   8.034   2.721   5.631
10472TIP3   OH231356   2.029   3.095   2.155
10472TIP3    H131357   2.007   3.003   2.140
10472TIP3    H231358   1.947   3.142   2.140
10473TIP3   OH231359   3.371   2.221   5.714
10473TIP3    H131360   3.334   2.146   5.667
10473TIP3    H231361   3.321   2.225   5.795
10474TIP3   OH231362   3.891   3.227   5.348
10474TIP3    H131363   3.892   3.143   5.393
10474TIP3    H231364   3.964   3.222   5.286
10475TIP3   OH231365   4.181   7.682   0.998
10475TIP3    H131366   4.161   7.767   0.960
10475TIP3    H231367   4.105   7.661   1.052
10476TIP3   OH231368   2.076   6.437   1.071
10476TIP3    H131369   1.992   6.439   1.117
10476TIP3    H231370   2.141   6.452   1.140
10477TIP3   OH231371   7.491   1.904   4.182
10477TIP3    H131372   7.560   1.945   4.234
10477TIP3    H231373   7.468   1.970   4.116
10478TIP3   OH231374   5.530   4.118   3.245
10478TIP3    H131375   5.620   4.088   3.237
10478TIP3    H231376   5.479   4.057   3.192
10479TIP3   OH231377   3.277   4.322   4.160
10479TIP3    H131378   3.192   4.343   4.199
10479TIP3    H231379   3.255   4.275   4.079
10480TIP3   OH231380   3.570   6.418   6.701
10480TIP3    H131381   3.562   6.504   6.660
10480TIP3    H231382   3.634   6.431   6.771
10481TIP3   OH231383   6.731   4.320   6.533
10481TIP3    H131384   6.734   4.393   6.595
10481TIP3    H231385   6.713   4.243   6.588
10482TIP3   OH231386   6.599   2.803   4.534
10482TIP3    H131387   6.546   2.816   4.455
10482TIP3    H231388   6.687   2.831   4.509
10483TIP3   OH231389   2.484   0.420   6.437
10483TIP3    H131390   2.390   0.407   6.420
10483TIP3    H231391   2.504   0.504   6.396
10484TIP3   OH231392   1.079   3.885   4.598
10484TIP3    H131393   1.067   3.980   4.605
10484TIP3    H231394   1.155   3.866   4.653
10485TIP3   OH231395   6.977   2.239   0.004
10485TIP3    H131396   7.004   2.331   0.006
10485TIP3    H231397   7.057   2.191   0.025
10486TIP3   OH231398   7.408   7.850   1.600
10486TIP3    H131399   7.458   7.776   1.566
10486TIP3    H231400   7.395   7.907   1.524
10487TIP3   OH231401   3.811   4.621   0.867
10487TIP3    H131402   3.854   4.543   0.901
10487TIP3    H231403   3.865   4.694   0.897
10488TIP3   OH231404   2.086   5.368   1.230
10488TIP3    H131405   2.155   5.381   1.165
10488TIP3    H231406   2.118   5.413   1.309
10489TIP3   OH231407   7.378   0.014   6.425
10489TIP3    H131408   7.322   0.012   6.348
10489TIP3    H231409   7.343   0.084   6.480
10490TIP3   OH231410   0.988   5.603   4.309
10490TIP3    H131411   0.967   5.606   4.216
10490TIP3    H231412   1.079   5.574   4.312
10491TIP3   OH231413   7.844   0.069   0.875
10491TIP3    H131414   7.805   0.012   0.808
10491TIP3    H231415   7.885   0.140   0.824
10492TIP3   OH231416   0.716   0.392   5.710
10492TIP3    H131417   0.696   0.363   5.621
10492TIP3    H231418   0.641   0.362   5.762
10493TIP3   OH231419   5.859   2.407   4.904
10493TIP3    H131420   5.874   2.385   4.996
10493TIP3    H231421   5.942   2.388   4.861
10494TIP3   OH231422   2.600   3.696   6.172
10494TIP3    H131423   2.580   3.651   6.255
10494TIP3    H231424   2.645   3.776   6.199
10495TIP3   OH231425   2.259   1.811   4.416
10495TIP3    H131426   2.332   1.802   4.355
10495TIP3    H231427   2.270   1.740   4.479
10496TIP3   OH231428   5.442   3.934   3.639
10496TIP3    H131429   5.358   3.889   3.646
10496TIP3    H231430   5.485   3.895   3.563
10497TIP3   OH231431   0.566   3.172   6.315
10497TIP3    H131432   0.537   3.260   6.341
10497TIP3    H231433   0.572   3.124   6.397
10498TIP3   OH231434   4.603   4.999   6.529
10498TIP3    H131435   4.669   4.951   6.480
10498TIP3    H231436   4.649   5.073   6.567
10499TIP3   OH231437   7.871   3.656   1.560
10499TIP3    H131438   7.916   3.606   1.491
10499TIP3    H231439   7.938   3.669   1.627
10500TIP3   OH231440   6.173   5.903   4.514
10500TIP3    H131441   6.098   5.953   4.481
10500TIP3    H231442   6.222   5.878   4.436
10501TIP3   OH231443   7.800   3.469   1.185
10501TIP3    H131444   7.718   3.484   1.232
10501TIP3    H231445   7.782   3.396   1.126
10502TIP3   OH231446   2.655   4.298   3.342
10502TIP3    H131447   2.705   4.252   3.275
10502TIP3    H231448   2.662   4.243   3.420
10503TIP3   OH231449   4.278   5.816   0.814
10503TIP3    H131450   4.360   5.835   0.768
10503TIP3    H231451   4.295   5.841   0.905
10504TIP3   OH231452   6.416   3.705   3.424
10504TIP3    H131453   6.422   3.799   3.441
10504TIP3    H231454   6.507   3.678   3.408
10505TIP3   OH231455   8.365   6.958   3.526
10505TIP3    H131456   8.398   7.045   3.503
10505TIP3    H231457   8.322   6.970   3.611
10506TIP3   OH231458   2.773   2.830   6.079
10506TIP3    H131459   2.680   2.811   6.071
10506TIP3    H231460   2.815   2.744   6.082
10507TIP3   OH231461   3.286   2.065   1.879
10507TIP3    H131462   3.191   2.053   1.890
10507TIP3    H231463   3.325   1.996   1.932
10508TIP3   OH231464   2.877   3.705   5.681
10508TIP3    H131465   2.945   3.702   5.614
10508TIP3    H231466   2.919   3.668   5.759
10509TIP3   OH231467   0.348   6.869   4.822
10509TIP3    H131468   0.261   6.881   4.785
10509TIP3    H231469   0.376   6.782   4.792
10510TIP3   OH231470   0.742   3.594   6.725
10510TIP3    H131471   0.794   3.672   6.746
10510TIP3    H231472   0.660   3.628   6.690
10511TIP3   OH231473   3.004   5.281   5.483
10511TIP3    H131474   2.968   5.290   5.571
10511TIP3    H231475   3.088   5.327   5.486
10512TIP3   OH231476   7.750   3.738   4.784
10512TIP3    H131477   7.754   3.653   4.741
10512TIP3    H231478   7.835   3.779   4.765
10513TIP3   OH231479   3.692   6.833   6.820
10513TIP3    H131480   3.701   6.784   6.738
10513TIP3    H231481   3.723   6.773   6.887
10514TIP3   OH231482   8.337   7.272   5.898
10514TIP3    H131483   8.432   7.282   5.909
10514TIP3    H231484   8.326   7.240   5.809
10515TIP3   OH231485   8.025   6.238   5.096
10515TIP3    H131486   7.969   6.236   5.018
10515TIP3    H231487   8.043   6.146   5.116
10516TIP3   OH231488   5.132   1.194   0.491
10516TIP3    H131489   5.158   1.286   0.480
10516TIP3    H231490   5.213   1.145   0.480
10517TIP3   OH231491   4.126   3.564   3.309
10517TIP3    H131492   4.212   3.542   3.273
10517TIP3    H231493   4.127   3.528   3.398
10518TIP3   OH231494   3.410   1.768   5.150
10518TIP3    H131495   3.354   1.801   5.221
10518TIP3    H231496   3.464   1.844   5.126
10519TIP3   OH231497   3.781   5.037   4.402
10519TIP3    H131498   3.700   5.011   4.359
10519TIP3    H231499   3.824   4.954   4.424
10520TIP3   OH231500   7.195   6.183   0.137
10520TIP3    H131501   7.167   6.103   0.182
10520TIP3    H231502   7.199   6.249   0.206
10521TIP3   OH231503   2.490   5.852   3.834
10521TIP3    H131504   2.444   5.935   3.828
10521TIP3    H231505   2.438   5.799   3.894
10522TIP3   OH231506   1.734   7.169   1.103
10522TIP3    H131507   1.813   7.222   1.094
10522TIP3    H231508   1.671   7.210   1.043
10523TIP3   OH231509   4.054   0.215   0.305
10523TIP3    H131510   3.983   0.204   0.241
10523TIP3    H231511   4.058   0.130   0.349
10524TIP3   OH231512   7.046   6.303   5.006
10524TIP3    H131513   6.992   6.239   4.959
10524TIP3    H231514   6.993   6.382   5.010
10525TIP3   OH231515   2.517   6.390   0.372
10525TIP3    H131516   2.520   6.330   0.447
10525TIP3    H231517   2.515   6.333   0.295
10526TIP3   OH231518   7.708   1.105   1.467
10526TIP3    H131519   7.629   1.058   1.493
10526TIP3    H231520   7.698   1.192   1.505
10527TIP3   OH231521   3.144   2.375   3.569
10527TIP3    H131522   3.068   2.322   3.544
10527TIP3    H231523   3.190   2.391   3.486
10528TIP3   OH231524   3.520   2.513   5.122
10528TIP3    H131525   3.612   2.536   5.133
10528TIP3    H231526   3.494   2.480   5.208
10529TIP3   OH231527   4.833   2.025   4.555
10529TIP3    H131528   4.846   2.116   4.526
10529TIP3    H231529   4.838   1.973   4.475
10530TIP3   OH231530   7.284   7.916   4.903
10530TIP3    H131531   7.242   7.864   4.972
10530TIP3    H231532   7.374   7.881   4.898
10531TIP3   OH231533   5.536   3.726   2.707
10531TIP3    H131534   5.545   3.631   2.703
10531TIP3    H231535   5.585   3.752   2.785
10532TIP3   OH231536   1.156   3.650   6.482
10532TIP3    H131537   1.151   3.743   6.507
10532TIP3    H231538   1.146   3.651   6.387
10533TIP3   OH231539   0.123   2.145   1.770
10533TIP3    H131540   0.134   2.124   1.677
10533TIP3    H231541   0.074   2.227   1.770
10534TIP3   OH231542   6.083   1.155   2.465
10534TIP3    H131543   6.151   1.132   2.528
10534TIP3    H231544   6.016   1.087   2.477
10535TIP3   OH231545   2.262   1.395   2.282
10535TIP3    H131546   2.274   1.385   2.188
10535TIP3    H231547   2.194   1.462   2.290
10536TIP3   OH231548   6.470   7.715   0.615
10536TIP3    H131549   6.485   7.736   0.522
10536TIP3    H231550   6.523   7.779   0.662
10537TIP3   OH231551   2.383   3.890   4.262
10537TIP3    H131552   2.369   3.796   4.250
10537TIP3    H231553   2.474   3.897   4.291
10538TIP3   OH231554   0.740   6.639   0.804
10538TIP3    H131555   0.653   6.602   0.821
10538TIP3    H231556   0.791   6.566   0.771
10539TIP3   OH231557   7.410   0.164   4.003
10539TIP3    H131558   7.394   0.181   4.095
10539TIP3    H231559   7.444   0.074   4.001
10540TIP3   OH231560   5.961   1.707   2.186
10540TIP3    H131561   5.921   1.784   2.144
10540TIP3    H231562   5.888   1.664   2.231
10541TIP3   OH231563   3.716   3.284   4.990
10541TIP3    H131564   3.742   3.367   4.950
10541TIP3    H231565   3.648   3.308   5.053
10542TIP3   OH231566   6.012   7.263   3.141
10542TIP3    H131567   5.998   7.291   3.232
10542TIP3    H231568   6.018   7.345   3.092
10543TIP3   OH231569   0.145   4.654   0.044
10543TIP3    H131570   0.208   4.583   0.048
10543TIP3    H231571   0.061   4.613   0.066
10544TIP3   OH231572   5.724   5.451   0.609
10544TIP3    H131573   5.706   5.362   0.639
10544TIP3    H231574   5.654   5.504   0.648
10545TIP3   OH231575   0.476   4.794   4.422
10545TIP3    H131576   0.513   4.751   4.346
10545TIP3    H231577   0.527   4.762   4.496
10546TIP3   OH231578   2.886   6.639   1.238
10546TIP3    H131579   2.955   6.626   1.303
10546TIP3    H231580   2.843   6.721   1.265
10547TIP3   OH231581   7.672   4.073   1.638
10547TIP3    H131582   7.590   4.039   1.676
10547TIP3    H231583   7.718   4.112   1.712
10548TIP3   OH231584   1.564   2.955   2.012
10548TIP3    H131585   1.475   2.975   2.041
10548TIP3    H231586   1.552   2.909   1.929
10549TIP3   OH231587   3.751   2.905   3.369
10549TIP3    H131588   3.758   3.000   3.362
10549TIP3    H231589   3.658   2.887   3.356
10550TIP3   OH231590   2.841   6.437   0.168
10550TIP3    H131591   2.869   6.439   0.259
10550TIP3    H231592   2.764   6.380   0.168
10551TIP3   OH231593   4.703   7.858   1.215
10551TIP3    H131594   4.709   7.901   1.129
10551TIP3    H231595   4.617   7.885   1.249
10552TIP3   OH231596   6.946   3.316   3.617
10552TIP3    H131597   6.893   3.238   3.600
10552TIP3    H231598   6.958   3.356   3.531
10553TIP3   OH231599   0.195   7.244   0.541
10553TIP3    H131600   0.157   7.267   0.456
10553TIP3    H231601   0.158   7.157   0.560
10554TIP3   OH231602   3.706   7.810   5.951
10554TIP3    H131603   3.725   7.725   5.913
10554TIP3    H231604   3.790   7.843   5.982
10555TIP3   OH231605   3.997   4.912   0.016
10555TIP3    H131606   4.091   4.932   0.009
10555TIP3    H231607   3.986   4.881   0.106
10556TIP3   OH231608   5.690   4.168   2.873
10556TIP3    H131609   5.703   4.221   2.952
10556TIP3    H231610   5.757   4.100   2.879
10557TIP3   OH231611   3.595   2.484   1.099
10557TIP3    H131612   3.665   2.547   1.080
10557TIP3    H231613   3.522   2.538   1.128
10558TIP3   OH231614   1.044   4.978   2.812
10558TIP3    H131615   1.085   4.900   2.774
10558TIP3    H231616   0.974   4.943   2.868
10559TIP3   OH231617   4.070   2.123   1.498
10559TIP3    H131618   4.154   2.079   1.509
10559TIP3    H231619   4.069   2.190   1.566
10560TIP3   OH231620   3.540   2.702   2.763
10560TIP3    H131621   3.542   2.774   2.826
10560TIP3    H231622   3.630   2.669   2.761
10561TIP3   OH231623   5.375   6.438   3.646
10561TIP3    H131624   5.375   6.465   3.738
10561TIP3    H231625   5.467   6.435   3.621
10562TIP3   OH231626   0.675   1.226   6.253
10562TIP3    H131627   0.689   1.134   6.277
10562TIP3    H231628   0.586   1.228   6.220
10563TIP3   OH231629   0.588   3.315   5.228
10563TIP3    H131630   0.555   3.405   5.227
10563TIP3    H231631   0.511   3.261   5.210
10564TIP3   OH231632   7.360   1.845   4.935
10564TIP3    H131633   7.417   1.782   4.979
10564TIP3    H231634   7.391   1.847   4.845
10565TIP3   OH231635   6.078   2.195   5.329
10565TIP3    H131636   6.100   2.266   5.389
10565TIP3    H231637   6.125   2.119   5.363
10566TIP3   OH231638   2.868   2.833   2.552
10566TIP3    H131639   2.887   2.900   2.617
10566TIP3    H231640   2.936   2.843   2.486
10567TIP3   OH231641   5.215   0.895   0.794
10567TIP3    H131642   5.132   0.944   0.788
10567TIP3    H231643   5.243   0.906   0.885
10568TIP3   OH231644   4.456   2.781   0.085
10568TIP3    H131645   4.498   2.701   0.054
10568TIP3    H231646   4.528   2.836   0.116
10569TIP3   OH231647   5.572   7.032   2.480
10569TIP3    H131648   5.642   7.042   2.417
10569TIP3    H231649   5.492   7.054   2.432
10570TIP3   OH231650   2.812   3.049   0.750
10570TIP3    H131651   2.837   3.141   0.738
10570TIP3    H231652   2.895   3.004   0.766
10571TIP3   OH231653   6.404   5.134   5.526
10571TIP3    H131654   6.400   5.039   5.516
10571TIP3    H231655   6.471   5.162   5.463
10572TIP3   OH231656   0.101   4.294   4.013
10572TIP3    H131657   0.114   4.256   4.101
10572TIP3    H231658   0.079   4.385   4.030
10573TIP3   OH231659   3.047   2.214   3.259
10573TIP3    H131660   3.045   2.294   3.206
10573TIP3    H231661   3.140   2.195   3.271
10574TIP3   OH231662   4.529   0.989   6.242
10574TIP3    H131663   4.455   0.972   6.300
10574TIP3    H231664   4.507   0.944   6.161
10575TIP3   OH231665   4.214   0.849   4.471
10575TIP3    H131666   4.271   0.924   4.456
10575TIP3    H231667   4.140   0.862   4.412
10576TIP3   OH231668   1.224   7.594   6.784
10576TIP3    H131669   1.268   7.513   6.759
10576TIP3    H231670   1.133   7.580   6.759
10577TIP3   OH231671   7.758   4.819   3.718
10577TIP3    H131672   7.701   4.761   3.769
10577TIP3    H231673   7.826   4.847   3.779
10578TIP3   OH231674   2.334   2.616   1.428
10578TIP3    H131675   2.354   2.594   1.520
10578TIP3    H231676   2.283   2.541   1.397
10579TIP3   OH231677   1.956   6.436   4.779
10579TIP3    H131678   1.939   6.451   4.872
10579TIP3    H231679   2.015   6.361   4.777
10580TIP3   OH231680   5.838   4.691   4.536
10580TIP3    H131681   5.767   4.642   4.576
10580TIP3    H231682   5.877   4.741   4.607
10581TIP3   OH231683   0.474   2.912   1.614
10581TIP3    H131684   0.474   2.912   1.710
10581TIP3    H231685   0.431   2.830   1.590
10582TIP3   OH231686   3.500   2.457   6.100
10582TIP3    H131687   3.535   2.418   6.020
10582TIP3    H231688   3.405   2.457   6.087
10583TIP3   OH231689   4.837   2.777   5.750
10583TIP3    H131690   4.814   2.849   5.809
10583TIP3    H231691   4.932   2.783   5.741
10584TIP3   OH231692   8.221   4.442   2.614
10584TIP3    H131693   8.187   4.447   2.524
10584TIP3    H231694   8.158   4.388   2.661
10585TIP3   OH231695   7.229   4.066   4.504
10585TIP3    H131696   7.259   4.127   4.437
10585TIP3    H231697   7.158   4.017   4.461
10586TIP3   OH231698   6.900   1.044   5.494
10586TIP3    H131699   6.824   0.996   5.527
10586TIP3    H231700   6.920   1.003   5.410
10587TIP3   OH231701   1.939   1.193   0.378
10587TIP3    H131702   2.034   1.191   0.383
10587TIP3    H231703   1.916   1.285   0.384
10588TIP3   OH231704   4.797   7.834   3.679
10588TIP3    H131705   4.845   7.751   3.681
10588TIP3    H231706   4.866   7.900   3.675
10589TIP3   OH231707   2.220   7.771   2.481
10589TIP3    H131708   2.272   7.786   2.560
10589TIP3    H231709   2.148   7.715   2.510
10590TIP3   OH231710   6.951   1.090   0.829
10590TIP3    H131711   6.946   1.168   0.884
10590TIP3    H231712   6.969   1.018   0.890
10591TIP3   OH231713   8.190   0.417   5.411
10591TIP3    H131714   8.238   0.482   5.462
10591TIP3    H231715   8.257   0.374   5.358
10592TIP3   OH231716   0.551   0.677   6.873
10592TIP3    H131717   0.598   0.674   6.790
10592TIP3    H231718   0.459   0.690   6.849
10593TIP3   OH231719   5.575   6.878   1.796
10593TIP3    H131720   5.519   6.942   1.839
10593TIP3    H231721   5.587   6.912   1.707
10594TIP3   OH231722   7.036   2.050   2.333
10594TIP3    H131723   6.995   2.012   2.411
10594TIP3    H231724   7.077   1.976   2.289
10595TIP3   OH231725   6.670   2.314   3.946
10595TIP3    H131726   6.599   2.367   3.908
10595TIP3    H231727   6.710   2.271   3.870
10596TIP3   OH231728   2.231   7.662   3.584
10596TIP3    H131729   2.151   7.641   3.535
10596TIP3    H231730   2.226   7.756   3.598
10597TIP3   OH231731   2.956   1.968   6.733
10597TIP3    H131732   3.019   2.036   6.756
10597TIP3    H231733   3.004   1.886   6.745
10598TIP3   OH231734   6.203   1.998   5.081
10598TIP3    H131735   6.278   2.041   5.122
10598TIP3    H231736   6.206   1.908   5.113
10599TIP3   OH231737   3.000   3.882   0.476
10599TIP3    H131738   2.987   3.892   0.570
10599TIP3    H231739   2.956   3.958   0.438
10600TIP3   OH231740   3.183   2.345   6.407
10600TIP3    H131741   3.175   2.334   6.502
10600TIP3    H231742   3.277   2.354   6.392
10601TIP3   OH231743   2.912   2.318   1.213
10601TIP3    H131744   2.835   2.262   1.225
10601TIP3    H231745   2.912   2.340   1.120
10602TIP3   OH231746   0.843   7.282   4.114
10602TIP3    H131747   0.905   7.336   4.164
10602TIP3    H231748   0.778   7.345   4.082
10603TIP3   OH231749   7.645   7.339   4.965
10603TIP3    H131750   7.629   7.323   4.872
10603TIP3    H231751   7.591   7.275   5.011
10604TIP3   OH231752   6.321   3.678   5.525
10604TIP3    H131753   6.384   3.680   5.597
10604TIP3    H231754   6.371   3.643   5.451
10605TIP3   OH231755   6.601   0.297   5.028
10605TIP3    H131756   6.655   0.360   4.980
10605TIP3    H231757   6.664   0.235   5.066
10606TIP3   OH231758   7.707   1.478   0.288
10606TIP3    H131759   7.753   1.506   0.209
10606TIP3    H231760   7.696   1.384   0.276
10607TIP3   OH231761   5.907   2.889   0.274
10607TIP3    H131762   5.873   2.937   0.199
10607TIP3    H231763   5.867   2.932   0.350
10608TIP3   OH231764   7.605   2.545   6.315
10608TIP3    H131765   7.629   2.534   6.223
10608TIP3    H231766   7.531   2.487   6.329
10609TIP3   OH231767   7.074   1.331   3.307
10609TIP3    H131768   7.130   1.376   3.370
10609TIP3    H231769   7.075   1.240   3.334
10610TIP3   OH231770   1.008   5.533   2.879
10610TIP3    H131771   1.052   5.551   2.962
10610TIP3    H231772   0.957   5.612   2.862
10611TIP3   OH231773   6.837   3.739   3.848
10611TIP3    H131774   6.873   3.818   3.887
10611TIP3    H231775   6.908   3.675   3.853
10612TIP3   OH231776   6.301   0.079   1.736
10612TIP3    H131777   6.343   0.161   1.710
10612TIP3    H231778   6.226   0.105   1.789
10613TIP3   OH231779   6.034   5.163   2.040
10613TIP3    H131780   6.041   5.259   2.041
10613TIP3    H231781   6.124   5.132   2.049
10614TIP3   OH231782   5.764   7.887   2.151
10614TIP3    H131783   5.740   7.862   2.061
10614TIP3    H231784   5.840   7.944   2.140
10615TIP3   OH231785   5.314   4.329   5.578
10615TIP3    H131786   5.257   4.308   5.505
10615TIP3    H231787   5.394   4.364   5.538
10616TIP3   OH231788   7.576   1.741   1.595
10616TIP3    H131789   7.568   1.675   1.526
10616TIP3    H231790   7.669   1.760   1.599
10617TIP3   OH231791   0.397   3.039   1.138
10617TIP3    H131792   0.354   3.053   1.222
10617TIP3    H231793   0.347   2.968   1.097
10618TIP3   OH231794   3.033   1.480   4.363
10618TIP3    H131795   2.944   1.509   4.342
10618TIP3    H231796   3.021   1.410   4.427
10619TIP3   OH231797   6.477   6.868   6.003
10619TIP3    H131798   6.541   6.880   5.933
10619TIP3    H231799   6.497   6.782   6.039
10620TIP3   OH231800   4.580   2.011   3.520
10620TIP3    H131801   4.533   2.051   3.447
10620TIP3    H231802   4.639   1.947   3.479
10621TIP3   OH231803   5.525   0.692   0.487
10621TIP3    H131804   5.611   0.656   0.465
10621TIP3    H231805   5.530   0.710   0.581
10622TIP3   OH231806   3.813   1.157   4.371
10622TIP3    H131807   3.775   1.212   4.439
10622TIP3    H231808   3.821   1.214   4.294
10623TIP3   OH231809   7.590   5.748   1.212
10623TIP3    H131810   7.619   5.668   1.168
10623TIP3    H231811   7.628   5.742   1.300
10624TIP3   OH231812   4.640   0.967   4.314
10624TIP3    H131813   4.643   0.871   4.322
10624TIP3    H231814   4.709   0.997   4.372
10625TIP3   OH231815   2.167   4.251   2.487
10625TIP3    H131816   2.228   4.208   2.547
10625TIP3    H231817   2.166   4.342   2.516
10626TIP3   OH231818   8.211   4.701   5.904
10626TIP3    H131819   8.218   4.697   5.809
10626TIP3    H231820   8.140   4.763   5.920
10627TIP3   OH231821   0.601   3.489   1.299
10627TIP3    H131822   0.620   3.405   1.340
10627TIP3    H231823   0.513   3.511   1.328
10628TIP3   OH231824   4.310   3.897   6.397
10628TIP3    H131825   4.402   3.877   6.386
10628TIP3    H231826   4.265   3.814   6.382
10629TIP3   OH231827   6.595   1.880   2.559
10629TIP3    H131828   6.564   1.954   2.507
10629TIP3    H231829   6.565   1.899   2.648
10630TIP3   OH231830   1.082   3.238   6.607
10630TIP3    H131831   1.078   3.153   6.563
10630TIP3    H231832   1.009   3.287   6.571
10631TIP3   OH231833   7.500   4.526   2.591
10631TIP3    H131834   7.568   4.552   2.528
10631TIP3    H231835   7.466   4.609   2.625
10632TIP3   OH231836   1.057   6.644   0.938
10632TIP3    H131837   1.011   6.623   1.020
10632TIP3    H231838   1.136   6.592   0.941
10633TIP3   OH231839   8.345   1.302   4.252
10633TIP3    H131840   8.417   1.363   4.273
10633TIP3    H231841   8.387   1.216   4.250
10634TIP3   OH231842   4.594   1.889   2.662
10634TIP3    H131843   4.626   1.801   2.683
10634TIP3    H231844   4.559   1.881   2.573
10635TIP3   OH231845   0.035   7.378   0.372
10635TIP3    H131846   0.002   7.325   0.300
10635TIP3    H231847  -0.024   7.359   0.445
10636TIP3   OH231848   6.777   7.619   0.579
10636TIP3    H131849   6.827   7.700   0.572
10636TIP3    H231850   6.771   7.603   0.674
10637TIP3   OH231851   4.335   6.306   5.945
10637TIP3    H131852   4.263   6.361   5.915
10637TIP3    H231853   4.407   6.324   5.884
10638TIP3   OH231854   2.073   4.424   6.148
10638TIP3    H131855   2.031   4.444   6.232
10638TIP3    H231856   2.067   4.329   6.141
10639TIP3   OH231857   5.331   0.221   0.473
10639TIP3    H131858   5.363   0.178   0.553
10639TIP3    H231859   5.303   0.308   0.502
10640TIP3   OH231860   3.066   3.842   5.253
10640TIP3    H131861   3.063   3.925   5.207
10640TIP3    H231862   3.106   3.781   5.191
10641TIP3   OH231863   5.291   6.276   6.026
10641TIP3    H131864   5.304   6.359   6.072
10641TIP3    H231865   5.197   6.261   6.029
10642TIP3   OH231866   2.862   2.461   2.860
10642TIP3    H131867   2.936   2.511   2.825
10642TIP3    H231868   2.786   2.498   2.815
10643TIP3   OH231869   5.457   2.160   3.312
10643TIP3    H131870   5.526   2.171   3.377
10643TIP3    H231871   5.471   2.073   3.276
10644TIP3   OH231872   2.128   1.495   6.779
10644TIP3    H131873   2.161   1.541   6.701
10644TIP3    H231874   2.189   1.518   6.848
10645TIP3   OH231875   1.997   0.397   4.062
10645TIP3    H131876   2.029   0.471   4.113
10645TIP3    H231877   2.059   0.387   3.990
10646TIP3   OH231878   1.897   5.127   3.755
10646TIP3    H131879   1.921   5.154   3.844
10646TIP3    H231880   1.802   5.134   3.753
10647TIP3   OH231881   1.338   5.722   2.749
10647TIP3    H131882   1.404   5.784   2.717
10647TIP3    H231883   1.307   5.759   2.831
10648TIP3   OH231884   6.780   6.468   4.042
10648TIP3    H131885   6.837   6.545   4.053
10648TIP3    H231886   6.693   6.498   4.069
10649TIP3   OH231887   1.782   0.617   0.166
10649TIP3    H131888   1.868   0.584   0.141
10649TIP3    H231889   1.719   0.557   0.126
10650TIP3   OH231890   0.935   7.171   4.657
10650TIP3    H131891   0.867   7.160   4.591
10650TIP3    H231892   1.002   7.225   4.614
10651TIP3   OH231893   4.809   7.576   1.959
10651TIP3    H131894   4.736   7.516   1.977
10651TIP3    H231895   4.831   7.559   1.868
10652TIP3   OH231896   3.531   4.318   6.412
10652TIP3    H131897   3.462   4.271   6.365
10652TIP3    H231898   3.569   4.252   6.471
10653TIP3   OH231899   2.521   5.160   2.550
10653TIP3    H131900   2.520   5.177   2.644
10653TIP3    H231901   2.492   5.069   2.542
10654TIP3   OH231902   6.853   5.195   5.033
10654TIP3    H131903   6.822   5.141   5.105
10654TIP3    H231904   6.824   5.284   5.055
10655TIP3   OH231905   1.998   0.250   6.132
10655TIP3    H131906   1.968   0.302   6.206
10655TIP3    H231907   1.956   0.290   6.056
10656TIP3   OH231908   2.331   0.703   5.414
10656TIP3    H131909   2.372   0.620   5.388
10656TIP3    H231910   2.257   0.677   5.469
10657TIP3   OH231911   7.053   0.367   3.755
10657TIP3    H131912   6.981   0.360   3.692
10657TIP3    H231913   7.070   0.461   3.761
10658TIP3   OH231914   4.615   1.853   5.193
10658TIP3    H131915   4.639   1.792   5.263
10658TIP3    H231916   4.698   1.894   5.168
10659TIP3   OH231917   2.942   5.096   3.589
10659TIP3    H131918   2.891   5.016   3.601
10659TIP3    H231919   3.025   5.079   3.634
10660TIP3   OH231920   1.030   7.113   3.203
10660TIP3    H131921   0.942   7.148   3.189
10660TIP3    H231922   1.074   7.181   3.254
10661TIP3   OH231923   5.557   6.748   2.493
10661TIP3    H131924   5.595   6.816   2.437
10661TIP3    H231925   5.622   6.733   2.561
10662TIP3   OH231926   1.918   7.853   1.463
10662TIP3    H131927   1.929   7.896   1.378
10662TIP3    H231928   1.967   7.909   1.524
10663TIP3   OH231929   0.893   0.077   3.688
10663TIP3    H131930   0.911   0.042   3.601
10663TIP3    H231931   0.806   0.042   3.710
10664TIP3   OH231932   2.277   3.675   5.159
10664TIP3    H131933   2.298   3.755   5.207
10664TIP3    H231934   2.265   3.608   5.228
10665TIP3   OH231935   1.876   5.437   5.634
10665TIP3    H131936   1.871   5.394   5.719
10665TIP3    H231937   1.915   5.372   5.576
10666TIP3   OH231938   6.595   1.646   4.085
10666TIP3    H131939   6.524   1.627   4.146
10666TIP3    H231940   6.641   1.720   4.125
10667TIP3   OH231941   4.494   2.693   0.948
10667TIP3    H131942   4.464   2.719   1.035
10667TIP3    H231943   4.442   2.616   0.926
10668TIP3   OH231944   3.662   6.864   6.216
10668TIP3    H131945   3.606   6.929   6.173
10668TIP3    H231946   3.610   6.784   6.218
10669TIP3   OH231947   2.222   5.890   6.135
10669TIP3    H131948   2.225   5.971   6.083
10669TIP3    H231949   2.220   5.820   6.069
10670TIP3   OH231950   7.982   5.896   5.447
10670TIP3    H131951   8.018   5.954   5.380
10670TIP3    H231952   8.007   5.808   5.417
10671TIP3   OH231953   5.272   5.420   1.668
10671TIP3    H131954   5.263   5.376   1.583
10671TIP3    H231955   5.231   5.361   1.731
10672TIP3   OH231956   7.783   2.374   0.247
10672TIP3    H131957   7.768   2.310   0.317
10672TIP3    H231958   7.875   2.362   0.224
10673TIP3   OH231959   6.669   7.682   1.683
10673TIP3    H131960   6.714   7.636   1.754
10673TIP3    H231961   6.668   7.619   1.611
10674TIP3   OH231962   3.511   2.366   0.018
10674TIP3    H131963   3.497   2.427   0.090
10674TIP3    H231964   3.423   2.343  -0.011
10675TIP3   OH231965   1.990   4.661   2.818
10675TIP3    H131966   2.062   4.711   2.780
10675TIP3    H231967   1.937   4.634   2.743
10676TIP3   OH231968   6.645   1.732   1.903
10676TIP3    H131969   6.719   1.737   1.843
10676TIP3    H231970   6.622   1.823   1.923
10677TIP3   OH231971   6.839   3.754   0.703
10677TIP3    H131972   6.933   3.758   0.689
10677TIP3    H231973   6.820   3.661   0.716
10678TIP3   OH231974   1.430   2.270   6.231
10678TIP3    H131975   1.412   2.210   6.159
10678TIP3    H231976   1.346   2.313   6.248
10679TIP3   OH231977   7.963   7.574   6.587
10679TIP3    H131978   7.869   7.561   6.598
10679TIP3    H231979   7.984   7.650   6.642
10680TIP3   OH231980   7.950   7.784   4.219
10680TIP3    H131981   7.921   7.709   4.272
10680TIP3    H231982   7.924   7.762   4.130
10681TIP3   OH231983   2.394   3.287   0.350
10681TIP3    H131984   2.415   3.367   0.302
10681TIP3    H231985   2.299   3.278   0.341
10682TIP3   OH231986   0.450   0.931   3.764
10682TIP3    H131987   0.411   1.018   3.754
10682TIP3    H231988   0.517   0.926   3.695
10683TIP3   OH231989   6.835   1.942   0.514
10683TIP3    H131990   6.868   1.965   0.426
10683TIP3    H231991   6.914   1.939   0.568
10684TIP3   OH231992   1.290   7.828   0.345
10684TIP3    H131993   1.262   7.809   0.435
10684TIP3    H231994   1.365   7.771   0.331
10685TIP3   OH231995   3.873   4.374   0.411
10685TIP3    H131996   3.953   4.324   0.393
10685TIP3    H231997   3.902   4.465   0.411
10686TIP3   OH231998   6.072   4.241   3.656
10686TIP3    H131999   6.006   4.276   3.715
10686TIP3    H232000   6.100   4.317   3.604
10687TIP3   OH232001   2.507   7.453   0.103
10687TIP3    H132002   2.587   7.411   0.073
10687TIP3    H232003   2.465   7.486   0.023
10688TIP3   OH232004   6.678   6.835   0.394
10688TIP3    H132005   6.648   6.768   0.334
10688TIP3    H232006   6.749   6.879   0.347
10689TIP3   OH232007   5.150   0.129   2.793
10689TIP3    H132008   5.146   0.130   2.889
10689TIP3    H232009   5.181   0.041   2.771
10690TIP3   OH232010   6.840   5.997   0.211
10690TIP3    H132011   6.857   5.924   0.151
10690TIP3    H232012   6.866   5.963   0.297
10691TIP3   OH232013   7.787   2.924   1.861
10691TIP3    H132014   7.845   2.919   1.937
10691TIP3    H232015   7.846   2.946   1.789
10692TIP3   OH232016   5.937   6.939   1.208
10692TIP3    H132017   5.900   7.012   1.157
10692TIP3    H232018   5.902   6.951   1.296
10693TIP3   OH232019   0.638   5.100   3.016
10693TIP3    H132020   0.670   5.015   3.045
10693TIP3    H232021   0.543   5.098   3.033
10694TIP3   OH232022   7.253   2.127   1.427
10694TIP3    H132023   7.330   2.148   1.373
10694TIP3    H232024   7.282   2.057   1.485
10695TIP3   OH232025   7.698   3.599   1.928
10695TIP3    H132026   7.635   3.592   1.856
10695TIP3    H232027   7.648   3.635   2.001
10696TIP3   OH232028   0.533   6.444   4.201
10696TIP3    H132029   0.574   6.462   4.285
10696TIP3    H232030   0.601   6.462   4.137
10697TIP3   OH232031   6.933   6.421   5.607
10697TIP3    H132032   6.911   6.393   5.518
10697TIP3    H232033   6.848   6.438   5.649
10698TIP3   OH232034   0.995   7.568   0.819
10698TIP3    H132035   0.948   7.614   0.749
10698TIP3    H232036   1.066   7.522   0.775
10699TIP3   OH232037   0.474   4.413   5.971
10699TIP3    H132038   0.417   4.489   5.974
10699TIP3    H232039   0.485   4.387   6.062
10700TIP3   OH232040   8.030   1.972   1.785
10700TIP3    H132041   8.035   2.063   1.759
10700TIP3    H232042   8.112   1.955   1.832
10701TIP3   OH232043   2.731   2.350   3.514
10701TIP3    H132044   2.718   2.443   3.494
10701TIP3    H232045   2.677   2.334   3.591
10702TIP3   OH232046   2.570   0.103   3.472
10702TIP3    H132047   2.552   0.031   3.531
10702TIP3    H232048   2.666   0.108   3.469
10703TIP3   OH232049   2.304   5.518   6.185
10703TIP3    H132050   2.332   5.539   6.096
10703TIP3    H232051   2.353   5.577   6.241
10704TIP3   OH232052   7.804   3.919   6.043
10704TIP3    H132053   7.820   3.858   6.116
10704TIP3    H232054   7.719   3.958   6.062
10705TIP3   OH232055   5.540   6.426   5.940
10705TIP3    H132056   5.509   6.503   5.893
10705TIP3    H232057   5.473   6.359   5.923
10706TIP3   OH232058   2.515   7.410   6.241
10706TIP3    H132059   2.575   7.370   6.304
10706TIP3    H232060   2.520   7.504   6.260
10707TIP3   OH232061   3.617   0.994   5.371
10707TIP3    H132062   3.608   0.964   5.281
10707TIP3    H232063   3.574   1.079   5.373
10708TIP3   OH232064   0.375   6.614   2.794
10708TIP3    H132065   0.370   6.601   2.889
10708TIP3    H232066   0.446   6.557   2.766
10709TIP3   OH232067   7.640   3.340   2.504
10709TIP3    H132068   7.616   3.421   2.459
10709TIP3    H232069   7.732   3.350   2.525
10710TIP3   OH232070   8.086   1.397   6.004
10710TIP3    H132071   8.117   1.330   6.065
10710TIP3    H232072   8.002   1.424   6.041
10711TIP3   OH232073   2.431   3.146   6.117
10711TIP3    H132074   2.495   3.170   6.184
10711TIP3    H232075   2.349   3.134   6.166
10712TIP3   OH232076   2.157   6.401   6.653
10712TIP3    H132077   2.194   6.320   6.687
10712TIP3    H232078   2.189   6.469   6.712
10713TIP3   OH232079   7.180   5.808   4.696
10713TIP3    H132080   7.157   5.716   4.679
10713TIP3    H232081   7.187   5.847   4.609
10714TIP3   OH232082   3.726   0.797   1.911
10714TIP3    H132083   3.745   0.870   1.971
10714TIP3    H232084   3.789   0.808   1.840
10715TIP3   OH232085   6.933   5.268   1.919
10715TIP3    H132086   6.872   5.196   1.931
10715TIP3    H232087   6.879   5.339   1.885
10716TIP3   OH232088   5.292   3.471   4.865
10716TIP3    H132089   5.240   3.398   4.897
10716TIP3    H232090   5.377   3.460   4.908
10717TIP3   OH232091   8.342   6.353   6.113
10717TIP3    H132092   8.250   6.330   6.122
10717TIP3    H232093   8.387   6.294   6.174
10718TIP3   OH232094   3.158   3.935   4.519
10718TIP3    H132095   3.148   3.940   4.614
10718TIP3    H232096   3.249   3.962   4.504
10719TIP3   OH232097   3.566   0.653   1.066
10719TIP3    H132098   3.654   0.649   1.028
10719TIP3    H232099   3.571   0.725   1.130
10720TIP3   OH232100   1.737   1.275   3.008
10720TIP3    H132101   1.715   1.244   3.095
10720TIP3    H232102   1.743   1.195   2.955
10721TIP3   OH232103   0.111   6.606   1.395
10721TIP3    H132104   0.111   6.679   1.333
10721TIP3    H232105   0.018   6.589   1.411
10722TIP3   OH232106   3.207   4.255   5.687
10722TIP3    H132107   3.179   4.164   5.696
10722TIP3    H232108   3.252   4.274   5.769
10723TIP3   OH232109   5.485   6.476   2.123
10723TIP3    H132110   5.452   6.487   2.212
10723TIP3    H232111   5.448   6.550   2.074
10724TIP3   OH232112   4.417   7.880   1.273
10724TIP3    H132113   4.389   7.794   1.244
10724TIP3    H232114   4.363   7.941   1.224
10725TIP3   OH232115   3.870   7.345   3.905
10725TIP3    H132116   3.914   7.260   3.913
10725TIP3    H232117   3.894   7.376   3.818
10726TIP3   OH232118   5.503   4.602   5.688
10726TIP3    H132119   5.541   4.531   5.637
10726TIP3    H232120   5.579   4.653   5.718
10727TIP3   OH232121   1.757   3.897   4.035
10727TIP3    H132122   1.749   3.981   3.990
10727TIP3    H232123   1.760   3.833   3.965
10728TIP3   OH232124   4.411   4.172   0.714
10728TIP3    H132125   4.454   4.100   0.667
10728TIP3    H232126   4.438   4.160   0.805
10729TIP3   OH232127   7.253   3.560   3.193
10729TIP3    H132128   7.261   3.655   3.206
10729TIP3    H232129   7.343   3.528   3.201
10730TIP3   OH232130   4.175   1.584   2.093
10730TIP3    H132131   4.149   1.580   2.001
10730TIP3    H232132   4.237   1.512   2.104
10731TIP3   OH232133   7.443   5.862   0.435
10731TIP3    H132134   7.462   5.837   0.344
10731TIP3    H232135   7.386   5.792   0.467
10732TIP3   OH232136   1.179   0.106   5.583
10732TIP3    H132137   1.103   0.135   5.532
10732TIP3    H232138   1.232   0.185   5.594
10733TIP3   OH232139   4.597   7.793   5.704
10733TIP3    H132140   4.609   7.885   5.679
10733TIP3    H232141   4.524   7.795   5.767
10734TIP3   OH232142   3.326   7.319   3.586
10734TIP3    H132143   3.376   7.255   3.534
10734TIP3    H232144   3.242   7.326   3.541
10735TIP3   OH232145   6.762   4.285   6.085
10735TIP3    H132146   6.706   4.213   6.056
10735TIP3    H232147   6.851   4.250   6.081
10736TIP3   OH232148   4.421   1.625   0.018
10736TIP3    H132149   4.501   1.583  -0.014
10736TIP3    H232150   4.366   1.633  -0.060
10737TIP3   OH232151   4.373   1.783   2.155
10737TIP3    H132152   4.338   1.865   2.120
10737TIP3    H232153   4.305   1.718   2.139
10738TIP3   OH232154   0.124   0.934   4.837
10738TIP3    H132155   0.155   0.921   4.927
10738TIP3    H232156   0.195   0.981   4.794
10739TIP3   OH232157   3.992   2.786   0.294
10739TIP3    H132158   3.952   2.798   0.208
10739TIP3    H232159   4.055   2.715   0.282
10740TIP3   OH232160   7.064   5.627   4.490
10740TIP3    H132161   7.143   5.588   4.453
10740TIP3    H232162   6.996   5.561   4.478
10741TIP3   OH232163   2.690   1.238   3.888
10741TIP3    H132164   2.673   1.186   3.809
10741TIP3    H232165   2.608   1.235   3.937
10742TIP3   OH232166   4.126   0.261   4.535
10742TIP3    H132167   4.037   0.241   4.562
10742TIP3    H232168   4.127   0.356   4.524
10743TIP3   OH232169   3.065   3.502   0.824
10743TIP3    H132170   3.078   3.440   0.896
10743TIP3    H232171   3.056   3.587   0.867
10744TIP3   OH232172   2.840   2.955   1.810
10744TIP3    H132173   2.892   2.921   1.738
10744TIP3    H232174   2.770   2.891   1.821
10745TIP3   OH232175   2.668   2.249   4.232
10745TIP3    H132176   2.614   2.274   4.157
10745TIP3    H232177   2.702   2.332   4.265
10746TIP3   OH232178   4.544   1.521   4.286
10746TIP3    H132179   4.571   1.469   4.210
10746TIP3    H232180   4.621   1.522   4.343
10747TIP3   OH232181   8.353   2.597   6.635
10747TIP3    H132182   8.377   2.587   6.543
10747TIP3    H232183   8.260   2.575   6.638
10748TIP3   OH232184   3.327   6.597   3.560
10748TIP3    H132185   3.378   6.531   3.513
10748TIP3    H232186   3.372   6.606   3.644
10749TIP3   OH232187   4.237   6.652   5.625
10749TIP3    H132188   4.223   6.721   5.690
10749TIP3    H232189   4.221   6.695   5.541
10750TIP3   OH232190   1.134   6.967   0.190
10750TIP3    H132191   1.179   6.950   0.273
10750TIP3    H232192   1.204   6.981   0.126
10751TIP3   OH232193   5.262   7.492   3.501
10751TIP3    H132194   5.198   7.474   3.570
10751TIP3    H232195   5.211   7.528   3.429
10752TIP3   OH232196   7.790   7.648   4.430
10752TIP3    H132197   7.838   7.701   4.494
10752TIP3    H232198   7.715   7.702   4.406
10753TIP3   OH232199   4.175   2.744   0.859
10753TIP3    H132200   4.225   2.665   0.880
10753TIP3    H232201   4.120   2.718   0.784
10754TIP3   OH232202   0.420   5.724   3.321
10754TIP3    H132203   0.420   5.698   3.413
10754TIP3    H232204   0.471   5.805   3.319
10755TIP3   OH232205   8.260   4.373   3.892
10755TIP3    H132206   8.340   4.322   3.892
10755TIP3    H232207   8.274   4.441   3.827
10756TIP3   OH232208   0.063   6.042   2.856
10756TIP3    H132209   0.111   6.034   2.774
10756TIP3    H232210  -0.006   6.105   2.838
10757TIP3   OH232211   5.107   1.064   6.408
10757TIP3    H132212   5.105   1.136   6.345
10757TIP3    H232213   5.180   1.084   6.466
10758TIP3   OH232214   2.660   5.111   3.511
10758TIP3    H132215   2.693   5.037   3.562
10758TIP3    H232216   2.615   5.071   3.437
10759TIP3   OH232217   6.274   3.747   2.908
10759TIP3    H132218   6.316   3.708   2.832
10759TIP3    H232219   6.181   3.750   2.886
10760TIP3   OH232220   7.311   4.521   1.080
10760TIP3    H132221   7.240   4.497   1.140
10760TIP3    H232222   7.266   4.550   1.000
10761TIP3   OH232223   1.742   2.075   3.362
10761TIP3    H132224   1.744   2.167   3.336
10761TIP3    H232225   1.650   2.056   3.380
10762TIP3   OH232226   3.887   2.580   2.385
10762TIP3    H132227   3.841   2.660   2.411
10762TIP3    H232228   3.875   2.520   2.459
10763TIP3   OH232229   0.675   0.413   6.253
10763TIP3    H132230   0.652   0.365   6.173
10763TIP3    H232231   0.592   0.450   6.283
10764TIP3   OH232232   7.512   4.484   3.870
10764TIP3    H132233   7.584   4.434   3.831
10764TIP3    H232234   7.466   4.421   3.925
10765TIP3   OH232235   4.093   4.258   4.536
10765TIP3    H132236   4.075   4.319   4.465
10765TIP3    H232237   4.070   4.306   4.616
10766TIP3   OH232238   3.708   3.937   3.886
10766TIP3    H132239   3.775   3.921   3.819
10766TIP3    H232240   3.641   3.989   3.842
10767TIP3   OH232241   3.764   3.537   4.927
10767TIP3    H132242   3.718   3.583   4.857
10767TIP3    H232243   3.846   3.586   4.937
10768TIP3   OH232244   6.694   3.118   0.154
10768TIP3    H132245   6.605   3.137   0.184
10768TIP3    H232246   6.733   3.204   0.137
10769TIP3   OH232247   4.137   4.807   3.034
10769TIP3    H132248   4.156   4.901   3.027
10769TIP3    H232249   4.072   4.791   2.966
10770TIP3   OH232250   3.877   5.826   5.410
10770TIP3    H132251   3.812   5.814   5.479
10770TIP3    H232252   3.850   5.906   5.366
10771TIP3   OH232253   4.473   6.397   2.571
10771TIP3    H132254   4.567   6.402   2.583
10771TIP3    H232255   4.437   6.383   2.659
10772TIP3   OH232256   1.030   7.164   4.914
10772TIP3    H132257   0.981   7.171   4.832
10772TIP3    H232258   0.972   7.204   4.979
10773TIP3   OH232259   5.983   2.222   2.040
10773TIP3    H132260   5.903   2.230   1.988
10773TIP3    H232261   5.956   2.240   2.130
10774TIP3   OH232262   1.784   0.325   5.297
10774TIP3    H132263   1.750   0.237   5.315
10774TIP3    H232264   1.876   0.321   5.323
10775TIP3   OH232265   5.151   1.141   5.063
10775TIP3    H132266   5.201   1.145   5.145
10775TIP3    H232267   5.060   1.130   5.091
10776TIP3   OH232268   7.169   5.216   3.485
10776TIP3    H132269   7.079   5.193   3.464
10776TIP3    H232270   7.210   5.235   3.401
10777TIP3   OH232271   2.955   1.071   3.269
10777TIP3    H132272   2.909   1.016   3.205
10777TIP3    H232273   3.046   1.042   3.264
10778TIP3   OH232274   0.487   0.142   1.515
10778TIP3    H132275   0.567   0.094   1.537
10778TIP3    H232276   0.441   0.151   1.599
10779TIP3   OH232277   1.114   2.342   3.359
10779TIP3    H132278   1.208   2.355   3.373
10779TIP3    H232279   1.075   2.426   3.384
10780TIP3   OH232280   6.196   3.433   3.287
10780TIP3    H132281   6.268   3.446   3.225
10780TIP3    H232282   6.126   3.490   3.256
10781TIP3   OH232283   3.067   1.712   6.749
10781TIP3    H132284   3.093   1.626   6.715
10781TIP3    H232285   2.991   1.694   6.805
10782TIP3   OH232286   2.685   6.847   2.623
10782TIP3    H132287   2.650   6.889   2.701
10782TIP3    H232288   2.691   6.755   2.646
10783TIP3   OH232289   5.365   4.645   6.337
10783TIP3    H132290   5.382   4.642   6.243
10783TIP3    H232291   5.425   4.711   6.371
10784TIP3   OH232292   6.505   7.530   3.467
10784TIP3    H132293   6.460   7.500   3.547
10784TIP3    H232294   6.443   7.512   3.397
10785TIP3   OH232295   5.177   0.186   0.166
10785TIP3    H132296   5.109   0.214   0.105
10785TIP3    H232297   5.181   0.256   0.232
10786TIP3   OH232298   4.433   2.652   6.306
10786TIP3    H132299   4.482   2.573   6.325
10786TIP3    H232300   4.397   2.638   6.219
10787TIP3   OH232301   3.595   1.828   0.915
10787TIP3    H132302   3.583   1.738   0.884
10787TIP3    H232303   3.532   1.879   0.865
10788TIP3   OH232304   3.369   4.323   3.551
10788TIP3    H132305   3.341   4.289   3.636
10788TIP3    H232306   3.354   4.250   3.490
10789TIP3   OH232307   2.159   4.567   5.799
10789TIP3    H132308   2.220   4.633   5.832
10789TIP3    H232309   2.197   4.540   5.715
10790TIP3   OH232310   5.032   6.034   0.032
10790TIP3    H132311   5.100   6.002  -0.026
10790TIP3    H232312   5.079   6.064   0.110
10791TIP3   OH232313   5.518   1.313   0.308
10791TIP3    H132314   5.525   1.282   0.218
10791TIP3    H232315   5.587   1.379   0.316
10792TIP3   OH232316   6.506   1.914   1.032
10792TIP3    H132317   6.579   1.855   1.053
10792TIP3    H232318   6.548   1.987   0.986
10793TIP3   OH232319   1.703   0.094   4.598
10793TIP3    H132320   1.665   0.165   4.546
10793TIP3    H232321   1.630   0.063   4.653
10794TIP3   OH232322   3.565   6.414   5.960
10794TIP3    H132323   3.498   6.459   5.909
10794TIP3    H232324   3.637   6.476   5.965
10795TIP3   OH232325   6.597   2.379   0.824
10795TIP3    H132326   6.629   2.411   0.740
10795TIP3    H232327   6.501   2.380   0.815
10796TIP3   OH232328   4.303   3.222   3.853
10796TIP3    H132329   4.341   3.215   3.765
10796TIP3    H232330   4.212   3.196   3.842
10797TIP3   OH232331   7.371   3.156   0.209
10797TIP3    H132332   7.378   3.199   0.124
10797TIP3    H232333   7.428   3.079   0.201
10798TIP3   OH232334   1.327   2.881   3.922
10798TIP3    H132335   1.246   2.844   3.887
10798TIP3    H232336   1.378   2.903   3.844
10799TIP3   OH232337   2.173   0.600   1.086
10799TIP3    H132338   2.160   0.598   1.181
10799TIP3    H232339   2.085   0.604   1.050
10800TIP3   OH232340   6.290   7.639   1.978
10800TIP3    H132341   6.255   7.569   1.923
10800TIP3    H232342   6.215   7.697   1.992
10801TIP3   OH232343   2.011   6.898   3.282
10801TIP3    H132344   2.025   6.820   3.228
10801TIP3    H232345   2.028   6.972   3.224
10802TIP3   OH232346   4.355   0.578   0.567
10802TIP3    H132347   4.392   0.491   0.550
10802TIP3    H232348   4.274   0.580   0.517
10803TIP3   OH232349   5.830   4.179   3.144
10803TIP3    H132350   5.887   4.104   3.132
10803TIP3    H232351   5.855   4.215   3.229
10804TIP3   OH232352   7.578   4.816   5.503
10804TIP3    H132353   7.576   4.873   5.580
10804TIP3    H232354   7.667   4.823   5.470
10805TIP3   OH232355   8.338   1.748   1.219
10805TIP3    H132356   8.272   1.811   1.247
10805TIP3    H232357   8.374   1.785   1.139
10806TIP3   OH232358   7.254   7.471   5.550
10806TIP3    H132359   7.222   7.553   5.514
10806TIP3    H232360   7.199   7.456   5.627
10807TIP3   OH232361   6.319   7.533   3.104
10807TIP3    H132362   6.238   7.583   3.118
10807TIP3    H232363   6.306   7.488   3.020
10808TIP3   OH232364   7.848   1.409   4.200
10808TIP3    H132365   7.759   1.375   4.204
10808TIP3    H232366   7.839   1.498   4.165
10809TIP3   OH232367   1.178   4.121   0.543
10809TIP3    H132368   1.154   4.032   0.572
10809TIP3    H232369   1.257   4.141   0.593
10810TIP3   OH232370   8.364   4.228   4.295
10810TIP3    H132371   8.316   4.148   4.317
10810TIP3    H232372   8.301   4.281   4.244
10811TIP3   OH232373   2.064   7.841   6.233
10811TIP3    H132374   2.072   7.836   6.138
10811TIP3    H232375   2.093   7.929   6.255
10812TIP3   OH232376   5.999   1.635   1.889
10812TIP3    H132377   6.005   1.649   1.983
10812TIP3    H232378   5.905   1.636   1.870
10813TIP3   OH232379   8.093   1.988   3.735
10813TIP3    H132380   8.067   1.932   3.808
10813TIP3    H232381   8.174   1.949   3.703
10814TIP3   OH232382   3.002   6.327   4.242
10814TIP3    H132383   3.078   6.308   4.296
10814TIP3    H232384   2.929   6.282   4.285
10815TIP3   OH232385   4.530   2.695   3.917
10815TIP3    H132386   4.582   2.657   3.847
10815TIP3    H232387   4.533   2.630   3.988
10816TIP3   OH232388   6.412   0.464   6.507
10816TIP3    H132389   6.363   0.545   6.492
10816TIP3    H232390   6.346   0.395   6.501
10817TIP3   OH232391   2.499   5.697   1.877
10817TIP3    H132392   2.541   5.617   1.844
10817TIP3    H232393   2.452   5.731   1.801
10818TIP3   OH232394   1.645   6.183   5.051
10818TIP3    H132395   1.718   6.183   4.989
10818TIP3    H232396   1.685   6.157   5.134
10819TIP3   OH232397   0.311   2.269   3.942
10819TIP3    H132398   0.321   2.221   3.861
10819TIP3    H232399   0.398   2.268   3.982
10820TIP3   OH232400   7.969   0.268   0.767
10820TIP3    H132401   8.057   0.298   0.791
10820TIP3    H232402   7.934   0.339   0.713
10821TIP3   OH232403   3.949   2.282   4.906
10821TIP3    H132404   4.033   2.275   4.860
10821TIP3    H232405   3.963   2.235   4.988
10822TIP3   OH232406   1.907   5.588   4.072
10822TIP3    H132407   1.903   5.632   4.157
10822TIP3    H232408   1.879   5.498   4.091
10823TIP3   OH232409   3.464   2.710   4.431
10823TIP3    H132410   3.466   2.678   4.341
10823TIP3    H232411   3.530   2.657   4.477
10824TIP3   OH232412   0.742   2.711   1.233
10824TIP3    H132413   0.664   2.663   1.204
10824TIP3    H232414   0.706   2.792   1.271
10825TIP3   OH232415   5.042   0.606   2.769
10825TIP3    H132416   4.998   0.611   2.854
10825TIP3    H232417   5.061   0.697   2.746
10826TIP3   OH232418   2.162   1.010   3.997
10826TIP3    H132419   2.190   1.054   4.078
10826TIP3    H232420   2.164   1.079   3.930
10827TIP3   OH232421   0.686   2.649   4.185
10827TIP3    H132422   0.606   2.635   4.236
10827TIP3    H232423   0.754   2.605   4.235
10828TIP3   OH232424   7.936   5.482   4.562
10828TIP3    H132425   7.883   5.488   4.642
10828TIP3    H232426   7.872   5.476   4.491
10829TIP3   OH232427   1.687   1.839   2.388
10829TIP3    H132428   1.774   1.871   2.410
10829TIP3    H232429   1.633   1.918   2.383
10830TIP3   OH232430   5.905   6.972   3.008
10830TIP3    H132431   5.814   6.975   2.979
10830TIP3    H232432   5.925   7.061   3.036
10831TIP3   OH232433   3.679   0.238   1.183
10831TIP3    H132434   3.667   0.244   1.278
10831TIP3    H232435   3.745   0.304   1.163
10832TIP3   OH232436   2.648   3.982   6.753
10832TIP3    H132437   2.632   3.992   6.659
10832TIP3    H232438   2.722   3.922   6.760
10833TIP3   OH232439   7.400   1.533   2.605
10833TIP3    H132440   7.329   1.591   2.579
10833TIP3    H232441   7.359   1.470   2.664
10834TIP3   OH232442   0.025   0.766   4.100
10834TIP3    H132443  -0.016   0.679   4.094
10834TIP3    H232444   0.065   0.768   4.187
10835TIP3   OH232445   3.251   7.363   5.946
10835TIP3    H132446   3.276   7.407   6.027
10835TIP3    H232447   3.204   7.429   5.895
10836TIP3   OH232448   3.211   4.169   3.922
10836TIP3    H132449   3.266   4.113   3.866
10836TIP3    H232450   3.158   4.108   3.972
10837TIP3   OH232451   5.809   3.855   2.300
10837TIP3    H132452   5.860   3.921   2.347
10837TIP3    H232453   5.874   3.798   2.260
10838TIP3   OH232454   1.046   2.310   2.313
10838TIP3    H132455   0.992   2.324   2.235
10838TIP3    H232456   1.120   2.370   2.301
10839TIP3   OH232457   6.023   3.470   5.512
10839TIP3    H132458   6.001   3.528   5.584
10839TIP3    H232459   6.110   3.498   5.484
10840TIP3   OH232460   1.796   2.604   3.454
10840TIP3    H132461   1.803   2.519   3.409
10840TIP3    H232462   1.884   2.642   3.446
10841TIP3   OH232463   1.376   2.433   3.438
10841TIP3    H132464   1.420   2.396   3.515
10841TIP3    H232465   1.351   2.521   3.466
10842TIP3   OH232466   4.457   0.606   3.317
10842TIP3    H132467   4.478   0.581   3.407
10842TIP3    H232468   4.452   0.702   3.319
10843TIP3   OH232469   6.331   4.308   5.175
10843TIP3    H132470   6.426   4.316   5.173
10843TIP3    H232471   6.311   4.290   5.267
10844TIP3   OH232472   3.896   0.794   4.903
10844TIP3    H132473   3.804   0.817   4.919
10844TIP3    H232474   3.934   0.873   4.865
10845TIP3   OH232475   6.302   1.222   0.114
10845TIP3    H132476   6.392   1.191   0.102
10845TIP3    H232477   6.289   1.284   0.042
10846TIP3   OH232478   1.994   6.668   0.360
10846TIP3    H132479   2.081   6.633   0.341
10846TIP3    H232480   1.934   6.611   0.312
10847TIP3   OH232481   0.319   3.540   0.141
10847TIP3    H132482   0.295   3.594   0.066
10847TIP3    H232483   0.262   3.463   0.133
10848TIP3   OH232484   1.219   6.224   2.173
10848TIP3    H132485   1.148   6.264   2.122
10848TIP3    H232486   1.273   6.179   2.107
10849TIP3   OH232487   7.936   0.052   5.492
10849TIP3    H132488   7.917   0.142   5.520
10849TIP3    H232489   7.946   0.059   5.397
10850TIP3   OH232490   6.228   7.777   2.635
10850TIP3    H132491   6.245   7.822   2.718
10850TIP3    H232492   6.279   7.696   2.641
10851TIP3   OH232493   6.166   3.408   2.863
10851TIP3    H132494   6.158   3.492   2.910
10851TIP3    H232495   6.101   3.413   2.793
10852TIP3   OH232496   3.070   6.702   0.709
10852TIP3    H132497   3.028   6.788   0.715
10852TIP3    H232498   3.041   6.667   0.625
10853TIP3   OH232499   5.305   0.309   1.332
10853TIP3    H132500   5.238   0.332   1.268
10853TIP3    H232501   5.321   0.390   1.381
10854TIP3   OH232502   7.121   4.899   4.049
10854TIP3    H132503   7.088   4.887   4.138
10854TIP3    H232504   7.054   4.953   4.006
10855TIP3   OH232505   3.582   5.321   4.583
10855TIP3    H132506   3.559   5.228   4.580
10855TIP3    H232507   3.582   5.349   4.491
10856TIP3   OH232508   2.039   6.839   3.992
10856TIP3    H132509   1.996   6.783   4.057
10856TIP3    H232510   2.033   6.927   4.029
10857TIP3   OH232511   5.225   4.592   5.661
10857TIP3    H132512   5.318   4.616   5.667
10857TIP3    H232513   5.225   4.496   5.655
10858TIP3   OH232514   4.810   6.760   2.638
10858TIP3    H132515   4.780   6.791   2.553
10858TIP3    H232516   4.902   6.738   2.624
10859TIP3   OH232517   5.187   5.416   4.641
10859TIP3    H132518   5.242   5.342   4.618
10859TIP3    H232519   5.188   5.471   4.563
10860TIP3   OH232520   5.758   0.816   6.490
10860TIP3    H132521   5.677   0.787   6.533
10860TIP3    H232522   5.794   0.736   6.451
10861TIP3   OH232523   3.248   5.364   6.419
10861TIP3    H132524   3.343   5.376   6.425
10861TIP3    H232525   3.234   5.272   6.441
10862TIP3   OH232526   4.850   6.363   5.303
10862TIP3    H132527   4.794   6.323   5.236
10862TIP3    H232528   4.935   6.322   5.289
10863TIP3   OH232529   2.783   1.793   2.940
10863TIP3    H132530   2.822   1.791   2.853
10863TIP3    H232531   2.719   1.864   2.937
10864TIP3   OH232532   1.759   2.423   0.701
10864TIP3    H132533   1.815   2.469   0.639
10864TIP3    H232534   1.774   2.330   0.684
10865TIP3   OH232535   0.042   3.952   5.777
10865TIP3    H132536   0.092   4.002   5.712
10865TIP3    H232537  -0.049   3.957   5.747
10866TIP3   OH232538   1.556   4.425   6.258
10866TIP3    H132539   1.497   4.501   6.250
10866TIP3    H232540   1.497   4.350   6.266
10867TIP3   OH232541   7.725   7.817   0.863
10867TIP3    H132542   7.677   7.787   0.786
10867TIP3    H232543   7.796   7.871   0.828
10868TIP3   OH232544   5.518   7.598   4.886
10868TIP3    H132545   5.461   7.577   4.812
10868TIP3    H232546   5.500   7.691   4.903
10869TIP3   OH232547   3.405   1.771   5.920
10869TIP3    H132548   3.439   1.681   5.915
10869TIP3    H232549   3.475   1.825   5.884
10870TIP3   OH232550   3.933   4.979   5.278
10870TIP3    H132551   3.935   5.056   5.335
10870TIP3    H232552   3.919   4.905   5.338
10871TIP3   OH232553   8.196   0.387   2.521
10871TIP3    H132554   8.241   0.437   2.452
10871TIP3    H232555   8.147   0.452   2.570
10872TIP3   OH232556   2.340   5.064   5.786
10872TIP3    H132557   2.352   5.128   5.715
10872TIP3    H232558   2.289   4.993   5.746
10873TIP3   OH232559   4.618   6.275   5.092
10873TIP3    H132560   4.524   6.289   5.109
10873TIP3    H232561   4.629   6.180   5.098
10874TIP3   OH232562   4.995   5.240   6.592
10874TIP3    H132563   4.938   5.213   6.519
10874TIP3    H232564   4.982   5.173   6.659
10875TIP3   OH232565   4.149   2.275   5.449
10875TIP3    H132566   4.082   2.208   5.433
10875TIP3    H232567   4.224   2.226   5.482
10876TIP3   OH232568   3.097   0.508   1.377
10876TIP3    H132569   3.105   0.486   1.470
10876TIP3    H232570   3.135   0.595   1.370
10877TIP3   OH232571   1.891   0.145   3.221
10877TIP3    H132572   1.892   0.050   3.207
10877TIP3    H232573   1.979   0.165   3.252
10878TIP3   OH232574   7.272   3.539   0.575
10878TIP3    H132575   7.270   3.603   0.646
10878TIP3    H232576   7.251   3.589   0.497
10879TIP3   OH232577   0.961   4.249   3.873
10879TIP3    H132578   0.920   4.203   3.800
10879TIP3    H232579   0.935   4.199   3.951
10880TIP3   OH232580   6.276   0.821   0.382
10880TIP3    H132581   6.265   0.893   0.443
10880TIP3    H232582   6.358   0.779   0.410
10881TIP3   OH232583   3.240   0.319   0.510
10881TIP3    H132584   3.175   0.346   0.575
10881TIP3    H232585   3.324   0.333   0.554
10882TIP3   OH232586   2.145   0.900   6.314
10882TIP3    H132587   2.184   0.815   6.292
10882TIP3    H232588   2.100   0.927   6.235
10883TIP3   OH232589   8.029   4.436   5.131
10883TIP3    H132590   7.958   4.496   5.106
10883TIP3    H232591   8.105   4.493   5.143
10884TIP3   OH232592   6.202   6.544   6.083
10884TIP3    H132593   6.218   6.458   6.121
10884TIP3    H232594   6.257   6.547   6.005
10885TIP3   OH232595   1.480   0.146   0.658
10885TIP3    H132596   1.523   0.198   0.590
10885TIP3    H232597   1.453   0.066   0.613
10886TIP3   OH232598   3.476   7.670   0.244
10886TIP3    H132599   3.504   7.600   0.303
10886TIP3    H232600   3.544   7.674   0.177
10887TIP3   OH232601   7.001   3.884   4.414
10887TIP3    H132602   6.935   3.897   4.482
10887TIP3    H232603   6.950   3.862   4.336
10888TIP3   OH232604   5.318   2.500   3.942
10888TIP3    H132605   5.305   2.455   4.026
10888TIP3    H232606   5.405   2.473   3.913
10889TIP3   OH232607   4.734   5.251   4.413
10889TIP3    H132608   4.816   5.284   4.451
10889TIP3    H232609   4.747   5.258   4.319
10890TIP3   OH232610   6.118   3.284   1.586
10890TIP3    H132611   6.056   3.327   1.646
10890TIP3    H232612   6.202   3.326   1.605
10891TIP3   OH232613   1.016   7.108   3.549
10891TIP3    H132614   1.053   7.025   3.581
10891TIP3    H232615   0.948   7.081   3.487
10892TIP3   OH232616   6.295   6.033   6.308
10892TIP3    H132617   6.279   5.999   6.396
10892TIP3    H232618   6.335   5.960   6.262
10893TIP3   OH232619   5.487   2.825   6.748
10893TIP3    H132620   5.478   2.740   6.704
10893TIP3    H232621   5.448   2.887   6.687
10894TIP3   OH232622   2.499   2.083   4.402
10894TIP3    H132623   2.524   2.168   4.367
10894TIP3    H232624   2.582   2.039   4.418
10895TIP3   OH232625   7.822   7.515   2.996
10895TIP3    H132626   7.851   7.424   2.989
10895TIP3    H232627   7.788   7.523   3.085
10896TIP3   OH232628   2.442   2.203   1.523
10896TIP3    H132629   2.476   2.285   1.486
10896TIP3    H232630   2.520   2.158   1.555
10897TIP3   OH232631   6.118   4.568   2.334
10897TIP3    H132632   6.064   4.564   2.412
10897TIP3    H232633   6.176   4.493   2.340
10898TIP3   OH232634   6.371   1.859   3.339
10898TIP3    H132635   6.316   1.844   3.416
10898TIP3    H232636   6.324   1.816   3.268
10899TIP3   OH232637   0.622   4.679   5.497
10899TIP3    H132638   0.559   4.714   5.434
10899TIP3    H232639   0.658   4.757   5.540
10900TIP3   OH232640   4.120   5.520   1.479
10900TIP3    H132641   4.097   5.595   1.425
10900TIP3    H232642   4.216   5.523   1.484
10901TIP3   OH232643   4.778   3.037   0.680
10901TIP3    H132644   4.787   2.947   0.651
10901TIP3    H232645   4.868   3.070   0.686
10902TIP3   OH232646   6.447   2.295   5.690
10902TIP3    H132647   6.514   2.256   5.634
10902TIP3    H232648   6.385   2.223   5.706
10903TIP3   OH232649   3.722   1.745   1.714
10903TIP3    H132650   3.805   1.709   1.684
10903TIP3    H232651   3.745   1.796   1.791
10904TIP3   OH232652   7.691   5.827   5.678
10904TIP3    H132653   7.759   5.887   5.708
10904TIP3    H232654   7.623   5.831   5.745
10905TIP3   OH232655   3.746   6.079   0.932
10905TIP3    H132656   3.767   6.115   1.018
10905TIP3    H232657   3.691   6.003   0.950
10906TIP3   OH232658   0.426   1.545   6.811
10906TIP3    H132659   0.486   1.596   6.757
10906TIP3    H232660   0.480   1.472   6.844
10907TIP3   OH232661   7.893   5.516   5.520
10907TIP3    H132662   7.840   5.578   5.472
10907TIP3    H232663   7.980   5.555   5.523
10908TIP3   OH232664   4.016   5.933   0.153
10908TIP3    H132665   4.100   5.889   0.167
10908TIP3    H232666   3.955   5.862   0.133
10909TIP3   OH232667   8.235   3.885   0.209
10909TIP3    H132668   8.266   3.965   0.167
10909TIP3    H232669   8.302   3.819   0.187
10910TIP3   OH232670   6.806   3.414   0.151
10910TIP3    H132671   6.811   3.476   0.224
10910TIP3    H232672   6.895   3.412   0.115
10911TIP3   OH232673   2.066   3.313   3.989
10911TIP3    H132674   2.097   3.354   4.070
10911TIP3    H232675   2.038   3.225   4.015
10912TIP3   OH232676   7.861   7.353   6.390
10912TIP3    H132677   7.934   7.321   6.337
10912TIP3    H232678   7.860   7.448   6.375
10913TIP3   OH232679   0.972   7.154   3.914
10913TIP3    H132680   0.918   7.206   3.974
10913TIP3    H232681   1.062   7.180   3.933
10914TIP3   OH232682   3.669   0.427   3.277
10914TIP3    H132683   3.723   0.489   3.229
10914TIP3    H232684   3.585   0.471   3.289
10915TIP3   OH232685   0.040   6.282   2.246
10915TIP3    H132686   0.120   6.333   2.258
10915TIP3    H232687  -0.009   6.295   2.328
10916TIP3   OH232688   3.278   3.106   6.058
10916TIP3    H132689   3.343   3.103   6.128
10916TIP3    H232690   3.234   3.021   6.061
10917TIP3   OH232691   5.207   2.861   0.736
10917TIP3    H132692   5.246   2.905   0.812
10917TIP3    H232693   5.155   2.790   0.773
10918TIP3   OH232694   7.566   7.423   4.634
10918TIP3    H132695   7.609   7.433   4.549
10918TIP3    H232696   7.601   7.495   4.687
10919TIP3   OH232697   4.255   5.411   6.538
10919TIP3    H132698   4.260   5.355   6.460
10919TIP3    H232699   4.191   5.368   6.594
10920TIP3   OH232700   0.594   3.196   2.986
10920TIP3    H132701   0.615   3.150   2.905
10920TIP3    H232702   0.548   3.275   2.957
10921TIP3   OH232703   6.434   6.078   6.007
10921TIP3    H132704   6.464   6.072   5.916
10921TIP3    H232705   6.449   5.990   6.042
10922TIP3   OH232706   3.946   3.847   6.616
10922TIP3    H132707   3.865   3.798   6.601
10922TIP3    H232708   4.010   3.780   6.639
10923TIP3   OH232709   4.068   1.773   5.133
10923TIP3    H132710   4.020   1.837   5.185
10923TIP3    H232711   4.146   1.754   5.185
10924TIP3   OH232712   4.770   5.641   4.492
10924TIP3    H132713   4.799   5.596   4.412
10924TIP3    H232714   4.686   5.600   4.513
10925TIP3   OH232715   3.714   6.308   5.656
10925TIP3    H132716   3.764   6.230   5.632
10925TIP3    H232717   3.773   6.358   5.713
10926TIP3   OH232718   6.276   0.397   3.728
10926TIP3    H132719   6.243   0.460   3.792
10926TIP3    H232720   6.331   0.449   3.670
10927TIP3   OH232721   4.254   7.676   0.251
10927TIP3    H132722   4.216   7.599   0.209
10927TIP3    H232723   4.348   7.656   0.255
10928TIP3   OH232724   4.671   1.574   4.882
10928TIP3    H132725   4.595   1.520   4.862
10928TIP3    H232726   4.731   1.559   4.810
10929TIP3   OH232727   7.734   1.409   5.283
10929TIP3    H132728   7.709   1.465   5.356
10929TIP3    H232729   7.650   1.378   5.247
10930TIP3   OH232730   2.763   5.517   0.031
10930TIP3    H132731   2.850   5.476   0.029
10930TIP3    H232732   2.707   5.455  -0.016
10931TIP3   OH232733   3.837   0.239   1.675
10931TIP3    H132734   3.853   0.321   1.721
10931TIP3    H232735   3.844   0.172   1.742
10932TIP3   OH232736   6.949   7.382   2.683
10932TIP3    H132737   7.024   7.323   2.678
10932TIP3    H232738   6.874   7.327   2.660
10933TIP3   OH232739   6.712   6.188   1.864
10933TIP3    H132740   6.789   6.210   1.811
10933TIP3    H232741   6.652   6.262   1.850
10934TIP3   OH232742   2.923   2.729   6.711
10934TIP3    H132743   2.998   2.783   6.685
10934TIP3    H232744   2.846   2.782   6.688
10935TIP3   OH232745   0.228   6.231   0.213
10935TIP3    H132746   0.296   6.199   0.272
10935TIP3    H232747   0.161   6.163   0.214
10936TIP3   OH232748   5.604   3.449   2.263
10936TIP3    H132749   5.582   3.433   2.355
10936TIP3    H232750   5.537   3.511   2.233
10937TIP3   OH232751   0.189   4.757   3.998
10937TIP3    H132752   0.227   4.793   3.918
10937TIP3    H232753   0.253   4.778   4.066
10938TIP3   OH232754   7.662   1.372   3.117
10938TIP3    H132755   7.625   1.397   3.033
10938TIP3    H232756   7.656   1.451   3.171
10939TIP3   OH232757   6.123   6.287   0.646
10939TIP3    H132758   6.108   6.378   0.619
10939TIP3    H232759   6.135   6.292   0.740
10940TIP3   OH232760   4.346   5.437   0.362
10940TIP3    H132761   4.283   5.465   0.296
10940TIP3    H232762   4.393   5.516   0.386
10941TIP3   OH232763   6.238   7.819   4.747
10941TIP3    H132764   6.328   7.853   4.754
10941TIP3    H232765   6.190   7.864   4.816
10942TIP3   OH232766   6.867   5.265   0.660
10942TIP3    H132767   6.872   5.340   0.720
10942TIP3    H232768   6.914   5.294   0.582
10943TIP3   OH232769   2.720   1.991   4.571
10943TIP3    H132770   2.769   1.913   4.546
10943TIP3    H232771   2.663   1.961   4.642
10944TIP3   OH232772   7.983   6.745   1.272
10944TIP3    H132773   7.924   6.712   1.339
10944TIP3    H232774   8.070   6.742   1.312
10945TIP3   OH232775   1.004   2.607   2.785
10945TIP3    H132776   0.949   2.685   2.786
10945TIP3    H232777   1.092   2.641   2.767
10946TIP3   OH232778   5.586   1.673   3.599
10946TIP3    H132779   5.601   1.739   3.667
10946TIP3    H232780   5.633   1.595   3.630
10947TIP3   OH232781   7.718   5.939   3.206
10947TIP3    H132782   7.628   5.932   3.173
10947TIP3    H232783   7.771   5.949   3.127
10948TIP3   OH232784   0.232   7.907   3.084
10948TIP3    H132785   0.165   7.929   3.019
10948TIP3    H232786   0.288   7.844   3.039
10949TIP3   OH232787   6.801   6.994   5.493
10949TIP3    H132788   6.717   7.037   5.512
10949TIP3    H232789   6.867   7.058   5.520
10950TIP3   OH232790   6.884   6.402   3.787
10950TIP3    H132791   6.912   6.489   3.755
10950TIP3    H232792   6.854   6.418   3.876
10951TIP3   OH232793   5.698   0.221   3.574
10951TIP3    H132794   5.644   0.280   3.627
10951TIP3    H232795   5.635   0.176   3.517
10952TIP3   OH232796   6.495   3.428   3.775
10952TIP3    H132797   6.588   3.423   3.798
10952TIP3    H232798   6.489   3.502   3.716
10953TIP3   OH232799   2.424   1.401   1.196
10953TIP3    H132800   2.344   1.438   1.160
10953TIP3    H232801   2.401   1.379   1.286
10954TIP3   OH232802   7.724   5.585   1.957
10954TIP3    H132803   7.713   5.492   1.976
10954TIP3    H232804   7.655   5.629   2.007
10955TIP3   OH232805   5.831   3.482   2.699
10955TIP3    H132806   5.886   3.521   2.767
10955TIP3    H232807   5.744   3.476   2.740
10956TIP3   OH232808   3.525   4.116   0.373
10956TIP3    H132809   3.585   4.093   0.444
10956TIP3    H232810   3.582   4.136   0.299
10957TIP3   OH232811   4.805   0.739   5.799
10957TIP3    H132812   4.783   0.715   5.889
10957TIP3    H232813   4.758   0.821   5.784
10958TIP3   OH232814   6.192   0.568   6.179
10958TIP3    H132815   6.162   0.485   6.142
10958TIP3    H232816   6.197   0.628   6.104
10959TIP3   OH232817   6.674   6.214   0.740
10959TIP3    H132818   6.667   6.140   0.800
10959TIP3    H232819   6.768   6.234   0.736
10960TIP3   OH232820   7.994   0.129   6.316
10960TIP3    H132821   7.901   0.125   6.292
10960TIP3    H232822   7.994   0.123   6.412
10961TIP3   OH232823   3.314   3.472   0.661
10961TIP3    H132824   3.250   3.519   0.714
10961TIP3    H232825   3.295   3.379   0.677
10962TIP3   OH232826   0.702   7.661   1.107
10962TIP3    H132827   0.726   7.707   1.026
10962TIP3    H232828   0.744   7.576   1.099
10963TIP3   OH232829   7.312   2.916   0.359
10963TIP3    H132830   7.352   2.880   0.280
10963TIP3    H232831   7.305   3.010   0.341
10964TIP3   OH232832   7.271   3.296   3.510
10964TIP3    H132833   7.270   3.211   3.555
10964TIP3    H232834   7.180   3.309   3.482
10965TIP3   OH232835   1.118   2.625   3.590
10965TIP3    H132836   1.206   2.664   3.593
10965TIP3    H232837   1.082   2.656   3.507
10966TIP3   OH232838   3.956   4.804   2.606
10966TIP3    H132839   4.045   4.796   2.572
10966TIP3    H232840   3.957   4.885   2.657
10967TIP3   OH232841   7.326   6.122   2.933
10967TIP3    H132842   7.407   6.144   2.886
10967TIP3    H232843   7.272   6.201   2.926
10968TIP3   OH232844   7.102   6.023   5.962
10968TIP3    H132845   7.071   5.934   5.979
10968TIP3    H232846   7.067   6.044   5.875
10969TIP3   OH232847   5.229   4.961   1.698
10969TIP3    H132848   5.295   4.893   1.683
10969TIP3    H232849   5.197   4.943   1.787
10970TIP3   OH232850   7.221   6.277   6.734
10970TIP3    H132851   7.283   6.206   6.754
10970TIP3    H232852   7.266   6.329   6.666
10971TIP3   OH232853   3.136   1.183   1.709
10971TIP3    H132854   3.194   1.256   1.731
10971TIP3    H232855   3.080   1.173   1.786
10972TIP3   OH232856   7.317   6.562   3.143
10972TIP3    H132857   7.269   6.634   3.185
10972TIP3    H232858   7.250   6.513   3.096
10973TIP3   OH232859   4.394   6.287   3.122
10973TIP3    H132860   4.450   6.290   3.199
10973TIP3    H232861   4.305   6.298   3.157
10974TIP3   OH232862   6.947   6.773   5.069
10974TIP3    H132863   6.904   6.692   5.042
10974TIP3    H232864   6.915   6.789   5.158
10975TIP3   OH232865   6.183   7.580   4.663
10975TIP3    H132866   6.206   7.662   4.706
10975TIP3    H232867   6.240   7.514   4.704
10976TIP3   OH232868   6.800   3.899   1.888
10976TIP3    H132869   6.757   3.814   1.891
10976TIP3    H232870   6.888   3.879   1.855
10977TIP3   OH232871   3.505   1.606   2.415
10977TIP3    H132872   3.467   1.665   2.349
10977TIP3    H232873   3.506   1.658   2.495
10978TIP3   OH232874   6.659   2.885   2.089
10978TIP3    H132875   6.637   2.818   2.025
10978TIP3    H232876   6.577   2.933   2.101
10979TIP3   OH232877   1.019   7.601   2.604
10979TIP3    H132878   0.936   7.646   2.588
10979TIP3    H232879   0.997   7.531   2.665
10980TIP3   OH232880   7.959   0.624   4.079
10980TIP3    H132881   8.036   0.567   4.085
10980TIP3    H232882   7.980   0.685   4.009
10981TIP3   OH232883   1.834   4.759   3.551
10981TIP3    H132884   1.817   4.756   3.457
10981TIP3    H232885   1.749   4.742   3.591
10982TIP3   OH232886   5.321   7.660   2.792
10982TIP3    H132887   5.325   7.753   2.811
10982TIP3    H232888   5.413   7.633   2.782
10983TIP3   OH232889   7.177   7.527   3.187
10983TIP3    H132890   7.088   7.498   3.166
10983TIP3    H232891   7.219   7.541   3.102
10984TIP3   OH232892   3.654   6.271   2.481
10984TIP3    H132893   3.694   6.191   2.445
10984TIP3    H232894   3.659   6.334   2.410
10985TIP3   OH232895   4.460   7.370   4.201
10985TIP3    H132896   4.401   7.359   4.127
10985TIP3    H232897   4.404   7.367   4.278
10986TIP3   OH232898   1.969   4.433   2.602
10986TIP3    H132899   1.944   4.514   2.558
10986TIP3    H232900   1.936   4.442   2.691
10987TIP3   OH232901   2.809   5.976   1.278
10987TIP3    H132902   2.738   5.974   1.214
10987TIP3    H232903   2.864   5.902   1.255
10988TIP3   OH232904   3.952   6.339   4.737
10988TIP3    H132905   4.001   6.358   4.657
10988TIP3    H232906   3.887   6.410   4.743
10989TIP3   OH232907   4.219   6.339   3.934
10989TIP3    H132908   4.288   6.311   3.994
10989TIP3    H232909   4.166   6.400   3.985
10990TIP3   OH232910   1.321   2.346   5.729
10990TIP3    H132911   1.408   2.384   5.717
10990TIP3    H232912   1.293   2.377   5.815
10991TIP3   OH232913   1.788   5.357   4.146
10991TIP3    H132914   1.793   5.335   4.239
10991TIP3    H232915   1.709   5.312   4.115
10992TIP3   OH232916   7.773   1.680   5.691
10992TIP3    H132917   7.852   1.690   5.744
10992TIP3    H232918   7.750   1.587   5.699
10993TIP3   OH232919   2.906   7.664   3.911
10993TIP3    H132920   2.870   7.661   4.000
10993TIP3    H232921   2.830   7.654   3.854
10994TIP3   OH232922   2.012   1.348   5.697
10994TIP3    H132923   2.051   1.430   5.666
10994TIP3    H232924   1.923   1.373   5.723
10995TIP3   OH232925  -0.005   5.114   4.271
10995TIP3    H132926   0.086   5.102   4.242
10995TIP3    H232927  -0.041   5.179   4.211
10996TIP3   OH232928   2.131   5.218   6.076
10996TIP3    H132929   2.092   5.149   6.022
10996TIP3    H232930   2.181   5.171   6.142
10997TIP3   OH232931   6.511   3.576   2.319
10997TIP3    H132932   6.490   3.528   2.399
10997TIP3    H232933   6.600   3.549   2.297
10998TIP3   OH232934   4.782   5.312   1.074
10998TIP3    H132935   4.694   5.279   1.092
10998TIP3    H232936   4.840   5.238   1.092
10999TIP3   OH232937   4.598   3.976   2.169
10999TIP3    H132938   4.619   4.010   2.081
10999TIP3    H232939   4.527   4.032   2.200
11000TIP3   OH232940   2.546   4.585   4.312
11000TIP3    H132941   2.596   4.524   4.257
11000TIP3    H232942   2.553   4.669   4.267
11001TIP3   OH232943   0.678   2.472   3.000
11001TIP3    H132944   0.602   2.436   3.045
11001TIP3    H232945   0.722   2.526   3.066
11002TIP3   OH232946   1.608   0.275   0.023
11002TIP3    H132947   1.595   0.312  -0.065
11002TIP3    H232948   1.620   0.181   0.008
11003TIP3   OH232949   1.919   7.554   1.812
11003TIP3    H132950   1.827   7.580   1.801
11003TIP3    H232951   1.945   7.596   1.894
11004TIP3   OH232952   7.822   6.451   1.694
11004TIP3    H132953   7.845   6.358   1.702
11004TIP3    H232954   7.807   6.480   1.784
11005TIP3   OH232955   5.522   1.254   3.618
11005TIP3    H132956   5.495   1.285   3.531
11005TIP3    H232957   5.570   1.328   3.656
11006TIP3   OH232958   3.641   1.101   5.796
11006TIP3    H132959   3.588   1.174   5.764
11006TIP3    H232960   3.725   1.141   5.820
11007TIP3   OH232961   7.626   7.176   1.116
11007TIP3    H132962   7.544   7.203   1.158
11007TIP3    H232963   7.639   7.085   1.144
11008TIP3   OH232964   1.630   2.104   2.313
11008TIP3    H132965   1.598   2.085   2.224
11008TIP3    H232966   1.655   2.196   2.310
11009TIP3   OH232967   6.148   7.655   2.294
11009TIP3    H132968   6.101   7.574   2.314
11009TIP3    H232969   6.108   7.687   2.213
11010TIP3   OH232970   8.094   0.495   1.308
11010TIP3    H132971   8.045   0.569   1.344
11010TIP3    H232972   8.036   0.458   1.242
11011TIP3   OH232973   4.317   2.614   6.731
11011TIP3    H132974   4.384   2.545   6.727
11011TIP3    H232975   4.352   2.684   6.676
11012TIP3   OH232976   1.344   1.404   4.378
11012TIP3    H132977   1.316   1.486   4.337
11012TIP3    H232978   1.263   1.364   4.409
11013TIP3   OH232979   3.095   0.028   3.356
11013TIP3    H132980   3.069   0.021   3.264
11013TIP3    H232981   3.060   0.113   3.384
11014TIP3   OH232982   4.927   3.601   2.827
11014TIP3    H132983   4.855   3.600   2.764
11014TIP3    H232984   4.931   3.510   2.859
11015TIP3   OH232985   1.090   2.928   5.055
11015TIP3    H132986   1.115   2.970   5.137
11015TIP3    H232987   1.092   2.835   5.074
11016TIP3   OH232988   4.006   2.240   1.111
11016TIP3    H132989   4.006   2.279   1.024
11016TIP3    H232990   3.916   2.210   1.124
11017TIP3   OH232991   7.082   5.370   6.336
11017TIP3    H132992   7.076   5.393   6.243
11017TIP3    H232993   7.009   5.415   6.376
11018TIP3   OH232994   5.793   1.859   4.617
11018TIP3    H132995   5.853   1.787   4.597
11018TIP3    H232996   5.733   1.823   4.682
11019TIP3   OH232997   1.952   1.223   1.322
11019TIP3    H132998   1.975   1.132   1.341
11019TIP3    H232999   2.026   1.273   1.354
11020TIP3   OH233000   2.307   4.298   3.627
11020TIP3    H133001   2.218   4.272   3.605
11020TIP3    H233002   2.297   4.379   3.676
11021TIP3   OH233003   0.651   3.760   3.737
11021TIP3    H133004   0.689   3.835   3.783
11021TIP3    H233005   0.558   3.780   3.730
11022TIP3   OH233006   1.671   4.173   6.662
11022TIP3    H133007   1.693   4.169   6.569
11022TIP3    H233008   1.710   4.254   6.693
11023TIP3   OH233009   4.576   5.192   2.421
11023TIP3    H133010   4.637   5.135   2.375
11023TIP3    H233011   4.521   5.131   2.472
11024TIP3   OH233012   6.324   4.031   5.034
11024TIP3    H133013   6.346   4.115   5.073
11024TIP3    H233014   6.355   3.966   5.098
11025TIP3   OH233015   5.494   0.990   3.694
11025TIP3    H133016   5.488   1.075   3.650
11025TIP3    H233017   5.580   0.957   3.668
11026TIP3   OH233018   2.391   3.134   4.060
11026TIP3    H133019   2.431   3.184   3.989
11026TIP3    H233020   2.297   3.132   4.038
11027TIP3   OH233021   1.990   6.670   3.096
11027TIP3    H133022   1.986   6.698   3.005
11027TIP3    H233023   1.978   6.575   3.093
11028TIP3   OH233024   2.350   6.374   4.809
11028TIP3    H133025   2.389   6.461   4.806
11028TIP3    H233026   2.338   6.349   4.718
11029TIP3   OH233027   3.824   1.455   5.474
11029TIP3    H133028   3.826   1.513   5.398
11029TIP3    H233029   3.914   1.422   5.481
11030TIP3   OH233030   0.778   4.981   4.536
11030TIP3    H133031   0.838   5.052   4.512
11030TIP3    H233032   0.725   4.966   4.458
11031TIP3   OH233033   0.240   1.538   4.749
11031TIP3    H133034   0.220   1.459   4.697
11031TIP3    H233035   0.168   1.598   4.731
11032TIP3   OH233036   1.670   5.892  -0.010
11032TIP3    H133037   1.626   5.916   0.072
11032TIP3    H233038   1.724   5.817   0.014
11033TIP3   OH233039   6.105   2.249   0.335
11033TIP3    H133040   6.122   2.293   0.252
11033TIP3    H233041   6.168   2.176   0.337
11034TIP3   OH233042   2.695   4.349   0.240
11034TIP3    H133043   2.617   4.371   0.291
11034TIP3    H233044   2.760   4.323   0.306
11035TIP3   OH233045   7.539   7.809   5.028
11035TIP3    H133046   7.632   7.786   5.026
11035TIP3    H233047   7.498   7.740   5.081
11036TIP3   OH233048   5.169   1.897   6.181
11036TIP3    H133049   5.153   1.806   6.204
11036TIP3    H233050   5.092   1.943   6.215
11037TIP3   OH233051   5.700   4.138   5.184
11037TIP3    H133052   5.645   4.099   5.252
11037TIP3    H233053   5.639   4.171   5.119
11038TIP3   OH233054   6.496   4.813   0.364
11038TIP3    H133055   6.585   4.841   0.343
11038TIP3    H233056   6.504   4.722   0.391
11039TIP3   OH233057   2.595   6.159   5.773
11039TIP3    H133058   2.622   6.180   5.863
11039TIP3    H233059   2.576   6.066   5.775
11040TIP3   OH233060   1.730   1.751   4.392
11040TIP3    H133061   1.668   1.692   4.349
11040TIP3    H233062   1.763   1.806   4.321
11041TIP3   OH233063   6.071   5.322   0.700
11041TIP3    H133064   5.987   5.281   0.677
11041TIP3    H233065   6.104   5.356   0.617
11042TIP3   OH233066   1.215   5.150   2.153
11042TIP3    H133067   1.203   5.169   2.247
11042TIP3    H233068   1.127   5.162   2.115
11043TIP3   OH233069   0.463   3.351   1.944
11043TIP3    H133070   0.439   3.443   1.937
11043TIP3    H233071   0.551   3.351   1.982
11044TIP3   OH233072   1.711   3.953   5.763
11044TIP3    H133073   1.748   4.003   5.691
11044TIP3    H233074   1.733   3.862   5.744
11045TIP3   OH233075   0.298   5.325   5.556
11045TIP3    H133076   0.342   5.356   5.635
11045TIP3    H233077   0.308   5.397   5.494
11046TIP3   OH233078   0.563   4.828   6.147
11046TIP3    H133079   0.475   4.850   6.117
11046TIP3    H233080   0.606   4.792   6.069
11047TIP3   OH233081   6.185   0.624   3.306
11047TIP3    H133082   6.146   0.587   3.386
11047TIP3    H233083   6.115   0.676   3.267
11048TIP3   OH233084   4.867   1.751   3.710
11048TIP3    H133085   4.926   1.824   3.732
11048TIP3    H233086   4.821   1.733   3.792
11049TIP3   OH233087   2.586   1.811   5.348
11049TIP3    H133088   2.607   1.838   5.259
11049TIP3    H233089   2.636   1.870   5.404
11050TIP3   OH233090   8.419   4.441   3.498
11050TIP3    H133091   8.390   4.480   3.580
11050TIP3    H233092   8.338   4.429   3.447
11051TIP3   OH233093   5.006   0.631   1.061
11051TIP3    H133094   4.913   0.643   1.040
11051TIP3    H233095   5.039   0.720   1.075
11052TIP3   OH233096   4.351   6.090   6.746
11052TIP3    H133097   4.281   6.026   6.733
11052TIP3    H233098   4.430   6.045   6.716
11053TIP3   OH233099   1.778   2.964   0.558
11053TIP3    H133100   1.794   3.053   0.529
11053TIP3    H233101   1.771   2.970   0.653
11054TIP3   OH233102   1.805   0.926   0.475
11054TIP3    H133103   1.896   0.953   0.477
11054TIP3    H233104   1.808   0.832   0.458
11055TIP3   OH233105   1.135   6.442   4.088
11055TIP3    H133106   1.054   6.398   4.112
11055TIP3    H233107   1.178   6.382   4.026
11056TIP3   OH233108   5.415   6.031   6.495
11056TIP3    H133109   5.362   5.973   6.440
11056TIP3    H233110   5.351   6.072   6.554
11057TIP3   OH233111   1.021   3.177   0.142
11057TIP3    H133112   1.010   3.165   0.236
11057TIP3    H233113   1.075   3.102   0.115
11058TIP3   OH233114   2.983   3.725   5.934
11058TIP3    H133115   2.971   3.812   5.895
11058TIP3    H233116   2.958   3.737   6.026
11059TIP3   OH233117   4.180   1.025   5.768
11059TIP3    H133118   4.231   0.945   5.756
11059TIP3    H233119   4.171   1.061   5.680
11060TIP3   OH233120   4.096   7.055   5.503
11060TIP3    H133121   4.148   7.090   5.575
11060TIP3    H233122   4.018   7.111   5.501
11061TIP3   OH233123   5.086   3.033   4.473
11061TIP3    H133124   5.162   3.027   4.415
11061TIP3    H233125   5.013   3.001   4.422
11062TIP3   OH233126   5.881   2.030   3.879
11062TIP3    H133127   5.967   1.997   3.854
11062TIP3    H233128   5.892   2.064   3.968
11063TIP3   OH233129   5.969   4.685   5.971
11063TIP3    H133130   6.008   4.601   5.949
11063TIP3    H233131   5.877   4.665   5.990
11064TIP3   OH233132   7.652   4.595   0.824
11064TIP3    H133133   7.608   4.581   0.907
11064TIP3    H233134   7.620   4.680   0.794
11065TIP3   OH233135   4.450   6.587   1.995
11065TIP3    H133136   4.447   6.498   1.960
11065TIP3    H233137   4.363   6.601   2.034
11066TIP3   OH233138   4.008   3.262   3.226
11066TIP3    H133139   4.098   3.265   3.260
11066TIP3    H233140   3.983   3.354   3.216
11067TIP3   OH233141   3.232   5.452   5.497
11067TIP3    H133142   3.273   5.538   5.490
11067TIP3    H233143   3.240   5.414   5.410
11068TIP3   OH233144   0.752   6.501   0.109
11068TIP3    H133145   0.733   6.413   0.076
11068TIP3    H233146   0.773   6.552   0.031
11069TIP3   OH233147  -0.036   2.361   0.686
11069TIP3    H133148   0.060   2.350   0.684
11069TIP3    H233149  -0.050   2.455   0.675
11070TIP3   OH233150   5.027   7.700   1.700
11070TIP3    H133151   5.120   7.696   1.723
11070TIP3    H233152   4.986   7.745   1.774
11071TIP3   OH233153   3.305   5.555   4.602
11071TIP3    H133154   3.323   5.649   4.603
11071TIP3    H233155   3.275   5.535   4.690
11072TIP3   OH233156   2.874   5.990   5.265
11072TIP3    H133157   2.948   5.930   5.260
11072TIP3    H233158   2.814   5.960   5.197
11073TIP3   OH233159   2.404   5.826   2.995
11073TIP3    H133160   2.444   5.884   2.930
11073TIP3    H233161   2.434   5.738   2.969
11074TIP3   OH233162   7.777   3.191   0.540
11074TIP3    H133163   7.808   3.137   0.468
11074TIP3    H233164   7.683   3.171   0.547
11075TIP3   OH233165   7.224   3.785   0.703
11075TIP3    H133166   7.184   3.848   0.643
11075TIP3    H233167   7.304   3.829   0.734
11076TIP3   OH233168   2.307   0.344   1.393
11076TIP3    H133169   2.295   0.249   1.384
11076TIP3    H233170   2.359   0.369   1.317
11077TIP3   OH233171   1.614   1.584   3.830
11077TIP3    H133172   1.655   1.499   3.841
11077TIP3    H233173   1.663   1.625   3.758
11078TIP3   OH233174   5.309   2.773   3.898
11078TIP3    H133175   5.216   2.795   3.898
11078TIP3    H233176   5.312   2.680   3.921
11079TIP3   OH233177   4.238   1.684   6.503
11079TIP3    H133178   4.292   1.735   6.443
11079TIP3    H233179   4.173   1.641   6.447
11080TIP3   OH233180   0.386   6.295   4.558
11080TIP3    H133181   0.392   6.205   4.528
11080TIP3    H233182   0.468   6.312   4.603
11081TIP3   OH233183   5.903   2.153   1.455
11081TIP3    H133184   5.954   2.189   1.383
11081TIP3    H233185   5.945   2.189   1.534
11082TIP3   OH233186   7.619   5.034   0.195
11082TIP3    H133187   7.599   5.080   0.114
11082TIP3    H233188   7.638   5.103   0.259
11083TIP3   OH233189   0.125   2.857   6.593
11083TIP3    H133190   0.095   2.766   6.596
11083TIP3    H233191   0.102   2.893   6.678
11084TIP3   OH233192   0.786   4.152   6.793
11084TIP3    H133193   0.720   4.164   6.861
11084TIP3    H233194   0.758   4.211   6.723
11085TIP3   OH233195   5.826   6.466   3.769
11085TIP3    H133196   5.759   6.446   3.835
11085TIP3    H233197   5.908   6.435   3.807
11086TIP3   OH233198   0.473   2.849   2.879
11086TIP3    H133199   0.395   2.859   2.933
11086TIP3    H233200   0.545   2.874   2.936
11087TIP3   OH233201   4.453   7.759   3.832
11087TIP3    H133202   4.512   7.776   3.758
11087TIP3    H233203   4.389   7.829   3.829
11088TIP3   OH233204   4.999   3.825   3.445
11088TIP3    H133205   4.936   3.871   3.390
11088TIP3    H233206   4.993   3.733   3.417
11089TIP3   OH233207   6.104   5.741   3.975
11089TIP3    H133208   6.087   5.752   3.881
11089TIP3    H233209   6.192   5.704   3.979
11090TIP3   OH233210   0.897   0.771   3.813
11090TIP3    H133211   0.872   0.835   3.879
11090TIP3    H233212   0.815   0.727   3.790
11091TIP3   OH233213   2.757   0.084   3.020
11091TIP3    H133214   2.748   0.041   2.935
11091TIP3    H233215   2.727   0.174   3.005
11092TIP3   OH233216   1.465   6.883   4.409
11092TIP3    H133217   1.429   6.969   4.431
11092TIP3    H233218   1.522   6.899   4.333
11093TIP3   OH233219   5.690   1.444   0.942
11093TIP3    H133220   5.752   1.482   0.879
11093TIP3    H233221   5.665   1.360   0.904
11094TIP3   OH233222   6.739   7.892   6.456
11094TIP3    H133223   6.693   7.813   6.430
11094TIP3    H233224   6.830   7.863   6.470
11095TIP3   OH233225   4.808   5.996   2.316
11095TIP3    H133226   4.869   6.067   2.295
11095TIP3    H233227   4.850   5.918   2.280
11096TIP3   OH233228   6.708   5.783   5.685
11096TIP3    H133229   6.717   5.877   5.701
11096TIP3    H233230   6.615   5.772   5.662
11097TIP3   OH233231   0.602   7.689   4.570
11097TIP3    H133232   0.659   7.627   4.526
11097TIP3    H233233   0.650   7.772   4.568
11098TIP3   OH233234   3.341   4.573   4.818
11098TIP3    H133235   3.360   4.664   4.793
11098TIP3    H233236   3.384   4.520   4.750
11099TIP3   OH233237   2.122   6.189   4.800
11099TIP3    H133238   2.213   6.218   4.792
11099TIP3    H233239   2.121   6.136   4.879
11100TIP3   OH233240   8.264   5.635   4.982
11100TIP3    H133241   8.273   5.543   4.957
11100TIP3    H233242   8.169   5.651   4.978
11101TIP3   OH233243   1.746   0.539   1.403
11101TIP3    H133244   1.740   0.629   1.373
11101TIP3    H233245   1.743   0.545   1.498
11102TIP3   OH233246  -0.012   7.650   0.394
11102TIP3    H133247  -0.010   7.555   0.398
11102TIP3    H233248   0.066   7.677   0.443
11103TIP3   OH233249   0.204   2.018   1.250
11103TIP3    H133250   0.211   2.068   1.169
11103TIP3    H233251   0.274   1.952   1.244
11104TIP3   OH233252   2.533   7.416   0.702
11104TIP3    H133253   2.618   7.459   0.695
11104TIP3    H233254   2.515   7.412   0.796
11105TIP3   OH233255   8.272   5.367   6.363
11105TIP3    H133256   8.340   5.354   6.297
11105TIP3    H233257   8.196   5.396   6.314
11106TIP3   OH233258   7.421   5.636   6.518
11106TIP3    H133259   7.489   5.702   6.527
11106TIP3    H233260   7.384   5.652   6.431
11107TIP3   OH233261   4.128   5.005   0.560
11107TIP3    H133262   4.175   5.077   0.518
11107TIP3    H233263   4.197   4.949   0.595
11108TIP3   OH233264   2.646   4.502   5.326
11108TIP3    H133265   2.623   4.484   5.417
11108TIP3    H233266   2.699   4.581   5.330
11109TIP3   OH233267   0.833   2.783   4.957
11109TIP3    H133268   0.765   2.721   4.983
11109TIP3    H233269   0.825   2.854   5.021
11110TIP3   OH233270   3.128   6.606   2.606
11110TIP3    H133271   3.126   6.695   2.570
11110TIP3    H233272   3.125   6.549   2.529
11111TIP3   OH233273   8.299   0.015   0.490
11111TIP3    H133274   8.340  -0.046   0.552
11111TIP3    H233275   8.211   0.030   0.525
11112TIP3   OH233276   4.372   3.710   1.738
11112TIP3    H133277   4.319   3.638   1.703
11112TIP3    H233278   4.312   3.785   1.740
11113TIP3   OH233279   0.239   6.432   0.881
11113TIP3    H133280   0.172   6.470   0.938
11113TIP3    H233281   0.224   6.474   0.796
11114TIP3   OH233282   3.445   7.773   2.496
11114TIP3    H133283   3.405   7.707   2.551
11114TIP3    H233284   3.539   7.764   2.512
11115TIP3   OH233285   5.374   3.177   1.300
11115TIP3    H133286   5.385   3.224   1.218
11115TIP3    H233287   5.381   3.245   1.368
11116TIP3   OH233288   5.959   0.944   3.895
11116TIP3    H133289   5.986   0.893   3.819
11116TIP3    H233290   6.035   0.943   3.953
11117TIP3   OH233291   3.505   5.580   6.203
11117TIP3    H133292   3.468   5.626   6.278
11117TIP3    H233293   3.461   5.495   6.202
11118TIP3   OH233294   2.383   7.885   1.937
11118TIP3    H133295   2.320   7.814   1.952
11118TIP3    H233296   2.376   7.941   2.014
11119TIP3   OH233297   6.589   7.721   6.267
11119TIP3    H133298   6.511   7.672   6.292
11119TIP3    H233299   6.659   7.686   6.322
11120TIP3   OH233300   3.829   6.705   2.733
11120TIP3    H133301   3.901   6.761   2.763
11120TIP3    H233302   3.857   6.674   2.647
11121TIP3   OH233303   3.121   7.823   0.376
11121TIP3    H133304   3.047   7.871   0.337
11121TIP3    H233305   3.164   7.782   0.301
11122TIP3   OH233306   5.229   1.083   3.838
11122TIP3    H133307   5.190   1.141   3.772
11122TIP3    H233308   5.305   1.044   3.793
11123TIP3   OH233309   4.906   0.929   2.835
11123TIP3    H133310   4.857   1.009   2.856
11123TIP3    H233311   4.928   0.938   2.742
11124TIP3   OH233312   6.942   0.723   2.115
11124TIP3    H133313   7.011   0.722   2.049
11124TIP3    H233314   6.876   0.662   2.081
11125TIP3   OH233315   7.949   4.873   3.922
11125TIP3    H133316   8.023   4.812   3.919
11125TIP3    H233317   7.970   4.933   3.994
11126TIP3   OH233318   3.626   0.316   3.016
11126TIP3    H133319   3.639   0.372   3.093
11126TIP3    H233320   3.655   0.370   2.943
11127TIP3   OH233321   5.606   3.181   1.012
11127TIP3    H133322   5.530   3.221   1.053
11127TIP3    H233323   5.570   3.109   0.960
11128TIP3   OH233324   8.167   1.139   1.891
11128TIP3    H133325   8.090   1.160   1.838
11128TIP3    H233326   8.197   1.223   1.925
11129TIP3   OH233327   7.605   6.307   1.511
11129TIP3    H133328   7.619   6.402   1.509
11129TIP3    H233329   7.640   6.279   1.595
11130TIP3   OH233330   8.091   7.235   1.194
11130TIP3    H133331   8.036   7.222   1.271
11130TIP3    H233332   8.058   7.315   1.153
11131TIP3   OH233333   6.337   6.004   1.284
11131TIP3    H133334   6.259   6.058   1.299
11131TIP3    H233335   6.314   5.948   1.210
11132TIP3   OH233336   1.593   2.391   2.021
11132TIP3    H133337   1.647   2.314   2.001
11132TIP3    H233338   1.511   2.376   1.974
11133TIP3   OH233339   3.709   4.515   1.568
11133TIP3    H133340   3.646   4.586   1.561
11133TIP3    H233341   3.700   4.482   1.657
11134TIP3   OH233342   5.553   1.832   1.964
11134TIP3    H133343   5.520   1.870   1.882
11134TIP3    H233344   5.491   1.862   2.031
11135TIP3   OH233345   5.674   5.869   4.737
11135TIP3    H133346   5.763   5.832   4.743
11135TIP3    H233347   5.618   5.793   4.718
11136TIP3   OH233348   5.314   5.124   6.908
11136TIP3    H133349   5.226   5.095   6.885
11136TIP3    H233350   5.365   5.114   6.827
11137TIP3   OH233351   0.694   0.478   3.902
11137TIP3    H133352   0.661   0.547   3.845
11137TIP3    H233353   0.765   0.437   3.852
11138TIP3   OH233354   8.366   6.288   2.562
11138TIP3    H133355   8.327   6.244   2.638
11138TIP3    H233356   8.438   6.339   2.598
11139TIP3   OH233357   4.320   2.802   5.467
11139TIP3    H133358   4.304   2.766   5.554
11139TIP3    H233359   4.282   2.737   5.408
11140TIP3   OH233360   5.130   6.217   5.262
11140TIP3    H133361   5.103   6.130   5.232
11140TIP3    H233362   5.201   6.200   5.324
11141TIP3   OH233363   5.447   0.478   2.963
11141TIP3    H133364   5.360   0.497   2.927
11141TIP3    H233365   5.499   0.555   2.942
11142TIP3   OH233366   1.087   4.758   0.176
11142TIP3    H133367   1.022   4.689   0.188
11142TIP3    H233368   1.151   4.743   0.246
11143TIP3   OH233369   5.097   4.276   2.760
11143TIP3    H133370   5.114   4.246   2.671
11143TIP3    H233371   5.067   4.197   2.806
11144TIP3   OH233372   5.663   2.053   6.699
11144TIP3    H133373   5.717   2.054   6.621
11144TIP3    H233374   5.576   2.080   6.669
11145TIP3   OH233375   2.476   4.193   4.618
11145TIP3    H133376   2.546   4.143   4.659
11145TIP3    H233377   2.506   4.207   4.528
11146TIP3   OH233378   0.418   5.678   5.089
11146TIP3    H133379   0.450   5.601   5.042
11146TIP3    H233380   0.323   5.664   5.095
11147TIP3   OH233381   4.032   2.555   2.840
11147TIP3    H133382   4.027   2.523   2.930
11147TIP3    H233383   4.126   2.559   2.820
11148TIP3   OH233384   7.062   5.410   5.100
11148TIP3    H133385   6.986   5.367   5.138
11148TIP3    H233386   7.112   5.339   5.059
11149TIP3   OH233387   3.386   2.002   3.410
11149TIP3    H133388   3.389   2.076   3.350
11149TIP3    H233389   3.473   1.963   3.405
11150TIP3   OH233390   4.799   4.674   0.709
11150TIP3    H133391   4.780   4.690   0.617
11150TIP3    H233392   4.786   4.580   0.720
11151TIP3   OH233393   3.933   3.787   4.914
11151TIP3    H133394   3.998   3.849   4.947
11151TIP3    H233395   3.850   3.834   4.919
11152TIP3   OH233396   2.830   4.369   6.209
11152TIP3    H133397   2.822   4.464   6.201
11152TIP3    H233398   2.873   4.355   6.293
11153TIP3   OH233399   7.674   7.447   1.852
11153TIP3    H133400   7.682   7.408   1.766
11153TIP3    H233401   7.597   7.504   1.846
11154TIP3   OH233402   1.161   5.257   4.479
11154TIP3    H133403   1.145   5.223   4.391
11154TIP3    H233404   1.205   5.341   4.465
11155TIP3   OH233405   2.266   6.312   2.441
11155TIP3    H133406   2.353   6.331   2.405
11155TIP3    H233407   2.223   6.397   2.446
11156TIP3   OH233408   1.254   2.538   0.995
11156TIP3    H133409   1.293   2.546   0.907
11156TIP3    H233410   1.172   2.586   0.989
11157TIP3   OH233411   4.181   1.111   0.985
11157TIP3    H133412   4.228   1.029   0.998
11157TIP3    H233413   4.103   1.103   1.040
11158TIP3   OH233414   6.948   6.510   4.736
11158TIP3    H133415   6.958   6.437   4.675
11158TIP3    H233416   7.037   6.536   4.758
11159TIP3   OH233417   1.618   7.329   2.691
11159TIP3    H133418   1.548   7.331   2.625
11159TIP3    H233419   1.604   7.408   2.743
11160TIP3   OH233420   3.712   5.860   2.693
11160TIP3    H133421   3.685   5.930   2.634
11160TIP3    H233422   3.808   5.860   2.688
11161TIP3   OH233423   2.592   7.826   5.619
11161TIP3    H133424   2.548   7.745   5.591
11161TIP3    H233425   2.521   7.883   5.648
11162TIP3   OH233426   2.286   5.324   2.487
11162TIP3    H133427   2.246   5.248   2.528
11162TIP3    H233428   2.380   5.310   2.497
11163TIP3   OH233429   7.265   5.458   3.132
11163TIP3    H133430   7.359   5.446   3.147
11163TIP3    H233431   7.224   5.430   3.213
11164TIP3   OH233432   0.267   4.091   6.250
11164TIP3    H133433   0.239   4.038   6.175
11164TIP3    H233434   0.198   4.156   6.260
11165TIP3   OH233435   1.760   5.450   1.735
11165TIP3    H133436   1.765   5.442   1.830
11165TIP3    H233437   1.754   5.544   1.719
11166TIP3   OH233438   8.107   3.759   1.314
11166TIP3    H133439   8.162   3.805   1.251
11166TIP3    H233440   8.123   3.802   1.397
11167TIP3   OH233441   3.141   6.611   5.544
11167TIP3    H133442   3.195   6.539   5.510
11167TIP3    H233443   3.097   6.645   5.466
11168TIP3   OH233444   2.672   4.546   4.026
11168TIP3    H133445   2.747   4.488   4.017
11168TIP3    H233446   2.710   4.633   4.039
11169TIP3   OH233447   7.249   6.705   6.361
11169TIP3    H133448   7.191   6.690   6.287
11169TIP3    H233449   7.323   6.646   6.346
11170TIP3   OH233450   2.552   2.431   1.364
11170TIP3    H133451   2.565   2.389   1.279
11170TIP3    H233452   2.464   2.468   1.359
11171TIP3   OH233453   3.455   6.261   0.499
11171TIP3    H133454   3.487   6.172   0.516
11171TIP3    H233455   3.426   6.258   0.408
11172TIP3   OH233456   1.719   6.845   0.648
11172TIP3    H133457   1.723   6.930   0.603
11172TIP3    H233458   1.658   6.793   0.597
11173TIP3   OH233459   6.494   6.008   0.096
11173TIP3    H133460   6.470   5.927   0.141
11173TIP3    H233461   6.573   6.038   0.142
11174TIP3   OH233462   7.577   7.037   4.069
11174TIP3    H133463   7.513   6.978   4.110
11174TIP3    H233464   7.660   6.989   4.073
11175TIP3   OH233465   6.300   4.155   0.357
11175TIP3    H133466   6.320   4.183   0.267
11175TIP3    H233467   6.319   4.061   0.358
11176TIP3   OH233468   0.942   2.071   0.891
11176TIP3    H133469   0.972   1.983   0.871
11176TIP3    H233470   0.906   2.064   0.980
11177TIP3   OH233471   5.486   2.772   4.774
11177TIP3    H133472   5.489   2.724   4.691
11177TIP3    H233473   5.557   2.735   4.826
11178TIP3   OH233474   6.405   3.380   0.867
11178TIP3    H133475   6.324   3.425   0.892
11178TIP3    H233476   6.473   3.422   0.921
11179TIP3   OH233477   5.604   2.763   1.189
11179TIP3    H133478   5.685   2.716   1.173
11179TIP3    H233479   5.625   2.827   1.257
11180TIP3   OH233480   1.340   4.542   3.725
11180TIP3    H133481   1.320   4.635   3.719
11180TIP3    H233482   1.262   4.499   3.688
11181TIP3   OH233483   7.451   3.382   4.156
11181TIP3    H133484   7.470   3.327   4.080
11181TIP3    H233485   7.521   3.447   4.156
11182TIP3   OH233486   6.487   0.127   4.281
11182TIP3    H133487   6.477   0.049   4.227
11182TIP3    H233488   6.427   0.190   4.243
11183TIP3   OH233489   2.682   1.932   3.966
11183TIP3    H133490   2.773   1.914   3.990
11183TIP3    H233491   2.630   1.904   4.041
11184TIP3   OH233492   8.018   2.088   4.477
11184TIP3    H133493   7.926   2.079   4.453
11184TIP3    H233494   8.046   1.999   4.497
11185TIP3   OH233495   0.416   6.385   0.010
11185TIP3    H133496   0.496   6.337  -0.012
11185TIP3    H233497   0.366   6.324   0.066
11186TIP3   OH233498   3.639   7.850   4.111
11186TIP3    H133499   3.715   7.821   4.060
11186TIP3    H233500   3.568   7.856   4.047
11187TIP3   OH233501   5.405   4.960   5.836
11187TIP3    H133502   5.391   5.054   5.841
11187TIP3    H233503   5.435   4.945   5.747
11188TIP3   OH233504   8.050   6.791   0.425
11188TIP3    H133505   8.048   6.808   0.331
11188TIP3    H233506   8.015   6.871   0.464
11189TIP3   OH233507   6.442   6.444   4.175
11189TIP3    H133508   6.363   6.417   4.222
11189TIP3    H233509   6.514   6.405   4.225
11190TIP3   OH233510   5.344   1.611   2.561
11190TIP3    H133511   5.308   1.524   2.577
11190TIP3    H233512   5.378   1.607   2.471
11191TIP3   OH233513   3.655   6.769   2.928
11191TIP3    H133514   3.580   6.712   2.912
11191TIP3    H233515   3.722   6.737   2.867
11192TIP3   OH233516   0.422   1.620   1.436
11192TIP3    H133517   0.340   1.648   1.394
11192TIP3    H233518   0.458   1.700   1.474
11193TIP3   OH233519   4.258   0.486   1.682
11193TIP3    H133520   4.255   0.415   1.747
11193TIP3    H233521   4.180   0.538   1.701
11194TIP3   OH233522   7.466   2.436   4.883
11194TIP3    H133523   7.541   2.445   4.942
11194TIP3    H233524   7.465   2.342   4.862
11195TIP3   OH233525   6.107   4.242   5.007
11195TIP3    H133526   6.176   4.293   5.049
11195TIP3    H233527   6.109   4.158   5.051
11196TIP3   OH233528   6.584   4.351   1.082
11196TIP3    H133529   6.557   4.259   1.089
11196TIP3    H233530   6.530   4.397   1.147
11197TIP3   OH233531   7.000   1.109   6.741
11197TIP3    H133532   7.046   1.025   6.735
11197TIP3    H233533   7.068   1.173   6.763
11198TIP3   OH233534   0.759   3.012   5.129
11198TIP3    H133535   0.671   3.016   5.092
11198TIP3    H233536   0.787   3.103   5.134
11199TIP3   OH233537   7.250   3.010   3.579
11199TIP3    H133538   7.179   2.958   3.540
11199TIP3    H233539   7.301   2.948   3.630
11200TIP3   OH233540   4.782   6.451   3.416
11200TIP3    H133541   4.838   6.394   3.468
11200TIP3    H233542   4.830   6.465   3.335
11201TIP3   OH233543   6.775   6.668   1.376
11201TIP3    H133544   6.752   6.761   1.383
11201TIP3    H233545   6.831   6.663   1.298
11202TIP3   OH233546   2.889   7.383   5.733
11202TIP3    H133547   2.824   7.334   5.783
11202TIP3    H233548   2.880   7.473   5.763
11203TIP3   OH233549   3.764   1.066   3.024
11203TIP3    H133550   3.727   1.045   3.110
11203TIP3    H233551   3.693   1.047   2.962
11204TIP3   OH233552   1.802   5.284   3.082
11204TIP3    H133553   1.770   5.210   3.031
11204TIP3    H233554   1.723   5.334   3.105
11205TIP3   OH233555   1.335   7.839   4.907
11205TIP3    H133556   1.284   7.790   4.842
11205TIP3    H233557   1.415   7.787   4.918
11206TIP3   OH233558   3.922   6.850   0.778
11206TIP3    H133559   3.900   6.773   0.725
11206TIP3    H233560   3.998   6.888   0.734
11207TIP3   OH233561   3.046   2.372   4.551
11207TIP3    H133562   3.042   2.277   4.544
11207TIP3    H233563   3.078   2.400   4.465
11208TIP3   OH233564   5.972   4.806   1.730
11208TIP3    H133565   5.940   4.777   1.644
11208TIP3    H233566   5.943   4.897   1.737
11209TIP3   OH233567   1.190   1.223   0.908
11209TIP3    H133568   1.239   1.279   0.968
11209TIP3    H233569   1.100   1.253   0.915
11210TIP3   OH233570   3.839   2.431   6.645
11210TIP3    H133571   3.809   2.346   6.674
11210TIP3    H233572   3.853   2.421   6.551
11211TIP3   OH233573   2.506   4.562   4.726
11211TIP3    H133574   2.556   4.589   4.804
11211TIP3    H233575   2.573   4.549   4.659
11212TIP3   OH233576   4.007   4.872   0.302
11212TIP3    H133577   4.094   4.890   0.337
11212TIP3    H233578   3.951   4.940   0.338
11213TIP3   OH233579   0.171   3.459   5.080
11213TIP3    H133580   0.128   3.401   5.143
11213TIP3    H233581   0.253   3.415   5.059
11214TIP3   OH233582   3.111   6.149   2.680
11214TIP3    H133583   3.168   6.080   2.713
11214TIP3    H233584   3.169   6.223   2.665
11215TIP3   OH233585   4.585   6.878   4.750
11215TIP3    H133586   4.635   6.920   4.680
11215TIP3    H233587   4.636   6.893   4.829
11216TIP3   OH233588   8.295   1.001   4.140
11216TIP3    H133589   8.297   0.910   4.110
11216TIP3    H233590   8.339   1.050   4.071
11217TIP3   OH233591   1.501   1.724   0.495
11217TIP3    H133592   1.442   1.673   0.440
11217TIP3    H233593   1.513   1.807   0.448
11218TIP3   OH233594   1.601   5.530   1.009
11218TIP3    H133595   1.509   5.545   0.988
11218TIP3    H233596   1.607   5.549   1.103
11219TIP3   OH233597   3.634   1.455   3.552
11219TIP3    H133598   3.630   1.365   3.583
11219TIP3    H233599   3.716   1.460   3.502
11220TIP3   OH233600   7.740   3.422   4.429
11220TIP3    H133601   7.657   3.377   4.415
11220TIP3    H233602   7.751   3.423   4.524
11221TIP3   OH233603   3.801   0.109   6.759
11221TIP3    H133604   3.812   0.104   6.854
11221TIP3    H233605   3.882   0.071   6.723
11222TIP3   OH233606   1.563   5.924   4.815
11222TIP3    H133607   1.640   5.980   4.812
11222TIP3    H233608   1.489   5.986   4.819
11223TIP3   OH233609   5.863   4.235   6.819
11223TIP3    H133610   5.890   4.327   6.827
11223TIP3    H233611   5.783   4.229   6.871
11224TIP3   OH233612   6.144   2.413   5.489
11224TIP3    H133613   6.161   2.436   5.580
11224TIP3    H233614   6.186   2.483   5.439
11225TIP3   OH233615   5.664   3.562   6.267
11225TIP3    H133616   5.679   3.625   6.338
11225TIP3    H233617   5.577   3.527   6.284
11226TIP3   OH233618   7.467   7.875   1.977
11226TIP3    H133619   7.397   7.933   1.947
11226TIP3    H233620   7.490   7.823   1.900
11227TIP3   OH233621   7.887   1.199   2.171
11227TIP3    H133622   7.885   1.259   2.246
11227TIP3    H233623   7.878   1.256   2.095
11228TIP3   OH233624   6.959   4.138   3.313
11228TIP3    H133625   6.872   4.157   3.280
11228TIP3    H233626   6.961   4.043   3.324
11229TIP3   OH233627   3.621   7.480   5.187
11229TIP3    H133628   3.674   7.529   5.124
11229TIP3    H233629   3.669   7.398   5.199
11230TIP3   OH233630   7.450   5.920   3.811
11230TIP3    H133631   7.425   5.999   3.762
11230TIP3    H233632   7.508   5.952   3.880
11231TIP3   OH233633   2.351   4.589   3.718
11231TIP3    H133634   2.273   4.641   3.703
11231TIP3    H233635   2.341   4.554   3.807
11232TIP3   OH233636   0.148   4.212   0.358
11232TIP3    H133637   0.059   4.184   0.339
11232TIP3    H233638   0.141   4.258   0.442
11233TIP3   OH233639   4.510   7.535   1.343
11233TIP3    H133640   4.431   7.572   1.304
11233TIP3    H233641   4.557   7.496   1.268
11234TIP3   OH233642   0.661   2.863   6.429
11234TIP3    H133643   0.707   2.943   6.452
11234TIP3    H233644   0.569   2.881   6.452
11235TIP3   OH233645   2.120   6.092   2.882
11235TIP3    H133646   2.102   6.123   2.971
11235TIP3    H233647   2.177   6.158   2.844
11236TIP3   OH233648   3.784   1.443   0.186
11236TIP3    H133649   3.789   1.483   0.273
11236TIP3    H233650   3.691   1.446   0.164
11237TIP3   OH233651   7.882   4.876   2.322
11237TIP3    H133652   7.903   4.910   2.409
11237TIP3    H233653   7.957   4.899   2.268
11238TIP3   OH233654   1.572   0.287   4.450
11238TIP3    H133655   1.569   0.353   4.381
11238TIP3    H233656   1.481   0.277   4.479
11239TIP3   OH233657   4.646   6.455   4.192
11239TIP3    H133658   4.599   6.373   4.204
11239TIP3    H233659   4.659   6.462   4.097
11240TIP3   OH233660   0.427   3.485   3.492
11240TIP3    H133661   0.491   3.414   3.495
11240TIP3    H233662   0.376   3.475   3.572
11241TIP3   OH233663   4.434   6.305   4.327
11241TIP3    H133664   4.440   6.215   4.360
11241TIP3    H233665   4.419   6.294   4.233
11242TIP3   OH233666   7.049   3.474   0.051
11242TIP3    H133667   7.123   3.512   0.003
11242TIP3    H233668   7.090   3.416   0.115
11243TIP3   OH233669   2.506   5.337   4.962
11243TIP3    H133670   2.496   5.282   5.040
11243TIP3    H233671   2.546   5.280   4.898
11244TIP3   OH233672   1.064   6.062   2.849
11244TIP3    H133673   1.025   5.975   2.840
11244TIP3    H233674   1.001   6.121   2.808
11245TIP3   OH233675   2.262   6.737   1.489
11245TIP3    H133676   2.172   6.734   1.457
11245TIP3    H233677   2.254   6.737   1.585
11246TIP3   OH233678   3.457  -0.006   5.236
11246TIP3    H133679   3.367  -0.030   5.215
11246TIP3    H233680   3.496   0.015   5.151
11247TIP3   OH233681   5.965   0.176   6.321
11247TIP3    H133682   5.926   0.262   6.311
11247TIP3    H233683   6.060   0.192   6.319
11248TIP3   OH233684   6.466   2.917   1.255
11248TIP3    H133685   6.414   2.993   1.278
11248TIP3    H233686   6.416   2.873   1.186
11249TIP3   OH233687   2.417   4.779   6.122
11249TIP3    H133688   2.466   4.753   6.045
11249TIP3    H233689   2.358   4.706   6.139
11250TIP3   OH233690   6.700   4.562   1.584
11250TIP3    H133691   6.724   4.600   1.669
11250TIP3    H233692   6.606   4.544   1.592
11251TIP3   OH233693   5.421   1.890   6.100
11251TIP3    H133694   5.418   1.863   6.009
11251TIP3    H233695   5.331   1.878   6.131
11252TIP3   OH233696   2.387   2.809   6.656
11252TIP3    H133697   2.371   2.724   6.614
11252TIP3    H233698   2.340   2.872   6.601
11253TIP3   OH233699   4.373   6.275   2.205
11253TIP3    H133700   4.365   6.183   2.231
11253TIP3    H233701   4.431   6.274   2.129
11254TIP3   OH233702   8.299   5.374   1.122
11254TIP3    H133703   8.250   5.456   1.113
11254TIP3    H233704   8.245   5.319   1.178
11255TIP3   OH233705   7.458   5.275   4.941
11255TIP3    H133706   7.373   5.289   4.981
11255TIP3    H233707   7.440   5.266   4.847
11256TIP3   OH233708   2.321   5.272   1.667
11256TIP3    H133709   2.229   5.264   1.693
11256TIP3    H233710   2.322   5.248   1.574
11257TIP3   OH233711   3.206   2.095   2.982
11257TIP3    H133712   3.179   2.179   2.946
11257TIP3    H233713   3.170   2.093   3.071
11258TIP3   OH233714   5.490   4.934   0.645
11258TIP3    H133715   5.517   4.867   0.708
11258TIP3    H233716   5.571   4.960   0.601
11259TIP3   OH233717   4.923   1.277   3.461
11259TIP3    H133718   4.916   1.321   3.546
11259TIP3    H233719   4.835   1.246   3.443
11260TIP3   OH233720   6.063   6.017   3.984
11260TIP3    H133721   6.143   6.048   3.943
11260TIP3    H233722   6.068   5.921   3.978
11261TIP3   OH233723   1.279   5.051   3.829
11261TIP3    H133724   1.355   5.041   3.887
11261TIP3    H233725   1.205   5.062   3.888
11262TIP3   OH233726   7.420   7.149   5.385
11262TIP3    H133727   7.338   7.137   5.434
11262TIP3    H233728   7.486   7.105   5.437
11263TIP3   OH233729   7.362   7.597   0.347
11263TIP3    H133730   7.284   7.575   0.399
11263TIP3    H233731   7.338   7.572   0.258
11264TIP3   OH233732   6.108   4.509   3.519
11264TIP3    H133733   6.151   4.524   3.434
11264TIP3    H233734   6.025   4.557   3.512
11265TIP3   OH233735   3.001   6.998   2.747
11265TIP3    H133736   2.915   6.996   2.705
11265TIP3    H233737   2.984   6.970   2.837
11266TIP3   OH233738   1.327   4.915   1.682
11266TIP3    H133739   1.412   4.957   1.669
11266TIP3    H233740   1.291   4.956   1.760
11267TIP3   OH233741   4.402   5.658   2.451
11267TIP3    H133742   4.389   5.563   2.440
11267TIP3    H233743   4.399   5.693   2.362
11268TIP3   OH233744   3.306   2.440   3.337
11268TIP3    H133745   3.291   2.534   3.328
11268TIP3    H233746   3.392   2.433   3.378
11269TIP3   OH233747   0.788   4.163   2.792
11269TIP3    H133748   0.787   4.115   2.874
11269TIP3    H233749   0.850   4.234   2.806
11270TIP3   OH233750   5.099   0.523   2.177
11270TIP3    H133751   5.043   0.449   2.198
11270TIP3    H233752   5.176   0.511   2.232
11271TIP3   OH233753   6.486   0.320   2.103
11271TIP3    H133754   6.398   0.355   2.094
11271TIP3    H233755   6.517   0.352   2.188
11272TIP3   OH233756   2.576   4.571   1.649
11272TIP3    H133757   2.616   4.514   1.715
11272TIP3    H233758   2.615   4.543   1.566
11273TIP3   OH233759   3.325   3.151   0.868
11273TIP3    H133760   3.419   3.160   0.856
11273TIP3    H233761   3.315   3.075   0.926
11274TIP3   OH233762   1.578   7.866   6.041
11274TIP3    H133763   1.643   7.876   6.110
11274TIP3    H233764   1.523   7.944   6.048
11275TIP3   OH233765   4.798   6.828   3.082
11275TIP3    H133766   4.824   6.866   2.999
11275TIP3    H233767   4.722   6.774   3.062
11276TIP3   OH233768   5.420   3.001   4.971
11276TIP3    H133769   5.497   2.993   5.027
11276TIP3    H233770   5.401   2.911   4.943
11277TIP3   OH233771   2.688   5.129   5.800
11277TIP3    H133772   2.638   5.057   5.760
11277TIP3    H233773   2.662   5.127   5.892
11278TIP3   OH233774   4.681   0.529   5.629
11278TIP3    H133775   4.745   0.585   5.673
11278TIP3    H233776   4.669   0.570   5.543
11279TIP3   OH233777   3.533   7.111   5.183
11279TIP3    H133778   3.546   7.144   5.272
11279TIP3    H233779   3.613   7.135   5.137
11280TIP3   OH233780   2.095   6.261   5.323
11280TIP3    H133781   2.068   6.203   5.251
11280TIP3    H233782   2.017   6.312   5.344
11281TIP3   OH233783   6.863   2.571   0.923
11281TIP3    H133784   6.833   2.480   0.914
11281TIP3    H233785   6.952   2.570   0.889
11282TIP3   OH233786   7.366   6.431   0.978
11282TIP3    H133787   7.456   6.403   0.995
11282TIP3    H233788   7.313   6.378   1.037
11283TIP3   OH233789   5.374   5.901   5.526
11283TIP3    H133790   5.293   5.851   5.537
11283TIP3    H233791   5.442   5.835   5.516
11284TIP3   OH233792   6.822   6.677   6.827
11284TIP3    H133793   6.757   6.625   6.779
11284TIP3    H233794   6.850   6.620   6.899
11285TIP3   OH233795   6.754   7.390   3.546
11285TIP3    H133796   6.806   7.402   3.466
11285TIP3    H233797   6.678   7.448   3.533
11286TIP3   OH233798   3.307   3.869   2.306
11286TIP3    H133799   3.337   3.827   2.386
11286TIP3    H233800   3.337   3.812   2.235
11287TIP3   OH233801   2.820   6.601   3.868
11287TIP3    H133802   2.788   6.511   3.875
11287TIP3    H233803   2.846   6.611   3.776
11288TIP3   OH233804   5.122   5.517   0.111
11288TIP3    H133805   5.200   5.557   0.150
11288TIP3    H233806   5.130   5.424   0.134
11289TIP3   OH233807   6.584   7.514   0.765
11289TIP3    H133808   6.527   7.525   0.841
11289TIP3    H233809   6.553   7.579   0.702
11290TIP3   OH233810   0.603   3.318   3.645
11290TIP3    H133811   0.616   3.241   3.700
11290TIP3    H233812   0.660   3.385   3.682
11291TIP3   OH233813   2.167   5.856   5.194
11291TIP3    H133814   2.256   5.835   5.222
11291TIP3    H233815   2.123   5.886   5.274
11292TIP3   OH233816   7.123   7.037   2.894
11292TIP3    H133817   7.112   7.097   2.820
11292TIP3    H233818   7.057   7.064   2.957
11293TIP3   OH233819   7.087   5.855   3.824
11293TIP3    H133820   7.008   5.904   3.845
11293TIP3    H233821   7.136   5.912   3.764
11294TIP3   OH233822   0.407   0.892   3.043
11294TIP3    H133823   0.347   0.825   3.077
11294TIP3    H233824   0.493   0.866   3.078
11295TIP3   OH233825   3.710   1.396   3.917
11295TIP3    H133826   3.783   1.392   3.855
11295TIP3    H233827   3.652   1.324   3.890
11296TIP3   OH233828   6.782   5.429   5.583
11296TIP3    H133829   6.825   5.481   5.652
11296TIP3    H233830   6.707   5.390   5.627
11297TIP3   OH233831   7.898   6.264   1.070
11297TIP3    H133832   7.844   6.262   1.149
11297TIP3    H233833   7.856   6.330   1.014
11298TIP3   OH233834   3.387   7.437   5.409
11298TIP3    H133835   3.342   7.404   5.487
11298TIP3    H233836   3.367   7.374   5.340
11299TIP3   OH233837   2.244   2.863   3.279
11299TIP3    H133838   2.275   2.846   3.368
11299TIP3    H233839   2.274   2.788   3.228
11300TIP3   OH233840   4.003   7.134   6.313
11300TIP3    H133841   3.960   7.220   6.305
11300TIP3    H233842   3.931   7.073   6.328
11301TIP3   OH233843   2.586   4.822   6.391
11301TIP3    H133844   2.561   4.738   6.429
11301TIP3    H233845   2.567   4.812   6.298
11302TIP3   OH233846   4.350   7.645   2.030
11302TIP3    H133847   4.309   7.608   1.952
11302TIP3    H233848   4.291   7.716   2.057
11303TIP3   OH233849   0.444   3.933   6.419
11303TIP3    H133850   0.384   3.964   6.352
11303TIP3    H233851   0.413   3.973   6.501
11304TIP3   OH233852   7.408   2.262   0.975
11304TIP3    H133853   7.478   2.327   0.982
11304TIP3    H233854   7.357   2.272   1.055
11305TIP3   OH233855   8.284   1.512   1.109
11305TIP3    H133856   8.320   1.585   1.159
11305TIP3    H233857   8.269   1.443   1.174
11306TIP3   OH233858   2.031   2.381   6.149
11306TIP3    H133859   1.982   2.398   6.230
11306TIP3    H233860   1.964   2.359   6.084
11307TIP3   OH233861   4.058   1.899   2.809
11307TIP3    H133862   4.027   1.849   2.884
11307TIP3    H233863   4.147   1.868   2.795
11308TIP3   OH233864   0.918   2.411   1.457
11308TIP3    H133865   0.859   2.400   1.531
11308TIP3    H233866   0.988   2.467   1.490
11309TIP3   OH233867   7.282   0.236   0.903
11309TIP3    H133868   7.346   0.299   0.938
11309TIP3    H233869   7.301   0.234   0.809
11310TIP3   OH233870   1.237   2.759   3.037
11310TIP3    H133871   1.306   2.825   3.028
11310TIP3    H233872   1.283   2.676   3.041
11311TIP3   OH233873   2.858   7.236   1.654
11311TIP3    H133874   2.848   7.224   1.749
11311TIP3    H233875   2.862   7.147   1.619
11312TIP3   OH233876   8.287   0.128   1.797
11312TIP3    H133877   8.364   0.183   1.810
11312TIP3    H233878   8.318   0.039   1.817
11313TIP3   OH233879   0.307   4.451   2.839
11313TIP3    H133880   0.362   4.528   2.821
11313TIP3    H233881   0.235   4.458   2.776
11314TIP3   OH233882   4.538   1.856   3.233
11314TIP3    H133883   4.460   1.909   3.248
11314TIP3    H233884   4.513   1.768   3.261
11315TIP3   OH233885   1.135   0.866   2.795
11315TIP3    H133886   1.153   0.927   2.724
11315TIP3    H233887   1.045   0.838   2.781
11316TIP3   OH233888  -0.003   6.129   5.111
11316TIP3    H133889   0.059   6.076   5.162
11316TIP3    H233890  -0.014   6.082   5.029
11317TIP3   OH233891   7.632   2.210   6.370
11317TIP3    H133892   7.616   2.126   6.412
11317TIP3    H233893   7.545   2.249   6.362
11318TIP3   OH233894   6.867   4.772   2.998
11318TIP3    H133895   6.943   4.717   2.981
11318TIP3    H233896   6.810   4.759   2.922
11319TIP3   OH233897   0.254   5.806   2.489
11319TIP3    H133898   0.325   5.776   2.431
11319TIP3    H233899   0.198   5.729   2.500
11320TIP3   OH233900   6.399   0.728   5.637
11320TIP3    H133901   6.467   0.704   5.700
11320TIP3    H233902   6.436   0.704   5.552
11321TIP3   OH233903   5.919   0.373   1.282
11321TIP3    H133904   5.941   0.281   1.292
11321TIP3    H233905   5.826   0.374   1.259
11322TIP3   OH233906   7.269   5.850   5.135
11322TIP3    H133907   7.277   5.854   5.040
11322TIP3    H233908   7.345   5.896   5.168
11323TIP3   OH233909   4.160   6.138   2.674
11323TIP3    H133910   4.116   6.214   2.635
11323TIP3    H233911   4.243   6.131   2.627
11324TIP3   OH233912   0.365   1.641   6.409
11324TIP3    H133913   0.293   1.627   6.347
11324TIP3    H233914   0.325   1.627   6.495
11325TIP3   OH233915   1.369   5.207   2.445
11325TIP3    H133916   1.316   5.201   2.525
11325TIP3    H233917   1.444   5.261   2.471
11326TIP3   OH233918   4.074   2.561   4.923
11326TIP3    H133919   4.025   2.478   4.921
11326TIP3    H233920   4.163   2.535   4.946
11327TIP3   OH233921   4.540   1.797   6.692
11327TIP3    H133922   4.574   1.874   6.645
11327TIP3    H233923   4.577   1.723   6.646
11328TIP3   OH233924   3.840   6.300   6.366
11328TIP3    H133925   3.838   6.208   6.342
11328TIP3    H233926   3.767   6.339   6.319
11329TIP3   OH233927   4.753   6.492   2.654
11329TIP3    H133928   4.747   6.579   2.616
11329TIP3    H233929   4.778   6.435   2.581
11330TIP3   OH233930   2.219   7.225   1.170
11330TIP3    H133931   2.279   7.264   1.234
11330TIP3    H233932   2.202   7.137   1.204
11331TIP3   OH233933   0.396   4.385   1.469
11331TIP3    H133934   0.438   4.470   1.481
11331TIP3    H233935   0.311   4.394   1.513
11332TIP3   OH233936   4.775   5.544   6.472
11332TIP3    H133937   4.814   5.627   6.498
11332TIP3    H233938   4.836   5.507   6.408
11333TIP3   OH233939   3.464   0.100   0.810
11333TIP3    H133940   3.369   0.112   0.811
11333TIP3    H233941   3.497   0.165   0.872
11334TIP3   OH233942   2.883   4.304   0.431
11334TIP3    H133943   2.848   4.305   0.520
11334TIP3    H233944   2.954   4.368   0.432
11335TIP3   OH233945   0.436   3.080   4.375
11335TIP3    H133946   0.484   3.156   4.406
11335TIP3    H233947   0.397   3.043   4.454
11336TIP3   OH233948  -0.001   6.068   1.259
11336TIP3    H133949  -0.058   6.044   1.332
11336TIP3    H233950   0.040   6.151   1.286
11337TIP3   OH233951   0.253   2.375   4.262
11337TIP3    H133952   0.172   2.411   4.226
11337TIP3    H233953   0.248   2.393   4.356
11338TIP3   OH233954   5.745   5.284   2.163
11338TIP3    H133955   5.768   5.374   2.138
11338TIP3    H233956   5.822   5.233   2.139
11339TIP3   OH233957   4.106   4.175   5.459
11339TIP3    H133958   4.047   4.230   5.511
11339TIP3    H233959   4.052   4.144   5.386
11340TIP3   OH233960   3.818   6.034   6.611
11340TIP3    H133961   3.870   6.108   6.644
11340TIP3    H233962   3.729   6.052   6.642
11341TIP3   OH233963   8.426   5.456   0.600
11341TIP3    H133964   8.370   5.451   0.522
11341TIP3    H233965   8.403   5.540   0.641
11342TIP3   OH233966   5.353   7.739   4.070
11342TIP3    H133967   5.389   7.765   3.985
11342TIP3    H233968   5.315   7.819   4.106
11343TIP3   OH233969   1.670   7.123   1.514
11343TIP3    H133970   1.621   7.087   1.588
11343TIP3    H233971   1.603   7.155   1.454
11344TIP3   OH233972   6.702   4.559   6.098
11344TIP3    H133973   6.794   4.580   6.115
11344TIP3    H233974   6.702   4.466   6.074
11345TIP3   OH233975   6.324   4.673   6.096
11345TIP3    H133976   6.245   4.712   6.134
11345TIP3    H233977   6.357   4.615   6.165
11346TIP3   OH233978   2.050  -0.012   6.140
11346TIP3    H133979   2.041  -0.038   6.048
11346TIP3    H233980   2.046   0.084   6.138
11347TIP3   OH233981   0.159   2.892   0.949
11347TIP3    H133982   0.067   2.918   0.948
11347TIP3    H233983   0.157   2.796   0.945
11348TIP3   OH233984   7.899   3.484   3.122
11348TIP3    H133985   7.889   3.541   3.047
11348TIP3    H233986   7.831   3.512   3.183
11349TIP3   OH233987   0.221   4.934   3.773
11349TIP3    H133988   0.218   4.971   3.685
11349TIP3    H233989   0.147   4.975   3.819
11350TIP3   OH233990   1.976   5.651   0.741
11350TIP3    H133991   1.927   5.732   0.730
11350TIP3    H233992   1.921   5.584   0.702
11351TIP3   OH233993   6.495   3.323   5.625
11351TIP3    H133994   6.459   3.389   5.684
11351TIP3    H233995   6.440   3.246   5.639
11352TIP3   OH233996   0.872   5.505   6.435
11352TIP3    H133997   0.866   5.578   6.497
11352TIP3    H233998   0.952   5.459   6.461
11353TIP3   OH233999   1.914   1.533   1.046
11353TIP3    H134000   1.837   1.484   1.017
11353TIP3    H234001   1.878   1.606   1.096
11354TIP3   OH234002   5.422   6.250   0.991
11354TIP3    H134003   5.503   6.271   0.944
11354TIP3    H234004   5.397   6.333   1.033
11355TIP3   OH234005   6.483   6.592   0.165
11355TIP3    H134006   6.557   6.653   0.167
11355TIP3    H234007   6.514   6.517   0.115
11356TIP3   OH234008   7.611   1.800   3.516
11356TIP3    H134009   7.539   1.738   3.507
11356TIP3    H234010   7.643   1.813   3.427
11357TIP3   OH234011   7.732   2.958   5.650
11357TIP3    H134012   7.639   2.953   5.671
11357TIP3    H234013   7.737   3.016   5.574
11358TIP3   OH234014   0.535   5.605   2.069
11358TIP3    H134015   0.561   5.607   1.977
11358TIP3    H234016   0.596   5.665   2.113
11359TIP3   OH234017   4.516   5.682   3.867
11359TIP3    H134018   4.462   5.729   3.931
11359TIP3    H234019   4.581   5.636   3.920
11360TIP3   OH234020   0.890   1.244   0.575
11360TIP3    H134021   0.876   1.339   0.573
11360TIP3    H234022   0.983   1.234   0.598
11361TIP3   OH234023   2.230   5.572   0.805
11361TIP3    H134024   2.142   5.603   0.787
11361TIP3    H234025   2.267   5.550   0.720
11362TIP3   OH234026   5.287   5.642   5.346
11362TIP3    H134027   5.245   5.556   5.348
11362TIP3    H234028   5.276   5.672   5.255
11363TIP3   OH234029   8.098   6.721   3.853
11363TIP3    H134030   8.053   6.731   3.937
11363TIP3    H234031   8.028   6.725   3.788
11364TIP3   OH234032   4.363   6.516   3.710
11364TIP3    H134033   4.320   6.450   3.765
11364TIP3    H234034   4.346   6.486   3.620
11365TIP3   OH234035   3.385   2.288   0.724
11365TIP3    H134036   3.421   2.262   0.809
11365TIP3    H234037   3.293   2.262   0.727
11366TIP3   OH234038   2.943   4.699   1.595
11366TIP3    H134039   2.983   4.750   1.666
11366TIP3    H234040   2.871   4.754   1.564
11367TIP3   OH234041   5.562   5.889   2.247
11367TIP3    H134042   5.525   5.812   2.205
11367TIP3    H234043   5.513   5.898   2.329
11368TIP3   OH234044   1.150   1.182   0.621
11368TIP3    H134045   1.138   1.154   0.712
11368TIP3    H234046   1.243   1.168   0.603
11369TIP3   OH234047   1.080   0.492   4.133
11369TIP3    H134048   1.102   0.461   4.045
11369TIP3    H234049   1.142   0.562   4.150
11370TIP3   OH234050   3.405   1.462   5.182
11370TIP3    H134051   3.410   1.523   5.256
11370TIP3    H234052   3.494   1.428   5.173
11371TIP3   OH234053   6.604   4.632   5.856
11371TIP3    H134054   6.567   4.544   5.846
11371TIP3    H234055   6.632   4.637   5.947
11372TIP3   OH234056   6.320   3.625   2.140
11372TIP3    H134057   6.410   3.617   2.173
11372TIP3    H234058   6.329   3.620   2.045
11373TIP3   OH234059   6.847   5.418   3.847
11373TIP3    H134060   6.806   5.408   3.762
11373TIP3    H234061   6.917   5.483   3.833
11374TIP3   OH234062   3.129   7.414   1.401
11374TIP3    H134063   3.223   7.417   1.388
11374TIP3    H234064   3.093   7.391   1.315
11375TIP3   OH234065   2.872   6.162   2.577
11375TIP3    H134066   2.939   6.208   2.626
11375TIP3    H234067   2.915   6.082   2.545
11376TIP3   OH234068   1.344   4.626   5.345
11376TIP3    H134069   1.394   4.652   5.422
11376TIP3    H234070   1.253   4.649   5.366
11377TIP3   OH234071   2.901   4.006   5.904
11377TIP3    H134072   2.859   4.092   5.893
11377TIP3    H234073   2.986   4.025   5.941
11378TIP3   OH234074   3.694   5.472   1.393
11378TIP3    H134075   3.771   5.418   1.375
11378TIP3    H234076   3.633   5.453   1.322
11379TIP3   OH234077   7.798   6.354   3.613
11379TIP3    H134078   7.752   6.295   3.672
11379TIP3    H234079   7.734   6.376   3.545
11380TIP3   OH234080   2.849   1.722   4.968
11380TIP3    H134081   2.934   1.765   4.960
11380TIP3    H234082   2.810   1.761   5.047
11381TIP3   OH234083   4.488   2.545   5.367
11381TIP3    H134084   4.450   2.616   5.420
11381TIP3    H234085   4.557   2.588   5.316
11382TIP3   OH234086   1.969   0.237   0.929
11382TIP3    H134087   2.026   0.295   0.878
11382TIP3    H234088   1.886   0.285   0.935
11383TIP3   OH234089   1.152   1.875   3.802
11383TIP3    H134090   1.060   1.864   3.825
11383TIP3    H234091   1.153   1.872   3.706
11384TIP3   OH234092   7.097   5.596   2.950
11384TIP3    H134093   7.148   5.643   2.883
11384TIP3    H234094   7.163   5.548   3.000
11385TIP3   OH234095   3.198   4.786   3.306
11385TIP3    H134096   3.163   4.739   3.382
11385TIP3    H234097   3.125   4.839   3.275
11386TIP3   OH234098   8.182   1.397   1.965
11386TIP3    H134099   8.154   1.480   1.925
11386TIP3    H234100   8.224   1.424   2.048
11387TIP3   OH234101   2.915   5.789   0.589
11387TIP3    H134102   2.886   5.698   0.577
11387TIP3    H234103   2.961   5.810   0.507
11388TIP3   OH234104   2.189   0.257   2.412
11388TIP3    H134105   2.178   0.246   2.317
11388TIP3    H234106   2.150   0.179   2.450
11389TIP3   OH234107   1.254   7.287   1.682
11389TIP3    H134108   1.332   7.332   1.651
11389TIP3    H234109   1.287   7.210   1.728
11390TIP3   OH234110   0.261   2.274   3.653
11390TIP3    H134111   0.209   2.193   3.651
11390TIP3    H234112   0.223   2.328   3.584
11391TIP3   OH234113   5.531   4.210   5.781
11391TIP3    H134114   5.534   4.190   5.875
11391TIP3    H234115   5.454   4.266   5.772
11392TIP3   OH234116   1.749   3.720   0.704
11392TIP3    H134117   1.785   3.693   0.620
11392TIP3    H234118   1.718   3.638   0.745
11393TIP3   OH234119   4.577   1.431   0.226
11393TIP3    H134120   4.500   1.482   0.253
11393TIP3    H234121   4.582   1.444   0.131
11394TIP3   OH234122   4.572   6.501   3.914
11394TIP3    H134123   4.500   6.499   3.851
11394TIP3    H234124   4.542   6.560   3.983
11395TIP3   OH234125   1.117   7.823   3.443
11395TIP3    H134126   1.059   7.848   3.514
11395TIP3    H234127   1.173   7.899   3.429
11396TIP3   OH234128   2.127   0.935   0.337
11396TIP3    H134129   2.104   0.896   0.253
11396TIP3    H234130   2.158   0.862   0.390
11397TIP3   OH234131   0.614   0.469   0.463
11397TIP3    H134132   0.626   0.563   0.480
11397TIP3    H234133   0.691   0.444   0.413
11398TIP3   OH234134   6.739   4.425   1.930
11398TIP3    H134135   6.758   4.517   1.911
11398TIP3    H234136   6.776   4.410   2.016
11399TIP3   OH234137   4.423   2.887   4.515
11399TIP3    H134138   4.365   2.930   4.577
11399TIP3    H234139   4.448   2.956   4.454
11400TIP3   OH234140   0.783   3.539   4.084
11400TIP3    H134141   0.792   3.510   3.993
11400TIP3    H234142   0.829   3.623   4.087
11401TIP3   OH234143   4.334   5.401   2.814
11401TIP3    H134144   4.252   5.405   2.765
11401TIP3    H234145   4.308   5.413   2.906
11402TIP3   OH234146   2.520   0.053   4.868
11402TIP3    H134147   2.607   0.027   4.839
11402TIP3    H234148   2.502   0.134   4.821
11403TIP3   OH234149   6.535   2.832   2.450
11403TIP3    H134150   6.545   2.892   2.376
11403TIP3    H234151   6.519   2.888   2.525
11404TIP3   OH234152   4.381   0.303   4.769
11404TIP3    H134153   4.317   0.275   4.704
11404TIP3    H234154   4.343   0.277   4.853
11405TIP3   OH234155   1.004   0.269   1.662
11405TIP3    H134156   1.021   0.240   1.572
11405TIP3    H234157   0.968   0.192   1.706
11406TIP3   OH234158   7.203   0.148   4.421
11406TIP3    H134159   7.152   0.181   4.495
11406TIP3    H234160   7.144   0.086   4.378
11407TIP3   OH234161   7.583   6.199   0.221
11407TIP3    H134162   7.515   6.211   0.287
11407TIP3    H234163   7.652   6.150   0.266
11408TIP3   OH234164   6.209   0.924   1.715
11408TIP3    H134165   6.176   1.013   1.721
11408TIP3    H234166   6.222   0.909   1.621
11409TIP3   OH234167   1.271   4.677   4.457
11409TIP3    H134168   1.253   4.584   4.470
11409TIP3    H234169   1.184   4.716   4.442
11410TIP3   OH234170   3.267   4.125   3.305
11410TIP3    H134171   3.221   4.077   3.375
11410TIP3    H234172   3.197   4.155   3.247
11411TIP3   OH234173   3.635   0.398   1.971
11411TIP3    H134174   3.576   0.473   1.972
11411TIP3    H234175   3.717   0.433   1.936
11412TIP3   OH234176   7.557   6.884   6.096
11412TIP3    H134177   7.603   6.912   6.017
11412TIP3    H234178   7.559   6.788   6.092
11413TIP3   OH234179   4.489   6.709   0.852
11413TIP3    H134180   4.523   6.649   0.786
11413TIP3    H234181   4.561   6.770   0.868
11414TIP3   OH234182   3.473   4.330   2.264
11414TIP3    H134183   3.482   4.274   2.341
11414TIP3    H234184   3.537   4.295   2.202
11415TIP3   OH234185   3.040   5.035   4.001
11415TIP3    H134186   3.005   4.953   4.036
11415TIP3    H234187   3.034   5.097   4.074
11416TIP3   OH234188   4.116   1.863   1.063
11416TIP3    H134189   4.030   1.827   1.040
11416TIP3    H234190   4.166   1.788   1.094
11417TIP3   OH234191   4.827   1.467   5.749
11417TIP3    H134192   4.784   1.487   5.666
11417TIP3    H234193   4.768   1.404   5.792
11418TIP3   OH234194   2.983   7.357   4.186
11418TIP3    H134195   3.027   7.428   4.231
11418TIP3    H234196   2.891   7.365   4.213
11419TIP3   OH234197   7.368   0.879   5.230
11419TIP3    H134198   7.308   0.863   5.157
11419TIP3    H234199   7.451   0.903   5.188
11420TIP3   OH234200   8.191   6.949   5.544
11420TIP3    H134201   8.270   6.912   5.504
11420TIP3    H234202   8.120   6.892   5.514
11421TIP3   OH234203   2.442   0.108   4.286
11421TIP3    H134204   2.491   0.092   4.367
11421TIP3    H234205   2.404   0.023   4.264
11422TIP3   OH234206   0.508   4.417   6.446
11422TIP3    H134207   0.550   4.502   6.438
11422TIP3    H234208   0.525   4.389   6.536
11423TIP3   OH234209   2.292   5.951   6.381
11423TIP3    H134210   2.384   5.928   6.370
11423TIP3    H234211   2.249   5.912   6.304
11424TIP3   OH234212   5.659   0.712   1.288
11424TIP3    H134213   5.649   0.632   1.339
11424TIP3    H234214   5.725   0.690   1.222
11425TIP3   OH234215   5.162   0.464   3.247
11425TIP3    H134216   5.109   0.389   3.276
11425TIP3    H234217   5.248   0.426   3.230
11426TIP3   OH234218   1.514   1.901   3.348
11426TIP3    H134219   1.514   1.839   3.421
11426TIP3    H234220   1.427   1.939   3.348
11427TIP3   OH234221   0.336   7.864   0.964
11427TIP3    H134222   0.395   7.792   0.988
11427TIP3    H234223   0.249   7.833   0.990
11428TIP3   OH234224   6.707   2.119   0.112
11428TIP3    H134225   6.761   2.083   0.182
11428TIP3    H234226   6.763   2.185   0.071
11429TIP3   OH234227   7.947   0.922   1.805
11429TIP3    H134228   7.878   0.987   1.794
11429TIP3    H234229   7.967   0.924   1.899
11430TIP3   OH234230   4.806   3.992   3.337
11430TIP3    H134231   4.771   4.034   3.258
11430TIP3    H234232   4.731   3.991   3.398
11431TIP3   OH234233   8.081   5.709   5.992
11431TIP3    H134234   8.163   5.682   6.035
11431TIP3    H234235   8.110   5.752   5.911
11432TIP3   OH234236   3.671   2.766   2.470
11432TIP3    H134237   3.621   2.847   2.474
11432TIP3    H234238   3.715   2.761   2.555
11433TIP3   OH234239   7.369   6.535   6.656
11433TIP3    H134240   7.361   6.623   6.694
11433TIP3    H234241   7.373   6.551   6.562
11434TIP3   OH234242   7.372   7.421   1.642
11434TIP3    H134243   7.339   7.343   1.686
11434TIP3    H234244   7.331   7.418   1.555
11435TIP3   OH234245   7.283   5.676   1.515
11435TIP3    H134246   7.223   5.604   1.495
11435TIP3    H234247   7.369   5.644   1.486
11436TIP3   OH234248   6.584   0.090   1.931
11436TIP3    H134249   6.572   0.183   1.953
11436TIP3    H234250   6.661   0.089   1.875
11437TIP3   OH234251   2.365   2.162   5.282
11437TIP3    H134252   2.458   2.137   5.276
11437TIP3    H234253   2.346   2.203   5.198
11438TIP3   OH234254   3.455   4.201   2.999
11438TIP3    H134255   3.383   4.256   3.030
11438TIP3    H234256   3.503   4.256   2.937
11439TIP3   OH234257   2.650   3.248   3.077
11439TIP3    H134258   2.600   3.328   3.058
11439TIP3    H234259   2.624   3.224   3.166
11440TIP3   OH234260   0.252   3.754   2.720
11440TIP3    H134261   0.340   3.790   2.726
11440TIP3    H234262   0.264   3.659   2.725
11441TIP3   OH234263   5.288   4.027   4.137
11441TIP3    H134264   5.365   4.056   4.187
11441TIP3    H234265   5.324   3.991   4.056
11442TIP3   OH234266   6.402   4.374   4.438
11442TIP3    H134267   6.488   4.413   4.449
11442TIP3    H234268   6.409   4.322   4.358
11443TIP3   OH234269   4.302   2.564   2.124
11443TIP3    H134270   4.270   2.595   2.209
11443TIP3    H234271   4.235   2.593   2.062
11444TIP3   OH234272   6.490   3.592   4.203
11444TIP3    H134273   6.456   3.681   4.196
11444TIP3    H234274   6.445   3.555   4.279
11445TIP3   OH234275   6.676   5.078   2.903
11445TIP3    H134276   6.618   5.016   2.947
11445TIP3    H234277   6.625   5.108   2.827
11446TIP3   OH234278   7.612   3.938   1.074
11446TIP3    H134279   7.547   4.007   1.092
11446TIP3    H234280   7.569   3.880   1.012
11447TIP3   OH234281   1.831   4.784   0.632
11447TIP3    H134282   1.743   4.765   0.599
11447TIP3    H234283   1.816   4.834   0.712
11448TIP3   OH234284   5.659   7.639   5.155
11448TIP3    H134285   5.667   7.586   5.234
11448TIP3    H234286   5.600   7.588   5.098
11449TIP3   OH234287   7.872   0.254   4.864
11449TIP3    H134288   7.846   0.200   4.938
11449TIP3    H234289   7.883   0.192   4.792
11450TIP3   OH234290   3.623   5.533   2.437
11450TIP3    H134291   3.718   5.517   2.442
11450TIP3    H234292   3.588   5.455   2.393
11451TIP3   OH234293   8.040   2.961   0.605
11451TIP3    H134294   8.083   2.883   0.641
11451TIP3    H234295   8.105   3.000   0.547
11452TIP3   OH234296   6.347   5.838   1.050
11452TIP3    H134297   6.285   5.790   0.996
11452TIP3    H234298   6.385   5.903   0.990
11453TIP3   OH234299   8.160   5.070   3.334
11453TIP3    H134300   8.080   5.022   3.314
11453TIP3    H234301   8.227   5.028   3.280
11454TIP3   OH234302   2.912   0.624   6.102
11454TIP3    H134303   2.915   0.700   6.160
11454TIP3    H234304   2.937   0.551   6.158
11455TIP3   OH234305   5.264   6.000   6.033
11455TIP3    H134306   5.319   6.074   6.007
11455TIP3    H234307   5.214   6.032   6.108
11456TIP3   OH234308   4.273   2.637   3.743
11456TIP3    H134309   4.293   2.579   3.670
11456TIP3    H234310   4.353   2.641   3.795
11457TIP3   OH234311   1.846   3.952   4.355
11457TIP3    H134312   1.768   3.897   4.355
11457TIP3    H234313   1.918   3.891   4.337
11458TIP3   OH234314   0.583   4.917   4.935
11458TIP3    H134315   0.510   4.926   4.873
11458TIP3    H234316   0.661   4.934   4.883
11459TIP3   OH234317   2.052   3.738   3.870
11459TIP3    H134318   2.042   3.830   3.891
11459TIP3    H234319   2.002   3.692   3.937
11460TIP3   OH234320   5.604   6.560   5.317
11460TIP3    H134321   5.592   6.515   5.401
11460TIP3    H234322   5.523   6.609   5.304
11461TIP3   OH234323   4.502   0.042   4.292
11461TIP3    H134324   4.486   0.081   4.378
11461TIP3    H234325   4.512   0.117   4.233
11462TIP3   OH234326   0.587   3.687   0.907
11462TIP3    H134327   0.632   3.771   0.915
11462TIP3    H234328   0.498   3.704   0.937
11463TIP3   OH234329   7.522   2.767   2.306
11463TIP3    H134330   7.528   2.758   2.211
11463TIP3    H234331   7.548   2.858   2.323
11464TIP3   OH234332   1.364   5.272   3.705
11464TIP3    H134333   1.371   5.256   3.611
11464TIP3    H234334   1.317   5.197   3.739
11465TIP3   OH234335   4.969   4.259   4.965
11465TIP3    H134336   5.029   4.187   4.945
11465TIP3    H234337   4.976   4.269   5.060
11466TIP3   OH234338   6.896   0.110   1.854
11466TIP3    H134339   6.970   0.122   1.913
11466TIP3    H234340   6.922   0.037   1.797
11467TIP3   OH234341   3.964   1.883   0.799
11467TIP3    H134342   3.911   1.957   0.828
11467TIP3    H234343   3.918   1.849   0.722
11468TIP3   OH234344   6.851   3.654   6.781
11468TIP3    H134345   6.809   3.737   6.804
11468TIP3    H234346   6.925   3.646   6.841
11469TIP3   OH234347   1.420   0.849   2.529
11469TIP3    H134348   1.358   0.878   2.461
11469TIP3    H234349   1.506   0.861   2.490
11470TIP3   OH234350   4.347   6.944   6.151
11470TIP3    H134351   4.304   7.013   6.100
11470TIP3    H234352   4.282   6.874   6.155
11471TIP3   OH234353   1.147   5.051   4.275
11471TIP3    H134354   1.070   5.026   4.225
11471TIP3    H234355   1.177   4.969   4.315
11472TIP3   OH234356   5.480   3.367   0.514
11472TIP3    H134357   5.540   3.369   0.589
11472TIP3    H234358   5.393   3.378   0.553
11473TIP3   OH234359   4.508   6.044   4.719
11473TIP3    H134360   4.563   6.002   4.653
11473TIP3    H234361   4.534   6.136   4.716
11474TIP3   OH234362   8.089   3.612   5.905
11474TIP3    H134363   8.017   3.579   5.958
11474TIP3    H234364   8.167   3.567   5.938
11475TIP3   OH234365   4.670   5.543   0.229
11475TIP3    H134366   4.675   5.481   0.156
11475TIP3    H234367   4.732   5.509   0.294
11476TIP3   OH234368   6.002   7.590   1.237
11476TIP3    H134369   6.049   7.669   1.211
11476TIP3    H234370   6.071   7.529   1.263
11477TIP3   OH234371   4.880   6.763   1.023
11477TIP3    H134372   4.867   6.683   1.075
11477TIP3    H234373   4.818   6.755   0.951
11478TIP3   OH234374   4.881   2.156   0.511
11478TIP3    H134375   4.842   2.211   0.579
11478TIP3    H234376   4.820   2.082   0.502
11479TIP3   OH234377   4.571   7.528   0.049
11479TIP3    H134378   4.516   7.599   0.016
11479TIP3    H234379   4.554   7.527   0.144
11480TIP3   OH234380   1.848   3.656   0.114
11480TIP3    H134381   1.761   3.649   0.075
11480TIP3    H234382   1.892   3.575   0.089
11481TIP3   OH234383   6.866   7.829   1.479
11481TIP3    H134384   6.937   7.887   1.452
11481TIP3    H234385   6.840   7.784   1.398
11482TIP3   OH234386   1.575   0.100   3.163
11482TIP3    H134387   1.611   0.162   3.227
11482TIP3    H234388   1.647   0.084   3.102
11483TIP3   OH234389   1.701   2.728   2.750
11483TIP3    H134390   1.672   2.703   2.838
11483TIP3    H234391   1.701   2.824   2.752
11484TIP3   OH234392   5.858   7.605   3.202
11484TIP3    H134393   5.805   7.647   3.134
11484TIP3    H234394   5.797   7.593   3.275
11485TIP3   OH234395   0.383   2.102   5.194
11485TIP3    H134396   0.393   2.193   5.166
11485TIP3    H234397   0.401   2.051   5.114
11486TIP3   OH234398   0.780   0.910   5.292
11486TIP3    H134399   0.836   0.842   5.253
11486TIP3    H234400   0.832   0.990   5.288
11487TIP3   OH234401   8.235   7.321   6.165
11487TIP3    H134402   8.163   7.383   6.174
11487TIP3    H234403   8.251   7.316   6.070
11488TIP3   OH234404   2.911   2.949   3.201
11488TIP3    H134405   2.819   2.972   3.202
11488TIP3    H234406   2.956   3.030   3.176
11489TIP3   OH234407   4.390   0.683   6.415
11489TIP3    H134408   4.303   0.675   6.452
11489TIP3    H234409   4.447   0.698   6.490
11490TIP3   OH234410   1.923   4.420   4.773
11490TIP3    H134411   1.885   4.501   4.739
11490TIP3    H234412   2.000   4.405   4.718
11491TIP3   OH234413   4.713   4.561   4.771
11491TIP3    H134414   4.801   4.552   4.809
11491TIP3    H234415   4.662   4.603   4.840
11492TIP3   OH234416   8.048   3.102   5.553
11492TIP3    H134417   7.970   3.131   5.506
11492TIP3    H234418   8.062   3.168   5.621
11493TIP3   OH234419   7.442   2.860   4.253
11493TIP3    H134420   7.479   2.781   4.213
11493TIP3    H234421   7.487   2.868   4.337
11494TIP3   OH234422   6.867   4.135   0.580
11494TIP3    H134423   6.818   4.211   0.610
11494TIP3    H234424   6.917   4.167   0.505
11495TIP3   OH234425   5.080   2.622   0.745
11495TIP3    H134426   5.017   2.641   0.676
11495TIP3    H234427   5.127   2.544   0.715
11496TIP3   OH234428   2.225   6.829   4.382
11496TIP3    H134429   2.273   6.850   4.302
11496TIP3    H234430   2.267   6.882   4.449
11497TIP3   OH234431   8.388   7.620   3.425
11497TIP3    H134432   8.349   7.701   3.392
11497TIP3    H234433   8.395   7.634   3.519
11498TIP3   OH234434   0.453   4.140   1.577
11498TIP3    H134435   0.407   4.113   1.498
11498TIP3    H234436   0.456   4.236   1.571
11499TIP3   OH234437   0.248   6.893   1.218
11499TIP3    H134438   0.164   6.847   1.215
11499TIP3    H234439   0.262   6.910   1.311
11500TIP3   OH234440   8.022   1.734   4.587
11500TIP3    H134441   8.052   1.643   4.594
11500TIP3    H234442   8.009   1.748   4.493
11501TIP3   OH234443   6.405   6.509   5.083
11501TIP3    H134444   6.339   6.440   5.076
11501TIP3    H234445   6.371   6.581   5.031
11502TIP3   OH234446   1.003   5.961   5.187
11502TIP3    H134447   1.000   6.053   5.212
11502TIP3    H234448   1.065   5.958   5.114
11503TIP3   OH234449   6.810   2.828   5.707
11503TIP3    H134450   6.886   2.811   5.651
11503TIP3    H234451   6.805   2.923   5.712
11504TIP3   OH234452   6.532   0.151   5.868
11504TIP3    H134453   6.611   0.123   5.823
11504TIP3    H234454   6.477   0.073   5.870
11505TIP3   OH234455   3.509   2.791   0.372
11505TIP3    H134456   3.462   2.736   0.434
11505TIP3    H234457   3.445   2.809   0.303
11506TIP3   OH234458   0.672   5.899   2.593
11506TIP3    H134459   0.671   5.809   2.560
11506TIP3    H234460   0.720   5.948   2.527
11507TIP3   OH234461   5.850   0.155   3.807
11507TIP3    H134462   5.807   0.196   3.732
11507TIP3    H234463   5.786   0.093   3.841
11508TIP3   OH234464   0.097   4.721   1.444
11508TIP3    H134465   0.050   4.651   1.491
11508TIP3    H234466   0.160   4.755   1.508
11509TIP3   OH234467   8.358   4.459   6.835
11509TIP3    H134468   8.356   4.436   6.742
11509TIP3    H234469   8.378   4.376   6.879
11510TIP3   OH234470   1.445   0.845   0.835
11510TIP3    H134471   1.439   0.926   0.784
11510TIP3    H234472   1.355   0.814   0.841
11511TIP3   OH234473   6.529   2.890   2.717
11511TIP3    H134474   6.565   2.971   2.681
11511TIP3    H234475   6.464   2.920   2.781
11512TIP3   OH234476   2.593   7.827   2.799
11512TIP3    H134477   2.593   7.913   2.840
11512TIP3    H234478   2.685   7.811   2.777
11513TIP3   OH234479   3.096   4.584   5.374
11513TIP3    H134480   3.078   4.513   5.435
11513TIP3    H234481   3.030   4.575   5.305
11514TIP3   OH234482   1.941   4.258   1.986
11514TIP3    H134483   2.016   4.318   1.986
11514TIP3    H234484   1.891   4.282   2.064
11515TIP3   OH234485   1.056   4.706   2.660
11515TIP3    H134486   1.016   4.756   2.588
11515TIP3    H234487   1.137   4.672   2.623
11516TIP3   OH234488   6.880   7.221   1.145
11516TIP3    H134489   6.974   7.215   1.126
11516TIP3    H234490   6.837   7.188   1.066
11517TIP3   OH234491   5.139   2.830   3.528
11517TIP3    H134492   5.059   2.882   3.536
11517TIP3    H234493   5.108   2.743   3.504
11518TIP3   OH234494   7.400   3.686   6.696
11518TIP3    H134495   7.326   3.628   6.719
11518TIP3    H234496   7.436   3.713   6.781
11519TIP3   OH234497   4.064   6.920   4.117
11519TIP3    H134498   4.005   6.859   4.072
11519TIP3    H234499   4.139   6.866   4.140
11520TIP3   OH234500   6.070   6.378   2.683
11520TIP3    H134501   6.016   6.371   2.761
11520TIP3    H234502   6.038   6.308   2.625
11521TIP3   OH234503   5.699   2.207   5.060
11521TIP3    H134504   5.793   2.215   5.048
11521TIP3    H234505   5.668   2.297   5.072
11522TIP3   OH234506   6.982   6.346   2.559
11522TIP3    H134507   6.895   6.361   2.523
11522TIP3    H234508   7.035   6.418   2.524
11523TIP3   OH234509   1.119   0.916   1.516
11523TIP3    H134510   1.140   0.983   1.582
11523TIP3    H234511   1.201   0.902   1.469
11524TIP3   OH234512   4.951   5.960   2.717
11524TIP3    H134513   4.862   5.994   2.719
11524TIP3    H234514   4.947   5.885   2.658
11525TIP3   OH234515   1.960   4.037   1.519
11525TIP3    H134516   1.874   4.013   1.555
11525TIP3    H234517   1.944   4.051   1.426
11526TIP3   OH234518   5.299   6.693   1.906
11526TIP3    H134519   5.378   6.666   1.859
11526TIP3    H234520   5.238   6.620   1.896
11527TIP3   OH234521   8.288   0.322   6.154
11527TIP3    H134522   8.329   0.386   6.212
11527TIP3    H234523   8.271   0.369   6.073
11528TIP3   OH234524   5.020   3.951   5.163
11528TIP3    H134525   5.108   3.986   5.147
11528TIP3    H234526   5.010   3.883   5.096
11529TIP3   OH234527   3.033   0.734   3.994
11529TIP3    H134528   3.014   0.816   3.949
11529TIP3    H234529   3.129   0.728   3.993
11530TIP3   OH234530   4.820   6.522   2.215
11530TIP3    H134531   4.743   6.577   2.230
11530TIP3    H234532   4.884   6.580   2.175
11531TIP3   OH234533   3.071   0.378   2.525
11531TIP3    H134534   3.045   0.441   2.592
11531TIP3    H234535   3.154   0.342   2.556
11532TIP3   OH234536   5.227   4.741   4.028
11532TIP3    H134537   5.201   4.767   4.116
11532TIP3    H234538   5.322   4.730   4.033
11533TIP3   OH234539   1.146   1.837   1.758
11533TIP3    H134540   1.076   1.868   1.700
11533TIP3    H234541   1.115   1.857   1.846
11534TIP3   OH234542   1.727   3.044   2.507
11534TIP3    H134543   1.680   3.127   2.506
11534TIP3    H234544   1.747   3.026   2.415
11535TIP3   OH234545   5.629   2.100   4.560
11535TIP3    H134546   5.696   2.031   4.565
11535TIP3    H234547   5.557   2.059   4.512
11536TIP3   OH234548   1.435   3.575   6.443
11536TIP3    H134549   1.352   3.584   6.490
11536TIP3    H234550   1.427   3.635   6.369
11537TIP3   OH234551   7.625   0.718   1.832
11537TIP3    H134552   7.623   0.711   1.737
11537TIP3    H234553   7.574   0.796   1.852
11538TIP3   OH234554   6.879   6.647   3.356
11538TIP3    H134555   6.798   6.608   3.389
11538TIP3    H234556   6.862   6.741   3.357
11539TIP3   OH234557   4.537   4.522   5.498
11539TIP3    H134558   4.458   4.569   5.472
11539TIP3    H234559   4.592   4.522   5.419
11540TIP3   OH234560   3.574   2.033   1.271
11540TIP3    H134561   3.526   1.953   1.251
11540TIP3    H234562   3.651   2.003   1.320
11541TIP3   OH234563   6.932   6.106   1.696
11541TIP3    H134564   6.968   6.179   1.645
11541TIP3    H234565   6.915   6.037   1.631
11542TIP3   OH234566   1.843   1.771   6.733
11542TIP3    H134567   1.825   1.727   6.816
11542TIP3    H234568   1.759   1.811   6.709
11543TIP3   OH234569   1.114   3.207   1.375
11543TIP3    H134570   1.125   3.112   1.369
11543TIP3    H234571   1.126   3.238   1.285
11544TIP3   OH234572   7.155   3.014   4.444
11544TIP3    H134573   7.232   3.022   4.500
11544TIP3    H234574   7.154   3.095   4.393
11545TIP3   OH234575   7.721   2.569   2.326
11545TIP3    H134576   7.664   2.645   2.339
11545TIP3    H234577   7.704   2.542   2.236
11546TIP3   OH234578   2.028   7.605   2.554
11546TIP3    H134579   1.986   7.562   2.480
11546TIP3    H234580   1.988   7.565   2.632
11547TIP3   OH234581   7.940   1.690   3.417
11547TIP3    H134582   7.899   1.772   3.390
11547TIP3    H234583   8.011   1.716   3.476
11548TIP3   OH234584   0.792   3.433   6.307
11548TIP3    H134585   0.828   3.513   6.345
11548TIP3    H234586   0.711   3.462   6.264
11549TIP3   OH234587   0.482   7.868   5.525
11549TIP3    H134588   0.560   7.875   5.470
11549TIP3    H234589   0.416   7.921   5.480
11550TIP3   OH234590   2.202   0.887   3.343
11550TIP3    H134591   2.144   0.831   3.292
11550TIP3    H234592   2.185   0.862   3.434
11551TIP3   OH234593   4.497   2.656   4.367
11551TIP3    H134594   4.463   2.735   4.408
11551TIP3    H234595   4.420   2.611   4.332
11552TIP3   OH234596   7.778   3.589   2.876
11552TIP3    H134597   7.697   3.612   2.831
11552TIP3    H234598   7.841   3.656   2.849
11553TIP3   OH234599   7.215   4.191   6.493
11553TIP3    H134600   7.142   4.133   6.512
11553TIP3    H234601   7.182   4.278   6.515
11554TIP3   OH234602   2.564   2.382   4.017
11554TIP3    H134603   2.624   2.455   4.011
11554TIP3    H234604   2.598   2.317   3.956
11555TIP3   OH234605   6.751   4.433   5.305
11555TIP3    H134606   6.808   4.382   5.362
11555TIP3    H234607   6.794   4.518   5.297
11556TIP3   OH234608   3.707   7.229   4.163
11556TIP3    H134609   3.771   7.271   4.105
11556TIP3    H234610   3.625   7.234   4.114
11557TIP3   OH234611   5.710   6.784   0.661
11557TIP3    H134612   5.695   6.827   0.577
11557TIP3    H234613   5.676   6.846   0.726
11558TIP3   OH234614   1.078   4.336   0.324
11558TIP3    H134615   1.075   4.404   0.391
11558TIP3    H234616   0.988   4.327   0.295
11559TIP3   OH234617   0.454   7.754   2.108
11559TIP3    H134618   0.540   7.795   2.116
11559TIP3    H234619   0.395   7.826   2.086
11560TIP3   OH234620   3.183   7.172   0.041
11560TIP3    H134621   3.197   7.148   0.133
11560TIP3    H234622   3.162   7.265   0.044
11561TIP3   OH234623   7.223   2.612   4.985
11561TIP3    H134624   7.156   2.548   4.961
11561TIP3    H234625   7.306   2.565   4.979
11562TIP3   OH234626   0.185   1.289   4.990
11562TIP3    H134627   0.133   1.211   5.011
11562TIP3    H234628   0.122   1.360   4.987
11563TIP3   OH234629   7.948   7.489   2.251
11563TIP3    H134630   7.887   7.444   2.309
11563TIP3    H234631   7.983   7.561   2.304
11564TIP3   OH234632   7.712   7.458   3.956
11564TIP3    H134633   7.655   7.397   3.909
11564TIP3    H234634   7.798   7.446   3.916
11565TIP3   OH234635   2.203   3.770   1.738
11565TIP3    H134636   2.207   3.675   1.739
11565TIP3    H234637   2.136   3.792   1.802
11566TIP3   OH234638   1.677   4.153   0.844
11566TIP3    H134639   1.622   4.231   0.855
11566TIP3    H234640   1.759   4.186   0.807
11567TIP3   OH234641   3.957   4.207   3.551
11567TIP3    H134642   3.874   4.241   3.584
11567TIP3    H234643   3.956   4.228   3.458
11568TIP3   OH234644   6.565   4.111   5.998
11568TIP3    H134645   6.565   4.031   6.049
11568TIP3    H234646   6.480   4.113   5.955
11569TIP3   OH234647   2.055   7.875   3.352
11569TIP3    H134648   2.010   7.797   3.320
11569TIP3    H234649   2.012   7.948   3.307
11570TIP3   OH234650   5.690   6.815   3.307
11570TIP3    H134651   5.635   6.893   3.321
11570TIP3    H234652   5.648   6.768   3.235
11571TIP3   OH234653   5.996   7.752   3.649
11571TIP3    H134654   5.998   7.773   3.555
11571TIP3    H234655   6.036   7.828   3.691
11572TIP3   OH234656   0.130   2.028   3.792
11572TIP3    H134657   0.054   1.972   3.774
11572TIP3    H234658   0.092   2.108   3.828
11573TIP3   OH234659   4.011   5.231   0.200
11573TIP3    H134660   4.030   5.182   0.120
11573TIP3    H234661   3.958   5.171   0.253
11574TIP3   OH234662   7.478   4.334   0.678
11574TIP3    H134663   7.525   4.252   0.667
11574TIP3    H234664   7.533   4.399   0.635
11575TIP3   OH234665   6.470   4.394   5.838
11575TIP3    H134666   6.415   4.342   5.896
11575TIP3    H234667   6.425   4.391   5.754
11576TIP3   OH234668   4.742   6.726   5.767
11576TIP3    H134669   4.662   6.702   5.721
11576TIP3    H234670   4.774   6.804   5.721
11577TIP3   OH234671   8.204   4.096   4.783
11577TIP3    H134672   8.297   4.088   4.803
11577TIP3    H234673   8.201   4.147   4.701
11578TIP3   OH234674   2.009   3.275   4.650
11578TIP3    H134675   2.019   3.233   4.735
11578TIP3    H234676   1.915   3.274   4.633
11579TIP3   OH234677   0.405   1.628   3.637
11579TIP3    H134678   0.473   1.666   3.581
11579TIP3    H234679   0.424   1.661   3.725
11580TIP3   OH234680   5.445   6.361   4.386
11580TIP3    H134681   5.517   6.302   4.363
11580TIP3    H234682   5.366   6.308   4.378
11581TIP3   OH234683   1.420   5.907   1.001
11581TIP3    H134684   1.486   5.937   1.064
11581TIP3    H234685   1.362   5.852   1.052
11582TIP3   OH234686   6.203   0.588   5.754
11582TIP3    H134687   6.135   0.554   5.696
11582TIP3    H234688   6.261   0.637   5.696
11583TIP3   OH234689   4.832   0.741   0.436
11583TIP3    H134690   4.853   0.707   0.523
11583TIP3    H234691   4.894   0.813   0.423
11584TIP3   OH234692   6.352   3.769   6.122
11584TIP3    H134693   6.427   3.719   6.155
11584TIP3    H234694   6.308   3.800   6.201
11585TIP3   OH234695   1.775   2.527   5.386
11585TIP3    H134696   1.772   2.588   5.313
11585TIP3    H234697   1.704   2.465   5.368
11586TIP3   OH234698   2.520   1.703   2.432
11586TIP3    H134699   2.540   1.671   2.520
11586TIP3    H234700   2.452   1.769   2.445
11587TIP3   OH234701   1.914   0.507   6.508
11587TIP3    H134702   1.899   0.420   6.546
11587TIP3    H234703   2.006   0.526   6.526
11588TIP3   OH234704   7.353   1.916   1.576
11588TIP3    H134705   7.434   1.867   1.566
11588TIP3    H234706   7.360   1.956   1.663
11589TIP3   OH234707   4.511   4.757   0.633
11589TIP3    H134708   4.593   4.797   0.661
11589TIP3    H234709   4.508   4.770   0.538
11590TIP3   OH234710   2.172   3.426   3.778
11590TIP3    H134711   2.142   3.396   3.864
11590TIP3    H234712   2.250   3.478   3.797
11591TIP3   OH234713   6.080   3.223   4.443
11591TIP3    H134714   6.146   3.197   4.507
11591TIP3    H234715   6.053   3.311   4.469
11592TIP3   OH234716   2.064   3.936   6.782
11592TIP3    H134717   2.124   3.868   6.751
11592TIP3    H234718   2.121   3.998   6.829
11593TIP3   OH234719   1.297   2.807   5.871
11593TIP3    H134720   1.240   2.790   5.946
11593TIP3    H234721   1.244   2.784   5.795
11594TIP3   OH234722   3.700   3.314   1.152
11594TIP3    H134723   3.714   3.309   1.058
11594TIP3    H234724   3.739   3.234   1.186
11595TIP3   OH234725   0.314   2.690   2.544
11595TIP3    H134726   0.304   2.700   2.449
11595TIP3    H234727   0.257   2.758   2.581
11596TIP3   OH234728   5.366   5.567   6.638
11596TIP3    H134729   5.410   5.529   6.562
11596TIP3    H234730   5.273   5.561   6.617
11597TIP3   OH234731   5.667   2.069   6.402
11597TIP3    H134732   5.616   1.995   6.436
11597TIP3    H234733   5.601   2.137   6.385
11598TIP3   OH234734   0.703   3.901   6.301
11598TIP3    H134735   0.712   3.953   6.220
11598TIP3    H234736   0.615   3.921   6.332
11599TIP3   OH234737   4.548   3.314   2.855
11599TIP3    H134738   4.587   3.394   2.891
11599TIP3    H234739   4.508   3.341   2.772
11600TIP3   OH234740   2.697   6.721   0.762
11600TIP3    H134741   2.749   6.643   0.779
11600TIP3    H234742   2.625   6.691   0.707
11601TIP3   OH234743   2.677   1.427   1.132
11601TIP3    H134744   2.680   1.503   1.190
11601TIP3    H234745   2.586   1.396   1.138
11602TIP3   OH234746   7.757   2.759   4.052
11602TIP3    H134747   7.743   2.838   4.001
11602TIP3    H234748   7.792   2.696   3.989
11603TIP3   OH234749   0.747   4.525   3.056
11603TIP3    H134750   0.773   4.433   3.063
11603TIP3    H234751   0.652   4.524   3.060
11604TIP3   OH234752   1.331   7.087   6.685
11604TIP3    H134753   1.393   7.120   6.750
11604TIP3    H234754   1.378   7.017   6.640
11605TIP3   OH234755   5.358   4.946   1.365
11605TIP3    H134756   5.388   5.036   1.374
11605TIP3    H234757   5.262   4.954   1.364
11606TIP3   OH234758   2.853   5.712   1.656
11606TIP3    H134759   2.822   5.797   1.623
11606TIP3    H234760   2.908   5.734   1.731
11607TIP3   OH234761   5.569   3.127   2.590
11607TIP3    H134762   5.571   3.075   2.670
11607TIP3    H234763   5.611   3.071   2.524
11608TIP3   OH234764   0.812   1.425   1.161
11608TIP3    H134765   0.886   1.474   1.195
11608TIP3    H234766   0.740   1.447   1.220
11609TIP3   OH234767   7.582   6.667   4.472
11609TIP3    H134768   7.670   6.662   4.435
11609TIP3    H234769   7.525   6.687   4.397
11610TIP3   OH234770   1.937   5.088   1.017
11610TIP3    H134771   1.957   5.050   1.103
11610TIP3    H234772   2.012   5.143   0.996
11611TIP3   OH234773   5.481   2.587   6.638
11611TIP3    H134774   5.463   2.505   6.684
11611TIP3    H234775   5.463   2.567   6.546
11612TIP3   OH234776   8.312   1.321   3.661
11612TIP3    H134777   8.362   1.396   3.628
11612TIP3    H234778   8.370   1.246   3.649
11613TIP3   OH234779   4.176   2.607   2.371
11613TIP3    H134780   4.085   2.582   2.357
11613TIP3    H234781   4.171   2.679   2.434
11614TIP3   OH234782   5.113   0.185   3.876
11614TIP3    H134783   5.134   0.096   3.847
11614TIP3    H234784   5.196   0.232   3.871
11615TIP3   OH234785   1.070   7.846   2.234
11615TIP3    H134786   1.006   7.795   2.185
11615TIP3    H234787   1.064   7.934   2.198
11616TIP3   OH234788   4.857   1.181   5.057
11616TIP3    H134789   4.795   1.107   5.059
11616TIP3    H234790   4.855   1.211   4.966
11617TIP3   OH234791   1.911   7.568   5.359
11617TIP3    H134792   1.994   7.535   5.325
11617TIP3    H234793   1.891   7.644   5.304
11618TIP3   OH234794   4.962   3.290   0.765
11618TIP3    H134795   4.984   3.277   0.673
11618TIP3    H234796   4.963   3.202   0.802
11619TIP3   OH234797   7.430   1.054   0.098
11619TIP3    H134798   7.394   1.058   0.009
11619TIP3    H234799   7.524   1.047   0.085
11620TIP3   OH234800   3.704   2.620   6.484
11620TIP3    H134801   3.762   2.684   6.527
11620TIP3    H234802   3.716   2.540   6.535
11621TIP3   OH234803   5.126   5.890   3.294
11621TIP3    H134804   5.086   5.977   3.289
11621TIP3    H234805   5.076   5.845   3.362
11622TIP3   OH234806   0.085   0.247   1.987
11622TIP3    H134807   0.092   0.340   1.965
11622TIP3    H234808   0.031   0.246   2.066
11623TIP3   OH234809   4.719   5.498   3.967
11623TIP3    H134810   4.658   5.461   4.031
11623TIP3    H234811   4.717   5.436   3.893
11624TIP3   OH234812   5.590   7.651   2.803
11624TIP3    H134813   5.666   7.617   2.756
11624TIP3    H234814   5.626   7.695   2.880
11625TIP3   OH234815   7.296   1.553   5.128
11625TIP3    H134816   7.204   1.577   5.136
11625TIP3    H234817   7.329   1.553   5.218
11626TIP3   OH234818   0.041   5.972   1.006
11626TIP3    H134819   0.064   6.031   0.935
11626TIP3    H234820   0.034   6.029   1.083
11627TIP3   OH234821   5.037   0.595   6.635
11627TIP3    H134822   5.058   0.541   6.711
11627TIP3    H234823   5.106   0.662   6.633
11628TIP3   OH234824   2.360   4.147   2.624
11628TIP3    H134825   2.348   4.053   2.642
11628TIP3    H234826   2.418   4.149   2.547
11629TIP3   OH234827   2.624   0.611   0.210
11629TIP3    H134828   2.656   0.618   0.120
11629TIP3    H234829   2.534   0.645   0.206
11630TIP3   OH234830   5.983   3.923   3.157
11630TIP3    H134831   6.061   3.899   3.207
11630TIP3    H234832   5.982   3.861   3.084
11631TIP3   OH234833   7.461   2.594   0.835
11631TIP3    H134834   7.453   2.514   0.784
11631TIP3    H234835   7.463   2.664   0.770
11632TIP3   OH234836   3.364   2.795   2.552
11632TIP3    H134837   3.392   2.773   2.641
11632TIP3    H234838   3.386   2.717   2.501
11633TIP3   OH234839   0.628   7.449   2.668
11633TIP3    H134840   0.611   7.432   2.760
11633TIP3    H234841   0.654   7.363   2.633
11634TIP3   OH234842   5.019   2.756   3.801
11634TIP3    H134843   4.991   2.831   3.748
11634TIP3    H234844   5.090   2.716   3.751
11635TIP3   OH234845   0.485   5.815   5.707
11635TIP3    H134846   0.502   5.880   5.639
11635TIP3    H234847   0.489   5.865   5.789
11636TIP3   OH234848   4.114   3.906   5.888
11636TIP3    H134849   4.116   3.984   5.833
11636TIP3    H234850   4.129   3.939   5.977
11637TIP3   OH234851   0.632   0.747   0.519
11637TIP3    H134852   0.660   0.803   0.591
11637TIP3    H234853   0.542   0.774   0.500
11638TIP3   OH234854   1.934   3.626   0.933
11638TIP3    H134855   1.840   3.612   0.928
11638TIP3    H234856   1.952   3.694   0.868
11639TIP3   OH234857   6.426   7.357   3.685
11639TIP3    H134858   6.395   7.440   3.723
11639TIP3    H234859   6.513   7.344   3.724
11640TIP3   OH234860   0.761   3.962   2.435
11640TIP3    H134861   0.848   4.001   2.444
11640TIP3    H234862   0.729   3.954   2.525
11641TIP3   OH234863   2.022   1.011   6.527
11641TIP3    H134864   2.076   0.969   6.460
11641TIP3    H234865   1.942   1.035   6.481
11642TIP3   OH234866   3.068   3.966   4.045
11642TIP3    H134867   3.104   3.920   4.122
11642TIP3    H234868   2.986   4.004   4.077
11643TIP3   OH234869   5.457   7.285   0.644
11643TIP3    H134870   5.416   7.327   0.719
11643TIP3    H234871   5.547   7.318   0.644
11644TIP3   OH234872   0.514   3.475   2.957
11644TIP3    H134873   0.471   3.500   2.875
11644TIP3    H234874   0.463   3.519   3.025
11645TIP3   OH234875   5.846   6.156   0.228
11645TIP3    H134876   5.822   6.227   0.288
11645TIP3    H234877   5.915   6.108   0.274
11646TIP3   OH234878   4.629   5.781   5.454
11646TIP3    H134879   4.554   5.773   5.394
11646TIP3    H234880   4.632   5.697   5.499
11647TIP3   OH234881   0.832   5.719   1.987
11647TIP3    H134882   0.792   5.684   1.908
11647TIP3    H234883   0.876   5.799   1.959
11648TIP3   OH234884   0.525   1.465   0.830
11648TIP3    H134885   0.456   1.477   0.765
11648TIP3    H234886   0.591   1.531   0.809
11649TIP3   OH234887   2.701   4.672   2.852
11649TIP3    H134888   2.792   4.692   2.834
11649TIP3    H234889   2.699   4.576   2.861
11650TIP3   OH234890   3.885   7.798   5.200
11650TIP3    H134891   3.926   7.875   5.161
11650TIP3    H234892   3.857   7.745   5.126
11651TIP3   OH234893   4.939   1.004   0.437
11651TIP3    H134894   5.018   1.056   0.450
11651TIP3    H234895   4.871   1.050   0.487
11652TIP3   OH234896   1.577   4.378   4.111
11652TIP3    H134897   1.585   4.429   4.192
11652TIP3    H234898   1.491   4.403   4.076
11653TIP3   OH234899   3.896   7.847   2.795
11653TIP3    H134900   3.815   7.803   2.767
11653TIP3    H234901   3.873   7.939   2.801
11654TIP3   OH234902   2.937   5.565   5.299
11654TIP3    H134903   2.938   5.471   5.285
11654TIP3    H234904   2.857   5.596   5.257
11655TIP3   OH234905   6.425   5.259   0.995
11655TIP3    H134906   6.343   5.309   0.988
11655TIP3    H234907   6.445   5.260   1.088
11656TIP3   OH234908   0.084   4.732   5.995
11656TIP3    H134909   0.072   4.726   6.090
11656TIP3    H234910  -0.004   4.721   5.960
11657TIP3   OH234911   5.188   2.393   0.635
11657TIP3    H134912   5.260   2.451   0.609
11657TIP3    H234913   5.187   2.325   0.568
11658TIP3   OH234914  -0.002   3.723   6.625
11658TIP3    H134915   0.066   3.731   6.692
11658TIP3    H234916   0.014   3.796   6.566
11659TIP3   OH234917   4.557   5.780   3.193
11659TIP3    H134918   4.641   5.735   3.202
11659TIP3    H234919   4.579   5.873   3.190
11660TIP3   OH234920   4.401   0.867   0.822
11660TIP3    H134921   4.353   0.945   0.793
11660TIP3    H234922   4.488   0.899   0.844
11661TIP3   OH234923   7.610   7.841   5.856
11661TIP3    H134924   7.562   7.773   5.809
11661TIP3    H234925   7.592   7.921   5.808
11662TIP3   OH234926   2.240   3.921   1.501
11662TIP3    H134927   2.253   3.878   1.586
11662TIP3    H234928   2.177   3.991   1.520
11663TIP3   OH234929   6.213   6.023   6.560
11663TIP3    H134930   6.131   6.071   6.550
11663TIP3    H234931   6.189   5.944   6.609
11664TIP3   OH234932   2.351   2.105   5.757
11664TIP3    H134933   2.365   2.071   5.845
11664TIP3    H234934   2.439   2.127   5.726
11665TIP3   OH234935   0.932   6.471   2.706
11665TIP3    H134936   0.908   6.508   2.622
11665TIP3    H234937   1.027   6.482   2.711
11666TIP3   OH234938   7.395   3.612   4.649
11666TIP3    H134939   7.329   3.670   4.610
11666TIP3    H234940   7.475   3.664   4.651
11667TIP3   OH234941   3.904   2.429   0.908
11667TIP3    H134942   3.828   2.470   0.869
11667TIP3    H234943   3.918   2.476   0.990
11668TIP3   OH234944   3.016   4.741   0.005
11668TIP3    H134945   3.064   4.804   0.059
11668TIP3    H234946   2.926   4.772   0.006
11669TIP3   OH234947   4.243   2.259   5.784
11669TIP3    H134948   4.268   2.243   5.694
11669TIP3    H234949   4.318   2.230   5.836
11670TIP3   OH234950   1.038   4.205   1.902
11670TIP3    H134951   1.018   4.145   1.830
11670TIP3    H234952   1.092   4.273   1.862
11671TIP3   OH234953   5.362   5.983   1.108
11671TIP3    H134954   5.379   5.986   1.202
11671TIP3    H234955   5.404   6.062   1.073
11672TIP3   OH234956   0.459   6.509   2.510
11672TIP3    H134957   0.505   6.517   2.426
11672TIP3    H234958   0.453   6.599   2.542
11673TIP3   OH234959   5.481   1.694   0.079
11673TIP3    H134960   5.387   1.679   0.069
11673TIP3    H234961   5.489   1.787   0.098
11674TIP3   OH234962   7.602   5.277   0.372
11674TIP3    H134963   7.680   5.324   0.402
11674TIP3    H234964   7.549   5.345   0.329
11675TIP3   OH234965   2.952   5.578   3.699
11675TIP3    H134966   2.955   5.636   3.775
11675TIP3    H234967   2.871   5.530   3.708
11676TIP3   OH234968   6.606   7.275   0.647
11676TIP3    H134969   6.624   7.353   0.699
11676TIP3    H234970   6.513   7.281   0.625
11677TIP3   OH234971   5.173   6.706   1.162
11677TIP3    H134972   5.225   6.738   1.236
11677TIP3    H234973   5.161   6.783   1.106
11678TIP3   OH234974   7.907   0.747   4.907
11678TIP3    H134975   7.913   0.837   4.875
11678TIP3    H234976   7.930   0.693   4.831
11679TIP3   OH234977   3.290   1.209   0.559
11679TIP3    H134978   3.292   1.225   0.653
11679TIP3    H234979   3.377   1.232   0.528
11680TIP3   OH234980   3.110   5.966   2.011
11680TIP3    H134981   3.165   5.908   1.959
11680TIP3    H234982   3.117   6.051   1.968
11681TIP3   OH234983   6.167   7.354   1.975
11681TIP3    H134984   6.145   7.264   1.949
11681TIP3    H234985   6.242   7.343   2.034
11682TIP3   OH234986   3.766   1.221   0.951
11682TIP3    H134987   3.825   1.162   0.999
11682TIP3    H234988   3.691   1.167   0.929
11683TIP3   OH234989   7.904   1.940   5.358
11683TIP3    H134990   7.918   1.933   5.453
11683TIP3    H234991   7.986   1.911   5.319
11684TIP3   OH234992   4.420   0.430   5.149
11684TIP3    H134993   4.355   0.461   5.213
11684TIP3    H234994   4.383   0.348   5.117
11685TIP3   OH234995   4.404   5.595   0.001
11685TIP3    H134996   4.458   5.590   0.079
11685TIP3    H234997   4.387   5.504  -0.023
11686TIP3   OH234998   2.293   5.170   6.319
11686TIP3    H134999   2.297   5.265   6.327
11686TIP3    H235000   2.383   5.141   6.334
11687TIP3   OH235001   0.718   5.189   3.937
11687TIP3    H135002   0.646   5.126   3.944
11687TIP3    H235003   0.795   5.135   3.921
11688TIP3   OH235004   7.681   0.794   3.872
11688TIP3    H135005   7.747   0.780   3.803
11688TIP3    H235006   7.629   0.714   3.872
11689TIP3   OH235007   0.632   6.665   1.076
11689TIP3    H135008   0.596   6.675   0.988
11689TIP3    H235009   0.725   6.644   1.062
11690TIP3   OH235010   0.333   1.114   6.274
11690TIP3    H135011   0.272   1.084   6.207
11690TIP3    H235012   0.364   1.199   6.242
11691TIP3   OH235013   1.208   1.964   2.591
11691TIP3    H135014   1.265   1.927   2.525
11691TIP3    H235015   1.131   1.994   2.543
11692TIP3   OH235016   8.016   0.088   4.060
11692TIP3    H135017   7.935   0.067   4.014
11692TIP3    H235018   8.067   0.139   3.996
11693TIP3   OH235019   8.307   3.745   5.005
11693TIP3    H135020   8.280   3.653   5.014
11693TIP3    H235021   8.299   3.763   4.911
11694TIP3   OH235022   1.750   3.427   1.407
11694TIP3    H135023   1.836   3.432   1.366
11694TIP3    H235024   1.705   3.357   1.361
11695TIP3   OH235025   5.161   6.129   5.514
11695TIP3    H135026   5.208   6.048   5.533
11695TIP3    H235027   5.084   6.127   5.572
11696TIP3   OH235028   1.644   1.084   0.938
11696TIP3    H135029   1.730   1.112   0.969
11696TIP3    H235030   1.658   0.996   0.904
11697TIP3   OH235031   3.683   2.215   3.308
11697TIP3    H135032   3.774   2.243   3.306
11697TIP3    H235033   3.635   2.291   3.342
11698TIP3   OH235034   0.169   5.904   3.765
11698TIP3    H135035   0.104   5.938   3.704
11698TIP3    H235036   0.215   5.836   3.715
11699TIP3   OH235037   5.723   1.230   2.268
11699TIP3    H135038   5.733   1.274   2.183
11699TIP3    H235039   5.739   1.299   2.332
11700TIP3   OH235040   0.994   0.949   4.501
11700TIP3    H135041   0.916   0.899   4.523
11700TIP3    H235042   1.066   0.904   4.544
11701TIP3   OH235043   2.646   5.475   4.393
11701TIP3    H135044   2.560   5.462   4.434
11701TIP3    H235045   2.640   5.561   4.353
11702TIP3   OH235046   7.405   4.619   0.570
11702TIP3    H135047   7.352   4.563   0.514
11702TIP3    H235048   7.495   4.602   0.542
11703TIP3   OH235049   6.404   2.695   0.766
11703TIP3    H135050   6.314   2.669   0.745
11703TIP3    H235051   6.457   2.621   0.736
11704TIP3   OH235052   2.281   3.340   5.214
11704TIP3    H135053   2.244   3.412   5.265
11704TIP3    H235054   2.298   3.271   5.278
11705TIP3   OH235055   7.895   5.268   5.423
11705TIP3    H135056   7.822   5.294   5.367
11705TIP3    H235057   7.913   5.346   5.477
11706TIP3   OH235058   4.101   0.307  -0.009
11706TIP3    H135059   4.036   0.247  -0.046
11706TIP3    H235060   4.050   0.370   0.042
11707TIP3   OH235061   4.613   2.340   6.648
11707TIP3    H135062   4.688   2.294   6.686
11707TIP3    H235063   4.599   2.415   6.706
11708TIP3   OH235064   1.474   4.113   1.199
11708TIP3    H135065   1.453   4.161   1.278
11708TIP3    H235066   1.426   4.031   1.207
11709TIP3   OH235067   3.947   2.650   6.235
11709TIP3    H135068   3.893   2.729   6.239
11709TIP3    H235069   4.018   2.667   6.297
11710TIP3   OH235070   3.827   5.068   1.449
11710TIP3    H135071   3.882   5.140   1.419
11710TIP3    H235072   3.814   5.013   1.371
11711TIP3   OH235073   6.746   3.195   6.781
11711TIP3    H135074   6.702   3.113   6.759
11711TIP3    H235075   6.736   3.203   6.876
11712TIP3   OH235076   3.653   6.849   5.338
11712TIP3    H135077   3.582   6.804   5.384
11712TIP3    H235078   3.609   6.922   5.292
11713TIP3   OH235079   5.010   3.141   2.656
11713TIP3    H135080   4.986   3.120   2.566
11713TIP3    H235081   5.076   3.076   2.680
11714TIP3   OH235082   1.440   0.068   4.611
11714TIP3    H135083   1.443  -0.021   4.576
11714TIP3    H235084   1.358   0.105   4.578
11715TIP3   OH235085   7.179   4.154   1.263
11715TIP3    H135086   7.095   4.189   1.234
11715TIP3    H235087   7.160   4.062   1.284
11716TIP3   OH235088   4.862   5.341   0.654
11716TIP3    H135089   4.898   5.254   0.637
11716TIP3    H235090   4.926   5.402   0.617
11717TIP3   OH235091   0.138   2.758   1.285
11717TIP3    H135092   0.061   2.731   1.234
11717TIP3    H235093   0.141   2.854   1.274
11718TIP3   OH235094   1.358   1.744   2.755
11718TIP3    H135095   1.423   1.685   2.716
11718TIP3    H235096   1.406   1.825   2.770
11719TIP3   OH235097   5.368   1.553   1.019
11719TIP3    H135098   5.353   1.505   0.937
11719TIP3    H235099   5.296   1.615   1.024
11720TIP3   OH235100   8.075   2.293   4.682
11720TIP3    H135101   7.985   2.311   4.709
11720TIP3    H235102   8.065   2.230   4.610
11721TIP3   OH235103   0.215   1.307   2.919
11721TIP3    H135104   0.152   1.254   2.871
11721TIP3    H235105   0.167   1.339   2.995
11722TIP3   OH235106   5.482   5.382   6.434
11722TIP3    H135107   5.457   5.375   6.342
11722TIP3    H235108   5.577   5.396   6.432
11723TIP3   OH235109   2.348   5.152   5.507
11723TIP3    H135110   2.394   5.068   5.506
11723TIP3    H235111   2.321   5.166   5.417
11724TIP3   OH235112   2.191   4.302   5.398
11724TIP3    H135113   2.138   4.238   5.351
11724TIP3    H235114   2.223   4.360   5.329
11725TIP3   OH235115   6.124   2.336   5.774
11725TIP3    H135116   6.032   2.359   5.785
11725TIP3    H235117   6.157   2.327   5.864
11726TIP3   OH235118   5.778   2.710   3.842
11726TIP3    H135119   5.772   2.644   3.773
11726TIP3    H235120   5.871   2.715   3.862
11727TIP3   OH235121   1.302   7.820   3.681
11727TIP3    H135122   1.376   7.761   3.696
11727TIP3    H235123   1.335   7.886   3.621
11728TIP3   OH235124   4.326   4.687   6.054
11728TIP3    H135125   4.363   4.606   6.017
11728TIP3    H235126   4.349   4.683   6.147
11729TIP3   OH235127   8.330   2.681   1.109
11729TIP3    H135128   8.291   2.598   1.083
11729TIP3    H235129   8.278   2.747   1.063
11730TIP3   OH235130   8.138   4.249   0.900
11730TIP3    H135131   8.079   4.200   0.843
11730TIP3    H235132   8.082   4.281   0.971
11731TIP3   OH235133   0.263   0.844   1.330
11731TIP3    H135134   0.278   0.914   1.267
11731TIP3    H235135   0.348   0.829   1.370
11732TIP3   OH235136   4.413   7.643   4.495
11732TIP3    H135137   4.409   7.554   4.462
11732TIP3    H235138   4.322   7.667   4.510
11733TIP3   OH235139   4.403   3.633   5.904
11733TIP3    H135140   4.431   3.554   5.858
11733TIP3    H235141   4.434   3.705   5.848
11734TIP3   OH235142   3.267   4.046   2.764
11734TIP3    H135143   3.177   4.057   2.734
11734TIP3    H235144   3.298   4.136   2.780
11735TIP3   OH235145   2.748   1.820   6.198
11735TIP3    H135146   2.676   1.765   6.170
11735TIP3    H235147   2.769   1.789   6.286
11736TIP3   OH235148   5.235   5.052   4.775
11736TIP3    H135149   5.292   5.113   4.728
11736TIP3    H235150   5.181   5.013   4.707
11737TIP3   OH235151   2.160   7.542   3.092
11737TIP3    H135152   2.106   7.618   3.071
11737TIP3    H235153   2.110   7.467   3.060
11738TIP3   OH235154   4.122   5.420   3.667
11738TIP3    H135155   4.168   5.337   3.665
11738TIP3    H235156   4.064   5.413   3.743
11739TIP3   OH235157   5.019   6.854   0.214
11739TIP3    H135158   5.052   6.885   0.129
11739TIP3    H235159   4.948   6.793   0.192
11740TIP3   OH235160   4.015   0.145   6.531
11740TIP3    H135161   4.029   0.084   6.604
11740TIP3    H235162   3.974   0.221   6.571
11741TIP3   OH235163   4.727   4.486   0.342
11741TIP3    H135164   4.740   4.561   0.400
11741TIP3    H235165   4.633   4.470   0.343
11742TIP3   OH235166   7.191   2.449   3.414
11742TIP3    H135167   7.195   2.369   3.465
11742TIP3    H235168   7.283   2.469   3.394
11743TIP3   OH235169   7.686   4.206   4.058
11743TIP3    H135170   7.713   4.217   3.966
11743TIP3    H235171   7.694   4.111   4.074
11744TIP3   OH235172   1.600   5.346   4.879
11744TIP3    H135173   1.610   5.351   4.974
11744TIP3    H235174   1.518   5.392   4.861
11745TIP3   OH235175   5.997   7.204   1.497
11745TIP3    H135176   5.924   7.266   1.508
11745TIP3    H235177   5.954   7.122   1.472
11746TIP3   OH235178   3.931   0.221   3.195
11746TIP3    H135179   3.837   0.211   3.210
11746TIP3    H235180   3.942   0.204   3.102
11747TIP3   OH235181   7.897   0.808   1.160
11747TIP3    H135182   7.927   0.775   1.245
11747TIP3    H235183   7.924   0.900   1.158
11748TIP3   OH235184   6.125   5.121   6.688
11748TIP3    H135185   6.150   5.126   6.780
11748TIP3    H235186   6.171   5.044   6.655
11749TIP3   OH235187   6.518   3.799   5.354
11749TIP3    H135188   6.591   3.757   5.309
11749TIP3    H235189   6.554   3.827   5.438
11750TIP3   OH235190   0.412   5.390   1.750
11750TIP3    H135191   0.368   5.471   1.723
11750TIP3    H235192   0.366   5.363   1.829
11751TIP3   OH235193   3.924   1.933   5.839
11751TIP3    H135194   3.928   1.986   5.759
11751TIP3    H235195   3.989   1.973   5.897
11752TIP3   OH235196   2.557   0.790   3.305
11752TIP3    H135197   2.496   0.825   3.240
11752TIP3    H235198   2.643   0.821   3.277
11753TIP3   OH235199   3.123   6.941   6.162
11753TIP3    H135200   3.175   6.971   6.236
11753TIP3    H235201   3.097   7.020   6.116
11754TIP3   OH235202   0.768   7.522   4.422
11754TIP3    H135203   0.851   7.479   4.403
11754TIP3    H235204   0.752   7.578   4.346
11755TIP3   OH235205   0.306   0.582   3.742
11755TIP3    H135206   0.237   0.536   3.694
11755TIP3    H235207   0.386   0.562   3.694
11756TIP3   OH235208   1.658   7.659   2.319
11756TIP3    H135209   1.586   7.711   2.355
11756TIP3    H235210   1.614   7.590   2.269
11757TIP3   OH235211   5.372   0.578   6.058
11757TIP3    H135212   5.442   0.631   6.096
11757TIP3    H235213   5.297   0.638   6.053
11758TIP3   OH235214   2.124   6.949   1.178
11758TIP3    H135215   2.047   6.933   1.123
11758TIP3    H235216   2.096   6.923   1.266
11759TIP3   OH235217   2.393   5.472   4.502
11759TIP3    H135218   2.316   5.461   4.447
11759TIP3    H235219   2.370   5.545   4.561
11760TIP3   OH235220   1.376   7.475   3.542
11760TIP3    H135221   1.386   7.482   3.637
11760TIP3    H235222   1.330   7.392   3.529
11761TIP3   OH235223   5.763   3.599   1.892
11761TIP3    H135224   5.733   3.666   1.954
11761TIP3    H235225   5.691   3.536   1.887
11762TIP3   OH235226   0.565   3.876   2.228
11762TIP3    H135227   0.546   3.787   2.259
11762TIP3    H235228   0.612   3.917   2.300
11763TIP3   OH235229   5.879   0.795   5.991
11763TIP3    H135230   5.946   0.809   5.925
11763TIP3    H235231   5.913   0.725   6.047
11764TIP3   OH235232   0.074   3.786   4.271
11764TIP3    H135233   0.100   3.858   4.213
11764TIP3    H235234   0.004   3.742   4.223
11765TIP3   OH235235   7.926   5.383   4.214
11765TIP3    H135236   7.895   5.306   4.261
11765TIP3    H235237   8.017   5.362   4.192
11766TIP3   OH235238   0.494   4.097   4.273
11766TIP3    H135239   0.423   4.158   4.293
11766TIP3    H235240   0.453   4.011   4.274
11767TIP3   OH235241   4.427   5.462   5.844
11767TIP3    H135242   4.523   5.458   5.849
11767TIP3    H235243   4.401   5.506   5.925
11768TIP3   OH235244   3.141   5.880   0.061
11768TIP3    H135245   3.070   5.944   0.055
11768TIP3    H235246   3.130   5.825  -0.017
11769TIP3   OH235247   6.505   2.082   2.383
11769TIP3    H135248   6.513   2.177   2.369
11769TIP3    H235249   6.414   2.062   2.360
11770TIP3   OH235250   4.255   5.506   3.038
11770TIP3    H135251   4.322   5.482   3.102
11770TIP3    H235252   4.275   5.597   3.015
11771TIP3   OH235253   3.140   5.822   2.246
11771TIP3    H135254   3.173   5.737   2.218
11771TIP3    H235255   3.158   5.880   2.172
11772TIP3   OH235256   4.870   3.593   5.873
11772TIP3    H135257   4.922   3.539   5.813
11772TIP3    H235258   4.807   3.532   5.911
11773TIP3   OH235259   3.540   1.629   4.967
11773TIP3    H135260   3.518   1.536   4.959
11773TIP3    H235261   3.483   1.662   5.036
11774TIP3   OH235262   1.828   4.991   4.964
11774TIP3    H135263   1.741   5.012   4.999
11774TIP3    H235264   1.852   5.067   4.912
11775TIP3   OH235265   0.732   5.218   0.822
11775TIP3    H135266   0.803   5.160   0.793
11775TIP3    H235267   0.678   5.163   0.879
11776TIP3   OH235268   2.326   0.103   0.760
11776TIP3    H135269   2.316   0.155   0.680
11776TIP3    H235270   2.414   0.066   0.754
11777TIP3   OH235271   0.387   0.597   2.855
11777TIP3    H135272   0.302   0.602   2.898
11777TIP3    H235273   0.410   0.504   2.858
11778TIP3   OH235274   0.314   6.737   0.608
11778TIP3    H135275   0.389   6.677   0.598
11778TIP3    H235276   0.315   6.790   0.529
11779TIP3   OH235277   6.896   4.679   2.205
11779TIP3    H135278   6.985   4.676   2.168
11779TIP3    H235279   6.868   4.588   2.207
11780TIP3   OH235280   4.248   0.126   2.969
11780TIP3    H135281   4.242   0.096   2.878
11780TIP3    H235282   4.258   0.046   3.020
11781TIP3   OH235283   6.362   1.261   3.925
11781TIP3    H135284   6.452   1.281   3.950
11781TIP3    H235285   6.312   1.270   4.005
11782TIP3   OH235286   7.160   7.621   1.889
11782TIP3    H135287   7.088   7.653   1.944
11782TIP3    H235288   7.120   7.552   1.835
11783TIP3   OH235289   3.347   5.717   3.789
11783TIP3    H135290   3.404   5.777   3.740
11783TIP3    H235291   3.335   5.759   3.874
11784TIP3   OH235292   4.494   0.800   0.455
11784TIP3    H135293   4.449   0.755   0.526
11784TIP3    H235294   4.546   0.868   0.498
11785TIP3   OH235295   4.140   1.389   3.932
11785TIP3    H135296   4.173   1.404   4.020
11785TIP3    H235297   4.079   1.316   3.941
11786TIP3   OH235298   0.403   1.879   0.256
11786TIP3    H135299   0.425   1.874   0.349
11786TIP3    H235300   0.468   1.823   0.213
11787TIP3   OH235301   1.085   5.714   6.587
11787TIP3    H135302   1.052   5.636   6.631
11787TIP3    H235303   1.092   5.780   6.656
11788TIP3   OH235304   3.273   6.466   4.331
11788TIP3    H135305   3.292   6.488   4.422
11788TIP3    H235306   3.291   6.372   4.325
11789TIP3   OH235307   8.132   2.056   5.921
11789TIP3    H135308   8.121   2.145   5.953
11789TIP3    H235309   8.207   2.023   5.970
11790TIP3   OH235310   6.698   3.918   2.299
11790TIP3    H135311   6.645   3.910   2.378
11790TIP3    H235312   6.788   3.916   2.331
11791TIP3   OH235313   3.620   4.959   6.425
11791TIP3    H135314   3.610   4.918   6.339
11791TIP3    H235315   3.697   4.917   6.463
11792TIP3   OH235316   2.545   5.880   5.784
11792TIP3    H135317   2.574   5.791   5.766
11792TIP3    H235318   2.544   5.887   5.879
11793TIP3   OH235319   1.488   3.751   5.586
11793TIP3    H135320   1.417   3.814   5.595
11793TIP3    H235321   1.487   3.702   5.669
11794TIP3   OH235322   3.175   1.180   0.307
11794TIP3    H135323   3.080   1.183   0.306
11794TIP3    H235324   3.198   1.178   0.400
11795TIP3   OH235325   7.445   4.165   0.276
11795TIP3    H135326   7.395   4.246   0.276
11795TIP3    H235327   7.448   4.139   0.183
11796TIP3   OH235328   0.386   2.663   5.115
11796TIP3    H135329   0.350   2.658   5.026
11796TIP3    H235330   0.313   2.638   5.172
11797TIP3   OH235331   4.329   1.388   4.401
11797TIP3    H135332   4.324   1.437   4.483
11797TIP3    H235333   4.407   1.422   4.357
11798TIP3   OH235334   3.701   4.239   2.120
11798TIP3    H135335   3.714   4.149   2.090
11798TIP3    H235336   3.788   4.279   2.116
11799TIP3   OH235337   8.221   3.493   3.469
11799TIP3    H135338   8.246   3.519   3.380
11799TIP3    H235339   8.192   3.402   3.460
11800TIP3   OH235340   2.181   5.152   2.020
11800TIP3    H135341   2.117   5.120   1.957
11800TIP3    H235342   2.193   5.244   1.998
11801TIP3   OH235343   1.159   2.690   5.187
11801TIP3    H135344   1.125   2.641   5.262
11801TIP3    H235345   1.252   2.700   5.205
11802TIP3   OH235346   3.175   7.655   1.127
11802TIP3    H135347   3.200   7.667   1.219
11802TIP3    H235348   3.229   7.582   1.097
11803TIP3   OH235349   7.241   0.429   5.593
11803TIP3    H135350   7.152   0.443   5.562
11803TIP3    H235351   7.288   0.394   5.517
11804TIP3   OH235352   0.275   0.006   1.838
11804TIP3    H135353   0.204  -0.011   1.900
11804TIP3    H235354   0.247   0.085   1.792
11805TIP3   OH235355   5.400   6.193   5.056
11805TIP3    H135356   5.381   6.111   5.101
11805TIP3    H235357   5.373   6.176   4.965
11806TIP3   OH235358   5.647   2.254   2.422
11806TIP3    H135359   5.621   2.246   2.330
11806TIP3    H235360   5.624   2.344   2.445
11807TIP3   OH235361   4.622   1.658   2.257
11807TIP3    H135362   4.580   1.712   2.191
11807TIP3    H235363   4.597   1.568   2.233
11808TIP3   OH235364   0.911   7.018   5.290
11808TIP3    H135365   1.005   7.013   5.307
11808TIP3    H235366   0.892   6.940   5.238
11809TIP3   OH235367   6.127   6.691   5.382
11809TIP3    H135368   6.131   6.607   5.336
11809TIP3    H235369   6.037   6.722   5.368
11810TIP3   OH235370   3.357   3.117   6.330
11810TIP3    H135371   3.269   3.138   6.362
11810TIP3    H235372   3.391   3.054   6.393
11811TIP3   OH235373   2.522   4.653   2.648
11811TIP3    H135374   2.563   4.666   2.733
11811TIP3    H235375   2.588   4.680   2.584
11812TIP3   OH235376   2.321   1.778   1.870
11812TIP3    H135377   2.332   1.808   1.960
11812TIP3    H235378   2.337   1.684   1.873
11813TIP3   OH235379   4.724   3.329   5.964
11813TIP3    H135380   4.665   3.340   5.890
11813TIP3    H235381   4.800   3.282   5.928
11814TIP3   OH235382   0.930   0.226   2.049
11814TIP3    H135383   0.966   0.209   2.136
11814TIP3    H235384   0.882   0.146   2.027
11815TIP3   OH235385   2.386   3.744   6.014
11815TIP3    H135386   2.463   3.717   6.065
11815TIP3    H235387   2.421   3.800   5.945
11816TIP3   OH235388   0.788   3.800   5.888
11816TIP3    H135389   0.735   3.857   5.943
11816TIP3    H235390   0.740   3.796   5.805
11817TIP3   OH235391   3.598   2.658   1.728
11817TIP3    H135392   3.570   2.726   1.667
11817TIP3    H235393   3.671   2.615   1.683
11818TIP3   OH235394   6.252   7.719   5.564
11818TIP3    H135395   6.179   7.696   5.622
11818TIP3    H235396   6.232   7.673   5.482
11819TIP3   OH235397   2.786   6.563   2.463
11819TIP3    H135398   2.820   6.586   2.549
11819TIP3    H235399   2.824   6.477   2.445
11820TIP3   OH235400   1.392   6.083   3.726
11820TIP3    H135401   1.472   6.031   3.720
11820TIP3    H235402   1.386   6.129   3.642
11821TIP3   OH235403   5.999   5.390   2.410
11821TIP3    H135404   5.921   5.334   2.406
11821TIP3    H235405   6.068   5.338   2.369
11822TIP3   OH235406   8.078   0.729   6.060
11822TIP3    H135407   8.001   0.719   6.116
11822TIP3    H235408   8.088   0.644   6.017
11823TIP3   OH235409   1.139   7.849   2.501
11823TIP3    H135410   1.115   7.767   2.544
11823TIP3    H235411   1.099   7.843   2.414
11824TIP3   OH235412   0.620   7.275   3.167
11824TIP3    H135413   0.637   7.181   3.167
11824TIP3    H235414   0.618   7.299   3.074
11825TIP3   OH235415   5.948   0.604   5.155
11825TIP3    H135416   5.925   0.598   5.063
11825TIP3    H235417   5.919   0.521   5.193
11826TIP3   OH235418   2.240   7.445   4.547
11826TIP3    H135419   2.165   7.464   4.604
11826TIP3    H235420   2.238   7.350   4.536
11827TIP3   OH235421   5.696   2.680   4.914
11827TIP3    H135422   5.744   2.750   4.957
11827TIP3    H235423   5.762   2.635   4.860
11828TIP3   OH235424   1.410   1.504   3.579
11828TIP3    H135425   1.379   1.431   3.633
11828TIP3    H235426   1.480   1.467   3.526
11829TIP3   OH235427   3.163   0.441   1.011
11829TIP3    H135428   3.074   0.445   1.045
11829TIP3    H235429   3.176   0.349   0.987
11830TIP3   OH235430   6.593   5.691   5.921
11830TIP3    H135431   6.559   5.717   5.835
11830TIP3    H235432   6.517   5.695   5.979
11831TIP3   OH235433   5.749   2.971   6.375
11831TIP3    H135434   5.741   3.058   6.337
11831TIP3    H235435   5.778   2.915   6.303
11832TIP3   OH235436   2.027   3.053   6.854
11832TIP3    H135437   1.974   2.988   6.807
11832TIP3    H235438   2.116   3.038   6.824
11833TIP3   OH235439   6.549   3.449   0.072
11833TIP3    H135440   6.557   3.465  -0.022
11833TIP3    H235441   6.639   3.439   0.102
11834TIP3   OH235442   3.701   6.949   5.603
11834TIP3    H135443   3.693   6.861   5.640
11834TIP3    H235444   3.696   6.935   5.508
11835TIP3   OH235445   4.868   0.726   3.211
11835TIP3    H135446   4.868   0.731   3.306
11835TIP3    H235447   4.961   0.721   3.187
11836TIP3   OH235448   4.740   2.842   2.043
11836TIP3    H135449   4.814   2.873   1.991
11836TIP3    H235450   4.780   2.801   2.120
11837TIP3   OH235451   5.226   5.410   2.671
11837TIP3    H135452   5.205   5.366   2.753
11837TIP3    H235453   5.224   5.503   2.693
11838TIP3   OH235454   7.345   5.041   5.910
11838TIP3    H135455   7.360   5.123   5.956
11838TIP3    H235456   7.323   4.979   5.979
11839TIP3   OH235457   2.925   6.184   6.053
11839TIP3    H135458   2.985   6.212   5.984
11839TIP3    H235459   2.978   6.126   6.108
11840TIP3   OH235460   2.295   4.126   0.920
11840TIP3    H135461   2.318   4.061   0.854
11840TIP3    H235462   2.216   4.092   0.961
11841TIP3   OH235463   4.959   6.099   3.247
11841TIP3    H135464   4.909   6.179   3.260
11841TIP3    H235465   4.921   6.060   3.167
11842TIP3   OH235466   5.751   4.449   1.952
11842TIP3    H135467   5.697   4.434   2.029
11842TIP3    H235468   5.839   4.463   1.986
11843TIP3   OH235469   2.925   0.151   4.040
11843TIP3    H135470   2.879   0.082   3.991
11843TIP3    H235471   2.914   0.127   4.132
11844TIP3   OH235472   2.997   5.785   6.782
11844TIP3    H135473   2.983   5.836   6.861
11844TIP3    H235474   3.091   5.772   6.778
11845TIP3   OH235475   0.648   0.956   5.526
11845TIP3    H135476   0.733   0.931   5.563
11845TIP3    H235477   0.658   0.942   5.432
11846TIP3   OH235478   3.656   3.071   6.565
11846TIP3    H135479   3.656   3.048   6.658
11846TIP3    H235480   3.749   3.084   6.544
11847TIP3   OH235481   3.539   2.373   6.696
11847TIP3    H135482   3.496   2.355   6.779
11847TIP3    H235483   3.555   2.467   6.697
11848TIP3   OH235484   1.228   7.885   6.761
11848TIP3    H135485   1.230   7.791   6.748
11848TIP3    H235486   1.285   7.900   6.837
11849TIP3   OH235487   3.114   5.632   0.177
11849TIP3    H135488   3.109   5.726   0.159
11849TIP3    H235489   3.142   5.593   0.095
11850TIP3   OH235490   0.560   2.278   4.865
11850TIP3    H135491   0.560   2.349   4.802
11850TIP3    H235492   0.507   2.311   4.938
11851TIP3   OH235493   2.109   3.506   6.769
11851TIP3    H135494   2.057   3.434   6.804
11851TIP3    H235495   2.162   3.536   6.842
11852TIP3   OH235496   5.516   1.144   4.099
11852TIP3    H135497   5.565   1.213   4.055
11852TIP3    H235498   5.424   1.165   4.085
11853TIP3   OH235499   7.816   3.019   4.746
11853TIP3    H135500   7.899   3.018   4.794
11853TIP3    H235501   7.842   3.029   4.654
11854TIP3   OH235502   3.055   1.603   0.272
11854TIP3    H135503   3.029   1.528   0.219
11854TIP3    H235504   3.000   1.675   0.242
11855TIP3   OH235505   2.218   1.923   1.132
11855TIP3    H135506   2.269   1.864   1.188
11855TIP3    H235507   2.138   1.940   1.182
11856TIP3   OH235508   3.069   6.969   1.852
11856TIP3    H135509   3.143   6.911   1.873
11856TIP3    H235510   3.100   7.022   1.779
11857TIP3   OH235511   1.382   3.581   3.720
11857TIP3    H135512   1.353   3.558   3.808
11857TIP3    H235513   1.476   3.567   3.720
11858TIP3   OH235514   5.051   5.464   2.237
11858TIP3    H135515   5.096   5.424   2.163
11858TIP3    H235516   4.966   5.422   2.239
11859TIP3   OH235517   7.123   6.432   5.353
11859TIP3    H135518   7.031   6.407   5.365
11859TIP3    H235519   7.161   6.360   5.304
11860TIP3   OH235520   7.127   7.798   2.938
11860TIP3    H135521   7.071   7.839   3.004
11860TIP3    H235522   7.070   7.739   2.890
11861TIP3   OH235523   3.574   7.213   3.036
11861TIP3    H135524   3.625   7.201   2.957
11861TIP3    H235525   3.557   7.125   3.068
11862TIP3   OH235526   4.309   1.387   2.229
11862TIP3    H135527   4.287   1.296   2.250
11862TIP3    H235528   4.398   1.382   2.193
11863TIP3   OH235529   0.437   1.075   0.589
11863TIP3    H135530   0.369   1.050   0.527
11863TIP3    H235531   0.494   1.133   0.539
11864TIP3   OH235532   4.906   7.775   0.234
11864TIP3    H135533   4.967   7.846   0.213
11864TIP3    H235534   4.954   7.695   0.214
11865TIP3   OH235535   5.106   0.308   5.818
11865TIP3    H135536   5.026   0.359   5.830
11865TIP3    H235537   5.147   0.309   5.905
11866TIP3   OH235538   8.100   0.629   2.065
11866TIP3    H135539   8.166   0.626   1.996
11866TIP3    H235540   8.047   0.706   2.044
11867TIP3   OH235541   4.096   1.205   4.504
11867TIP3    H135542   4.111   1.299   4.515
11867TIP3    H235543   4.144   1.183   4.424
11868TIP3   OH235544   6.220   3.440   2.335
11868TIP3    H135545   6.292   3.502   2.325
11868TIP3    H235546   6.147   3.492   2.368
11869TIP3   OH235547   4.183   4.568   3.160
11869TIP3    H135548   4.216   4.506   3.094
11869TIP3    H235549   4.171   4.649   3.111
11870TIP3   OH235550   4.391   0.365   1.922
11870TIP3    H135551   4.328   0.301   1.889
11870TIP3    H235552   4.458   0.371   1.854
11871TIP3   OH235553   3.294   3.590   4.836
11871TIP3    H135554   3.346   3.544   4.902
11871TIP3    H235555   3.354   3.605   4.764
11872TIP3   OH235556   1.878   2.571   5.692
11872TIP3    H135557   1.917   2.647   5.735
11872TIP3    H235558   1.874   2.504   5.761
11873TIP3   OH235559   5.984   0.184   1.565
11873TIP3    H135560   6.061   0.209   1.512
11873TIP3    H235561   5.996   0.091   1.583
11874TIP3   OH235562   8.022   0.095   0.558
11874TIP3    H135563   8.011   0.175   0.609
11874TIP3    H235564   7.993   0.118   0.470
11875TIP3   OH235565   5.430   0.183   2.882
11875TIP3    H135566   5.394   0.147   2.963
11875TIP3    H235567   5.391   0.270   2.876
11876TIP3   OH235568   7.568   3.701   5.350
11876TIP3    H135569   7.642   3.695   5.288
11876TIP3    H235570   7.572   3.790   5.383
11877TIP3   OH235571   0.823   7.164   1.980
11877TIP3    H135572   0.778   7.178   1.896
11877TIP3    H235573   0.769   7.212   2.044
11878TIP3   OH235574   0.562   5.551   4.147
11878TIP3    H135575   0.496   5.482   4.154
11878TIP3    H235576   0.517   5.630   4.177
11879TIP3   OH235577   1.264   6.499   6.439
11879TIP3    H135578   1.310   6.579   6.466
11879TIP3    H235579   1.333   6.434   6.430
11880TIP3   OH235580   0.522   0.608   5.262
11880TIP3    H135581   0.532   0.601   5.167
11880TIP3    H235582   0.590   0.550   5.298
11881TIP3   OH235583   4.678   3.577   3.357
11881TIP3    H135584   4.698   3.583   3.450
11881TIP3    H235585   4.604   3.637   3.345
11882TIP3   OH235586   4.928   6.397   5.592
11882TIP3    H135587   4.912   6.404   5.498
11882TIP3    H235588   5.014   6.437   5.605
11883TIP3   OH235589   5.202   2.764   3.094
11883TIP3    H135590   5.181   2.826   3.164
11883TIP3    H235591   5.259   2.813   3.035
11884TIP3   OH235592   0.463   4.783   3.068
11884TIP3    H135593   0.555   4.810   3.065
11884TIP3    H235594   0.414   4.865   3.056
11885TIP3   OH235595   0.839   1.446   6.230
11885TIP3    H135596   0.768   1.480   6.175
11885TIP3    H235597   0.821   1.353   6.238
11886TIP3   OH235598   3.814   2.993   2.039
11886TIP3    H135599   3.762   2.917   2.064
11886TIP3    H235600   3.827   2.984   1.944
11887TIP3   OH235601   5.319   3.195   3.030
11887TIP3    H135602   5.414   3.192   3.035
11887TIP3    H235603   5.293   3.107   3.004
11888TIP3   OH235604   0.805   7.027   3.409
11888TIP3    H135605   0.787   7.028   3.315
11888TIP3    H235606   0.721   7.046   3.451
11889TIP3   OH235607   3.753   3.402   4.614
11889TIP3    H135608   3.815   3.457   4.663
11889TIP3    H235609   3.710   3.349   4.681
11890TIP3   OH235610   5.339   0.340   3.533
11890TIP3    H135611   5.311   0.252   3.512
11890TIP3    H235612   5.261   0.382   3.569
11891TIP3   OH235613   3.074   2.125   1.010
11891TIP3    H135614   3.076   2.166   1.096
11891TIP3    H235615   2.985   2.091   1.001
11892TIP3   OH235616   5.168   5.211   1.245
11892TIP3    H135617   5.107   5.280   1.271
11892TIP3    H235618   5.234   5.209   1.314
11893TIP3   OH235619   5.911   6.512   2.287
11893TIP3    H135620   5.856   6.453   2.339
11893TIP3    H235621   5.983   6.457   2.256
11894TIP3   OH235622   7.702   7.504   5.732
11894TIP3    H135623   7.784   7.490   5.685
11894TIP3    H235624   7.727   7.556   5.809
11895TIP3   OH235625   6.533   4.160   6.383
11895TIP3    H135626   6.603   4.111   6.340
11895TIP3    H235627   6.559   4.252   6.375
11896TIP3   OH235628   5.453   1.568   3.032
11896TIP3    H135629   5.444   1.473   3.026
11896TIP3    H235630   5.370   1.603   3.000
11897TIP3   OH235631   8.002   1.028   3.911
11897TIP3    H135632   7.944   1.075   3.971
11897TIP3    H235633   8.021   0.945   3.956
11898TIP3   OH235634   7.774   4.963   0.848
11898TIP3    H135635   7.799   4.982   0.758
11898TIP3    H235636   7.855   4.937   0.890
11899TIP3   OH235637   6.868   2.782   4.832
11899TIP3    H135638   6.829   2.708   4.879
11899TIP3    H235639   6.846   2.858   4.886
11900TIP3   OH235640   3.116   2.942   1.983
11900TIP3    H135641   3.171   2.933   2.061
11900TIP3    H235642   3.131   2.862   1.933
11901TIP3   OH235643   1.587   5.038   5.158
11901TIP3    H135644   1.491   5.036   5.154
11901TIP3    H235645   1.611   4.951   5.190
11902TIP3   OH235646   1.216   5.963   0.426
11902TIP3    H135647   1.216   5.889   0.366
11902TIP3    H235648   1.307   5.971   0.454
11903TIP3   OH235649   4.267   2.642   4.200
11903TIP3    H135650   4.252   2.553   4.170
11903TIP3    H235651   4.179   2.681   4.204
11904TIP3   OH235652   7.755   4.747   1.399
11904TIP3    H135653   7.771   4.653   1.392
11904TIP3    H235654   7.839   4.783   1.426
11905TIP3   OH235655   5.968   2.447   2.382
11905TIP3    H135656   5.976   2.402   2.466
11905TIP3    H235657   6.055   2.484   2.367
11906TIP3   OH235658   2.416   2.918   3.765
11906TIP3    H135659   2.330   2.953   3.740
11906TIP3    H235660   2.479   2.970   3.715
11907TIP3   OH235661   4.574   0.111   1.056
11907TIP3    H135662   4.516   0.182   1.028
11907TIP3    H235663   4.629   0.150   1.124
11908TIP3   OH235664   6.788   3.322   2.919
11908TIP3    H135665   6.770   3.279   3.002
11908TIP3    H235666   6.883   3.316   2.908
11909TIP3   OH235667   4.490   3.763   4.256
11909TIP3    H135668   4.579   3.756   4.292
11909TIP3    H235669   4.441   3.809   4.324
11910TIP3   OH235670   8.217   2.832   6.841
11910TIP3    H135671   8.168   2.889   6.783
11910TIP3    H235672   8.305   2.869   6.843
11911TIP3   OH235673   4.121   7.456   3.054
11911TIP3    H135674   4.166   7.452   3.138
11911TIP3    H235675   4.060   7.529   3.063
11912TIP3   OH235676   6.677   7.046   5.120
11912TIP3    H135677   6.747   7.068   5.183
11912TIP3    H235678   6.723   7.033   5.037
11913TIP3   OH235679   5.957   6.385   5.513
11913TIP3    H135680   5.959   6.334   5.595
11913TIP3    H235681   6.037   6.438   5.516
11914TIP3   OH235682   8.140   4.393   4.155
11914TIP3    H135683   8.161   4.458   4.222
11914TIP3    H235684   8.195   4.418   4.080
11915TIP3   OH235685   8.114   7.810   3.654
11915TIP3    H135686   8.125   7.778   3.743
11915TIP3    H235687   8.098   7.731   3.602
11916TIP3   OH235688   5.245   1.993   0.865
11916TIP3    H135689   5.303   1.930   0.822
11916TIP3    H235690   5.172   2.004   0.805
11917TIP3   OH235691   6.328   7.858   5.806
11917TIP3    H135692   6.414   7.892   5.781
11917TIP3    H235693   6.289   7.830   5.723
11918TIP3   OH235694   4.046   4.877   2.243
11918TIP3    H135695   4.079   4.895   2.155
11918TIP3    H235696   3.995   4.954   2.266
11919TIP3   OH235697   6.969   0.686   2.705
11919TIP3    H135698   6.975   0.772   2.663
11919TIP3    H235699   6.876   0.667   2.707
11920TIP3   OH235700   5.241   4.151   5.895
11920TIP3    H135701   5.169   4.122   5.838
11920TIP3    H235702   5.306   4.081   5.888
11921TIP3   OH235703   7.444   4.777   1.894
11921TIP3    H135704   7.466   4.713   1.962
11921TIP3    H235705   7.526   4.792   1.848
11922TIP3   OH235706   0.398   4.170   3.985
11922TIP3    H135707   0.403   4.214   3.900
11922TIP3    H235708   0.490   4.162   4.013
11923TIP3   OH235709   0.896   0.868   5.611
11923TIP3    H135710   0.956   0.931   5.653
11923TIP3    H235711   0.945   0.833   5.537
11924TIP3   OH235712   1.805   2.892   6.408
11924TIP3    H135713   1.711   2.906   6.391
11924TIP3    H235714   1.816   2.914   6.500
11925TIP3   OH235715   1.120   7.341   0.228
11925TIP3    H135716   1.065   7.378   0.160
11925TIP3    H235717   1.207   7.334   0.188
11926TIP3   OH235718   3.282   4.827   5.325
11926TIP3    H135719   3.229   4.764   5.373
11926TIP3    H235720   3.262   4.809   5.233
11927TIP3   OH235721   8.368   5.044   4.542
11927TIP3    H135722   8.462   5.059   4.549
11927TIP3    H235723   8.346   5.070   4.452
11928TIP3   OH235724   2.896   3.172   4.095
11928TIP3    H135725   2.987   3.143   4.102
11928TIP3    H235726   2.848   3.118   4.157
11929TIP3   OH235727   3.704   6.265   3.362
11929TIP3    H135728   3.735   6.340   3.311
11929TIP3    H235729   3.677   6.201   3.296
11930TIP3   OH235730   2.207   5.708   5.922
11930TIP3    H135731   2.255   5.745   5.848
11930TIP3    H235732   2.228   5.614   5.920
11931TIP3   OH235733   1.083   7.672   3.737
11931TIP3    H135734   1.023   7.739   3.769
11931TIP3    H235735   1.158   7.721   3.703
11932TIP3   OH235736   8.242   4.662   1.228
11932TIP3    H135737   8.233   4.621   1.314
11932TIP3    H235738   8.255   4.589   1.168
11933TIP3   OH235739   4.140   2.854   5.827
11933TIP3    H135740   4.054   2.893   5.843
11933TIP3    H235741   4.121   2.761   5.812
11934TIP3   OH235742   8.218   1.530   4.716
11934TIP3    H135743   8.290   1.594   4.713
11934TIP3    H235744   8.240   1.466   4.649
11935TIP3   OH235745   6.670   4.914   1.871
11935TIP3    H135746   6.585   4.921   1.827
11935TIP3    H235747   6.673   4.990   1.929
11936TIP3   OH235748   5.327   6.755   2.160
11936TIP3    H135749   5.301   6.744   2.069
11936TIP3    H235750   5.385   6.832   2.159
11937TIP3   OH235751   3.934   0.133   5.813
11937TIP3    H135752   3.909   0.134   5.720
11937TIP3    H235753   3.935   0.040   5.836
11938TIP3   OH235754   4.291   7.059   3.680
11938TIP3    H135755   4.325   7.001   3.748
11938TIP3    H235756   4.198   7.070   3.702
11939TIP3   OH235757   4.382   0.560   5.749
11939TIP3    H135758   4.450   0.520   5.804
11939TIP3    H235759   4.377   0.504   5.672
11940TIP3   OH235760   3.148   5.453   2.586
11940TIP3    H135761   3.160   5.447   2.491
11940TIP3    H235762   3.171   5.367   2.619
11941TIP3   OH235763   0.034   1.256   6.028
11941TIP3    H135764  -0.040   1.278   5.972
11941TIP3    H235765   0.102   1.319   6.005
11942TIP3   OH235766   0.048   0.348   4.031
11942TIP3    H135767   0.131   0.392   4.052
11942TIP3    H235768   0.074   0.268   3.986
11943TIP3   OH235769   4.369   2.082   2.796
11943TIP3    H135770   4.429   2.034   2.738
11943TIP3    H235771   4.313   2.132   2.738
11944TIP3   OH235772   8.291   1.242   1.230
11944TIP3    H135773   8.222   1.218   1.292
11944TIP3    H235774   8.372   1.209   1.270
11945TIP3   OH235775   2.517   1.046   1.399
11945TIP3    H135776   2.578   1.020   1.329
11945TIP3    H235777   2.448   0.979   1.396
11946TIP3   OH235778   6.407   6.479   5.845
11946TIP3    H135779   6.346   6.526   5.787
11946TIP3    H235780   6.372   6.391   5.851
11947TIP3   OH235781   5.112   7.375   3.716
11947TIP3    H135782   5.191   7.325   3.738
11947TIP3    H235783   5.079   7.406   3.800
11948TIP3   OH235784   2.920   7.918   3.193
11948TIP3    H135785   3.006   7.877   3.189
11948TIP3    H235786   2.938   8.011   3.179
11949TIP3   OH235787   1.568   4.949   3.304
11949TIP3    H135788   1.627   5.024   3.312
11949TIP3    H235789   1.501   4.978   3.242
11950TIP3   OH235790   1.198   0.512   2.219
11950TIP3    H135791   1.209   0.604   2.244
11950TIP3    H235792   1.239   0.505   2.133
11951TIP3   OH235793   7.925   4.286   6.591
11951TIP3    H135794   7.865   4.218   6.561
11951TIP3    H235795   7.993   4.239   6.639
11952TIP3   OH235796   5.103   5.485   6.594
11952TIP3    H135797   5.039   5.414   6.591
11952TIP3    H235798   5.126   5.500   6.503
11953TIP3   OH235799   1.689   0.927   5.405
11953TIP3    H135800   1.773   0.918   5.359
11953TIP3    H235801   1.634   0.977   5.344
11954TIP3   OH235802   2.436   4.812   5.000
11954TIP3    H135803   2.342   4.830   4.991
11954TIP3    H235804   2.439   4.722   5.032
11955TIP3   OH235805   8.115   2.906   0.053
11955TIP3    H135806   8.130   2.947  -0.033
11955TIP3    H235807   8.099   2.980   0.111
11956TIP3   OH235808   1.530   3.187   2.269
11956TIP3    H135809   1.547   3.240   2.347
11956TIP3    H235810   1.469   3.119   2.299
11957TIP3   OH235811   3.845   3.098   6.761
11957TIP3    H135812   3.883   3.010   6.768
11957TIP3    H235813   3.860   3.137   6.847
11958TIP3   OH235814   1.950   2.228   2.066
11958TIP3    H135815   1.913   2.212   1.979
11958TIP3    H235816   2.016   2.296   2.051
11959TIP3   OH235817   2.522   6.565   4.782
11959TIP3    H135818   2.603   6.615   4.793
11959TIP3    H235819   2.464   6.624   4.733
11960TIP3   OH235820   0.308   6.896   0.886
11960TIP3    H135821   0.381   6.945   0.925
11960TIP3    H235822   0.347   6.847   0.814
11961TIP3   OH235823   1.265   0.086   2.099
11961TIP3    H135824   1.324   0.012   2.113
11961TIP3    H235825   1.263   0.132   2.182
11962TIP3   OH235826   6.082   6.712   4.248
11962TIP3    H135827   6.170   6.699   4.285
11962TIP3    H235828   6.033   6.756   4.318
11963TIP3   OH235829   3.770   0.016   3.633
11963TIP3    H135830   3.811   0.049   3.712
11963TIP3    H235831   3.715   0.088   3.602
11964TIP3   OH235832   1.733   2.285   1.522
11964TIP3    H135833   1.722   2.359   1.582
11964TIP3    H235834   1.646   2.246   1.516
11965TIP3   OH235835   7.408   4.819   3.193
11965TIP3    H135836   7.448   4.904   3.212
11965TIP3    H235837   7.450   4.760   3.256
11966TIP3   OH235838   2.045   6.044   2.477
11966TIP3    H135839   2.111   6.101   2.515
11966TIP3    H235840   2.090   5.962   2.459
11967TIP3   OH235841   0.056   1.594   5.079
11967TIP3    H135842   0.039   1.668   5.137
11967TIP3    H235843   0.145   1.609   5.046
11968TIP3   OH235844   7.110   1.774   3.321
11968TIP3    H135845   7.131   1.731   3.404
11968TIP3    H235846   7.132   1.709   3.254
11969TIP3   OH235847   3.052   4.175   3.138
11969TIP3    H135848   2.962   4.143   3.142
11969TIP3    H235849   3.048   4.253   3.083
11970TIP3   OH235850   0.993   4.886   2.450
11970TIP3    H135851   1.087   4.868   2.445
11970TIP3    H235852   0.973   4.928   2.366
11971TIP3   OH235853   1.499   0.611   5.115
11971TIP3    H135854   1.585   0.580   5.087
11971TIP3    H235855   1.456   0.640   5.035
11972TIP3   OH235856   3.316   7.529   2.152
11972TIP3    H135857   3.332   7.454   2.209
11972TIP3    H235858   3.248   7.579   2.198
11973TIP3   OH235859   1.017   5.872   3.586
11973TIP3    H135860   1.086   5.807   3.580
11973TIP3    H235861   0.939   5.823   3.610
11974TIP3   OH235862   3.018   2.403   4.075
11974TIP3    H135863   2.931   2.418   4.039
11974TIP3    H235864   3.021   2.309   4.093
11975TIP3   OH235865   4.017   5.837   3.934
11975TIP3    H135866   4.032   5.926   3.967
11975TIP3    H235867   3.922   5.828   3.931
11976TIP3   OH235868   0.045   3.983   2.270
11976TIP3    H135869   0.134   3.986   2.307
11976TIP3    H235870  -0.001   4.056   2.311
11977TIP3   OH235871   2.351   1.560   2.737
11977TIP3    H135872   2.386   1.471   2.734
11977TIP3    H235873   2.403   1.604   2.805
11978TIP3   OH235874   3.288   4.546   2.512
11978TIP3    H135875   3.383   4.535   2.504
11978TIP3    H235876   3.253   4.517   2.428
11979TIP3   OH235877   5.624   6.121   3.951
11979TIP3    H135878   5.692   6.078   3.899
11979TIP3    H235879   5.668   6.195   3.993
11980TIP3   OH235880   5.692   6.069   6.454
11980TIP3    H135881   5.596   6.073   6.460
11980TIP3    H235882   5.708   6.011   6.379
11981TIP3   OH235883   3.784   7.897   3.868
11981TIP3    H135884   3.797   7.803   3.872
11981TIP3    H235885   3.721   7.910   3.798
11982TIP3   OH235886   8.200   2.205   1.897
11982TIP3    H135887   8.295   2.217   1.893
11982TIP3    H235888   8.181   2.198   1.990
11983TIP3   OH235889   8.094   7.176   3.611
11983TIP3    H135890   8.132   7.144   3.692
11983TIP3    H235891   8.005   7.139   3.610
11984TIP3   OH235892   3.203   1.557   4.580
11984TIP3    H135893   3.213   1.494   4.651
11984TIP3    H235894   3.137   1.518   4.522
11985TIP3   OH235895   3.949   1.094   1.102
11985TIP3    H135896   3.956   1.119   1.194
11985TIP3    H235897   3.934   0.999   1.104
11986TIP3   OH235898   7.253   4.632   1.730
11986TIP3    H135899   7.178   4.692   1.729
11986TIP3    H235900   7.309   4.666   1.800
11987TIP3   OH235901   8.373   6.545   2.981
11987TIP3    H135902   8.445   6.481   2.984
11987TIP3    H235903   8.295   6.494   3.006
11988TIP3   OH235904   4.022   1.507   0.329
11988TIP3    H135905   4.081   1.434   0.307
11988TIP3    H235906   3.966   1.471   0.398
11989TIP3   OH235907   1.789   6.408   2.140
11989TIP3    H135908   1.858   6.352   2.105
11989TIP3    H235909   1.708   6.370   2.106
11990TIP3   OH235910   1.071   3.622   3.830
11990TIP3    H135911   1.033   3.677   3.898
11990TIP3    H235912   1.140   3.573   3.874
11991TIP3   OH235913   7.999   0.757   5.538
11991TIP3    H135914   8.028   0.676   5.580
11991TIP3    H235915   8.075   0.787   5.488
11992TIP3   OH235916   4.080   5.377   5.766
11992TIP3    H135917   4.112   5.437   5.834
11992TIP3    H235918   3.985   5.375   5.779
11993TIP3   OH235919   6.497   5.178   1.811
11993TIP3    H135920   6.587   5.178   1.779
11993TIP3    H235921   6.455   5.251   1.765
11994TIP3   OH235922   6.902   5.367   3.161
11994TIP3    H135923   6.823   5.312   3.159
11994TIP3    H235924   6.868   5.457   3.167
11995TIP3   OH235925   3.528   3.243   0.516
11995TIP3    H135926   3.576   3.214   0.438
11995TIP3    H235927   3.510   3.336   0.500
11996TIP3   OH235928   1.707   5.959   6.042
11996TIP3    H135929   1.724   5.866   6.053
11996TIP3    H235930   1.793   6.001   6.053
11997TIP3   OH235931   6.941   0.898   3.640
11997TIP3    H135932   6.953   0.823   3.699
11997TIP3    H235933   6.911   0.969   3.697
11998TIP3   OH235934   1.772   0.438   4.699
11998TIP3    H135935   1.700   0.498   4.682
11998TIP3    H235936   1.823   0.439   4.618
11999TIP3   OH235937   5.578   0.000   1.990
11999TIP3    H135938   5.660   0.017   2.036
11999TIP3    H235939   5.516   0.061   2.029
12000TIP3   OH235940   3.758   0.779   2.757
12000TIP3    H135941   3.836   0.831   2.777
12000TIP3    H235942   3.687   0.843   2.753
12001TIP3   OH235943   2.361   1.985   4.637
12001TIP3    H135944   2.282   1.959   4.590
12001TIP3    H235945   2.412   2.035   4.573
12002TIP3   OH235946   5.253   5.887   4.916
12002TIP3    H135947   5.335   5.884   4.965
12002TIP3    H235948   5.242   5.797   4.883
12003TIP3   OH235949   8.175   1.532   4.990
12003TIP3    H135950   8.266   1.550   5.013
12003TIP3    H235951   8.174   1.538   4.894
12004TIP3   OH235952   2.296   3.697   6.667
12004TIP3    H135953   2.371   3.648   6.699
12004TIP3    H235954   2.227   3.632   6.656
12005TIP3   OH235955   8.345   6.457   4.161
12005TIP3    H135956   8.357   6.548   4.187
12005TIP3    H235957   8.253   6.438   4.180
12006TIP3   OH235958   2.341   3.887   5.698
12006TIP3    H135959   2.337   3.792   5.690
12006TIP3    H235960   2.260   3.918   5.656
12007TIP3   OH235961   6.417   6.100   4.926
12007TIP3    H135962   6.372   6.045   4.862
12007TIP3    H235963   6.371   6.184   4.924
12008TIP3   OH235964   7.947   7.219   6.159
12008TIP3    H135965   7.999   7.146   6.125
12008TIP3    H235966   7.893   7.246   6.085
12009TIP3   OH235967   4.969   4.038   6.559
12009TIP3    H135968   4.980   3.947   6.532
12009TIP3    H235969   4.976   4.036   6.654
12010TIP3   OH235970   0.589   0.332   1.739
12010TIP3    H135971   0.663   0.363   1.791
12010TIP3    H235972   0.514   0.339   1.798
12011TIP3   OH235973   7.447   2.869   5.904
12011TIP3    H135974   7.388   2.819   5.960
12011TIP3    H235975   7.464   2.811   5.830
12012TIP3   OH235976   5.660   3.260   3.612
12012TIP3    H135977   5.752   3.232   3.613
12012TIP3    H235978   5.665   3.356   3.610
12013TIP3   OH235979   6.289   1.137   1.456
12013TIP3    H135980   6.294   1.171   1.367
12013TIP3    H235981   6.338   1.200   1.509
12014TIP3   OH235982   0.627   3.543   6.091
12014TIP3    H135983   0.613   3.481   6.019
12014TIP3    H235984   0.552   3.603   6.085
12015TIP3   OH235985   3.808   3.983   2.113
12015TIP3    H135986   3.757   3.957   2.036
12015TIP3    H235987   3.790   3.915   2.178
12016TIP3   OH235988   7.272   0.229   3.686
12016TIP3    H135989   7.299   0.179   3.763
12016TIP3    H235990   7.198   0.282   3.717
12017TIP3   OH235991   6.198   1.836   3.569
12017TIP3    H135992   6.176   1.872   3.655
12017TIP3    H235993   6.114   1.824   3.525
12018TIP3   OH235994   3.675   1.686   3.076
12018TIP3    H135995   3.650   1.601   3.040
12018TIP3    H235996   3.754   1.711   3.027
12019TIP3   OH235997   1.476   5.648   2.263
12019TIP3    H135998   1.528   5.572   2.290
12019TIP3    H235999   1.527   5.723   2.293
12020TIP3   OH236000   1.705   5.849   6.436
12020TIP3    H136001   1.625   5.891   6.406
12020TIP3    H236002   1.718   5.882   6.525
12021TIP3   OH236003   7.439   7.156   6.075
12021TIP3    H136004   7.354   7.122   6.103
12021TIP3    H236005   7.496   7.079   6.072
12022TIP3   OH236006   1.349   1.434   4.693
12022TIP3    H136007   1.380   1.510   4.643
12022TIP3    H236008   1.406   1.362   4.664
12023TIP3   OH236009   7.163   2.176   3.379
12023TIP3    H136010   7.215   2.169   3.459
12023TIP3    H236011   7.080   2.134   3.401
12024TIP3   OH236012   6.925   1.595   0.598
12024TIP3    H136013   7.014   1.613   0.570
12024TIP3    H236014   6.897   1.674   0.644
12025TIP3   OH236015   2.300   5.661   0.050
12025TIP3    H136016   2.216   5.651   0.005
12025TIP3    H236017   2.311   5.579   0.098
12026TIP3   OH236018   3.479   4.588   5.396
12026TIP3    H136019   3.435   4.672   5.411
12026TIP3    H236020   3.453   4.564   5.307
12027TIP3   OH236021   4.145   5.218   0.739
12027TIP3    H136022   4.189   5.204   0.656
12027TIP3    H236023   4.052   5.215   0.718
12028TIP3   OH236024   4.360   2.474   2.513
12028TIP3    H136025   4.293   2.516   2.458
12028TIP3    H236026   4.443   2.502   2.474
12029TIP3   OH236027   3.768   6.019   2.436
12029TIP3    H136028   3.760   5.927   2.409
12029TIP3    H236029   3.860   6.040   2.422
12030TIP3   OH236030   5.281   5.313   0.229
12030TIP3    H136031   5.347   5.361   0.279
12030TIP3    H236032   5.311   5.319   0.138
12031TIP3   OH236033   3.426   2.408   5.361
12031TIP3    H136034   3.348   2.409   5.416
12031TIP3    H236035   3.499   2.400   5.423
12032TIP3   OH236036   3.405   3.057   5.779
12032TIP3    H136037   3.313   3.051   5.805
12032TIP3    H236038   3.420   3.151   5.765
12033TIP3   OH236039   4.937   3.914   2.367
12033TIP3    H136040   4.991   3.979   2.322
12033TIP3    H236041   4.992   3.836   2.373
12034TIP3   OH236042   7.174   2.548   3.824
12034TIP3    H136043   7.215   2.618   3.773
12034TIP3    H236044   7.114   2.594   3.883
12035TIP3   OH236045   1.606   0.298   1.354
12035TIP3    H136046   1.647   0.385   1.349
12035TIP3    H236047   1.578   0.290   1.445
12036TIP3   OH236048   3.256   3.342   3.925
12036TIP3    H136049   3.208   3.273   3.971
12036TIP3    H236050   3.335   3.355   3.977
12037TIP3   OH236051   4.295   6.181   1.508
12037TIP3    H136052   4.242   6.109   1.473
12037TIP3    H236053   4.363   6.196   1.442
12038TIP3   OH236054   6.350   5.166   5.012
12038TIP3    H136055   6.407   5.120   5.074
12038TIP3    H236056   6.382   5.141   4.926
12039TIP3   OH236057   2.566   5.774   0.936
12039TIP3    H136058   2.471   5.767   0.946
12039TIP3    H236059   2.586   5.720   0.860
12040TIP3   OH236060   5.491   7.663   0.221
12040TIP3    H136061   5.568   7.694   0.268
12040TIP3    H236062   5.469   7.580   0.263
12041TIP3   OH236063   6.739   6.700   0.150
12041TIP3    H136064   6.770   6.678   0.062
12041TIP3    H236065   6.812   6.748   0.190
12042TIP3   OH236066   2.885   7.116   5.994
12042TIP3    H136067   2.843   7.154   5.917
12042TIP3    H236068   2.976   7.105   5.968
12043TIP3   OH236069   2.029   2.756   5.842
12043TIP3    H136070   1.966   2.802   5.897
12043TIP3    H236071   2.100   2.732   5.902
12044TIP3   OH236072   5.872   1.593   2.811
12044TIP3    H136073   5.858   1.615   2.903
12044TIP3    H236074   5.810   1.650   2.764
12045TIP3   OH236075   5.193   5.318   4.296
12045TIP3    H136076   5.142   5.328   4.215
12045TIP3    H236077   5.184   5.403   4.340
12046TIP3   OH236078   0.935   5.140   3.220
12046TIP3    H136079   0.962   5.153   3.129
12046TIP3    H236080   1.018   5.132   3.268
12047TIP3   OH236081   1.515   0.217   2.514
12047TIP3    H136082   1.608   0.195   2.516
12047TIP3    H236083   1.501   0.268   2.594
12048TIP3   OH236084   3.523   6.839   1.373
12048TIP3    H136085   3.448   6.897   1.367
12048TIP3    H236086   3.551   6.825   1.282
12049TIP3   OH236087   0.122   3.235   3.194
12049TIP3    H136088   0.213   3.207   3.195
12049TIP3    H236089   0.093   3.227   3.285
12050TIP3   OH236090   3.677   0.358   3.720
12050TIP3    H136091   3.657   0.445   3.686
12050TIP3    H236092   3.696   0.306   3.642
12051TIP3   OH236093   3.412   1.026   6.266
12051TIP3    H136094   3.419   0.991   6.355
12051TIP3    H236095   3.397   1.119   6.278
12052TIP3   OH236096   7.411   0.648   0.086
12052TIP3    H136097   7.442   0.724   0.136
12052TIP3    H236098   7.371   0.591   0.152
12053TIP3   OH236099   7.494   1.628   0.933
12053TIP3    H136100   7.564   1.678   0.892
12053TIP3    H236101   7.417   1.646   0.880
12054TIP3   OH236102   0.563   1.470   2.340
12054TIP3    H136103   0.582   1.410   2.412
12054TIP3    H236104   0.475   1.504   2.360
12055TIP3   OH236105   6.053   7.868   1.210
12055TIP3    H136106   6.001   7.854   1.290
12055TIP3    H236107   6.004   7.936   1.162
12056TIP3   OH236108   1.379   7.429   4.639
12056TIP3    H136109   1.336   7.399   4.720
12056TIP3    H236110   1.434   7.356   4.612
12057TIP3   OH236111   4.513   7.115   6.301
12057TIP3    H136112   4.516   7.048   6.233
12057TIP3    H236113   4.535   7.196   6.256
12058TIP3   OH236114   1.407   2.337   2.415
12058TIP3    H136115   1.371   2.374   2.334
12058TIP3    H236116   1.331   2.302   2.461
12059TIP3   OH236117   2.292   6.286   5.080
12059TIP3    H136118   2.301   6.292   4.984
12059TIP3    H236119   2.202   6.255   5.094
12060TIP3   OH236120   3.798   2.864   6.212
12060TIP3    H136121   3.715   2.816   6.206
12060TIP3    H236122   3.794   2.908   6.297
12061TIP3   OH236123   6.737   4.233   0.161
12061TIP3    H136124   6.681   4.266   0.090
12061TIP3    H236125   6.772   4.311   0.203
12062TIP3   OH236126   1.536   3.616   5.356
12062TIP3    H136127   1.532   3.681   5.426
12062TIP3    H236128   1.618   3.569   5.372
12063TIP3   OH236129   1.748   5.825   0.752
12063TIP3    H136130   1.674   5.770   0.728
12063TIP3    H236131   1.729   5.853   0.842
12064TIP3   OH236132   0.932   3.796   4.895
12064TIP3    H136133   0.886   3.815   4.977
12064TIP3    H236134   0.878   3.835   4.827
12065TIP3   OH236135   6.579   7.214   4.343
12065TIP3    H136136   6.674   7.223   4.337
12065TIP3    H236137   6.565   7.166   4.425
12066TIP3   OH236138   1.278   7.661   3.340
12066TIP3    H136139   1.225   7.717   3.397
12066TIP3    H236140   1.316   7.596   3.399
12067TIP3   OH236141   2.658   0.338   2.245
12067TIP3    H136142   2.607   0.323   2.166
12067TIP3    H236143   2.592   0.356   2.312
12068TIP3   OH236144   7.536   2.013   5.873
12068TIP3    H136145   7.539   2.103   5.905
12068TIP3    H236146   7.601   2.010   5.804
12069TIP3   OH236147   4.909   1.218   3.891
12069TIP3    H136148   4.906   1.173   3.975
12069TIP3    H236149   4.897   1.310   3.912
12070TIP3   OH236150   1.727   2.813   4.840
12070TIP3    H136151   1.749   2.858   4.921
12070TIP3    H236152   1.802   2.755   4.824
12071TIP3   OH236153   2.099   2.658   3.465
12071TIP3    H136154   2.165   2.673   3.533
12071TIP3    H236155   2.113   2.567   3.438
12072TIP3   OH236156   8.123   7.860   2.134
12072TIP3    H136157   8.061   7.887   2.066
12072TIP3    H236158   8.183   7.934   2.143
12073TIP3   OH236159   6.612   3.098   5.780
12073TIP3    H136160   6.636   3.161   5.848
12073TIP3    H236161   6.671   3.117   5.708
12074TIP3   OH236162   2.541   4.375   5.608
12074TIP3    H136163   2.553   4.290   5.650
12074TIP3    H236164   2.599   4.434   5.656
12075TIP3   OH236165   2.886   0.957   3.870
12075TIP3    H136166   2.835   0.921   3.799
12075TIP3    H236167   2.926   1.036   3.834
12076TIP3   OH236168   3.994   6.002   2.837
12076TIP3    H136169   4.064   6.015   2.772
12076TIP3    H236170   4.008   5.914   2.870
12077TIP3   OH236171   3.107   7.471   5.150
12077TIP3    H136172   3.119   7.535   5.221
12077TIP3    H236173   3.189   7.422   5.149
12078TIP3   OH236174   4.581   4.070   1.252
12078TIP3    H136175   4.661   4.039   1.295
12078TIP3    H236176   4.525   4.098   1.325
12079TIP3   OH236177   3.898   6.591   2.414
12079TIP3    H136178   3.844   6.537   2.356
12079TIP3    H236179   3.881   6.681   2.385
12080TIP3   OH236180   2.764   2.209   5.474
12080TIP3    H136181   2.786   2.121   5.503
12080TIP3    H236182   2.848   2.257   5.478
12081TIP3   OH236183   4.067   4.152   4.158
12081TIP3    H136184   4.156   4.125   4.182
12081TIP3    H236185   4.051   4.230   4.210
12082TIP3   OH236186   4.506   0.948   4.981
12082TIP3    H136187   4.502   0.913   4.892
12082TIP3    H236188   4.599   0.962   4.998
12083TIP3   OH236189   7.966   2.010   3.082
12083TIP3    H136190   8.002   2.099   3.087
12083TIP3    H236191   8.041   1.953   3.096
12084TIP3   OH236192   3.222   2.325   6.673
12084TIP3    H136193   3.160   2.353   6.742
12084TIP3    H236194   3.304   2.369   6.696
12085TIP3   OH236195   1.240   1.846   0.659
12085TIP3    H136196   1.332   1.833   0.638
12085TIP3    H236197   1.234   1.937   0.687
12086TIP3   OH236198   5.208   1.642   0.043
12086TIP3    H136199   5.156   1.621   0.120
12086TIP3    H236200   5.218   1.558  -0.003
12087TIP3   OH236201   0.495   3.738   6.653
12087TIP3    H136202   0.403   3.751   6.676
12087TIP3    H236203   0.500   3.759   6.560
12088TIP3   OH236204   4.745   7.893   6.164
12088TIP3    H136205   4.758   7.904   6.258
12088TIP3    H236206   4.662   7.937   6.145
12089TIP3   OH236207   4.379   4.677   6.312
12089TIP3    H136208   4.332   4.597   6.290
12089TIP3    H236209   4.457   4.647   6.359
12090TIP3   OH236210   0.567   6.171   2.552
12090TIP3    H136211   0.485   6.149   2.507
12090TIP3    H236212   0.557   6.134   2.639
12091TIP3   OH236213   3.678   2.417   2.153
12091TIP3    H136214   3.590   2.395   2.124
12091TIP3    H236215   3.716   2.467   2.080
12092TIP3   OH236216   1.392   3.303   5.689
12092TIP3    H136217   1.436   3.243   5.630
12092TIP3    H236218   1.312   3.257   5.716
12093TIP3   OH236219   1.889   3.094   3.021
12093TIP3    H136220   1.812   3.127   3.066
12093TIP3    H236221   1.914   3.016   3.071
12094TIP3   OH236222   3.147   6.829   0.288
12094TIP3    H136223   3.114   6.784   0.366
12094TIP3    H236224   3.075   6.884   0.259
12095TIP3   OH236225   1.348   2.730   3.393
12095TIP3    H136226   1.410   2.735   3.320
12095TIP3    H236227   1.401   2.745   3.471
12096TIP3   OH236228   1.244   1.267   1.948
12096TIP3    H136229   1.226   1.192   2.004
12096TIP3    H236230   1.219   1.344   2.000
12097TIP3   OH236231   3.118   6.547   0.426
12097TIP3    H136232   3.156   6.473   0.472
12097TIP3    H236233   3.030   6.518   0.402
12098TIP3   OH236234   6.468   2.217   6.095
12098TIP3    H136235   6.398   2.151   6.097
12098TIP3    H236236   6.451   2.267   6.015
12099TIP3   OH236237   1.785   0.453   2.222
12099TIP3    H136238   1.804   0.362   2.247
12099TIP3    H236239   1.714   0.480   2.280
12100TIP3   OH236240   3.201   3.979   3.535
12100TIP3    H136241   3.207   3.890   3.570
12100TIP3    H236242   3.107   3.999   3.538
12101TIP3   OH236243   4.170   3.137   3.543
12101TIP3    H136244   4.093   3.109   3.493
12101TIP3    H236245   4.199   3.058   3.587
12102TIP3   OH236246   2.231   5.692   4.936
12102TIP3    H136247   2.185   5.668   4.856
12102TIP3    H236248   2.168   5.745   4.985
12103TIP3   OH236249   7.699   4.324   1.204
12103TIP3    H136250   7.628   4.351   1.146
12103TIP3    H236251   7.656   4.282   1.278
12104TIP3   OH236252   0.140   3.365   6.773
12104TIP3    H136253   0.117   3.325   6.689
12104TIP3    H236254   0.229   3.398   6.760
12105TIP3   OH236255   7.305   0.802   2.676
12105TIP3    H136256   7.296   0.895   2.654
12105TIP3    H236257   7.293   0.798   2.771
12106TIP3   OH236258   6.621   3.340   0.471
12106TIP3    H136259   6.554   3.306   0.412
12106TIP3    H236260   6.662   3.261   0.507
12107TIP3   OH236261   8.026   2.592   4.353
12107TIP3    H136262   8.097   2.616   4.293
12107TIP3    H236263   8.057   2.512   4.396
12108TIP3   OH236264   3.771   7.338   0.064
12108TIP3    H136265   3.684   7.326   0.026
12108TIP3    H236266   3.823   7.266   0.030
12109TIP3   OH236267   7.596   0.508   4.316
12109TIP3    H136268   7.593   0.599   4.344
12109TIP3    H236269   7.624   0.511   4.225
12110TIP3   OH236270   3.738   6.083   4.179
12110TIP3    H136271   3.820   6.086   4.230
12110TIP3    H236272   3.676   6.039   4.237
12111TIP3   OH236273   2.859   4.788   5.525
12111TIP3    H136274   2.827   4.873   5.497
12111TIP3    H236275   2.917   4.760   5.454
12112TIP3   OH236276   5.655   5.150   1.409
12112TIP3    H136277   5.610   5.144   1.494
12112TIP3    H236278   5.742   5.182   1.431
12113TIP3   OH236279   5.623   0.756   6.084
12113TIP3    H136280   5.602   0.779   5.994
12113TIP3    H236281   5.719   0.751   6.085
12114TIP3   OH236282   6.556   1.434   1.819
12114TIP3    H136283   6.565   1.530   1.822
12114TIP3    H236284   6.642   1.402   1.847
12115TIP3   OH236285   6.319   1.370   3.253
12115TIP3    H136286   6.253   1.334   3.313
12115TIP3    H236287   6.344   1.296   3.198
12116TIP3   OH236288   7.961   1.481   1.492
12116TIP3    H136289   7.880   1.513   1.453
12116TIP3    H236290   8.027   1.546   1.468
12117TIP3   OH236291   6.844   1.874   4.710
12117TIP3    H136292   6.758   1.837   4.728
12117TIP3    H236293   6.881   1.893   4.796
12118TIP3   OH236294   1.439   6.860   5.422
12118TIP3    H136295   1.379   6.886   5.492
12118TIP3    H236296   1.466   6.771   5.446
12119TIP3   OH236297   5.727   0.345   2.756
12119TIP3    H136298   5.636   0.353   2.730
12119TIP3    H236299   5.734   0.397   2.836
12120TIP3   OH236300   1.158   4.271   6.241
12120TIP3    H136301   1.159   4.194   6.184
12120TIP3    H236302   1.111   4.337   6.190
12121TIP3   OH236303   8.324   0.495   4.404
12121TIP3    H136304   8.310   0.582   4.442
12121TIP3    H236305   8.410   0.468   4.437
12122TIP3   OH236306   0.002   0.754   1.672
12122TIP3    H136307   0.086   0.779   1.710
12122TIP3    H236308   0.016   0.758   1.578
12123TIP3   OH236309   0.408   5.602   0.584
12123TIP3    H136310   0.368   5.534   0.637
12123TIP3    H236311   0.334   5.652   0.549
12124TIP3   OH236312   6.457   7.460   4.349
12124TIP3    H136313   6.468   7.365   4.339
12124TIP3    H236314   6.534   7.497   4.307
12125TIP3   OH236315   0.471   5.757   3.913
12125TIP3    H136316   0.416   5.680   3.923
12125TIP3    H236317   0.505   5.751   3.823
12126TIP3   OH236318   2.223   5.680   1.136
12126TIP3    H136319   2.260   5.596   1.108
12126TIP3    H236320   2.166   5.707   1.065
12127TIP3   OH236321   2.832   5.530   5.901
12127TIP3    H136322   2.792   5.500   5.983
12127TIP3    H236323   2.883   5.607   5.926
12128TIP3   OH236324   4.893   3.253   4.497
12128TIP3    H136325   4.886   3.244   4.402
12128TIP3    H236326   4.965   3.195   4.521
12129TIP3   OH236327   6.867   7.838   2.673
12129TIP3    H136328   6.869   7.878   2.759
12129TIP3    H236329   6.847   7.910   2.613
12130TIP3   OH236330   0.730   0.186   4.623
12130TIP3    H136331   0.704   0.145   4.540
12130TIP3    H236332   0.699   0.126   4.690
12131TIP3   OH236333   0.132   3.107   5.617
12131TIP3    H136334   0.139   3.069   5.530
12131TIP3    H236335   0.143   3.033   5.677
12132TIP3   OH236336   2.738   3.443   0.586
12132TIP3    H136337   2.789   3.393   0.650
12132TIP3    H236338   2.798   3.511   0.557
12133TIP3   OH236339   4.915   1.717   5.862
12133TIP3    H136340   4.946   1.753   5.779
12133TIP3    H236341   4.873   1.634   5.838
12134TIP3   OH236342   1.222   4.460   5.552
12134TIP3    H136343   1.169   4.398   5.502
12134TIP3    H236344   1.173   4.542   5.550
12135TIP3   OH236345   4.368   1.413   3.479
12135TIP3    H136346   4.380   1.345   3.412
12135TIP3    H236347   4.284   1.390   3.520
12136TIP3   OH236348   4.567   1.341   2.568
12136TIP3    H136349   4.497   1.292   2.611
12136TIP3    H236350   4.534   1.357   2.479
12137TIP3   OH236351   2.150   3.787   6.468
12137TIP3    H136352   2.081   3.726   6.493
12137TIP3    H236353   2.221   3.770   6.530
12138TIP3   OH236354   6.661   4.792   2.419
12138TIP3    H136355   6.725   4.730   2.454
12138TIP3    H236356   6.687   4.805   2.328
12139TIP3   OH236357   1.534   7.398   0.773
12139TIP3    H136358   1.536   7.321   0.831
12139TIP3    H236359   1.553   7.472   0.831
12140TIP3   OH236360   1.706   5.269   1.016
12140TIP3    H136361   1.753   5.185   1.024
12140TIP3    H236362   1.616   5.248   1.042
12141TIP3   OH236363   6.468   6.328   1.559
12141TIP3    H136364   6.462   6.268   1.484
12141TIP3    H236365   6.421   6.406   1.530
12142TIP3   OH236366   2.774   1.023   4.130
12142TIP3    H136367   2.779   0.940   4.178
12142TIP3    H236368   2.806   1.002   4.042
12143TIP3   OH236369   5.149   3.197   0.275
12143TIP3    H136370   5.238   3.222   0.301
12143TIP3    H236371   5.161   3.120   0.219
12144TIP3   OH236372   1.975   0.946   2.591
12144TIP3    H136373   2.051   0.965   2.645
12144TIP3    H236374   1.999   0.975   2.503
12145TIP3   OH236375   5.050   2.275   0.866
12145TIP3    H136376   5.059   2.359   0.821
12145TIP3    H236377   5.112   2.217   0.820
12146TIP3   OH236378   2.645   2.556   0.606
12146TIP3    H136379   2.711   2.528   0.542
12146TIP3    H236380   2.643   2.651   0.599
12147TIP3   OH236381   3.811   5.284   2.868
12147TIP3    H136382   3.890   5.236   2.893
12147TIP3    H236383   3.809   5.360   2.927
12148TIP3   OH236384   4.249   7.564   3.528
12148TIP3    H136385   4.258   7.659   3.533
12148TIP3    H236386   4.253   7.534   3.619
12149TIP3   OH236387   8.150   2.140   5.128
12149TIP3    H136388   8.136   2.224   5.172
12149TIP3    H236389   8.065   2.118   5.091
12150TIP3   OH236390   8.055   1.802   5.802
12150TIP3    H136391   8.062   1.753   5.720
12150TIP3    H236392   8.065   1.894   5.776
12151TIP3   OH236393   3.098   7.088   2.100
12151TIP3    H136394   3.062   7.170   2.135
12151TIP3    H236395   3.081   7.093   2.006
12152TIP3   OH236396   8.141   2.476   1.053
12152TIP3    H136397   8.093   2.432   1.123
12152TIP3    H236398   8.073   2.503   0.991
12153TIP3   OH236399   2.062   7.865   2.233
12153TIP3    H136400   2.102   7.878   2.319
12153TIP3    H236401   2.110   7.923   2.174
12154TIP3   OH236402   7.963   7.433   1.873
12154TIP3    H136403   7.906   7.395   1.940
12154TIP3    H236404   8.049   7.396   1.891
12155TIP3   OH236405   6.873   6.210   4.158
12155TIP3    H136406   6.811   6.177   4.223
12155TIP3    H236407   6.839   6.297   4.134
12156TIP3   OH236408   3.326   6.817   5.627
12156TIP3    H136409   3.255   6.760   5.598
12156TIP3    H236410   3.368   6.846   5.545
12157TIP3   OH236411   3.142   0.554   6.871
12157TIP3    H136412   3.052   0.586   6.858
12157TIP3    H236413   3.150   0.481   6.809
12158TIP3   OH236414   6.256   4.120   5.584
12158TIP3    H136415   6.292   4.095   5.499
12158TIP3    H236416   6.181   4.061   5.597
12159TIP3   OH236417   7.611   7.534   6.919
12159TIP3    H136418   7.637   7.548   6.828
12159TIP3    H236419   7.625   7.440   6.934
12160TIP3   OH236420   5.120   6.530   2.949
12160TIP3    H136421   5.134   6.459   2.885
12160TIP3    H236422   5.040   6.573   2.919
12161TIP3   OH236423   8.210   4.102   5.375
12161TIP3    H136424   8.252   4.017   5.358
12161TIP3    H236425   8.283   4.162   5.390
12162TIP3   OH236426   8.242   2.411   5.518
12162TIP3    H136427   8.188   2.452   5.586
12162TIP3    H236428   8.184   2.346   5.477
12163TIP3   OH236429   3.557   1.731   3.446
12163TIP3    H136430   3.598   1.660   3.495
12163TIP3    H236431   3.598   1.811   3.481
12164TIP3   OH236432   3.177   3.991   6.314
12164TIP3    H136433   3.218   3.982   6.400
12164TIP3    H236434   3.126   3.910   6.304
12165TIP3   OH236435   3.533   6.822   2.288
12165TIP3    H136436   3.546   6.793   2.379
12165TIP3    H236437   3.526   6.917   2.293
12166TIP3   OH236438   7.723   1.905   6.577
12166TIP3    H136439   7.657   1.841   6.552
12166TIP3    H236440   7.781   1.911   6.501
12167TIP3   OH236441   2.228   0.527   2.145
12167TIP3    H136442   2.212   0.445   2.098
12167TIP3    H236443   2.297   0.570   2.094
12168TIP3   OH236444   6.153   1.873   1.603
12168TIP3    H136445   6.059   1.866   1.615
12168TIP3    H236446   6.190   1.836   1.684
12169TIP3   OH236447   6.212   7.647   5.310
12169TIP3    H136448   6.208   7.553   5.296
12169TIP3    H236449   6.256   7.682   5.233
12170TIP3   OH236450   8.392   1.908   2.212
12170TIP3    H136451   8.381   1.922   2.118
12170TIP3    H236452   8.307   1.929   2.250
12171TIP3   OH236453   1.385   6.081   6.537
12171TIP3    H136454   1.339   6.016   6.484
12171TIP3    H236455   1.445   6.029   6.591
12172TIP3   OH236456   6.727   1.582   2.401
12172TIP3    H136457   6.660   1.594   2.469
12172TIP3    H236458   6.801   1.634   2.432
12173TIP3   OH236459   2.876   3.356   0.353
12173TIP3    H136460   2.861   3.300   0.429
12173TIP3    H236461   2.901   3.441   0.389
12174TIP3   OH236462   6.425   7.316   2.418
12174TIP3    H136463   6.476   7.235   2.411
12174TIP3    H236464   6.335   7.287   2.433
12175TIP3   OH236465   4.894   4.454   6.143
12175TIP3    H136466   4.839   4.502   6.081
12175TIP3    H236467   4.858   4.365   6.142
12176TIP3   OH236468   0.907   6.735   5.259
12176TIP3    H136469   0.853   6.742   5.180
12176TIP3    H236470   0.850   6.695   5.324
12177TIP3   OH236471   2.989   6.821   3.973
12177TIP3    H136472   3.076   6.790   3.948
12177TIP3    H236473   2.948   6.846   3.891
12178TIP3   OH236474   6.855   5.506   0.771
12178TIP3    H136475   6.944   5.515   0.803
12178TIP3    H236476   6.801   5.496   0.850
12179TIP3   OH236477   0.359   1.474   2.758
12179TIP3    H136478   0.296   1.520   2.703
12179TIP3    H236479   0.306   1.415   2.811
12180TIP3   OH236480   3.929   0.982   2.778
12180TIP3    H136481   3.980   1.046   2.728
12180TIP3    H236482   3.944   1.006   2.869
12181TIP3   OH236483   5.485   7.800   0.735
12181TIP3    H136484   5.523   7.884   0.762
12181TIP3    H236485   5.531   7.736   0.788
12182TIP3   OH236486   0.128   7.438   0.744
12182TIP3    H136487   0.105   7.367   0.683
12182TIP3    H236488   0.197   7.401   0.799
12183TIP3   OH236489   0.946   1.182   3.897
12183TIP3    H136490   0.887   1.239   3.847
12183TIP3    H236491   0.892   1.106   3.921
12184TIP3   OH236492   1.188   4.943   1.132
12184TIP3    H136493   1.101   4.978   1.115
12184TIP3    H236494   1.176   4.848   1.134
12185TIP3   OH236495   1.644   7.115   5.531
12185TIP3    H136496   1.585   7.041   5.545
12185TIP3    H236497   1.626   7.143   5.441
12186TIP3   OH236498   0.178   2.587   1.897
12186TIP3    H136499   0.262   2.610   1.936
12186TIP3    H236500   0.149   2.666   1.853
12187TIP3   OH236501   0.738   0.931   1.052
12187TIP3    H136502   0.665   0.895   1.102
12187TIP3    H236503   0.720   1.025   1.048
12188TIP3   OH236504   6.939   5.994   2.722
12188TIP3    H136505   6.921   5.902   2.743
12188TIP3    H236506   6.854   6.037   2.731
12189TIP3   OH236507   3.690   0.475   6.222
12189TIP3    H136508   3.659   0.547   6.277
12189TIP3    H236509   3.612   0.423   6.204
12190TIP3   OH236510   4.514   4.060   6.141
12190TIP3    H136511   4.428   4.083   6.176
12190TIP3    H236512   4.547   3.993   6.201
12191TIP3   OH236513   6.499   3.572   4.619
12191TIP3    H136514   6.486   3.659   4.656
12191TIP3    H236515   6.419   3.554   4.570
12192TIP3   OH236516   7.104   7.691   0.828
12192TIP3    H136517   7.171   7.749   0.791
12192TIP3    H236518   7.149   7.643   0.897
12193TIP3   OH236519   3.357   1.097   2.410
12193TIP3    H136520   3.452   1.095   2.402
12193TIP3    H236521   3.326   1.033   2.346
12194TIP3   OH236522   5.463   5.282   5.547
12194TIP3    H136523   5.424   5.260   5.462
12194TIP3    H236524   5.413   5.232   5.611
12195TIP3   OH236525   5.485   5.467   1.852
12195TIP3    H136526   5.544   5.527   1.807
12195TIP3    H236527   5.428   5.434   1.783
12196TIP3   OH236528   8.124   3.247   6.057
12196TIP3    H136529   8.111   3.155   6.078
12196TIP3    H236530   8.175   3.281   6.131
12197TIP3   OH236531   5.263   3.230   5.026
12197TIP3    H136532   5.334   3.168   5.036
12197TIP3    H236533   5.251   3.268   5.113
12198TIP3   OH236534   5.292   1.187   4.612
12198TIP3    H136535   5.217   1.187   4.553
12198TIP3    H236536   5.364   1.152   4.560
12199TIP3   OH236537   0.648   1.576   2.735
12199TIP3    H136538   0.709   1.648   2.718
12199TIP3    H236539   0.563   1.619   2.745
12200TIP3   OH236540   6.706   2.506   0.289
12200TIP3    H136541   6.777   2.456   0.330
12200TIP3    H236542   6.696   2.466   0.203
12201TIP3   OH236543   5.242   0.276   4.993
12201TIP3    H136544   5.209   0.302   5.079
12201TIP3    H236545   5.297   0.200   5.010
12202TIP3   OH236546   6.321   4.834   3.599
12202TIP3    H136547   6.229   4.843   3.623
12202TIP3    H236548   6.338   4.908   3.541
12203TIP3   OH236549   8.006   5.611   5.000
12203TIP3    H136550   7.990   5.519   5.020
12203TIP3    H236551   7.930   5.637   4.948
12204TIP3   OH236552   3.467   5.962   1.403
12204TIP3    H136553   3.490   6.054   1.389
12204TIP3    H236554   3.372   5.963   1.412
12205TIP3   OH236555   5.122   4.568   2.826
12205TIP3    H136556   5.126   4.575   2.731
12205TIP3    H236557   5.115   4.474   2.843
12206TIP3   OH236558   2.470   4.581   5.139
12206TIP3    H136559   2.523   4.566   5.218
12206TIP3    H236560   2.385   4.541   5.159
12207TIP3   OH236561   8.120   4.493   1.704
12207TIP3    H136562   8.191   4.430   1.702
12207TIP3    H236563   8.050   4.450   1.753
12208TIP3   OH236564   7.242   4.108   4.085
12208TIP3    H136565   7.179   4.137   4.020
12208TIP3    H236566   7.209   4.141   4.169
12209TIP3   OH236567   3.537   5.292   6.369
12209TIP3    H136568   3.614   5.254   6.327
12209TIP3    H236569   3.573   5.340   6.444
12210TIP3   OH236570   1.448   3.402   3.044
12210TIP3    H136571   1.373   3.461   3.046
12210TIP3    H236572   1.460   3.375   3.135
12211TIP3   OH236573   3.212   7.529   6.365
12211TIP3    H136574   3.300   7.561   6.383
12211TIP3    H236575   3.216   7.435   6.385
12212TIP3   OH236576   1.937   2.926   4.073
12212TIP3    H136577   1.857   2.880   4.047
12212TIP3    H236578   2.004   2.893   4.013
12213TIP3   OH236579   3.915   0.132   2.061
12213TIP3    H136580   3.938   0.098   1.975
12213TIP3    H236581   3.861   0.209   2.043
12214TIP3   OH236582   5.817   1.451   4.929
12214TIP3    H136583   5.797   1.367   4.970
12214TIP3    H236584   5.843   1.430   4.840
12215TIP3   OH236585   2.518   2.206   4.861
12215TIP3    H136586   2.514   2.110   4.871
12215TIP3    H236587   2.602   2.222   4.816
12216TIP3   OH236588   6.041   6.251   3.662
12216TIP3    H136589   5.999   6.261   3.748
12216TIP3    H236590   6.118   6.197   3.679
12217TIP3   OH236591   0.957   1.652   4.585
12217TIP3    H136592   0.869   1.687   4.599
12217TIP3    H236593   0.982   1.617   4.671
12218TIP3   OH236594   0.285   1.536   2.342
12218TIP3    H136595   0.231   1.492   2.406
12218TIP3    H236596   0.223   1.573   2.279
12219TIP3   OH236597   7.417   7.316   2.726
12219TIP3    H136598   7.437   7.364   2.645
12219TIP3    H236599   7.486   7.250   2.732
12220TIP3   OH236600   7.577   7.136   1.406
12220TIP3    H136601   7.500   7.171   1.362
12220TIP3    H236602   7.546   7.056   1.449
12221TIP3   OH236603   3.823   1.641   4.350
12221TIP3    H136604   3.764   1.715   4.334
12221TIP3    H236605   3.851   1.651   4.441
12222TIP3   OH236606   3.658   6.686   5.668
12222TIP3    H136607   3.729   6.626   5.689
12222TIP3    H236608   3.623   6.652   5.585
12223TIP3   OH236609   0.057   1.645   0.513
12223TIP3    H136610   0.146   1.648   0.476
12223TIP3    H236611   0.019   1.564   0.478
12224TIP3   OH236612   5.637   5.819   3.258
12224TIP3    H136613   5.650   5.815   3.163
12224TIP3    H236614   5.713   5.868   3.290
12225TIP3   OH236615   5.015   7.678   4.284
12225TIP3    H136616   4.986   7.712   4.199
12225TIP3    H236617   5.067   7.749   4.321
12226TIP3   OH236618   3.256   0.611   4.113
12226TIP3    H136619   3.307   0.541   4.073
12226TIP3    H236620   3.166   0.579   4.113
12227TIP3   OH236621   5.786   4.596   0.445
12227TIP3    H136622   5.808   4.506   0.424
12227TIP3    H236623   5.721   4.621   0.379
12228TIP3   OH236624   3.039   0.006   0.001
12228TIP3    H136625   3.024  -0.004   0.095
12228TIP3    H236626   3.067   0.097  -0.009
12229TIP3   OH236627   8.295   1.351   5.231
12229TIP3    H136628   8.330   1.289   5.167
12229TIP3    H236629   8.273   1.429   5.180
12230TIP3   OH236630   3.637   5.114   6.675
12230TIP3    H136631   3.556   5.095   6.629
12230TIP3    H236632   3.706   5.092   6.613
12231TIP3   OH236633   2.531   2.395   0.790
12231TIP3    H136634   2.540   2.467   0.729
12231TIP3    H236635   2.613   2.346   0.782
12232TIP3   OH236636   4.590   6.115   2.106
12232TIP3    H136637   4.668   6.146   2.153
12232TIP3    H236638   4.596   6.156   2.020
12233TIP3   OH236639   4.990   2.081   5.424
12233TIP3    H136640   4.963   2.172   5.416
12233TIP3    H236641   4.940   2.035   5.356
12234TIP3   OH236642   4.136   4.938   1.436
12234TIP3    H136643   4.209   4.883   1.466
12234TIP3    H236644   4.145   5.018   1.486
12235TIP3   OH236645   5.561   4.406   1.561
12235TIP3    H136646   5.530   4.462   1.632
12235TIP3    H236647   5.505   4.429   1.486
12236TIP3   OH236648   6.448   2.070   5.218
12236TIP3    H136649   6.432   2.120   5.298
12236TIP3    H236650   6.527   2.109   5.181
12237TIP3   OH236651   0.788   5.733   6.215
12237TIP3    H136652   0.709   5.711   6.166
12237TIP3    H236653   0.860   5.710   6.155
12238TIP3   OH236654   5.538   1.301   5.060
12238TIP3    H136655   5.474   1.259   5.003
12238TIP3    H236656   5.621   1.260   5.036
12239TIP3   OH236657   8.073   3.329   2.990
12239TIP3    H136658   8.011   3.387   3.035
12239TIP3    H236659   8.126   3.388   2.936
12240TIP3   OH236660   1.544   0.577   4.017
12240TIP3    H136661   1.613   0.626   4.062
12240TIP3    H236662   1.538   0.618   3.931
12241TIP3   OH236663   1.938   7.651   2.096
12241TIP3    H136664   1.943   7.722   2.160
12241TIP3    H236665   1.923   7.572   2.148
12242TIP3   OH236666   8.293   4.185   3.119
12242TIP3    H136667   8.301   4.090   3.109
12242TIP3    H236668   8.226   4.196   3.187
12243TIP3   OH236669   2.354   0.517   4.761
12243TIP3    H136670   2.282   0.460   4.736
12243TIP3    H236671   2.341   0.531   4.855
12244TIP3   OH236672   6.337   0.121   3.777
12244TIP3    H136673   6.403   0.111   3.709
12244TIP3    H236674   6.329   0.215   3.790
12245TIP3   OH236675   7.102   7.706   5.692
12245TIP3    H136676   7.051   7.657   5.756
12245TIP3    H236677   7.038   7.762   5.648
12246TIP3   OH236678   5.647   6.437   2.910
12246TIP3    H136679   5.594   6.493   2.853
12246TIP3    H236680   5.713   6.495   2.947
12247TIP3   OH236681   1.443   3.016   3.670
12247TIP3    H136682   1.367   3.013   3.611
12247TIP3    H236683   1.471   3.107   3.667
12248TIP3   OH236684   0.392   6.688   3.583
12248TIP3    H136685   0.433   6.726   3.505
12248TIP3    H236686   0.348   6.609   3.551
12249TIP3   OH236687   4.114   1.488   6.066
12249TIP3    H136688   4.027   1.506   6.103
12249TIP3    H236689   4.168   1.561   6.097
12250TIP3   OH236690   3.652   0.842   4.424
12250TIP3    H136691   3.627   0.799   4.343
12250TIP3    H236692   3.722   0.903   4.399
12251TIP3   OH236693   4.689   3.402   4.884
12251TIP3    H136694   4.601   3.375   4.855
12251TIP3    H236695   4.741   3.402   4.803
12252TIP3   OH236696   7.951   1.396   5.082
12252TIP3    H136697   8.011   1.466   5.057
12252TIP3    H236698   7.924   1.357   4.999
12253TIP3   OH236699   4.048   5.444   2.713
12253TIP3    H136700   4.001   5.429   2.631
12253TIP3    H236701   4.101   5.523   2.696
12254TIP3   OH236702   6.289   4.841   2.959
12254TIP3    H136703   6.269   4.775   2.893
12254TIP3    H236704   6.213   4.840   3.018
12255TIP3   OH236705   2.247   5.406   5.905
12255TIP3    H136706   2.198   5.354   5.969
12255TIP3    H236707   2.330   5.360   5.895
12256TIP3   OH236708   1.490   5.815   5.499
12256TIP3    H136709   1.465   5.723   5.501
12256TIP3    H236710   1.540   5.829   5.579
12257TIP3   OH236711   5.938   0.021   6.562
12257TIP3    H136712   5.929   0.079   6.638
12257TIP3    H236713   5.958   0.080   6.489
12258TIP3   OH236714   7.097   5.155   6.830
12258TIP3    H136715   7.168   5.173   6.768
12258TIP3    H236716   7.115   5.068   6.864
12259TIP3   OH236717   7.373   4.730   5.933
12259TIP3    H136718   7.431   4.735   5.857
12259TIP3    H236719   7.292   4.693   5.899
12260TIP3   OH236720   4.494   0.628   4.521
12260TIP3    H136721   4.573   0.638   4.468
12260TIP3    H236722   4.525   0.589   4.603
12261TIP3   OH236723   1.073   1.082   5.764
12261TIP3    H136724   1.019   1.103   5.840
12261TIP3    H236725   1.053   1.152   5.701
12262TIP3   OH236726   0.735   5.609   4.382
12262TIP3    H136727   0.827   5.616   4.355
12262TIP3    H236728   0.687   5.590   4.302
12263TIP3   OH236729   7.855   2.092   5.111
12263TIP3    H136730   7.864   2.082   5.017
12263TIP3    H236731   7.858   2.003   5.146
12264TIP3   OH236732   3.294   0.339   6.024
12264TIP3    H136733   3.261   0.259   5.983
12264TIP3    H236734   3.340   0.386   5.955
12265TIP3   OH236735   0.406   7.920   0.711
12265TIP3    H136736   0.376   7.884   0.794
12265TIP3    H236737   0.495   7.885   0.700
12266TIP3   OH236738   1.168   6.064   1.696
12266TIP3    H136739   1.075   6.082   1.684
12266TIP3    H236740   1.178   5.973   1.671
12267TIP3   OH236741   6.082   4.615   4.975
12267TIP3    H136742   6.141   4.685   5.003
12267TIP3    H236743   6.020   4.605   5.048
12268TIP3   OH236744   3.481   4.424   5.725
12268TIP3    H136745   3.460   4.401   5.634
12268TIP3    H236746   3.576   4.417   5.730
12269TIP3   OH236747   7.190   5.182   4.727
12269TIP3    H136748   7.124   5.136   4.779
12269TIP3    H236749   7.167   5.163   4.636
12270TIP3   OH236750   3.502   1.498   1.229
12270TIP3    H136751   3.418   1.491   1.183
12270TIP3    H236752   3.567   1.470   1.165
12271TIP3   OH236753   2.358   2.415   2.986
12271TIP3    H136754   2.360   2.480   2.915
12271TIP3    H236755   2.445   2.374   2.983
12272TIP3   OH236756   0.969   4.848   5.618
12272TIP3    H136757   0.943   4.839   5.709
12272TIP3    H236758   0.889   4.876   5.573
12273TIP3   OH236759   7.093   5.804   1.653
12273TIP3    H136760   7.173   5.778   1.607
12273TIP3    H236761   7.093   5.899   1.648
12274TIP3   OH236762   3.894   2.460   0.036
12274TIP3    H136763   3.974   2.410   0.017
12274TIP3    H236764   3.861   2.424   0.118
12275TIP3   OH236765   4.948   3.248   5.190
12275TIP3    H136766   4.969   3.159   5.162
12275TIP3    H236767   4.936   3.240   5.285
12276TIP3   OH236768   5.179   4.613   1.528
12276TIP3    H136769   5.085   4.600   1.540
12276TIP3    H236770   5.187   4.701   1.492
12277TIP3   OH236771   3.906   7.120   5.807
12277TIP3    H136772   3.931   7.155   5.722
12277TIP3    H236773   3.849   7.045   5.787
12278TIP3   OH236774   4.702   7.214   2.311
12278TIP3    H136775   4.793   7.234   2.287
12278TIP3    H236776   4.656   7.211   2.227
12279TIP3   OH236777   3.560   5.236   4.036
12279TIP3    H136778   3.469   5.221   4.008
12279TIP3    H236779   3.606   5.258   3.955
12280TIP3   OH236780   0.866  -0.004   4.395
12280TIP3    H136781   0.933   0.040   4.342
12280TIP3    H236782   0.894   0.011   4.485
12281TIP3   OH236783   5.848   5.997   5.855
12281TIP3    H136784   5.833   5.953   5.939
12281TIP3    H236785   5.832   5.930   5.789
12282TIP3   OH236786   0.642   1.595   4.420
12282TIP3    H136787   0.556   1.553   4.426
12282TIP3    H236788   0.642   1.659   4.492
12283TIP3   OH236789   4.308   1.077   0.664
12283TIP3    H136790   4.256   1.133   0.606
12283TIP3    H236791   4.393   1.070   0.620
12284TIP3   OH236792   2.228   5.527   2.281
12284TIP3    H136793   2.229   5.463   2.352
12284TIP3    H236794   2.320   5.549   2.266
12285TIP3   OH236795   5.709   7.375   2.535
12285TIP3    H136796   5.629   7.381   2.587
12285TIP3    H236797   5.776   7.347   2.597
12286TIP3   OH236798   6.445   6.565   4.709
12286TIP3    H136799   6.381   6.584   4.779
12286TIP3    H236800   6.523   6.615   4.734
12287TIP3   OH236801   2.271   6.525   2.878
12287TIP3    H136802   2.260   6.445   2.827
12287TIP3    H236803   2.182   6.558   2.890
12288TIP3   OH236804   6.676   6.168   6.411
12288TIP3    H136805   6.617   6.164   6.487
12288TIP3    H236806   6.648   6.097   6.355
12289TIP3   OH236807   2.189   3.872   2.927
12289TIP3    H136808   2.141   3.929   2.867
12289TIP3    H236809   2.270   3.851   2.880
12290TIP3   OH236810   2.795   7.529   3.571
12290TIP3    H136811   2.737   7.520   3.496
12290TIP3    H236812   2.846   7.448   3.572
12291TIP3   OH236813   4.359   1.616   2.596
12291TIP3    H136814   4.350   1.683   2.665
12291TIP3    H236815   4.394   1.664   2.521
12292TIP3   OH236816   6.004   0.797   2.603
12292TIP3    H136817   5.972   0.707   2.596
12292TIP3    H236818   6.073   0.803   2.536
12293TIP3   OH236819   2.259   0.498   6.852
12293TIP3    H136820   2.180   0.487   6.800
12293TIP3    H236821   2.303   0.413   6.848
12294TIP3   OH236822   2.945   3.844   6.210
12294TIP3    H136823   2.911   3.826   6.298
12294TIP3    H236824   2.943   3.939   6.202
12295TIP3   OH236825   7.975   6.623   2.942
12295TIP3    H136826   7.948   6.700   2.992
12295TIP3    H236827   7.894   6.572   2.931
12296TIP3   OH236828   2.259   1.059   3.727
12296TIP3    H136829   2.293   0.986   3.676
12296TIP3    H236830   2.328   1.079   3.790
12297TIP3   OH236831   5.306   5.207   5.777
12297TIP3    H136832   5.283   5.256   5.698
12297TIP3    H236833   5.262   5.255   5.848
12298TIP3   OH236834   2.156   6.407   6.207
12298TIP3    H136835   2.174   6.312   6.207
12298TIP3    H236836   2.215   6.442   6.273
12299TIP3   OH236837   7.481   6.027   6.542
12299TIP3    H136838   7.516   6.116   6.527
12299TIP3    H236839   7.429   6.009   6.464
12300TIP3   OH236840   1.260   0.927   4.037
12300TIP3    H136841   1.215   1.012   4.033
12300TIP3    H236842   1.342   0.946   4.084
12301TIP3   OH236843   2.009   4.638   1.771
12301TIP3    H136844   1.981   4.730   1.762
12301TIP3    H236845   2.056   4.636   1.854
12302TIP3   OH236846   0.359   1.018   4.235
12302TIP3    H136847   0.402   0.999   4.152
12302TIP3    H236848   0.428   1.012   4.301
12303TIP3   OH236849   6.647   6.737   4.778
12303TIP3    H136850   6.626   6.825   4.811
12303TIP3    H236851   6.734   6.719   4.812
12304TIP3   OH236852   5.631   6.793   4.667
12304TIP3    H136853   5.672   6.880   4.662
12304TIP3    H236854   5.609   6.782   4.759
12305TIP3   OH236855   8.043   7.772   6.738
12305TIP3    H136856   8.038   7.830   6.662
12305TIP3    H236857   8.008   7.824   6.810
12306TIP3   OH236858   1.511   1.496   5.862
12306TIP3    H136859   1.456   1.571   5.884
12306TIP3    H236860   1.495   1.433   5.932
12307TIP3   OH236861   8.375   6.278   3.416
12307TIP3    H136862   8.335   6.205   3.368
12307TIP3    H236863   8.314   6.350   3.405
12308TIP3   OH236864   6.893   0.436   6.539
12308TIP3    H136865   6.868   0.417   6.629
12308TIP3    H236866   6.811   0.458   6.495
12309TIP3   OH236867   6.103   4.402   5.380
12309TIP3    H136868   6.036   4.414   5.447
12309TIP3    H236869   6.054   4.382   5.300
12310TIP3   OH236870   3.239   0.625   2.358
12310TIP3    H136871   3.271   0.692   2.418
12310TIP3    H236872   3.190   0.564   2.413
12311TIP3   OH236873   3.531   3.519   3.279
12311TIP3    H136874   3.621   3.506   3.309
12311TIP3    H236875   3.485   3.553   3.355
12312TIP3   OH236876   6.484   0.314   3.445
12312TIP3    H136877   6.445   0.351   3.365
12312TIP3    H236878   6.487   0.220   3.428
12313TIP3   OH236879   3.934   4.473   6.243
12313TIP3    H136880   3.974   4.432   6.166
12313TIP3    H236881   3.840   4.469   6.225
12314TIP3   OH236882   8.135   1.962   2.315
12314TIP3    H136883   8.146   1.903   2.390
12314TIP3    H236884   8.052   2.007   2.331
12315TIP3   OH236885   7.556   4.866   0.574
12315TIP3    H136886   7.596   4.860   0.487
12315TIP3    H236887   7.488   4.799   0.574
12316TIP3   OH236888   3.506   7.739   2.177
12316TIP3    H136889   3.497   7.736   2.272
12316TIP3    H236890   3.474   7.654   2.147
12317TIP3   OH236891   5.892   0.143   2.888
12317TIP3    H136892   5.863   0.189   2.967
12317TIP3    H236893   5.811   0.117   2.844
12318TIP3   OH236894   6.556   7.059   4.557
12318TIP3    H136895   6.648   7.032   4.560
12318TIP3    H236896   6.507   6.976   4.551
12319TIP3   OH236897   1.932   5.707   5.671
12319TIP3    H136898   2.001   5.714   5.605
12319TIP3    H236899   1.911   5.614   5.674
12320TIP3   OH236900   6.218   4.131   1.307
12320TIP3    H136901   6.131   4.167   1.293
12320TIP3    H236902   6.208   4.037   1.293
12321TIP3   OH236903   0.997   7.368   4.302
12321TIP3    H136904   1.042   7.306   4.359
12321TIP3    H236905   1.066   7.429   4.274
12322TIP3   OH236906   0.622   2.026   1.052
12322TIP3    H136907   0.588   2.082   0.983
12322TIP3    H236908   0.645   2.087   1.123
12323TIP3   OH236909   3.093   3.479   0.103
12323TIP3    H136910   3.024   3.530   0.061
12323TIP3    H236911   3.121   3.533   0.177
12324TIP3   OH236912   5.460   5.816   6.775
12324TIP3    H136913   5.474   5.730   6.816
12324TIP3    H236914   5.434   5.796   6.685
12325TIP3   OH236915   0.273   0.143   6.289
12325TIP3    H136916   0.244   0.174   6.375
12325TIP3    H236917   0.234   0.204   6.227
12326TIP3   OH236918   3.850   4.468   2.396
12326TIP3    H136919   3.806   4.548   2.424
12326TIP3    H236920   3.932   4.468   2.446
12327TIP3   OH236921   7.080   1.717   1.282
12327TIP3    H136922   6.993   1.741   1.315
12327TIP3    H236923   7.083   1.622   1.288
12328TIP3   OH236924   5.359   1.749   5.872
12328TIP3    H136925   5.293   1.694   5.913
12328TIP3    H236926   5.309   1.811   5.818
12329TIP3   OH236927   3.720   3.046   5.683
12329TIP3    H136928   3.796   3.019   5.735
12329TIP3    H236929   3.657   3.078   5.748
12330TIP3   OH236930   0.454   7.793   5.785
12330TIP3    H136931   0.438   7.701   5.765
12330TIP3    H236932   0.458   7.836   5.699
12331TIP3   OH236933   5.599   0.168   6.684
12331TIP3    H136934   5.644   0.246   6.652
12331TIP3    H236935   5.623   0.099   6.622
12332TIP3   OH236936   2.548   3.474   2.105
12332TIP3    H136937   2.459   3.452   2.132
12332TIP3    H236938   2.577   3.398   2.054
12333TIP3   OH236939   0.613   5.454   2.455
12333TIP3    H136940   0.620   5.445   2.550
12333TIP3    H236941   0.541   5.396   2.430
12334TIP3   OH236942   8.063   6.514   2.277
12334TIP3    H136943   8.068   6.419   2.261
12334TIP3    H236944   8.155   6.540   2.287
12335TIP3   OH236945   7.008   0.890   0.321
12335TIP3    H136946   6.940   0.920   0.381
12335TIP3    H236947   7.074   0.850   0.377
12336TIP3   OH236948   3.519   4.859   5.699
12336TIP3    H136949   3.437   4.907   5.707
12336TIP3    H236950   3.538   4.828   5.788
12337TIP3   OH236951   5.039   0.894   2.591
12337TIP3    H136952   5.133   0.882   2.584
12337TIP3    H236953   5.007   0.885   2.501
12338TIP3   OH236954   7.233   5.442   5.613
12338TIP3    H136955   7.169   5.511   5.629
12338TIP3    H236956   7.284   5.438   5.695
12339TIP3   OH236957   2.974   1.855   4.357
12339TIP3    H136958   2.897   1.805   4.329
12339TIP3    H236959   2.943   1.946   4.360
12340TIP3   OH236960   6.467   0.628   4.689
12340TIP3    H136961   6.437   0.653   4.602
12340TIP3    H236962   6.560   0.610   4.678
12341TIP3   OH236963   5.599   7.670   6.562
12341TIP3    H136964   5.554   7.652   6.479
12341TIP3    H236965   5.602   7.585   6.606
12342TIP3   OH236966   7.407   1.884   6.580
12342TIP3    H136967   7.359   1.831   6.517
12342TIP3    H236968   7.370   1.860   6.665
12343TIP3   OH236969   6.237   6.265   5.873
12343TIP3    H136970   6.149   6.230   5.886
12343TIP3    H236971   6.289   6.226   5.943
12344TIP3   OH236972   2.544   7.066   6.687
12344TIP3    H136973   2.517   7.157   6.705
12344TIP3    H236974   2.621   7.053   6.741
12345TIP3   OH236975   5.361   5.259   1.463
12345TIP3    H136976   5.419   5.305   1.402
12345TIP3    H236977   5.415   5.241   1.539
12346TIP3   OH236978   4.693   0.699   1.043
12346TIP3    H136979   4.715   0.613   1.006
12346TIP3    H236980   4.605   0.688   1.080
12347TIP3   OH236981   8.037   3.324   4.248
12347TIP3    H136982   7.970   3.264   4.216
12347TIP3    H236983   8.098   3.334   4.175
12348TIP3   OH236984   0.705   3.261   1.780
12348TIP3    H136985   0.668   3.271   1.868
12348TIP3    H236986   0.635   3.219   1.730
12349TIP3   OH236987   4.751   3.769   4.010
12349TIP3    H136988   4.836   3.728   4.026
12349TIP3    H236989   4.715   3.722   3.935
12350TIP3   OH236990   7.078   4.455   1.862
12350TIP3    H136991   7.138   4.524   1.833
12350TIP3    H236992   7.100   4.440   1.953
12351TIP3   OH236993   3.041   5.048   5.819
12351TIP3    H136994   2.988   5.123   5.793
12351TIP3    H236995   2.978   4.976   5.826
12352TIP3   OH236996   6.768   3.267   1.682
12352TIP3    H136997   6.850   3.299   1.720
12352TIP3    H236998   6.757   3.180   1.720
12353TIP3   OH236999   3.245   6.867   3.493
12353TIP3    H137000   3.241   6.919   3.573
12353TIP3    H237001   3.255   6.777   3.523
12354TIP3   OH237002   3.088   0.303   3.061
12354TIP3    H137003   3.090   0.208   3.049
12354TIP3    H237004   3.161   0.335   3.007
12355TIP3   OH237005   6.344   4.128   5.853
12355TIP3    H137006   6.264   4.116   5.904
12355TIP3    H237007   6.314   4.134   5.762
12356TIP3   OH237008   0.716   0.956   3.638
12356TIP3    H137009   0.740   1.032   3.693
12356TIP3    H237010   0.791   0.944   3.580
12357TIP3   OH237011   7.689   5.815   6.536
12357TIP3    H137012   7.745   5.826   6.459
12357TIP3    H237013   7.684   5.902   6.575
12358TIP3   OH237014   1.907   6.168   1.656
12358TIP3    H137015   1.930   6.260   1.646
12358TIP3    H237016   1.921   6.150   1.749
12359TIP3   OH237017   7.179   4.830   2.858
12359TIP3    H137018   7.144   4.741   2.861
12359TIP3    H237019   7.258   4.824   2.803
12360TIP3   OH237020   8.070   1.084   5.943
12360TIP3    H137021   8.132   1.129   5.885
12360TIP3    H237022   8.104   1.099   6.031
12361TIP3   OH237023   0.332   4.591   3.504
12361TIP3    H137024   0.289   4.506   3.513
12361TIP3    H237025   0.314   4.618   3.413
12362TIP3   OH237026   7.551   3.683   3.458
12362TIP3    H137027   7.533   3.777   3.453
12362TIP3    H237028   7.475   3.647   3.504
12363TIP3   OH237029   0.126   7.263   6.126
12363TIP3    H137030   0.034   7.277   6.147
12363TIP3    H237031   0.171   7.269   6.210
12364TIP3   OH237032   8.162   2.615   2.380
12364TIP3    H137033   8.246   2.577   2.406
12364TIP3    H237034   8.106   2.539   2.363
12365TIP3   OH237035   0.132   0.346   0.433
12365TIP3    H137036   0.037   0.331   0.429
12365TIP3    H237037   0.170   0.258   0.440
12366TIP3   OH237038   1.656   2.404   2.305
12366TIP3    H137039   1.628   2.409   2.214
12366TIP3    H237040   1.579   2.372   2.352
12367TIP3   OH237041   0.102   4.487   1.060
12367TIP3    H137042   0.175   4.549   1.069
12367TIP3    H237043   0.072   4.471   1.149
12368TIP3   OH237044   4.515   1.774   1.857
12368TIP3    H137045   4.454   1.842   1.828
12368TIP3    H237046   4.574   1.819   1.918
12369TIP3   OH237047   5.154   5.799   1.534
12369TIP3    H137048   5.119   5.723   1.487
12369TIP3    H237049   5.221   5.762   1.591
12370TIP3   OH237050   2.480   7.262   2.940
12370TIP3    H137051   2.468   7.200   3.012
12370TIP3    H237052   2.546   7.221   2.883
12371TIP3   OH237053   0.042   6.865   0.924
12371TIP3    H137054   0.014   6.858   0.833
12371TIP3    H237055   0.135   6.888   0.920
12372TIP3   OH237056   5.308   5.095   0.729
12372TIP3    H137057   5.346   5.112   0.815
12372TIP3    H237058   5.345   5.011   0.702
12373TIP3   OH237059   4.340   4.400   0.837
12373TIP3    H137060   4.351   4.321   0.785
12373TIP3    H237061   4.303   4.464   0.776
12374TIP3   OH237062   4.751   5.413   2.882
12374TIP3    H137063   4.733   5.392   2.790
12374TIP3    H237064   4.842   5.386   2.895
12375TIP3   OH237065   4.640   5.497   5.597
12375TIP3    H137066   4.623   5.425   5.536
12375TIP3    H237067   4.658   5.455   5.680
12376TIP3   OH237068   3.442   5.554   3.179
12376TIP3    H137069   3.485   5.553   3.264
12376TIP3    H237070   3.411   5.645   3.169
12377TIP3   OH237071   3.104   3.347   4.877
12377TIP3    H137072   3.174   3.409   4.857
12377TIP3    H237073   3.033   3.401   4.910
12378TIP3   OH237074   2.583   0.452   5.557
12378TIP3    H137075   2.610   0.528   5.506
12378TIP3    H237076   2.547   0.490   5.638
12379TIP3   OH237077   5.952   4.796   4.795
12379TIP3    H137078   5.873   4.805   4.848
12379TIP3    H237079   6.014   4.749   4.851
12380TIP3   OH237080   0.617   6.806   5.994
12380TIP3    H137081   0.528   6.782   5.968
12380TIP3    H237082   0.641   6.876   5.933
12381TIP3   OH237083   0.355   2.107   4.826
12381TIP3    H137084   0.440   2.151   4.837
12381TIP3    H237085   0.373   2.036   4.764
12382TIP3   OH237086   1.329   3.896   1.234
12382TIP3    H137087   1.401   3.862   1.288
12382TIP3    H237088   1.250   3.872   1.282
12383TIP3   OH237089   0.989   6.968   0.592
12383TIP3    H137090   0.942   6.936   0.514
12383TIP3    H237091   0.930   6.950   0.665
12384TIP3   OH237092   8.231   2.729   0.234
12384TIP3    H137093   8.247   2.788   0.308
12384TIP3    H237094   8.197   2.786   0.165
12385TIP3   OH237095   0.178   5.351   1.900
12385TIP3    H137096   0.153   5.315   1.815
12385TIP3    H237097   0.095   5.379   1.939
12386TIP3   OH237098   7.266   2.449   5.477
12386TIP3    H137099   7.344   2.486   5.435
12386TIP3    H237100   7.196   2.510   5.456
12387TIP3   OH237101   7.246   6.335   4.778
12387TIP3    H137102   7.245   6.431   4.770
12387TIP3    H237103   7.204   6.318   4.862
12388TIP3   OH237104   7.921   7.003   2.119
12388TIP3    H137105   8.002   6.958   2.095
12388TIP3    H237106   7.853   6.939   2.103
12389TIP3   OH237107   5.369   6.386   4.039
12389TIP3    H137108   5.304   6.386   3.968
12389TIP3    H237109   5.338   6.453   4.100
12390TIP3   OH237110   8.309   0.548   0.287
12390TIP3    H137111   8.380   0.555   0.223
12390TIP3    H237112   8.304   0.454   0.306
12391TIP3   OH237113   1.946   3.142   1.626
12391TIP3    H137114   1.945   3.091   1.545
12391TIP3    H237115   1.860   3.125   1.665
12392TIP3   OH237116   4.438   1.742   4.108
12392TIP3    H137117   4.518   1.739   4.160
12392TIP3    H237118   4.457   1.801   4.036
12393TIP3   OH237119   2.467   2.508   6.200
12393TIP3    H137120   2.428   2.484   6.116
12393TIP3    H237121   2.412   2.464   6.265
12394TIP3   OH237122   3.158   5.129   1.092
12394TIP3    H137123   3.199   5.066   1.032
12394TIP3    H237124   3.077   5.154   1.048
12395TIP3   OH237125   6.074   2.752   1.025
12395TIP3    H137126   6.155   2.802   1.034
12395TIP3    H237127   6.046   2.768   0.935
12396TIP3   OH237128   5.716   0.140   5.580
12396TIP3    H137129   5.733   0.111   5.670
12396TIP3    H237130   5.727   0.235   5.584
12397TIP3   OH237131   4.273   4.583   0.365
12397TIP3    H137132   4.334   4.627   0.306
12397TIP3    H237133   4.192   4.635   0.358
12398TIP3   OH237134   4.995   7.035   2.254
12398TIP3    H137135   4.985   7.118   2.300
12398TIP3    H237136   5.043   6.979   2.316
12399TIP3   OH237137   1.531   2.379   4.612
12399TIP3    H137138   1.598   2.372   4.679
12399TIP3    H237139   1.450   2.349   4.654
12400TIP3   OH237140   7.596   0.460   5.332
12400TIP3    H137141   7.528   0.448   5.266
12400TIP3    H237142   7.579   0.547   5.368
12401TIP3   OH237143   7.629   1.899   5.336
12401TIP3    H137144   7.615   1.824   5.278
12401TIP3    H237145   7.724   1.906   5.345
12402TIP3   OH237146   7.715   0.218   4.148
12402TIP3    H137147   7.723   0.312   4.134
12402TIP3    H237148   7.725   0.179   4.061
12403TIP3   OH237149   1.394   1.344   5.131
12403TIP3    H137150   1.335   1.354   5.206
12403TIP3    H237151   1.460   1.412   5.144
12404TIP3   OH237152   5.391   1.571   5.398
12404TIP3    H137153   5.332   1.560   5.323
12404TIP3    H237154   5.396   1.483   5.436
12405TIP3   OH237155   3.717   1.720   2.710
12405TIP3    H137156   3.771   1.664   2.654
12405TIP3    H237157   3.774   1.794   2.732
12406TIP3   OH237158   6.048   7.048   5.407
12406TIP3    H137159   6.006   7.086   5.331
12406TIP3    H237160   5.977   7.028   5.468
12407TIP3   OH237161   2.116   4.169   4.092
12407TIP3    H137162   2.175   4.164   4.168
12407TIP3    H237163   2.030   4.184   4.130
12408TIP3   OH237164   5.773   1.786   3.805
12408TIP3    H137165   5.796   1.871   3.843
12408TIP3    H237166   5.829   1.723   3.850
12409TIP3   OH237167   6.425   3.480   4.930
12409TIP3    H137168   6.442   3.574   4.917
12409TIP3    H237169   6.329   3.473   4.929
12410TIP3   OH237170   0.203   7.486   4.325
12410TIP3    H137171   0.271   7.424   4.353
12410TIP3    H237172   0.247   7.571   4.323
12411TIP3   OH237173   7.817   6.764   3.385
12411TIP3    H137174   7.732   6.727   3.409
12411TIP3    H237175   7.810   6.782   3.292
12412TIP3   OH237176   6.068   4.103   5.976
12412TIP3    H137177   6.082   4.167   6.045
12412TIP3    H237178   6.014   4.034   6.017
12413TIP3   OH237179   2.090   1.721   2.131
12413TIP3    H137180   2.126   1.648   2.080
12413TIP3    H237181   2.072   1.683   2.217
12414TIP3   OH237182   1.478   2.642   5.666
12414TIP3    H137183   1.518   2.687   5.741
12414TIP3    H237184   1.397   2.690   5.650
12415TIP3   OH237185   3.454   0.616   3.249
12415TIP3    H137186   3.394   0.542   3.247
12415TIP3    H237187   3.403   0.687   3.288
12416TIP3   OH237188   0.518   6.537   0.541
12416TIP3    H137189   0.491   6.502   0.456
12416TIP3    H237190   0.589   6.597   0.521
12417TIP3   OH237191   7.256   7.362   6.843
12417TIP3    H137192   7.201   7.285   6.832
12417TIP3    H237193   7.344   7.327   6.856
12418TIP3   OH237194   5.967   2.310   0.573
12418TIP3    H137195   5.982   2.272   0.487
12418TIP3    H237196   5.929   2.239   0.624
12419TIP3   OH237197   0.952   3.977   3.712
12419TIP3    H137198   0.955   3.918   3.637
12419TIP3    H237199   0.891   4.046   3.686
12420TIP3   OH237200   4.433   0.698   1.194
12420TIP3    H137201   4.428   0.678   1.287
12420TIP3    H237202   4.408   0.790   1.188
12421TIP3   OH237203   3.312   0.505  -0.030
12421TIP3    H137204   3.278   0.498   0.059
12421TIP3    H237205   3.367   0.583  -0.029
12422TIP3   OH237206   7.618   7.192   3.824
12422TIP3    H137207   7.644   7.140   3.900
12422TIP3    H237208   7.529   7.161   3.803
12423TIP3   OH237209   3.790   7.219   5.126
12423TIP3    H137210   3.800   7.210   5.031
12423TIP3    H237211   3.869   7.177   5.162
12424TIP3   OH237212   5.122   6.720   1.522
12424TIP3    H137213   5.109   6.628   1.545
12424TIP3    H237214   5.123   6.766   1.605
12425TIP3   OH237215   1.430   6.744   1.105
12425TIP3    H137216   1.493   6.802   1.148
12425TIP3    H237217   1.345   6.782   1.128
12426TIP3   OH237218   7.361   2.903   2.028
12426TIP3    H137219   7.452   2.872   2.027
12426TIP3    H237220   7.342   2.920   2.120
12427TIP3   OH237221   2.871   3.910   2.911
12427TIP3    H137222   2.948   3.917   2.967
12427TIP3    H237223   2.885   3.977   2.844
12428TIP3   OH237224   0.990   3.337   6.139
12428TIP3    H137225   0.940   3.339   6.221
12428TIP3    H237226   0.947   3.403   6.084
12429TIP3   OH237227   6.786   3.554   0.390
12429TIP3    H137228   6.795   3.482   0.451
12429TIP3    H237229   6.721   3.612   0.430
12430TIP3   OH237230   6.006   4.892   4.077
12430TIP3    H137231   5.989   4.957   4.145
12430TIP3    H237232   5.986   4.808   4.118
12431TIP3   OH237233   1.957   2.405   0.936
12431TIP3    H137234   1.928   2.322   0.974
12431TIP3    H237235   1.880   2.438   0.890
12432TIP3   OH237236   2.958   6.063   2.911
12432TIP3    H137237   2.980   6.117   2.835
12432TIP3    H237238   3.035   6.066   2.966
12433TIP3   OH237239   1.528   7.440   6.165
12433TIP3    H137240   1.438   7.463   6.146
12433TIP3    H237241   1.531   7.344   6.158
12434TIP3   OH237242   5.933   2.094   4.728
12434TIP3    H137243   5.856   2.037   4.715
12434TIP3    H237244   5.950   2.132   4.642
12435TIP3   OH237245   2.032   6.749   2.836
12435TIP3    H137246   1.993   6.830   2.804
12435TIP3    H237247   2.122   6.752   2.804
12436TIP3   OH237248   2.872   6.604   6.610
12436TIP3    H137249   2.805   6.668   6.586
12436TIP3    H237250   2.895   6.627   6.700
12437TIP3   OH237251   5.433   1.345   1.187
12437TIP3    H137252   5.502   1.369   1.249
12437TIP3    H237253   5.432   1.417   1.123
12438TIP3   OH237254   0.020   3.696   1.079
12438TIP3    H137255   0.017   3.601   1.089
12438TIP3    H237256   0.110   3.715   1.053
12439TIP3   OH237257   5.035   4.925   4.563
12439TIP3    H137258   4.969   4.920   4.494
12439TIP3    H237259   5.051   4.834   4.588
12440TIP3   OH237260   1.966   7.748   5.989
12440TIP3    H137261   1.901   7.711   6.049
12440TIP3    H237262   1.953   7.700   5.907
12441TIP3   OH237263   3.104   2.495   4.317
12441TIP3    H137264   3.135   2.584   4.306
12441TIP3    H237265   3.076   2.468   4.229
12442TIP3   OH237266   1.080   5.851   4.045
12442TIP3    H137267   1.017   5.889   4.106
12442TIP3    H237268   1.122   5.926   4.003
12443TIP3   OH237269   6.597   3.889   2.557
12443TIP3    H137270   6.516   3.915   2.513
12443TIP3    H237271   6.579   3.897   2.650
12444TIP3   OH237272   7.450   6.144   4.694
12444TIP3    H137273   7.370   6.188   4.663
12444TIP3    H237274   7.468   6.185   4.778
12445TIP3   OH237275   4.007   2.133   2.665
12445TIP3    H137276   4.027   2.041   2.678
12445TIP3    H237277   3.999   2.169   2.753
12446TIP3   OH237278   1.233   5.536   2.296
12446TIP3    H137279   1.217   5.585   2.377
12446TIP3    H237280   1.314   5.573   2.261
12447TIP3   OH237281   6.430   1.779   0.328
12447TIP3    H137282   6.369   1.851   0.313
12447TIP3    H237283   6.432   1.769   0.423
12448TIP3   OH237284   7.448   4.841   4.986
12448TIP3    H137285   7.513   4.888   5.037
12448TIP3    H237286   7.377   4.823   5.048
12449TIP3   OH237287   2.209   2.338   3.880
12449TIP3    H137288   2.134   2.371   3.832
12449TIP3    H237289   2.261   2.415   3.901
12450TIP3   OH237290   0.536   3.625   2.347
12450TIP3    H137291   0.576   3.601   2.431
12450TIP3    H237292   0.522   3.541   2.303
12451TIP3   OH237293   7.931   7.027   4.677
12451TIP3    H137294   7.884   6.954   4.718
12451TIP3    H237295   7.886   7.105   4.708
12452TIP3   OH237296   6.799   7.384   3.239
12452TIP3    H137297   6.710   7.373   3.203
12452TIP3    H237298   6.854   7.395   3.162
12453TIP3   OH237299   4.487   5.051   4.265
12453TIP3    H137300   4.542   5.089   4.196
12453TIP3    H237301   4.414   5.011   4.218
12454TIP3   OH237302   8.070   6.302   4.702
12454TIP3    H137303   8.065   6.370   4.769
12454TIP3    H237304   8.004   6.327   4.638
12455TIP3   OH237305   5.822   7.287   1.197
12455TIP3    H137306   5.786   7.375   1.210
12455TIP3    H237307   5.917   7.300   1.199
12456TIP3   OH237308   0.668   0.281   5.456
12456TIP3    H137309   0.641   0.193   5.483
12456TIP3    H237310   0.594   0.314   5.405
12457TIP3   OH237311   4.101   3.914   0.419
12457TIP3    H137312   4.075   3.824   0.436
12457TIP3    H237313   4.032   3.949   0.363
12458TIP3   OH237314   7.168   4.269   4.307
12458TIP3    H137315   7.073   4.271   4.297
12458TIP3    H237316   7.189   4.349   4.356
12459TIP3   OH237317   8.209   4.053   2.669
12459TIP3    H137318   8.286   4.034   2.615
12459TIP3    H237319   8.140   3.998   2.632
12460TIP3   OH237320   3.208   0.837   5.032
12460TIP3    H137321   3.181   0.746   5.046
12460TIP3    H237322   3.147   0.889   5.084
12461TIP3   OH237323   0.770   0.395   6.000
12461TIP3    H137324   0.791   0.487   5.985
12461TIP3    H237325   0.848   0.348   5.971
12462TIP3   OH237326   3.190   6.260   1.565
12462TIP3    H137327   3.238   6.343   1.571
12462TIP3    H237328   3.193   6.237   1.473
12463TIP3   OH237329   1.534   0.244   0.926
12463TIP3    H137330   1.518   0.213   0.836
12463TIP3    H237331   1.609   0.303   0.918
12464TIP3   OH237332   3.300   2.563   0.879
12464TIP3    H137333   3.222   2.570   0.824
12464TIP3    H237334   3.353   2.494   0.839
12465TIP3   OH237335   7.484   7.440   5.423
12465TIP3    H137336   7.498   7.345   5.418
12465TIP3    H237337   7.390   7.449   5.439
12466TIP3   OH237338   6.229   4.172   1.879
12466TIP3    H137339   6.178   4.192   1.801
12466TIP3    H237340   6.303   4.233   1.876
12467TIP3   OH237341   5.759   4.367   1.080
12467TIP3    H137342   5.770   4.292   1.021
12467TIP3    H237343   5.724   4.330   1.160
12468TIP3   OH237344   2.442   1.064   5.060
12468TIP3    H137345   2.414   1.107   5.141
12468TIP3    H237346   2.537   1.056   5.069
12469TIP3   OH237347   4.129   0.460   2.038
12469TIP3    H137348   4.204   0.406   2.010
12469TIP3    H237349   4.130   0.454   2.134
12470TIP3   OH237350   1.902   5.353   6.692
12470TIP3    H137351   1.912   5.423   6.627
12470TIP3    H237352   1.884   5.399   6.774
12471TIP3   OH237353   7.230   2.067   0.860
12471TIP3    H137354   7.169   2.045   0.930
12471TIP3    H237355   7.253   2.158   0.876
12472TIP3   OH237356   0.230   2.288   0.720
12472TIP3    H137357   0.309   2.338   0.738
12472TIP3    H237358   0.258   2.219   0.660
12473TIP3   OH237359   0.240   2.456   4.544
12473TIP3    H137360   0.170   2.504   4.500
12473TIP3    H237361   0.194   2.395   4.602
12474TIP3   OH237362   1.941   7.034   3.530
12474TIP3    H137363   1.949   6.993   3.443
12474TIP3    H237364   1.948   6.961   3.591
12475TIP3   OH237365   5.624   6.302   0.459
12475TIP3    H137366   5.533   6.330   0.447
12475TIP3    H237367   5.617   6.224   0.514
12476TIP3   OH237368   7.606   6.026   1.737
12476TIP3    H137369   7.531   5.967   1.746
12476TIP3    H237370   7.645   6.028   1.825
12477TIP3   OH237371   3.345   6.749   6.082
12477TIP3    H137372   3.281   6.681   6.062
12477TIP3    H237373   3.292   6.821   6.117
12478TIP3   OH237374   7.235   7.958   2.252
12478TIP3    H137375   7.241   7.906   2.172
12478TIP3    H237376   7.165   7.918   2.302
12479TIP3   OH237377   1.409   0.265   1.177
12479TIP3    H137378   1.478   0.296   1.235
12479TIP3    H237379   1.454   0.241   1.096
12480TIP3   OH237380   4.675   2.930   6.533
12480TIP3    H137381   4.678   3.017   6.493
12480TIP3    H237382   4.740   2.879   6.484
12481TIP3   OH237383   1.077   1.497   1.277
12481TIP3    H137384   1.139   1.530   1.212
12481TIP3    H237385   1.120   1.421   1.316
12482TIP3   OH237386   1.136   6.788   5.407
12482TIP3    H137387   1.055   6.784   5.356
12482TIP3    H237388   1.115   6.741   5.488
12483TIP3   OH237389   1.021   0.513   2.878
12483TIP3    H137390   0.926   0.521   2.873
12483TIP3    H237391   1.055   0.587   2.828
12484TIP3   OH237392   3.542   7.157   5.785
12484TIP3    H137393   3.624   7.110   5.766
12484TIP3    H237394   3.568   7.224   5.848
12485TIP3   OH237395   7.355   4.487   2.313
12485TIP3    H137396   7.410   4.561   2.290
12485TIP3    H237397   7.415   4.412   2.317
12486TIP3   OH237398   3.868   5.043   5.697
12486TIP3    H137399   3.873   4.953   5.727
12486TIP3    H237400   3.791   5.045   5.639
12487TIP3   OH237401   3.957   4.044   4.466
12487TIP3    H137402   3.994   3.965   4.504
12487TIP3    H237403   4.028   4.108   4.469
12488TIP3   OH237404   5.327   2.036   4.007
12488TIP3    H137405   5.326   1.988   3.924
12488TIP3    H237406   5.237   2.029   4.040
12489TIP3   OH237407   3.741   6.903   4.623
12489TIP3    H137408   3.736   6.992   4.590
12489TIP3    H237409   3.756   6.849   4.545
12490TIP3   OH237410   7.704   5.198   0.978
12490TIP3    H137411   7.797   5.202   1.004
12490TIP3    H237412   7.697   5.116   0.930
12491TIP3   OH237413   0.536   2.675   5.453
12491TIP3    H137414   0.482   2.736   5.404
12491TIP3    H237415   0.485   2.594   5.456
12492TIP3   OH237416   2.699   4.052   2.609
12492TIP3    H137417   2.686   4.144   2.584
12492TIP3    H237418   2.785   4.052   2.652
12493TIP3   OH237419   6.594   1.316   4.781
12493TIP3    H137420   6.587   1.366   4.862
12493TIP3    H237421   6.572   1.226   4.805
12494TIP3   OH237422   4.141   4.521   0.995
12494TIP3    H137423   4.218   4.476   0.959
12494TIP3    H237424   4.080   4.451   1.018
12495TIP3   OH237425   8.350   5.525   5.360
12495TIP3    H137426   8.337   5.500   5.452
12495TIP3    H237427   8.429   5.579   5.362
12496TIP3   OH237428   0.672   4.229   3.896
12496TIP3    H137429   0.619   4.204   3.820
12496TIP3    H237430   0.642   4.317   3.917
12497TIP3   OH237431   7.876   4.602   5.319
12497TIP3    H137432   7.866   4.532   5.382
12497TIP3    H237433   7.815   4.579   5.248
12498TIP3   OH237434   3.969   3.856   0.969
12498TIP3    H137435   4.036   3.924   0.980
12498TIP3    H237436   3.916   3.862   1.048
12499TIP3   OH237437   0.790   6.442   4.089
12499TIP3    H137438   0.809   6.354   4.056
12499TIP3    H237439   0.824   6.441   4.179
12500TIP3   OH237440   5.375   2.772   2.553
12500TIP3    H137441   5.387   2.818   2.470
12500TIP3    H237442   5.409   2.684   2.537
12501TIP3   OH237443   3.858   1.961   0.391
12501TIP3    H137444   3.947   1.996   0.386
12501TIP3    H237445   3.808   2.028   0.437
12502TIP3   OH237446   5.265   6.026   1.766
12502TIP3    H137447   5.226   6.093   1.710
12502TIP3    H237448   5.348   6.004   1.724
12503TIP3   OH237449   6.877   0.665   5.883
12503TIP3    H137450   6.883   0.593   5.820
12503TIP3    H237451   6.967   0.679   5.913
12504TIP3   OH237452   6.494   5.541   1.369
12504TIP3    H137453   6.510   5.589   1.287
12504TIP3    H237454   6.429   5.594   1.415
12505TIP3   OH237455   3.085   0.862   1.175
12505TIP3    H137456   2.998   0.871   1.215
12505TIP3    H237457   3.081   0.779   1.127
12506TIP3   OH237458   2.941   1.790   5.668
12506TIP3    H137459   3.026   1.749   5.683
12506TIP3    H237460   2.886   1.760   5.740
12507TIP3   OH237461   6.341   4.315   0.623
12507TIP3    H137462   6.292   4.344   0.546
12507TIP3    H237463   6.282   4.255   0.669
12508TIP3   OH237464   1.565   4.262   2.249
12508TIP3    H137465   1.566   4.357   2.263
12508TIP3    H237466   1.537   4.226   2.333
12509TIP3   OH237467   1.784   4.105   0.444
12509TIP3    H137468   1.784   4.182   0.387
12509TIP3    H237469   1.873   4.101   0.479
12510TIP3   OH237470   3.442   5.693   2.134
12510TIP3    H137471   3.384   5.626   2.171
12510TIP3    H237472   3.474   5.655   2.052
12511TIP3   OH237473   7.658   4.524   1.619
12511TIP3    H137474   7.622   4.609   1.594
12511TIP3    H237475   7.713   4.498   1.545
12512TIP3   OH237476   4.249   1.351   0.502
12512TIP3    H137477   4.178   1.292   0.476
12512TIP3    H237478   4.272   1.398   0.422
12513TIP3   OH237479   0.889   4.576   0.212
12513TIP3    H137480   0.844   4.645   0.260
12513TIP3    H237481   0.832   4.499   0.220
12514TIP3   OH237482   1.598   6.316   1.910
12514TIP3    H137483   1.564   6.320   1.821
12514TIP3    H237484   1.567   6.232   1.944
12515TIP3   OH237485   3.019   0.155   5.899
12515TIP3    H137486   3.092   0.148   5.837
12515TIP3    H237487   2.964   0.225   5.863
12516TIP3   OH237488   6.454   5.430   1.631
12516TIP3    H137489   6.464   5.517   1.669
12516TIP3    H237490   6.481   5.441   1.539
12517TIP3   OH237491   7.102   3.600   5.536
12517TIP3    H137492   7.015   3.567   5.516
12517TIP3    H237493   7.140   3.534   5.594
12518TIP3   OH237494   7.693   1.686   0.743
12518TIP3    H137495   7.699   1.660   0.651
12518TIP3    H237496   7.754   1.759   0.751
12519TIP3   OH237497   7.896   0.682   0.087
12519TIP3    H137498   7.962   0.624   0.051
12519TIP3    H237499   7.913   0.684   0.181
12520TIP3   OH237500   1.735   0.683   5.568
12520TIP3    H137501   1.708   0.770   5.537
12520TIP3    H237502   1.727   0.627   5.491
12521TIP3   OH237503   0.439   6.575   4.879
12521TIP3    H137504   0.466   6.484   4.891
12521TIP3    H237505   0.364   6.571   4.819
12522TIP3   OH237506   5.426   1.165   4.843
12522TIP3    H137507   5.376   1.099   4.890
12522TIP3    H237508   5.370   1.191   4.770
12523TIP3   OH237509   1.045   3.356   5.361
12523TIP3    H137510   1.015   3.281   5.413
12523TIP3    H237511   1.137   3.337   5.343
12524TIP3   OH237512   3.045   0.664   5.190
12524TIP3    H137513   3.002   0.731   5.243
12524TIP3    H237514   3.135   0.660   5.224
12525TIP3   OH237515   3.890   7.123   1.438
12525TIP3    H137516   3.852   7.118   1.526
12525TIP3    H237517   3.821   7.163   1.385
12526TIP3   OH237518   2.002  -0.027   4.401
12526TIP3    H137519   1.991   0.068   4.400
12526TIP3    H237520   2.033  -0.049   4.314
12527TIP3   OH237521   3.394   5.524   0.613
12527TIP3    H137522   3.380   5.500   0.521
12527TIP3    H237523   3.306   5.536   0.648
12528TIP3   OH237524   2.027   6.138   1.924
12528TIP3    H137525   2.017   6.044   1.940
12528TIP3    H237526   2.057   6.174   2.008
12529TIP3   OH237527   0.558   7.637   0.412
12529TIP3    H137528   0.533   7.726   0.386
12529TIP3    H237529   0.492   7.613   0.477
12530TIP3   OH237530   6.632   5.941   6.199
12530TIP3    H137531   6.686   5.880   6.149
12530TIP3    H237532   6.548   5.896   6.209
12531TIP3   OH237533   4.594   3.814   0.067
12531TIP3    H137534   4.674   3.761   0.068
12531TIP3    H237535   4.593   3.856   0.153
12532TIP3   OH237536   5.923   7.729   5.522
12532TIP3    H137537   5.833   7.760   5.514
12532TIP3    H237538   5.944   7.737   5.615
12533TIP3   OH237539   2.896   6.303   6.348
12533TIP3    H137540   2.893   6.388   6.305
12533TIP3    H237541   2.939   6.245   6.285
12534TIP3   OH237542   3.466   1.338   2.663
12534TIP3    H137543   3.417   1.419   2.646
12534TIP3    H237544   3.459   1.325   2.758
12535TIP3   OH237545   0.974   2.247   4.212
12535TIP3    H137546   0.933   2.240   4.298
12535TIP3    H237547   0.903   2.268   4.152
12536TIP3   OH237548   0.966   0.518   0.757
12536TIP3    H137549   0.901   0.587   0.769
12536TIP3    H237550   1.036   0.559   0.707
12537TIP3   OH237551   5.894   1.597   5.584
12537TIP3    H137552   5.928   1.531   5.645
12537TIP3    H237553   5.913   1.681   5.626
12538TIP3   OH237554   4.713   0.672   6.347
12538TIP3    H137555   4.623   0.669   6.312
12538TIP3    H237556   4.707   0.729   6.423
12539TIP3   OH237557   6.300   0.702   2.718
12539TIP3    H137558   6.289   0.638   2.647
12539TIP3    H237559   6.394   0.714   2.724
12540TIP3   OH237560   6.412   1.688   1.745
12540TIP3    H137561   6.364   1.643   1.815
12540TIP3    H237562   6.474   1.745   1.791
12541TIP3   OH237563   1.124   2.960   3.741
12541TIP3    H137564   1.146   2.982   3.650
12541TIP3    H237565   1.182   3.016   3.793
12542TIP3   OH237566   0.352   7.084   1.491
12542TIP3    H137567   0.386   7.163   1.448
12542TIP3    H237568   0.286   7.117   1.552
12543TIP3   OH237569   7.993   7.652   0.704
12543TIP3    H137570   7.985   7.651   0.799
12543TIP3    H237571   8.086   7.636   0.688
12544TIP3   OH237572   1.193   1.469   0.703
12544TIP3    H137573   1.175   1.518   0.623
12544TIP3    H237574   1.216   1.381   0.672
12545TIP3   OH237575   6.045   6.699   1.228
12545TIP3    H137576   6.026   6.657   1.144
12545TIP3    H237577   6.020   6.791   1.215
12546TIP3   OH237578   3.874   7.890   0.506
12546TIP3    H137579   3.959   7.930   0.487
12546TIP3    H237580   3.895   7.803   0.539
12547TIP3   OH237581   4.480   4.051   4.600
12547TIP3    H137582   4.553   3.992   4.582
12547TIP3    H237583   4.518   4.122   4.651
12548TIP3   OH237584   2.591   3.759   1.754
12548TIP3    H137585   2.609   3.733   1.664
12548TIP3    H237586   2.558   3.849   1.746
12549TIP3   OH237587   3.753   4.162   2.396
12549TIP3    H137588   3.750   4.256   2.375
12549TIP3    H237589   3.770   4.119   2.312
12550TIP3   OH237590   1.533   5.198   6.279
12550TIP3    H137591   1.525   5.105   6.297
12550TIP3    H237592   1.628   5.215   6.282
12551TIP3   OH237593   6.280   4.584   5.826
12551TIP3    H137594   6.293   4.624   5.912
12551TIP3    H237595   6.361   4.536   5.810
12552TIP3   OH237596   5.619   0.072   4.042
12552TIP3    H137597   5.584   0.142   4.098
12552TIP3    H237598   5.541   0.022   4.016
12553TIP3   OH237599   2.944   6.008   0.750
12553TIP3    H137600   2.888   5.974   0.819
12553TIP3    H237601   2.946   5.938   0.685
12554TIP3   OH237602   3.218   7.239   1.120
12554TIP3    H137603   3.211   7.200   1.033
12554TIP3    H237604   3.128   7.259   1.145
12555TIP3   OH237605   3.939   6.345   5.929
12555TIP3    H137606   3.993   6.283   5.880
12555TIP3    H237607   3.963   6.431   5.896
12556TIP3   OH237608   7.416   5.678   5.548
12556TIP3    H137609   7.457   5.723   5.622
12556TIP3    H237610   7.379   5.598   5.584
12557TIP3   OH237611   0.609   5.564   4.618
12557TIP3    H137612   0.672   5.566   4.546
12557TIP3    H237613   0.644   5.625   4.683
12558TIP3   OH237614   5.659   3.924   6.621
12558TIP3    H137615   5.656   4.012   6.658
12558TIP3    H237616   5.678   3.867   6.695
12559TIP3   OH237617   5.863   2.732   4.604
12559TIP3    H137618   5.784   2.680   4.590
12559TIP3    H237619   5.872   2.783   4.524
12560TIP3   OH237620   2.030   5.223   6.477
12560TIP3    H137621   2.093   5.224   6.405
12560TIP3    H237622   2.057   5.294   6.535
12561TIP3   OH237623   4.306   4.419   2.101
12561TIP3    H137624   4.286   4.500   2.149
12561TIP3    H237625   4.268   4.432   2.014
12562TIP3   OH237626   0.121   4.562   5.011
12562TIP3    H137627   0.100   4.470   5.029
12562TIP3    H237628   0.071   4.583   4.932
12563TIP3   OH237629   2.094   6.584   3.396
12563TIP3    H137630   2.030   6.599   3.326
12563TIP3    H237631   2.178   6.612   3.358
12564TIP3   OH237632   3.808   5.362   5.806
12564TIP3    H137633   3.750   5.289   5.825
12564TIP3    H237634   3.800   5.419   5.882
12565TIP3   OH237635   4.168   1.539   0.933
12565TIP3    H137636   4.228   1.507   0.866
12565TIP3    H237637   4.089   1.562   0.885
12566TIP3   OH237638   5.673   3.574   1.550
12566TIP3    H137639   5.616   3.600   1.623
12566TIP3    H237640   5.626   3.504   1.506
12567TIP3   OH237641   3.665   7.526   0.921
12567TIP3    H137642   3.667   7.433   0.897
12567TIP3    H237643   3.690   7.527   1.013
12568TIP3   OH237644   0.895   1.357   6.654
12568TIP3    H137645   0.804   1.346   6.627
12568TIP3    H237646   0.934   1.271   6.643
12569TIP3   OH237647   4.961   4.537   4.873
12569TIP3    H137648   4.992   4.447   4.883
12569TIP3    H237649   4.994   4.583   4.950
12570TIP3   OH237650   7.077   1.034   5.268
12570TIP3    H137651   7.171   1.017   5.262
12570TIP3    H237652   7.043   1.012   5.181
12571TIP3   OH237653   1.305   4.134   2.939
12571TIP3    H137654   1.345   4.203   2.885
12571TIP3    H237655   1.296   4.174   3.026
12572TIP3   OH237656   1.410   7.919   2.740
12572TIP3    H137657   1.350   7.936   2.667
12572TIP3    H237658   1.426   7.825   2.737
12573TIP3   OH237659   3.540   5.219   2.256
12573TIP3    H137660   3.580   5.142   2.216
12573TIP3    H237661   3.583   5.293   2.213
12574TIP3   OH237662   7.638   0.662   6.269
12574TIP3    H137663   7.720   0.618   6.290
12574TIP3    H237664   7.610   0.623   6.187
12575TIP3   OH237665   6.933   0.298   2.215
12575TIP3    H137666   6.889   0.267   2.293
12575TIP3    H237667   6.863   0.322   2.155
12576TIP3   OH237668   8.346   6.856   5.995
12576TIP3    H137669   8.390   6.771   6.002
12576TIP3    H237670   8.417   6.920   6.007
12577TIP3   OH237671   1.457   3.303   3.292
12577TIP3    H137672   1.499   3.286   3.377
12577TIP3    H237673   1.372   3.341   3.315
12578TIP3   OH237674   3.262   3.548   5.316
12578TIP3    H137675   3.259   3.452   5.317
12578TIP3    H237676   3.252   3.571   5.224
12579TIP3   OH237677   2.169   5.546   2.655
12579TIP3    H137678   2.104   5.580   2.593
12579TIP3    H237679   2.203   5.467   2.613
12580TIP3   OH237680   0.484   2.632   1.210
12580TIP3    H137681   0.424   2.569   1.251
12580TIP3    H237682   0.435   2.714   1.209
12581TIP3   OH237683   6.355   5.189   3.892
12581TIP3    H137684   6.293   5.117   3.881
12581TIP3    H237685   6.432   5.148   3.932
12582TIP3   OH237686   3.075   3.181   1.794
12582TIP3    H137687   3.027   3.167   1.712
12582TIP3    H237688   3.127   3.260   1.778
12583TIP3   OH237689   1.820   6.474   6.815
12583TIP3    H137690   1.799   6.467   6.908
12583TIP3    H237691   1.887   6.407   6.800
12584TIP3   OH237692   7.855   0.221   0.365
12584TIP3    H137693   7.761   0.233   0.372
12584TIP3    H237694   7.869   0.175   0.282
12585TIP3   OH237695   2.877   6.797   5.048
12585TIP3    H137696   2.804   6.835   5.098
12585TIP3    H237697   2.910   6.870   4.995
12586TIP3   OH237698   1.779   1.364   3.725
12586TIP3    H137699   1.872   1.386   3.717
12586TIP3    H237700   1.750   1.346   3.636
12587TIP3   OH237701   8.316   0.048   3.163
12587TIP3    H137702   8.270  -0.003   3.229
12587TIP3    H237703   8.349  -0.017   3.102
12588TIP3   OH237704   0.334   7.475   3.639
12588TIP3    H137705   0.255   7.421   3.647
12588TIP3    H237706   0.325   7.517   3.553
12589TIP3   OH237707   6.602   1.773   3.837
12589TIP3    H137708   6.527   1.739   3.789
12589TIP3    H237709   6.623   1.705   3.901
12590TIP3   OH237710   4.937   1.831   4.351
12590TIP3    H137711   4.955   1.773   4.425
12590TIP3    H237712   5.023   1.848   4.312
12591TIP3   OH237713   3.787   1.939   4.418
12591TIP3    H137714   3.814   2.018   4.370
12591TIP3    H237715   3.703   1.915   4.378
12592TIP3   OH237716   7.208   3.226   3.959
12592TIP3    H137717   7.113   3.216   3.959
12592TIP3    H237718   7.236   3.189   4.043
12593TIP3   OH237719   7.588   1.940   0.571
12593TIP3    H137720   7.520   1.924   0.637
12593TIP3    H237721   7.582   1.865   0.512
12594TIP3   OH237722   2.711   7.372   3.965
12594TIP3    H137723   2.729   7.402   4.054
12594TIP3    H237724   2.675   7.449   3.920
12595TIP3   OH237725   4.300   5.632   3.612
12595TIP3    H137726   4.239   5.567   3.646
12595TIP3    H237727   4.291   5.707   3.671
12596TIP3   OH237728   7.846   4.915   4.890
12596TIP3    H137729   7.772   4.857   4.876
12596TIP3    H237730   7.807   5.001   4.908
12597TIP3   OH237731   4.393   1.505   5.053
12597TIP3    H137732   4.315   1.468   5.013
12597TIP3    H237733   4.447   1.429   5.075
12598TIP3   OH237734   3.934   5.888   6.261
12598TIP3    H137735   3.866   5.955   6.273
12598TIP3    H237736   3.915   5.822   6.327
12599TIP3   OH237737   6.715   2.234   2.710
12599TIP3    H137738   6.628   2.224   2.748
12599TIP3    H237739   6.756   2.148   2.723
12600TIP3   OH237740   2.423   0.244   5.616
12600TIP3    H137741   2.476   0.319   5.591
12600TIP3    H237742   2.470   0.168   5.580
12601TIP3   OH237743   0.965   6.802   4.288
12601TIP3    H137744   0.922   6.879   4.250
12601TIP3    H237745   0.896   6.735   4.288
12602TIP3   OH237746   5.619   4.905   2.719
12602TIP3    H137747   5.629   4.996   2.746
12602TIP3    H237748   5.708   4.871   2.715
12603TIP3   OH237749   2.995   4.366   1.872
12603TIP3    H137750   2.970   4.392   1.784
12603TIP3    H237751   3.082   4.327   1.862
12604TIP3   OH237752   1.148   3.878   0.673
12604TIP3    H137753   1.126   3.877   0.766
12604TIP3    H237754   1.244   3.882   0.672
12605TIP3   OH237755   7.459   7.535   5.134
12605TIP3    H137756   7.512   7.484   5.073
12605TIP3    H237757   7.481   7.502   5.221
12606TIP3   OH237758   6.981   4.220   4.716
12606TIP3    H137759   7.055   4.169   4.748
12606TIP3    H237760   6.948   4.265   4.794
12607TIP3   OH237761   3.859   2.009   4.663
12607TIP3    H137762   3.834   1.964   4.582
12607TIP3    H237763   3.776   2.039   4.700
12608TIP3   OH237764   0.993   2.297   2.762
12608TIP3    H137765   0.911   2.267   2.722
12608TIP3    H237766   0.981   2.392   2.772
12609TIP3   OH237767   6.412   7.533   0.995
12609TIP3    H137768   6.381   7.443   1.003
12609TIP3    H237769   6.335   7.583   0.968
12610TIP3   OH237770   4.717   4.938   0.657
12610TIP3    H137771   4.811   4.939   0.640
12610TIP3    H237772   4.708   4.977   0.744
12611TIP3   OH237773   3.770   6.562   6.127
12611TIP3    H137774   3.846   6.565   6.184
12611TIP3    H237775   3.704   6.514   6.177
12612TIP3   OH237776   6.021   6.020   3.177
12612TIP3    H137777   6.031   6.072   3.097
12612TIP3    H237778   6.075   5.942   3.162
12613TIP3   OH237779   3.017   4.637   2.562
12613TIP3    H137780   3.018   4.671   2.651
12613TIP3    H237781   3.104   4.600   2.550
12614TIP3   OH237782   5.042   6.059   3.985
12614TIP3    H137783   5.047   6.128   4.052
12614TIP3    H237784   5.131   6.052   3.951
12615TIP3   OH237785   0.067   0.949   5.367
12615TIP3    H137786   0.080   1.025   5.423
12615TIP3    H237787   0.153   0.908   5.360
12616TIP3   OH237788   3.598   4.708   0.180
12616TIP3    H137789   3.599   4.801   0.160
12616TIP3    H237790   3.532   4.672   0.120
12617TIP3   OH237791   3.423   7.668   6.449
12617TIP3    H137792   3.431   7.685   6.543
12617TIP3    H237793   3.507   7.632   6.423
12618TIP3   OH237794   0.666   4.745   5.867
12618TIP3    H137795   0.660   4.680   5.797
12618TIP3    H237796   0.760   4.760   5.876
12619TIP3   OH237797   7.152   3.800   2.103
12619TIP3    H137798   7.246   3.783   2.106
12619TIP3    H237799   7.119   3.742   2.034
12620TIP3   OH237800   3.275   4.955   0.920
12620TIP3    H137801   3.217   4.919   0.853
12620TIP3    H237802   3.316   4.879   0.962
12621TIP3   OH237803   5.699   3.590   3.062
12621TIP3    H137804   5.669   3.681   3.058
12621TIP3    H237805   5.783   3.590   3.017
12622TIP3   OH237806   6.878   1.344   0.715
12622TIP3    H137807   6.889   1.423   0.662
12622TIP3    H237808   6.818   1.371   0.785
12623TIP3   OH237809   0.457   5.436   6.123
12623TIP3    H137810   0.474   5.515   6.072
12623TIP3    H237811   0.448   5.466   6.213
12624TIP3   OH237812   3.819   0.047   1.043
12624TIP3    H137813   3.750   0.105   1.074
12624TIP3    H237814   3.879   0.104   0.995
12625TIP3   OH237815   1.037   7.176   1.515
12625TIP3    H137816   1.086   7.207   1.591
12625TIP3    H237817   1.094   7.193   1.440
12626TIP3   OH237818   4.136   5.285   6.154
12626TIP3    H137819   4.052   5.256   6.191
12626TIP3    H237820   4.127   5.270   6.060
12627TIP3   OH237821   8.325   4.474   3.006
12627TIP3    H137822   8.271   4.527   3.064
12627TIP3    H237823   8.308   4.383   3.032
12628TIP3   OH237824   4.302   7.601   0.532
12628TIP3    H137825   4.352   7.675   0.566
12628TIP3    H237826   4.249   7.638   0.462
12629TIP3   OH237827   4.083   7.246   1.092
12629TIP3    H137828   4.108   7.267   1.002
12629TIP3    H237829   4.150   7.288   1.146
12630TIP3   OH237830   1.081   6.730   4.039
12630TIP3    H137831   1.118   6.652   4.080
12630TIP3    H237832   1.070   6.792   4.110
12631TIP3   OH237833   8.428   2.340   1.244
12631TIP3    H137834   8.393   2.253   1.259
12631TIP3    H237835   8.411   2.357   1.151
12632TIP3   OH237836   1.773   0.288   2.962
12632TIP3    H137837   1.746   0.220   2.901
12632TIP3    H237838   1.834   0.244   3.022
12633TIP3   OH237839   0.106   1.532   0.954
12633TIP3    H137840   0.150   1.607   0.995
12633TIP3    H237841   0.025   1.522   1.005
12634TIP3   OH237842   6.315   2.019   1.428
12634TIP3    H137843   6.262   2.000   1.505
12634TIP3    H237844   6.405   2.024   1.460
12635TIP3   OH237845   6.361   1.241   5.224
12635TIP3    H137846   6.370   1.231   5.319
12635TIP3    H237847   6.284   1.297   5.214
12636TIP3   OH237848   1.133   0.983   2.516
12636TIP3    H137849   1.132   1.032   2.598
12636TIP3    H237850   1.198   1.029   2.462
12637TIP3   OH237851   2.562   3.859   0.115
12637TIP3    H137852   2.589   3.891   0.030
12637TIP3    H237853   2.468   3.880   0.120
12638TIP3   OH237854   0.128   5.761   2.846
12638TIP3    H137855   0.105   5.717   2.764
12638TIP3    H237856   0.044   5.795   2.879
12639TIP3   OH237857   5.817   0.828   3.300
12639TIP3    H137858   5.876   0.901   3.278
12639TIP3    H237859   5.775   0.806   3.217
12640TIP3   OH237860   2.435   4.373   2.404
12640TIP3    H137861   2.464   4.447   2.351
12640TIP3    H237862   2.372   4.327   2.349
12641TIP3   OH237863   2.251   2.716   0.844
12641TIP3    H137864   2.279   2.752   0.760
12641TIP3    H237865   2.230   2.624   0.825
12642TIP3   OH237866   0.830   6.896   0.356
12642TIP3    H137867   0.775   6.822   0.379
12642TIP3    H237868   0.864   6.874   0.269
12643TIP3   OH237869   5.139   2.180   0.414
12643TIP3    H137870   5.144   2.174   0.319
12643TIP3    H237871   5.045   2.184   0.433
12644TIP3   OH237872   0.532   2.040   1.664
12644TIP3    H137873   0.477   2.009   1.737
12644TIP3    H237874   0.498   1.995   1.587
12645TIP3   OH237875   4.055   3.110   3.877
12645TIP3    H137876   3.964   3.114   3.906
12645TIP3    H237877   4.082   3.020   3.893
12646TIP3   OH237878   2.746   5.440   6.152
12646TIP3    H137879   2.701   5.381   6.212
12646TIP3    H237880   2.822   5.471   6.201
12647TIP3   OH237881   4.703   2.918   4.003
12647TIP3    H137882   4.631   2.857   3.989
12647TIP3    H237883   4.777   2.863   4.026
12648TIP3   OH237884   5.934   6.522   4.854
12648TIP3    H137885   5.949   6.603   4.902
12648TIP3    H237886   5.881   6.468   4.914
12649TIP3   OH237887   0.421   1.168   3.050
12649TIP3    H137888   0.411   1.075   3.028
12649TIP3    H237889   0.338   1.192   3.090
12650TIP3   OH237890   7.893   7.506   1.587
12650TIP3    H137891   7.847   7.486   1.506
12650TIP3    H237892   7.836   7.472   1.656
12651TIP3   OH237893   6.872   5.179   3.527
12651TIP3    H137894   6.887   5.134   3.611
12651TIP3    H237895   6.838   5.111   3.469
12652TIP3   OH237896   0.992   5.459   5.209
12652TIP3    H137897   0.992   5.417   5.123
12652TIP3    H237898   1.068   5.423   5.254
12653TIP3   OH237899   8.347   6.224   3.056
12653TIP3    H137900   8.403   6.149   3.076
12653TIP3    H237901   8.322   6.259   3.141
12654TIP3   OH237902   6.177   7.367   5.294
12654TIP3    H137903   6.133   7.401   5.372
12654TIP3    H237904   6.129   7.287   5.272
12655TIP3   OH237905   4.039   6.341   0.524
12655TIP3    H137906   3.953   6.363   0.487
12655TIP3    H237907   4.079   6.284   0.458
12656TIP3   OH237908   2.355   0.686   2.435
12656TIP3    H137909   2.438   0.673   2.389
12656TIP3    H237910   2.312   0.757   2.388
12657TIP3   OH237911   2.342   3.976   6.709
12657TIP3    H137912   2.367   3.885   6.725
12657TIP3    H237913   2.426   4.022   6.697
12658TIP3   OH237914   1.703   2.854   0.047
12658TIP3    H137915   1.636   2.812  -0.007
12658TIP3    H237916   1.667   2.855   0.135
12659TIP3   OH237917   1.421   6.701   6.542
12659TIP3    H137918   1.447   6.791   6.522
12659TIP3    H237919   1.443   6.689   6.634
12660TIP3   OH237920   0.082   7.484   1.853
12660TIP3    H137921   0.148   7.546   1.822
12660TIP3    H237922   0.081   7.496   1.948
12661TIP3   OH237923   3.360   3.429   5.928
12661TIP3    H137924   3.304   3.380   5.987
12661TIP3    H237925   3.341   3.394   5.841
12662TIP3   OH237926   0.520   7.893   6.637
12662TIP3    H137927   0.509   7.966   6.699
12662TIP3    H237928   0.581   7.833   6.681
12663TIP3   OH237929   6.172   3.018   4.758
12663TIP3    H137930   6.135   2.957   4.694
12663TIP3    H237931   6.110   3.018   4.830
12664TIP3   OH237932   5.554   4.099   4.173
12664TIP3    H137933   5.590   4.022   4.217
12664TIP3    H237934   5.587   4.173   4.224
12665TIP3   OH237935   2.547   7.757   0.463
12665TIP3    H137936   2.454   7.771   0.478
12665TIP3    H237937   2.587   7.766   0.549
12666TIP3   OH237938   1.972   7.896   0.545
12666TIP3    H137939   1.928   7.971   0.585
12666TIP3    H237940   2.062   7.901   0.577
12667TIP3   OH237941   3.586   7.222   2.147
12667TIP3    H137942   3.654   7.171   2.102
12667TIP3    H237943   3.534   7.259   2.076
12668TIP3   OH237944   3.389   6.203   5.949
12668TIP3    H137945   3.412   6.127   6.002
12668TIP3    H237946   3.458   6.267   5.967
12669TIP3   OH237947   0.150   0.012   0.744
12669TIP3    H137948   0.241   0.028   0.769
12669TIP3    H237949   0.112   0.099   0.734
12670TIP3   OH237950   6.236   5.400   5.116
12670TIP3    H137951   6.208   5.347   5.191
12670TIP3    H237952   6.267   5.336   5.052
12671TIP3   OH237953   0.055   4.526   1.807
12671TIP3    H137954   0.056   4.613   1.847
12671TIP3    H237955   0.016   4.469   1.873
12672TIP3   OH237956   6.254   2.034   6.183
12672TIP3    H137957   6.239   1.950   6.227
12672TIP3    H237958   6.192   2.035   6.110
12673TIP3   OH237959   7.804   7.261   5.377
12673TIP3    H137960   7.848   7.229   5.298
12673TIP3    H237961   7.869   7.250   5.446
12674TIP3   OH237962   0.480   4.520   3.100
12674TIP3    H137963   0.451   4.610   3.083
12674TIP3    H237964   0.400   4.471   3.113
12675TIP3   OH237965   3.613   1.182   6.588
12675TIP3    H137966   3.596   1.243   6.659
12675TIP3    H237967   3.588   1.230   6.509
12676TIP3   OH237968   3.414   5.884   6.674
12676TIP3    H137969   3.495   5.842   6.703
12676TIP3    H237970   3.345   5.831   6.714
12677TIP3   OH237971   2.054   5.699   3.868
12677TIP3    H137972   2.015   5.674   3.952
12677TIP3    H237973   1.992   5.760   3.830
12678TIP3   OH237974   3.188   1.909   2.787
12678TIP3    H137975   3.214   1.969   2.857
12678TIP3    H237976   3.217   1.953   2.707
12679TIP3   OH237977   2.365   0.050   1.936
12679TIP3    H137978   2.326  -0.034   1.909
12679TIP3    H237979   2.415   0.077   1.859
12680TIP3   OH237980   1.629   1.394   4.912
12680TIP3    H137981   1.574   1.316   4.916
12680TIP3    H237982   1.568   1.467   4.924
12681TIP3   OH237983   1.512   3.478   1.331
12681TIP3    H137984   1.593   3.481   1.381
12681TIP3    H237985   1.457   3.415   1.378
12682TIP3   OH237986   7.160   1.731   1.579
12682TIP3    H137987   7.241   1.782   1.570
12682TIP3    H237988   7.126   1.724   1.490
12683TIP3   OH237989   4.150   4.608   2.239
12683TIP3    H137990   4.154   4.605   2.335
12683TIP3    H237991   4.144   4.701   2.219
12684TIP3   OH237992   7.416   6.328   2.620
12684TIP3    H137993   7.479   6.392   2.588
12684TIP3    H237994   7.469   6.269   2.674
12685TIP3   OH237995   2.816   4.309   0.680
12685TIP3    H137996   2.793   4.245   0.747
12685TIP3    H237997   2.743   4.371   0.679
12686TIP3   OH237998   4.618   6.988   3.277
12686TIP3    H137999   4.560   6.954   3.346
12686TIP3    H238000   4.656   6.910   3.237
12687TIP3   OH238001   6.211   1.692   2.944
12687TIP3    H138002   6.290   1.742   2.926
12687TIP3    H238003   6.206   1.628   2.873
12688TIP3   OH238004   4.129   5.953   1.432
12688TIP3    H138005   4.036   5.932   1.423
12688TIP3    H238006   4.174   5.885   1.382
12689TIP3   OH238007   6.214   6.709   3.259
12689TIP3    H138008   6.289   6.723   3.317
12689TIP3    H238009   6.161   6.643   3.304
12690TIP3   OH238010   0.501   0.333  -0.045
12690TIP3    H138011   0.436   0.311   0.021
12690TIP3    H238012   0.539   0.416  -0.016
12691TIP3   OH238013   0.643   2.528   1.527
12691TIP3    H138014   0.715   2.567   1.477
12691TIP3    H238015   0.631   2.441   1.488
12692TIP3   OH238016   6.844   6.735   3.981
12692TIP3    H138017   6.794   6.790   4.041
12692TIP3    H238018   6.816   6.761   3.894
12693TIP3   OH238019   1.100   1.587   5.041
12693TIP3    H138020   1.124   1.578   5.133
12693TIP3    H238021   1.103   1.681   5.024
12694TIP3   OH238022   0.105   2.001   5.551
12694TIP3    H138023   0.016   2.007   5.587
12694TIP3    H238024   0.104   2.061   5.476
12695TIP3   OH238025   1.015   5.815   0.042
12695TIP3    H138026   1.075   5.885   0.067
12695TIP3    H238027   1.070   5.739   0.029
12696TIP3   OH238028   7.075   4.570   3.797
12696TIP3    H138029   7.019   4.623   3.741
12696TIP3    H238030   7.149   4.546   3.741
12697TIP3   OH238031   7.534   6.559   6.385
12697TIP3    H138032   7.629   6.552   6.377
12697TIP3    H238033   7.503   6.470   6.370
12698TIP3   OH238034   8.243   5.383   4.389
12698TIP3    H138035   8.263   5.477   4.386
12698TIP3    H238036   8.243   5.356   4.297
12699TIP3   OH238037   7.110   3.275   0.264
12699TIP3    H138038   7.195   3.251   0.302
12699TIP3    H238039   7.046   3.250   0.331
12700TIP3   OH238040   3.888   1.452   6.755
12700TIP3    H138041   3.806   1.461   6.707
12700TIP3    H238042   3.862   1.433   6.845
12701TIP3   OH238043   0.912   4.485   0.967
12701TIP3    H138044   0.942   4.525   0.886
12701TIP3    H238045   0.928   4.392   0.956
12702TIP3   OH238046   3.632   3.369   5.997
12702TIP3    H138047   3.613   3.326   6.080
12702TIP3    H238048   3.547   3.374   5.953
12703TIP3   OH238049   1.391   5.181   1.496
12703TIP3    H138050   1.444   5.118   1.545
12703TIP3    H238051   1.384   5.144   1.408
12704TIP3   OH238052   8.082   0.610   2.910
12704TIP3    H138053   8.052   0.567   2.990
12704TIP3    H238054   8.072   0.704   2.927
12705TIP3   OH238055   2.055   2.465   1.847
12705TIP3    H138056   2.077   2.543   1.796
12705TIP3    H238057   2.098   2.393   1.800
12706TIP3   OH238058   5.177   2.264   5.905
12706TIP3    H138059   5.156   2.230   5.818
12706TIP3    H238060   5.238   2.199   5.942
12707TIP3   OH238061   6.349   1.893   6.825
12707TIP3    H138062   6.429   1.873   6.874
12707TIP3    H238063   6.347   1.827   6.755
12708TIP3   OH238064   0.573   6.591   6.197
12708TIP3    H138065   0.574   6.668   6.140
12708TIP3    H238066   0.665   6.566   6.206
12709TIP3   OH238067   2.697   0.773   2.884
12709TIP3    H138068   2.712   0.730   2.968
12709TIP3    H238069   2.679   0.702   2.823
12710TIP3   OH238070   6.527   1.665   1.328
12710TIP3    H138071   6.447   1.712   1.350
12710TIP3    H238072   6.504   1.573   1.341
12711TIP3   OH238073   3.380   4.468   0.884
12711TIP3    H138074   3.429   4.401   0.837
12711TIP3    H238075   3.379   4.438   0.975
12712TIP3   OH238076   3.102   0.875   2.906
12712TIP3    H138077   3.068   0.787   2.924
12712TIP3    H238078   3.192   0.859   2.876
12713TIP3   OH238079   7.492   3.841   1.961
12713TIP3    H138080   7.465   3.774   2.024
12713TIP3    H238081   7.463   3.808   1.876
12714TIP3   OH238082   8.257   0.359   2.146
12714TIP3    H138083   8.209   0.441   2.131
12714TIP3    H238084   8.197   0.290   2.115
12715TIP3   OH238085   1.600   6.706   5.789
12715TIP3    H138086   1.571   6.615   5.779
12715TIP3    H238087   1.521   6.754   5.811
12716TIP3   OH238088   5.877   2.050   1.011
12716TIP3    H138089   5.814   1.979   1.005
12716TIP3    H238090   5.851   2.098   1.090
12717TIP3   OH238091   6.432   4.519   1.667
12717TIP3    H138092   6.363   4.584   1.663
12717TIP3    H238093   6.402   4.448   1.611
12718TIP3   OH238094   7.840   2.066   1.973
12718TIP3    H138095   7.908   2.018   1.925
12718TIP3    H238096   7.761   2.057   1.919
12719TIP3   OH238097   1.118   2.084   6.240
12719TIP3    H138098   1.102   2.169   6.282
12719TIP3    H238099   1.030   2.046   6.230
12720TIP3   OH238100   2.726   3.444   6.789
12720TIP3    H138101   2.783   3.426   6.864
12720TIP3    H238102   2.786   3.463   6.717
12721TIP3   OH238103   7.043   3.341   5.068
12721TIP3    H138104   7.027   3.276   5.137
12721TIP3    H238105   7.061   3.422   5.116
12722TIP3   OH238106   1.639   5.754   2.530
12722TIP3    H138107   1.700   5.825   2.509
12722TIP3    H238108   1.590   5.786   2.607
12723TIP3   OH238109   6.424   1.295   1.624
12723TIP3    H138110   6.446   1.357   1.693
12723TIP3    H238111   6.460   1.211   1.655
12724TIP3   OH238112   2.055   7.766   4.500
12724TIP3    H138113   2.149   7.780   4.494
12724TIP3    H238114   2.022   7.784   4.412
12725TIP3   OH238115   5.100   5.436   5.299
12725TIP3    H138116   5.030   5.499   5.280
12725TIP3    H238117   5.064   5.351   5.272
12726TIP3   OH238118   3.024   2.098   4.550
12726TIP3    H138119   2.979   2.029   4.599
12726TIP3    H238120   2.986   2.093   4.462
12727TIP3   OH238121   2.670   2.180   3.862
12727TIP3    H138122   2.666   2.098   3.912
12727TIP3    H238123   2.756   2.177   3.819
12728TIP3   OH238124   5.323   2.971   0.506
12728TIP3    H138125   5.296   2.912   0.577
12728TIP3    H238126   5.393   2.924   0.460
12729TIP3   OH238127   7.121   0.737   5.710
12729TIP3    H138128   7.159   0.797   5.645
12729TIP3    H238129   7.136   0.650   5.673
12730TIP3   OH238130   7.885   2.847   0.882
12730TIP3    H138131   7.973   2.812   0.896
12730TIP3    H238132   7.838   2.823   0.962
12731TIP3   OH238133   1.509   4.556   3.420
12731TIP3    H138134   1.482   4.470   3.454
12731TIP3    H238135   1.432   4.611   3.432
12732TIP3   OH238136   3.456   3.167   3.844
12732TIP3    H138137   3.480   3.161   3.937
12732TIP3    H238138   3.406   3.247   3.836
12733TIP3   OH238139   7.865   4.507   2.418
12733TIP3    H138140   7.778   4.540   2.394
12733TIP3    H238141   7.911   4.584   2.451
12734TIP3   OH238142   1.960   5.540   2.227
12734TIP3    H138143   2.055   5.540   2.237
12734TIP3    H238144   1.933   5.452   2.253
12735TIP3   OH238145   6.340   2.704   5.137
12735TIP3    H138146   6.257   2.728   5.095
12735TIP3    H238147   6.375   2.788   5.169
12736TIP3   OH238148   3.089   2.077   5.473
12736TIP3    H138149   3.151   2.020   5.519
12736TIP3    H238150   3.066   2.144   5.538
12737TIP3   OH238151   4.754   0.155   1.253
12737TIP3    H138152   4.834   0.187   1.212
12737TIP3    H238153   4.731   0.224   1.316
12738TIP3   OH238154   5.959   6.847   2.315
12738TIP3    H138155   6.005   6.766   2.295
12738TIP3    H238156   6.029   6.912   2.326
12739TIP3   OH238157   0.786   6.705   2.259
12739TIP3    H138158   0.711   6.750   2.296
12739TIP3    H238159   0.820   6.765   2.192
12740TIP3   OH238160   3.230   2.127   4.749
12740TIP3    H138161   3.300   2.077   4.706
12740TIP3    H238162   3.153   2.110   4.695
12741TIP3   OH238163   0.136   4.404   5.722
12741TIP3    H138164   0.120   4.404   5.627
12741TIP3    H238165   0.159   4.495   5.742
12742TIP3   OH238166   2.917   2.566   1.461
12742TIP3    H138167   2.833   2.609   1.450
12742TIP3    H238168   2.896   2.473   1.472
12743TIP3   OH238169   7.228   7.448   6.578
12743TIP3    H138170   7.247   7.434   6.671
12743TIP3    H238171   7.133   7.440   6.570
12744TIP3   OH238172   6.240   1.254   1.896
12744TIP3    H138173   6.195   1.326   1.851
12744TIP3    H238174   6.171   1.209   1.944
12745TIP3   OH238175   3.713   7.554   1.763
12745TIP3    H138176   3.798   7.572   1.803
12745TIP3    H238177   3.649   7.593   1.822
12746TIP3   OH238178   3.314   1.530   0.764
12746TIP3    H138179   3.289   1.508   0.854
12746TIP3    H238180   3.230   1.536   0.717
12747TIP3   OH238181   2.889   0.324   0.818
12747TIP3    H138182   2.851   0.266   0.884
12747TIP3    H238183   2.927   0.265   0.752
12748TIP3   OH238184   3.825   6.116   1.205
12748TIP3    H138185   3.789   6.193   1.249
12748TIP3    H238186   3.889   6.082   1.267
12749TIP3   OH238187   4.800   3.343   2.523
12749TIP3    H138188   4.765   3.356   2.611
12749TIP3    H238189   4.823   3.431   2.493
12750TIP3   OH238190   6.908   5.777   1.854
12750TIP3    H138191   6.915   5.860   1.902
12750TIP3    H238192   6.984   5.778   1.795
12751TIP3   OH238193   4.141   6.857   5.070
12751TIP3    H138194   4.141   6.775   5.120
12751TIP3    H238195   4.232   6.869   5.044
12752TIP3   OH238196   4.953   1.047   4.129
12752TIP3    H138197   4.991   1.058   4.216
12752TIP3    H238198   4.992   0.966   4.096
12753TIP3   OH238199   6.164   0.912   6.194
12753TIP3    H138200   6.179   0.841   6.132
12753TIP3    H238201   6.244   0.915   6.247
12754TIP3   OH238202   7.036   2.492   0.046
12754TIP3    H138203   7.067   2.559   0.107
12754TIP3    H238204   7.087   2.508  -0.034
12755TIP3   OH238205   7.734   6.693   2.656
12755TIP3    H138206   7.806   6.636   2.628
12755TIP3    H238207   7.673   6.633   2.701
12756TIP3   OH238208   8.333   4.325   1.983
12756TIP3    H138209   8.251   4.344   2.028
12756TIP3    H238210   8.308   4.272   1.908
12757TIP3   OH238211   7.440   7.418   6.047
12757TIP3    H138212   7.440   7.434   5.953
12757TIP3    H238213   7.441   7.323   6.056
12758TIP3   OH238214   4.701   0.684   4.340
12758TIP3    H138215   4.665   0.650   4.258
12758TIP3    H238216   4.793   0.704   4.320
12759TIP3   OH238217   5.785   4.701   3.014
12759TIP3    H138218   5.722   4.636   2.981
12759TIP3    H238219   5.869   4.657   3.010
12760TIP3   OH238220   4.699   4.773   5.740
12760TIP3    H138221   4.678   4.685   5.710
12760TIP3    H238222   4.631   4.828   5.702
12761TIP3   OH238223   6.346   5.465   2.904
12761TIP3    H138224   6.326   5.450   2.996
12761TIP3    H238225   6.441   5.461   2.898
12762TIP3   OH238226   6.907   5.571   2.391
12762TIP3    H138227   6.895   5.626   2.313
12762TIP3    H238228   6.848   5.496   2.377
12763TIP3   OH238229   6.854   3.470   5.509
12763TIP3    H138230   6.823   3.400   5.451
12763TIP3    H238231   6.807   3.456   5.591
12764TIP3   OH238232   2.909   4.416   4.043
12764TIP3    H138233   2.945   4.412   4.132
12764TIP3    H238234   2.984   4.441   3.989
12765TIP3   OH238235   1.614   3.097   6.134
12765TIP3    H138236   1.687   3.133   6.185
12765TIP3    H238237   1.656   3.061   6.055
12766TIP3   OH238238   3.193   1.424   3.971
12766TIP3    H138239   3.203   1.476   3.891
12766TIP3    H238240   3.101   1.400   3.973
12767TIP3   OH238241   1.895   6.620   6.501
12767TIP3    H138242   1.896   6.525   6.509
12767TIP3    H238243   1.895   6.636   6.406
12768TIP3   OH238244   7.460   6.272   0.471
12768TIP3    H138245   7.410   6.248   0.549
12768TIP3    H238246   7.538   6.316   0.505
12769TIP3   OH238247   0.549   5.385   5.298
12769TIP3    H138248   0.466   5.429   5.318
12769TIP3    H238249   0.592   5.443   5.236
12770TIP3   OH238250   8.232   5.209   1.342
12770TIP3    H138251   8.223   5.234   1.434
12770TIP3    H238252   8.304   5.147   1.341
12771TIP3   OH238253   3.683   3.373   3.766
12771TIP3    H138254   3.669   3.286   3.804
12771TIP3    H238255   3.770   3.399   3.796
12772TIP3   OH238256   1.475   4.758   1.383
12772TIP3    H138257   1.521   4.784   1.463
12772TIP3    H238258   1.505   4.669   1.366
12773TIP3   OH238259   2.774   7.640   0.122
12773TIP3    H138260   2.796   7.596   0.205
12773TIP3    H238261   2.779   7.733   0.142
12774TIP3   OH238262   6.690   2.526   0.597
12774TIP3    H138263   6.692   2.464   0.524
12774TIP3    H238264   6.775   2.571   0.591
12775TIP3   OH238265   4.086   6.959   4.455
12775TIP3    H138266   4.128   7.035   4.495
12775TIP3    H238267   4.013   6.996   4.405
12776TIP3   OH238268   4.459   4.145   1.691
12776TIP3    H138269   4.508   4.064   1.679
12776TIP3    H238270   4.498   4.186   1.768
12777TIP3   OH238271   7.913   0.026   3.406
12777TIP3    H138272   7.833   0.043   3.455
12777TIP3    H238273   7.919   0.098   3.343
12778TIP3   OH238274   6.481   2.590   4.883
12778TIP3    H138275   6.497   2.679   4.851
12778TIP3    H238276   6.419   2.601   4.955
12779TIP3   OH238277   2.057   4.928   0.295
12779TIP3    H138278   2.047   5.010   0.246
12779TIP3    H238279   2.119   4.877   0.243
12780TIP3   OH238280   6.079   0.311   2.759
12780TIP3    H138281   6.139   0.257   2.708
12780TIP3    H238282   6.000   0.258   2.766
12781TIP3   OH238283   5.117   1.185   6.018
12781TIP3    H138284   5.159   1.256   6.067
12781TIP3    H238285   5.109   1.219   5.929
12782TIP3   OH238286   3.842   0.608   3.150
12782TIP3    H138287   3.779   0.652   3.092
12782TIP3    H238288   3.924   0.609   3.101
12783TIP3   OH238289   3.667   4.978   2.636
12783TIP3    H138290   3.638   4.926   2.711
12783TIP3    H238291   3.675   4.915   2.564
12784TIP3   OH238292   2.877   4.061   6.384
12784TIP3    H138293   2.903   4.152   6.401
12784TIP3    H238294   2.922   4.010   6.451
12785TIP3   OH238295   1.463   0.989   6.610
12785TIP3    H138296   1.404   1.062   6.587
12785TIP3    H238297   1.474   0.941   6.528
12786TIP3   OH238298   3.159   4.829   0.229
12786TIP3    H138299   3.231   4.772   0.257
12786TIP3    H238300   3.149   4.893   0.299
12787TIP3   OH238301   7.786   0.973   6.653
12787TIP3    H138302   7.720   0.940   6.592
12787TIP3    H238303   7.869   0.940   6.619
12788TIP3   OH238304   5.233   1.953   1.620
12788TIP3    H138305   5.247   2.042   1.587
12788TIP3    H238306   5.236   1.897   1.543
12789TIP3   OH238307   0.626   1.712   0.187
12789TIP3    H138308   0.650   1.623   0.212
12789TIP3    H238309   0.704   1.765   0.207
12790TIP3   OH238310   2.181   3.450   6.322
12790TIP3    H138311   2.133   3.507   6.382
12790TIP3    H238312   2.170   3.491   6.236
12791TIP3   OH238313   1.892   6.722   6.230
12791TIP3    H138314   1.962   6.693   6.173
12791TIP3    H238315   1.842   6.785   6.178
12792TIP3   OH238316   6.630   6.365   0.140
12792TIP3    H138317   6.679   6.392   0.218
12792TIP3    H238318   6.698   6.348   0.074
12793TIP3   OH238319   1.000   2.014   2.428
12793TIP3    H138320   1.001   2.097   2.381
12793TIP3    H238321   0.982   1.949   2.361
12794TIP3   OH238322   2.291   5.447   5.109
12794TIP3    H138323   2.312   5.519   5.168
12794TIP3    H238324   2.262   5.489   5.029
12795TIP3   OH238325   4.485   1.400   1.530
12795TIP3    H138326   4.445   1.356   1.605
12795TIP3    H238327   4.547   1.462   1.569
12796TIP3   OH238328   1.643   7.363   5.690
12796TIP3    H138329   1.641   7.406   5.605
12796TIP3    H238330   1.660   7.271   5.670
12797TIP3   OH238331   6.366   7.327   0.499
12797TIP3    H138332   6.312   7.248   0.488
12797TIP3    H238333   6.390   7.352   0.410
12798TIP3   OH238334   1.348   6.557   0.289
12798TIP3    H138335   1.406   6.481   0.300
12798TIP3    H238336   1.406   6.626   0.257
12799TIP3   OH238337   8.009   1.309   1.691
12799TIP3    H138338   7.997   1.362   1.612
12799TIP3    H238339   8.055   1.231   1.661
12800TIP3   OH238340   2.592   4.142   0.483
12800TIP3    H138341   2.524   4.149   0.416
12800TIP3    H238342   2.587   4.225   0.530
12801TIP3   OH238343   1.919   2.247   4.520
12801TIP3    H138344   1.991   2.303   4.548
12801TIP3    H238345   1.956   2.191   4.452
12802TIP3   OH238346   4.427   0.940   3.782
12802TIP3    H138347   4.349   0.887   3.764
12802TIP3    H238348   4.441   0.931   3.876
12803TIP3   OH238349   7.524   7.577   6.450
12803TIP3    H138350   7.542   7.506   6.387
12803TIP3    H238351   7.429   7.581   6.455
12804TIP3   OH238352   0.366   3.232   5.569
12804TIP3    H138353   0.296   3.185   5.613
12804TIP3    H238354   0.324   3.311   5.534
12805TIP3   OH238355   3.141   4.716   3.785
12805TIP3    H138356   3.214   4.674   3.740
12805TIP3    H238357   3.166   4.716   3.877
12806TIP3   OH238358   5.240   3.151   0.714
12806TIP3    H138359   5.242   3.116   0.803
12806TIP3    H238360   5.264   3.077   0.659
12807TIP3   OH238361   4.311   5.204   0.521
12807TIP3    H138362   4.402   5.175   0.522
12807TIP3    H238363   4.314   5.289   0.477
12808TIP3   OH238364   8.281   6.170   6.357
12808TIP3    H138365   8.343   6.203   6.422
12808TIP3    H238366   8.244   6.092   6.397
12809TIP3   OH238367   5.426   7.125   4.448
12809TIP3    H138368   5.442   7.205   4.397
12809TIP3    H238369   5.473   7.056   4.399
12810TIP3   OH238370   4.105   6.071   3.500
12810TIP3    H138371   4.104   6.123   3.581
12810TIP3    H238372   4.189   6.027   3.501
12811TIP3   OH238373   7.864   0.378   2.489
12811TIP3    H138374   7.896   0.314   2.425
12811TIP3    H238375   7.924   0.452   2.480
12812TIP3   OH238376   0.835   2.845   4.417
12812TIP3    H138377   0.789   2.817   4.496
12812TIP3    H238378   0.771   2.899   4.370
12813TIP3   OH238379   7.238   1.301   2.321
12813TIP3    H138380   7.194   1.385   2.306
12813TIP3    H238381   7.189   1.260   2.392
12814TIP3   OH238382   6.867   4.323   1.721
12814TIP3    H138383   6.927   4.261   1.762
12814TIP3    H238384   6.826   4.369   1.795
12815TIP3   OH238385   8.229   4.812   4.254
12815TIP3    H138386   8.308   4.832   4.304
12815TIP3    H238387   8.259   4.800   4.164
12816TIP3   OH238388   4.131   2.437   5.195
12816TIP3    H138389   4.080   2.422   5.274
12816TIP3    H238390   4.139   2.532   5.190
12817TIP3   OH238391   1.209   0.612   6.607
12817TIP3    H138392   1.222   0.592   6.515
12817TIP3    H238393   1.156   0.539   6.640
12818TIP3   OH238394   6.727   6.454   2.465
12818TIP3    H138395   6.673   6.527   2.434
12818TIP3    H238396   6.719   6.458   2.560
12819TIP3   OH238397   2.820   1.891   1.775
12819TIP3    H138398   2.741   1.839   1.761
12819TIP3    H238399   2.793   1.960   1.836
12820TIP3   OH238400   7.065   2.265   3.716
12820TIP3    H138401   7.099   2.344   3.758
12820TIP3    H238402   7.143   2.221   3.681
12821TIP3   OH238403   1.499   5.778   1.506
12821TIP3    H138404   1.586   5.741   1.491
12821TIP3    H238405   1.444   5.740   1.437
12822TIP3   OH238406   4.470   1.209   5.606
12822TIP3    H138407   4.563   1.191   5.593
12822TIP3    H238408   4.433   1.209   5.517
12823TIP3   OH238409   7.637   4.363   5.534
12823TIP3    H138410   7.629   4.271   5.560
12823TIP3    H238411   7.663   4.360   5.442
12824TIP3   OH238412   1.921   5.498   0.993
12824TIP3    H138413   1.994   5.497   0.931
12824TIP3    H238414   1.963   5.508   1.079
12825TIP3   OH238415   3.306   1.538   3.757
12825TIP3    H138416   3.320   1.520   3.664
12825TIP3    H238417   3.314   1.633   3.765
12826TIP3   OH238418   6.483   5.302   4.739
12826TIP3    H138419   6.557   5.306   4.799
12826TIP3    H238420   6.521   5.275   4.655
12827TIP3   OH238421   3.363   5.900   1.040
12827TIP3    H138422   3.284   5.953   1.045
12827TIP3    H238423   3.396   5.913   0.951
12828TIP3   OH238424   1.936   2.084   3.069
12828TIP3    H138425   2.010   2.052   3.121
12828TIP3    H238426   1.866   2.020   3.085
12829TIP3   OH238427   0.081   7.732   4.587
12829TIP3    H138428   0.148   7.726   4.519
12829TIP3    H238429   0.010   7.676   4.557
12830TIP3   OH238430   5.259   3.276   6.013
12830TIP3    H138431   5.265   3.214   5.940
12830TIP3    H238432   5.319   3.347   5.989
12831TIP3   OH238433   0.026   2.983   5.956
12831TIP3    H138434   0.074   3.064   5.939
12831TIP3    H238435  -0.046   2.984   5.893
12832TIP3   OH238436   3.024   4.519   5.873
12832TIP3    H138437   3.109   4.477   5.886
12832TIP3    H238438   2.971   4.453   5.828
12833TIP3   OH238439   5.022   1.602   2.694
12833TIP3    H138440   5.013   1.584   2.600
12833TIP3    H238441   4.933   1.620   2.723
12834TIP3   OH238442   3.615   0.793   3.057
12834TIP3    H138443   3.578   0.728   3.117
12834TIP3    H238444   3.599   0.877   3.100
12835TIP3   OH238445   7.194   4.865   6.085
12835TIP3    H138446   7.162   4.854   6.175
12835TIP3    H238447   7.240   4.783   6.066
12836TIP3   OH238448   0.454   2.944   0.240
12836TIP3    H138449   0.531   2.909   0.194
12836TIP3    H238450   0.392   2.967   0.171
12837TIP3   OH238451   4.797   4.086   1.658
12837TIP3    H138452   4.811   4.139   1.579
12837TIP3    H238453   4.718   4.036   1.640
12838TIP3   OH238454   5.894   5.035   3.854
12838TIP3    H138455   5.914   4.974   3.925
12838TIP3    H238456   5.798   5.033   3.847
12839TIP3   OH238457   2.254   0.215   4.936
12839TIP3    H138458   2.173   0.192   4.980
12839TIP3    H238459   2.268   0.145   4.873
12840TIP3   OH238460   4.497   6.034   1.593
12840TIP3    H138461   4.445   5.973   1.646
12840TIP3    H238462   4.434   6.103   1.569
12841TIP3   OH238463   3.790   7.739   6.457
12841TIP3    H138464   3.723   7.711   6.520
12841TIP3    H238465   3.872   7.703   6.492
12842TIP3   OH238466   3.935   7.326   4.559
12842TIP3    H138467   3.926   7.391   4.489
12842TIP3    H238468   3.939   7.378   4.639
12843TIP3   OH238469   3.723   2.427   4.807
12843TIP3    H138470   3.801   2.371   4.805
12843TIP3    H238471   3.757   2.513   4.829
12844TIP3   OH238472   5.107   7.586   1.420
12844TIP3    H138473   5.053   7.611   1.496
12844TIP3    H238474   5.060   7.624   1.345
12845TIP3   OH238475   0.928   0.115   5.390
12845TIP3    H138476   0.879   0.197   5.387
12845TIP3    H238477   0.935   0.087   5.299
12846TIP3   OH238478   0.327   4.915  -0.003
12846TIP3    H138479   0.237   4.948   0.000
12846TIP3    H238480   0.319   4.822   0.016
12847TIP3   OH238481   3.201   1.682   5.760
12847TIP3    H138482   3.155   1.607   5.796
12847TIP3    H238483   3.252   1.717   5.833
12848TIP3   OH238484   2.699   2.990   0.347
12848TIP3    H138485   2.669   2.899   0.358
12848TIP3    H238486   2.794   2.985   0.354
12849TIP3   OH238487   5.704   0.153   1.588
12849TIP3    H138488   5.699   0.159   1.683
12849TIP3    H238489   5.798   0.152   1.569
12850TIP3   OH238490   7.798   6.108   5.292
12850TIP3    H138491   7.793   6.056   5.212
12850TIP3    H238492   7.758   6.192   5.269
12851TIP3   OH238493   2.501   5.083   6.014
12851TIP3    H138494   2.464   5.055   6.098
12851TIP3    H238495   2.425   5.094   5.957
12852TIP3   OH238496   8.275   6.019   6.102
12852TIP3    H138497   8.268   6.057   6.190
12852TIP3    H238498   8.188   5.984   6.083
12853TIP3   OH238499   2.082   7.000   2.482
12853TIP3    H138500   2.013   7.030   2.422
12853TIP3    H238501   2.161   7.043   2.450
12854TIP3   OH238502   6.857   5.850   5.928
12854TIP3    H138503   6.789   5.787   5.905
12854TIP3    H238504   6.868   5.903   5.848
12855TIP3   OH238505   3.264   3.540   6.565
12855TIP3    H138506   3.231   3.621   6.605
12855TIP3    H238507   3.272   3.562   6.472
12856TIP3   OH238508   5.842   5.689   1.082
12856TIP3    H138509   5.926   5.671   1.123
12856TIP3    H238510   5.863   5.710   0.991
12857TIP3   OH238511   4.178   5.450   0.146
12857TIP3    H138512   4.176   5.443   0.051
12857TIP3    H238513   4.108   5.391   0.176
12858TIP3   OH238514   3.834   0.173   4.757
12858TIP3    H138515   3.898   0.215   4.814
12858TIP3    H238516   3.751   0.216   4.777
12859TIP3   OH238517   1.246   4.421   4.479
12859TIP3    H138518   1.169   4.364   4.487
12859TIP3    H238519   1.320   4.364   4.500
12860TIP3   OH238520   5.984   0.988   4.443
12860TIP3    H138521   5.964   0.970   4.535
12860TIP3    H238522   5.913   1.046   4.414
12861TIP3   OH238523   1.693   1.133   1.228
12861TIP3    H138524   1.660   1.128   1.318
12861TIP3    H238525   1.776   1.181   1.235
12862TIP3   OH238526   1.192   2.217   5.302
12862TIP3    H138527   1.181   2.281   5.372
12862TIP3    H238528   1.219   2.136   5.346
12863TIP3   OH238529   1.290   3.289   2.849
12863TIP3    H138530   1.355   3.336   2.902
12863TIP3    H238531   1.299   3.198   2.875
12864TIP3   OH238532   6.186   2.993   0.186
12864TIP3    H138533   6.103   2.964   0.223
12864TIP3    H238534   6.170   2.995   0.091
12865TIP3   OH238535   4.180   0.516   5.304
12865TIP3    H138536   4.095   0.513   5.348
12865TIP3    H238537   4.169   0.578   5.232
12866TIP3   OH238538   8.079   7.848   3.246
12866TIP3    H138539   8.019   7.903   3.297
12866TIP3    H238540   8.163   7.893   3.252
12867TIP3   OH238541   2.360   1.941   2.158
12867TIP3    H138542   2.299   1.961   2.230
12867TIP3    H238543   2.378   1.848   2.167
12868TIP3   OH238544   2.206   7.755   0.237
12868TIP3    H138545   2.247   7.817   0.297
12868TIP3    H238546   2.235   7.669   0.267
12869TIP3   OH238547   1.079   2.704   0.603
12869TIP3    H138548   1.127   2.630   0.567
12869TIP3    H238549   1.082   2.771   0.534
12870TIP3   OH238550   6.241   2.011   5.473
12870TIP3    H138551   6.239   2.043   5.563
12870TIP3    H238552   6.326   1.966   5.465
12871TIP3   OH238553   5.558   5.957   6.196
12871TIP3    H138554   5.498   5.922   6.130
12871TIP3    H238555   5.616   6.015   6.148
12872TIP3   OH238556   6.535   7.915   1.758
12872TIP3    H138557   6.563   7.834   1.715
12872TIP3    H238558   6.450   7.935   1.718
12873TIP3   OH238559   6.917   1.996   3.369
12873TIP3    H138560   6.969   1.918   3.388
12873TIP3    H238561   6.827   1.971   3.392
12874TIP3   OH238562   2.331   0.927   1.066
12874TIP3    H138563   2.383   0.898   1.141
12874TIP3    H238564   2.381   1.000   1.029
12875TIP3   OH238565   7.263   1.794   4.013
12875TIP3    H138566   7.281   1.849   4.089
12875TIP3    H238567   7.313   1.713   4.029
12876TIP3   OH238568   7.653   0.861   4.900
12876TIP3    H138569   7.651   0.784   4.957
12876TIP3    H238570   7.674   0.827   4.813
12877TIP3   OH238571   0.171   1.493   0.045
12877TIP3    H138572   0.236   1.449   0.099
12877TIP3    H238573   0.131   1.558   0.103
12878TIP3   OH238574   0.374   3.960   0.810
12878TIP3    H138575   0.344   3.993   0.725
12878TIP3    H238576   0.376   4.037   0.867
12879TIP3   OH238577   5.436   1.407   4.461
12879TIP3    H138578   5.426   1.413   4.555
12879TIP3    H238579   5.349   1.427   4.425
12880TIP3   OH238580   5.329   4.067   6.720
12880TIP3    H138581   5.243   4.041   6.754
12880TIP3    H238582   5.341   4.013   6.642
12881TIP3   OH238583   1.323   6.066   4.799
12881TIP3    H138584   1.347   6.142   4.853
12881TIP3    H238585   1.312   6.102   4.711
12882TIP3   OH238586   3.793   2.399   1.685
12882TIP3    H138587   3.783   2.327   1.748
12882TIP3    H238588   3.777   2.358   1.600
12883TIP3   OH238589   0.672   0.032   5.148
12883TIP3    H138590   0.699   0.116   5.111
12883TIP3    H238591   0.749  -0.024   5.140
12884TIP3   OH238592   3.302   2.722   5.345
12884TIP3    H138593   3.294   2.633   5.378
12884TIP3    H238594   3.215   2.761   5.358
12885TIP3   OH238595   0.607   5.625   1.814
12885TIP3    H138596   0.550   5.652   1.742
12885TIP3    H238597   0.618   5.531   1.802
12886TIP3   OH238598   0.155   2.801   1.573
12886TIP3    H138599   0.138   2.787   1.480
12886TIP3    H238600   0.234   2.749   1.591
12887TIP3   OH238601   2.157   0.566   1.361
12887TIP3    H138602   2.228   0.502   1.372
12887TIP3    H238603   2.103   0.556   1.440
12888TIP3   OH238604   8.386   3.273   2.940
12888TIP3    H138605   8.446   3.273   3.015
12888TIP3    H238606   8.304   3.241   2.975
12889TIP3   OH238607   8.378   5.589   3.283
12889TIP3    H138608   8.435   5.659   3.251
12889TIP3    H238609   8.290   5.628   3.283
12890TIP3   OH238610   4.354   1.662   1.175
12890TIP3    H138611   4.428   1.602   1.184
12890TIP3    H238612   4.369   1.729   1.241
12891TIP3   OH238613   2.516   0.552   5.205
12891TIP3    H138614   2.529   0.610   5.130
12891TIP3    H238615   2.592   0.567   5.261
12892TIP3   OH238616   4.144   7.489   0.066
12892TIP3    H138617   4.184   7.559   0.014
12892TIP3    H238618   4.118   7.424   0.002
12893TIP3   OH238619   0.086   0.213   4.656
12893TIP3    H138620   0.008   0.176   4.697
12893TIP3    H238621   0.068   0.307   4.651
12894TIP3   OH238622   2.670   1.878   3.213
12894TIP3    H138623   2.590   1.851   3.258
12894TIP3    H238624   2.677   1.972   3.231
12895TIP3   OH238625   1.791   3.872   3.032
12895TIP3    H138626   1.700   3.885   3.007
12895TIP3    H238627   1.836   3.951   3.003
12896TIP3   OH238628   1.425   2.064   6.034
12896TIP3    H138629   1.432   2.109   5.950
12896TIP3    H238630   1.466   1.979   6.020
12897TIP3   OH238631   3.188   6.094   3.059
12897TIP3    H138632   3.201   6.126   3.149
12897TIP3    H238633   3.239   6.013   3.056
12898TIP3   OH238634   0.390   4.909   5.142
12898TIP3    H138635   0.453   4.892   5.072
12898TIP3    H238636   0.359   4.998   5.126
12899TIP3   OH238637   5.753   2.690   2.779
12899TIP3    H138638   5.726   2.604   2.747
12899TIP3    H238639   5.762   2.678   2.874
12900TIP3   OH238640   1.440   7.198   1.344
12900TIP3    H138641   1.431   7.294   1.340
12900TIP3    H238642   1.350   7.166   1.341
12901TIP3   OH238643   7.200   6.171   2.539
12901TIP3    H138644   7.267   6.224   2.583
12901TIP3    H238645   7.119   6.220   2.551
12902TIP3   OH238646   3.399   3.634   4.593
12902TIP3    H138647   3.349   3.671   4.520
12902TIP3    H238648   3.490   3.658   4.576
12903TIP3   OH238649   3.729   6.413   1.555
12903TIP3    H138650   3.817   6.377   1.550
12903TIP3    H238651   3.734   6.482   1.621
12904TIP3   OH238652   1.384   7.013   2.068
12904TIP3    H138653   1.464   6.988   2.113
12904TIP3    H238654   1.334   6.932   2.061
12905TIP3   OH238655   7.634   3.779   1.585
12905TIP3    H138656   7.652   3.873   1.580
12905TIP3    H238657   7.720   3.739   1.604
12906TIP3   OH238658   3.302   0.163   4.713
12906TIP3    H138659   3.344   0.245   4.690
12906TIP3    H238660   3.358   0.124   4.780
12907TIP3   OH238661   2.007   2.518   0.563
12907TIP3    H138662   2.043   2.455   0.625
12907TIP3    H238663   2.075   2.530   0.497
12908TIP3   OH238664   5.348   7.397   3.928
12908TIP3    H138665   5.282   7.441   3.982
12908TIP3    H238666   5.342   7.305   3.953
12909TIP3   OH238667   3.845   5.461   3.071
12909TIP3    H138668   3.925   5.428   3.112
12909TIP3    H238669   3.774   5.414   3.115
12910TIP3   OH238670   0.486   7.686   1.665
12910TIP3    H138671   0.392   7.672   1.670
12910TIP3    H238672   0.503   7.756   1.728
12911TIP3   OH238673   4.275   4.917   0.320
12911TIP3    H138674   4.294   5.009   0.301
12911TIP3    H238675   4.302   4.870   0.241
12912TIP3   OH238676   0.258   4.009   3.425
12912TIP3    H138677   0.274   3.974   3.337
12912TIP3    H238678   0.342   4.043   3.453
12913TIP3   OH238679   5.897   6.441   3.307
12913TIP3    H138680   5.831   6.510   3.309
12913TIP3    H238681   5.851   6.363   3.338
12914TIP3   OH238682   1.016   4.101   2.439
12914TIP3    H138683   1.040   4.192   2.450
12914TIP3    H238684   1.085   4.065   2.383
12915TIP3   OH238685   6.314   5.652   3.611
12915TIP3    H138686   6.331   5.587   3.679
12915TIP3    H238687   6.231   5.692   3.636
12916TIP3   OH238688   1.567   2.433   2.623
12916TIP3    H138689   1.512   2.374   2.571
12916TIP3    H238690   1.525   2.436   2.708
12917TIP3   OH238691   4.783   1.568   4.449
12917TIP3    H138692   4.837   1.628   4.500
12917TIP3    H238693   4.778   1.489   4.502
12918TIP3   OH238694   7.831   3.158   6.701
12918TIP3    H138695   7.843   3.176   6.795
12918TIP3    H238696   7.886   3.223   6.657
12919TIP3   OH238697   1.574   0.595   2.721
12919TIP3    H138698   1.661   0.604   2.759
12919TIP3    H238699   1.519   0.653   2.774
12920TIP3   OH238700   2.994   1.207   6.773
12920TIP3    H138701   3.024   1.145   6.840
12920TIP3    H238702   2.977   1.288   6.821
12921TIP3   OH238703   0.489   6.300   5.785
12921TIP3    H138704   0.530   6.385   5.766
12921TIP3    H238705   0.554   6.235   5.758
12922TIP3   OH238706   4.072   3.504   4.405
12922TIP3    H138707   4.073   3.429   4.345
12922TIP3    H238708   4.163   3.532   4.409
12923TIP3   OH238709   1.796   6.593   4.592
12923TIP3    H138710   1.851   6.549   4.657
12923TIP3    H238711   1.850   6.599   4.513
12924TIP3   OH238712   7.566   2.173   5.143
12924TIP3    H138713   7.567   2.164   5.048
12924TIP3    H238714   7.639   2.119   5.173
12925TIP3   OH238715   7.948   1.875   1.039
12925TIP3    H138716   7.954   1.968   1.064
12925TIP3    H238717   7.921   1.876   0.947
12926TIP3   OH238718   1.186   2.240   3.798
12926TIP3    H138719   1.261   2.185   3.819
12926TIP3    H238720   1.211   2.328   3.827
12927TIP3   OH238721   5.482   5.879   3.469
12927TIP3    H138722   5.523   5.829   3.540
12927TIP3    H238723   5.520   5.843   3.389
12928TIP3   OH238724   6.697   2.981   1.404
12928TIP3    H138725   6.619   2.971   1.350
12928TIP3    H238726   6.720   2.893   1.431
12929TIP3   OH238727   1.764   3.387   0.598
12929TIP3    H138728   1.794   3.393   0.507
12929TIP3    H238729   1.673   3.360   0.591
12930TIP3   OH238730   7.738   0.012   1.863
12930TIP3    H138731   7.790   0.085   1.830
12930TIP3    H238732   7.649   0.030   1.831
12931TIP3   OH238733   6.317   2.881   6.821
12931TIP3    H138734   6.329   2.798   6.774
12931TIP3    H238735   6.382   2.878   6.891
12932TIP3   OH238736   8.213   3.519   2.859
12932TIP3    H138737   8.203   3.578   2.785
12932TIP3    H238738   8.294   3.547   2.902
12933TIP3   OH238739   2.264   5.412   1.023
12933TIP3    H138740   2.223   5.332   0.988
12933TIP3    H238741   2.261   5.474   0.950
12934TIP3   OH238742   6.864   2.351   5.431
12934TIP3    H138743   6.872   2.305   5.515
12934TIP3    H238744   6.940   2.322   5.380
12935TIP3   OH238745   2.033   6.062   4.275
12935TIP3    H138746   2.049   5.982   4.323
12935TIP3    H238747   1.991   6.034   4.194
12936TIP3   OH238748   3.435   3.941   3.096
12936TIP3    H138749   3.495   3.910   3.028
12936TIP3    H238750   3.415   4.031   3.072
12937TIP3   OH238751   5.422   5.496   4.432
12937TIP3    H138752   5.338   5.507   4.387
12937TIP3    H238753   5.448   5.406   4.412
12938TIP3   OH238754   6.230   6.060   3.603
12938TIP3    H138755   6.322   6.080   3.619
12938TIP3    H238756   6.229   6.016   3.518
12939TIP3   OH238757   1.449   5.963   6.222
12939TIP3    H138758   1.395   5.927   6.151
12939TIP3    H238759   1.537   5.969   6.184
12940TIP3   OH238760   0.687   7.777   3.836
12940TIP3    H138761   0.768   7.809   3.875
12940TIP3    H238762   0.716   7.716   3.768
12941TIP3   OH238763   5.202   1.884   2.534
12941TIP3    H138764   5.187   1.823   2.606
12941TIP3    H238765   5.167   1.839   2.457
12942TIP3   OH238766   7.375   1.218   0.373
12942TIP3    H138767   7.329   1.141   0.407
12942TIP3    H238768   7.384   1.200   0.279
12943TIP3   OH238769   8.396   0.456   4.760
12943TIP3    H138770   8.489   0.477   4.773
12943TIP3    H238771   8.355   0.540   4.740
12944TIP3   OH238772   3.757   3.909   1.155
12944TIP3    H138773   3.699   3.916   1.230
12944TIP3    H238774   3.720   3.838   1.103
12945TIP3   OH238775   1.363   3.040   4.144
12945TIP3    H138776   1.360   2.976   4.074
12945TIP3    H238777   1.305   3.005   4.212
12946TIP3   OH238778   8.297   2.163   6.486
12946TIP3    H138779   8.259   2.122   6.563
12946TIP3    H238780   8.221   2.195   6.436
12947TIP3   OH238781   8.355   7.849   6.586
12947TIP3    H138782   8.315   7.769   6.553
12947TIP3    H238783   8.414   7.877   6.515
12948TIP3   OH238784   6.807   1.379   1.503
12948TIP3    H138785   6.843   1.346   1.585
12948TIP3    H238786   6.807   1.474   1.513
12949TIP3   OH238787   6.799   6.450   3.144
12949TIP3    H138788   6.713   6.409   3.148
12949TIP3    H238789   6.796   6.518   3.212
12950TIP3   OH238790   0.348   5.784   1.768
12950TIP3    H138791   0.312   5.863   1.730
12950TIP3    H238792   0.415   5.815   1.830
12951TIP3   OH238793   4.935   7.017   1.836
12951TIP3    H138794   5.012   6.988   1.885
12951TIP3    H238795   4.919   7.106   1.866
12952TIP3   OH238796   2.886   7.798   1.470
12952TIP3    H138797   2.904   7.715   1.512
12952TIP3    H238798   2.933   7.794   1.387
12953TIP3   OH238799   0.659   6.795   0.588
12953TIP3    H138800   0.633   6.885   0.568
12953TIP3    H238801   0.689   6.798   0.679
12954TIP3   OH238802   5.485   0.674   1.748
12954TIP3    H138803   5.490   0.739   1.678
12954TIP3    H238804   5.571   0.679   1.791
12955TIP3   OH238805   8.231   6.193   2.799
12955TIP3    H138806   8.141   6.223   2.809
12955TIP3    H238807   8.275   6.219   2.880
12956TIP3   OH238808   1.810   2.509   1.305
12956TIP3    H138809   1.890   2.534   1.258
12956TIP3    H238810   1.840   2.490   1.394
12957TIP3   OH238811   4.201   0.925   2.645
12957TIP3    H138812   4.164   0.913   2.558
12957TIP3    H238813   4.257   0.848   2.659
12958TIP3   OH238814   1.045   3.231   3.919
12958TIP3    H138815   0.998   3.262   3.841
12958TIP3    H238816   1.137   3.250   3.901
12959TIP3   OH238817   0.357   0.111   5.128
12959TIP3    H138818   0.419   0.160   5.182
12959TIP3    H238819   0.343   0.030   5.177
12960TIP3   OH238820   0.485   5.980   3.235
12960TIP3    H138821   0.405   5.941   3.202
12960TIP3    H238822   0.460   6.069   3.260
12961TIP3   OH238823   8.160   7.516   2.806
12961TIP3    H138824   8.086   7.577   2.814
12961TIP3    H238825   8.185   7.498   2.897
12962TIP3   OH238826   7.062   2.328   5.261
12962TIP3    H138827   7.041   2.345   5.170
12962TIP3    H238828   7.143   2.276   5.258
12963TIP3   OH238829   2.584   5.815   2.108
12963TIP3    H138830   2.579   5.769   2.025
12963TIP3    H238831   2.677   5.837   2.118
12964TIP3   OH238832   1.302   3.015   2.297
12964TIP3    H138833   1.234   3.015   2.229
12964TIP3    H238834   1.282   2.938   2.351
12965TIP3   OH238835   2.316   6.368   1.821
12965TIP3    H138836   2.314   6.274   1.800
12965TIP3    H238837   2.361   6.372   1.906
12966TIP3   OH238838   4.953   0.502   5.143
12966TIP3    H138839   5.010   0.427   5.130
12966TIP3    H238840   4.866   0.470   5.121
12967TIP3   OH238841   2.840   0.771   1.770
12967TIP3    H138842   2.911   0.785   1.833
12967TIP3    H238843   2.775   0.721   1.819
12968TIP3   OH238844   7.596   3.492   0.565
12968TIP3    H138845   7.626   3.401   0.563
12968TIP3    H238846   7.503   3.487   0.587
12969TIP3   OH238847   2.643   0.299   5.913
12969TIP3    H138848   2.583   0.368   5.941
12969TIP3    H238849   2.592   0.218   5.923
12970TIP3   OH238850   1.335   0.053   3.856
12970TIP3    H138851   1.411   0.102   3.823
12970TIP3    H238852   1.367   0.010   3.936
12971TIP3   OH238853   7.617   2.889   4.511
12971TIP3    H138854   7.668   2.946   4.569
12971TIP3    H238855   7.644   2.800   4.535
12972TIP3   OH238856   1.643   6.746   2.846
12972TIP3    H138857   1.612   6.772   2.759
12972TIP3    H238858   1.724   6.794   2.858
12973TIP3   OH238859   8.251   3.341   6.775
12973TIP3    H138860   8.346   3.334   6.779
12973TIP3    H238861   8.234   3.383   6.691
12974TIP3   OH238862   4.855   3.921   5.372
12974TIP3    H138863   4.898   3.929   5.287
12974TIP3    H238864   4.791   3.850   5.359
12975TIP3   OH238865   5.909   7.236   4.778
12975TIP3    H138866   5.971   7.308   4.765
12975TIP3    H238867   5.961   7.166   4.817
12976TIP3   OH238868   8.219   6.818   2.648
12976TIP3    H138869   8.289   6.788   2.705
12976TIP3    H238870   8.257   6.817   2.560
12977TIP3   OH238871   8.265   7.172   4.359
12977TIP3    H138872   8.336   7.195   4.300
12977TIP3    H238873   8.229   7.255   4.389
12978TIP3   OH238874   4.243   6.531   1.495
12978TIP3    H138875   4.224   6.449   1.450
12978TIP3    H238876   4.157   6.569   1.512
12979TIP3   OH238877   3.234   2.881   3.048
12979TIP3    H138878   3.226   2.941   2.973
12979TIP3    H238879   3.328   2.861   3.052
12980TIP3   OH238880   4.918   1.030   6.091
12980TIP3    H138881   4.928   1.016   6.185
12980TIP3    H238882   4.998   1.076   6.066
12981TIP3   OH238883   7.214   5.931   4.407
12981TIP3    H138884   7.296   5.952   4.362
12981TIP3    H238885   7.158   5.893   4.338
12982TIP3   OH238886   7.295   1.252   6.091
12982TIP3    H138887   7.208   1.285   6.111
12982TIP3    H238888   7.299   1.167   6.136
12983TIP3   OH238889   4.215   6.586   5.103
12983TIP3    H138890   4.220   6.545   5.017
12983TIP3    H238891   4.306   6.604   5.127
12984TIP3   OH238892   6.057   6.609   1.515
12984TIP3    H138893   6.012   6.617   1.430
12984TIP3    H238894   6.139   6.566   1.494
12985TIP3   OH238895   0.104   5.713   4.613
12985TIP3    H138896   0.016   5.686   4.640
12985TIP3    H238897   0.128   5.781   4.676
12986TIP3   OH238898   2.692   2.707   1.896
12986TIP3    H138899   2.768   2.650   1.878
12986TIP3    H238900   2.658   2.675   1.980
12987TIP3   OH238901   5.313   4.270   2.927
12987TIP3    H138902   5.382   4.214   2.890
12987TIP3    H238903   5.256   4.289   2.853
12988TIP3   OH238904   7.525   2.827   6.508
12988TIP3    H138905   7.520   2.794   6.418
12988TIP3    H238906   7.614   2.863   6.515
12989TIP3   OH238907   6.720   5.107   0.493
12989TIP3    H138908   6.728   5.160   0.414
12989TIP3    H238909   6.766   5.157   0.561
12990TIP3   OH238910   5.916   5.151   5.110
12990TIP3    H138911   5.985   5.169   5.175
12990TIP3    H238912   5.839   5.129   5.163
12991TIP3   OH238913   1.408   1.247   1.379
12991TIP3    H138914   1.331   1.251   1.435
12991TIP3    H238915   1.479   1.220   1.437
12992TIP3   OH238916   0.543   2.269   4.498
12992TIP3    H138917   0.540   2.343   4.558
12992TIP3    H238918   0.583   2.304   4.418
12993TIP3   OH238919   4.780   1.445   2.916
12993TIP3    H138920   4.842   1.372   2.917
12993TIP3    H238921   4.695   1.404   2.905
12994TIP3   OH238922   5.533   7.601   3.404
12994TIP3    H138923   5.590   7.614   3.480
12994TIP3    H238924   5.452   7.567   3.442
12995TIP3   OH238925   6.885   5.461   3.497
12995TIP3    H138926   6.908   5.495   3.583
12995TIP3    H238927   6.866   5.368   3.512
12996TIP3   OH238928   0.235   3.568   0.517
12996TIP3    H138929   0.196   3.549   0.603
12996TIP3    H238930   0.176   3.632   0.478
12997TIP3   OH238931   5.135   7.322   0.714
12997TIP3    H138932   5.185   7.335   0.634
12997TIP3    H238933   5.103   7.410   0.737
12998TIP3   OH238934   2.731   3.408   5.450
12998TIP3    H138935   2.671   3.425   5.377
12998TIP3    H238936   2.680   3.429   5.528
12999TIP3   OH238937   3.914   0.861   1.734
12999TIP3    H138938   3.998   0.819   1.749
12999TIP3    H238939   3.875   0.810   1.662
13000TIP3   OH238940   1.349   3.684   4.464
13000TIP3    H138941   1.408   3.752   4.431
13000TIP3    H238942   1.309   3.646   4.386
13001TIP3   OH238943   5.873   1.205   3.270
13001TIP3    H138944   5.964   1.217   3.296
13001TIP3    H238945   5.828   1.179   3.350
13002TIP3   OH238946   2.213   4.585   3.111
13002TIP3    H138947   2.266   4.590   3.031
13002TIP3    H238948   2.218   4.673   3.148
13003TIP3   OH238949   5.726   7.178   0.564
13003TIP3    H138950   5.706   7.266   0.595
13003TIP3    H238951   5.762   7.133   0.640
13004TIP3   OH238952   3.241   0.304   4.267
13004TIP3    H138953   3.158   0.345   4.241
13004TIP3    H238954   3.302   0.329   4.197
13005TIP3   OH238955   0.014   3.437   2.005
13005TIP3    H138956   0.093   3.480   2.038
13005TIP3    H238957  -0.056   3.501   2.020
13006TIP3   OH238958   6.745   1.663   1.507
13006TIP3    H138959   6.673   1.640   1.448
13006TIP3    H238960   6.714   1.742   1.552
13007TIP3   OH238961   6.975   5.143   1.633
13007TIP3    H138962   6.880   5.134   1.631
13007TIP3    H238963   6.992   5.199   1.709
13008TIP3   OH238964   0.863   7.786   2.883
13008TIP3    H138965   0.785   7.732   2.895
13008TIP3    H238966   0.829   7.873   2.861
13009TIP3   OH238967   7.698   1.990   3.863
13009TIP3    H138968   7.754   2.006   3.939
13009TIP3    H238969   7.609   2.007   3.895
13010TIP3   OH238970   8.338   7.378   1.096
13010TIP3    H138971   8.410   7.315   1.102
13010TIP3    H238972   8.259   7.327   1.113
13011TIP3   OH238973   2.826   4.705   5.252
13011TIP3    H138974   2.832   4.779   5.190
13011TIP3    H238975   2.863   4.631   5.204
13012TIP3   OH238976   0.245   7.090   3.497
13012TIP3    H138977   0.213   7.179   3.510
13012TIP3    H238978   0.227   7.071   3.405
13013TIP3   OH238979   5.087   6.611   4.462
13013TIP3    H138980   5.041   6.694   4.444
13013TIP3    H238981   5.135   6.592   4.382
13014TIP3   OH238982   1.403   7.291   0.161
13014TIP3    H138983   1.445   7.232   0.098
13014TIP3    H238984   1.428   7.256   0.247
13015TIP3   OH238985   0.658   3.955   3.927
13015TIP3    H138986   0.701   3.922   4.005
13015TIP3    H238987   0.673   4.050   3.929
13016TIP3   OH238988   1.417   4.788   2.122
13016TIP3    H138989   1.468   4.724   2.073
13016TIP3    H238990   1.397   4.856   2.059
13017TIP3   OH238991   7.086   0.988   1.626
13017TIP3    H138992   7.131   1.032   1.554
13017TIP3    H238993   7.106   0.895   1.615
13018TIP3   OH238994   0.257   4.101   2.822
13018TIP3    H138995   0.305   4.033   2.775
13018TIP3    H238996   0.323   4.167   2.844
13019TIP3   OH238997   0.835   2.638   6.781
13019TIP3    H138998   0.865   2.634   6.690
13019TIP3    H238999   0.745   2.671   6.776
13020TIP3   OH239000   2.333   5.729   4.062
13020TIP3    H139001   2.403   5.666   4.049
13020TIP3    H239002   2.340   5.756   4.153
13021TIP3   OH239003   5.689   0.991   5.776
13021TIP3    H139004   5.651   0.939   5.705
13021TIP3    H239005   5.720   0.926   5.838
13022TIP3   OH239006   2.835   2.459   1.785
13022TIP3    H139007   2.900   2.448   1.854
13022TIP3    H239008   2.861   2.396   1.718
13023TIP3   OH239009   8.362   2.629   5.752
13023TIP3    H139010   8.341   2.541   5.782
13023TIP3    H239011   8.430   2.660   5.812
13024TIP3   OH239012   4.169   6.989   1.790
13024TIP3    H139013   4.107   7.036   1.846
13024TIP3    H239014   4.132   6.996   1.702
13025TIP3   OH239015   0.670   3.243   0.201
13025TIP3    H139016   0.717   3.280   0.126
13025TIP3    H239017   0.644   3.319   0.253
13026TIP3   OH239018   1.522   1.913   5.360
13026TIP3    H139019   1.564   1.994   5.331
13026TIP3    H239020   1.429   1.935   5.363
13027TIP3   OH239021   1.953   0.249   1.864
13027TIP3    H139022   2.006   0.170   1.859
13027TIP3    H239023   1.863   0.219   1.853
13028TIP3   OH239024   4.220   5.741   5.471
13028TIP3    H139025   4.246   5.670   5.530
13028TIP3    H239026   4.183   5.808   5.528
13029TIP3   OH239027   2.694   3.574   5.919
13029TIP3    H139028   2.691   3.663   5.883
13029TIP3    H239029   2.684   3.586   6.013
13030TIP3   OH239030   3.346   4.787   4.677
13030TIP3    H139031   3.422   4.843   4.695
13030TIP3    H239032   3.347   4.775   4.582
13031TIP3   OH239033   3.987   1.554   6.368
13031TIP3    H139034   3.945   1.469   6.385
13031TIP3    H239035   3.946   1.613   6.432
13032TIP3   OH239036   5.579   6.705   3.827
13032TIP3    H139037   5.620   6.726   3.743
13032TIP3    H239038   5.652   6.690   3.887
13033TIP3   OH239039   1.419   7.450   1.187
13033TIP3    H139040   1.513   7.438   1.199
13033TIP3    H239041   1.398   7.399   1.109
13034TIP3   OH239042   3.497   3.297   6.536
13034TIP3    H139043   3.516   3.203   6.535
13034TIP3    H239044   3.401   3.302   6.537
13035TIP3   OH239045   5.715   0.553   1.028
13035TIP3    H139046   5.808   0.534   1.016
13035TIP3    H239047   5.675   0.467   1.046
13036TIP3   OH239048   2.444   4.102   5.370
13036TIP3    H139049   2.359   4.060   5.384
13036TIP3    H239050   2.477   4.119   5.458
13037TIP3   OH239051   6.666   1.167   2.334
13037TIP3    H139052   6.647   1.132   2.248
13037TIP3    H239053   6.605   1.240   2.344
13038TIP3   OH239054   3.409   5.288  -0.018
13038TIP3    H139055   3.453   5.206  -0.038
13038TIP3    H239056   3.357   5.268   0.061
13039TIP3   OH239057   5.883   3.497   1.054
13039TIP3    H139058   5.912   3.406   1.043
13039TIP3    H239059   5.942   3.547   0.997
13040TIP3   OH239060   2.090   1.343   5.126
13040TIP3    H139061   2.175   1.368   5.090
13040TIP3    H239062   2.099   1.355   5.220
13041TIP3   OH239063   6.780   3.194   4.592
13041TIP3    H139064   6.861   3.241   4.610
13041TIP3    H239065   6.809   3.108   4.561
13042TIP3   OH239066   8.195   4.608   3.195
13042TIP3    H139067   8.255   4.674   3.228
13042TIP3    H239068   8.199   4.538   3.260
13043TIP3   OH239069   4.422   1.131   1.599
13043TIP3    H139070   4.445   1.147   1.508
13043TIP3    H239071   4.500   1.094   1.639
13044TIP3   OH239072   6.941   1.852   4.463
13044TIP3    H139073   7.023   1.806   4.483
13044TIP3    H239074   6.899   1.864   4.549
13045TIP3   OH239075   4.976   3.198   5.844
13045TIP3    H139076   5.026   3.133   5.795
13045TIP3    H239077   4.992   3.177   5.936
13046TIP3   OH239078   6.027   4.120   1.659
13046TIP3    H139079   5.965   4.187   1.691
13046TIP3    H239080   5.971   4.046   1.635
13047TIP3   OH239081   5.743   0.992   1.646
13047TIP3    H139082   5.706   1.074   1.680
13047TIP3    H239083   5.809   1.020   1.583
13048TIP3   OH239084   3.790   1.867   5.222
13048TIP3    H139085   3.749   1.873   5.309
13048TIP3    H239086   3.759   1.946   5.176
13049TIP3   OH239087   0.035   7.793   1.526
13049TIP3    H139088  -0.021   7.751   1.460
13049TIP3    H239089   0.040   7.884   1.498
13050TIP3   OH239090   1.699   3.308   3.998
13050TIP3    H139091   1.703   3.227   3.948
13050TIP3    H239092   1.760   3.294   4.071
13051TIP3   OH239093   2.304   5.813   2.150
13051TIP3    H139094   2.337   5.896   2.116
13051TIP3    H239095   2.381   5.770   2.188
13052TIP3   OH239096   1.440   5.762   3.184
13052TIP3    H139097   1.362   5.788   3.134
13052TIP3    H239098   1.513   5.791   3.130
13053TIP3   OH239099   1.540   3.551   5.067
13053TIP3    H139100   1.450   3.528   5.047
13053TIP3    H239101   1.538   3.583   5.157
13054TIP3   OH239102   8.223   3.514   6.565
13054TIP3    H139103   8.284   3.577   6.604
13054TIP3    H239104   8.137   3.538   6.600
13055TIP3   OH239105   7.663   6.293   5.700
13055TIP3    H139106   7.645   6.384   5.677
13055TIP3    H239107   7.654   6.244   5.618
13056TIP3   OH239108   4.527   4.813   0.375
13056TIP3    H139109   4.568   4.858   0.302
13056TIP3    H239110   4.440   4.853   0.381
13057TIP3   OH239111   6.063   7.708   0.128
13057TIP3    H139112   6.041   7.690   0.037
13057TIP3    H239113   6.121   7.785   0.124
13058TIP3   OH239114   4.136   3.138   5.669
13058TIP3    H139115   4.045   3.159   5.688
13058TIP3    H239116   4.153   3.058   5.718
13059TIP3   OH239117   2.301   4.938   1.087
13059TIP3    H139118   2.334   4.894   1.166
13059TIP3    H239119   2.265   4.867   1.034
13060TIP3   OH239120   7.553   1.410   4.651
13060TIP3    H139121   7.484   1.439   4.590
13060TIP3    H239122   7.505   1.371   4.724
13061TIP3   OH239123   2.316   1.140   4.184
13061TIP3    H139124   2.269   1.164   4.264
13061TIP3    H239125   2.400   1.105   4.216
13062TIP3   OH239126   0.435   3.412   4.964
13062TIP3    H139127   0.434   3.392   4.871
13062TIP3    H239128   0.526   3.434   4.983
13063TIP3   OH239129   5.475   2.628   2.268
13063TIP3    H139130   5.557   2.581   2.254
13063TIP3    H239131   5.497   2.720   2.256
13064TIP3   OH239132   7.289   1.345   2.765
13064TIP3    H139133   7.252   1.323   2.850
13064TIP3    H239134   7.234   1.299   2.701
13065TIP3   OH239135   3.682   0.020   6.206
13065TIP3    H139136   3.639   0.020   6.120
13065TIP3    H239137   3.776   0.023   6.186
13066TIP3   OH239138   5.420   3.057   6.263
13066TIP3    H139139   5.483   3.087   6.198
13066TIP3    H239140   5.362   3.133   6.277
13067TIP3   OH239141   0.322   3.927   2.412
13067TIP3    H139142   0.360   3.882   2.488
13067TIP3    H239143   0.398   3.960   2.364
13068TIP3   OH239144   6.156   6.977   2.864
13068TIP3    H139145   6.067   6.961   2.896
13068TIP3    H239146   6.205   7.003   2.942
13069TIP3   OH239147   5.075   4.945   5.330
13069TIP3    H139148   5.147   4.936   5.392
13069TIP3    H239149   5.040   5.032   5.347
13070TIP3   OH239150   8.154   2.054   0.331
13070TIP3    H139151   8.099   2.077   0.256
13070TIP3    H239152   8.207   2.132   0.346
13071TIP3   OH239153   1.888   4.889   1.731
13071TIP3    H139154   1.838   4.938   1.796
13071TIP3    H239155   1.879   4.940   1.650
13072TIP3   OH239156   2.277   2.629   5.184
13072TIP3    H139157   2.318   2.646   5.098
13072TIP3    H239158   2.351   2.607   5.241
13073TIP3   OH239159   2.043   1.781   4.722
13073TIP3    H139160   2.103   1.736   4.781
13073TIP3    H239161   2.020   1.716   4.656
13074TIP3   OH239162   6.177   4.685   0.583
13074TIP3    H139163   6.098   4.718   0.539
13074TIP3    H239164   6.200   4.607   0.533
13075TIP3   OH239165   7.428   4.436   0.033
13075TIP3    H139166   7.501   4.496   0.049
13075TIP3    H239167   7.436   4.412  -0.059
13076TIP3   OH239168   6.794   7.563   4.463
13076TIP3    H139169   6.764   7.615   4.388
13076TIP3    H239170   6.722   7.567   4.526
13077TIP3   OH239171   2.520   6.764   0.256
13077TIP3    H139172   2.443   6.706   0.257
13077TIP3    H239173   2.546   6.767   0.164
13078TIP3   OH239174   1.094   4.848   6.357
13078TIP3    H139175   1.154   4.922   6.350
13078TIP3    H239176   1.141   4.775   6.317
13079TIP3   OH239177   7.435   3.769   4.219
13079TIP3    H139178   7.366   3.702   4.220
13079TIP3    H239179   7.437   3.802   4.309
13080TIP3   OH239180   3.735   4.542   5.456
13080TIP3    H139181   3.648   4.580   5.452
13080TIP3    H239182   3.779   4.571   5.376
13081TIP3   OH239183   0.331   2.706  -0.016
13081TIP3    H139184   0.240   2.704   0.011
13081TIP3    H239185   0.371   2.632   0.028
13082TIP3   OH239186   1.033   3.500   2.293
13082TIP3    H139187   0.952   3.495   2.242
13082TIP3    H239188   1.099   3.459   2.237
13083TIP3   OH239189   7.022   1.573   1.771
13083TIP3    H139190   7.084   1.630   1.726
13083TIP3    H239191   6.957   1.632   1.809
13084TIP3   OH239192   7.007   3.740   4.112
13084TIP3    H139193   7.061   3.812   4.080
13084TIP3    H239194   7.067   3.665   4.116
13085TIP3   OH239195   1.730   2.999   1.774
13085TIP3    H139196   1.667   3.007   1.845
13085TIP3    H239197   1.795   2.937   1.806
13086TIP3   OH239198   6.092   6.000   5.000
13086TIP3    H139199   6.040   6.066   4.955
13086TIP3    H239200   6.028   5.938   5.034
13087TIP3   OH239201   2.569   4.225   3.626
13087TIP3    H139202   2.603   4.249   3.713
13087TIP3    H239203   2.474   4.235   3.634
13088TIP3   OH239204   4.316   5.841   0.244
13088TIP3    H139205   4.389   5.861   0.185
13088TIP3    H239206   4.354   5.785   0.311
13089TIP3   OH239207   3.635   5.553   0.307
13089TIP3    H139208   3.617   5.556   0.213
13089TIP3    H239209   3.652   5.644   0.331
13090TIP3   OH239210   3.523   0.415   2.248
13090TIP3    H139211   3.518   0.508   2.267
13090TIP3    H239212   3.545   0.411   2.155
13091TIP3   OH239213   0.993   6.676   3.075
13091TIP3    H139214   1.081   6.638   3.073
13091TIP3    H239215   0.973   6.695   2.983
13092TIP3   OH239216   1.310   1.909   6.439
13092TIP3    H139217   1.406   1.909   6.442
13092TIP3    H239218   1.286   2.001   6.431
13093TIP3   OH239219   6.037   4.413   5.968
13093TIP3    H139220   6.132   4.426   5.974
13093TIP3    H239221   6.027   4.335   5.914
13094TIP3   OH239222   3.567   1.598   0.764
13094TIP3    H139223   3.476   1.571   0.775
13094TIP3    H239224   3.568   1.647   0.682
13095TIP3   OH239225   1.155   0.030   0.471
13095TIP3    H139226   1.248   0.006   0.470
13095TIP3    H239227   1.120  -0.007   0.390
13096TIP3   OH239228   0.587   3.952   5.973
13096TIP3    H139229   0.515   3.893   5.994
13096TIP3    H239230   0.572   4.029   6.029
13097TIP3   OH239231   1.908   6.942   5.193
13097TIP3    H139232   1.828   6.892   5.208
13097TIP3    H239233   1.974   6.876   5.169
13098TIP3   OH239234   4.291   0.026   4.083
13098TIP3    H139235   4.267   0.040   4.174
13098TIP3    H239236   4.271   0.109   4.039
13099TIP3   OH239237   8.123   5.030   4.910
13099TIP3    H139238   8.076   5.107   4.878
13099TIP3    H239239   8.177   5.063   4.981
13100TIP3   OH239240   4.993   4.847   3.722
13100TIP3    H139241   4.911   4.842   3.673
13100TIP3    H239242   5.061   4.852   3.655
13101TIP3   OH239243   0.562  -0.004   0.521
13101TIP3    H139244   0.635   0.037   0.475
13101TIP3    H239245   0.563   0.034   0.609
13102TIP3   OH239246   1.185   5.350   1.810
13102TIP3    H139247   1.150   5.378   1.726
13102TIP3    H239248   1.280   5.353   1.799
13103TIP3   OH239249   8.212   3.219   1.942
13103TIP3    H139250   8.229   3.147   2.003
13103TIP3    H239251   8.229   3.298   1.994
13104TIP3   OH239252   0.446   2.474   0.011
13104TIP3    H139253   0.498   2.513   0.082
13104TIP3    H239254   0.433   2.383   0.039
13105TIP3   OH239255   2.044   1.567   2.363
13105TIP3    H139256   2.040   1.638   2.428
13105TIP3    H239257   1.953   1.548   2.343
13106TIP3   OH239258   7.472   6.888   1.651
13106TIP3    H139259   7.397   6.911   1.706
13106TIP3    H239260   7.547   6.925   1.695
13107TIP3   OH239261   7.853   6.484   4.902
13107TIP3    H139262   7.856   6.484   4.807
13107TIP3    H239263   7.832   6.394   4.926
13108TIP3   OH239264   2.799   5.969   4.050
13108TIP3    H139265   2.728   6.031   4.029
13108TIP3    H239266   2.876   6.024   4.062
13109TIP3   OH239267   0.893   1.459   1.514
13109TIP3    H139268   0.919   1.377   1.556
13109TIP3    H239269   0.941   1.460   1.432
13110TIP3   OH239270   6.765   2.060   6.288
13110TIP3    H139271   6.843   2.031   6.337
13110TIP3    H239272   6.786   2.042   6.197
13111TIP3   OH239273   0.175   2.331   6.323
13111TIP3    H139274   0.246   2.305   6.265
13111TIP3    H239275   0.098   2.284   6.290
13112TIP3   OH239276   0.921   5.924   5.779
13112TIP3    H139277   0.956   6.001   5.824
13112TIP3    H239278   0.951   5.932   5.689
13113TIP3   OH239279   5.445   5.598   2.441
13113TIP3    H139280   5.489   5.676   2.475
13113TIP3    H239281   5.505   5.526   2.460
13114TIP3   OH239282   8.165   1.082   5.546
13114TIP3    H139283   8.148   1.012   5.483
13114TIP3    H239284   8.078   1.118   5.566
13115TIP3   OH239285   0.123   7.222   4.926
13115TIP3    H139286   0.078   7.304   4.904
13115TIP3    H239287   0.123   7.172   4.845
13116TIP3   OH239288   6.546   6.083   1.454
13116TIP3    H139289   6.571   6.018   1.520
13116TIP3    H239290   6.496   6.033   1.389
13117TIP3   OH239291   0.515   2.245   0.586
13117TIP3    H139292   0.594   2.203   0.551
13117TIP3    H239293   0.459   2.257   0.509
13118TIP3   OH239294   1.936   7.741   1.118
13118TIP3    H139295   1.909   7.668   1.062
13118TIP3    H239296   1.873   7.810   1.099
13119TIP3   OH239297   0.319   0.710   3.432
13119TIP3    H139298   0.402   0.751   3.457
13119TIP3    H239299   0.320   0.711   3.336
13120TIP3   OH239300   4.385   0.046   2.293
13120TIP3    H139301   4.433   0.082   2.219
13120TIP3    H239302   4.299   0.023   2.258
13121TIP3   OH239303   3.119   4.527   0.582
13121TIP3    H139304   3.201   4.576   0.589
13121TIP3    H239305   3.147   4.436   0.569
13122TIP3   OH239306   6.348   5.928   2.857
13122TIP3    H139307   6.364   5.943   2.764
13122TIP3    H239308   6.290   5.853   2.860
13123TIP3   OH239309   0.096   6.742   3.450
13123TIP3    H139310   0.029   6.804   3.477
13123TIP3    H239311   0.088   6.669   3.512
13124TIP3   OH239312   4.296   7.633   5.601
13124TIP3    H139313   4.319   7.562   5.660
13124TIP3    H239314   4.243   7.592   5.533
13125TIP3   OH239315   6.956   0.706   6.440
13125TIP3    H139316   6.890   0.649   6.478
13125TIP3    H239317   7.037   0.682   6.484
13126TIP3   OH239318   4.589   2.904   6.185
13126TIP3    H139319   4.518   2.930   6.126
13126TIP3    H239320   4.555   2.827   6.231
13127TIP3   OH239321   1.288   2.804   6.378
13127TIP3    H139322   1.215   2.857   6.347
13127TIP3    H239323   1.251   2.717   6.391
13128TIP3   OH239324   6.374   1.995   3.944
13128TIP3    H139325   6.468   1.987   3.929
13128TIP3    H239326   6.366   2.040   4.028
13129TIP3   OH239327   2.381   3.274   6.426
13129TIP3    H139328   2.338   3.261   6.510
13129TIP3    H239329   2.324   3.334   6.378
13130TIP3   OH239330   7.107   0.755   1.876
13130TIP3    H139331   7.087   0.720   1.790
13130TIP3    H239332   7.175   0.698   1.911
13131TIP3   OH239333   2.857   4.567   4.392
13131TIP3    H139334   2.776   4.556   4.443
13131TIP3    H239335   2.873   4.661   4.393
13132TIP3   OH239336   6.227   2.689   2.312
13132TIP3    H139337   6.242   2.650   2.225
13132TIP3    H239338   6.306   2.667   2.361
13133TIP3   OH239339   2.449   2.141   3.666
13133TIP3    H139340   2.527   2.159   3.718
13133TIP3    H239341   2.432   2.223   3.619
13134TIP3   OH239342   1.830   7.097   2.319
13134TIP3    H139343   1.902   7.111   2.257
13134TIP3    H239344   1.779   7.026   2.281
13135TIP3   OH239345   7.577   2.493   4.420
13135TIP3    H139346   7.489   2.501   4.457
13135TIP3    H239347   7.595   2.579   4.383
13136TIP3   OH239348   7.208   0.522   3.183
13136TIP3    H139349   7.161   0.537   3.102
13136TIP3    H239350   7.169   0.442   3.219
13137TIP3   OH239351   4.125   1.637   0.542
13137TIP3    H139352   4.108   1.633   0.447
13137TIP3    H239353   4.160   1.550   0.563
13138TIP3   OH239354   6.024   1.283   6.764
13138TIP3    H139355   6.058   1.193   6.767
13138TIP3    H239356   5.940   1.277   6.809
13139TIP3   OH239357   4.518   0.908   4.644
13139TIP3    H139358   4.523   0.812   4.650
13139TIP3    H239359   4.443   0.924   4.587
13140TIP3   OH239360   6.287   0.328   4.188
13140TIP3    H139361   6.218   0.357   4.128
13140TIP3    H239362   6.253   0.350   4.275
13141TIP3   OH239363   0.739   7.709   0.848
13141TIP3    H139364   0.762   7.802   0.846
13141TIP3    H239365   0.769   7.676   0.763
13142TIP3   OH239366   4.961   4.564   5.525
13142TIP3    H139367   5.033   4.580   5.586
13142TIP3    H239368   4.901   4.508   5.574
13143TIP3   OH239369   6.159   6.115   5.259
13143TIP3    H139370   6.123   6.060   5.329
13143TIP3    H239371   6.145   6.064   5.179
13144TIP3   OH239372   4.039   6.710   4.354
13144TIP3    H139373   4.072   6.795   4.382
13144TIP3    H239374   3.945   6.713   4.371
13145TIP3   OH239375   0.330   4.946   6.628
13145TIP3    H139376   0.283   4.892   6.565
13145TIP3    H239377   0.368   5.017   6.576
13146TIP3   OH239378   0.274   7.884   4.897
13146TIP3    H139379   0.265   7.947   4.825
13146TIP3    H239380   0.186   7.877   4.934
13147TIP3   OH239381   3.116   1.529   0.522
13147TIP3    H139382   3.210   1.528   0.504
13147TIP3    H239383   3.077   1.563   0.441
13148TIP3   OH239384   6.462   3.939   3.971
13148TIP3    H139385   6.522   4.007   4.002
13148TIP3    H239386   6.433   3.895   4.052
13149TIP3   OH239387   3.597   2.501   2.397
13149TIP3    H139388   3.671   2.479   2.341
13149TIP3    H239389   3.616   2.589   2.428
13150TIP3   OH239390   6.657   1.133   2.988
13150TIP3    H139391   6.568   1.120   2.955
13150TIP3    H239392   6.665   1.071   3.061
13151TIP3   OH239393   7.894   2.281   6.457
13151TIP3    H139394   7.890   2.279   6.552
13151TIP3    H239395   7.803   2.277   6.429
13152TIP3   OH239396   0.525   7.070   0.845
13152TIP3    H139397   0.478   7.011   0.786
13152TIP3    H239398   0.600   7.101   0.794
13153TIP3   OH239399   6.557   5.206   4.462
13153TIP3    H139400   6.561   5.114   4.487
13153TIP3    H239401   6.593   5.209   4.373
13154TIP3   OH239402   3.828   7.163   0.896
13154TIP3    H139403   3.802   7.205   0.978
13154TIP3    H239404   3.887   7.092   0.922
13155TIP3   OH239405   4.438   2.789   6.546
13155TIP3    H139406   4.521   2.837   6.549
13155TIP3    H239407   4.436   2.749   6.459
13156TIP3   OH239408   1.156   6.805   6.274
13156TIP3    H139409   1.224   6.866   6.304
13156TIP3    H239410   1.110   6.780   6.354
13157TIP3   OH239411   3.873   7.683   3.642
13157TIP3    H139412   3.828   7.768   3.650
13157TIP3    H239413   3.953   7.694   3.695
13158TIP3   OH239414   6.443   0.540   3.278
13158TIP3    H139415   6.467   0.570   3.190
13158TIP3    H239416   6.349   0.559   3.285
13159TIP3   OH239417   6.802   4.770   1.395
13159TIP3    H139418   6.812   4.747   1.303
13159TIP3    H239419   6.738   4.707   1.429
13160TIP3   OH239420   7.001   4.856   3.305
13160TIP3    H139421   6.984   4.785   3.243
13160TIP3    H239422   7.092   4.842   3.333
13161TIP3   OH239423   6.367   0.186   6.855
13161TIP3    H139424   6.328   0.105   6.888
13161TIP3    H239425   6.440   0.157   6.801
13162TIP3   OH239426   6.198   5.166   4.550
13162TIP3    H139427   6.109   5.145   4.578
13162TIP3    H239428   6.253   5.106   4.599
13163TIP3   OH239429   1.159   5.460   5.863
13163TIP3    H139430   1.168   5.464   5.959
13163TIP3    H239431   1.071   5.425   5.849
13164TIP3   OH239432   0.895   4.744   2.918
13164TIP3    H139433   0.857   4.657   2.931
13164TIP3    H239434   0.964   4.731   2.853
13165TIP3   OH239435   1.298   2.329   0.288
13165TIP3    H139436   1.323   2.410   0.243
13165TIP3    H239437   1.356   2.324   0.364
13166TIP3   OH239438   8.387   5.609   4.357
13166TIP3    H139439   8.423   5.657   4.432
13166TIP3    H239440   8.320   5.667   4.322
13167TIP3   OH239441   2.624   2.643   1.122
13167TIP3    H139442   2.530   2.634   1.106
13167TIP3    H239443   2.662   2.563   1.088
13168TIP3   OH239444   1.515   1.625   5.383
13168TIP3    H139445   1.609   1.621   5.403
13168TIP3    H239446   1.497   1.718   5.368
13169TIP3   OH239447   1.931   1.229   1.041
13169TIP3    H139448   1.944   1.309   0.991
13169TIP3    H239449   1.953   1.253   1.131
13170TIP3   OH239450   7.164   1.521   0.111
13170TIP3    H139451   7.089   1.554   0.161
13170TIP3    H239452   7.144   1.428   0.097
13171TIP3   OH239453   6.114   0.749   2.345
13171TIP3    H139454   6.109   0.824   2.285
13171TIP3    H239455   6.070   0.678   2.298
13172TIP3   OH239456   6.738   7.584   6.461
13172TIP3    H139457   6.655   7.537   6.467
13172TIP3    H239458   6.804   7.520   6.490
13173TIP3   OH239459   7.093   0.075   5.908
13173TIP3    H139460   7.105   0.034   5.823
13173TIP3    H239461   7.147   0.153   5.905
13174TIP3   OH239462   1.333   5.107   0.672
13174TIP3    H139463   1.354   5.015   0.689
13174TIP3    H239464   1.334   5.115   0.577
13175TIP3   OH239465   0.499   3.849   5.325
13175TIP3    H139466   0.574   3.906   5.337
13175TIP3    H239467   0.466   3.831   5.413
13176TIP3   OH239468   7.790   4.769   6.685
13176TIP3    H139469   7.783   4.696   6.624
13176TIP3    H239470   7.884   4.780   6.699
13177TIP3   OH239471   4.129   1.470   5.205
13177TIP3    H139472   4.137   1.455   5.111
13177TIP3    H239473   4.059   1.535   5.213
13178TIP3   OH239474   1.681   6.209   5.815
13178TIP3    H139475   1.708   6.288   5.768
13178TIP3    H239476   1.747   6.198   5.883
13179TIP3   OH239477   3.050   2.114   6.365
13179TIP3    H139478   3.114   2.183   6.379
13179TIP3    H239479   3.101   2.033   6.363
13180TIP3   OH239480   4.992   0.774   5.054
13180TIP3    H139481   5.000   0.680   5.069
13180TIP3    H239482   5.047   0.791   4.977
13181TIP3   OH239483   4.333   1.392   6.252
13181TIP3    H139484   4.269   1.383   6.181
13181TIP3    H239485   4.281   1.393   6.332
13182TIP3   OH239486   1.905   6.002   0.570
13182TIP3    H139487   1.852   5.949   0.629
13182TIP3    H239488   1.957   6.058   0.628
13183TIP3   OH239489   1.015   2.896   2.563
13183TIP3    H139490   1.039   2.841   2.488
13183TIP3    H239491   0.945   2.848   2.606
13184TIP3   OH239492   7.065   0.034   3.885
13184TIP3    H139493   6.979   0.070   3.866
13184TIP3    H239494   7.102   0.093   3.951
13185TIP3   OH239495   6.277   4.815   2.468
13185TIP3    H139496   6.243   4.804   2.380
13185TIP3    H239497   6.296   4.909   2.476
13186TIP3   OH239498   0.729   1.231   3.772
13186TIP3    H139499   0.642   1.196   3.792
13186TIP3    H239500   0.714   1.299   3.707
13187TIP3   OH239501   3.647   7.352   1.583
13187TIP3    H139502   3.653   7.420   1.650
13187TIP3    H239503   3.694   7.277   1.621
13188TIP3   OH239504   1.499   7.458   2.166
13188TIP3    H139505   1.498   7.421   2.254
13188TIP3    H239506   1.445   7.398   2.114
13189TIP3   OH239507   3.569   5.927   3.719
13189TIP3    H139508   3.589   5.996   3.783
13189TIP3    H239509   3.648   5.922   3.665
13190TIP3   OH239510   8.291   6.546   5.734
13190TIP3    H139511   8.358   6.565   5.669
13190TIP3    H239512   8.339   6.539   5.817
13191TIP3   OH239513   0.579   1.652   6.610
13191TIP3    H139514   0.512   1.668   6.543
13191TIP3    H239515   0.625   1.574   6.581
13192TIP3   OH239516   2.672   5.441   0.308
13192TIP3    H139517   2.702   5.462   0.220
13192TIP3    H239518   2.702   5.351   0.322
13193TIP3   OH239519   0.129   4.319   2.538
13193TIP3    H139520   0.114   4.380   2.611
13193TIP3    H239521   0.196   4.362   2.485
13194TIP3   OH239522   5.910   4.006   2.819
13194TIP3    H139523   5.935   3.948   2.748
13194TIP3    H239524   5.993   4.036   2.856
13195TIP3   OH239525   0.889   1.334   0.069
13195TIP3    H139526   0.956   1.390   0.029
13195TIP3    H239527   0.866   1.271   0.001
13196TIP3   OH239528   1.923   6.678   0.755
13196TIP3    H139529   1.862   6.745   0.725
13196TIP3    H239530   1.910   6.605   0.694
13197TIP3   OH239531   8.386   3.475   4.491
13197TIP3    H139532   8.343   3.483   4.406
13197TIP3    H239533   8.421   3.562   4.508
13198TIP3   OH239534   8.055   3.326   1.032
13198TIP3    H139535   7.988   3.375   0.985
13198TIP3    H239536   8.105   3.394   1.078
13199TIP3   OH239537   5.440   6.148   3.458
13199TIP3    H139538   5.471   6.057   3.459
13199TIP3    H239539   5.347   6.141   3.438
13200TIP3   OH239540   4.461   6.645   6.194
13200TIP3    H139541   4.536   6.593   6.222
13200TIP3    H239542   4.449   6.709   6.263
13201TIP3   OH239543   8.136   2.319   4.327
13201TIP3    H139544   8.164   2.278   4.245
13201TIP3    H239545   8.102   2.247   4.379
13202TIP3   OH239546   0.321   3.724   3.388
13202TIP3    H139547   0.366   3.648   3.425
13202TIP3    H239548   0.250   3.742   3.450
13203TIP3   OH239549   1.393   1.587   4.027
13203TIP3    H139550   1.424   1.605   3.939
13203TIP3    H239551   1.388   1.492   4.032
13204TIP3   OH239552   2.931   7.513   6.719
13204TIP3    H139553   2.864   7.575   6.748
13204TIP3    H239554   2.999   7.568   6.679
13205TIP3   OH239555   2.181   1.258   0.107
13205TIP3    H139556   2.207   1.205   0.031
13205TIP3    H239557   2.085   1.257   0.106
13206TIP3   OH239558   2.799   7.103   6.491
13206TIP3    H139559   2.795   7.180   6.549
13206TIP3    H239560   2.799   7.140   6.403
13207TIP3   OH239561   2.310   7.462   5.503
13207TIP3    H139562   2.241   7.506   5.553
13207TIP3    H239563   2.263   7.413   5.436
13208TIP3   OH239564   0.903   2.507   5.874
13208TIP3    H139565   0.826   2.542   5.920
13208TIP3    H239566   0.877   2.503   5.782
13209TIP3   OH239567   6.884   2.579   1.815
13209TIP3    H139568   6.959   2.634   1.794
13209TIP3    H239569   6.856   2.544   1.731
13210TIP3   OH239570   6.786   4.852   5.473
13210TIP3    H139571   6.819   4.783   5.416
13210TIP3    H239572   6.792   4.815   5.561
13211TIP3   OH239573   6.905   7.276   5.874
13211TIP3    H139574   6.828   7.259   5.929
13211TIP3    H239575   6.869   7.306   5.791
13212TIP3   OH239576   4.213   5.650   3.997
13212TIP3    H139577   4.130   5.696   3.988
13212TIP3    H239578   4.263   5.703   4.060
13213TIP3   OH239579   3.232   6.480   6.040
13213TIP3    H139580   3.287   6.413   6.081
13213TIP3    H239581   3.243   6.466   5.946
13214TIP3   OH239582   3.854   7.132   6.702
13214TIP3    H139583   3.880   7.222   6.722
13214TIP3    H239584   3.922   7.078   6.742
13215TIP3   OH239585   1.591   3.233   5.492
13215TIP3    H139586   1.651   3.292   5.538
13215TIP3    H239587   1.562   3.283   5.416
13216TIP3   OH239588   4.268   0.519   6.680
13216TIP3    H139589   4.339   0.562   6.729
13216TIP3    H239590   4.236   0.586   6.620
13217TIP3   OH239591   4.476   1.611   6.204
13217TIP3    H139592   4.428   1.531   6.224
13217TIP3    H239593   4.446   1.635   6.116
13218TIP3   OH239594   2.176   0.652   3.150
13218TIP3    H139595   2.215   0.693   3.072
13218TIP3    H239596   2.241   0.587   3.177
13219TIP3   OH239597   1.897   3.334   5.119
13219TIP3    H139598   1.984   3.319   5.081
13219TIP3    H239599   1.889   3.268   5.188
13220TIP3   OH239600   7.288   3.044   3.282
13220TIP3    H139601   7.256   3.074   3.368
13220TIP3    H239602   7.317   2.954   3.298
13221TIP3   OH239603   6.610   5.424   0.188
13221TIP3    H139604   6.641   5.513   0.208
13221TIP3    H239605   6.570   5.394   0.270
13222TIP3   OH239606   6.391   7.020   0.852
13222TIP3    H139607   6.346   6.937   0.869
13222TIP3    H239608   6.445   7.002   0.775
13223TIP3   OH239609   7.065   3.314   2.153
13223TIP3    H139610   7.038   3.239   2.205
13223TIP3    H239611   7.072   3.386   2.215
13224TIP3   OH239612   3.122   1.515   5.254
13224TIP3    H139613   3.128   1.421   5.269
13224TIP3    H239614   3.175   1.554   5.323
13225TIP3   OH239615   2.691   4.242   4.811
13225TIP3    H139616   2.638   4.163   4.822
13225TIP3    H239617   2.682   4.289   4.894
13226TIP3   OH239618   6.994   4.025   6.820
13226TIP3    H139619   6.930   3.961   6.852
13226TIP3    H239620   6.988   4.099   6.881
13227TIP3   OH239621   7.568   6.329   3.447
13227TIP3    H139622   7.529   6.312   3.361
13227TIP3    H239623   7.498   6.373   3.496
13228TIP3   OH239624   2.676   7.738   2.360
13228TIP3    H139625   2.647   7.654   2.397
13228TIP3    H239626   2.606   7.763   2.300
13229TIP3   OH239627   5.655   6.327   4.587
13229TIP3    H139628   5.707   6.408   4.592
13229TIP3    H239629   5.599   6.340   4.511
13230TIP3   OH239630   2.943   3.537   5.004
13230TIP3    H139631   2.936   3.553   5.098
13230TIP3    H239632   2.853   3.546   4.971
13231TIP3   OH239633   6.986   2.929   3.460
13231TIP3    H139634   6.897   2.949   3.433
13231TIP3    H239635   7.012   2.855   3.404
13232TIP3   OH239636   5.884   5.627   3.192
13232TIP3    H139637   5.877   5.611   3.287
13232TIP3    H239638   5.801   5.670   3.169
13233TIP3   OH239639   3.372   4.058   3.737
13233TIP3    H139640   3.400   3.979   3.784
13233TIP3    H239641   3.334   4.025   3.656
13234TIP3   OH239642   4.448   3.257   4.778
13234TIP3    H139643   4.457   3.188   4.844
13234TIP3    H239644   4.371   3.307   4.806
13235TIP3   OH239645   2.869   7.845   4.988
13235TIP3    H139646   2.800   7.784   4.961
13235TIP3    H239647   2.949   7.794   4.987
13236TIP3   OH239648   0.943   3.608   5.228
13236TIP3    H139649   0.936   3.574   5.317
13236TIP3    H239650   1.031   3.644   5.223
13237TIP3   OH239651   0.219   7.778   6.704
13237TIP3    H139652   0.139   7.800   6.656
13237TIP3    H239653   0.281   7.847   6.682
13238TIP3   OH239654   1.315   2.590   4.766
13238TIP3    H139655   1.362   2.631   4.839
13238TIP3    H239656   1.224   2.590   4.794
13239TIP3   OH239657   1.200   3.655   2.435
13239TIP3    H139658   1.231   3.577   2.481
13239TIP3    H239659   1.157   3.621   2.357
13240TIP3   OH239660   6.475   2.769   3.156
13240TIP3    H139661   6.419   2.800   3.227
13240TIP3    H239662   6.454   2.676   3.148
13241TIP3   OH239663   0.691   0.259   3.593
13241TIP3    H139664   0.728   0.263   3.505
13241TIP3    H239665   0.763   0.231   3.649
13242TIP3   OH239666   1.586   2.192   0.998
13242TIP3    H139667   1.676   2.182   1.030
13242TIP3    H239668   1.576   2.124   0.932
13243TIP3   OH239669   5.307   4.034   0.457
13243TIP3    H139670   5.289   3.954   0.407
13243TIP3    H239671   5.301   4.105   0.393
13244TIP3   OH239672   4.632   4.444   0.676
13244TIP3    H139673   4.576   4.522   0.671
13244TIP3    H239674   4.570   4.372   0.689
13245TIP3   OH239675   1.956   7.034   1.834
13245TIP3    H139676   1.938   6.942   1.819
13245TIP3    H239677   1.876   7.068   1.874
13246TIP3   OH239678   2.859   6.925   6.241
13246TIP3    H139679   2.952   6.938   6.224
13246TIP3    H239680   2.815   6.995   6.193
13247TIP3   OH239681   4.610   5.744   5.838
13247TIP3    H139682   4.705   5.735   5.840
13247TIP3    H239683   4.579   5.661   5.802
13248TIP3   OH239684   1.882   1.795   1.511
13248TIP3    H139685   1.891   1.868   1.573
13248TIP3    H239686   1.873   1.718   1.566
13249TIP3   OH239687   5.685   4.731   0.693
13249TIP3    H139688   5.750   4.771   0.750
13249TIP3    H239689   5.735   4.701   0.617
13250TIP3   OH239690   7.343   0.417   1.731
13250TIP3    H139691   7.257   0.385   1.703
13250TIP3    H239692   7.363   0.487   1.669
13251TIP3   OH239693   1.740   3.340   1.676
13251TIP3    H139694   1.782   3.340   1.590
13251TIP3    H239695   1.699   3.426   1.684
13252TIP3   OH239696   7.180   1.386   1.349
13252TIP3    H139697   7.177   1.291   1.339
13252TIP3    H239698   7.150   1.401   1.439
13253TIP3   OH239699   4.936   5.964   3.576
13253TIP3    H139700   5.029   5.982   3.590
13253TIP3    H239701   4.898   5.970   3.664
13254TIP3   OH239702   3.639   6.860   1.123
13254TIP3    H139703   3.729   6.893   1.125
13254TIP3    H239704   3.624   6.837   1.031
13255TIP3   OH239705   4.113   2.843   3.809
13255TIP3    H139706   4.172   2.768   3.811
13255TIP3    H239707   4.109   2.867   3.716
13256TIP3   OH239708   7.051   5.893   5.283
13256TIP3    H139709   7.131   5.872   5.234
13256TIP3    H239710   6.986   5.830   5.250
13257TIP3   OH239711   6.922   1.550   3.272
13257TIP3    H139712   6.828   1.531   3.275
13257TIP3    H239713   6.964   1.464   3.273
13258TIP3   OH239714   6.329   5.763   5.900
13258TIP3    H139715   6.235   5.746   5.893
13258TIP3    H239716   6.354   5.795   5.814
13259TIP3   OH239717   0.455   7.001   2.140
13259TIP3    H139718   0.439   7.046   2.057
13259TIP3    H239719   0.403   7.049   2.204
13260TIP3   OH239720   3.179   7.160   2.539
13260TIP3    H139721   3.111   7.109   2.583
13260TIP3    H239722   3.197   7.112   2.458
13261TIP3   OH239723   2.349   7.532   0.317
13261TIP3    H139724   2.402   7.513   0.239
13261TIP3    H239725   2.385   7.475   0.385
13262TIP3   OH239726   6.262   6.348   5.434
13262TIP3    H139727   6.320   6.390   5.498
13262TIP3    H239728   6.213   6.283   5.484
13263TIP3   OH239729   5.958   4.075   2.359
13263TIP3    H139730   5.957   4.142   2.291
13263TIP3    H239731   5.969   4.123   2.441
13264TIP3   OH239732   7.083   6.195   3.386
13264TIP3    H139733   7.090   6.288   3.363
13264TIP3    H239734   7.142   6.151   3.325
13265TIP3   OH239735   6.063   0.859   1.264
13265TIP3    H139736   6.038   0.774   1.227
13265TIP3    H239737   6.092   0.911   1.189
13266TIP3   OH239738   6.068   5.826   6.245
13266TIP3    H139739   6.059   5.804   6.338
13266TIP3    H239740   6.095   5.744   6.204
13267TIP3   OH239741   4.012   5.023   6.803
13267TIP3    H139742   4.048   4.955   6.748
13267TIP3    H239743   3.918   5.004   6.807
13268TIP3   OH239744   1.125   5.438   1.541
13268TIP3    H139745   1.138   5.347   1.514
13268TIP3    H239746   1.140   5.488   1.461
13269TIP3   OH239747   6.861   0.204   4.399
13269TIP3    H139748   6.807   0.277   4.368
13269TIP3    H239749   6.904   0.238   4.478
13270TIP3   OH239750   3.379   0.387   3.551
13270TIP3    H139751   3.364   0.377   3.457
13270TIP3    H239752   3.431   0.310   3.575
13271TIP3   OH239753   6.013   5.436   3.044
13271TIP3    H139754   5.981   5.504   2.986
13271TIP3    H239755   6.006   5.473   3.132
13272TIP3   OH239756   5.780   7.081   0.826
13272TIP3    H139757   5.735   7.142   0.885
13272TIP3    H239758   5.822   7.017   0.885
13273TIP3   OH239759   1.662   1.483   5.628
13273TIP3    H139760   1.591   1.493   5.691
13273TIP3    H239761   1.713   1.564   5.636
13274TIP3   OH239762   5.823   2.883   5.052
13274TIP3    H139763   5.762   2.935   5.104
13274TIP3    H239764   5.842   2.937   4.975
13275TIP3   OH239765   0.943   1.111   4.273
13275TIP3    H139766   0.856   1.153   4.275
13275TIP3    H239767   0.945   1.058   4.353
13276TIP3   OH239768   7.726   0.165   3.582
13276TIP3    H139769   7.696   0.190   3.494
13276TIP3    H239770   7.802   0.220   3.598
13277TIP3   OH239771   3.386   2.891   6.519
13277TIP3    H139772   3.386   2.809   6.469
13277TIP3    H239773   3.456   2.880   6.584
13278TIP3   OH239774   2.339   0.393   0.791
13278TIP3    H139775   2.263   0.451   0.789
13278TIP3    H239776   2.306   0.309   0.760
13279TIP3   OH239777   2.707   1.127   5.022
13279TIP3    H139778   2.628   1.178   5.002
13279TIP3    H239779   2.770   1.191   5.053
13280TIP3   OH239780   3.779   6.968   0.059
13280TIP3    H139781   3.689   6.992   0.040
13280TIP3    H239782   3.828   7.050   0.048
13281TIP3   OH239783   3.145   5.758   2.756
13281TIP3    H139784   3.204   5.832   2.741
13281TIP3    H239785   3.168   5.695   2.687
13282TIP3   OH239786   7.545   3.337   3.443
13282TIP3    H139787   7.450   3.345   3.454
13282TIP3    H239788   7.561   3.371   3.355
13283TIP3   OH239789   1.101   6.314   0.843
13283TIP3    H139790   1.176   6.353   0.887
13283TIP3    H239791   1.026   6.337   0.898
13284TIP3   OH239792   5.343   7.078   2.853
13284TIP3    H139793   5.344   7.032   2.937
13284TIP3    H239794   5.341   7.008   2.788
13285TIP3   OH239795   2.792   0.215   0.051
13285TIP3    H139796   2.754   0.251   0.131
13285TIP3    H239797   2.738   0.251  -0.020
13286TIP3   OH239798   4.040   5.853   4.986
13286TIP3    H139799   4.053   5.814   5.072
13286TIP3    H239800   4.044   5.779   4.925
13287TIP3   OH239801   2.122   3.204   0.433
13287TIP3    H139802   2.029   3.226   0.439
13287TIP3    H239803   2.130   3.120   0.476
13288TIP3   OH239804   0.472   2.526   4.648
13288TIP3    H139805   0.434   2.578   4.719
13288TIP3    H239806   0.397   2.483   4.607
13289TIP3   OH239807   5.092   4.977   3.928
13289TIP3    H139808   5.041   4.949   3.852
13289TIP3    H239809   5.136   4.898   3.959
13290TIP3   OH239810   0.530   1.072   1.993
13290TIP3    H139811   0.518   1.137   1.924
13290TIP3    H239812   0.570   1.121   2.066
13291TIP3   OH239813   3.492   1.497   5.591
13291TIP3    H139814   3.471   1.590   5.578
13291TIP3    H239815   3.551   1.496   5.667
13292TIP3   OH239816   1.404   4.313   3.497
13292TIP3    H139817   1.379   4.220   3.490
13292TIP3    H239818   1.324   4.358   3.522
13293TIP3   OH239819   5.820   4.547   5.360
13293TIP3    H139820   5.855   4.498   5.435
13293TIP3    H239821   5.851   4.498   5.284
13294TIP3   OH239822   1.960   6.838   2.129
13294TIP3    H139823   1.885   6.792   2.091
13294TIP3    H239824   1.953   6.822   2.223
13295TIP3   OH239825   4.372   5.970   5.420
13295TIP3    H139826   4.324   5.888   5.415
13295TIP3    H239827   4.331   6.018   5.492
13296TIP3   OH239828   0.123   0.558   0.106
13296TIP3    H139829   0.216   0.540   0.120
13296TIP3    H239830   0.111   0.552   0.011
13297TIP3   OH239831   2.124   4.387   0.903
13297TIP3    H139832   2.065   4.429   0.842
13297TIP3    H239833   2.094   4.415   0.989
13298TIP3   OH239834   6.771   2.495   4.983
13298TIP3    H139835   6.687   2.483   4.937
13298TIP3    H239836   6.755   2.462   5.071
13299TIP3   OH239837   6.329   4.253   3.835
13299TIP3    H139838   6.263   4.318   3.810
13299TIP3    H239839   6.386   4.245   3.759
13300TIP3   OH239840   8.089   3.703   0.390
13300TIP3    H139841   8.093   3.718   0.485
13300TIP3    H239842   8.155   3.763   0.354
13301TIP3   OH239843   3.768   4.893   1.659
13301TIP3    H139844   3.840   4.893   1.721
13301TIP3    H239845   3.786   4.966   1.600
13302TIP3   OH239846   0.206   1.398   4.296
13302TIP3    H139847   0.242   1.438   4.216
13302TIP3    H239848   0.265   1.427   4.365
13303TIP3   OH239849   4.354   7.366   4.451
13303TIP3    H139850   4.266   7.329   4.454
13303TIP3    H239851   4.409   7.302   4.496
13304TIP3   OH239852   4.234   7.076   0.131
13304TIP3    H139853   4.314   7.116   0.096
13304TIP3    H239854   4.216   7.125   0.211
13305TIP3   OH239855   4.277   4.717   4.888
13305TIP3    H139856   4.367   4.691   4.907
13305TIP3    H239857   4.280   4.755   4.801
13306TIP3   OH239858   2.980   2.422   5.207
13306TIP3    H139859   2.924   2.361   5.158
13306TIP3    H239860   3.064   2.420   5.161
13307TIP3   OH239861   3.282   4.822   4.370
13307TIP3    H139862   3.289   4.826   4.275
13307TIP3    H239863   3.232   4.900   4.394
13308TIP3   OH239864   6.007   5.747   6.527
13308TIP3    H139865   5.942   5.676   6.529
13308TIP3    H239866   5.975   5.810   6.592
13309TIP3   OH239867   7.822   2.578   6.768
13309TIP3    H139868   7.778   2.629   6.835
13309TIP3    H239869   7.756   2.566   6.700
13310TIP3   OH239870   3.953   7.532   4.340
13310TIP3    H139871   3.929   7.590   4.268
13310TIP3    H239872   4.031   7.571   4.379
13311TIP3   OH239873   3.959   5.750   2.367
13311TIP3    H139874   3.993   5.839   2.377
13311TIP3    H239875   3.879   5.760   2.316
13312TIP3   OH239876   0.589   3.293   5.933
13312TIP3    H139877   0.591   3.200   5.959
13312TIP3    H239878   0.680   3.313   5.913
13313TIP3   OH239879   7.332   2.783   3.782
13313TIP3    H139880   7.423   2.757   3.799
13313TIP3    H239881   7.311   2.841   3.855
13314TIP3   OH239882   3.502   6.290   4.833
13314TIP3    H139883   3.554   6.285   4.753
13314TIP3    H239884   3.519   6.377   4.868
13315TIP3   OH239885   6.007   6.881   3.333
13315TIP3    H139886   5.918   6.883   3.297
13315TIP3    H239887   6.056   6.826   3.271
13316TIP3   OH239888   4.385   0.776   5.196
13316TIP3    H139889   4.429   0.836   5.135
13316TIP3    H239890   4.336   0.717   5.139
13317TIP3   OH239891   3.589   6.871   0.366
13317TIP3    H139892   3.528   6.873   0.292
13317TIP3    H239893   3.668   6.829   0.331
13318TIP3   OH239894   6.844   5.001   6.783
13318TIP3    H139895   6.803   5.037   6.862
13318TIP3    H239896   6.928   5.046   6.777
13319TIP3   OH239897   2.591   2.402   5.375
13319TIP3    H139898   2.634   2.329   5.419
13319TIP3    H239899   2.562   2.366   5.291
13320TIP3   OH239900   5.971   2.036   2.272
13320TIP3    H139901   5.904   2.018   2.206
13320TIP3    H239902   5.926   2.092   2.336
13321TIP3   OH239903   0.666   7.367   4.803
13321TIP3    H139904   0.696   7.456   4.823
13321TIP3    H239905   0.657   7.366   4.707
13322TIP3   OH239906   1.781   2.241   1.821
13322TIP3    H139907   1.807   2.326   1.784
13322TIP3    H239908   1.691   2.228   1.789
13323TIP3   OH239909   2.216   3.826   2.578
13323TIP3    H139910   2.286   3.803   2.516
13323TIP3    H239911   2.155   3.878   2.526
13324TIP3   OH239912   4.670   2.304   1.821
13324TIP3    H139913   4.712   2.389   1.811
13324TIP3    H239914   4.592   2.322   1.874
13325TIP3   OH239915   2.910   5.135   0.151
13325TIP3    H139916   2.882   5.144   0.242
13325TIP3    H239917   2.954   5.217   0.131
13326TIP3   OH239918   6.160   6.491   4.680
13326TIP3    H139919   6.225   6.434   4.720
13326TIP3    H239920   6.079   6.474   4.729
13327TIP3   OH239921   3.847   5.637   5.968
13327TIP3    H139922   3.933   5.617   6.004
13327TIP3    H239923   3.815   5.709   6.021
13328TIP3   OH239924   3.207   1.119   6.591
13328TIP3    H139925   3.237   1.162   6.511
13328TIP3    H239926   3.134   1.172   6.621
13329TIP3   OH239927   0.934   7.501   6.685
13329TIP3    H139928   0.923   7.580   6.632
13329TIP3    H239929   0.860   7.445   6.660
13330TIP3   OH239930   2.749   6.980   5.259
13330TIP3    H139931   2.677   6.968   5.321
13330TIP3    H239932   2.718   7.049   5.200
13331TIP3   OH239933   0.447   5.049   0.217
13331TIP3    H139934   0.454   4.971   0.272
13331TIP3    H239935   0.405   5.019   0.136
13332TIP3   OH239936   8.382   3.345   0.479
13332TIP3    H139937   8.425   3.307   0.402
13332TIP3    H239938   8.303   3.386   0.445
13333TIP3   OH239939   5.445   0.751   4.364
13333TIP3    H139940   5.527   0.745   4.315
13333TIP3    H239941   5.390   0.808   4.310
13334TIP3   OH239942   2.493   6.558   0.616
13334TIP3    H139943   2.510   6.524   0.528
13334TIP3    H239944   2.399   6.573   0.618
13335TIP3   OH239945   7.055   6.504   2.038
13335TIP3    H139946   7.063   6.543   1.951
13335TIP3    H239947   7.083   6.413   2.026
13336TIP3   OH239948   6.950   7.239   5.487
13336TIP3    H139949   6.895   7.303   5.531
13336TIP3    H239950   7.040   7.270   5.501
13337TIP3   OH239951   5.927   2.643   2.101
13337TIP3    H139952   5.983   2.701   2.049
13337TIP3    H239953   5.865   2.606   2.039
13338TIP3   OH239954   5.101   0.125   6.876
13338TIP3    H139955   5.095   0.047   6.821
13338TIP3    H239956   5.163   0.182   6.831
13339TIP3   OH239957   7.752   2.202   4.637
13339TIP3    H139958   7.702   2.167   4.563
13339TIP3    H239959   7.708   2.284   4.659
13340TIP3   OH239960   3.796   7.907   6.823
13340TIP3    H139961   3.851   7.925   6.747
13340TIP3    H239962   3.733   7.841   6.793
13341TIP3   OH239963   6.605   2.513   4.197
13341TIP3    H139964   6.669   2.563   4.248
13341TIP3    H239965   6.653   2.436   4.166
13342TIP3   OH239966   7.971   3.711   3.480
13342TIP3    H139967   7.925   3.673   3.555
13342TIP3    H239968   8.025   3.640   3.446
13343TIP3   OH239969   8.048   6.909   1.083
13343TIP3    H139970   8.026   6.843   1.148
13343TIP3    H239971   8.016   6.991   1.120
13344TIP3   OH239972   3.130   1.817   3.436
13344TIP3    H139973   3.044   1.832   3.474
13344TIP3    H239974   3.170   1.903   3.431
13345TIP3   OH239975   2.888   6.984   1.540
13345TIP3    H139976   2.834   6.937   1.477
13345TIP3    H239977   2.976   6.982   1.503
13346TIP3   OH239978   6.971   3.874   3.318
13346TIP3    H139979   6.928   3.788   3.312
13346TIP3    H239980   7.061   3.858   3.289
13347TIP3   OH239981   2.324   0.376   5.250
13347TIP3    H139982   2.385   0.302   5.240
13347TIP3    H239983   2.374   0.452   5.221
13348TIP3   OH239984   0.983   5.997   1.935
13348TIP3    H139985   1.029   5.984   1.852
13348TIP3    H239986   1.051   5.984   2.002
13349TIP3   OH239987   8.269   6.135   4.601
13349TIP3    H139988   8.218   6.179   4.670
13349TIP3    H239989   8.269   6.043   4.627
13350TIP3   OH239990   7.099   4.458   6.798
13350TIP3    H139991   7.173   4.429   6.851
13350TIP3    H239992   7.026   4.402   6.825
13351TIP3   OH239993   7.997   2.370   0.557
13351TIP3    H139994   7.979   2.302   0.492
13351TIP3    H239995   7.954   2.448   0.524
13352TIP3   OH239996   1.409   6.208   0.874
13352TIP3    H139997   1.449   6.124   0.897
13352TIP3    H239998   1.447   6.270   0.935
13353TIP3   OH239999   7.378   1.738   4.664
13353TIP3    H140000   7.405   1.752   4.574
13353TIP3    H240001   7.293   1.695   4.658
13354TIP3   OH240002   4.820   2.811   4.832
13354TIP3    H140003   4.879   2.886   4.833
13354TIP3    H240004   4.766   2.823   4.754
13355TIP3   OH240005   0.933   0.488   5.531
13355TIP3    H140006   0.902   0.476   5.441
13355TIP3    H240007   0.858   0.466   5.586
13356TIP3   OH240008   6.555   5.710   1.158
13356TIP3    H140009   6.483   5.761   1.122
13356TIP3    H240010   6.621   5.774   1.182
13357TIP3   OH240011   7.669   0.305   6.293
13357TIP3    H140012   7.588   0.329   6.339
13357TIP3    H240013   7.689   0.217   6.326
13358TIP3   OH240014   4.308   6.339   6.638
13358TIP3    H140015   4.228   6.327   6.587
13358TIP3    H240016   4.321   6.255   6.682
13359TIP3   OH240017   5.586   7.739   5.892
13359TIP3    H140018   5.504   7.776   5.858
13359TIP3    H240019   5.641   7.815   5.910
13360TIP3   OH240020   8.315   5.978   3.588
13360TIP3    H140021   8.239   5.920   3.581
13360TIP3    H240022   8.312   6.030   3.507
13361TIP3   OH240023   5.384   2.162   6.130
13361TIP3    H140024   5.410   2.070   6.125
13361TIP3    H240025   5.336   2.170   6.212
13362TIP3   OH240026   5.210   2.689   6.498
13362TIP3    H140027   5.161   2.728   6.425
13362TIP3    H240028   5.281   2.750   6.514
13363TIP3   OH240029   0.961   0.354   4.942
13363TIP3    H140030   0.867   0.339   4.955
13363TIP3    H240031   0.970   0.374   4.849
13364TIP3   OH240032   7.449   0.939   1.603
13364TIP3    H140033   7.378   1.000   1.583
13364TIP3    H240034   7.446   0.929   1.698
13365TIP3   OH240035   7.636   4.615   0.051
13365TIP3    H140036   7.693   4.542   0.028
13365TIP3    H240037   7.688   4.693   0.031
13366TIP3   OH240038   4.681   7.155   3.672
13366TIP3    H140039   4.764   7.107   3.678
13366TIP3    H240040   4.698   7.224   3.608
13367TIP3   OH240041   1.020   2.974   3.316
13367TIP3    H140042   0.950   2.928   3.363
13367TIP3    H240043   1.004   2.956   3.224
13368TIP3   OH240044   1.139   5.710   5.269
13368TIP3    H140045   1.094   5.794   5.256
13368TIP3    H240046   1.104   5.654   5.200
13369TIP3   OH240047   2.846   0.397   1.820
13369TIP3    H140048   2.807   0.334   1.881
13369TIP3    H240049   2.920   0.434   1.867
13370TIP3   OH240050   8.043   2.322   1.686
13370TIP3    H140051   8.132   2.287   1.695
13370TIP3    H240052   8.041   2.398   1.743
13371TIP3   OH240053   0.087   1.027   6.405
13371TIP3    H140054   0.170   1.069   6.384
13371TIP3    H240055   0.046   1.011   6.320
13372TIP3   OH240056   1.222   3.212   1.857
13372TIP3    H140057   1.295   3.273   1.873
13372TIP3    H240058   1.239   3.176   1.770
13373TIP3   OH240059   4.114   3.840   3.031
13373TIP3    H140060   4.092   3.805   2.944
13373TIP3    H240061   4.184   3.783   3.063
13374TIP3   OH240062   3.180   1.572   4.996
13374TIP3    H140063   3.272   1.589   5.016
13374TIP3    H240064   3.140   1.551   5.080
13375TIP3   OH240065   3.397   3.293   3.333
13375TIP3    H140066   3.418   3.283   3.426
13375TIP3    H240067   3.433   3.379   3.310
13376TIP3   OH240068   2.596   1.009   5.362
13376TIP3    H140069   2.647   0.955   5.302
13376TIP3    H240070   2.629   1.098   5.348
13377TIP3   OH240071   2.491   5.485   4.082
13377TIP3    H140072   2.586   5.473   4.078
13377TIP3    H240073   2.467   5.459   4.171
13378TIP3   OH240074   0.614   1.800   3.315
13378TIP3    H140075   0.642   1.885   3.280
13378TIP3    H240076   0.591   1.749   3.237
13379TIP3   OH240077   0.373   7.376   3.075
13379TIP3    H140078   0.448   7.346   3.128
13379TIP3    H240079   0.299   7.326   3.109
13380TIP3   OH240080   5.178   4.567   5.342
13380TIP3    H140081   5.183   4.474   5.363
13380TIP3    H240082   5.094   4.596   5.376
13381TIP3   OH240083   1.956   5.860   1.909
13381TIP3    H140084   2.031   5.831   1.856
13381TIP3    H240085   1.985   5.845   1.999
13382TIP3   OH240086   8.168   4.344   1.198
13382TIP3    H140087   8.154   4.253   1.224
13382TIP3    H240088   8.263   4.357   1.208
13383TIP3   OH240089   5.225   3.704   5.235
13383TIP3    H140090   5.255   3.710   5.145
13383TIP3    H240091   5.160   3.633   5.234
13384TIP3   OH240092   2.898   3.398   5.970
13384TIP3    H140093   2.901   3.342   5.893
13384TIP3    H240094   2.820   3.451   5.958
13385TIP3   OH240095   5.041   7.570   0.618
13385TIP3    H140096   4.974   7.626   0.578
13385TIP3    H240097   5.111   7.630   0.643
13386TIP3   OH240098   6.802   4.081   3.637
13386TIP3    H140099   6.840   4.040   3.558
13386TIP3    H240100   6.841   4.168   3.639
13387TIP3   OH240101   7.354   1.784   1.281
13387TIP3    H140102   7.372   1.692   1.266
13387TIP3    H240103   7.258   1.791   1.275
13388TIP3   OH240104   8.162   2.882   4.236
13388TIP3    H140105   8.196   2.905   4.322
13388TIP3    H240106   8.203   2.946   4.177
13389TIP3   OH240107   4.916   0.853   1.768
13389TIP3    H140108   4.960   0.803   1.699
13389TIP3    H240109   4.986   0.904   1.809
13390TIP3   OH240110   7.998   1.847   6.103
13390TIP3    H140111   7.936   1.781   6.073
13390TIP3    H240112   8.038   1.880   6.023
13391TIP3   OH240113   5.754   2.802   2.505
13391TIP3    H140114   5.777   2.817   2.597
13391TIP3    H240115   5.839   2.803   2.460
13392TIP3   OH240116   6.093   3.590   6.237
13392TIP3    H140117   6.164   3.531   6.260
13392TIP3    H240118   6.051   3.611   6.320
13393TIP3   OH240119   7.110   6.215   4.403
13393TIP3    H140120   7.149   6.132   4.430
13393TIP3    H240121   7.077   6.254   4.484
13394TIP3   OH240122   6.156   2.493   0.448
13394TIP3    H140123   6.101   2.417   0.469
13394TIP3    H240124   6.107   2.541   0.381
13395TIP3   OH240125   3.711   4.284   3.615
13395TIP3    H140126   3.679   4.209   3.565
13395TIP3    H240127   3.677   4.360   3.568
13396TIP3   OH240128   1.458   0.090   1.899
13396TIP3    H140129   1.379   0.106   1.952
13396TIP3    H240130   1.426   0.044   1.822
13397TIP3   OH240131   2.404   3.438   3.326
13397TIP3    H140132   2.314   3.454   3.298
13397TIP3    H240133   2.458   3.474   3.256
13398TIP3   OH240134   0.963   2.626   1.120
13398TIP3    H140135   0.880   2.665   1.147
13398TIP3    H240136   0.988   2.674   1.040
13399TIP3   OH240137   7.520   3.782   0.869
13399TIP3    H140138   7.587   3.716   0.852
13399TIP3    H240139   7.517   3.835   0.790
13400TIP3   OH240140   5.398   6.578   4.674
13400TIP3    H140141   5.464   6.615   4.733
13400TIP3    H240142   5.432   6.491   4.652
13401TIP3   OH240143   2.268   4.427   4.179
13401TIP3    H140144   2.221   4.343   4.179
13401TIP3    H240145   2.277   4.448   4.272
13402TIP3   OH240146   2.491   1.201   5.911
13402TIP3    H140147   2.517   1.184   6.002
13402TIP3    H240148   2.534   1.132   5.861
13403TIP3   OH240149   4.534   4.310   2.929
13403TIP3    H140150   4.616   4.261   2.936
13403TIP3    H240151   4.553   4.395   2.967
13404TIP3   OH240152   4.754   2.565   1.907
13404TIP3    H140153   4.847   2.569   1.930
13404TIP3    H240154   4.708   2.576   1.990
13405TIP3   OH240155   0.411   3.447   2.206
13405TIP3    H140156   0.371   3.530   2.181
13405TIP3    H240157   0.393   3.388   2.133
13406TIP3   OH240158   2.818   3.222   6.195
13406TIP3    H140159   2.766   3.238   6.274
13406TIP3    H240160   2.813   3.303   6.145
13407TIP3   OH240161   1.227   5.720   5.789
13407TIP3    H140162   1.209   5.638   5.835
13407TIP3    H240163   1.199   5.704   5.699
13408TIP3   OH240164   8.336   5.909   4.893
13408TIP3    H140165   8.250   5.925   4.854
13408TIP3    H240166   8.322   5.836   4.953
13409TIP3   OH240167   2.795   6.442   0.434
13409TIP3    H140168   2.804   6.376   0.502
13409TIP3    H240169   2.703   6.437   0.407
13410TIP3   OH240170   1.069   6.816   4.530
13410TIP3    H140171   1.024   6.805   4.446
13410TIP3    H240172   1.100   6.907   4.528
13411TIP3   OH240173   0.290   0.923   5.069
13411TIP3    H140174   0.256   0.835   5.083
13411TIP3    H240175   0.385   0.914   5.075
13412TIP3   OH240176   2.998   6.771   3.336
13412TIP3    H140177   3.005   6.715   3.259
13412TIP3    H240178   3.078   6.823   3.335
13413TIP3   OH240179   4.506   2.391   5.588
13413TIP3    H140180   4.491   2.430   5.501
13413TIP3    H240181   4.502   2.297   5.572
13414TIP3   OH240182   3.828   6.004   1.485
13414TIP3    H140183   3.743   6.047   1.500
13414TIP3    H240184   3.805   5.919   1.447
13415TIP3   OH240185   6.831   2.386   2.139
13415TIP3    H140186   6.868   2.473   2.150
13415TIP3    H240187   6.767   2.378   2.210
13416TIP3   OH240188   2.529   1.140   2.150
13416TIP3    H140189   2.470   1.072   2.184
13416TIP3    H240190   2.520   1.135   2.055
13417TIP3   OH240191   6.248   1.100   3.135
13417TIP3    H140192   6.173   1.153   3.109
13417TIP3    H240193   6.282   1.065   3.053
13418TIP3   OH240194   5.530   7.301   2.075
13418TIP3    H140195   5.458   7.361   2.091
13418TIP3    H240196   5.607   7.346   2.110
13419TIP3   OH240197   4.162   0.432   2.302
13419TIP3    H140198   4.253   0.411   2.283
13419TIP3    H240199   4.148   0.403   2.392
13420TIP3   OH240200   4.629   3.258   1.584
13420TIP3    H140201   4.625   3.163   1.595
13420TIP3    H240202   4.651   3.290   1.671
13421TIP3   OH240203   4.823   3.064   3.005
13421TIP3    H140204   4.733   3.087   3.025
13421TIP3    H240205   4.875   3.136   3.041
13422TIP3   OH240206   4.502   1.573   3.123
13422TIP3    H140207   4.593   1.565   3.092
13422TIP3    H240208   4.464   1.641   3.068
13423TIP3   OH240209   3.428   4.908   5.958
13423TIP3    H140210   3.370   4.838   5.927
13423TIP3    H240211   3.393   4.932   6.044
13424TIP3   OH240212   3.440   5.137   5.225
13424TIP3    H140213   3.453   5.097   5.311
13424TIP3    H240214   3.455   5.065   5.164
13425TIP3   OH240215   2.759   4.900   3.662
13425TIP3    H140216   2.740   4.942   3.746
13425TIP3    H240217   2.696   4.829   3.656
13426TIP3   OH240218   6.909   3.796   5.317
13426TIP3    H140219   6.937   3.810   5.407
13426TIP3    H240220   6.823   3.754   5.325
13427TIP3   OH240221   4.511   0.169   4.569
13427TIP3    H140222   4.494   0.237   4.634
13427TIP3    H240223   4.482   0.088   4.610
13428TIP3   OH240224   7.386   7.269   0.532
13428TIP3    H140225   7.370   7.295   0.623
13428TIP3    H240226   7.300   7.241   0.500
13429TIP3   OH240227   5.688   3.653   3.409
13429TIP3    H140228   5.706   3.630   3.500
13429TIP3    H240229   5.601   3.619   3.392
13430TIP3   OH240230   3.996   3.292   2.037
13430TIP3    H140231   3.969   3.322   1.950
13430TIP3    H240232   3.974   3.199   2.038
13431TIP3   OH240233   4.925   5.921   1.421
13431TIP3    H140234   4.952   5.923   1.329
13431TIP3    H240235   4.996   5.876   1.466
13432TIP3   OH240236   1.271   6.199   2.721
13432TIP3    H140237   1.245   6.192   2.629
13432TIP3    H240238   1.201   6.153   2.769
13433TIP3   OH240239   0.036   5.342   3.537
13433TIP3    H140240  -0.033   5.350   3.470
13433TIP3    H240241   0.081   5.426   3.535
13434TIP3   OH240242   3.405   5.237   5.998
13434TIP3    H140243   3.376   5.300   5.931
13434TIP3    H240244   3.489   5.205   5.965
13435TIP3   OH240245   2.521   2.051   1.880
13435TIP3    H140246   2.459   1.987   1.915
13435TIP3    H240247   2.542   2.019   1.793
13436TIP3   OH240248   4.199   4.057   2.280
13436TIP3    H140249   4.288   4.093   2.284
13436TIP3    H240250   4.143   4.133   2.261
13437TIP3   OH240251   3.131   3.947   2.992
13437TIP3    H140252   3.139   4.017   3.057
13437TIP3    H240253   3.183   3.978   2.917
13438TIP3   OH240254   1.140   3.748   1.711
13438TIP3    H140255   1.101   3.795   1.638
13438TIP3    H240256   1.218   3.706   1.674
13439TIP3   OH240257   6.528   5.533   2.539
13439TIP3    H140258   6.611   5.524   2.587
13439TIP3    H240259   6.493   5.617   2.568
13440TIP3   OH240260   0.121   1.601   2.130
13440TIP3    H140261   0.135   1.588   2.036
13440TIP3    H240262   0.045   1.545   2.150
13441TIP3   OH240263   8.129   6.794   4.495
13441TIP3    H140264   8.169   6.723   4.445
13441TIP3    H240265   8.042   6.804   4.457
13442TIP3   OH240266   3.373   7.028   4.635
13442TIP3    H140267   3.458   7.009   4.674
13442TIP3    H240268   3.387   7.107   4.582
13443TIP3   OH240269   5.162   6.185   3.411
13443TIP3    H140270   5.150   6.279   3.401
13443TIP3    H240271   5.112   6.147   3.338
13444TIP3   OH240272   6.698   5.715   3.991
13444TIP3    H140273   6.773   5.768   4.020
13444TIP3    H240274   6.708   5.710   3.896
13445TIP3   OH240275   6.402   6.864   2.238
13445TIP3    H140276   6.422   6.774   2.265
13445TIP3    H240277   6.386   6.858   2.144
13446TIP3   OH240278   6.888   1.268   5.836
13446TIP3    H140279   6.873   1.327   5.910
13446TIP3    H240280   6.981   1.279   5.815
13447TIP3   OH240281   4.038   4.106   6.112
13447TIP3    H140282   4.003   4.066   6.191
13447TIP3    H240283   4.128   4.129   6.135
13448TIP3   OH240284   4.010   0.448   5.701
13448TIP3    H140285   4.048   0.376   5.752
13448TIP3    H240286   4.054   0.526   5.735
13449TIP3   OH240287   0.751   3.945   2.977
13449TIP3    H140288   0.815   3.875   2.985
13449TIP3    H240289   0.678   3.918   3.032
13450TIP3   OH240290   4.978   5.194   5.253
13450TIP3    H140291   4.986   5.184   5.158
13450TIP3    H240292   4.889   5.166   5.273
13451TIP3   OH240293   2.817   0.051   5.089
13451TIP3    H140294   2.878   0.073   5.159
13451TIP3    H240295   2.736   0.027   5.134
13452TIP3   OH240296   3.243   2.694   3.393
13452TIP3    H140297   3.214   2.732   3.476
13452TIP3    H240298   3.164   2.691   3.339
13453TIP3   OH240299   5.544   4.241   6.438
13453TIP3    H140300   5.461   4.272   6.402
13453TIP3    H240301   5.563   4.303   6.509
13454TIP3   OH240302   4.714   6.642   3.622
13454TIP3    H140303   4.702   6.585   3.546
13454TIP3    H240304   4.645   6.614   3.683
13455TIP3   OH240305   2.382   2.562   0.417
13455TIP3    H140306   2.306   2.527   0.372
13455TIP3    H240307   2.433   2.485   0.442
13456TIP3   OH240308   6.881   5.039   1.317
13456TIP3    H140309   6.834   4.999   1.244
13456TIP3    H240310   6.854   4.988   1.394
13457TIP3   OH240311   4.137   7.550   5.155
13457TIP3    H140312   4.197   7.573   5.084
13457TIP3    H240313   4.140   7.454   5.159
13458TIP3   OH240314   6.386   3.541   0.302
13458TIP3    H140315   6.442   3.581   0.368
13458TIP3    H240316   6.447   3.501   0.240
13459TIP3   OH240317   4.594   2.277   6.222
13459TIP3    H140318   4.526   2.254   6.285
13459TIP3    H240319   4.627   2.193   6.191
13460TIP3   OH240320   7.714   7.796   1.141
13460TIP3    H140321   7.687   7.882   1.174
13460TIP3    H240322   7.720   7.808   1.046
13461TIP3   OH240323   1.837   3.989   6.142
13461TIP3    H140324   1.886   3.907   6.136
13461TIP3    H240325   1.758   3.966   6.191
13462TIP3   OH240326   5.337   3.780   2.288
13462TIP3    H140327   5.415   3.765   2.340
13462TIP3    H240328   5.329   3.703   2.232
13463TIP3   OH240329   7.404   5.412   1.900
13463TIP3    H140330   7.398   5.359   1.821
13463TIP3    H240331   7.320   5.399   1.944
13464TIP3   OH240332   2.204   2.564   4.564
13464TIP3    H140333   2.250   2.633   4.611
13464TIP3    H240334   2.229   2.483   4.609
13465TIP3   OH240335   8.327   2.343   0.151
13465TIP3    H140336   8.316   2.306   0.238
13465TIP3    H240337   8.368   2.273   0.100
13466TIP3   OH240338   5.061   4.981   2.568
13466TIP3    H140339   5.043   4.950   2.657
13466TIP3    H240340   4.977   4.971   2.522
13467TIP3   OH240341   1.163   1.914   3.507
13467TIP3    H140342   1.184   1.994   3.459
13467TIP3    H240343   1.107   1.864   3.447
13468TIP3   OH240344   2.630   1.646   1.347
13468TIP3    H140345   2.600   1.732   1.318
13468TIP3    H240346   2.568   1.620   1.414
13469TIP3   OH240347   5.139   3.529   1.908
13469TIP3    H140348   5.057   3.535   1.858
13469TIP3    H240349   5.196   3.475   1.852
13470TIP3   OH240350   0.747   7.226   2.485
13470TIP3    H140351   0.828   7.278   2.481
13470TIP3    H240352   0.777   7.136   2.498
13471TIP3   OH240353   6.170   6.684   1.778
13471TIP3    H140354   6.134   6.702   1.691
13471TIP3    H240355   6.260   6.715   1.773
13472TIP3   OH240356   1.377   0.651   1.528
13472TIP3    H140357   1.451   0.674   1.473
13472TIP3    H240358   1.407   0.666   1.618
13473TIP3   OH240359   1.376   1.854   4.119
13473TIP3    H140360   1.345   1.763   4.112
13473TIP3    H240361   1.410   1.860   4.208
13474TIP3   OH240362   2.222   2.222   3.140
13474TIP3    H140363   2.256   2.298   3.092
13474TIP3    H240364   2.130   2.217   3.115
13475TIP3   OH240365   0.695   4.638   4.325
13475TIP3    H140366   0.673   4.554   4.366
13475TIP3    H240367   0.714   4.616   4.234
13476TIP3   OH240368   6.627   4.551   0.918
13476TIP3    H140369   6.628   4.471   0.971
13476TIP3    H240370   6.539   4.556   0.883
13477TIP3   OH240371   1.530   7.446   4.316
13477TIP3    H140372   1.584   7.386   4.265
13477TIP3    H240373   1.582   7.526   4.322
13478TIP3   OH240374   0.146   4.432   1.572
13478TIP3    H140375   0.122   4.339   1.575
13478TIP3    H240376   0.122   4.465   1.659
13479TIP3   OH240377   0.307   7.764   1.382
13479TIP3    H140378   0.234   7.792   1.326
13479TIP3    H240379   0.297   7.816   1.462
13480TIP3   OH240380   2.096   6.774   6.606
13480TIP3    H140381   2.039   6.704   6.573
13480TIP3    H240382   2.150   6.797   6.531
13481TIP3   OH240383   6.407   7.871   6.796
13481TIP3    H140384   6.411   7.920   6.878
13481TIP3    H240385   6.477   7.806   6.803
13482TIP3   OH240386   4.603   3.756   5.679
13482TIP3    H140387   4.578   3.807   5.757
13482TIP3    H240388   4.587   3.816   5.606
13483TIP3   OH240389   5.059   2.246   3.708
13483TIP3    H140390   5.021   2.254   3.621
13483TIP3    H240391   5.153   2.255   3.695
13484TIP3   OH240392   6.596   4.903   4.530
13484TIP3    H140393   6.678   4.908   4.579
13484TIP3    H240394   6.599   4.816   4.488
13485TIP3   OH240395   5.731   5.071   3.340
13485TIP3    H140396   5.819   5.040   3.365
13485TIP3    H240397   5.690   4.996   3.298
13486TIP3   OH240398   5.303   7.302   2.557
13486TIP3    H140399   5.365   7.318   2.486
13486TIP3    H240400   5.358   7.300   2.636
13487TIP3   OH240401   1.850   1.132   2.268
13487TIP3    H140402   1.865   1.038   2.270
13487TIP3    H240403   1.934   1.169   2.239
13488TIP3   OH240404   7.707   2.419   0.685
13488TIP3    H140405   7.622   2.452   0.653
13488TIP3    H240406   7.770   2.486   0.657
13489TIP3   OH240407   5.842   0.692   5.401
13489TIP3    H140408   5.748   0.677   5.395
13489TIP3    H240409   5.876   0.665   5.315
13490TIP3   OH240410   2.549   1.062   6.127
13490TIP3    H140411   2.547   1.052   6.222
13490TIP3    H240412   2.523   0.977   6.093
13491TIP3   OH240413   3.420   1.945   2.085
13491TIP3    H140414   3.345   1.897   2.120
13491TIP3    H240415   3.480   1.877   2.055
13492TIP3   OH240416   5.548   4.680   0.293
13492TIP3    H140417   5.541   4.618   0.220
13492TIP3    H240418   5.481   4.651   0.355
13493TIP3   OH240419   7.032   6.589   0.412
13493TIP3    H140420   6.946   6.608   0.451
13493TIP3    H240421   7.011   6.555   0.325
13494TIP3   OH240422   8.428   4.286   5.005
13494TIP3    H140423   8.350   4.321   5.049
13494TIP3    H240424   8.415   4.192   5.004
13495TIP3   OH240425   7.193   5.807   2.038
13495TIP3    H140426   7.229   5.753   1.968
13495TIP3    H240427   7.176   5.892   1.997
13496TIP3   OH240428   3.123   4.863   6.342
13496TIP3    H140429   3.030   4.883   6.343
13496TIP3    H240430   3.166   4.949   6.349
13497TIP3   OH240431   4.136   0.696   5.808
13497TIP3    H140432   4.176   0.737   5.885
13497TIP3    H240433   4.210   0.662   5.758
13498TIP3   OH240434   5.402   2.060   0.461
13498TIP3    H140435   5.348   1.990   0.425
13498TIP3    H240436   5.349   2.139   0.451
13499TIP3   OH240437   2.293   1.980   2.975
13499TIP3    H140438   2.380   2.012   2.998
13499TIP3    H240439   2.248   1.968   3.059
13500TIP3   OH240440   2.802   2.574   3.970
13500TIP3    H140441   2.836   2.651   4.015
13500TIP3    H240442   2.865   2.557   3.899
13501TIP3   OH240443   7.851   3.139   4.129
13501TIP3    H140444   7.873   3.059   4.176
13501TIP3    H240445   7.826   3.111   4.041
13502TIP3   OH240446   8.236   4.766   3.972
13502TIP3    H140447   8.255   4.672   3.965
13502TIP3    H240448   8.307   4.808   3.924
13503TIP3   OH240449   5.586   2.523   6.121
13503TIP3    H140450   5.613   2.442   6.077
13503TIP3    H240451   5.658   2.584   6.104
13504TIP3   OH240452   4.235   1.740   6.138
13504TIP3    H140453   4.277   1.771   6.218
13504TIP3    H240454   4.145   1.772   6.143
13505TIP3   OH240455   5.863   5.320   3.484
13505TIP3    H140456   5.814   5.244   3.452
13505TIP3    H240457   5.827   5.394   3.435
13506TIP3   OH240458   0.717   1.333   2.132
13506TIP3    H140459   0.727   1.420   2.093
13506TIP3    H240460   0.717   1.350   2.226
13507TIP3   OH240461   5.001   3.269   6.106
13507TIP3    H140462   4.970   3.358   6.123
13507TIP3    H240463   5.095   3.278   6.094
13508TIP3   OH240464   5.944   4.456   5.594
13508TIP3    H140465   5.981   4.539   5.625
13508TIP3    H240466   5.870   4.440   5.653
13509TIP3   OH240467   0.435   1.226   3.753
13509TIP3    H140468   0.356   1.280   3.763
13509TIP3    H240469   0.444   1.216   3.658
13510TIP3   OH240470   2.139   4.688   6.119
13510TIP3    H140471   2.115   4.711   6.029
13510TIP3    H240472   2.086   4.611   6.138
13511TIP3   OH240473   8.046   6.690   5.648
13511TIP3    H140474   8.131   6.648   5.657
13511TIP3    H240475   8.017   6.666   5.560
13512TIP3   OH240476   5.831   5.992   0.997
13512TIP3    H140477   5.806   6.083   1.016
13512TIP3    H240478   5.899   6.000   0.930
13513TIP3   OH240479   3.186   0.968   1.559
13513TIP3    H140480   3.182   1.037   1.626
13513TIP3    H240481   3.140   1.005   1.484
13514TIP3   OH240482   0.900   1.442   3.447
13514TIP3    H140483   0.844   1.420   3.521
13514TIP3    H240484   0.967   1.500   3.484
13515TIP3   OH240485   4.882   2.408   5.158
13515TIP3    H140486   4.888   2.479   5.094
13515TIP3    H240487   4.791   2.379   5.154
13516TIP3   OH240488   3.707   0.754   1.538
13516TIP3    H140489   3.717   0.845   1.511
13516TIP3    H240490   3.740   0.703   1.464
13517TIP3   OH240491   7.447   1.480   0.449
13517TIP3    H140492   7.497   1.461   0.529
13517TIP3    H240493   7.426   1.394   0.412
13518TIP3   OH240494   0.638   0.311   0.997
13518TIP3    H140495   0.626   0.401   1.028
13518TIP3    H240496   0.605   0.257   1.068
13519TIP3   OH240497   7.834   3.988   4.502
13519TIP3    H140498   7.750   4.027   4.525
13519TIP3    H240499   7.892   4.063   4.485
13520TIP3   OH240500   7.580   5.352   4.670
13520TIP3    H140501   7.621   5.421   4.617
13520TIP3    H240502   7.494   5.387   4.692
13521TIP3   OH240503   5.728   3.225   1.915
13521TIP3    H140504   5.681   3.145   1.937
13521TIP3    H240505   5.664   3.278   1.868
13522TIP3   OH240506   5.552   6.257   3.081
13522TIP3    H140507   5.582   6.325   3.021
13522TIP3    H240508   5.615   6.186   3.071
13523TIP3   OH240509   1.474   4.095   6.147
13523TIP3    H140510   1.552   4.126   6.102
13523TIP3    H240511   1.401   4.120   6.089
13524TIP3   OH240512   6.593   2.358   1.105
13524TIP3    H140513   6.577   2.373   1.012
13524TIP3    H240514   6.674   2.306   1.108
13525TIP3   OH240515   5.438   3.487   5.989
13525TIP3    H140516   5.524   3.528   5.987
13525TIP3    H240517   5.411   3.493   6.081
13526TIP3   OH240518   3.099   7.633   2.288
13526TIP3    H140519   3.091   7.624   2.383
13526TIP3    H240520   3.074   7.724   2.271
13527TIP3   OH240521   4.219   2.369   4.143
13527TIP3    H140522   4.142   2.362   4.085
13527TIP3    H240523   4.190   2.328   4.225
13528TIP3   OH240524   5.531   3.470   4.993
13528TIP3    H140525   5.625   3.450   4.985
13528TIP3    H240526   5.529   3.551   5.044
13529TIP3   OH240527   1.181   6.754   3.724
13529TIP3    H140528   1.193   6.678   3.667
13529TIP3    H240529   1.269   6.779   3.750
13530TIP3   OH240530   2.654   6.314   4.935
13530TIP3    H140531   2.606   6.390   4.902
13530TIP3    H240532   2.702   6.347   5.011
13531TIP3   OH240533   7.586   3.180   4.735
13531TIP3    H140534   7.630   3.264   4.723
13531TIP3    H240535   7.658   3.116   4.740
13532TIP3   OH240536   1.000   3.175   5.544
13532TIP3    H140537   0.990   3.087   5.508
13532TIP3    H240538   1.025   3.161   5.635
13533TIP3   OH240539   7.755   1.093   1.750
13533TIP3    H140540   7.731   1.171   1.701
13533TIP3    H240541   7.708   1.101   1.833
13534TIP3   OH240542   1.194   5.173   2.634
13534TIP3    H140543   1.179   5.103   2.698
13534TIP3    H240544   1.123   5.236   2.651
13535TIP3   OH240545   5.061   7.296   1.864
13535TIP3    H140546   5.123   7.270   1.796
13535TIP3    H240547   5.001   7.355   1.820
13536TIP3   OH240548   7.295   5.864   2.967
13536TIP3    H140549   7.321   5.951   2.937
13536TIP3    H240550   7.276   5.815   2.887
13537TIP3   OH240551   0.128   2.918   3.341
13537TIP3    H140552   0.203   2.892   3.394
13537TIP3    H240553   0.080   2.980   3.395
13538TIP3   OH240554   7.117   1.266   0.152
13538TIP3    H140555   7.082   1.261   0.241
13538TIP3    H240556   7.122   1.175   0.123
13539TIP3   OH240557   2.066   4.545   4.451
13539TIP3    H140558   2.010   4.472   4.475
13539TIP3    H240559   2.151   4.524   4.490
13540TIP3   OH240560   6.403   3.000   3.409
13540TIP3    H140561   6.458   2.925   3.434
13540TIP3    H240562   6.412   3.062   3.481
13541TIP3   OH240563   5.263   7.631   0.965
13541TIP3    H140564   5.275   7.678   1.047
13541TIP3    H240565   5.204   7.686   0.914
13542TIP3   OH240566   6.686   3.451   4.435
13542TIP3    H140567   6.627   3.500   4.493
13542TIP3    H240568   6.722   3.382   4.492
13543TIP3   OH240569   4.029   7.070   0.616
13543TIP3    H140570   4.039   7.104   0.528
13543TIP3    H240571   3.934   7.068   0.631
13544TIP3   OH240572   2.993   2.082   1.971
13544TIP3    H140573   2.984   2.164   2.019
13544TIP3    H240574   2.970   2.014   2.034
13545TIP3   OH240575   4.171   7.347   2.815
13545TIP3    H140576   4.266   7.338   2.805
13545TIP3    H240577   4.158   7.366   2.908
13546TIP3   OH240578   1.162   0.994   1.093
13546TIP3    H140579   1.227   0.926   1.079
13546TIP3    H240580   1.197   1.071   1.047
13547TIP3   OH240581   7.238   0.212   4.843
13547TIP3    H140582   7.260   0.305   4.855
13547TIP3    H240583   7.310   0.176   4.792
13548TIP3   OH240584   4.559   4.151   0.979
13548TIP3    H140585   4.640   4.110   0.948
13548TIP3    H240586   4.557   4.132   1.073
13549TIP3   OH240587   5.807   6.289   1.105
13549TIP3    H140588   5.892   6.332   1.092
13549TIP3    H240589   5.765   6.292   1.020
13550TIP3   OH240590   1.845   4.990   6.545
13550TIP3    H140591   1.787   5.036   6.605
13550TIP3    H240592   1.918   5.050   6.531
13551TIP3   OH240593   5.685   5.427   4.678
13551TIP3    H140594   5.741   5.388   4.745
13551TIP3    H240595   5.644   5.502   4.720
13552TIP3   OH240596   1.372   4.227   0.308
13552TIP3    H140597   1.436   4.293   0.334
13552TIP3    H240598   1.422   4.164   0.256
13553TIP3   OH240599   1.991   1.328   0.759
13553TIP3    H140600   1.980   1.402   0.700
13553TIP3    H240601   2.059   1.274   0.719
13554TIP3   OH240602   4.901   2.032   1.663
13554TIP3    H140603   4.972   1.999   1.609
13554TIP3    H240604   4.824   1.982   1.636
13555TIP3   OH240605   1.206   7.895   1.809
13555TIP3    H140606   1.190   7.821   1.868
13555TIP3    H240607   1.176   7.864   1.724
13556TIP3   OH240608   1.443   7.718   1.966
13556TIP3    H140609   1.456   7.650   2.032
13556TIP3    H240610   1.396   7.788   2.013
13557TIP3   OH240611   6.842   2.433   5.751
13557TIP3    H140612   6.819   2.358   5.805
13557TIP3    H240613   6.822   2.509   5.805
13558TIP3   OH240614   2.755   2.764   2.968
13558TIP3    H140615   2.730   2.845   2.923
13558TIP3    H240616   2.846   2.750   2.944
13559TIP3   OH240617   7.800   2.128   0.690
13559TIP3    H140618   7.715   2.108   0.651
13559TIP3    H240619   7.797   2.222   0.710
13560TIP3   OH240620   3.398   6.550   1.847
13560TIP3    H140621   3.408   6.642   1.869
13560TIP3    H240622   3.400   6.504   1.931
13561TIP3   OH240623   6.149   2.390   1.907
13561TIP3    H140624   6.101   2.319   1.951
13561TIP3    H240625   6.080   2.442   1.866
13562TIP3   OH240626   3.518   5.243   1.477
13562TIP3    H140627   3.607   5.250   1.443
13562TIP3    H240628   3.495   5.333   1.500
13563TIP3   OH240629   1.242   0.560   6.318
13563TIP3    H140630   1.193   0.515   6.249
13563TIP3    H240631   1.328   0.517   6.318
13564TIP3   OH240632   7.137   4.510   2.532
13564TIP3    H140633   7.099   4.429   2.565
13564TIP3    H240634   7.202   4.482   2.468
13565TIP3   OH240635   3.912   2.582   4.147
13565TIP3    H140636   3.878   2.530   4.219
13565TIP3    H240637   3.964   2.651   4.188
13566TIP3   OH240638   1.432   0.969   1.791
13566TIP3    H140639   1.487   1.008   1.724
13566TIP3    H240640   1.431   0.876   1.770
13567TIP3   OH240641   4.643   4.514   5.738
13567TIP3    H140642   4.602   4.501   5.653
13567TIP3    H240643   4.722   4.460   5.735
13568TIP3   OH240644   3.430   7.186   3.353
13568TIP3    H140645   3.447   7.092   3.345
13568TIP3    H240646   3.504   7.228   3.310
13569TIP3   OH240647   6.785   4.550   4.692
13569TIP3    H140648   6.872   4.586   4.711
13569TIP3    H240649   6.730   4.583   4.763
13570TIP3   OH240650   6.796   4.296   1.431
13570TIP3    H140651   6.836   4.239   1.366
13570TIP3    H240652   6.735   4.351   1.381
13571TIP3   OH240653   1.518   0.301   1.622
13571TIP3    H140654   1.428   0.308   1.651
13571TIP3    H240655   1.570   0.338   1.694
13572TIP3   OH240656   0.169   7.029   5.984
13572TIP3    H140657   0.171   7.121   6.011
13572TIP3    H240658   0.208   7.029   5.897
13573TIP3   OH240659   4.481   4.894   3.679
13573TIP3    H140660   4.393   4.856   3.669
13573TIP3    H240661   4.472   4.954   3.752
13574TIP3   OH240662   2.051   7.362   4.950
13574TIP3    H140663   2.059   7.420   4.875
13574TIP3    H240664   2.113   7.290   4.932
13575TIP3   OH240665   3.181   3.687   5.060
13575TIP3    H140666   3.092   3.658   5.038
13575TIP3    H240667   3.231   3.674   4.980
13576TIP3   OH240668   0.419   1.270   4.804
13576TIP3    H140669   0.453   1.357   4.826
13576TIP3    H240670   0.335   1.265   4.850
13577TIP3   OH240671   7.412   6.058   0.864
13577TIP3    H140672   7.434   6.001   0.790
13577TIP3    H240673   7.495   6.096   0.892
13578TIP3   OH240674   6.313   5.849   2.477
13578TIP3    H140675   6.264   5.768   2.461
13578TIP3    H240676   6.317   5.892   2.392
13579TIP3   OH240677   6.896   1.009   0.524
13579TIP3    H140678   6.811   0.967   0.531
13579TIP3    H240679   6.908   1.053   0.609
13580TIP3   OH240680   6.219   6.943   6.611
13580TIP3    H140681   6.252   6.935   6.701
13580TIP3    H240682   6.146   7.004   6.618
13581TIP3   OH240683   3.319   2.079   4.245
13581TIP3    H140684   3.378   2.116   4.312
13581TIP3    H240685   3.306   1.988   4.273
13582TIP3   OH240686   1.183   1.933   0.344
13582TIP3    H140687   1.165   2.000   0.410
13582TIP3    H240688   1.170   1.977   0.260
13583TIP3   OH240689   2.928   6.788   5.672
13583TIP3    H140690   3.021   6.773   5.690
13583TIP3    H240691   2.914   6.880   5.693
13584TIP3   OH240692   5.791   4.012   1.855
13584TIP3    H140693   5.774   4.023   1.761
13584TIP3    H240694   5.828   4.096   1.882
13585TIP3   OH240695   0.317   3.497   5.429
13585TIP3    H140696   0.251   3.452   5.377
13585TIP3    H240697   0.390   3.512   5.368
13586TIP3   OH240698   2.270   3.497   2.089
13586TIP3    H140699   2.188   3.482   2.042
13586TIP3    H240700   2.276   3.592   2.097
13587TIP3   OH240701   1.177   0.114   1.203
13587TIP3    H140702   1.242   0.184   1.211
13587TIP3    H240703   1.228   0.034   1.207
13588TIP3   OH240704   3.135   0.140   4.506
13588TIP3    H140705   3.185   0.109   4.431
13588TIP3    H240706   3.200   0.145   4.577
13589TIP3   OH240707   5.149   1.729   2.307
13589TIP3    H140708   5.087   1.757   2.239
13589TIP3    H240709   5.111   1.648   2.342
13590TIP3   OH240710   2.688   1.595   0.026
13590TIP3    H140711   2.772   1.548   0.020
13590TIP3    H240712   2.644   1.577  -0.057
13591TIP3   OH240713   7.669   3.513   5.867
13591TIP3    H140714   7.755   3.542   5.835
13591TIP3    H240715   7.636   3.588   5.917
13592TIP3   OH240716   8.154   5.829   5.745
13592TIP3    H140717   8.089   5.890   5.711
13592TIP3    H240718   8.238   5.864   5.715
13593TIP3   OH240719   0.290   1.805   6.682
13593TIP3    H140720   0.268   1.716   6.709
13593TIP3    H240721   0.238   1.820   6.604
13594TIP3   OH240722   3.595   6.890   5.877
13594TIP3    H140723   3.616   6.824   5.811
13594TIP3    H240724   3.513   6.928   5.848
13595TIP3   OH240725   0.926   5.596   4.048
13595TIP3    H140726   0.840   5.573   4.011
13595TIP3    H240727   0.941   5.686   4.020
13596TIP3   OH240728   1.969   7.381   4.239
13596TIP3    H140729   1.946   7.405   4.329
13596TIP3    H240730   1.969   7.464   4.191
13597TIP3   OH240731   3.217   3.928   4.866
13597TIP3    H140732   3.276   3.853   4.862
13597TIP3    H240733   3.204   3.942   4.960
13598TIP3   OH240734   8.066   1.441   0.933
13598TIP3    H140735   8.159   1.428   0.951
13598TIP3    H240736   8.032   1.481   1.013
13599TIP3   OH240737   2.677   6.323   2.098
13599TIP3    H140738   2.743   6.279   2.045
13599TIP3    H240739   2.679   6.414   2.069
13600TIP3   OH240740   4.360   5.446   6.152
13600TIP3    H140741   4.286   5.396   6.187
13600TIP3    H240742   4.407   5.383   6.097
13601TIP3   OH240743   3.795   2.856   4.555
13601TIP3    H140744   3.885   2.828   4.535
13601TIP3    H240745   3.743   2.822   4.482
13602TIP3   OH240746   2.017   4.565   6.395
13602TIP3    H140747   1.984   4.489   6.443
13602TIP3    H240748   2.024   4.634   6.462
13603TIP3   OH240749   4.312   7.117   4.067
13603TIP3    H140750   4.389   7.115   4.011
13603TIP3    H240751   4.321   7.041   4.124
13604TIP3   OH240752   6.258   6.669   4.891
13604TIP3    H140753   6.191   6.616   4.846
13604TIP3    H240754   6.216   6.753   4.906
13605TIP3   OH240755   7.855   0.776   2.018
13605TIP3    H140756   7.795   0.782   2.093
13605TIP3    H240757   7.798   0.760   1.943
13606TIP3   OH240758   4.906   5.402   5.531
13606TIP3    H140759   4.878   5.445   5.612
13606TIP3    H240760   4.875   5.460   5.461
13607TIP3   OH240761   1.214   7.020   4.691
13607TIP3    H140762   1.128   7.054   4.715
13607TIP3    H240763   1.229   6.949   4.754
13608TIP3   OH240764   0.512   2.995   5.395
13608TIP3    H140765   0.537   3.027   5.481
13608TIP3    H240766   0.493   3.075   5.345
13609TIP3   OH240767   0.683   3.537   2.567
13609TIP3    H140768   0.707   3.480   2.640
13609TIP3    H240769   0.767   3.565   2.530
13610TIP3   OH240770   5.320   3.025   0.966
13610TIP3    H140771   5.402   2.977   0.961
13610TIP3    H240772   5.283   3.000   1.051
13611TIP3   OH240773   3.379   4.048   6.548
13611TIP3    H140774   3.466   4.019   6.518
13611TIP3    H240775   3.378   4.027   6.641
13612TIP3   OH240776   0.739   4.129   0.428
13612TIP3    H140777   0.729   4.044   0.470
13612TIP3    H240778   0.790   4.181   0.490
13613TIP3   OH240779   1.229   4.312   3.148
13613TIP3    H140780   1.201   4.390   3.100
13613TIP3    H240781   1.171   4.310   3.225
13614TIP3   OH240782   2.045   1.336   3.671
13614TIP3    H140783   2.036   1.249   3.632
13614TIP3    H240784   2.125   1.372   3.633
13615TIP3   OH240785   5.467   7.463   1.806
13615TIP3    H140786   5.550   7.419   1.823
13615TIP3    H240787   5.467   7.538   1.866
13616TIP3   OH240788   7.406   1.497   1.227
13616TIP3    H140789   7.468   1.430   1.256
13616TIP3    H240790   7.327   1.481   1.279
13617TIP3   OH240791   7.007   2.051   6.710
13617TIP3    H140792   7.079   1.991   6.730
13617TIP3    H240793   6.941   1.996   6.668
13618TIP3   OH240794   1.804   2.202   6.084
13618TIP3    H140795   1.838   2.117   6.055
13618TIP3    H240796   1.783   2.189   6.176
13619TIP3   OH240797   3.776   6.116   0.303
13619TIP3    H140798   3.870   6.120   0.289
13619TIP3    H240799   3.739   6.102   0.216
13620TIP3   OH240800   4.355   1.909   3.675
13620TIP3    H140801   4.368   1.910   3.580
13620TIP3    H240802   4.442   1.891   3.711
13621TIP3   OH240803   3.445   4.505   1.321
13621TIP3    H140804   3.401   4.549   1.394
13621TIP3    H240805   3.519   4.561   1.299
13622TIP3   OH240806   1.203   3.840   5.554
13622TIP3    H140807   1.152   3.825   5.634
13622TIP3    H240808   1.202   3.756   5.508
13623TIP3   OH240809   8.017   4.802   1.440
13623TIP3    H140810   8.058   4.838   1.361
13623TIP3    H240811   8.043   4.710   1.439
13624TIP3   OH240812   4.694   5.171   5.211
13624TIP3    H140813   4.643   5.091   5.205
13624TIP3    H240814   4.650   5.232   5.152
13625TIP3   OH240815   4.352   2.264   1.317
13625TIP3    H140816   4.428   2.219   1.281
13625TIP3    H240817   4.277   2.210   1.291
13626TIP3   OH240818   5.412   7.417   0.871
13626TIP3    H140819   5.354   7.478   0.916
13626TIP3    H240820   5.496   7.462   0.867
13627TIP3   OH240821   5.943   6.079   4.232
13627TIP3    H140822   5.884   6.006   4.249
13627TIP3    H240823   5.966   6.071   4.140
13628TIP3   OH240824   0.496   7.843   3.536
13628TIP3    H140825   0.447   7.808   3.609
13628TIP3    H240826   0.456   7.928   3.518
13629TIP3   OH240827   3.436   4.911   3.255
13629TIP3    H140828   3.444   4.979   3.188
13629TIP3    H240829   3.342   4.894   3.261
13630TIP3   OH240830   7.073   2.400   1.940
13630TIP3    H140831   7.006   2.456   1.902
13630TIP3    H240832   7.032   2.314   1.945
13631TIP3   OH240833   8.370   6.584   0.743
13631TIP3    H140834   8.298   6.574   0.682
13631TIP3    H240835   8.446   6.602   0.688
13632TIP3   OH240836   0.971   5.824   3.027
13632TIP3    H140837   0.970   5.775   3.109
13632TIP3    H240838   0.910   5.897   3.042
13633TIP3   OH240839   8.035   6.809   4.098
13633TIP3    H140840   8.067   6.886   4.145
13633TIP3    H240841   7.981   6.763   4.163
13634TIP3   OH240842   0.664   0.004   0.202
13634TIP3    H140843   0.741   0.002   0.259
13634TIP3    H240844   0.610   0.075   0.237
13635TIP3   OH240845   0.745   5.620   5.784
13635TIP3    H140846   0.695   5.695   5.753
13635TIP3    H240847   0.806   5.601   5.713
13636TIP3   OH240848   1.458   7.531   0.091
13636TIP3    H140849   1.459   7.577   0.175
13636TIP3    H240850   1.425   7.443   0.112
13637TIP3   OH240851   7.105   7.711   4.785
13637TIP3    H140852   7.174   7.646   4.776
13637TIP3    H240853   7.075   7.727   4.696
13638TIP3   OH240854   0.553   0.367   2.746
13638TIP3    H140855   0.608   0.373   2.825
13638TIP3    H240856   0.572   0.281   2.710
13639TIP3   OH240857   7.231   4.650   0.141
13639TIP3    H140858   7.163   4.694   0.192
13639TIP3    H240859   7.206   4.558   0.144
13640TIP3   OH240860   0.530   5.146   5.495
13640TIP3    H140861   0.520   5.185   5.408
13640TIP3    H240862   0.446   5.164   5.539
13641TIP3   OH240863   4.952   7.001   3.720
13641TIP3    H140864   5.003   7.056   3.778
13641TIP3    H240865   4.999   7.001   3.637
13642TIP3   OH240866   3.695   1.499   2.889
13642TIP3    H140867   3.715   1.449   2.809
13642TIP3    H240868   3.679   1.588   2.858
13643TIP3   OH240869   2.910   6.931   0.780
13643TIP3    H140870   2.860   6.964   0.705
13643TIP3    H240871   2.857   6.859   0.814
13644TIP3   OH240872   7.957   2.516   5.391
13644TIP3    H140873   8.017   2.483   5.324
13644TIP3    H240874   8.014   2.557   5.456
13645TIP3   OH240875   6.936   1.638   3.693
13645TIP3    H140876   6.864   1.663   3.637
13645TIP3    H240877   7.013   1.640   3.637
13646TIP3   OH240878   4.415   5.233   5.689
13646TIP3    H140879   4.441   5.313   5.736
13646TIP3    H240880   4.464   5.236   5.608
13647TIP3   OH240881   4.799   5.932   0.114
13647TIP3    H140882   4.832   5.845   0.135
13647TIP3    H240883   4.874   5.979   0.080
13648TIP3   OH240884   6.571   6.563   2.925
13648TIP3    H140885   6.494   6.528   2.970
13648TIP3    H240886   6.602   6.633   2.982
13649TIP3   OH240887   5.654   1.902   1.116
13649TIP3    H140888   5.566   1.918   1.151
13649TIP3    H240889   5.709   1.892   1.194
13650TIP3   OH240890   5.193   3.812   1.272
13650TIP3    H140891   5.123   3.871   1.301
13650TIP3    H240892   5.249   3.866   1.217
13651TIP3   OH240893   2.432   0.419   1.157
13651TIP3    H140894   2.351   0.446   1.113
13651TIP3    H240895   2.494   0.403   1.086
13652TIP3   OH240896   3.659   3.528   5.642
13652TIP3    H140897   3.635   3.602   5.586
13652TIP3    H240898   3.747   3.505   5.614
13653TIP3   OH240899   1.153   0.667   0.657
13653TIP3    H140900   1.161   0.756   0.622
13653TIP3    H240901   1.214   0.615   0.605
13654TIP3   OH240902   2.412   0.778   1.344
13654TIP3    H140903   2.450   0.758   1.429
13654TIP3    H240904   2.343   0.714   1.332
13655TIP3   OH240905   2.289   6.595   0.239
13655TIP3    H140906   2.255   6.530   0.176
13655TIP3    H240907   2.307   6.544   0.318
13656TIP3   OH240908   6.295   1.011   4.683
13656TIP3    H140909   6.267   0.930   4.726
13656TIP3    H240910   6.390   1.003   4.675
13657TIP3   OH240911   4.951   1.006   1.316
13657TIP3    H140912   5.041   0.987   1.341
13657TIP3    H240913   4.921   1.070   1.380
13658TIP3   OH240914   5.913   2.626   3.006
13658TIP3    H140915   5.932   2.584   3.090
13658TIP3    H240916   5.986   2.685   2.991
13659TIP3   OH240917   7.511   6.170   4.986
13659TIP3    H140918   7.465   6.089   5.008
13659TIP3    H240919   7.541   6.204   5.071
13660TIP3   OH240920   5.699   7.350   3.318
13660TIP3    H140921   5.605   7.348   3.336
13660TIP3    H240922   5.710   7.298   3.238
13661TIP3   OH240923   8.268   1.567   3.961
13661TIP3    H140924   8.273   1.568   3.866
13661TIP3    H240925   8.238   1.479   3.984
13662TIP3   OH240926   8.343   3.888   5.351
13662TIP3    H140927   8.339   3.795   5.372
13662TIP3    H240928   8.423   3.897   5.299
13663TIP3   OH240929   1.802   0.585   2.496
13663TIP3    H140930   1.814   0.599   2.590
13663TIP3    H240931   1.882   0.540   2.468
13664TIP3   OH240932   6.940   1.321   1.021
13664TIP3    H140933   6.851   1.341   0.993
13664TIP3    H240934   6.977   1.406   1.047
13665TIP3   OH240935   4.853   2.913   4.362
13665TIP3    H140936   4.861   2.858   4.285
13665TIP3    H240937   4.901   2.866   4.430
13666TIP3   OH240938   3.117   7.492   3.897
13666TIP3    H140939   3.034   7.539   3.901
13666TIP3    H240940   3.095   7.400   3.913
13667TIP3   OH240941   6.052   5.063   0.782
13667TIP3    H140942   6.064   5.157   0.767
13667TIP3    H240943   6.075   5.022   0.699
13668TIP3   OH240944   3.289   5.256   1.654
13668TIP3    H140945   3.262   5.206   1.731
13668TIP3    H240946   3.290   5.347   1.684
13669TIP3   OH240947   4.004   2.429   2.198
13669TIP3    H140948   3.972   2.493   2.262
13669TIP3    H240949   3.972   2.345   2.230
13670TIP3   OH240950   0.842   6.375   1.697
13670TIP3    H140951   0.836   6.346   1.788
13670TIP3    H240952   0.894   6.455   1.701
13671TIP3   OH240953   1.838   4.325   1.453
13671TIP3    H140954   1.892   4.398   1.424
13671TIP3    H240955   1.805   4.351   1.539
13672TIP3   OH240956   4.391   2.929   0.747
13672TIP3    H140957   4.358   2.865   0.810
13672TIP3    H240958   4.390   2.883   0.663
13673TIP3   OH240959   6.428   2.172   4.543
13673TIP3    H140960   6.519   2.149   4.561
13673TIP3    H240961   6.385   2.168   4.629
13674TIP3   OH240962   6.166   6.555   0.585
13674TIP3    H140963   6.106   6.617   0.627
13674TIP3    H240964   6.168   6.582   0.494
13675TIP3   OH240965   0.067   0.636   0.622
13675TIP3    H140966   0.010   0.584   0.678
13675TIP3    H240967   0.144   0.654   0.676
13676TIP3   OH240968   0.861   3.281   5.143
13676TIP3    H140969   0.915   3.343   5.192
13676TIP3    H240970   0.774   3.321   5.142
13677TIP3   OH240971   5.417   1.926   4.495
13677TIP3    H140972   5.410   1.925   4.590
13677TIP3    H240973   5.456   1.841   4.473
13678TIP3   OH240974   2.439   3.420   0.046
13678TIP3    H140975   2.356   3.407   0.000
13678TIP3    H240976   2.465   3.333   0.075
13679TIP3   OH240977   3.957   7.278   2.669
13679TIP3    H140978   3.987   7.301   2.581
13679TIP3    H240979   4.031   7.301   2.726
13680TIP3   OH240980   1.078   4.388   2.711
13680TIP3    H140981   1.005   4.374   2.651
13680TIP3    H240982   1.064   4.476   2.747
13681TIP3   OH240983   1.271   1.849   6.165
13681TIP3    H140984   1.270   1.944   6.153
13681TIP3    H240985   1.265   1.837   6.260
13682TIP3   OH240986   4.600   6.529   0.679
13682TIP3    H140987   4.644   6.572   0.606
13682TIP3    H240988   4.660   6.459   0.705
13683TIP3   OH240989   7.407   2.134   6.674
13683TIP3    H140990   7.438   2.066   6.614
13683TIP3    H240991   7.348   2.088   6.734
13684TIP3   OH240992   1.642   4.712   4.803
13684TIP3    H140993   1.589   4.632   4.792
13684TIP3    H240994   1.591   4.766   4.864
13685TIP3   OH240995   6.271   0.236   0.687
13685TIP3    H140996   6.205   0.215   0.621
13685TIP3    H240997   6.313   0.315   0.655
13686TIP3   OH240998   6.646   5.150   0.094
13686TIP3    H140999   6.558   5.187   0.089
13686TIP3    H241000   6.699   5.220   0.133
13687TIP3   OH241001   0.016   2.999   6.375
13687TIP3    H141002   0.031   2.955   6.459
13687TIP3    H241003   0.075   3.075   6.377
13688TIP3   OH241004   5.823   0.092   5.160
13688TIP3    H141005   5.760   0.046   5.104
13688TIP3    H241006   5.908   0.057   5.134
13689TIP3   OH241007   6.134   3.616   6.780
13689TIP3    H141008   6.222   3.578   6.777
13689TIP3    H241009   6.147   3.708   6.799
13690TIP3   OH241010   0.430   6.507   1.187
13690TIP3    H141011   0.502   6.555   1.146
13690TIP3    H241012   0.366   6.495   1.118
13691TIP3   OH241013   0.609   5.734   6.435
13691TIP3    H141014   0.669   5.738   6.361
13691TIP3    H241015   0.606   5.823   6.469
13692TIP3   OH241016   1.259   1.425   3.199
13692TIP3    H141017   1.345   1.465   3.198
13692TIP3    H241018   1.217   1.460   3.277
13693TIP3   OH241019   3.278   5.186   4.033
13693TIP3    H141020   3.235   5.122   3.977
13693TIP3    H241021   3.211   5.213   4.096
13694TIP3   OH241022   5.432   4.196   3.514
13694TIP3    H141023   5.411   4.186   3.421
13694TIP3    H241024   5.458   4.109   3.543
13695TIP3   OH241025   4.773   4.049   0.849
13695TIP3    H141026   4.801   3.961   0.825
13695TIP3    H241027   4.788   4.101   0.770
13696TIP3   OH241028   1.327   3.749   6.082
13696TIP3    H141029   1.343   3.828   6.032
13696TIP3    H241030   1.331   3.678   6.017
13697TIP3   OH241031   2.361   4.976   3.598
13697TIP3    H141032   2.410   4.956   3.518
13697TIP3    H241033   2.410   4.931   3.668
13698TIP3   OH241034   5.744   0.446   6.257
13698TIP3    H141035   5.667   0.437   6.313
13698TIP3    H241036   5.771   0.538   6.269
13699TIP3   OH241037   5.260   0.763   2.132
13699TIP3    H141038   5.180   0.721   2.163
13699TIP3    H241039   5.319   0.763   2.207
13700TIP3   OH241040   2.372   3.265   5.875
13700TIP3    H141041   2.280   3.259   5.850
13700TIP3    H241042   2.376   3.222   5.960
13701TIP3   OH241043   8.370   5.032   3.145
13701TIP3    H141044   8.298   5.024   3.083
13701TIP3    H241045   8.407   5.119   3.128
13702TIP3   OH241046   6.872   2.659   6.308
13702TIP3    H141047   6.899   2.632   6.395
13702TIP3    H241048   6.844   2.578   6.265
13703TIP3   OH241049   2.993   3.153   5.223
13703TIP3    H141050   2.949   3.109   5.150
13703TIP3    H241051   3.079   3.176   5.188
13704TIP3   OH241052   5.117   7.215   5.751
13704TIP3    H141053   5.137   7.254   5.837
13704TIP3    H241054   5.147   7.280   5.688
13705TIP3   OH241055   4.591   1.079   0.001
13705TIP3    H141056   4.576   1.062   0.094
13705TIP3    H241057   4.682   1.054  -0.014
13706TIP3   OH241058   1.553   1.563   3.305
13706TIP3    H141059   1.505   1.622   3.363
13706TIP3    H241060   1.501   1.561   3.225
13707TIP3   OH241061   1.703   0.938   3.006
13707TIP3    H141062   1.713   0.905   2.917
13707TIP3    H241063   1.697   0.860   3.061
13708TIP3   OH241064   7.813   1.387   4.788
13708TIP3    H141065   7.728   1.362   4.822
13708TIP3    H241066   7.804   1.480   4.766
13709TIP3   OH241067   1.978   7.930   0.249
13709TIP3    H141068   2.062   7.891   0.225
13709TIP3    H241069   1.980   7.935   0.344
13710TIP3   OH241070   7.629   4.477   6.333
13710TIP3    H141071   7.649   4.451   6.244
13710TIP3    H241072   7.602   4.396   6.377
13711TIP3   OH241073   6.939   3.398   6.118
13711TIP3    H141074   6.947   3.440   6.204
13711TIP3    H241075   6.901   3.312   6.137
13712TIP3   OH241076   6.971   3.989   0.802
13712TIP3    H141077   6.967   4.039   0.721
13712TIP3    H241078   6.895   3.931   0.798
13713TIP3   OH241079   4.827   4.944   4.399
13713TIP3    H141080   4.879   4.968   4.322
13713TIP3    H241081   4.789   5.027   4.429
13714TIP3   OH241082   0.744   5.235   6.674
13714TIP3    H141083   0.771   5.323   6.698
13714TIP3    H241084   0.826   5.185   6.670
13715TIP3   OH241085   4.556   3.950   6.660
13715TIP3    H141086   4.583   3.916   6.575
13715TIP3    H241087   4.460   3.952   6.656
13716TIP3   OH241088   5.433   4.008   0.185
13716TIP3    H141089   5.352   3.966   0.156
13716TIP3    H241090   5.497   3.936   0.190
13717TIP3   OH241091   5.672   1.677   5.452
13717TIP3    H141092   5.764   1.674   5.477
13717TIP3    H241093   5.666   1.625   5.372
13718TIP3   OH241094   4.820   4.334   3.918
13718TIP3    H141095   4.788   4.244   3.921
13718TIP3    H241096   4.914   4.326   3.934
13719TIP3   OH241097   6.244   6.799   0.953
13719TIP3    H141098   6.176   6.747   0.994
13719TIP3    H241099   6.321   6.742   0.952
13720TIP3   OH241100   5.864   5.707   1.943
13720TIP3    H141101   5.946   5.751   1.965
13720TIP3    H241102   5.803   5.778   1.926
13721TIP3   OH241103   6.551   3.923   2.818
13721TIP3    H141104   6.496   3.853   2.853
13721TIP3    H241105   6.636   3.909   2.859
13722TIP3   OH241106   3.929   3.044   6.499
13722TIP3    H141107   3.985   3.104   6.449
13722TIP3    H241108   3.990   2.983   6.541
13723TIP3   OH241109   0.916   2.316   6.255
13723TIP3    H141110   0.865   2.243   6.290
13723TIP3    H241111   0.859   2.353   6.187
13724TIP3   OH241112   3.998   7.175   0.022
13724TIP3    H141113   4.088   7.149   0.041
13724TIP3    H241114   3.992   7.173  -0.073
13725TIP3   OH241115   0.243   0.711   3.144
13725TIP3    H141116   0.268   0.620   3.161
13725TIP3    H241117   0.147   0.710   3.143
13726TIP3   OH241118   1.650   6.954   2.172
13726TIP3    H141119   1.657   6.859   2.167
13726TIP3    H241120   1.613   6.971   2.259
13727TIP3   OH241121   5.610   2.531   0.058
13727TIP3    H141122   5.636   2.614   0.017
13727TIP3    H241123   5.642   2.537   0.147
13728TIP3   OH241124   1.707   5.035   2.943
13728TIP3    H141125   1.719   5.044   2.849
13728TIP3    H241126   1.718   4.941   2.960
13729TIP3   OH241127   3.078   7.616   0.577
13729TIP3    H141128   3.105   7.692   0.527
13729TIP3    H241129   3.097   7.541   0.520
13730TIP3   OH241130   5.113   7.847   1.090
13730TIP3    H141131   5.158   7.917   1.137
13730TIP3    H241132   5.091   7.886   1.005
13731TIP3   OH241133   1.990   6.098   5.891
13731TIP3    H141134   2.077   6.139   5.894
13731TIP3    H241135   1.941   6.140   5.961
13732TIP3   OH241136   5.126   1.958   0.122
13732TIP3    H141137   5.095   1.900   0.192
13732TIP3    H241138   5.093   1.918   0.042
13733TIP3   OH241139   1.265   4.707   3.407
13733TIP3    H141140   1.286   4.793   3.443
13733TIP3    H241141   1.169   4.704   3.408
13734TIP3   OH241142   2.637   6.194   4.393
13734TIP3    H141143   2.686   6.164   4.469
13734TIP3    H241144   2.651   6.288   4.390
13735TIP3   OH241145   7.467   6.703   0.433
13735TIP3    H141146   7.508   6.659   0.507
13735TIP3    H241147   7.379   6.725   0.463
13736TIP3   OH241148   6.854   4.995   3.997
13736TIP3    H141149   6.811   5.011   4.081
13736TIP3    H241150   6.903   5.075   3.979
13737TIP3   OH241151   0.964   0.240   5.884
13737TIP3    H141152   0.968   0.146   5.867
13737TIP3    H241153   0.905   0.275   5.818
13738TIP3   OH241154   0.956   1.739   1.200
13738TIP3    H141155   1.020   1.670   1.219
13738TIP3    H241156   1.005   1.803   1.149
13739TIP3   OH241157   2.573   6.095   5.411
13739TIP3    H141158   2.563   6.172   5.354
13739TIP3    H241159   2.638   6.122   5.476
13740TIP3   OH241160   2.608   3.893   4.421
13740TIP3    H141161   2.670   3.938   4.478
13740TIP3    H241162   2.548   3.848   4.480
13741TIP3   OH241163   0.818   3.797   2.068
13741TIP3    H141164   0.751   3.840   2.120
13741TIP3    H241165   0.899   3.843   2.089
13742TIP3   OH241166   6.659   2.822   6.533
13742TIP3    H141167   6.624   2.860   6.613
13742TIP3    H241168   6.736   2.876   6.513
13743TIP3   OH241169   1.057   2.574   5.414
13743TIP3    H141170   1.070   2.495   5.466
13743TIP3    H241171   0.963   2.576   5.397
13744TIP3   OH241172   1.255   7.329   0.479
13744TIP3    H141173   1.207   7.347   0.398
13744TIP3    H241174   1.187   7.314   0.545
13745TIP3   OH241175   8.112   5.420   3.876
13745TIP3    H141176   8.026   5.429   3.834
13745TIP3    H241177   8.130   5.506   3.913
13746TIP3   OH241178   3.865   4.067   2.816
13746TIP3    H141179   3.919   4.003   2.769
13746TIP3    H241180   3.923   4.101   2.885
13747TIP3   OH241181   2.466   4.572   2.025
13747TIP3    H141182   2.555   4.570   1.992
13747TIP3    H241183   2.438   4.481   2.027
13748TIP3   OH241184   1.724   5.841   1.018
13748TIP3    H141185   1.661   5.770   1.026
13748TIP3    H241186   1.708   5.898   1.093
13749TIP3   OH241187   6.213   4.932   0.964
13749TIP3    H141188   6.229   4.850   0.917
13749TIP3    H241189   6.169   4.988   0.900
13750TIP3   OH241190   8.355   5.233   2.636
13750TIP3    H141191   8.355   5.261   2.545
13750TIP3    H241192   8.318   5.145   2.633
13751TIP3   OH241193   6.958   4.983   2.781
13751TIP3    H141194   6.895   4.985   2.853
13751TIP3    H241195   7.028   4.924   2.811
13752TIP3   OH241196   2.130   5.733   6.617
13752TIP3    H141197   2.113   5.818   6.658
13752TIP3    H241198   2.221   5.713   6.640
13753TIP3   OH241199   8.033   0.306   5.598
13753TIP3    H141200   8.066   0.371   5.536
13753TIP3    H241201   8.107   0.246   5.612
13754TIP3   OH241202   5.606   2.149   3.840
13754TIP3    H141203   5.688   2.112   3.874
13754TIP3    H241204   5.542   2.079   3.851
13755TIP3   OH241205   7.142   4.576   5.806
13755TIP3    H141206   7.059   4.535   5.832
13755TIP3    H241207   7.116   4.642   5.742
13756TIP3   OH241208   2.237   2.136   1.980
13756TIP3    H141209   2.300   2.102   2.043
13756TIP3    H241210   2.239   2.231   1.992
13757TIP3   OH241211   7.328   5.102   5.631
13757TIP3    H141212   7.324   5.071   5.722
13757TIP3    H241213   7.238   5.098   5.600
13758TIP3   OH241214   7.633   7.671   4.771
13758TIP3    H141215   7.615   7.679   4.864
13758TIP3    H241216   7.601   7.753   4.733
13759TIP3   OH241217   4.175   0.078   4.337
13759TIP3    H141218   4.152   0.145   4.403
13759TIP3    H241219   4.192  -0.001   4.389
13760TIP3   OH241220   3.466   4.967   3.654
13760TIP3    H141221   3.374   4.944   3.666
13760TIP3    H241222   3.465   5.035   3.587
13761TIP3   OH241223   6.470   0.711   3.047
13761TIP3    H141224   6.502   0.632   3.004
13761TIP3    H241225   6.375   0.697   3.053
13762TIP3   OH241226   4.438   4.959   4.959
13762TIP3    H141227   4.503   4.923   4.898
13762TIP3    H241228   4.411   4.884   5.012
13763TIP3   OH241229   5.397   3.695   3.970
13763TIP3    H141230   5.304   3.715   3.972
13763TIP3    H241231   5.440   3.775   4.000
13764TIP3   OH241232   4.127   2.047   4.768
13764TIP3    H141233   4.165   1.963   4.742
13764TIP3    H241234   4.037   2.044   4.738
13765TIP3   OH241235   0.711   6.033   0.874
13765TIP3    H141236   0.771   6.016   0.801
13765TIP3    H241237   0.635   5.977   0.855
13766TIP3   OH241238   5.795   1.597   2.368
13766TIP3    H141239   5.733   1.661   2.404
13766TIP3    H241240   5.778   1.517   2.418
13767TIP3   OH241241   4.648   6.311   6.155
13767TIP3    H141242   4.641   6.392   6.105
13767TIP3    H241243   4.579   6.254   6.119
13768TIP3   OH241244   6.225   0.678   0.713
13768TIP3    H141245   6.152   0.713   0.662
13768TIP3    H241246   6.299   0.735   0.692
13769TIP3   OH241247   4.734   5.186   6.710
13769TIP3    H141248   4.718   5.176   6.804
13769TIP3    H241249   4.665   5.246   6.680
13770TIP3   OH241250   1.054   3.513   4.763
13770TIP3    H141251   1.078   3.603   4.740
13770TIP3    H241252   0.961   3.518   4.784
13771TIP3   OH241253   7.404   0.952   0.562
13771TIP3    H141254   7.349   0.931   0.637
13771TIP3    H241255   7.344   0.952   0.487
13772TIP3   OH241256   4.718   5.387   2.619
13772TIP3    H141257   4.701   5.481   2.620
13772TIP3    H241258   4.772   5.374   2.541
13773TIP3   OH241259   5.661   3.474   6.609
13773TIP3    H141260   5.729   3.406   6.609
13773TIP3    H241261   5.695   3.541   6.668
13774TIP3   OH241262   3.406   1.310   1.750
13774TIP3    H141263   3.499   1.299   1.730
13774TIP3    H241264   3.402   1.394   1.796
13775TIP3   OH241265   7.793   5.856   0.842
13775TIP3    H141266   7.730   5.894   0.780
13775TIP3    H241267   7.762   5.883   0.928
13776TIP3   OH241268   5.932   3.014   6.561
13776TIP3    H141269   5.842   3.005   6.532
13776TIP3    H241270   5.933   2.976   6.648
13777TIP3   OH241271   0.308   1.227   5.488
13777TIP3    H141272   0.315   1.210   5.395
13777TIP3    H241273   0.214   1.223   5.506
13778TIP3   OH241274   5.669   5.461   6.246
13778TIP3    H141275   5.628   5.544   6.270
13778TIP3    H241276   5.685   5.468   6.152
13779TIP3   OH241277   0.897   1.183   2.416
13779TIP3    H141278   0.963   1.122   2.450
13779TIP3    H241279   0.814   1.148   2.447
13780TIP3   OH241280   4.748   0.609   1.381
13780TIP3    H141281   4.738   0.514   1.386
13780TIP3    H241282   4.659   0.642   1.365
13781TIP3   OH241283   3.377   0.089   3.204
13781TIP3    H141284   3.437   0.015   3.189
13781TIP3    H241285   3.302   0.051   3.250
13782TIP3   OH241286   3.755   2.587   1.955
13782TIP3    H141287   3.691   2.591   1.884
13782TIP3    H241288   3.839   2.575   1.911
13783TIP3   OH241289   6.624   5.624   2.255
13783TIP3    H141290   6.565   5.697   2.237
13783TIP3    H241291   6.591   5.585   2.336
13784TIP3   OH241292   5.613   3.919   1.142
13784TIP3    H141293   5.535   3.937   1.089
13784TIP3    H241294   5.631   3.826   1.128
13785TIP3   OH241295   2.199   4.621   2.058
13785TIP3    H141296   2.286   4.625   2.020
13785TIP3    H241297   2.206   4.557   2.128
13786TIP3   OH241298   5.194   7.558   2.555
13786TIP3    H141299   5.231   7.621   2.616
13786TIP3    H241300   5.244   7.478   2.569
13787TIP3   OH241301   5.655   1.111   2.574
13787TIP3    H141302   5.714   1.162   2.519
13787TIP3    H241303   5.585   1.172   2.597
13788TIP3   OH241304   1.201   5.296   5.341
13788TIP3    H141305   1.277   5.350   5.363
13788TIP3    H241306   1.229   5.245   5.265
13789TIP3   OH241307   1.576   1.184   1.994
13789TIP3    H141308   1.526   1.179   1.912
13789TIP3    H241309   1.662   1.215   1.968
13790TIP3   OH241310   7.765   1.662   6.044
13790TIP3    H141311   7.722   1.620   5.970
13790TIP3    H241312   7.699   1.721   6.081
13791TIP3   OH241313   3.849   7.084   0.377
13791TIP3    H141314   3.802   7.068   0.459
13791TIP3    H241315   3.815   7.018   0.316
13792TIP3   OH241316   6.889   7.205   5.213
13792TIP3    H141317   6.966   7.238   5.168
13792TIP3    H241318   6.906   7.222   5.305
13793TIP3   OH241319   2.150   1.390   5.378
13793TIP3    H141320   2.235   1.434   5.387
13793TIP3    H241321   2.100   1.421   5.453
13794TIP3   OH241322   5.601   5.776   3.714
13794TIP3    H141323   5.685   5.787   3.670
13794TIP3    H241324   5.612   5.822   3.797
13795TIP3   OH241325   1.542   0.890   3.270
13795TIP3    H141326   1.568   0.828   3.338
13795TIP3    H241327   1.451   0.867   3.249
13796TIP3   OH241328   2.637   4.351   5.065
13796TIP3    H141329   2.594   4.268   5.085
13796TIP3    H241330   2.637   4.399   5.148
13797TIP3   OH241331   1.951   1.206   6.249
13797TIP3    H141332   1.894   1.130   6.257
13797TIP3    H241333   1.892   1.281   6.250
13798TIP3   OH241334   3.597   4.764   1.465
13798TIP3    H141335   3.639   4.816   1.533
13798TIP3    H241336   3.504   4.766   1.488
13799TIP3   OH241337   5.250   7.516   4.180
13799TIP3    H141338   5.306   7.584   4.142
13799TIP3    H241339   5.221   7.552   4.264
13800TIP3   OH241340   7.221   4.074   4.775
13800TIP3    H141341   7.271   4.002   4.813
13800TIP3    H241342   7.235   4.066   4.681
13801TIP3   OH241343   1.646   2.698   3.219
13801TIP3    H141344   1.664   2.718   3.310
13801TIP3    H241345   1.730   2.672   3.183
13802TIP3   OH241346   4.623   6.620   4.915
13802TIP3    H141347   4.661   6.695   4.870
13802TIP3    H241348   4.545   6.598   4.865
13803TIP3   OH241349   1.541   6.914   1.311
13803TIP3    H141350   1.468   6.878   1.361
13803TIP3    H241351   1.516   7.005   1.294
13804TIP3   OH241352   2.460   3.723   3.224
13804TIP3    H141353   2.494   3.807   3.255
13804TIP3    H241354   2.369   3.720   3.254
13805TIP3   OH241355   1.519   0.789   6.448
13805TIP3    H141356   1.496   0.723   6.383
13805TIP3    H241357   1.577   0.743   6.509
13806TIP3   OH241358   5.293   2.412   2.163
13806TIP3    H141359   5.361   2.453   2.216
13806TIP3    H241360   5.286   2.323   2.198
13807TIP3   OH241361   4.563   2.920   5.456
13807TIP3    H141362   4.477   2.878   5.448
13807TIP3    H241363   4.617   2.854   5.500
13808TIP3   OH241364   0.389   5.834   2.811
13808TIP3    H141365   0.298   5.803   2.806
13808TIP3    H241366   0.414   5.850   2.720
13809TIP3   OH241367   3.431   3.382   3.049
13809TIP3    H141368   3.403   3.315   3.111
13809TIP3    H241369   3.467   3.453   3.103
13810TIP3   OH241370   2.385   0.257   3.174
13810TIP3    H141371   2.401   0.175   3.128
13810TIP3    H241372   2.458   0.264   3.236
13811TIP3   OH241373   3.967   7.019   3.407
13811TIP3    H141374   4.012   7.104   3.402
13811TIP3    H241375   3.893   7.036   3.466
13812TIP3   OH241376   5.517   6.016   1.651
13812TIP3    H141377   5.554   6.102   1.669
13812TIP3    H241378   5.556   5.990   1.568
13813TIP3   OH241379   6.793   3.041   2.694
13813TIP3    H141380   6.825   2.967   2.642
13813TIP3    H241381   6.838   3.033   2.778
13814TIP3   OH241382   4.622   5.337   3.128
13814TIP3    H141383   4.669   5.363   3.049
13814TIP3    H241384   4.645   5.245   3.141
13815TIP3   OH241385   4.676   4.461   1.466
13815TIP3    H141386   4.674   4.467   1.371
13815TIP3    H241387   4.722   4.379   1.485
13816TIP3   OH241388   2.636   0.119   6.736
13816TIP3    H141389   2.691   0.064   6.681
13816TIP3    H241390   2.663   0.099   6.826
13817TIP3   OH241391   0.757   1.588   1.995
13817TIP3    H141392   0.740   1.594   1.901
13817TIP3    H241393   0.705   1.658   2.034
13818TIP3   OH241394   6.246   2.094   5.738
13818TIP3    H141395   6.210   2.054   5.818
13818TIP3    H241396   6.204   2.180   5.734
13819TIP3   OH241397   8.351   5.208   5.772
13819TIP3    H141398   8.267   5.210   5.727
13819TIP3    H241399   8.331   5.180   5.861
13820TIP3   OH241400   7.598   1.768   0.116
13820TIP3    H141401   7.659   1.695   0.126
13820TIP3    H241402   7.538   1.740   0.047
13821TIP3   OH241403   3.596   6.979   4.386
13821TIP3    H141404   3.636   7.018   4.308
13821TIP3    H241405   3.630   7.031   4.459
13822TIP3   OH241406   7.930   7.189   3.282
13822TIP3    H141407   7.943   7.134   3.205
13822TIP3    H241408   7.926   7.127   3.355
13823TIP3   OH241409   1.667   5.154   1.898
13823TIP3    H141410   1.616   5.197   1.967
13823TIP3    H241411   1.727   5.098   1.946
13824TIP3   OH241412   8.010   2.863   2.415
13824TIP3    H141413   7.951   2.861   2.490
13824TIP3    H241414   8.046   2.775   2.410
13825TIP3   OH241415   4.936   0.976   3.767
13825TIP3    H141416   4.940   1.062   3.808
13825TIP3    H241417   4.866   0.983   3.702
13826TIP3   OH241418   5.636   5.730   2.643
13826TIP3    H141419   5.628   5.712   2.736
13826TIP3    H241420   5.694   5.806   2.638
13827TIP3   OH241421   8.328   5.901   1.709
13827TIP3    H141422   8.329   5.819   1.757
13827TIP3    H241423   8.285   5.963   1.768
13828TIP3   OH241424   1.375   4.642   1.789
13828TIP3    H141425   1.467   4.641   1.761
13828TIP3    H241426   1.338   4.719   1.745
13829TIP3   OH241427   3.405   2.650   4.176
13829TIP3    H141428   3.334   2.632   4.114
13829TIP3    H241429   3.475   2.686   4.122
13830TIP3   OH241430   7.075   2.748   5.959
13830TIP3    H141431   6.985   2.720   5.974
13830TIP3    H241432   7.106   2.693   5.887
13831TIP3   OH241433   5.594   1.799   4.801
13831TIP3    H141434   5.620   1.787   4.893
13831TIP3    H241435   5.498   1.802   4.804
13832TIP3   OH241436   7.838   1.057   6.096
13832TIP3    H141437   7.749   1.079   6.125
13832TIP3    H241438   7.873   1.139   6.060
13833TIP3   OH241439   7.167   3.757   4.582
13833TIP3    H141440   7.116   3.810   4.520
13833TIP3    H241441   7.138   3.787   4.668
13834TIP3   OH241442   2.706   0.268   2.772
13834TIP3    H141443   2.758   0.324   2.714
13834TIP3    H241444   2.637   0.232   2.715
13835TIP3   OH241445   4.981   2.026   5.945
13835TIP3    H141446   4.987   1.944   5.994
13835TIP3    H241447   4.999   2.094   6.009
13836TIP3   OH241448   7.162   0.716   0.489
13836TIP3    H141449   7.079   0.692   0.530
13836TIP3    H241450   7.218   0.744   0.562
13837TIP3   OH241451   2.077   0.509   2.457
13837TIP3    H141452   2.116   0.423   2.442
13837TIP3    H241453   2.151   0.570   2.454
13838TIP3   OH241454   6.258   0.145   6.410
13838TIP3    H141455   6.262   0.050   6.423
13838TIP3    H241456   6.312   0.161   6.333
13839TIP3   OH241457   5.601   7.027   4.965
13839TIP3    H141458   5.575   7.067   4.882
13839TIP3    H241459   5.584   6.933   4.953
13840TIP3   OH241460   3.421   0.616   0.488
13840TIP3    H141461   3.428   0.630   0.582
13840TIP3    H241462   3.483   0.547   0.468
13841TIP3   OH241463   6.968   2.338   0.748
13841TIP3    H141464   6.883   2.341   0.705
13841TIP3    H241465   7.031   2.362   0.680
13842TIP3   OH241466   7.384   4.522   5.124
13842TIP3    H141467   7.381   4.605   5.171
13842TIP3    H241468   7.411   4.458   5.191
13843TIP3   OH241469   7.288   5.664   1.834
13843TIP3    H141470   7.360   5.614   1.872
13843TIP3    H241471   7.272   5.623   1.749
13844TIP3   OH241472   5.138   2.098   3.111
13844TIP3    H141473   5.128   2.177   3.165
13844TIP3    H241474   5.149   2.027   3.175
13845TIP3   OH241475   7.446   5.520   1.306
13845TIP3    H141476   7.463   5.475   1.224
13845TIP3    H241477   7.404   5.603   1.280
13846TIP3   OH241478   7.191   3.493   6.701
13846TIP3    H141479   7.116   3.493   6.762
13846TIP3    H241480   7.241   3.415   6.725
13847TIP3   OH241481   4.484   3.628   6.168
13847TIP3    H141482   4.462   3.633   6.075
13847TIP3    H241483   4.512   3.717   6.190
13848TIP3   OH241484   5.189   6.657   3.695
13848TIP3    H141485   5.267   6.671   3.641
13848TIP3    H241486   5.124   6.717   3.659
13849TIP3   OH241487   2.625   0.631   2.338
13849TIP3    H141488   2.645   0.695   2.269
13849TIP3    H241489   2.689   0.561   2.324
13850TIP3   OH241490   7.847   1.383   6.161
13850TIP3    H141491   7.828   1.477   6.156
13850TIP3    H241492   7.818   1.357   6.248
13851TIP3   OH241493   5.648   1.285   4.734
13851TIP3    H141494   5.618   1.376   4.734
13851TIP3    H241495   5.572   1.235   4.764
13852TIP3   OH241496   6.735   5.936   1.156
13852TIP3    H141497   6.753   6.019   1.113
13852TIP3    H241498   6.821   5.898   1.173
13853TIP3   OH241499   3.534   1.462   4.594
13853TIP3    H141500   3.454   1.430   4.552
13853TIP3    H241501   3.550   1.547   4.554
13854TIP3   OH241502   3.899   4.779   4.469
13854TIP3    H141503   3.919   4.795   4.561
13854TIP3    H241504   3.873   4.687   4.466
13855TIP3   OH241505   5.641   2.741   3.105
13855TIP3    H141506   5.649   2.798   3.181
13855TIP3    H241507   5.730   2.711   3.087
13856TIP3   OH241508   4.479   6.247   1.308
13856TIP3    H141509   4.438   6.313   1.252
13856TIP3    H241510   4.497   6.174   1.249
13857TIP3   OH241511   0.914   2.397   6.552
13857TIP3    H141512   0.911   2.459   6.479
13857TIP3    H241513   0.829   2.354   6.550
13858TIP3   OH241514   8.284   0.127   6.466
13858TIP3    H141515   8.274   0.111   6.372
13858TIP3    H241516   8.229   0.060   6.507
13859TIP3   OH241517   6.781   2.431   6.198
13859TIP3    H141518   6.799   2.433   6.104
13859TIP3    H241519   6.697   2.386   6.206
13860TIP3   OH241520   0.449   3.338   1.558
13860TIP3    H141521   0.436   3.366   1.649
13860TIP3    H241522   0.544   3.344   1.545
13861TIP3   OH241523   5.178   5.188   3.269
13861TIP3    H141524   5.095   5.230   3.246
13861TIP3    H241525   5.244   5.251   3.243
13862TIP3   OH241526   5.906   6.256   2.866
13862TIP3    H141527   5.955   6.180   2.835
13862TIP3    H241528   5.828   6.219   2.907
13863TIP3   OH241529   5.806   7.354   4.039
13863TIP3    H141530   5.798   7.432   3.985
13863TIP3    H241531   5.885   7.369   4.092
13864TIP3   OH241532   5.808   7.170   0.315
13864TIP3    H141533   5.787   7.187   0.407
13864TIP3    H241534   5.899   7.198   0.306
13865TIP3   OH241535   3.268   1.968   5.659
13865TIP3    H141536   3.295   1.877   5.660
13865TIP3    H241537   3.226   1.982   5.744
13866TIP3   OH241538   2.028   3.100   4.282
13866TIP3    H141539   2.005   3.041   4.211
13866TIP3    H241540   2.122   3.116   4.271
13867TIP3   OH241541   3.717   2.200   0.636
13867TIP3    H141542   3.737   2.187   0.728
13867TIP3    H241543   3.802   2.203   0.592
13868TIP3   OH241544   7.197   7.076   4.682
13868TIP3    H141545   7.152   7.029   4.753
13868TIP3    H241546   7.194   7.168   4.708
13869TIP3   OH241547   1.679   6.491   1.505
13869TIP3    H141548   1.621   6.461   1.575
13869TIP3    H241549   1.679   6.419   1.442
13870TIP3   OH241550   0.899   4.956   2.204
13870TIP3    H141551   0.894   5.051   2.192
13870TIP3    H241552   0.811   4.925   2.184
13871TIP3   OH241553   5.539   2.903   1.929
13871TIP3    H141554   5.476   2.965   1.964
13871TIP3    H241555   5.613   2.906   1.990
13872TIP3   OH241556   0.613   4.397   1.777
13872TIP3    H141557   0.551   4.455   1.821
13872TIP3    H241558   0.683   4.455   1.746
13873TIP3   OH241559   7.233   6.516   2.504
13873TIP3    H141560   7.289   6.439   2.518
13873TIP3    H241561   7.240   6.533   2.410
13874TIP3   OH241562   5.736   6.261   2.223
13874TIP3    H141563   5.702   6.197   2.286
13874TIP3    H241564   5.659   6.309   2.193
13875TIP3   OH241565   7.995   4.400   0.189
13875TIP3    H141566   7.957   4.455   0.257
13875TIP3    H241567   8.040   4.330   0.237
13876TIP3   OH241568   6.587   3.300   6.380
13876TIP3    H141569   6.550   3.301   6.468
13876TIP3    H241570   6.680   3.283   6.394
13877TIP3   OH241571   7.204   3.948   5.867
13877TIP3    H141572   7.192   4.028   5.817
13877TIP3    H241573   7.278   3.904   5.825
13878TIP3   OH241574   2.682   5.601   3.485
13878TIP3    H141575   2.719   5.518   3.515
13878TIP3    H241576   2.710   5.665   3.551
13879TIP3   OH241577   4.126   1.648   5.516
13879TIP3    H141578   4.103   1.568   5.563
13879TIP3    H241579   4.113   1.718   5.580
13880TIP3   OH241580   0.790   3.510   3.789
13880TIP3    H141581   0.884   3.524   3.788
13880TIP3    H241582   0.752   3.596   3.776
13881TIP3   OH241583   4.692   7.724   6.598
13881TIP3    H141584   4.725   7.768   6.677
13881TIP3    H241585   4.685   7.793   6.533
13882TIP3   OH241586   0.942   6.621   1.729
13882TIP3    H141587   0.880   6.687   1.760
13882TIP3    H241588   0.976   6.657   1.646
13883TIP3   OH241589   2.464   6.285   1.297
13883TIP3    H141590   2.435   6.195   1.311
13883TIP3    H241591   2.559   6.279   1.291
13884TIP3   OH241592   4.582   5.930   2.711
13884TIP3    H141593   4.554   5.845   2.745
13884TIP3    H241594   4.569   5.924   2.617
13885TIP3   OH241595   1.012   7.821   4.294
13885TIP3    H141596   1.013   7.912   4.264
13885TIP3    H241597   0.986   7.826   4.386
13886TIP3   OH241598   7.907   5.304   1.658
13886TIP3    H141599   7.901   5.249   1.580
13886TIP3    H241600   7.937   5.389   1.624
13887TIP3   OH241601   3.722   3.392   1.586
13887TIP3    H141602   3.678   3.448   1.523
13887TIP3    H241603   3.689   3.304   1.567
13888TIP3   OH241604   5.719   5.991   4.981
13888TIP3    H141605   5.741   6.082   4.961
13888TIP3    H241606   5.689   5.954   4.898
13889TIP3   OH241607   6.105   5.592   1.481
13889TIP3    H141608   6.057   5.625   1.405
13889TIP3    H241609   6.106   5.665   1.542
13890TIP3   OH241610   4.906   7.749   4.013
13890TIP3    H141611   4.933   7.839   3.994
13890TIP3    H241612   4.824   7.758   4.062
13891TIP3   OH241613   7.251   2.759   2.963
13891TIP3    H141614   7.298   2.698   2.906
13891TIP3    H241615   7.160   2.729   2.962
13892TIP3   OH241616   4.985   5.186   0.430
13892TIP3    H141617   5.070   5.182   0.476
13892TIP3    H241618   5.005   5.161   0.340
13893TIP3   OH241619   5.600   4.754   2.448
13893TIP3    H141620   5.614   4.660   2.452
13893TIP3    H241621   5.670   4.787   2.391
13894TIP3   OH241622   1.245   5.092   0.400
13894TIP3    H141623   1.269   5.113   0.309
13894TIP3    H241624   1.250   4.997   0.404
13895TIP3   OH241625   1.531   6.681   1.870
13895TIP3    H141626   1.445   6.658   1.906
13895TIP3    H241627   1.523   6.661   1.777
13896TIP3   OH241628   6.128   2.731   5.625
13896TIP3    H141629   6.195   2.790   5.659
13896TIP3    H241630   6.167   2.692   5.547
13897TIP3   OH241631   4.870   2.755   6.459
13897TIP3    H141632   4.902   2.742   6.369
13897TIP3    H241633   4.821   2.676   6.479
13898TIP3   OH241634   0.421   2.617   0.634
13898TIP3    H141635   0.364   2.694   0.631
13898TIP3    H241636   0.453   2.609   0.544
13899TIP3   OH241637   3.784   1.919   1.935
13899TIP3    H141638   3.841   1.982   1.977
13899TIP3    H241639   3.806   1.835   1.976
13900TIP3   OH241640   5.500   6.968   0.998
13900TIP3    H141641   5.410   6.983   1.027
13900TIP3    H241642   5.536   7.056   0.985
13901TIP3   OH241643   2.292   5.418   6.472
13901TIP3    H141644   2.303   5.389   6.562
13901TIP3    H241645   2.310   5.512   6.474
13902TIP3   OH241646   1.037   3.337   2.026
13902TIP3    H141647   1.037   3.432   2.012
13902TIP3    H241648   1.101   3.303   1.963
13903TIP3   OH241649   7.730   3.639   0.767
13903TIP3    H141650   7.817   3.605   0.788
13903TIP3    H241651   7.699   3.584   0.695
13904TIP3   OH241652   2.945   4.205   6.784
13904TIP3    H141653   2.859   4.174   6.812
13904TIP3    H241654   2.927   4.284   6.734
13905TIP3   OH241655   5.720   6.649   4.190
13905TIP3    H141656   5.625   6.658   4.192
13905TIP3    H241657   5.736   6.556   4.206
13906TIP3   OH241658   4.409   7.609   2.990
13906TIP3    H141659   4.448   7.629   2.905
13906TIP3    H241660   4.468   7.544   3.028
13907TIP3   OH241661   6.200   6.670   2.974
13907TIP3    H141662   6.209   6.697   3.066
13907TIP3    H241663   6.105   6.667   2.959
13908TIP3   OH241664   0.375   6.819   3.090
13908TIP3    H141665   0.438   6.840   3.022
13908TIP3    H241666   0.377   6.723   3.096
13909TIP3   OH241667   4.222   2.250   2.179
13909TIP3    H141668   4.155   2.213   2.237
13909TIP3    H241669   4.193   2.339   2.163
13910TIP3   OH241670   2.252   0.740   5.800
13910TIP3    H141671   2.183   0.676   5.781
13910TIP3    H241672   2.303   0.745   5.720
13911TIP3   OH241673   5.201   6.954   1.040
13911TIP3    H141674   5.205   6.992   1.128
13911TIP3    H241675   5.203   7.030   0.981
13912TIP3   OH241676   5.808   2.427   5.505
13912TIP3    H141677   5.806   2.517   5.473
13912TIP3    H241678   5.901   2.407   5.517
13913TIP3   OH241679   6.803   6.644   1.980
13913TIP3    H141680   6.862   6.570   1.995
13913TIP3    H241681   6.725   6.623   2.032
13914TIP3   OH241682   4.578   4.582   3.321
13914TIP3    H141683   4.571   4.487   3.306
13914TIP3    H241684   4.671   4.599   3.326
13915TIP3   OH241685   0.311   0.531   4.171
13915TIP3    H141686   0.358   0.481   4.104
13915TIP3    H241687   0.365   0.609   4.184
13916TIP3   OH241688   3.320   6.523   4.605
13916TIP3    H141689   3.291   6.454   4.665
13916TIP3    H241690   3.277   6.602   4.637
13917TIP3   OH241691   4.142   1.732   4.642
13917TIP3    H141692   4.235   1.742   4.661
13917TIP3    H241693   4.101   1.721   4.728
13918TIP3   OH241694   7.302   6.731   4.569
13918TIP3    H141695   7.257   6.717   4.486
13918TIP3    H241696   7.390   6.696   4.555
13919TIP3   OH241697   3.077   2.926   0.784
13919TIP3    H141698   3.156   2.928   0.838
13919TIP3    H241699   3.109   2.935   0.694
13920TIP3   OH241700   3.730   7.629   0.132
13920TIP3    H141701   3.806   7.666   0.085
13920TIP3    H241702   3.732   7.536   0.112
13921TIP3   OH241703   7.183   4.397   4.549
13921TIP3    H141704   7.120   4.346   4.600
13921TIP3    H241705   7.131   4.466   4.509
13922TIP3   OH241706   2.331   0.879   1.996
13922TIP3    H141707   2.240   0.852   1.990
13922TIP3    H241708   2.348   0.887   2.090
13923TIP3   OH241709   3.295   4.415   5.922
13923TIP3    H141710   3.373   4.399   5.869
13923TIP3    H241711   3.328   4.435   6.009
13924TIP3   OH241712   4.029   2.179   5.135
13924TIP3    H141713   4.096   2.112   5.122
13924TIP3    H241714   4.078   2.255   5.166
13925TIP3   OH241715   0.122   6.460   0.344
13925TIP3    H141716   0.133   6.371   0.310
13925TIP3    H241717   0.120   6.516   0.267
13926TIP3   OH241718   4.325   1.660   5.311
13926TIP3    H141719   4.331   1.596   5.240
13926TIP3    H241720   4.279   1.614   5.381
13927TIP3   OH241721   4.845   5.738   3.900
13927TIP3    H141722   4.820   5.648   3.920
13927TIP3    H241723   4.802   5.758   3.817
13928TIP3   OH241724   6.420   0.577   3.571
13928TIP3    H141725   6.464   0.512   3.516
13928TIP3    H241726   6.454   0.661   3.541
13929TIP3   OH241727   4.079   1.146   2.085
13929TIP3    H141728   4.012   1.080   2.102
13929TIP3    H241729   4.041   1.228   2.116
13930TIP3   OH241730   0.890   6.924   4.758
13930TIP3    H141731   0.883   7.016   4.733
13930TIP3    H241732   0.948   6.885   4.693
13931TIP3   OH241733   5.338   1.928   2.128
13931TIP3    H141734   5.249   1.913   2.097
13931TIP3    H241735   5.330   2.003   2.187
13932TIP3   OH241736   5.524   7.926   5.264
13932TIP3    H141737   5.597   7.889   5.315
13932TIP3    H241738   5.526   7.879   5.181
13933TIP3   OH241739   3.588   6.142   1.602
13933TIP3    H141740   3.587   6.200   1.526
13933TIP3    H241741   3.509   6.088   1.592
13934TIP3   OH241742   1.069   7.757   5.720
13934TIP3    H141743   1.029   7.680   5.760
13934TIP3    H241744   1.003   7.790   5.659
13935TIP3   OH241745   3.766   4.798   3.698
13935TIP3    H141746   3.754   4.822   3.607
13935TIP3    H241747   3.678   4.788   3.733
13936TIP3   OH241748   1.815   6.274   0.794
13936TIP3    H141749   1.809   6.308   0.883
13936TIP3    H241750   1.896   6.222   0.794
13937TIP3   OH241751   6.206   5.002   6.316
13937TIP3    H141752   6.150   5.077   6.336
13937TIP3    H241753   6.294   5.039   6.305
13938TIP3   OH241754   2.307   2.458   1.653
13938TIP3    H141755   2.298   2.366   1.626
13938TIP3    H241756   2.401   2.470   1.666
13939TIP3   OH241757   8.252   0.799   0.023
13939TIP3    H141758   8.179   0.844   0.066
13939TIP3    H241759   8.317   0.867   0.009
13940TIP3   OH241760   0.344   1.177   5.211
13940TIP3    H141761   0.314   1.219   5.130
13940TIP3    H241762   0.326   1.084   5.197
13941TIP3   OH241763   4.844   5.409   4.804
13941TIP3    H141764   4.914   5.345   4.793
13941TIP3    H241765   4.834   5.449   4.718
13942TIP3   OH241766   6.047   6.804   1.975
13942TIP3    H141767   6.080   6.785   2.063
13942TIP3    H241768   6.084   6.735   1.920
13943TIP3   OH241769   0.935   1.780   0.625
13943TIP3    H141770   0.998   1.802   0.556
13943TIP3    H241771   0.979   1.805   0.706
13944TIP3   OH241772   7.959   5.577   1.653
13944TIP3    H141773   7.995   5.596   1.566
13944TIP3    H241774   7.883   5.634   1.660
13945TIP3   OH241775   7.370   7.018   0.986
13945TIP3    H141776   7.375   7.079   0.912
13945TIP3    H241777   7.317   6.945   0.953
13946TIP3   OH241778   4.238   2.311   4.819
13946TIP3    H141779   4.247   2.220   4.789
13946TIP3    H241780   4.271   2.363   4.745
13947TIP3   OH241781   0.094   0.816   0.248
13947TIP3    H141782   0.029   0.792   0.314
13947TIP3    H241783   0.102   0.738   0.193
13948TIP3   OH241784   6.119   4.813   6.518
13948TIP3    H141785   6.148   4.722   6.515
13948TIP3    H241786   6.156   4.853   6.439
13949TIP3   OH241787   1.566   3.961   3.229
13949TIP3    H141788   1.517   3.956   3.148
13949TIP3    H241789   1.523   3.898   3.287
13950TIP3   OH241790   5.954   6.274   6.298
13950TIP3    H141791   5.943   6.195   6.351
13950TIP3    H241792   5.865   6.309   6.290
13951TIP3   OH241793   7.519   0.208   0.628
13951TIP3    H141794   7.532   0.194   0.534
13951TIP3    H241795   7.553   0.297   0.643
13952TIP3   OH241796   3.484   2.169   1.703
13952TIP3    H141797   3.417   2.141   1.765
13952TIP3    H241798   3.561   2.186   1.757
13953TIP3   OH241799   0.286   0.141   5.480
13953TIP3    H141800   0.374   0.108   5.462
13953TIP3    H241801   0.231   0.063   5.482
13954TIP3   OH241802   3.476   0.472   1.598
13954TIP3    H141803   3.447   0.514   1.518
13954TIP3    H241804   3.493   0.544   1.659
13955TIP3   OH241805   7.768   4.399   3.758
13955TIP3    H141806   7.809   4.440   3.682
13955TIP3    H241807   7.842   4.378   3.816
13956TIP3   OH241808   7.270   0.689   6.111
13956TIP3    H141809   7.195   0.725   6.065
13956TIP3    H241810   7.342   0.696   6.049
13957TIP3   OH241811   7.587   3.122   3.624
13957TIP3    H141812   7.555   3.182   3.556
13957TIP3    H241813   7.618   3.046   3.576
13958TIP3   OH241814   6.798   7.731   1.222
13958TIP3    H141815   6.727   7.688   1.175
13958TIP3    H241816   6.878   7.697   1.180
13959TIP3   OH241817   7.113   2.227   5.576
13959TIP3    H141818   7.162   2.216   5.657
13959TIP3    H241819   7.171   2.279   5.520
13960TIP3   OH241820   0.359   2.518   5.813
13960TIP3    H141821   0.290   2.569   5.855
13960TIP3    H241822   0.314   2.467   5.746
13961TIP3   OH241823   0.357   1.827   4.231
13961TIP3    H141824   0.450   1.851   4.240
13961TIP3    H241825   0.313   1.911   4.215
13962TIP3   OH241826   0.441   4.620   1.846
13962TIP3    H141827   0.480   4.618   1.933
13962TIP3    H241828   0.352   4.654   1.861
13963TIP3   OH241829   3.377   0.806   2.878
13963TIP3    H141830   3.443   0.784   2.944
13963TIP3    H241831   3.421   0.868   2.820
13964TIP3   OH241832   4.587   7.830   3.516
13964TIP3    H141833   4.672   7.821   3.557
13964TIP3    H241834   4.587   7.765   3.446
13965TIP3   OH241835   5.057   5.016   6.768
13965TIP3    H141836   4.986   4.960   6.736
13965TIP3    H241837   5.136   4.977   6.732
13966TIP3   OH241838   2.502   0.701   1.593
13966TIP3    H141839   2.563   0.628   1.582
13966TIP3    H241840   2.540   0.753   1.664
13967TIP3   OH241841   2.546   5.180   6.639
13967TIP3    H141842   2.498   5.200   6.719
13967TIP3    H241843   2.619   5.125   6.667
13968TIP3   OH241844   1.175   3.371   0.524
13968TIP3    H141845   1.244   3.437   0.517
13968TIP3    H241846   1.125   3.398   0.601
13969TIP3   OH241847   0.710   4.692   1.247
13969TIP3    H141848   0.802   4.703   1.271
13969TIP3    H241849   0.709   4.705   1.152
13970TIP3   OH241850   4.132   7.393   5.423
13970TIP3    H141851   4.130   7.389   5.327
13970TIP3    H241852   4.199   7.331   5.448
13971TIP3   OH241853   7.794   0.473   1.549
13971TIP3    H141854   7.775   0.561   1.518
13971TIP3    H241855   7.884   0.479   1.582
13972TIP3   OH241856   1.713   2.955   5.094
13972TIP3    H141857   1.626   2.986   5.118
13972TIP3    H241858   1.772   3.027   5.118
13973TIP3   OH241859   2.339   6.375   2.081
13973TIP3    H141860   2.368   6.352   2.170
13973TIP3    H241861   2.273   6.443   2.095
13974TIP3   OH241862   5.820   6.317   0.002
13974TIP3    H141863   5.782   6.400   0.031
13974TIP3    H241864   5.834   6.268   0.083
13975TIP3   OH241865   3.555   3.040   2.534
13975TIP3    H141866   3.495   3.061   2.605
13975TIP3    H241867   3.508   3.065   2.455
13976TIP3   OH241868   4.887   7.406   5.458
13976TIP3    H141869   4.958   7.366   5.510
13976TIP3    H241870   4.931   7.440   5.380
13977TIP3   OH241871   2.071   2.442   2.995
13977TIP3    H141872   2.034   2.403   2.916
13977TIP3    H241873   2.165   2.429   2.986
13978TIP3   OH241874   7.661   2.312   6.664
13978TIP3    H141875   7.645   2.405   6.649
13978TIP3    H241876   7.577   2.278   6.695
13979TIP3   OH241877   8.113   1.880   4.813
13979TIP3    H141878   8.028   1.916   4.837
13979TIP3    H241879   8.095   1.823   4.738
13980TIP3   OH241880   5.924   5.418   5.440
13980TIP3    H141881   5.868   5.389   5.368
13980TIP3    H241882   5.869   5.476   5.492
13981TIP3   OH241883   4.814   7.832   2.109
13981TIP3    H141884   4.816   7.747   2.064
13981TIP3    H241885   4.890   7.830   2.167
13982TIP3   OH241886   7.805   0.187   1.497
13982TIP3    H141887   7.900   0.199   1.502
13982TIP3    H241888   7.793   0.102   1.454
13983TIP3   OH241889   3.586   5.563   4.155
13983TIP3    H141890   3.582   5.480   4.203
13983TIP3    H241891   3.502   5.568   4.108
13984TIP3   OH241892   3.563   3.627   2.737
13984TIP3    H141893   3.539   3.716   2.710
13984TIP3    H241894   3.615   3.639   2.816
13985TIP3   OH241895   3.907   4.139   1.766
13985TIP3    H141896   3.983   4.131   1.823
13985TIP3    H241897   3.921   4.072   1.698
13986TIP3   OH241898   1.617   4.409   2.580
13986TIP3    H141899   1.708   4.434   2.560
13986TIP3    H241900   1.618   4.393   2.674
13987TIP3   OH241901   6.778   4.241   5.742
13987TIP3    H141902   6.684   4.228   5.753
13987TIP3    H241903   6.814   4.153   5.734
13988TIP3   OH241904   6.943   4.141   0.322
13988TIP3    H141905   6.863   4.156   0.272
13988TIP3    H241906   7.002   4.098   0.261
13989TIP3   OH241907   1.615   1.289   0.134
13989TIP3    H141908   1.583   1.212   0.088
13989TIP3    H241909   1.591   1.362   0.078
13990TIP3   OH241910   7.675   1.206   3.509
13990TIP3    H141911   7.733   1.276   3.480
13990TIP3    H241912   7.719   1.169   3.586
13991TIP3   OH241913   4.962   6.715   5.970
13991TIP3    H141914   4.990   6.794   5.923
13991TIP3    H241915   4.868   6.725   5.980
13992TIP3   OH241916   6.754   7.164   0.137
13992TIP3    H141917   6.750   7.162   0.232
13992TIP3    H241918   6.817   7.233   0.117
13993TIP3   OH241919   6.746   2.203   0.595
13993TIP3    H141920   6.674   2.202   0.532
13993TIP3    H241921   6.768   2.111   0.608
13994TIP3   OH241922   7.046   0.641   3.926
13994TIP3    H141923   6.998   0.566   3.959
13994TIP3    H241924   6.979   0.708   3.911
13995TIP3   OH241925   4.296   6.989   2.657
13995TIP3    H141926   4.305   7.081   2.633
13995TIP3    H241927   4.360   6.976   2.727
13996TIP3   OH241928   7.451   6.078   5.844
13996TIP3    H141929   7.535   6.124   5.834
13996TIP3    H241930   7.426   6.093   5.935
13997TIP3   OH241931   7.722   6.396   5.959
13997TIP3    H141932   7.632   6.390   5.989
13997TIP3    H241933   7.724   6.345   5.878
13998TIP3   OH241934   3.743   3.736   2.928
13998TIP3    H141935   3.697   3.820   2.934
13998TIP3    H241936   3.771   3.718   3.017
13999TIP3   OH241937   4.720   0.729   4.839
13999TIP3    H141938   4.785   0.727   4.909
13999TIP3    H241939   4.746   0.802   4.783
14000TIP3   OH241940   6.383   5.580   0.809
14000TIP3    H141941   6.468   5.611   0.842
14000TIP3    H241942   6.395   5.575   0.714
14001TIP3   OH241943   2.795   7.280   0.980
14001TIP3    H141944   2.718   7.226   0.962
14001TIP3    H241945   2.831   7.243   1.061
14002TIP3   OH241946   7.824   4.469   1.394
14002TIP3    H141947   7.894   4.404   1.395
14002TIP3    H241948   7.778   4.454   1.312
14003TIP3   OH241949   1.484   3.272   0.540
14003TIP3    H141950   1.424   3.343   0.515
14003TIP3    H241951   1.429   3.211   0.590
14004TIP3   OH241952   5.614   0.557   2.456
14004TIP3    H141953   5.588   0.519   2.540
14004TIP3    H241954   5.612   0.651   2.471
14005TIP3   OH241955   1.404   5.341   0.344
14005TIP3    H141956   1.336   5.388   0.391
14005TIP3    H241957   1.393   5.250   0.371
14006TIP3   OH241958   4.033   0.318   3.748
14006TIP3    H141959   4.015   0.243   3.691
14006TIP3    H241960   3.991   0.296   3.831
14007TIP3   OH241961   8.118   7.893   1.139
14007TIP3    H141962   8.189   7.956   1.124
14007TIP3    H241963   8.162   7.810   1.154
14008TIP3   OH241964   2.534   1.253   3.340
14008TIP3    H141965   2.450   1.216   3.312
14008TIP3    H241966   2.564   1.304   3.265
14009TIP3   OH241967   0.515   4.336   3.350
14009TIP3    H141968   0.576   4.398   3.390
14009TIP3    H241969   0.488   4.379   3.268
14010TIP3   OH241970   4.853   6.757   3.836
14010TIP3    H141971   4.872   6.846   3.806
14010TIP3    H241972   4.814   6.714   3.761
14011TIP3   OH241973   7.826   1.649   4.029
14011TIP3    H141974   7.751   1.677   4.081
14011TIP3    H241975   7.793   1.642   3.939
14012TIP3   OH241976   0.939   6.094   4.767
14012TIP3    H141977   1.033   6.090   4.752
14012TIP3    H241978   0.925   6.047   4.849
14013TIP3   OH241979   2.359   5.633   5.690
14013TIP3    H141980   2.333   5.541   5.679
14013TIP3    H241981   2.454   5.630   5.701
14014TIP3   OH241982   0.496   1.554   3.891
14014TIP3    H141983   0.476   1.465   3.863
14014TIP3    H241984   0.585   1.549   3.925
14015TIP3   OH241985   8.269   7.174   6.382
14015TIP3    H141986   8.261   7.083   6.354
14015TIP3    H241987   8.259   7.225   6.302
14016TIP3   OH241988   4.289   3.494   6.518
14016TIP3    H141989   4.380   3.523   6.506
14016TIP3    H241990   4.295   3.419   6.577
14017TIP3   OH241991   0.287   6.908   3.728
14017TIP3    H141992   0.256   6.958   3.652
14017TIP3    H241993   0.310   6.823   3.692
14018TIP3   OH241994   4.500   7.829   0.607
14018TIP3    H141995   4.583   7.781   0.614
14018TIP3    H241996   4.516   7.893   0.537
14019TIP3   OH241997   3.475   5.322   0.353
14019TIP3    H141998   3.510   5.411   0.346
14019TIP3    H241999   3.550   5.265   0.337
14020TIP3   OH242000   5.773   7.809   2.988
14020TIP3    H142001   5.796   7.899   3.011
14020TIP3    H242002   5.821   7.792   2.907
14021TIP3   OH242003   3.861   0.096   0.619
14021TIP3    H142004   3.945   0.135   0.643
14021TIP3    H242005   3.796   0.163   0.640
14022TIP3   OH242006   3.943   1.139   1.751
14022TIP3    H142007   3.931   1.047   1.726
14022TIP3    H242008   4.031   1.162   1.720
14023TIP3   OH242009   2.517   7.258   5.508
14023TIP3    H142010   2.486   7.294   5.424
14023TIP3    H242011   2.447   7.277   5.569
14024TIP3   OH242012   6.853   5.658   6.678
14024TIP3    H142013   6.807   5.655   6.594
14024TIP3    H242014   6.939   5.695   6.657
14025TIP3   OH242015   2.185   6.817   0.508
14025TIP3    H142016   2.097   6.812   0.470
14025TIP3    H242017   2.195   6.735   0.557
14026TIP3   OH242018   8.217   2.222   4.073
14026TIP3    H142019   8.214   2.126   4.069
14026TIP3    H242020   8.303   2.244   4.036
14027TIP3   OH242021   6.048   6.056   0.818
14027TIP3    H142022   6.080   6.115   0.885
14027TIP3    H242023   6.125   6.005   0.791
14028TIP3   OH242024   7.194   4.674   2.141
14028TIP3    H142025   7.240   4.593   2.158
14028TIP3    H242026   7.248   4.719   2.076
14029TIP3   OH242027   4.160   3.590   5.136
14029TIP3    H142028   4.072   3.609   5.169
14029TIP3    H242029   4.175   3.499   5.163
14030TIP3   OH242030   0.739   0.640   1.762
14030TIP3    H142031   0.756   0.617   1.671
14030TIP3    H242032   0.773   0.566   1.813
14031TIP3   OH242033   6.689   5.787   2.842
14031TIP3    H142034   6.643   5.794   2.758
14031TIP3    H242035   6.772   5.744   2.820
14032TIP3   OH242036   7.951   4.801   6.018
14032TIP3    H142037   7.893   4.731   6.047
14032TIP3    H242038   7.897   4.855   5.961
14033TIP3   OH242039   3.315   1.294   4.525
14033TIP3    H142040   3.321   1.300   4.430
14033TIP3    H242041   3.321   1.200   4.543
14034TIP3   OH242042   1.839   5.313   5.890
14034TIP3    H142043   1.835   5.367   5.969
14034TIP3    H242044   1.748   5.289   5.873
14035TIP3   OH242045   3.967   3.472   2.901
14035TIP3    H142046   3.941   3.515   2.983
14035TIP3    H242047   3.900   3.498   2.838
14036TIP3   OH242048   8.334   6.606   2.345
14036TIP3    H142049   8.334   6.606   2.441
14036TIP3    H242050   8.413   6.655   2.321
14037TIP3   OH242051   5.628   5.649   4.292
14037TIP3    H142052   5.707   5.613   4.333
14037TIP3    H242053   5.557   5.597   4.330
14038TIP3   OH242054   7.662   1.209   0.385
14038TIP3    H142055   7.698   1.160   0.459
14038TIP3    H242056   7.567   1.209   0.400
14039TIP3   OH242057   6.394   4.458   0.840
14039TIP3    H142058   6.330   4.415   0.896
14039TIP3    H242059   6.384   4.414   0.755
14040TIP3   OH242060   4.432   2.904   3.055
14040TIP3    H142061   4.425   2.952   2.972
14040TIP3    H242062   4.425   2.812   3.031
14041TIP3   OH242063   4.947   6.313   2.813
14041TIP3    H142064   4.863   6.277   2.783
14041TIP3    H242065   4.927   6.402   2.841
14042TIP3   OH242066   1.760   6.695   5.235
14042TIP3    H142067   1.688   6.738   5.189
14042TIP3    H242068   1.721   6.661   5.315
14043TIP3   OH242069   7.087   4.980   2.039
14043TIP3    H142070   7.043   4.984   2.124
14043TIP3    H242071   7.139   5.060   2.035
14044TIP3   OH242072   3.538   7.379   0.317
14044TIP3    H142073   3.633   7.384   0.328
14044TIP3    H242074   3.511   7.307   0.374
14045TIP3   OH242075   4.471   6.039   4.407
14045TIP3    H142076   4.531   5.980   4.452
14045TIP3    H242077   4.398   5.983   4.380
14046TIP3   OH242078   1.348   3.456   2.156
14046TIP3    H142079   1.325   3.402   2.231
14046TIP3    H242080   1.429   3.501   2.181
14047TIP3   OH242081   1.951   7.136   5.814
14047TIP3    H142082   1.926   7.195   5.885
14047TIP3    H242083   1.926   7.049   5.844
14048TIP3   OH242084   3.286   6.307   2.889
14048TIP3    H142085   3.244   6.232   2.930
14048TIP3    H242086   3.354   6.269   2.834
14049TIP3   OH242087   3.935   0.576   3.696
14049TIP3    H142088   4.022   0.560   3.659
14049TIP3    H242089   3.911   0.494   3.739
14050TIP3   OH242090   0.530   1.645   5.443
14050TIP3    H142091   0.468   1.573   5.432
14050TIP3    H242092   0.612   1.602   5.466
14051TIP3   OH242093   7.541   6.727   3.430
14051TIP3    H142094   7.523   6.679   3.510
14051TIP3    H242095   7.537   6.819   3.456
14052TIP3   OH242096   6.152   3.798   5.275
14052TIP3    H142097   6.220   3.815   5.340
14052TIP3    H242098   6.181   3.719   5.231
14053TIP3   OH242099   0.010   6.752   2.830
14053TIP3    H142100   0.023   6.815   2.901
14053TIP3    H242101  -0.006   6.669   2.875
14054TIP3   OH242102   8.302   5.988   2.135
14054TIP3    H142103   8.323   6.033   2.217
14054TIP3    H242104   8.353   5.907   2.139
14055TIP3   OH242105   4.970   4.436   1.320
14055TIP3    H142106   4.974   4.496   1.246
14055TIP3    H242107   5.046   4.379   1.310
14056TIP3   OH242108   0.275   0.265   2.904
14056TIP3    H142109   0.269   0.262   2.809
14056TIP3    H242110   0.359   0.224   2.925
14057TIP3   OH242111   4.028   1.491   4.589
14057TIP3    H142112   4.114   1.529   4.604
14057TIP3    H242113   3.967   1.562   4.606
14058TIP3   OH242114   7.181   5.711   5.792
14058TIP3    H142115   7.193   5.762   5.712
14058TIP3    H242116   7.267   5.672   5.809
14059TIP3   OH242117   6.817   0.172   5.156
14059TIP3    H142118   6.899   0.123   5.147
14059TIP3    H242119   6.845   0.262   5.177
14060TIP3   OH242120   0.883   0.713   5.116
14060TIP3    H142121   0.837   0.691   5.035
14060TIP3    H242122   0.967   0.667   5.109
14061TIP3   OH242123   0.287   3.948   6.698
14061TIP3    H142124   0.256   3.952   6.788
14061TIP3    H242125   0.215   3.983   6.646
14062TIP3   OH242126   5.692   7.471   2.197
14062TIP3    H142127   5.742   7.529   2.139
14062TIP3    H242128   5.659   7.528   2.266
14063TIP3   OH242129   5.185   0.378   0.702
14063TIP3    H142130   5.214   0.297   0.744
14063TIP3    H242131   5.203   0.446   0.767
14064TIP3   OH242132   7.550   5.325   5.640
14064TIP3    H142133   7.544   5.319   5.545
14064TIP3    H242134   7.469   5.285   5.672
14065TIP3   OH242135   7.486   0.710   0.676
14065TIP3    H142136   7.460   0.799   0.653
14065TIP3    H242137   7.447   0.694   0.762
14066TIP3   OH242138   1.553   2.787   3.532
14066TIP3    H142139   1.544   2.863   3.589
14066TIP3    H242140   1.635   2.746   3.559
14067TIP3   OH242141   7.008   1.548   5.119
14067TIP3    H142142   6.957   1.557   5.038
14067TIP3    H242143   7.014   1.453   5.133
14068TIP3   OH242144   5.469   4.037   2.800
14068TIP3    H142145   5.482   3.943   2.796
14068TIP3    H242146   5.555   4.073   2.822
14069TIP3   OH242147   4.005   6.308   2.860
14069TIP3    H142148   4.031   6.349   2.778
14069TIP3    H242149   4.025   6.374   2.927
14070TIP3   OH242150   5.899   2.655   5.367
14070TIP3    H142151   5.962   2.726   5.350
14070TIP3    H242152   5.816   2.690   5.336
14071TIP3   OH242153   2.183   2.543   6.429
14071TIP3    H142154   2.239   2.508   6.497
14071TIP3    H242155   2.215   2.504   6.348
14072TIP3   OH242156   4.556   2.711   1.349
14072TIP3    H142157   4.577   2.801   1.323
14072TIP3    H242158   4.498   2.721   1.425
14073TIP3   OH242159   0.401   0.755   4.683
14073TIP3    H142160   0.364   0.843   4.681
14073TIP3    H242161   0.495   0.768   4.698
14074TIP3   OH242162   4.714   7.003   4.545
14074TIP3    H142163   4.675   7.090   4.538
14074TIP3    H242164   4.759   6.990   4.462
14075TIP3   OH242165   6.776   0.812   4.924
14075TIP3    H142166   6.719   0.823   5.001
14075TIP3    H242167   6.726   0.851   4.852
14076TIP3   OH242168   1.180   6.868   1.071
14076TIP3    H142169   1.118   6.808   1.029
14076TIP3    H242170   1.134   6.900   1.149
14077TIP3   OH242171   7.917   6.979   2.494
14077TIP3    H142172   7.923   6.893   2.452
14077TIP3    H242173   7.829   7.009   2.475
14078TIP3   OH242174   7.100   3.350   1.480
14078TIP3    H142175   7.192   3.325   1.469
14078TIP3    H242176   7.052   3.274   1.447
14079TIP3   OH242177   1.919   1.625   6.516
14079TIP3    H142178   1.906   1.665   6.602
14079TIP3    H242179   1.880   1.538   6.524
14080TIP3   OH242180   8.063   5.953   5.164
14080TIP3    H142181   7.989   5.953   5.102
14080TIP3    H242182   8.056   5.869   5.208
14081TIP3   OH242183   0.638   6.655   5.101
14081TIP3    H142184   0.563   6.635   5.044
14081TIP3    H242185   0.693   6.713   5.050
14082TIP3   OH242186   1.558   1.218   5.589
14082TIP3    H142187   1.478   1.258   5.624
14082TIP3    H242188   1.612   1.292   5.561
14083TIP3   OH242189   0.933   4.593   5.272
14083TIP3    H142190   0.943   4.548   5.188
14083TIP3    H242191   0.887   4.674   5.250
14084TIP3   OH242192   1.127   4.127   5.496
14084TIP3    H142193   1.035   4.139   5.518
14084TIP3    H242194   1.141   4.032   5.501
14085TIP3   OH242195   1.306   5.820   3.761
14085TIP3    H142196   1.390   5.797   3.801
14085TIP3    H242197   1.311   5.915   3.748
14086TIP3   OH242198   6.391   1.619   1.033
14086TIP3    H142199   6.423   1.669   0.958
14086TIP3    H242200   6.466   1.611   1.091
14087TIP3   OH242201   4.090   1.939   4.420
14087TIP3    H142202   4.114   1.859   4.468
14087TIP3    H242203   3.995   1.946   4.430
14088TIP3   OH242204   4.400   1.467   5.548
14088TIP3    H142205   4.441   1.542   5.592
14088TIP3    H242206   4.409   1.395   5.610
14089TIP3   OH242207   7.433   7.127   0.020
14089TIP3    H142208   7.462   7.107  -0.069
14089TIP3    H242209   7.400   7.217   0.014
14090TIP3   OH242210   6.219   0.826   3.649
14090TIP3    H142211   6.268   0.907   3.662
14090TIP3    H242212   6.262   0.785   3.574
14091TIP3   OH242213   3.275   6.383   0.047
14091TIP3    H142214   3.317   6.339  -0.028
14091TIP3    H242215   3.285   6.321   0.119
14092TIP3   OH242216   1.526   0.021   1.513
14092TIP3    H142217   1.544   0.106   1.555
14092TIP3    H242218   1.590   0.015   1.442
14093TIP3   OH242219   3.657   1.611   6.363
14093TIP3    H142220   3.739   1.652   6.391
14093TIP3    H242221   3.597   1.685   6.352
14094TIP3   OH242222   5.858   2.450   6.005
14094TIP3    H142223   5.889   2.490   6.087
14094TIP3    H242224   5.918   2.483   5.939
14095TIP3   OH242225   7.638   6.712   3.778
14095TIP3    H142226   7.661   6.803   3.795
14095TIP3    H242227   7.722   6.667   3.766
14096TIP3   OH242228   2.535   5.842   6.058
14096TIP3    H142229   2.554   5.853   6.151
14096TIP3    H242230   2.514   5.750   6.048
14097TIP3   OH242231   7.552   6.918   1.208
14097TIP3    H142232   7.471   6.960   1.178
14097TIP3    H242233   7.523   6.841   1.255
14098TIP3   OH242234   5.235   6.218   2.331
14098TIP3    H142235   5.273   6.145   2.282
14098TIP3    H242236   5.216   6.182   2.417
14099TIP3   OH242237   5.837   1.179   4.301
14099TIP3    H142238   5.850   1.218   4.215
14099TIP3    H242239   5.791   1.246   4.351
14100TIP3   OH242240   3.965   6.601   0.621
14100TIP3    H142241   4.051   6.638   0.644
14100TIP3    H242242   3.987   6.521   0.573
14101TIP3   OH242243   3.359  -0.012   1.356
14101TIP3    H142244   3.276  -0.056   1.377
14101TIP3    H242245   3.333   0.077   1.330
14102TIP3   OH242246   2.057   3.311   1.249
14102TIP3    H142247   2.055   3.215   1.246
14102TIP3    H242248   2.094   3.337   1.165
14103TIP3   OH242249   1.085   5.548   3.136
14103TIP3    H142250   1.102   5.609   3.207
14103TIP3    H242251   0.996   5.517   3.152
14104TIP3   OH242252   5.293   6.466   1.627
14104TIP3    H142253   5.377   6.492   1.663
14104TIP3    H242254   5.232   6.471   1.701
14105TIP3   OH242255   3.923   0.175   2.889
14105TIP3    H142256   3.996   0.141   2.836
14105TIP3    H242257   3.926   0.270   2.875
14106TIP3   OH242258   2.733   6.133   6.753
14106TIP3    H142259   2.729   6.052   6.702
14106TIP3    H242260   2.803   6.183   6.712
14107TIP3   OH242261   4.910   4.618   1.567
14107TIP3    H142262   4.864   4.599   1.486
14107TIP3    H242263   4.842   4.618   1.634
14108TIP3   OH242264   1.790   5.714   2.824
14108TIP3    H142265   1.715   5.754   2.868
14108TIP3    H242266   1.864   5.773   2.843
14109TIP3   OH242267   1.426   6.587   5.492
14109TIP3    H142268   1.335   6.583   5.464
14109TIP3    H242269   1.428   6.538   5.574
14110TIP3   OH242270   1.955   0.238   4.774
14110TIP3    H142271   1.943   0.153   4.733
14110TIP3    H242272   1.870   0.281   4.768
14111TIP3   OH242273   7.436   2.067   5.475
14111TIP3    H142274   7.366   2.104   5.421
14111TIP3    H242275   7.498   2.029   5.412
14112TIP3   OH242276   7.199   0.856   2.401
14112TIP3    H142277   7.226   0.801   2.328
14112TIP3    H242278   7.280   0.876   2.447
14113TIP3   OH242279   8.270   2.144   4.834
14113TIP3    H142280   8.197   2.083   4.843
14113TIP3    H242281   8.229   2.227   4.809
14114TIP3   OH242282   3.754   3.980   0.551
14114TIP3    H142283   3.813   3.971   0.476
14114TIP3    H242284   3.800   4.038   0.612
14115TIP3   OH242285   6.992   0.967   5.001
14115TIP3    H142286   6.916   0.909   4.997
14115TIP3    H242287   6.955   1.055   5.008
14116TIP3   OH242288   3.815   0.955   6.215
14116TIP3    H142289   3.880   1.024   6.213
14116TIP3    H242290   3.746   0.985   6.155
14117TIP3   OH242291   6.629   5.918   4.845
14117TIP3    H142292   6.573   5.965   4.908
14117TIP3    H242293   6.681   5.859   4.900
14118TIP3   OH242294   4.126   2.080   3.413
14118TIP3    H142295   4.193   2.119   3.470
14118TIP3    H242296   4.099   2.000   3.460
14119TIP3   OH242297   2.583   6.047   2.834
14119TIP3    H142298   2.600   6.126   2.886
14119TIP3    H242299   2.638   5.980   2.873
14120TIP3   OH242300   5.538   0.311   0.639
14120TIP3    H142301   5.487   0.311   0.721
14120TIP3    H242302   5.614   0.367   0.659
14121TIP3   OH242303   2.367   6.619   2.439
14121TIP3    H142304   2.414   6.647   2.360
14121TIP3    H242305   2.421   6.551   2.477
14122TIP3   OH242306   0.139   1.592   1.839
14122TIP3    H142307   0.155   1.508   1.796
14122TIP3    H242308   0.225   1.632   1.848
14123TIP3   OH242309   6.553   4.409   1.368
14123TIP3    H142310   6.529   4.498   1.343
14123TIP3    H242311   6.494   4.388   1.441
14124TIP3   OH242312   7.249   2.285   2.333
14124TIP3    H142313   7.190   2.350   2.371
14124TIP3    H242314   7.207   2.201   2.353
14125TIP3   OH242315   2.051   4.000   2.427
14125TIP3    H142316   2.045   4.096   2.425
14125TIP3    H242317   1.960   3.970   2.428
14126TIP3   OH242318   1.528   0.953   2.145
14126TIP3    H142319   1.604   0.937   2.201
14126TIP3    H242320   1.564   0.996   2.067
14127TIP3   OH242321   6.680   3.127   0.607
14127TIP3    H142322   6.608   3.065   0.612
14127TIP3    H242323   6.704   3.143   0.698
14128TIP3   OH242324   3.672   5.738   3.124
14128TIP3    H142325   3.612   5.707   3.056
14128TIP3    H242326   3.757   5.704   3.097
14129TIP3   OH242327   4.305   2.202   6.354
14129TIP3    H142328   4.272   2.179   6.267
14129TIP3    H242329   4.264   2.139   6.413
14130TIP3   OH242330   0.540   2.142   4.069
14130TIP3    H142331   0.460   2.142   4.122
14130TIP3    H242332   0.593   2.070   4.105
14131TIP3   OH242333   0.382   5.196   5.118
14131TIP3    H142334   0.302   5.176   5.165
14131TIP3    H242335   0.353   5.215   5.029
14132TIP3   OH242336   2.828   3.710   5.299
14132TIP3    H142337   2.834   3.662   5.381
14132TIP3    H242338   2.899   3.774   5.304
14133TIP3   OH242339   4.307   6.913   0.403
14133TIP3    H142340   4.382   6.939   0.350
14133TIP3    H242341   4.293   6.987   0.463
14134TIP3   OH242342   2.373   0.999   4.563
14134TIP3    H142343   2.429   1.039   4.497
14134TIP3    H242344   2.430   0.937   4.608
14135TIP3   OH242345   3.866   0.806   0.057
14135TIP3    H142346   3.960   0.815   0.075
14135TIP3    H242347   3.823   0.844   0.133
14136TIP3   OH242348   4.530   6.100   6.007
14136TIP3    H142349   4.602   6.041   5.988
14136TIP3    H242350   4.536   6.169   5.940
14137TIP3   OH242351   8.248   1.894   0.972
14137TIP3    H142352   8.158   1.864   0.983
14137TIP3    H242353   8.259   1.903   0.877
14138TIP3   OH242354   4.905   2.132   1.027
14138TIP3    H142355   4.950   2.188   0.964
14138TIP3    H242356   4.812   2.149   1.011
14139TIP3   OH242357   5.183   3.098   2.383
14139TIP3    H142358   5.187   3.019   2.437
14139TIP3    H242359   5.090   3.104   2.358
14140TIP3   OH242360   1.946   4.610   2.278
14140TIP3    H142361   2.039   4.588   2.284
14140TIP3    H242362   1.925   4.648   2.362
14141TIP3   OH242363   4.805   1.224   2.598
14141TIP3    H142364   4.813   1.220   2.693
14141TIP3    H242365   4.720   1.265   2.582
14142TIP3   OH242366   5.495   1.157   4.408
14142TIP3    H142367   5.520   1.121   4.323
14142TIP3    H242368   5.477   1.249   4.390
14143TIP3   OH242369   8.242   5.226   1.629
14143TIP3    H142370   8.194   5.271   1.698
14143TIP3    H242371   8.231   5.133   1.649
14144TIP3   OH242372   7.720   5.466   5.788
14144TIP3    H142373   7.658   5.407   5.745
14144TIP3    H242374   7.777   5.496   5.717
14145TIP3   OH242375   4.395   1.575   4.616
14145TIP3    H142376   4.402   1.635   4.691
14145TIP3    H242377   4.414   1.629   4.540
14146TIP3   OH242378   3.395   0.918   2.148
14146TIP3    H142379   3.306   0.896   2.176
14146TIP3    H242380   3.384   0.993   2.090
14147TIP3   OH242381   5.309   5.339   3.940
14147TIP3    H142382   5.364   5.417   3.941
14147TIP3    H242383   5.354   5.277   3.998
14148TIP3   OH242384   6.913   7.103   3.829
14148TIP3    H142385   6.917   7.169   3.898
14148TIP3    H242386   6.824   7.110   3.794
14149TIP3   OH242387   3.696   0.887   3.734
14149TIP3    H142388   3.620   0.936   3.703
14149TIP3    H242389   3.719   0.928   3.817
14150TIP3   OH242390   6.772   1.711   5.266
14150TIP3    H142391   6.737   1.627   5.296
14150TIP3    H242392   6.776   1.703   5.171
14151TIP3   OH242393   6.085   7.442   3.862
14151TIP3    H142394   6.158   7.442   3.924
14151TIP3    H242395   6.048   7.354   3.869
14152TIP3   OH242396   6.259   0.073   3.229
14152TIP3    H142397   6.324   0.124   3.180
14152TIP3    H242398   6.275  -0.018   3.204
14153TIP3   OH242399   2.523   0.075   0.271
14153TIP3    H142400   2.440   0.068   0.224
14153TIP3    H242401   2.557   0.161   0.247
14154TIP3   OH242402   2.716   4.909   3.009
14154TIP3    H142403   2.623   4.911   3.032
14154TIP3    H242404   2.727   4.826   2.963
14155TIP3   OH242405   4.382   3.101   2.847
14155TIP3    H142406   4.416   3.062   2.767
14155TIP3    H242407   4.421   3.189   2.850
14156TIP3   OH242408   4.157   5.252   6.739
14156TIP3    H142409   4.102   5.174   6.744
14156TIP3    H242410   4.246   5.218   6.731
14157TIP3   OH242411   4.388   7.276   5.440
14157TIP3    H142412   4.442   7.348   5.474
14157TIP3    H242413   4.442   7.234   5.374
14158TIP3   OH242414   5.035   2.549   1.914
14158TIP3    H142415   5.070   2.515   1.832
14158TIP3    H242416   5.072   2.637   1.922
14159TIP3   OH242417   8.347   2.538   3.241
14159TIP3    H142418   8.267   2.532   3.293
14159TIP3    H242419   8.348   2.457   3.190
14160TIP3   OH242420   3.772   6.706   4.422
14160TIP3    H142421   3.677   6.718   4.432
14160TIP3    H242422   3.781   6.620   4.381
14161TIP3   OH242423   6.002   7.064   0.653
14161TIP3    H142424   5.951   7.059   0.734
14161TIP3    H242425   6.017   6.973   0.628
14162TIP3   OH242426   2.801   5.330   1.238
14162TIP3    H142427   2.852   5.384   1.298
14162TIP3    H242428   2.866   5.284   1.185
14163TIP3   OH242429   6.231   1.988   2.834
14163TIP3    H142430   6.223   2.017   2.925
14163TIP3    H242431   6.142   1.994   2.799
14164TIP3   OH242432   8.177   5.783   4.298
14164TIP3    H142433   8.149   5.842   4.229
14164TIP3    H242434   8.097   5.739   4.327
14165TIP3   OH242435   0.850   5.828   5.374
14165TIP3    H142436   0.832   5.883   5.451
14165TIP3    H242437   0.913   5.879   5.322
14166TIP3   OH242438   2.166   4.468   1.640
14166TIP3    H142439   2.128   4.381   1.638
14166TIP3    H242440   2.100   4.523   1.683
14167TIP3   OH242441   7.615   3.190   1.853
14167TIP3    H142442   7.661   3.107   1.854
14167TIP3    H242443   7.645   3.236   1.932
14168TIP3   OH242444   4.117   6.269   3.690
14168TIP3    H142445   4.146   6.264   3.781
14168TIP3    H242446   4.198   6.284   3.641
14169TIP3   OH242447   1.153   6.354   1.778
14169TIP3    H142448   1.133   6.348   1.684
14169TIP3    H242449   1.193   6.270   1.799
14170TIP3   OH242450   0.770   3.874   1.002
14170TIP3    H142451   0.727   3.928   1.068
14170TIP3    H242452   0.826   3.814   1.053
14171TIP3   OH242453   7.323   6.491   0.702
14171TIP3    H142454   7.292   6.401   0.701
14171TIP3    H242455   7.373   6.499   0.783
14172TIP3   OH242456   5.308   7.631   5.148
14172TIP3    H142457   5.289   7.591   5.063
14172TIP3    H242458   5.325   7.723   5.128
14173TIP3   OH242459   0.444   0.561   6.112
14173TIP3    H142460   0.525   0.605   6.084
14173TIP3    H242461   0.376   0.628   6.100
14174TIP3   OH242462   2.279   0.323   6.257
14174TIP3    H142463   2.257   0.229   6.264
14174TIP3    H242464   2.238   0.351   6.175
14175TIP3   OH242465   6.290   6.039   2.231
14175TIP3    H142466   6.295   6.126   2.271
14175TIP3    H242467   6.282   6.056   2.137
14176TIP3   OH242468   0.421   2.661   4.307
14176TIP3    H142469   0.397   2.578   4.348
14176TIP3    H242470   0.438   2.720   4.380
14177TIP3   OH242471   4.199   6.400   5.683
14177TIP3    H142472   4.165   6.394   5.593
14177TIP3    H242473   4.229   6.490   5.691
14178TIP3   OH242474   1.997   4.850   1.200
14178TIP3    H142475   1.907   4.863   1.230
14178TIP3    H242476   2.051   4.892   1.267
14179TIP3   OH242477   5.412   5.349   5.223
14179TIP3    H142478   5.382   5.273   5.174
14179TIP3    H242479   5.346   5.416   5.206
14180TIP3   OH242480   4.310   4.707   1.316
14180TIP3    H142481   4.404   4.710   1.298
14180TIP3    H242482   4.281   4.625   1.277
14181TIP3   OH242483   3.262   1.394   0.034
14181TIP3    H142484   3.170   1.367   0.039
14181TIP3    H242485   3.311   1.312   0.032
14182TIP3   OH242486   0.998   3.843   3.203
14182TIP3    H142487   0.962   3.796   3.128
14182TIP3    H242488   1.016   3.931   3.170
14183TIP3   OH242489   0.717   6.409   3.082
14183TIP3    H142490   0.637   6.438   3.038
14183TIP3    H242491   0.788   6.449   3.031
14184TIP3   OH242492   1.621   1.924   1.781
14184TIP3    H142493   1.699   1.978   1.767
14184TIP3    H242494   1.612   1.873   1.701
14185TIP3   OH242495   3.227   0.766   1.387
14185TIP3    H142496   3.186   0.806   1.310
14185TIP3    H242497   3.221   0.833   1.455
14186TIP3   OH242498   6.533   6.572   6.724
14186TIP3    H142499   6.571   6.530   6.801
14186TIP3    H242500   6.579   6.533   6.650
14187TIP3   OH242501   7.169   5.706   1.114
14187TIP3    H142502   7.191   5.788   1.158
14187TIP3    H242503   7.245   5.687   1.059
14188TIP3   OH242504   6.100   2.632   3.734
14188TIP3    H142505   6.071   2.714   3.775
14188TIP3    H242506   6.112   2.572   3.807
14189TIP3   OH242507   2.478   2.720   3.393
14189TIP3    H142508   2.468   2.644   3.335
14189TIP3    H242509   2.567   2.714   3.426
14190TIP3   OH242510   6.738   0.043   6.578
14190TIP3    H142511   6.674  -0.003   6.523
14190TIP3    H242512   6.711   0.135   6.574
14191TIP3   OH242513   6.378   1.223   6.500
14191TIP3    H142514   6.431   1.151   6.533
14191TIP3    H242515   6.288   1.192   6.508
14192TIP3   OH242516   0.786   7.407   3.321
14192TIP3    H142517   0.724   7.361   3.263
14192TIP3    H242518   0.739   7.486   3.348
14193TIP3   OH242519   4.103   1.690   3.531
14193TIP3    H142520   4.069   1.637   3.459
14193TIP3    H242521   4.136   1.627   3.594
14194TIP3   OH242522   4.866   7.748   0.495
14194TIP3    H142523   4.804   7.680   0.522
14194TIP3    H242524   4.864   7.747   0.400
14195TIP3   OH242525   1.326   0.933   5.786
14195TIP3    H142526   1.245   0.976   5.756
14195TIP3    H242527   1.383   0.933   5.710
14196TIP3   OH242528   0.173   7.176   3.148
14196TIP3    H142529   0.197   7.090   3.183
14196TIP3    H242530   0.077   7.176   3.150
14197TIP3   OH242531   1.845   7.838   4.904
14197TIP3    H142532   1.808   7.920   4.935
14197TIP3    H242533   1.940   7.851   4.909
14198TIP3   OH242534   8.229   1.566   4.318
14198TIP3    H142535   8.271   1.505   4.259
14198TIP3    H242536   8.155   1.517   4.355
14199TIP3   OH242537   1.023   6.460   2.304
14199TIP3    H142538   0.937   6.444   2.343
14199TIP3    H242539   1.021   6.415   2.219
14200TIP3   OH242540   1.151   3.946   6.251
14200TIP3    H142541   1.177   3.927   6.341
14200TIP3    H242542   1.228   3.924   6.198
14201TIP3   OH242543   0.794   1.159   1.898
14201TIP3    H142544   0.846   1.087   1.935
14201TIP3    H242545   0.772   1.214   1.974
14202TIP3   OH242546   5.947   4.428   0.266
14202TIP3    H142547   5.905   4.344   0.249
14202TIP3    H242548   5.969   4.462   0.179
14203TIP3   OH242549   7.134   5.896   5.583
14203TIP3    H142550   7.201   5.957   5.553
14203TIP3    H242551   7.073   5.890   5.509
14204TIP3   OH242552   1.229   0.705   0.909
14204TIP3    H142553   1.278   0.624   0.923
14204TIP3    H242554   1.188   0.694   0.823
14205TIP3   OH242555   1.021   1.895   1.994
14205TIP3    H142556   1.014   1.863   2.084
14205TIP3    H242557   0.941   1.947   1.981
14206TIP3   OH242558   0.442   1.804   2.825
14206TIP3    H142559   0.412   1.887   2.863
14206TIP3    H242560   0.372   1.778   2.766
14207TIP3   OH242561   4.050   4.534   2.780
14207TIP3    H142562   3.965   4.509   2.815
14207TIP3    H242563   4.113   4.484   2.832
14208TIP3   OH242564   2.972   2.804   1.125
14208TIP3    H142565   3.036   2.741   1.159
14208TIP3    H242566   2.970   2.787   1.031
14209TIP3   OH242567   3.893   0.564   1.641
14209TIP3    H142568   3.844   0.573   1.559
14209TIP3    H242569   3.979   0.531   1.614
14210TIP3   OH242570   4.035   4.364   1.609
14210TIP3    H142571   3.949   4.331   1.636
14210TIP3    H242572   4.096   4.328   1.673
14211TIP3   OH242573   0.664   5.187   3.345
14211TIP3    H142574   0.754   5.180   3.313
14211TIP3    H242575   0.628   5.099   3.333
14212TIP3   OH242576   2.404   0.493   3.032
14212TIP3    H142577   2.409   0.454   2.945
14212TIP3    H242578   2.403   0.418   3.092
14213TIP3   OH242579   4.714   1.561   5.174
14213TIP3    H142580   4.675   1.609   5.246
14213TIP3    H242581   4.687   1.609   5.095
14214TIP3   OH242582   1.387   2.326   0.591
14214TIP3    H142583   1.475   2.362   0.599
14214TIP3    H242584   1.392   2.241   0.636
14215TIP3   OH242585   7.330   6.407   5.725
14215TIP3    H142586   7.290   6.482   5.682
14215TIP3    H242587   7.394   6.374   5.663
14216TIP3   OH242588   5.001   4.862   1.401
14216TIP3    H142589   4.962   4.856   1.314
14216TIP3    H242590   4.957   4.793   1.452
14217TIP3   OH242591   4.222   7.728   2.818
14217TIP3    H142592   4.299   7.784   2.815
14217TIP3    H242593   4.240   7.666   2.889
14218TIP3   OH242594   5.063   2.391   4.154
14218TIP3    H142595   5.147   2.354   4.130
14218TIP3    H242596   5.084   2.460   4.217
14219TIP3   OH242597   6.325   7.888   3.229
14219TIP3    H142598   6.392   7.853   3.289
14219TIP3    H242599   6.285   7.810   3.190
14220TIP3   OH242600   3.705   1.487   5.778
14220TIP3    H142601   3.737   1.455   5.694
14220TIP3    H242602   3.782   1.527   5.819
14221TIP3   OH242603   2.668   6.243   6.037
14221TIP3    H142604   2.646   6.333   6.058
14221TIP3    H242605   2.763   6.238   6.049
14222TIP3   OH242606   5.204   0.453   0.305
14222TIP3    H142607   5.237   0.503   0.380
14222TIP3    H242608   5.260   0.480   0.232
14223TIP3   OH242609   6.921   7.720   2.055
14223TIP3    H142610   6.862   7.757   1.989
14223TIP3    H242611   6.866   7.663   2.108
14224TIP3   OH242612   4.988   1.941   6.895
14224TIP3    H142613   4.990   2.025   6.848
14224TIP3    H242614   4.922   1.890   6.848
14225TIP3   OH242615   1.219   2.527   3.830
14225TIP3    H142616   1.151   2.521   3.897
14225TIP3    H242617   1.171   2.531   3.748
14226TIP3   OH242618   1.640   7.792   1.058
14226TIP3    H142619   1.664   7.878   1.021
14226TIP3    H242620   1.548   7.801   1.081
14227TIP3   OH242621   0.309   4.647   1.273
14227TIP3    H142622   0.229   4.681   1.314
14227TIP3    H242623   0.375   4.653   1.342
14228TIP3   OH242624   6.999   2.218   4.640
14228TIP3    H142625   6.986   2.203   4.546
14228TIP3    H242626   7.029   2.133   4.674
14229TIP3   OH242627   4.588   0.006   6.201
14229TIP3    H142628   4.631   0.091   6.199
14229TIP3    H242629   4.659  -0.058   6.191
14230TIP3   OH242630   5.465   2.992   5.844
14230TIP3    H142631   5.395   2.984   5.909
14230TIP3    H242632   5.540   2.946   5.883
14231TIP3   OH242633   4.011   6.276   6.578
14231TIP3    H142634   3.944   6.272   6.510
14231TIP3    H242635   4.083   6.224   6.544
14232TIP3   OH242636   6.101   6.994   1.651
14232TIP3    H142637   6.088   7.017   1.743
14232TIP3    H242638   6.099   7.078   1.605
14233TIP3   OH242639   2.921   4.481   5.143
14233TIP3    H142640   2.925   4.386   5.144
14233TIP3    H242641   2.970   4.506   5.064
14234TIP3   OH242642   0.260   1.876   5.957
14234TIP3    H142643   0.245   1.861   5.864
14234TIP3    H242644   0.249   1.790   5.997
14235TIP3   OH242645   3.566   4.450   0.501
14235TIP3    H142646   3.655   4.477   0.526
14235TIP3    H242647   3.536   4.395   0.573
14236TIP3   OH242648   0.925   6.193   3.270
14236TIP3    H142649   0.984   6.217   3.199
14236TIP3    H242650   0.863   6.132   3.230
14237TIP3   OH242651   4.104   3.839   1.230
14237TIP3    H142652   4.075   3.925   1.260
14237TIP3    H242653   4.199   3.846   1.226
14238TIP3   OH242654   7.996   0.546   4.714
14238TIP3    H142655   7.980   0.466   4.664
14238TIP3    H242656   8.072   0.524   4.768
14239TIP3   OH242657   4.441   0.523   4.021
14239TIP3    H142658   4.448   0.454   4.086
14239TIP3    H242659   4.434   0.477   3.937
14240TIP3   OH242660   2.268   7.708   1.704
14240TIP3    H142661   2.249   7.699   1.797
14240TIP3    H242662   2.364   7.714   1.700
14241TIP3   OH242663   6.567   2.455   3.708
14241TIP3    H142664   6.582   2.372   3.663
14241TIP3    H242665   6.646   2.507   3.689
14242TIP3   OH242666   4.585   7.130   6.006
14242TIP3    H142667   4.637   7.050   6.000
14242TIP3    H242668   4.649   7.201   6.000
14243TIP3   OH242669   3.685   0.102   3.247
14243TIP3    H142670   3.681   0.008   3.261
14243TIP3    H242671   3.622   0.119   3.177
14244TIP3   OH242672   4.602   7.448   3.118
14244TIP3    H142673   4.556   7.366   3.097
14244TIP3    H242674   4.694   7.429   3.102
14245TIP3   OH242675   2.032   4.988   2.961
14245TIP3    H142676   2.002   5.040   3.035
14245TIP3    H242677   1.955   4.980   2.904
14246TIP3   OH242678   7.768   3.356   5.262
14246TIP3    H142679   7.796   3.274   5.221
14246TIP3    H242680   7.705   3.393   5.200
14247TIP3   OH242681   7.199   2.508   4.240
14247TIP3    H142682   7.163   2.597   4.235
14247TIP3    H242683   7.245   2.506   4.324
14248TIP3   OH242684   4.817   0.946   1.094
14248TIP3    H142685   4.838   0.979   1.182
14248TIP3    H242686   4.757   0.873   1.109
14249TIP3   OH242687   0.981   5.138   5.103
14249TIP3    H142688   0.890   5.115   5.084
14249TIP3    H242689   1.001   5.209   5.042
14250TIP3   OH242690   2.164   7.217   3.507
14250TIP3    H142691   2.091   7.158   3.521
14250TIP3    H242692   2.130   7.285   3.449
14251TIP3   OH242693   2.121   0.290   0.184
14251TIP3    H142694   2.135   0.195   0.183
14251TIP3    H242695   2.029   0.301   0.160
14252TIP3   OH242696   3.724   7.441   2.698
14252TIP3    H142697   3.807   7.395   2.710
14252TIP3    H242698   3.672   7.383   2.643
14253TIP3   OH242699   1.812   6.044   5.234
14253TIP3    H142700   1.879   5.984   5.269
14253TIP3    H242701   1.767   6.077   5.312
14254TIP3   OH242702   1.566   3.546   2.639
14254TIP3    H142703   1.570   3.637   2.607
14254TIP3    H242704   1.472   3.526   2.640
14255TIP3   OH242705   3.557   0.704   5.340
14255TIP3    H142706   3.538   0.756   5.418
14255TIP3    H242707   3.554   0.767   5.268
14256TIP3   OH242708   7.969   1.965   3.385
14256TIP3    H142709   7.915   2.007   3.452
14256TIP3    H242710   8.039   2.028   3.367
14257TIP3   OH242711   2.795   1.515   5.238
14257TIP3    H142712   2.797   1.428   5.279
14257TIP3    H242713   2.848   1.570   5.296
14258TIP3   OH242714   3.693   7.172   4.535
14258TIP3    H142715   3.767   7.217   4.494
14258TIP3    H242716   3.658   7.236   4.598
14259TIP3   OH242717   6.733   6.460   6.259
14259TIP3    H142718   6.766   6.498   6.177
14259TIP3    H242719   6.726   6.366   6.241
14260TIP3   OH242720   3.256   6.813   3.878
14260TIP3    H142721   3.308   6.737   3.850
14260TIP3    H242722   3.319   6.868   3.924
14261TIP3   OH242723   5.058   1.705   0.280
14261TIP3    H142724   4.977   1.691   0.231
14261TIP3    H242725   5.034   1.695   0.372
14262TIP3   OH242726   7.875   0.290   3.233
14262TIP3    H142727   7.791   0.305   3.277
14262TIP3    H242728   7.924   0.371   3.245
14263TIP3   OH242729   6.326   4.287   1.512
14263TIP3    H142730   6.337   4.220   1.580
14263TIP3    H242731   6.315   4.238   1.431
14264TIP3   OH242732   5.099   5.705   4.156
14264TIP3    H142733   5.114   5.724   4.063
14264TIP3    H242734   5.032   5.769   4.182
14265TIP3   OH242735   4.733   4.499   1.187
14265TIP3    H142736   4.696   4.480   1.101
14265TIP3    H242737   4.828   4.499   1.173
14266TIP3   OH242738   1.063   0.147   3.910
14266TIP3    H142739   1.024   0.138   3.823
14266TIP3    H242740   1.153   0.117   3.899
14267TIP3   OH242741   8.059   6.793   0.838
14267TIP3    H142742   8.075   6.846   0.916
14267TIP3    H242743   8.076   6.703   0.866
14268TIP3   OH242744   5.786   2.121   5.828
14268TIP3    H142745   5.849   2.146   5.760
14268TIP3    H242746   5.832   2.136   5.910
14269TIP3   OH242747   8.281   1.101   2.437
14269TIP3    H142748   8.326   1.176   2.477
14269TIP3    H242749   8.280   1.121   2.344
14270TIP3   OH242750   3.859   3.561   2.663
14270TIP3    H142751   3.876   3.496   2.595
14270TIP3    H242752   3.764   3.578   2.657
14271TIP3   OH242753   0.354   6.623   5.480
14271TIP3    H142754   0.302   6.628   5.400
14271TIP3    H242755   0.416   6.696   5.473
14272TIP3   OH242756   4.429   4.938   2.161
14272TIP3    H142757   4.452   5.014   2.107
14272TIP3    H242758   4.352   4.901   2.117
14273TIP3   OH242759   8.100   6.818   5.884
14273TIP3    H142760   8.095   6.744   5.825
14273TIP3    H242761   8.193   6.831   5.900
14274TIP3   OH242762   4.298   4.559   4.314
14274TIP3    H142763   4.349   4.584   4.237
14274TIP3    H242764   4.353   4.496   4.360
14275TIP3   OH242765   3.319   5.052   1.334
14275TIP3    H142766   3.305   5.106   1.257
14275TIP3    H242767   3.277   4.969   1.313
14276TIP3   OH242768   2.455   7.605   1.471
14276TIP3    H142769   2.515   7.638   1.404
14276TIP3    H242770   2.502   7.615   1.553
14277TIP3   OH242771   3.880   7.459   6.659
14277TIP3    H142772   3.797   7.506   6.649
14277TIP3    H242773   3.924   7.504   6.732
14278TIP3   OH242774   7.294   1.761   6.341
14278TIP3    H142775   7.348   1.815   6.282
14278TIP3    H242776   7.218   1.736   6.288
14279TIP3   OH242777   4.733   6.699   6.797
14279TIP3    H142778   4.695   6.695   6.709
14279TIP3    H242779   4.658   6.718   6.854
14280TIP3   OH242780   3.116   6.860   2.517
14280TIP3    H142781   3.071   6.898   2.593
14280TIP3    H242782   3.061   6.885   2.442
14281TIP3   OH242783   8.235   3.342   4.713
14281TIP3    H142784   8.291   3.405   4.668
14281TIP3    H242785   8.150   3.349   4.670
14282TIP3   OH242786   6.172   2.373   3.156
14282TIP3    H142787   6.137   2.285   3.140
14282TIP3    H242788   6.098   2.423   3.190
14283TIP3   OH242789   5.436   4.311   6.713
14283TIP3    H142790   5.366   4.360   6.669
14283TIP3    H242791   5.403   4.221   6.718
14284TIP3   OH242792   4.702   6.423   1.096
14284TIP3    H142793   4.762   6.478   1.147
14284TIP3    H242794   4.622   6.475   1.089
14285TIP3   OH242795   5.975   5.433   0.972
14285TIP3    H142796   5.890   5.389   0.965
14285TIP3    H242797   6.006   5.438   0.881
14286TIP3   OH242798   4.641   0.474   3.525
14286TIP3    H142799   4.679   0.450   3.440
14286TIP3    H242800   4.703   0.537   3.562
14287TIP3   OH242801   4.540   2.131   1.500
14287TIP3    H142802   4.512   2.218   1.528
14287TIP3    H242803   4.558   2.141   1.406
14288TIP3   OH242804   7.835   0.777   2.618
14288TIP3    H142805   7.860   0.786   2.710
14288TIP3    H242806   7.824   0.867   2.587
14289TIP3   OH242807   1.919   6.197   4.575
14289TIP3    H142808   1.909   6.216   4.482
14289TIP3    H242809   2.014   6.193   4.588
14290TIP3   OH242810   4.336   1.033   3.422
14290TIP3    H142811   4.420   1.016   3.465
14290TIP3    H242812   4.325   0.960   3.362
14291TIP3   OH242813   6.603   5.790   5.272
14291TIP3    H142814   6.605   5.871   5.221
14291TIP3    H242815   6.516   5.754   5.257
14292TIP3   OH242816   0.814   5.626   2.442
14292TIP3    H142817   0.730   5.581   2.434
14292TIP3    H242818   0.859   5.605   2.360
14293TIP3   OH242819   7.189   1.250   3.025
14293TIP3    H142820   7.262   1.188   3.037
14293TIP3    H242821   7.125   1.224   3.090
14294TIP3   OH242822   5.454   6.265   6.268
14294TIP3    H142823   5.449   6.304   6.180
14294TIP3    H242824   5.475   6.173   6.252
14295TIP3   OH242825   5.913   7.707   2.763
14295TIP3    H142826   5.914   7.781   2.703
14295TIP3    H242827   5.950   7.635   2.712
14296TIP3   OH242828   8.392   3.637   6.298
14296TIP3    H142829   8.476   3.683   6.295
14296TIP3    H242830   8.329   3.700   6.263
14297TIP3   OH242831   0.547   0.110   4.392
14297TIP3    H142832   0.473   0.128   4.451
14297TIP3    H242833   0.528   0.023   4.357
14298TIP3   OH242834   0.593   6.133   1.110
14298TIP3    H142835   0.614   6.097   1.024
14298TIP3    H242836   0.501   6.110   1.125
14299TIP3   OH242837   0.330   1.580   4.143
14299TIP3    H142838   0.334   1.670   4.177
14299TIP3    H242839   0.319   1.592   4.048
14300TIP3   OH242840   0.210   1.208   3.957
14300TIP3    H142841   0.119   1.239   3.961
14300TIP3    H242842   0.202   1.116   3.932
14301TIP3   OH242843   1.267   1.026   2.090
14301TIP3    H142844   1.248   0.954   2.031
14301TIP3    H242845   1.360   1.046   2.074
14302TIP3   OH242846   1.738   2.324   6.702
14302TIP3    H142847   1.817   2.310   6.754
14302TIP3    H242848   1.704   2.408   6.731
14303TIP3   OH242849   4.164   3.484   3.575
14303TIP3    H142850   4.217   3.412   3.543
14303TIP3    H242851   4.130   3.453   3.659
14304TIP3   OH242852   4.843   4.947   5.937
14304TIP3    H142853   4.860   4.862   5.897
14304TIP3    H242854   4.750   4.963   5.920
14305TIP3   OH242855   7.614   6.664   0.661
14305TIP3    H142856   7.615   6.698   0.751
14305TIP3    H242857   7.694   6.699   0.622
14306TIP3   OH242858   5.959   7.761   1.633
14306TIP3    H142859   6.007   7.680   1.650
14306TIP3    H242860   5.924   7.787   1.718
14307TIP3   OH242861   3.960   3.400   2.447
14307TIP3    H142862   4.029   3.386   2.383
14307TIP3    H242863   3.880   3.403   2.396
14308TIP3   OH242864   2.318   6.182   1.519
14308TIP3    H142865   2.352   6.126   1.449
14308TIP3    H242866   2.343   6.137   1.600
14309TIP3   OH242867   7.182   1.163   5.528
14309TIP3    H142868   7.094   1.129   5.544
14309TIP3    H242869   7.183   1.247   5.573
14310TIP3   OH242870   0.164   0.467   5.264
14310TIP3    H142871   0.132   0.377   5.275
14310TIP3    H242872   0.156   0.506   5.351
14311TIP3   OH242873   2.523   1.005   4.281
14311TIP3    H142874   2.596   1.034   4.226
14311TIP3    H242875   2.565   0.968   4.359
14312TIP3   OH242876   1.639   5.554   0.203
14312TIP3    H142877   1.692   5.475   0.211
14312TIP3    H242878   1.551   5.523   0.182
14313TIP3   OH242879   2.240   2.471   4.303
14313TIP3    H142880   2.219   2.523   4.380
14313TIP3    H242881   2.329   2.499   4.279
14314TIP3   OH242882   2.690   2.763   0.069
14314TIP3    H142883   2.651   2.748   0.155
14314TIP3    H242884   2.784   2.764   0.085
14315TIP3   OH242885   2.177   0.547   4.315
14315TIP3    H142886   2.232   0.473   4.340
14315TIP3    H242887   2.236   0.606   4.268
14316TIP3   OH242888   2.772   6.910   4.426
14316TIP3    H142889   2.830   6.879   4.495
14316TIP3    H242890   2.830   6.950   4.362
14317TIP3   OH242891   6.450   4.332   1.887
14317TIP3    H142892   6.537   4.346   1.924
14317TIP3    H242893   6.436   4.409   1.832
14318TIP3   OH242894   8.173   2.616   6.305
14318TIP3    H142895   8.265   2.628   6.327
14318TIP3    H242896   8.163   2.655   6.218
14319TIP3   OH242897   3.278   4.117   0.769
14319TIP3    H142898   3.296   4.024   0.762
14319TIP3    H242899   3.229   4.126   0.852
14320TIP3   OH242900   7.186   2.984   0.710
14320TIP3    H142901   7.209   3.061   0.659
14320TIP3    H242902   7.113   3.012   0.765
14321TIP3   OH242903   6.535   5.776   4.640
14321TIP3    H142904   6.615   5.758   4.590
14321TIP3    H242905   6.564   5.833   4.711
14322TIP3   OH242906   1.893   5.634   0.317
14322TIP3    H142907   1.798   5.649   0.314
14322TIP3    H242908   1.906   5.557   0.262
14323TIP3   OH242909   0.759   2.116   0.167
14323TIP3    H142910   0.848   2.117   0.133
14323TIP3    H242911   0.753   2.034   0.216
14324TIP3   OH242912   6.476   4.593   2.129
14324TIP3    H142913   6.466   4.585   2.034
14324TIP3    H242914   6.545   4.658   2.140
14325TIP3   OH242915   8.039   4.013   0.771
14325TIP3    H142916   8.126   3.982   0.794
14325TIP3    H242917   7.981   3.973   0.836
14326TIP3   OH242918   6.789   0.900   1.138
14326TIP3    H142919   6.733   0.842   1.086
14326TIP3    H242920   6.729   0.965   1.175
14327TIP3   OH242921   0.319   6.156   2.408
14327TIP3    H142922   0.357   6.206   2.336
14327TIP3    H242923   0.249   6.105   2.367
14328TIP3   OH242924   4.415   3.651   1.114
14328TIP3    H142925   4.383   3.561   1.111
14328TIP3    H242926   4.394   3.687   1.028
14329TIP3   OH242927   6.115   0.076   5.961
14329TIP3    H142928   6.142  -0.012   5.987
14329TIP3    H242929   6.196   0.120   5.937
14330TIP3   OH242930   6.311   5.495   2.035
14330TIP3    H142931   6.309   5.400   2.031
14330TIP3    H242932   6.308   5.515   2.129
14331TIP3   OH242933   2.010   2.572   4.145
14331TIP3    H142934   2.074   2.505   4.169
14331TIP3    H242935   2.050   2.618   4.071
14332TIP3   OH242936   3.732   2.156   1.818
14332TIP3    H142937   3.717   2.183   1.909
14332TIP3    H242938   3.744   2.061   1.822
14333TIP3   OH242939   0.973   1.074   0.366
14333TIP3    H142940   0.925   1.129   0.428
14333TIP3    H242941   1.049   1.127   0.340
14334TIP3   OH242942   7.701   7.062   6.848
14334TIP3    H142943   7.767   7.003   6.886
14334TIP3    H242944   7.736   7.085   6.762
14335TIP3   OH242945   1.107   6.209   0.394
14335TIP3    H142946   1.131   6.117   0.391
14335TIP3    H242947   1.049   6.221   0.318
14336TIP3   OH242948   7.902   2.100   2.471
14336TIP3    H142949   7.875   2.192   2.466
14336TIP3    H242950   7.840   2.054   2.415
14337TIP3   OH242951   7.157   5.406   2.008
14337TIP3    H142952   7.069   5.381   1.982
14337TIP3    H242953   7.146   5.445   2.096
14338TIP3   OH242954   3.492   0.322   0.958
14338TIP3    H142955   3.570   0.351   1.004
14338TIP3    H242956   3.434   0.290   1.027
14339TIP3   OH242957   4.952   6.448   5.887
14339TIP3    H142958   4.953   6.544   5.893
14339TIP3    H242959   4.932   6.430   5.795
14340TIP3   OH242960   2.905   2.958   2.147
14340TIP3    H142961   2.812   2.946   2.168
14340TIP3    H242962   2.951   2.912   2.218
14341TIP3   OH242963   3.682   5.946   3.308
14341TIP3    H142964   3.768   5.941   3.350
14341TIP3    H242965   3.678   5.870   3.251
14342TIP3   OH242966   0.742   0.384   6.510
14342TIP3    H142967   0.708   0.295   6.514
14342TIP3    H242968   0.744   0.405   6.416
14343TIP3   OH242969   0.905   3.602   6.059
14343TIP3    H142970   0.831   3.587   6.117
14343TIP3    H242971   0.866   3.635   5.978
14344TIP3   OH242972   5.646   4.711   6.078
14344TIP3    H142973   5.654   4.644   6.146
14344TIP3    H242974   5.629   4.661   5.998
14345TIP3   OH242975   5.701   1.707   1.485
14345TIP3    H142976   5.712   1.781   1.425
14345TIP3    H242977   5.608   1.686   1.480
14346TIP3   OH242978   3.778   5.341   3.338
14346TIP3    H142979   3.835   5.283   3.389
14346TIP3    H242980   3.803   5.429   3.366
14347TIP3   OH242981   3.338   0.578   4.974
14347TIP3    H142982   3.378   0.665   4.963
14347TIP3    H242983   3.296   0.560   4.890
14348TIP3   OH242984   2.058   3.731   4.331
14348TIP3    H142985   2.043   3.678   4.409
14348TIP3    H242986   2.153   3.726   4.318
14349TIP3   OH242987   5.137   0.002   0.426
14349TIP3    H142988   5.076   0.027   0.495
14349TIP3    H242989   5.193   0.079   0.415
14350TIP3   OH242990   1.016   6.772   1.416
14350TIP3    H142991   0.926   6.739   1.410
14350TIP3    H242992   1.014   6.857   1.372
14351TIP3   OH242993   6.596   7.526   2.378
14351TIP3    H142994   6.542   7.452   2.404
14351TIP3    H242995   6.545   7.570   2.310
14352TIP3   OH242996   5.109   3.026   4.053
14352TIP3    H142997   5.102   2.941   4.097
14352TIP3    H242998   5.180   3.071   4.098
14353TIP3   OH242999   2.785   7.179   5.547
14353TIP3    H143000   2.699   7.218   5.528
14353TIP3    H243001   2.766   7.100   5.596
14354TIP3   OH243002   2.823   2.140   3.373
14354TIP3    H143003   2.917   2.154   3.364
14354TIP3    H243004   2.789   2.225   3.402
14355TIP3   OH243005   0.820   7.294   2.212
14355TIP3    H143006   0.772   7.247   2.279
14355TIP3    H243007   0.891   7.337   2.259
14356TIP3   OH243008   4.015   6.044   0.812
14356TIP3    H143009   3.924   6.071   0.817
14356TIP3    H243010   4.065   6.122   0.834
14357TIP3   OH243011   7.657   4.697   5.148
14357TIP3    H143012   7.746   4.677   5.121
14357TIP3    H243013   7.604   4.686   5.069
14358TIP3   OH243014   5.941   3.239   2.541
14358TIP3    H143015   6.002   3.190   2.595
14358TIP3    H243016   5.878   3.276   2.604
14359TIP3   OH243017   0.054   4.061   1.021
14359TIP3    H143018  -0.022   4.116   1.040
14359TIP3    H243019   0.080   4.084   0.932
14360TIP3   OH243020   1.544   2.143   5.803
14360TIP3    H143021   1.537   2.235   5.778
14360TIP3    H243022   1.638   2.125   5.800
14361TIP3   OH243023   0.082   4.154   1.578
14361TIP3    H143024   0.119   4.091   1.639
14361TIP3    H243025   0.103   4.119   1.492
14362TIP3   OH243026   1.686   1.889   3.136
14362TIP3    H143027   1.755   1.823   3.147
14362TIP3    H243028   1.639   1.888   3.219
14363TIP3   OH243029   3.244   2.996   0.033
14363TIP3    H143030   3.182   3.067   0.046
14363TIP3    H243031   3.192   2.926  -0.006
14364TIP3   OH243032   4.979   3.491   4.997
14364TIP3    H143033   4.964   3.426   4.928
14364TIP3    H243034   4.983   3.440   5.078
14365TIP3   OH243035   3.240   0.867   5.735
14365TIP3    H143036   3.223   0.829   5.821
14365TIP3    H243037   3.335   0.860   5.724
14366TIP3   OH243038   0.522   6.198   3.920
14366TIP3    H143039   0.469   6.119   3.909
14366TIP3    H243040   0.467   6.256   3.973
14367TIP3   OH243041   3.783   6.387   0.415
14367TIP3    H143042   3.784   6.298   0.379
14367TIP3    H243043   3.791   6.444   0.339
14368TIP3   OH243044   6.698   6.939   1.386
14368TIP3    H143045   6.667   6.985   1.463
14368TIP3    H243046   6.620   6.932   1.330
14369TIP3   OH243047   7.639   1.910   4.723
14369TIP3    H143048   7.613   1.938   4.636
14369TIP3    H243049   7.642   1.814   4.718
14370TIP3   OH243050   0.860   0.694   0.221
14370TIP3    H143051   0.833   0.625   0.282
14370TIP3    H243052   0.937   0.659   0.176
14371TIP3   OH243053   7.302   7.298   0.842
14371TIP3    H143054   7.381   7.352   0.839
14371TIP3    H243055   7.237   7.355   0.883
14372TIP3   OH243056   7.102   5.219   3.227
14372TIP3    H143057   7.034   5.284   3.208
14372TIP3    H243058   7.106   5.165   3.148
14373TIP3   OH243059   2.861   6.337   2.325
14373TIP3    H143060   2.804   6.344   2.248
14373TIP3    H243061   2.840   6.252   2.363
14374TIP3   OH243062   6.141   5.742   1.988
14374TIP3    H143063   6.197   5.666   1.998
14374TIP3    H243064   6.135   5.780   2.076
14375TIP3   OH243065   4.969   4.015   6.009
14375TIP3    H143066   4.925   3.930   6.015
14375TIP3    H243067   4.899   4.079   6.018
14376TIP3   OH243068   5.824   0.357   2.105
14376TIP3    H143069   5.814   0.449   2.129
14376TIP3    H243070   5.776   0.309   2.173
14377TIP3   OH243071   1.075   4.150   4.674
14377TIP3    H143072   1.029   4.233   4.690
14377TIP3    H243073   1.112   4.126   4.759
14378TIP3   OH243074   0.817   5.436   1.986
14378TIP3    H143075   0.831   5.529   2.001
14378TIP3    H243076   0.839   5.423   1.894
14379TIP3   OH243077   5.050   0.223   3.315
14379TIP3    H143078   5.019   0.184   3.233
14379TIP3    H243079   5.110   0.158   3.351
14380TIP3   OH243080   8.124   5.260   5.618
14380TIP3    H143081   8.117   5.356   5.620
14380TIP3    H243082   8.059   5.233   5.554
14381TIP3   OH243083   8.329   1.802   0.713
14381TIP3    H143084   8.383   1.744   0.659
14381TIP3    H243085   8.249   1.752   0.729
14382TIP3   OH243086   6.856   5.457   4.680
14382TIP3    H143087   6.835   5.465   4.587
14382TIP3    H243088   6.801   5.385   4.711
14383TIP3   OH243089   1.125   0.697   5.527
14383TIP3    H143090   1.055   0.632   5.524
14383TIP3    H243091   1.193   0.661   5.469
14384TIP3   OH243092   6.733   6.298   1.393
14384TIP3    H143093   6.708   6.310   1.302
14384TIP3    H243094   6.673   6.231   1.426
14385TIP3   OH243095   1.823   5.005   1.493
14385TIP3    H143096   1.871   5.083   1.464
14385TIP3    H243097   1.817   4.950   1.415
14386TIP3   OH243098   3.245   2.791   0.241
14386TIP3    H143099   3.251   2.695   0.239
14386TIP3    H243100   3.249   2.817   0.149
14387TIP3   OH243101   3.933   3.810   1.667
14387TIP3    H143102   3.949   3.754   1.591
14387TIP3    H243103   3.900   3.750   1.735
14388TIP3   OH243104   3.789   1.023   4.660
14388TIP3    H143105   3.771   1.106   4.616
14388TIP3    H243106   3.882   1.025   4.679
14389TIP3   OH243107   7.066   3.448   3.030
14389TIP3    H143108   7.063   3.507   2.954
14389TIP3    H243109   7.139   3.481   3.083
14390TIP3   OH243110   5.429   4.676   5.395
14390TIP3    H143111   5.334   4.663   5.394
14390TIP3    H243112   5.443   4.752   5.338
14391TIP3   OH243113   1.311   4.893   5.249
14391TIP3    H143114   1.220   4.881   5.277
14391TIP3    H243115   1.357   4.818   5.285
14392TIP3   OH243116   0.265   5.146   3.307
14392TIP3    H143117   0.350   5.172   3.345
14392TIP3    H243118   0.220   5.229   3.291
14393TIP3   OH243119   3.608   5.308   3.120
14393TIP3    H143120   3.632   5.269   3.204
14393TIP3    H243121   3.554   5.384   3.143
14394TIP3   OH243122   4.079   1.584   1.207
14394TIP3    H143123   4.024   1.540   1.142
14394TIP3    H243124   4.168   1.564   1.180
14395TIP3   OH243125   2.394   6.216   1.016
14395TIP3    H143126   2.367   6.263   1.095
14395TIP3    H243127   2.430   6.283   0.958
14396TIP3   OH243128   7.846   7.437   3.267
14396TIP3    H143129   7.866   7.343   3.263
14396TIP3    H243130   7.751   7.441   3.257
14397TIP3   OH243131   3.598   7.413   5.912
14397TIP3    H143132   3.679   7.461   5.895
14397TIP3    H243133   3.529   7.471   5.879
14398TIP3   OH243134   2.203   5.526   3.697
14398TIP3    H143135   2.198   5.596   3.762
14398TIP3    H243136   2.166   5.566   3.618
14399TIP3   OH243137   3.229   6.440   1.274
14399TIP3    H143138   3.318   6.470   1.256
14399TIP3    H243139   3.189   6.512   1.322
14400TIP3   OH243140   2.546   7.355   1.180
14400TIP3    H143141   2.488   7.347   1.256
14400TIP3    H243142   2.622   7.402   1.214
14401TIP3   OH243143   1.147   5.819   1.092
14401TIP3    H143144   1.098   5.836   1.172
14401TIP3    H243145   1.160   5.906   1.053
14402TIP3   OH243146   7.875   4.271   3.002
14402TIP3    H143147   7.876   4.319   3.085
14402TIP3    H243148   7.825   4.327   2.942
14403TIP3   OH243149   2.948   6.989   4.190
14403TIP3    H143150   2.961   6.917   4.129
14403TIP3    H243151   3.036   7.017   4.214
14404TIP3   OH243152   1.610   2.085   2.024
14404TIP3    H143153   1.591   2.059   1.934
14404TIP3    H243154   1.687   2.034   2.047
14405TIP3   OH243155   5.102   3.317   1.156
14405TIP3    H143156   5.070   3.230   1.179
14405TIP3    H243157   5.147   3.348   1.234
14406TIP3   OH243158   2.082   2.291   5.267
14406TIP3    H143159   2.038   2.261   5.188
14406TIP3    H243160   2.152   2.227   5.281
14407TIP3   OH243161   8.383   6.462   4.688
14407TIP3    H143162   8.393   6.368   4.704
14407TIP3    H243163   8.320   6.492   4.753
14408TIP3   OH243164   1.484   0.922   1.112
14408TIP3    H143165   1.537   1.002   1.106
14408TIP3    H243166   1.492   0.881   1.026
14409TIP3   OH243167   5.631   2.246   2.156
14409TIP3    H143168   5.621   2.341   2.157
14409TIP3    H243169   5.571   2.216   2.087
14410TIP3   OH243170   2.476   3.522   1.794
14410TIP3    H143171   2.383   3.535   1.808
14410TIP3    H243172   2.512   3.610   1.785
14411TIP3   OH243173   7.459   4.123   2.934
14411TIP3    H143174   7.474   4.178   3.011
14411TIP3    H243175   7.435   4.184   2.865
14412TIP3   OH243176   2.062   7.093   2.174
14412TIP3    H143177   2.020   7.014   2.140
14412TIP3    H243178   2.155   7.078   2.162
14413TIP3   OH243179   1.488   4.291   0.992
14413TIP3    H143180   1.509   4.247   1.075
14413TIP3    H243181   1.409   4.247   0.961
14414TIP3   OH243182   6.430   4.441   3.361
14414TIP3    H143183   6.436   4.481   3.275
14414TIP3    H243184   6.517   4.404   3.377
14415TIP3   OH243185   7.080   1.511   6.464
14415TIP3    H143186   7.085   1.580   6.398
14415TIP3    H243187   6.996   1.526   6.507
14416TIP3   OH243188   4.999   4.919   0.595
14416TIP3    H143189   4.989   4.966   0.512
14416TIP3    H243190   5.081   4.870   0.584
14417TIP3   OH243191   5.494   3.515   4.623
14417TIP3    H143192   5.539   3.445   4.575
14417TIP3    H243193   5.421   3.472   4.666
14418TIP3   OH243194   2.428   5.119   3.950
14418TIP3    H143195   2.355   5.137   3.891
14418TIP3    H243196   2.401   5.156   4.034
14419TIP3   OH243197   5.989   1.417   0.343
14419TIP3    H143198   6.065   1.472   0.321
14419TIP3    H243199   5.924   1.478   0.377
14420TIP3   OH243200   3.556   0.692   4.635
14420TIP3    H143201   3.588   0.742   4.560
14420TIP3    H243202   3.508   0.757   4.687
14421TIP3   OH243203   6.287   3.520   4.444
14421TIP3    H143204   6.246   3.507   4.358
14421TIP3    H243205   6.222   3.490   4.507
14422TIP3   OH243206   0.096   6.199   4.189
14422TIP3    H143207   0.169   6.137   4.186
14422TIP3    H243208   0.092   6.227   4.280
14423TIP3   OH243209   0.676   2.908   4.163
14423TIP3    H143210   0.695   2.814   4.163
14423TIP3    H243211   0.584   2.913   4.140
14424TIP3   OH243212   2.132   1.728   5.942
14424TIP3    H143213   2.059   1.668   5.958
14424TIP3    H243214   2.129   1.789   6.015
14425TIP3   OH243215   5.748   3.792   4.602
14425TIP3    H143216   5.724   3.732   4.531
14425TIP3    H243217   5.794   3.864   4.558
14426TIP3   OH243218   7.689   6.217   2.009
14426TIP3    H143219   7.595   6.229   2.023
14426TIP3    H243220   7.717   6.298   1.966
14427TIP3   OH243221   1.258   3.281   2.370
14427TIP3    H143222   1.190   3.283   2.438
14427TIP3    H243223   1.279   3.188   2.361
14428TIP3   OH243224   4.976   6.764   3.263
14428TIP3    H143225   4.904   6.800   3.212
14428TIP3    H243226   5.003   6.686   3.216
14429TIP3   OH243227   6.011   2.086   3.001
14429TIP3    H143228   5.992   2.067   2.910
14429TIP3    H243229   5.950   2.156   3.025
14430TIP3   OH243230   6.327   2.746   1.981
14430TIP3    H143231   6.322   2.731   1.887
14430TIP3    H243232   6.355   2.837   1.989
14431TIP3   OH243233   1.075   7.388   3.290
14431TIP3    H143234   1.100   7.470   3.247
14431TIP3    H243235   0.981   7.395   3.303
14432TIP3   OH243236   2.071   5.186   2.632
14432TIP3    H143237   2.066   5.101   2.588
14432TIP3    H243238   2.044   5.167   2.722
14433TIP3   OH243239   0.340   3.714   4.767
14433TIP3    H143240   0.288   3.633   4.767
14433TIP3    H243241   0.325   3.752   4.854
14434TIP3   OH243242   6.508   1.402   2.322
14434TIP3    H143243   6.542   1.446   2.400
14434TIP3    H243244   6.551   1.445   2.249
14435TIP3   OH243245   5.063   6.475   0.994
14435TIP3    H143246   5.054   6.432   1.079
14435TIP3    H243247   5.118   6.551   1.011
14436TIP3   OH243248   4.972   5.724   3.465
14436TIP3    H143249   4.939   5.807   3.499
14436TIP3    H243250   5.003   5.678   3.543
14437TIP3   OH243251   7.151   0.179   2.420
14437TIP3    H143252   7.139   0.221   2.505
14437TIP3    H243253   7.070   0.195   2.373
14438TIP3   OH243254   8.177   5.613   1.083
14438TIP3    H143255   8.130   5.644   1.160
14438TIP3    H243256   8.198   5.693   1.034
14439TIP3   OH243257   3.687   4.750   6.729
14439TIP3    H143258   3.733   4.790   6.655
14439TIP3    H243259   3.686   4.817   6.796
14440TIP3   OH243260   2.569   6.555   2.847
14440TIP3    H143261   2.486   6.519   2.878
14440TIP3    H243262   2.570   6.536   2.753
14441TIP3   OH243263   5.374   3.318   1.068
14441TIP3    H143264   5.406   3.389   1.013
14441TIP3    H243265   5.283   3.306   1.041
14442TIP3   OH243266   4.066   5.828   0.593
14442TIP3    H143267   4.133   5.889   0.562
14442TIP3    H243268   4.012   5.811   0.516
14443TIP3   OH243269   4.880   3.501   0.502
14443TIP3    H143270   4.831   3.513   0.584
14443TIP3    H243271   4.837   3.427   0.459
14444TIP3   OH243272   5.578   2.349   3.145
14444TIP3    H143273   5.546   2.438   3.159
14444TIP3    H243274   5.530   2.295   3.207
14445TIP3   OH243275   7.877   1.178   6.395
14445TIP3    H143276   7.952   1.119   6.406
14445TIP3    H243277   7.807   1.121   6.362
14446TIP3   OH243278   8.159   3.087   0.245
14446TIP3    H143279   8.140   3.104   0.337
14446TIP3    H243280   8.254   3.079   0.241
14447TIP3   OH243281   7.050   2.434   2.467
14447TIP3    H143282   7.075   2.491   2.539
14447TIP3    H243283   6.961   2.406   2.489
14448TIP3   OH243284   4.616   2.023   4.726
14448TIP3    H143285   4.686   2.029   4.661
14448TIP3    H243286   4.652   1.966   4.794
14449TIP3   OH243287   1.638   2.088   4.147
14449TIP3    H143288   1.718   2.141   4.144
14449TIP3    H243289   1.662   2.006   4.105
14450TIP3   OH243290   6.616   2.149   5.508
14450TIP3    H143291   6.643   2.072   5.458
14450TIP3    H243292   6.695   2.176   5.555
14451TIP3   OH243293   8.019   3.556   0.804
14451TIP3    H143294   8.087   3.597   0.751
14451TIP3    H243295   8.030   3.596   0.891
14452TIP3   OH243296   8.050   1.704   5.531
14452TIP3    H143297   7.997   1.693   5.452
14452TIP3    H243298   8.126   1.649   5.517
14453TIP3   OH243299   0.040   2.626   0.782
14453TIP3    H143300   0.087   2.692   0.731
14453TIP3    H243301   0.099   2.602   0.853
14454TIP3   OH243302   7.827   3.612   0.369
14454TIP3    H143303   7.843   3.518   0.361
14454TIP3    H243304   7.914   3.649   0.387
14455TIP3   OH243305   6.771   1.264   6.631
14455TIP3    H143306   6.824   1.189   6.661
14455TIP3    H243307   6.689   1.256   6.680
14456TIP3   OH243308   3.866   2.021   6.370
14456TIP3    H143309   3.885   1.960   6.298
14456TIP3    H243310   3.952   2.040   6.408
14457TIP3   OH243311   4.882   1.369   6.560
14457TIP3    H143312   4.827   1.365   6.482
14457TIP3    H243313   4.970   1.389   6.527
14458TIP3   OH243314   1.296   0.541   2.549
14458TIP3    H143315   1.376   0.588   2.575
14458TIP3    H243316   1.226   0.604   2.562
14459TIP3   OH243317   5.735   6.285   0.822
14459TIP3    H143318   5.779   6.234   0.753
14459TIP3    H243319   5.758   6.376   0.803
14460TIP3   OH243320   6.365   7.073   5.156
14460TIP3    H143321   6.340   7.058   5.247
14460TIP3    H243322   6.454   7.038   5.149
14461TIP3   OH243323   7.773   2.305   4.315
14461TIP3    H143324   7.761   2.215   4.346
14461TIP3    H243325   7.719   2.358   4.374
14462TIP3   OH243326   0.149   3.999   1.852
14462TIP3    H143327   0.076   3.976   1.909
14462TIP3    H243328   0.188   4.076   1.892
14463TIP3   OH243329   5.148   0.453   4.362
14463TIP3    H143330   5.131   0.390   4.292
14463TIP3    H243331   5.115   0.536   4.327
14464TIP3   OH243332   3.711   2.972   0.470
14464TIP3    H143333   3.622   2.941   0.484
14464TIP3    H243334   3.724   2.966   0.375
14465TIP3   OH243335   3.548   1.274   0.472
14465TIP3    H143336   3.533   1.352   0.418
14465TIP3    H243337   3.600   1.306   0.546
14466TIP3   OH243338   7.378   5.430   2.390
14466TIP3    H143339   7.332   5.505   2.352
14466TIP3    H243340   7.336   5.353   2.352
14467TIP3   OH243341   1.260   1.885   4.597
14467TIP3    H143342   1.253   1.921   4.685
14467TIP3    H243343   1.289   1.794   4.610
14468TIP3   OH243344   6.459   2.249   3.318
14468TIP3    H143345   6.413   2.333   3.309
14468TIP3    H243346   6.410   2.201   3.384
14469TIP3   OH243347   5.081   0.707   5.721
14469TIP3    H143348   4.986   0.717   5.719
14469TIP3    H243349   5.107   0.737   5.808
14470TIP3   OH243350   1.825   0.537   2.807
14470TIP3    H143351   1.789   0.475   2.869
14470TIP3    H243352   1.911   0.502   2.785
14471TIP3   OH243353   2.740   4.615   1.185
14471TIP3    H143354   2.720   4.579   1.272
14471TIP3    H243355   2.831   4.589   1.169
14472TIP3   OH243356   1.193   6.427   0.554
14472TIP3    H143357   1.182   6.364   0.625
14472TIP3    H243358   1.190   6.374   0.474
14473TIP3   OH243359   4.483   3.782   2.510
14473TIP3    H143360   4.541   3.855   2.488
14473TIP3    H243361   4.420   3.778   2.437
14474TIP3   OH243362   5.506   2.460   1.044
14474TIP3    H143363   5.481   2.372   1.018
14474TIP3    H243364   5.438   2.487   1.106
14475TIP3   OH243365   2.046   2.798   6.507
14475TIP3    H143366   2.112   2.738   6.472
14475TIP3    H243367   1.995   2.825   6.431
14476TIP3   OH243368   3.131   4.409   1.347
14476TIP3    H143369   3.145   4.503   1.338
14476TIP3    H243370   3.061   4.389   1.284
14477TIP3   OH243371   2.649   5.453   0.600
14477TIP3    H143372   2.732   5.411   0.622
14477TIP3    H243373   2.653   5.467   0.505
14478TIP3   OH243374   0.686   1.423   2.981
14478TIP3    H143375   0.674   1.464   2.895
14478TIP3    H243376   0.601   1.383   3.001
14479TIP3   OH243377   2.718   0.069   3.804
14479TIP3    H143378   2.720   0.051   3.710
14479TIP3    H243379   2.663   0.000   3.840
14480TIP3   OH243380   1.151   6.211   1.421
14480TIP3    H143381   1.145   6.129   1.371
14480TIP3    H243382   1.181   6.184   1.508
14481TIP3   OH243383   5.343   7.857   5.868
14481TIP3    H143384   5.253   7.833   5.847
14481TIP3    H243385   5.336   7.914   5.944
14482TIP3   OH243386   7.081   2.753   4.640
14482TIP3    H143387   7.085   2.658   4.647
14482TIP3    H243388   7.002   2.777   4.689
14483TIP3   OH243389   3.569   2.740   4.753
14483TIP3    H143390   3.644   2.737   4.812
14483TIP3    H243391   3.556   2.834   4.736
14484TIP3   OH243392   5.854   2.976   1.450
14484TIP3    H143393   5.758   2.978   1.449
14484TIP3    H243394   5.876   2.967   1.543
14485TIP3   OH243395   8.073   0.493   3.797
14485TIP3    H143396   8.074   0.547   3.718
14485TIP3    H243397   8.107   0.549   3.866
14486TIP3   OH243398   4.846   4.498   6.748
14486TIP3    H143399   4.772   4.439   6.761
14486TIP3    H243400   4.916   4.442   6.713
14487TIP3   OH243401   0.460   0.972   6.657
14487TIP3    H143402   0.416   1.014   6.731
14487TIP3    H243403   0.393   0.916   6.618
14488TIP3   OH243404   6.881   0.463   4.035
14488TIP3    H143405   6.821   0.525   4.078
14488TIP3    H243406   6.823   0.398   3.996
14489TIP3   OH243407   3.588   2.182   5.385
14489TIP3    H143408   3.664   2.198   5.329
14489TIP3    H243409   3.515   2.220   5.337
14490TIP3   OH243410   4.061   7.728   3.842
14490TIP3    H143411   4.101   7.641   3.840
14490TIP3    H243412   4.135   7.788   3.853
14491TIP3   OH243413   8.243   6.591   6.377
14491TIP3    H143414   8.287   6.644   6.310
14491TIP3    H243415   8.307   6.522   6.398
14492TIP3   OH243416   2.918   0.875   5.820
14492TIP3    H143417   2.882   0.941   5.762
14492TIP3    H243418   2.977   0.823   5.765
14493TIP3   OH243419   3.172   2.117   1.307
14493TIP3    H143420   3.226   2.067   1.368
14493TIP3    H243421   3.229   2.189   1.279
14494TIP3   OH243422   6.870   4.422   2.983
14494TIP3    H143423   6.783   4.384   2.971
14494TIP3    H243424   6.874   4.443   3.076
14495TIP3   OH243425   7.370   2.781   0.133
14495TIP3    H143426   7.413   2.697   0.151
14495TIP3    H243427   7.330   2.769   0.047
14496TIP3   OH243428   0.255   7.082   6.576
14496TIP3    H143429   0.311   7.096   6.653
14496TIP3    H243430   0.315   7.089   6.501
14497TIP3   OH243431   8.049   1.351   0.468
14497TIP3    H143432   8.032   1.267   0.426
14497TIP3    H243433   7.983   1.356   0.537
14498TIP3   OH243434   6.934   0.914   4.653
14498TIP3    H143435   7.026   0.922   4.628
14498TIP3    H243436   6.886   0.953   4.580
14499TIP3   OH243437   6.352   3.174   1.218
14499TIP3    H143438   6.259   3.156   1.229
14499TIP3    H243439   6.371   3.149   1.128
14500TIP3   OH243440   1.542   0.549   2.367
14500TIP3    H143441   1.597   0.572   2.442
14500TIP3    H243442   1.464   0.509   2.406
14501TIP3   OH243443   1.869   6.394   5.339
14501TIP3    H143444   1.851   6.447   5.417
14501TIP3    H243445   1.786   6.391   5.291
14502TIP3   OH243446   5.651   0.718   3.114
14502TIP3    H143447   5.585   0.762   3.168
14502TIP3    H243448   5.613   0.714   3.027
14503TIP3   OH243449   1.392   0.493   0.943
14503TIP3    H143450   1.409   0.415   0.891
14503TIP3    H243451   1.438   0.476   1.026
14504TIP3   OH243452   2.715   3.597   4.841
14504TIP3    H143453   2.641   3.657   4.847
14504TIP3    H243454   2.751   3.612   4.753
14505TIP3   OH243455   2.051   0.922   2.319
14505TIP3    H143456   2.054   0.833   2.282
14505TIP3    H243457   2.142   0.951   2.319
14506TIP3   OH243458   4.319   6.968   4.727
14506TIP3    H143459   4.367   7.050   4.710
14506TIP3    H243460   4.384   6.911   4.768
14507TIP3   OH243461   5.314   3.431   5.745
14507TIP3    H143462   5.345   3.503   5.690
14507TIP3    H243463   5.373   3.432   5.821
14508TIP3   OH243464   1.187   5.934   4.985
14508TIP3    H143465   1.237   5.969   4.910
14508TIP3    H243466   1.253   5.923   5.053
14509TIP3   OH243467   7.483   4.098   3.474
14509TIP3    H143468   7.551   4.032   3.464
14509TIP3    H243469   7.466   4.101   3.569
14510TIP3   OH243470   4.844   6.112   4.989
14510TIP3    H143471   4.887   6.056   4.924
14510TIP3    H243472   4.895   6.193   4.988
14511TIP3   OH243473   5.261   1.058   1.687
14511TIP3    H143474   5.239   1.151   1.687
14511TIP3    H243475   5.327   1.050   1.756
14512TIP3   OH243476   6.243   6.872   1.444
14512TIP3    H143477   6.228   6.778   1.450
14512TIP3    H243478   6.185   6.910   1.510
14513TIP3   OH243479   1.130   4.135   3.520
14513TIP3    H143480   1.085   4.066   3.568
14513TIP3    H243481   1.220   4.104   3.511
14514TIP3   OH243482   6.418   6.118   4.181
14514TIP3    H143483   6.450   6.116   4.271
14514TIP3    H243484   6.495   6.098   4.127
14515TIP3   OH243485   6.534   3.033   6.682
14515TIP3    H143486   6.504   3.063   6.597
14515TIP3    H243487   6.456   3.038   6.738
14516TIP3   OH243488   0.859   0.421   0.360
14516TIP3    H143489   0.939   0.398   0.408
14516TIP3    H243490   0.834   0.340   0.315
14517TIP3   OH243491   4.250   6.435   6.164
14517TIP3    H143492   4.309   6.499   6.203
14517TIP3    H243493   4.294   6.409   6.083
14518TIP3   OH243494   8.277   5.955   6.663
14518TIP3    H143495   8.292   5.948   6.758
14518TIP3    H243496   8.319   6.037   6.638
14519TIP3   OH243497   6.751   3.919   3.007
14519TIP3    H143498   6.796   3.842   3.043
14519TIP3    H243499   6.764   3.987   3.073
14520TIP3   OH243500   2.501   7.715   3.486
14520TIP3    H143501   2.558   7.643   3.457
14520TIP3    H243502   2.418   7.673   3.505
14521TIP3   OH243503   5.371   4.618   2.988
14521TIP3    H143504   5.433   4.650   3.053
14521TIP3    H243505   5.286   4.624   3.030
14522TIP3   OH243506   0.954   5.785   4.657
14522TIP3    H143507   0.879   5.820   4.704
14522TIP3    H243508   0.982   5.856   4.599
14523TIP3   OH243509   3.590   2.014   4.800
14523TIP3    H143510   3.529   2.015   4.875
14523TIP3    H243511   3.538   2.049   4.727
14524TIP3   OH243512   2.958   1.349   3.224
14524TIP3    H143513   2.940   1.255   3.234
14524TIP3    H243514   3.039   1.353   3.173
14525TIP3   OH243515   7.701   2.912   1.504
14525TIP3    H143516   7.732   2.983   1.448
14525TIP3    H243517   7.780   2.878   1.546
14526TIP3   OH243518   2.984   5.031   1.286
14526TIP3    H143519   3.042   5.092   1.242
14526TIP3    H243520   3.031   5.006   1.366
14527TIP3   OH243521   0.332   7.644   3.048
14527TIP3    H143522   0.354   7.552   3.055
14527TIP3    H243523   0.244   7.651   3.087
14528TIP3   OH243524   7.852   6.881   3.794
14528TIP3    H143525   7.847   6.932   3.874
14528TIP3    H243526   7.877   6.944   3.726
14529TIP3   OH243527   3.124   4.999   0.444
14529TIP3    H143528   3.049   5.026   0.496
14529TIP3    H243529   3.198   5.047   0.480
14530TIP3   OH243530   8.412   2.254   4.599
14530TIP3    H143531   8.468   2.238   4.523
14530TIP3    H243532   8.358   2.176   4.606
14531TIP3   OH243533   4.618   4.814   6.772
14531TIP3    H143534   4.569   4.731   6.767
14531TIP3    H243535   4.571   4.872   6.712
14532TIP3   OH243536   4.792   6.046   5.246
14532TIP3    H143537   4.828   6.081   5.164
14532TIP3    H243538   4.706   6.012   5.222
14533TIP3   OH243539   4.640   1.951   2.033
14533TIP3    H143540   4.700   1.951   2.108
14533TIP3    H243541   4.675   2.017   1.974
14534TIP3   OH243542   4.623   4.252   4.175
14534TIP3    H143543   4.536   4.229   4.209
14534TIP3    H243544   4.670   4.169   4.172
14535TIP3   OH243545   5.465   7.820   3.825
14535TIP3    H143546   5.385   7.849   3.781
14535TIP3    H243547   5.524   7.895   3.819
14536TIP3   OH243548   4.992   1.690   6.538
14536TIP3    H143549   5.018   1.781   6.550
14536TIP3    H243550   5.074   1.640   6.542
14537TIP3   OH243551   8.393   7.774   2.868
14537TIP3    H143552   8.399   7.690   2.914
14537TIP3    H243553   8.381   7.750   2.776
14538TIP3   OH243554   4.445   6.481   1.148
14538TIP3    H143555   4.417   6.568   1.176
14538TIP3    H243556   4.390   6.461   1.072
14539TIP3   OH243557   0.177   2.634   6.819
14539TIP3    H143558   0.109   2.619   6.754
14539TIP3    H243559   0.152   2.578   6.893
14540TIP3   OH243560   5.806   0.566   0.747
14540TIP3    H143561   5.813   0.490   0.804
14540TIP3    H243562   5.774   0.531   0.664
14541TIP3   OH243563   0.401   7.784   3.863
14541TIP3    H143564   0.350   7.740   3.930
14541TIP3    H243565   0.486   7.741   3.865
14542TIP3   OH243566   0.093   7.013   4.739
14542TIP3    H143567   0.029   7.010   4.810
14542TIP3    H243568   0.045   6.983   4.662
14543TIP3   OH243569   2.486   5.732   1.410
14543TIP3    H143570   2.527   5.647   1.391
14543TIP3    H243571   2.558   5.786   1.444
14544TIP3   OH243572   6.763   0.982   2.127
14544TIP3    H143573   6.831   0.916   2.114
14544TIP3    H243574   6.684   0.943   2.089
14545TIP3   OH243575   6.354   1.974   2.063
14545TIP3    H143576   6.299   1.896   2.055
14545TIP3    H243577   6.314   2.024   2.135
14546TIP3   OH243578   6.459   0.996   1.097
14546TIP3    H143579   6.503   1.037   1.172
14546TIP3    H243580   6.530   0.954   1.048
14547TIP3   OH243581   1.292   3.163   0.297
14547TIP3    H143582   1.372   3.214   0.283
14547TIP3    H243583   1.222   3.228   0.294
14548TIP3   OH243584   0.340   2.258   1.141
14548TIP3    H143585   0.433   2.281   1.154
14548TIP3    H243586   0.306   2.249   1.230
14549TIP3   OH243587   4.562   3.952   5.075
14549TIP3    H143588   4.526   4.027   5.123
14549TIP3    H243589   4.486   3.897   5.055
14550TIP3   OH243590   0.870   3.856   6.714
14550TIP3    H143591   0.871   3.919   6.643
14550TIP3    H243592   0.942   3.884   6.771
14551TIP3   OH243593   2.488   4.819   3.786
14551TIP3    H143594   2.436   4.853   3.859
14551TIP3    H243595   2.483   4.724   3.795
14552TIP3   OH243596   5.148   3.832   0.355
14552TIP3    H143597   5.080   3.893   0.387
14552TIP3    H243598   5.138   3.755   0.410
14553TIP3   OH243599   0.759   1.863   6.720
14553TIP3    H143600   0.840   1.822   6.691
14553TIP3    H243601   0.693   1.795   6.711
14554TIP3   OH243602   7.846   2.969   2.662
14554TIP3    H143603   7.888   3.017   2.733
14554TIP3    H243604   7.753   2.970   2.684
14555TIP3   OH243605   1.990   0.256   4.324
14555TIP3    H143606   2.014   0.338   4.368
14555TIP3    H243607   1.923   0.281   4.261
14556TIP3   OH243608   7.051   5.240   2.686
14556TIP3    H143609   7.004   5.161   2.712
14556TIP3    H243610   7.083   5.277   2.768
14557TIP3   OH243611   2.422   1.307   6.373
14557TIP3    H143612   2.435   1.296   6.467
14557TIP3    H243613   2.501   1.270   6.334
14558TIP3   OH243614   2.163   3.076   0.162
14558TIP3    H143615   2.156   3.137   0.236
14558TIP3    H243616   2.255   3.083   0.134
14559TIP3   OH243617   1.464   0.735   3.734
14559TIP3    H143618   1.370   0.716   3.737
14559TIP3    H243619   1.472   0.813   3.680
14560TIP3   OH243620   4.868   7.105   3.356
14560TIP3    H143621   4.798   7.071   3.300
14560TIP3    H243622   4.829   7.182   3.398
14561TIP3   OH243623   3.426   7.381   1.422
14561TIP3    H143624   3.477   7.366   1.501
14561TIP3    H243625   3.486   7.426   1.362
14562TIP3   OH243626   6.829   0.774   5.235
14562TIP3    H143627   6.858   0.781   5.325
14562TIP3    H243628   6.733   0.771   5.240
14563TIP3   OH243629   7.404   5.129   1.341
14563TIP3    H143630   7.311   5.134   1.366
14563TIP3    H243631   7.443   5.070   1.405
14564TIP3   OH243632   6.396   7.138   6.003
14564TIP3    H143633   6.388   7.146   5.908
14564TIP3    H243634   6.399   7.044   6.020
14565TIP3   OH243635   2.060   4.264   4.517
14565TIP3    H143636   2.109   4.263   4.599
14565TIP3    H243637   2.111   4.209   4.457
14566TIP3   OH243638   2.467   7.619   4.590
14566TIP3    H143639   2.424   7.700   4.563
14566TIP3    H243640   2.397   7.567   4.630
14567TIP3   OH243641   6.351   3.423   0.608
14567TIP3    H143642   6.423   3.419   0.546
14567TIP3    H243643   6.391   3.405   0.693
14568TIP3   OH243644   5.501   5.168   6.709
14568TIP3    H143645   5.589   5.138   6.687
14568TIP3    H243646   5.456   5.173   6.625
14569TIP3   OH243647   6.605   7.070   3.959
14569TIP3    H143648   6.624   7.139   3.895
14569TIP3    H243649   6.544   7.012   3.914
14570TIP3   OH243650   6.352   1.428   4.440
14570TIP3    H143651   6.376   1.487   4.511
14570TIP3    H243652   6.336   1.344   4.484
14571TIP3   OH243653   7.628   6.555   3.209
14571TIP3    H143654   7.580   6.617   3.264
14571TIP3    H243655   7.570   6.539   3.135
14572TIP3   OH243656   6.909   6.542   2.914
14572TIP3    H143657   6.858   6.536   2.995
14572TIP3    H243658   6.953   6.627   2.920
14573TIP3   OH243659   7.918   6.728   2.389
14573TIP3    H143660   7.949   6.711   2.300
14573TIP3    H243661   7.931   6.644   2.435
14574TIP3   OH243662   6.291   7.755   1.676
14574TIP3    H143663   6.320   7.677   1.722
14574TIP3    H243664   6.211   7.782   1.720
14575TIP3   OH243665   0.523   5.936   1.924
14575TIP3    H143666   0.606   5.982   1.914
14575TIP3    H243667   0.457   6.005   1.922
14576TIP3   OH243668   4.752   4.159   4.840
14576TIP3    H143669   4.820   4.205   4.888
14576TIP3    H243670   4.766   4.067   4.861
14577TIP3   OH243671   4.654   5.301   6.102
14577TIP3    H143672   4.714   5.230   6.126
14577TIP3    H243673   4.700   5.381   6.125
14578TIP3   OH243674   1.812   1.725   3.683
14578TIP3    H143675   1.869   1.802   3.688
14578TIP3    H243676   1.852   1.670   3.616
14579TIP3   OH243677   0.526   1.458   3.340
14579TIP3    H143678   0.591   1.507   3.291
14579TIP3    H243679   0.444   1.471   3.292
14580TIP3   OH243680   3.492   7.088   6.066
14580TIP3    H143681   3.472   7.103   5.974
14580TIP3    H243682   3.415   7.044   6.100
14581TIP3   OH243683   7.807   2.746   3.613
14581TIP3    H143684   7.880   2.788   3.567
14581TIP3    H243685   7.848   2.684   3.672
14582TIP3   OH243686   5.021   2.361   0.029
14582TIP3    H143687   5.059   2.431   0.080
14582TIP3    H243688   5.043   2.382  -0.062
14583TIP3   OH243689   4.764   3.237   6.641
14583TIP3    H143690   4.743   3.330   6.628
14583TIP3    H243691   4.764   3.200   6.553
14584TIP3   OH243692   6.319   1.089   2.606
14584TIP3    H143693   6.387   1.030   2.574
14584TIP3    H243694   6.344   1.175   2.570
14585TIP3   OH243695   1.516   2.594   3.893
14585TIP3    H143696   1.426   2.570   3.872
14585TIP3    H243697   1.516   2.606   3.988
14586TIP3   OH243698   2.271   6.753   2.677
14586TIP3    H143699   2.293   6.707   2.595
14586TIP3    H243700   2.300   6.693   2.746
14587TIP3   OH243701   6.296   6.491   2.767
14587TIP3    H143702   6.254   6.550   2.829
14587TIP3    H243703   6.223   6.453   2.718
14588TIP3   OH243704   1.736   0.110   1.773
14588TIP3    H143705   1.752   0.057   1.695
14588TIP3    H243706   1.650   0.083   1.803
14589TIP3   OH243707   1.797   4.740   5.493
14589TIP3    H143708   1.873   4.795   5.475
14589TIP3    H243709   1.820   4.654   5.457
14590TIP3   OH243710   2.465   4.922   1.461
14590TIP3    H143711   2.532   4.914   1.393
14590TIP3    H243712   2.470   4.840   1.509
14591TIP3   OH243713   1.057   0.083   1.445
14591TIP3    H143714   1.103   0.009   1.486
14591TIP3    H243715   1.100   0.093   1.360
14592TIP3   OH243716   5.261   2.183   1.479
14592TIP3    H143717   5.214   2.193   1.397
14592TIP3    H243718   5.239   2.262   1.529
14593TIP3   OH243719   4.577   0.049   1.699
14593TIP3    H143720   4.653   0.015   1.746
14593TIP3    H243721   4.577   0.002   1.615
14594TIP3   OH243722   1.153   4.313   5.191
14594TIP3    H143723   1.058   4.313   5.178
14594TIP3    H243724   1.187   4.364   5.118
14595TIP3   OH243725   1.677   1.626   4.758
14595TIP3    H143726   1.673   1.549   4.815
14595TIP3    H243727   1.655   1.699   4.815
14596TIP3   OH243728   2.699   0.540   2.647
14596TIP3    H143729   2.663   0.573   2.565
14596TIP3    H243730   2.623   0.511   2.697
14597TIP3   OH243731   6.329   5.645   5.057
14597TIP3    H143732   6.290   5.563   5.086
14597TIP3    H243733   6.340   5.634   4.963
14598TIP3   OH243734   2.168   6.814   5.195
14598TIP3    H143735   2.160   6.808   5.290
14598TIP3    H243736   2.194   6.726   5.167
14599TIP3   OH243737   5.609   0.316   1.126
14599TIP3    H143738   5.585   0.326   1.218
14599TIP3    H243739   5.630   0.223   1.116
14600TIP3   OH243740   3.342   0.169   0.122
14600TIP3    H143741   3.378   0.211   0.044
14600TIP3    H243742   3.276   0.231   0.154
14601TIP3   OH243743   5.527   1.042   2.166
14601TIP3    H143744   5.437   1.071   2.173
14601TIP3    H243745   5.579   1.116   2.196
14602TIP3   OH243746   1.184   6.438   5.524
14602TIP3    H143747   1.177   6.349   5.489
14602TIP3    H243748   1.156   6.429   5.615
14603TIP3   OH243749   8.200   2.745   0.693
14603TIP3    H143750   8.279   2.729   0.744
14603TIP3    H243751   8.207   2.686   0.618
14604TIP3   OH243752   3.468   0.309   6.247
14604TIP3    H143753   3.387   0.340   6.207
14604TIP3    H243754   3.457   0.214   6.254
14605TIP3   OH243755   4.752   3.150   1.118
14605TIP3    H143756   4.706   3.078   1.074
14605TIP3    H243757   4.694   3.225   1.108
14606TIP3   OH243758   5.125   4.137   2.423
14606TIP3    H143759   5.182   4.142   2.346
14606TIP3    H243760   5.160   4.064   2.474
14607TIP3   OH243761   5.075   2.116   2.351
14607TIP3    H143762   4.994   2.101   2.302
14607TIP3    H243763   5.047   2.121   2.442
14608TIP3   OH243764   4.214   1.290   1.694
14608TIP3    H143765   4.164   1.337   1.628
14608TIP3    H243766   4.255   1.218   1.648
14609TIP3   OH243767   2.316   6.914   5.606
14609TIP3    H143768   2.258   6.986   5.581
14609TIP3    H243769   2.263   6.861   5.666
14610TIP3   OH243770   1.258   0.275   5.185
14610TIP3    H143771   1.334   0.234   5.145
14610TIP3    H243772   1.291   0.314   5.266
14611TIP3   OH243773   3.864   2.044   3.135
14611TIP3    H143774   3.780   2.016   3.099
14611TIP3    H243775   3.887   1.975   3.198
14612TIP3   OH243776   5.615   1.926   3.308
14612TIP3    H143777   5.669   1.934   3.387
14612TIP3    H243778   5.674   1.890   3.242
14613TIP3   OH243779   3.646   5.339   4.272
14613TIP3    H143780   3.627   5.282   4.197
14613TIP3    H243781   3.742   5.337   4.279
14614TIP3   OH243782   7.648   7.460   2.136
14614TIP3    H143783   7.732   7.486   2.175
14614TIP3    H243784   7.670   7.440   2.045
14615TIP3   OH243785   6.647   3.757   5.901
14615TIP3    H143786   6.695   3.685   5.940
14615TIP3    H243787   6.608   3.803   5.976
14616TIP3   OH243788   2.394   7.294   4.230
14616TIP3    H143789   2.354   7.215   4.192
14616TIP3    H243790   2.456   7.324   4.163
14617TIP3   OH243791   1.346   4.485   4.000
14617TIP3    H143792   1.260   4.471   4.039
14617TIP3    H243793   1.327   4.504   3.908
14618TIP3   OH243794   2.867   4.847   4.404
14618TIP3    H143795   2.777   4.879   4.414
14618TIP3    H243796   2.918   4.902   4.464
14619TIP3   OH243797   3.306   6.307   2.606
14619TIP3    H143798   3.247   6.367   2.561
14619TIP3    H243799   3.368   6.279   2.538
14620TIP3   OH243800   0.540   6.924   1.141
14620TIP3    H143801   0.446   6.918   1.162
14620TIP3    H243802   0.568   6.833   1.131
14621TIP3   OH243803   5.022   7.841   2.313
14621TIP3    H143804   4.995   7.908   2.376
14621TIP3    H243805   5.105   7.873   2.278
14622TIP3   OH243806   5.780   1.924   1.348
14622TIP3    H143807   5.855   1.879   1.309
14622TIP3    H243808   5.818   2.002   1.389
14623TIP3   OH243809   6.567   2.134   3.059
14623TIP3    H143810   6.659   2.110   3.054
14623TIP3    H243811   6.549   2.142   3.153
14624TIP3   OH243812   1.776   2.446   4.768
14624TIP3    H143813   1.844   2.397   4.813
14624TIP3    H243814   1.822   2.495   4.700
14625TIP3   OH243815   7.692   3.210   6.098
14625TIP3    H143816   7.724   3.239   6.184
14625TIP3    H243817   7.604   3.177   6.116
14626TIP3   OH243818   8.173   4.688   0.816
14626TIP3    H143819   8.113   4.615   0.829
14626TIP3    H243820   8.130   4.743   0.751
14627TIP3   OH243821   5.540   2.231   2.911
14627TIP3    H143822   5.543   2.253   3.005
14627TIP3    H243823   5.458   2.270   2.880
14628TIP3   OH243824   6.072   7.395   6.412
14628TIP3    H143825   6.058   7.489   6.429
14628TIP3    H243826   5.984   7.360   6.397
14629TIP3   OH243827   3.527   3.629   5.862
14629TIP3    H143828   3.493   3.547   5.897
14629TIP3    H243829   3.596   3.603   5.801
14630TIP3   OH243830   2.184   5.338   6.718
14630TIP3    H143831   2.261   5.296   6.757
14630TIP3    H243832   2.110   5.284   6.744
14631TIP3   OH243833   4.188   1.345   6.475
14631TIP3    H143834   4.093   1.335   6.476
14631TIP3    H243835   4.221   1.255   6.471
14632TIP3   OH243836   5.847   5.076   4.637
14632TIP3    H143837   5.826   5.002   4.694
14632TIP3    H243838   5.883   5.142   4.696
14633TIP3   OH243839   7.853   5.255   0.127
14633TIP3    H143840   7.943   5.229   0.147
14633TIP3    H243841   7.820   5.292   0.209
14634TIP3   OH243842   6.302   7.872   1.121
14634TIP3    H143843   6.233   7.897   1.182
14634TIP3    H243844   6.257   7.825   1.051
14635TIP3   OH243845   0.263   1.648   5.642
14635TIP3    H143846   0.180   1.689   5.617
14635TIP3    H243847   0.303   1.622   5.560
14636TIP3   OH243848   2.759   3.103   3.850
14636TIP3    H143849   2.766   3.086   3.756
14636TIP3    H243850   2.806   3.186   3.862
14637TIP3   OH243851   4.451   2.554   4.824
14637TIP3    H143852   4.413   2.494   4.888
14637TIP3    H243853   4.507   2.612   4.875
14638TIP3   OH243854   0.271   2.862   5.311
14638TIP3    H143855   0.248   2.805   5.385
14638TIP3    H243856   0.361   2.890   5.330
14639TIP3   OH243857   0.893   5.114   5.828
14639TIP3    H143858   0.831   5.125   5.901
14639TIP3    H243859   0.866   5.180   5.764
14640TIP3   OH243860   5.282   6.149   2.597
14640TIP3    H143861   5.236   6.117   2.674
14640TIP3    H243862   5.374   6.125   2.613
14641TIP3   OH243863   3.269   2.715   6.743
14641TIP3    H143864   3.323   2.675   6.811
14641TIP3    H243865   3.300   2.677   6.662
14642TIP3   OH243866   6.636   5.693   0.284
14642TIP3    H143867   6.686   5.701   0.365
14642TIP3    H243868   6.699   5.713   0.215
14643TIP3   OH243869   6.320   5.176   2.035
14643TIP3    H143870   6.372   5.108   2.079
14643TIP3    H243871   6.363   5.188   1.950
14644TIP3   OH243872   0.506   6.522   0.849
14644TIP3    H143873   0.500   6.514   0.754
14644TIP3    H243874   0.436   6.465   0.882
14645TIP3   OH243875   3.975   4.536   1.399
14645TIP3    H143876   3.888   4.554   1.435
14645TIP3    H243877   4.025   4.501   1.473
14646TIP3   OH243878   0.025   1.483   5.415
14646TIP3    H143879   0.049   1.564   5.370
14646TIP3    H243880  -0.031   1.437   5.352
14647TIP3   OH243881   3.847   0.584   1.376
14647TIP3    H143882   3.845   0.495   1.340
14647TIP3    H243883   3.938   0.612   1.365
14648TIP3   OH243884   6.116   3.574   0.270
14648TIP3    H143885   6.207   3.553   0.293
14648TIP3    H243886   6.080   3.493   0.234
14649TIP3   OH243887   2.513   7.482   2.747
14649TIP3    H143888   2.504   7.424   2.823
14649TIP3    H243889   2.441   7.545   2.757
14650TIP3   OH243890   0.606   4.574   2.058
14650TIP3    H143891   0.583   4.527   2.138
14650TIP3    H243892   0.699   4.559   2.047
14651TIP3   OH243893   3.213   5.363   1.242
14651TIP3    H143894   3.190   5.287   1.189
14651TIP3    H243895   3.200   5.437   1.184
14652TIP3   OH243896   3.016   4.540   1.136
14652TIP3    H143897   3.024   4.632   1.112
14652TIP3    H243898   3.047   4.492   1.059
14653TIP3   OH243899   5.540   2.807   6.208
14653TIP3    H143900   5.446   2.791   6.213
14653TIP3    H243901   5.548   2.901   6.226
14654TIP3   OH243902   2.607   5.145   0.151
14654TIP3    H143903   2.525   5.098   0.168
14654TIP3    H243904   2.672   5.101   0.207
14655TIP3   OH243905   0.801   7.850  -0.026
14655TIP3    H143906   0.708   7.843  -0.046
14655TIP3    H243907   0.804   7.877   0.066
14656TIP3   OH243908   4.019   7.133   1.977
14656TIP3    H143909   3.924   7.143   1.973
14656TIP3    H243910   4.045   7.180   2.056
14657TIP3   OH243911   1.260   0.078   2.894
14657TIP3    H143912   1.243   0.170   2.911
14657TIP3    H243913   1.304   0.046   2.973
14658TIP3   OH243914   3.880   3.005   1.244
14658TIP3    H143915   3.887   2.942   1.173
14658TIP3    H243916   3.968   3.040   1.254
14659TIP3   OH243917   6.059   3.122   1.317
14659TIP3    H143918   5.982   3.071   1.343
14659TIP3    H243919   6.063   3.194   1.380
14660TIP3   OH243920   0.980   2.599   2.355
14660TIP3    H143921   1.066   2.627   2.386
14660TIP3    H243922   0.998   2.556   2.271
14661TIP3   OH243923   3.524   1.290   2.923
14661TIP3    H143924   3.511   1.226   2.993
14661TIP3    H243925   3.566   1.364   2.966
14662TIP3   OH243926   4.924   2.672   6.184
14662TIP3    H143927   4.938   2.634   6.097
14662TIP3    H243928   4.981   2.621   6.242
14663TIP3   OH243929   7.284   4.661   3.968
14663TIP3    H143930   7.222   4.609   3.917
14663TIP3    H243931   7.330   4.597   4.022
14664TIP3   OH243932   5.578   1.416   3.997
14664TIP3    H143933   5.485   1.407   3.977
14664TIP3    H243934   5.595   1.510   3.992
14665TIP3   OH243935   3.835   1.573   2.485
14665TIP3    H143936   3.919   1.595   2.445
14665TIP3    H243937   3.773   1.570   2.412
14666TIP3   OH243938   5.265   0.647   3.945
14666TIP3    H143939   5.342   0.703   3.956
14666TIP3    H243940   5.218   0.685   3.871
14667TIP3   OH243941   3.514   6.123   3.128
14667TIP3    H143942   3.443   6.075   3.171
14667TIP3    H243943   3.499   6.215   3.151
14668TIP3   OH243944   8.297   1.688   2.451
14668TIP3    H143945   8.316   1.657   2.539
14668TIP3    H243946   8.375   1.738   2.426
14669TIP3   OH243947   5.576   7.109   1.585
14669TIP3    H143948   5.599   7.181   1.644
14669TIP3    H243949   5.527   7.151   1.514
14670TIP3   OH243950   1.408   6.268   6.171
14670TIP3    H143951   1.420   6.176   6.194
14670TIP3    H243952   1.420   6.316   6.253
14671TIP3   OH243953   0.332   6.870   5.122
14671TIP3    H143954   0.355   6.959   5.149
14671TIP3    H243955   0.340   6.872   5.026
14672TIP3   OH243956   8.065   2.569   6.622
14672TIP3    H143957   8.038   2.615   6.543
14672TIP3    H243958   7.994   2.583   6.684
14673TIP3   OH243959   6.749   1.295   4.555
14673TIP3    H143960   6.696   1.319   4.630
14673TIP3    H243961   6.719   1.208   4.530
14674TIP3   OH243962   4.065   6.845   2.741
14674TIP3    H143963   4.126   6.901   2.694
14674TIP3    H243964   4.111   6.822   2.822
14675TIP3   OH243965   1.030   0.468   1.031
14675TIP3    H143966   1.053   0.377   1.017
14675TIP3    H243967   0.993   0.497   0.947
14676TIP3   OH243968   6.521   6.576   6.067
14676TIP3    H143969   6.501   6.551   5.976
14676TIP3    H243970   6.552   6.495   6.107
14677TIP3   OH243971   6.335   4.378   5.566
14677TIP3    H143972   6.324   4.283   5.572
14677TIP3    H243973   6.269   4.406   5.503
14678TIP3   OH243974   2.634   0.952   6.767
14678TIP3    H143975   2.650   1.041   6.735
14678TIP3    H243976   2.694   0.942   6.841
14679TIP3   OH243977   4.217   7.190   5.684
14679TIP3    H143978   4.286   7.227   5.629
14679TIP3    H243979   4.257   7.186   5.771
14680TIP3   OH243980   8.390   5.498   1.621
14680TIP3    H143981   8.436   5.538   1.547
14680TIP3    H243982   8.307   5.468   1.584
14681TIP3   OH243983   7.392   3.971   1.667
14681TIP3    H143984   7.349   4.048   1.629
14681TIP3    H243985   7.439   3.931   1.593
14682TIP3   OH243986   5.347   6.742   2.955
14682TIP3    H143987   5.334   6.727   3.049
14682TIP3    H243988   5.290   6.678   2.912
14683TIP3   OH243989   0.285   5.145   4.108
14683TIP3    H143990   0.317   5.232   4.132
14683TIP3    H243991   0.363   5.089   4.112
14684TIP3   OH243992   0.130   3.020   1.279
14684TIP3    H143993   0.184   3.066   1.344
14684TIP3    H243994   0.066   3.085   1.252
14685TIP3   OH243995   1.520   5.691   4.429
14685TIP3    H143996   1.476   5.705   4.512
14685TIP3    H243997   1.516   5.776   4.385
14686TIP3   OH243998   1.709   5.657   3.126
14686TIP3    H143999   1.800   5.651   3.099
14686TIP3    H244000   1.662   5.598   3.067
14687TIP3   OH244001   6.506   2.492   5.872
14687TIP3    H144002   6.515   2.429   5.801
14687TIP3    H244003   6.422   2.536   5.855
14688TIP3   OH244004   4.893   2.321   1.598
14688TIP3    H144005   4.964   2.336   1.660
14688TIP3    H244006   4.875   2.227   1.603
14689TIP3   OH244007   4.036   5.864   6.029
14689TIP3    H144008   3.982   5.858   6.108
14689TIP3    H244009   3.973   5.868   5.957
14690TIP3   OH244010   0.359   5.388   4.226
14690TIP3    H144011   0.274   5.404   4.267
14690TIP3    H244012   0.419   5.372   4.299
14691TIP3   OH244013   6.680   2.975   3.745
14691TIP3    H144014   6.740   2.926   3.800
14691TIP3    H244015   6.633   3.033   3.805
14692TIP3   OH244016   6.938   5.138   0.255
14692TIP3    H144017   6.927   5.208   0.191
14692TIP3    H244018   7.030   5.114   0.248
14693TIP3   OH244019   2.465   4.000   1.783
14693TIP3    H144020   2.492   4.090   1.768
14693TIP3    H244021   2.373   4.006   1.807
14694TIP3   OH244022   4.917   0.795   5.339
14694TIP3    H144023   5.007   0.789   5.372
14694TIP3    H244024   4.927   0.788   5.244
14695TIP3   OH244025   4.111   0.662   1.840
14695TIP3    H144026   4.123   0.606   1.917
14695TIP3    H244027   4.113   0.751   1.875
14696TIP3   OH244028   4.150   7.355   0.325
14696TIP3    H144029   4.122   7.399   0.245
14696TIP3    H244030   4.162   7.426   0.388
14697TIP3   OH244031   4.534   5.943   0.104
14697TIP3    H144032   4.624   5.910   0.101
14697TIP3    H244033   4.512   5.960   0.012
14698TIP3   OH244034   5.232   1.295   6.278
14698TIP3    H144035   5.211   1.358   6.347
14698TIP3    H244036   5.315   1.256   6.306
14699TIP3   OH244037   7.777   6.838   6.663
14699TIP3    H144038   7.744   6.901   6.599
14699TIP3    H244039   7.714   6.840   6.734
14700TIP3   OH244040   4.557   7.158   5.679
14700TIP3    H144041   4.646   7.136   5.707
14700TIP3    H244042   4.565   7.244   5.638
14701TIP3   OH244043   1.970   2.914   3.425
14701TIP3    H144044   1.998   2.958   3.345
14701TIP3    H244045   2.008   2.827   3.419
14702TIP3   OH244046   6.803   4.539   2.530
14702TIP3    H144047   6.765   4.464   2.576
14702TIP3    H244048   6.898   4.522   2.531
14703TIP3   OH244049   0.359   0.656   1.979
14703TIP3    H144050   0.344   0.726   2.043
14703TIP3    H244051   0.443   0.678   1.939
14704TIP3   OH244052   4.767   0.431   3.284
14704TIP3    H144053   4.753   0.518   3.246
14704TIP3    H244054   4.765   0.372   3.209
14705TIP3   OH244055   0.774   3.917   0.196
14705TIP3    H144056   0.853   3.967   0.177
14705TIP3    H244057   0.792   3.875   0.280
14706TIP3   OH244058   0.358   3.072   0.870
14706TIP3    H144059   0.418   3.080   0.944
14706TIP3    H244060   0.287   3.016   0.902
14707TIP3   OH244061   0.899   5.964   0.643
14707TIP3    H144062   0.988   5.998   0.651
14707TIP3    H244063   0.910   5.876   0.608
14708TIP3   OH244064   7.302   2.191   5.205
14708TIP3    H144065   7.382   2.241   5.196
14708TIP3    H244066   7.323   2.105   5.169
14709TIP3   OH244067   6.526   7.396   6.418
14709TIP3    H144068   6.445   7.424   6.461
14709TIP3    H244069   6.500   7.378   6.328
14710TIP3   OH244070   4.592   4.726   1.318
14710TIP3    H144071   4.658   4.668   1.279
14710TIP3    H244072   4.627   4.814   1.304
14711TIP3   OH244073   2.313   3.610   5.682
14711TIP3    H144074   2.261   3.537   5.715
14711TIP3    H244075   2.404   3.583   5.697
14712TIP3   OH244076   3.250   7.843   1.558
14712TIP3    H144077   3.277   7.800   1.477
14712TIP3    H244078   3.322   7.827   1.619
14713TIP3   OH244079   0.354   6.333   2.138
14713TIP3    H144080   0.358   6.368   2.049
14713TIP3    H244081   0.294   6.393   2.184
14714TIP3   OH244082   2.348   2.550   3.972
14714TIP3    H144083   2.406   2.479   4.001
14714TIP3    H244084   2.374   2.625   4.026
14715TIP3   OH244085   5.763   2.339   6.749
14715TIP3    H144086   5.790   2.253   6.719
14715TIP3    H244087   5.689   2.322   6.808
14716TIP3   OH244088   6.905   2.902   0.120
14716TIP3    H144089   6.984   2.954   0.108
14716TIP3    H244090   6.833   2.966   0.120
14717TIP3   OH244091   5.165   4.673   2.546
14717TIP3    H144092   5.234   4.737   2.530
14717TIP3    H244093   5.184   4.601   2.486
14718TIP3   OH244094   7.631   5.073   3.618
14718TIP3    H144095   7.679   5.003   3.663
14718TIP3    H244096   7.572   5.027   3.559
14719TIP3   OH244097   3.410   7.290   6.375
14719TIP3    H144098   3.448   7.334   6.451
14719TIP3    H244099   3.436   7.345   6.301
14720TIP3   OH244100   4.194   4.557   1.851
14720TIP3    H144101   4.146   4.607   1.786
14720TIP3    H244102   4.209   4.472   1.811
14721TIP3   OH244103   4.375   5.057   3.892
14721TIP3    H144104   4.336   4.985   3.941
14721TIP3    H244105   4.431   5.102   3.956
14722TIP3   OH244106   6.203   0.707   2.968
14722TIP3    H144107   6.229   0.708   2.875
14722TIP3    H244108   6.143   0.633   2.975
14723TIP3   OH244109   7.264   5.221   5.108
14723TIP3    H144110   7.237   5.129   5.097
14723TIP3    H244111   7.233   5.245   5.195
14724TIP3   OH244112   8.230   3.890   6.795
14724TIP3    H144113   8.272   3.808   6.769
14724TIP3    H244114   8.167   3.865   6.862
14725TIP3   OH244115   6.304   0.677   3.886
14725TIP3    H144116   6.226   0.633   3.921
14725TIP3    H244117   6.278   0.704   3.798
14726TIP3   OH244118   4.539   0.179   2.062
14726TIP3    H144119   4.490   0.222   1.992
14726TIP3    H244120   4.579   0.103   2.020
14727TIP3   OH244121   6.442   3.427   1.276
14727TIP3    H144122   6.525   3.448   1.320
14727TIP3    H244123   6.436   3.331   1.283
14728TIP3   OH244124   2.172   1.453   2.006
14728TIP3    H144125   2.122   1.375   2.028
14728TIP3    H244126   2.232   1.425   1.937
14729TIP3   OH244127   4.157   2.827   4.858
14729TIP3    H144128   4.237   2.825   4.910
14729TIP3    H244129   4.110   2.748   4.883
14730TIP3   OH244130   1.631   3.766   4.363
14730TIP3    H144131   1.590   3.845   4.328
14730TIP3    H244132   1.625   3.702   4.292
14731TIP3   OH244133   2.961   4.409   1.587
14731TIP3    H144134   3.041   4.403   1.533
14731TIP3    H244135   2.941   4.503   1.589
14732TIP3   OH244136   2.051   3.201   2.826
14732TIP3    H144137   2.041   3.296   2.835
14732TIP3    H244138   1.984   3.165   2.884
14733TIP3   OH244139   1.344   1.571   1.191
14733TIP3    H144140   1.387   1.487   1.177
14733TIP3    H244141   1.415   1.631   1.211
14734TIP3   OH244142   2.394   4.717   1.274
14734TIP3    H144143   2.432   4.665   1.203
14734TIP3    H244144   2.353   4.653   1.332
14735TIP3   OH244145   4.828   4.235   0.660
14735TIP3    H144146   4.866   4.250   0.746
14735TIP3    H244147   4.755   4.297   0.655
14736TIP3   OH244148   5.768   4.971   2.993
14736TIP3    H144149   5.851   4.984   2.949
14736TIP3    H244150   5.766   4.878   3.015
14737TIP3   OH244151   6.445   3.741   4.983
14737TIP3    H144152   6.526   3.760   5.029
14737TIP3    H244153   6.392   3.820   4.994
14738TIP3   OH244154   4.878   3.984   2.666
14738TIP3    H144155   4.833   4.031   2.736
14738TIP3    H244156   4.844   4.022   2.585
14739TIP3   OH244157   2.718   0.450   0.514
14739TIP3    H144158   2.692   0.477   0.602
14739TIP3    H244159   2.684   0.519   0.457
14740TIP3   OH244160   4.411   5.191   0.227
14740TIP3    H144161   4.476   5.151   0.285
14740TIP3    H244162   4.392   5.275   0.267
14741TIP3   OH244163   1.564   1.346   4.504
14741TIP3    H144164   1.589   1.284   4.434
14741TIP3    H244165   1.490   1.393   4.468
14742TIP3   OH244166   3.763   0.248   3.466
14742TIP3    H144167   3.775   0.170   3.413
14742TIP3    H244168   3.739   0.316   3.403
14743TIP3   OH244169   1.257   6.617   4.892
14743TIP3    H144170   1.241   6.708   4.916
14743TIP3    H244171   1.236   6.567   4.971
14744TIP3   OH244172   7.986   3.617   1.064
14744TIP3    H144173   8.021   3.674   1.133
14744TIP3    H244174   7.921   3.563   1.109
14745TIP3   OH244175   0.925   6.570   3.530
14745TIP3    H144176   1.007   6.604   3.495
14745TIP3    H244177   0.888   6.517   3.459
14746TIP3   OH244178   1.008   7.844   0.407
14746TIP3    H144179   1.003   7.907   0.478
14746TIP3    H244180   1.073   7.880   0.347
14747TIP3   OH244181   7.994   4.020   5.640
14747TIP3    H144182   8.049   4.097   5.654
14747TIP3    H244183   7.914   4.054   5.599
14748TIP3   OH244184   7.539   4.281   5.014
14748TIP3    H144185   7.483   4.354   5.040
14748TIP3    H244186   7.502   4.205   5.059
14749TIP3   OH244187   4.340   5.140   5.930
14749TIP3    H144188   4.250   5.107   5.924
14749TIP3    H244189   4.363   5.164   5.840
14750TIP3   OH244190   2.536   6.083   0.785
14750TIP3    H144191   2.460   6.068   0.841
14750TIP3    H244192   2.571   5.995   0.769
14751TIP3   OH244193   2.914   5.301   5.728
14751TIP3    H144194   2.850   5.261   5.786
14751TIP3    H244195   2.908   5.395   5.747
14752TIP3   OH244196   5.876   0.971   2.243
14752TIP3    H144197   5.816   1.044   2.249
14752TIP3    H244198   5.836   0.913   2.178
14753TIP3   OH244199   1.636   4.587   1.768
14753TIP3    H144200   1.685   4.633   1.700
14753TIP3    H244201   1.660   4.632   1.850
14754TIP3   OH244202   4.004   1.714   2.269
14754TIP3    H144203   4.058   1.756   2.336
14754TIP3    H244204   4.067   1.680   2.205
14755TIP3   OH244205   7.915   3.120   2.928
14755TIP3    H144206   7.889   3.092   3.016
14755TIP3    H244207   7.965   3.200   2.943
14756TIP3   OH244208   4.347   3.560   3.962
14756TIP3    H144209   4.257   3.549   3.993
14756TIP3    H244210   4.400   3.560   4.042
14757TIP3   OH244211   3.817   3.558   4.354
14757TIP3    H144212   3.910   3.568   4.332
14757TIP3    H244213   3.815   3.554   4.450
14758TIP3   OH244214   5.860   0.603   4.546
14758TIP3    H144215   5.810   0.681   4.571
14758TIP3    H244216   5.951   0.626   4.566
14759TIP3   OH244217   5.425   0.721   5.735
14759TIP3    H144218   5.439   0.711   5.640
14759TIP3    H244219   5.391   0.636   5.763
14760TIP3   OH244220   8.254   7.292   2.651
14760TIP3    H144221   8.226   7.355   2.717
14760TIP3    H244222   8.173   7.261   2.611
14761TIP3   OH244223   2.845   7.374   2.562
14761TIP3    H144224   2.868   7.283   2.542
14761TIP3    H244225   2.837   7.377   2.657
14762TIP3   OH244226   0.955   0.727   4.790
14762TIP3    H144227   0.880   0.686   4.833
14762TIP3    H244228   0.984   0.662   4.726
14763TIP3   OH244229   7.929   4.438   1.064
14763TIP3    H144230   7.857   4.402   1.116
14763TIP3    H244231   8.008   4.414   1.113
14764TIP3   OH244232   0.749   4.020   3.334
14764TIP3    H144233   0.822   3.960   3.350
14764TIP3    H244234   0.695   3.975   3.269
14765TIP3   OH244235   4.361   6.147   6.205
14765TIP3    H144236   4.284   6.195   6.174
14765TIP3    H244237   4.400   6.111   6.125
14766TIP3   OH244238   2.199   2.404   2.075
14766TIP3    H144239   2.283   2.450   2.075
14766TIP3    H244240   2.153   2.439   1.998
14767TIP3   OH244241   1.661   3.143   3.172
14767TIP3    H144242   1.595   3.206   3.143
14767TIP3    H244243   1.611   3.070   3.208
14768TIP3   OH244244   2.040   4.014   3.870
14768TIP3    H144245   2.080   4.046   3.951
14768TIP3    H244246   1.967   4.074   3.854
14769TIP3   OH244247   7.388   5.121   0.448
14769TIP3    H144248   7.422   5.049   0.501
14769TIP3    H244249   7.466   5.172   0.423
14770TIP3   OH244250   1.580   1.301   4.236
14770TIP3    H144251   1.623   1.384   4.212
14770TIP3    H244252   1.487   1.316   4.217
14771TIP3   OH244253   1.713   5.624   6.295
14771TIP3    H144254   1.707   5.711   6.334
14771TIP3    H244255   1.747   5.569   6.366
14772TIP3   OH244256   5.367   2.440   1.891
14772TIP3    H144257   5.432   2.510   1.896
14772TIP3    H244258   5.370   2.399   1.977
14773TIP3   OH244259   2.108   4.250   3.192
14773TIP3    H144260   2.060   4.193   3.131
14773TIP3    H244261   2.164   4.191   3.241
14774TIP3   OH244262   6.240   1.405   2.192
14774TIP3    H144263   6.189   1.442   2.264
14774TIP3    H244264   6.328   1.394   2.227
14775TIP3   OH244265   7.597   6.249   3.048
14775TIP3    H144266   7.519   6.245   3.104
14775TIP3    H244267   7.671   6.248   3.109
14776TIP3   OH244268   5.081   0.473   1.272
14776TIP3    H144269   5.050   0.514   1.353
14776TIP3    H244270   5.091   0.546   1.211
14777TIP3   OH244271   6.654   2.214   5.092
14777TIP3    H144272   6.725   2.196   5.153
14777TIP3    H244273   6.690   2.192   5.006
14778TIP3   OH244274   5.961   4.249   1.310
14778TIP3    H144275   5.879   4.240   1.358
14778TIP3    H244276   5.958   4.337   1.273
14779TIP3   OH244277   8.111   3.698   1.724
14779TIP3    H144278   8.185   3.737   1.771
14779TIP3    H244279   8.123   3.604   1.734
14780TIP3   OH244280   4.257   1.903   5.665
14780TIP3    H144281   4.292   1.984   5.702
14780TIP3    H244282   4.208   1.931   5.588
14781TIP3   OH244283   6.261   3.678   1.868
14781TIP3    H144284   6.299   3.765   1.871
14781TIP3    H244285   6.182   3.688   1.815
14782TIP3   OH244286   3.902   6.549   5.662
14782TIP3    H144287   3.947   6.588   5.737
14782TIP3    H244288   3.928   6.603   5.588
14783TIP3   OH244289   2.781   3.576   4.566
14783TIP3    H144290   2.698   3.622   4.580
14783TIP3    H244291   2.760   3.508   4.502
14784TIP3   OH244292   6.998   4.752   0.696
14784TIP3    H144293   6.914   4.746   0.742
14784TIP3    H244294   7.060   4.782   0.763
14785TIP3   OH244295   1.969   6.989   0.865
14785TIP3    H144296   1.920   6.961   0.943
14785TIP3    H244297   2.035   6.921   0.853
14786TIP3   OH244298   2.957   1.705   5.379
14786TIP3    H144299   3.045   1.668   5.387
14786TIP3    H244300   2.946   1.757   5.459
14787TIP3   OH244301   0.323   0.122   0.475
14787TIP3    H144302   0.409   0.082   0.463
14787TIP3    H244303   0.267   0.051   0.505
14788TIP3   OH244304   7.023   4.295   2.658
14788TIP3    H144305   6.956   4.259   2.716
14788TIP3    H244306   7.014   4.246   2.577
14789TIP3   OH244307   2.008   2.144   5.764
14789TIP3    H144308   2.062   2.100   5.830
14789TIP3    H244309   2.070   2.175   5.699
14790TIP3   OH244310   2.623   1.212   3.601
14790TIP3    H144311   2.585   1.196   3.515
14790TIP3    H244312   2.716   1.197   3.589
14791TIP3   OH244313   5.717   1.772   2.652
14791TIP3    H144314   5.638   1.774   2.706
14791TIP3    H244315   5.693   1.820   2.572
14792TIP3   OH244316   0.997   3.475   1.066
14792TIP3    H144317   1.056   3.519   1.127
14792TIP3    H244318   0.910   3.499   1.095
14793TIP3   OH244319   0.195   6.923   3.262
14793TIP3    H144320   0.150   6.858   3.317
14793TIP3    H244321   0.255   6.871   3.208
14794TIP3   OH244322   6.728   5.518   6.458
14794TIP3    H144323   6.688   5.456   6.397
14794TIP3    H244324   6.751   5.594   6.403
14795TIP3   OH244325   5.110   6.971   5.248
14795TIP3    H144326   5.163   6.950   5.172
14795TIP3    H244327   5.109   6.891   5.300
14796TIP3   OH244328   7.932   4.123   0.535
14796TIP3    H144329   7.943   4.078   0.619
14796TIP3    H244330   7.923   4.052   0.472
14797TIP3   OH244331   2.150   1.813   5.374
14797TIP3    H144332   2.188   1.895   5.406
14797TIP3    H244333   2.154   1.821   5.278
14798TIP3   OH244334   4.097   5.848   5.701
14798TIP3    H144335   4.172   5.861   5.759
14798TIP3    H244336   4.048   5.929   5.706
14799TIP3   OH244337   7.844   3.868   0.897
14799TIP3    H144338   7.890   3.791   0.930
14799TIP3    H244339   7.763   3.871   0.948
14800TIP3   OH244340   3.845   2.479   4.383
14800TIP3    H144341   3.778   2.523   4.437
14800TIP3    H244342   3.904   2.439   4.447
14801TIP3   OH244343   4.228   5.999   2.180
14801TIP3    H144344   4.262   5.910   2.195
14801TIP3    H244345   4.223   6.006   2.085
14802TIP3   OH244346   1.563   6.166   4.260
14802TIP3    H144347   1.560   6.159   4.165
14802TIP3    H244348   1.569   6.260   4.277
14803TIP3   OH244349   3.318   6.431   5.450
14803TIP3    H144350   3.359   6.367   5.508
14803TIP3    H244351   3.288   6.380   5.375
14804TIP3   OH244352   6.354   0.477   2.560
14804TIP3    H144353   6.412   0.458   2.486
14804TIP3    H244354   6.321   0.392   2.588
14805TIP3   OH244355   1.603   2.871   0.294
14805TIP3    H144356   1.524   2.907   0.334
14805TIP3    H244357   1.658   2.845   0.368
14806TIP3   OH244358   1.503   7.675   0.328
14806TIP3    H144359   1.490   7.627   0.410
14806TIP3    H244360   1.584   7.724   0.342
14807TIP3   OH244361   4.004   2.877   5.234
14807TIP3    H144362   4.020   2.949   5.173
14807TIP3    H244363   3.944   2.913   5.299
14808TIP3   OH244364   2.539   5.223   2.150
14808TIP3    H144365   2.519   5.316   2.153
14808TIP3    H244366   2.506   5.194   2.065
14809TIP3   OH244367   3.150   6.171   1.257
14809TIP3    H144368   3.133   6.134   1.171
14809TIP3    H244369   3.199   6.252   1.239
14810TIP3   OH244370   6.804   0.338   1.446
14810TIP3    H144371   6.843   0.256   1.414
14810TIP3    H244372   6.734   0.310   1.504
14811TIP3   OH244373   5.609   1.951   4.076
14811TIP3    H144374   5.524   1.994   4.086
14811TIP3    H244375   5.655   1.967   4.159
14812TIP3   OH244376   2.491   4.894   0.883
14812TIP3    H144377   2.442   4.820   0.847
14812TIP3    H244378   2.444   4.917   0.963
14813TIP3   OH244379   6.816   0.666   4.400
14813TIP3    H144380   6.805   0.760   4.389
14813TIP3    H244381   6.794   0.629   4.315
14814TIP3   OH244382   4.606   3.045   4.360
14814TIP3    H144383   4.624   3.091   4.278
14814TIP3    H244384   4.687   2.998   4.379
14815TIP3   OH244385   0.847   6.916   0.802
14815TIP3    H144386   0.852   6.970   0.881
14815TIP3    H244387   0.811   6.833   0.832
14816TIP3   OH244388   4.270   4.749   2.759
14816TIP3    H144389   4.331   4.696   2.708
14816TIP3    H244390   4.200   4.689   2.783
14817TIP3   OH244391   4.986   2.477   2.191
14817TIP3    H144392   5.061   2.475   2.250
14817TIP3    H244393   5.022   2.506   2.107
14818TIP3   OH244394   3.240   2.546   3.976
14818TIP3    H144395   3.151   2.512   3.989
14818TIP3    H244396   3.282   2.481   3.919
14819TIP3   OH244397   8.332   5.446   1.969
14819TIP3    H144398   8.250   5.472   2.009
14819TIP3    H244399   8.361   5.523   1.921
14820TIP3   OH244400   3.311   6.772   2.726
14820TIP3    H144401   3.300   6.780   2.820
14820TIP3    H244402   3.277   6.685   2.705
14821TIP3   OH244403   5.977   1.388   5.418
14821TIP3    H144404   5.919   1.458   5.449
14821TIP3    H244405   5.928   1.308   5.434
14822TIP3   OH244406   4.992   2.932   6.646
14822TIP3    H144407   4.955   2.879   6.716
14822TIP3    H244408   4.966   2.887   6.565
14823TIP3   OH244409   0.459   7.638   1.156
14823TIP3    H144410   0.423   7.671   1.238
14823TIP3    H244411   0.548   7.672   1.153
14824TIP3   OH244412   3.740   7.896   3.051
14824TIP3    H144413   3.695   7.916   2.969
14824TIP3    H244414   3.812   7.959   3.055
14825TIP3   OH244415   5.307   4.435   0.918
14825TIP3    H144416   5.224   4.460   0.877
14825TIP3    H244417   5.363   4.511   0.908
14826TIP3   OH244418   7.716   4.340   5.283
14826TIP3    H144419   7.631   4.344   5.240
14826TIP3    H244420   7.774   4.299   5.219
14827TIP3   OH244421   4.954   0.852   6.317
14827TIP3    H144422   4.862   0.875   6.314
14827TIP3    H244423   4.991   0.909   6.385
14828TIP3   OH244424   4.911   1.225   3.012
14828TIP3    H144425   4.999   1.191   3.025
14828TIP3    H244426   4.863   1.154   2.970
14829TIP3   OH244427   3.938   2.023   5.567
14829TIP3    H144428   3.871   1.968   5.526
14829TIP3    H244429   4.021   1.986   5.536
14830TIP3   OH244430   1.655   0.646   1.977
14830TIP3    H144431   1.730   0.590   1.956
14830TIP3    H244432   1.659   0.656   2.072
14831TIP3   OH244433   1.867   7.341   6.027
14831TIP3    H144434   1.837   7.284   6.097
14831TIP3    H244435   1.910   7.414   6.072
14832TIP3   OH244436   5.564   3.622   4.246
14832TIP3    H144437   5.576   3.531   4.220
14832TIP3    H244438   5.469   3.636   4.241
14833TIP3   OH244439   1.266   0.393   0.275
14833TIP3    H144440   1.198   0.443   0.320
14833TIP3    H244441   1.225   0.308   0.258
14834TIP3   OH244442   3.619   0.994   2.395
14834TIP3    H144443   3.707   1.031   2.385
14834TIP3    H244444   3.635   0.907   2.433
14835TIP3   OH244445   4.770   7.103   5.387
14835TIP3    H144446   4.776   7.113   5.482
14835TIP3    H244447   4.739   7.013   5.374
14836TIP3   OH244448   3.899   7.297   6.055
14836TIP3    H144449   3.827   7.267   6.110
14836TIP3    H244450   3.906   7.231   5.986
14837TIP3   OH244451   3.119   0.165   5.453
14837TIP3    H144452   3.120   0.220   5.532
14837TIP3    H244453   3.126   0.227   5.380
14838TIP3   OH244454   5.160   7.702   5.578
14838TIP3    H144455   5.118   7.736   5.657
14838TIP3    H244456   5.166   7.777   5.520
14839TIP3   OH244457   2.604   4.244   6.166
14839TIP3    H144458   2.563   4.268   6.249
14839TIP3    H244459   2.690   4.286   6.170
14840TIP3   OH244460   2.626   4.643   6.641
14840TIP3    H144461   2.641   4.708   6.710
14840TIP3    H244462   2.531   4.628   6.642
14841TIP3   OH244463   2.660   3.842   5.899
14841TIP3    H144464   2.738   3.891   5.876
14841TIP3    H244465   2.641   3.867   5.990
14842TIP3   OH244466   0.214   5.404   4.458
14842TIP3    H144467   0.137   5.423   4.511
14842TIP3    H244468   0.273   5.478   4.473
14843TIP3   OH244469   1.853   4.204   3.781
14843TIP3    H144470   1.782   4.234   3.838
14843TIP3    H244471   1.811   4.184   3.698
14844TIP3   OH244472   6.421   5.488   3.828
14844TIP3    H144473   6.389   5.428   3.895
14844TIP3    H244474   6.509   5.457   3.807
14845TIP3   OH244475   8.327   4.832   1.008
14845TIP3    H144476   8.302   4.805   1.097
14845TIP3    H244477   8.264   4.788   0.951
14846TIP3   OH244478   2.923   6.977   0.290
14846TIP3    H144479   2.851   6.915   0.294
14846TIP3    H244480   2.882   7.063   0.302
14847TIP3   OH244481   7.164   2.074   1.132
14847TIP3    H144482   7.254   2.083   1.162
14847TIP3    H244483   7.114   2.132   1.190
14848TIP3   OH244484   4.873   7.189   6.613
14848TIP3    H144485   4.826   7.271   6.605
14848TIP3    H244486   4.806   7.121   6.599
14849TIP3   OH244487   7.948   6.154   0.326
14849TIP3    H144488   7.953   6.244   0.357
14849TIP3    H244489   7.958   6.101   0.404
14850TIP3   OH244490   5.165   0.650   1.895
14850TIP3    H144491   5.156   0.699   1.814
14850TIP3    H244492   5.209   0.711   1.955
14851TIP3   OH244493   3.857   1.423   1.339
14851TIP3    H144494   3.808   1.425   1.257
14851TIP3    H244495   3.797   1.459   1.404
14852TIP3   OH244496   5.859   4.501   6.164
14852TIP3    H144497   5.894   4.520   6.251
14852TIP3    H244498   5.934   4.475   6.112
14853TIP3   OH244499   7.772   0.085   3.908
14853TIP3    H144500   7.822   0.045   3.837
14853TIP3    H244501   7.723   0.156   3.866
14854TIP3   OH244502   5.604   2.463   5.099
14854TIP3    H144503   5.623   2.519   5.024
14854TIP3    H244504   5.570   2.523   5.166
14855TIP3   OH244505   7.857   3.246   1.652
14855TIP3    H144506   7.797   3.281   1.586
14855TIP3    H244507   7.844   3.302   1.729
14856TIP3   OH244508   5.223   0.489   5.652
14856TIP3    H144509   5.174   0.570   5.669
14856TIP3    H244510   5.167   0.420   5.688
14857TIP3   OH244511   2.672   7.607   2.965
14857TIP3    H144512   2.646   7.610   2.873
14857TIP3    H244513   2.595   7.573   3.011
14858TIP3   OH244514   0.014   0.260   5.313
14858TIP3    H144515   0.047   0.208   5.386
14858TIP3    H244516  -0.038   0.199   5.261
14859TIP3   OH244517   7.353   2.290   3.165
14859TIP3    H144518   7.429   2.233   3.179
14859TIP3    H244519   7.280   2.245   3.208
14860TIP3   OH244520   7.571   7.467   0.781
14860TIP3    H144521   7.652   7.438   0.740
14860TIP3    H244522   7.547   7.547   0.734
14861TIP3   OH244523   0.056   1.138   2.793
14861TIP3    H144524   0.059   1.049   2.829
14861TIP3    H244525   0.077   1.126   2.701
14862TIP3   OH244526   5.568   5.734   5.379
14862TIP3    H144527   5.586   5.794   5.307
14862TIP3    H244528   5.481   5.698   5.359
14863TIP3   OH244529   5.699   7.776   4.026
14863TIP3    H144530   5.761   7.724   3.975
14863TIP3    H244531   5.620   7.780   3.971
14864TIP3   OH244532   3.327   0.609   6.277
14864TIP3    H144533   3.277   0.536   6.241
14864TIP3    H244534   3.261   0.673   6.305
14865TIP3   OH244535   1.449   7.568   4.962
14865TIP3    H144536   1.412   7.500   4.906
14865TIP3    H244537   1.544   7.556   4.955
14866TIP3   OH244538   3.974   5.169   3.470
14866TIP3    H144539   3.967   5.104   3.540
14866TIP3    H244540   4.017   5.123   3.398
14867TIP3   OH244541   5.139   1.631   6.273
14867TIP3    H144542   5.070   1.651   6.337
14867TIP3    H244543   5.204   1.582   6.323
14868TIP3   OH244544   0.783   2.973   0.269
14868TIP3    H144545   0.734   3.054   0.281
14868TIP3    H244546   0.746   2.934   0.190
14869TIP3   OH244547   2.084   0.516   0.828
14869TIP3    H144548   2.136   0.595   0.843
14869TIP3    H244549   1.998   0.550   0.802
14870TIP3   OH244550   7.848   3.123   0.800
14870TIP3    H144551   7.812   3.139   0.713
14870TIP3    H244552   7.850   3.028   0.808
14871TIP3   OH244553   0.053   3.218   3.446
14871TIP3    H144554  -0.020   3.205   3.506
14871TIP3    H244555   0.129   3.184   3.494
14872TIP3   OH244556   2.073   1.012   1.466
14872TIP3    H144557   2.087   1.082   1.530
14872TIP3    H244558   2.132   0.942   1.492
14873TIP3   OH244559   0.914   4.587   4.566
14873TIP3    H144560   0.827   4.625   4.580
14873TIP3    H244561   0.964   4.656   4.523
14874TIP3   OH244562   1.337   2.503   3.137
14874TIP3    H144563   1.305   2.423   3.095
14874TIP3    H244564   1.359   2.477   3.227
14875TIP3   OH244565   4.467   5.868   1.344
14875TIP3    H144566   4.553   5.841   1.315
14875TIP3    H244567   4.483   5.942   1.403
14876TIP3   OH244568   5.179   2.883   6.292
14876TIP3    H144569   5.117   2.954   6.308
14876TIP3    H244570   5.265   2.924   6.304
14877TIP3   OH244571   1.537   2.675   1.791
14877TIP3    H144572   1.499   2.601   1.744
14877TIP3    H244573   1.477   2.748   1.775
14878TIP3   OH244574   7.745   4.015   1.933
14878TIP3    H144575   7.673   3.958   1.906
14878TIP3    H244576   7.809   3.956   1.972
14879TIP3   OH244577   8.064   0.389   0.475
14879TIP3    H144578   7.989   0.340   0.441
14879TIP3    H244579   8.034   0.479   0.479
14880TIP3   OH244580   5.759   3.630   5.523
14880TIP3    H144581   5.833   3.635   5.584
14880TIP3    H244582   5.797   3.598   5.442
14881TIP3   OH244583   2.540   7.253   3.770
14881TIP3    H144584   2.586   7.286   3.847
14881TIP3    H244585   2.600   7.190   3.731
14882TIP3   OH244586   0.892   4.717   4.857
14882TIP3    H144587   0.929   4.633   4.828
14882TIP3    H244588   0.809   4.693   4.898
14883TIP3   OH244589   5.873   3.239   5.582
14883TIP3    H144590   5.928   3.316   5.564
14883TIP3    H244591   5.884   3.184   5.504
14884TIP3   OH244592   4.011   7.352   1.629
14884TIP3    H144593   4.064   7.283   1.591
14884TIP3    H244594   3.949   7.376   1.560
14885TIP3   OH244595   2.805   0.797   6.329
14885TIP3    H144596   2.816   0.880   6.376
14885TIP3    H244597   2.773   0.824   6.242
14886TIP3   OH244598   6.150   0.606   1.911
14886TIP3    H144599   6.212   0.553   1.961
14886TIP3    H244600   6.103   0.543   1.857
14887TIP3   OH244601   1.403   3.928   5.222
14887TIP3    H144602   1.350   3.849   5.237
14887TIP3    H244603   1.349   4.000   5.254
14888TIP3   OH244604   4.206   1.903   4.175
14888TIP3    H144605   4.235   1.812   4.185
14888TIP3    H244606   4.151   1.919   4.251
14889TIP3   OH244607   3.401   4.685   6.672
14889TIP3    H144608   3.414   4.669   6.579
14889TIP3    H244609   3.490   4.691   6.708
14890TIP3   OH244610   7.847   4.391   4.391
14890TIP3    H144611   7.861   4.447   4.467
14890TIP3    H244612   7.754   4.399   4.371
14891TIP3   OH244613   2.057   3.265   1.847
14891TIP3    H144614   2.040   3.232   1.758
14891TIP3    H244615   1.970   3.292   1.879
14892TIP3   OH244616   5.465   4.466   3.515
14892TIP3    H144617   5.375   4.485   3.491
14892TIP3    H244618   5.470   4.370   3.517
14893TIP3   OH244619   5.875   5.087   0.995
14893TIP3    H144620   5.912   5.038   1.069
14893TIP3    H244621   5.921   5.052   0.918
14894TIP3   OH244622   0.343   6.392   4.035
14894TIP3    H144623   0.399   6.422   4.106
14894TIP3    H244624   0.375   6.439   3.958
14895TIP3   OH244625   5.221   5.165   4.521
14895TIP3    H144626   5.231   5.073   4.496
14895TIP3    H244627   5.206   5.211   4.438
14896TIP3   OH244628   8.237   5.651   0.099
14896TIP3    H144629   8.187   5.570   0.090
14896TIP3    H244630   8.175   5.720   0.074
14897TIP3   OH244631   5.882   6.157   0.611
14897TIP3    H144632   5.958   6.158   0.670
14897TIP3    H244633   5.907   6.216   0.540
14898TIP3   OH244634   2.102   2.195   0.319
14898TIP3    H144635   2.050   2.114   0.320
14898TIP3    H244636   2.063   2.247   0.249
14899TIP3   OH244637   2.042   6.440   1.952
14899TIP3    H144638   2.083   6.493   2.020
14899TIP3    H244639   2.115   6.402   1.903
14900TIP3   OH244640   5.767   4.590   6.456
14900TIP3    H144641   5.789   4.509   6.502
14900TIP3    H244642   5.812   4.659   6.504
14901TIP3   OH244643   5.184   7.601   6.237
14901TIP3    H144644   5.255   7.602   6.172
14901TIP3    H244645   5.220   7.649   6.312
14902TIP3   OH244646   2.481   6.307   3.309
14902TIP3    H144647   2.458   6.364   3.235
14902TIP3    H244648   2.524   6.365   3.371
14903TIP3   OH244649   5.692   7.824  -0.031
14903TIP3    H144650   5.690   7.848   0.062
14903TIP3    H244651   5.730   7.736  -0.031
14904TIP3   OH244652   5.588   2.654   1.808
14904TIP3    H144653   5.559   2.628   1.721
14904TIP3    H244654   5.544   2.737   1.825
14905TIP3   OH244655   3.056   5.737   3.512
14905TIP3    H144656   3.011   5.678   3.572
14905TIP3    H244657   3.013   5.822   3.524
14906TIP3   OH244658   2.340   3.598   0.269
14906TIP3    H144659   2.400   3.607   0.195
14906TIP3    H244660   2.383   3.644   0.341
14907TIP3   OH244661   6.693   5.354   2.929
14907TIP3    H144662   6.735   5.380   2.847
14907TIP3    H244663   6.713   5.260   2.936
14908TIP3   OH244664   3.921   1.124   1.383
14908TIP3    H144665   3.915   1.218   1.362
14908TIP3    H244666   3.833   1.101   1.411
14909TIP3   OH244667   6.759   3.486   0.680
14909TIP3    H144668   6.780   3.413   0.737
14909TIP3    H244669   6.692   3.452   0.621
14910TIP3   OH244670   5.400   3.607   0.935
14910TIP3    H144671   5.399   3.669   0.862
14910TIP3    H244672   5.475   3.634   0.988
14911TIP3   OH244673   5.497   1.438   6.143
14911TIP3    H144674   5.409   1.475   6.139
14911TIP3    H244675   5.552   1.510   6.174
14912TIP3   OH244676   7.651   3.602   3.933
14912TIP3    H144677   7.634   3.542   3.861
14912TIP3    H244678   7.672   3.545   4.007
14913TIP3   OH244679   6.388   6.455   3.866
14913TIP3    H144680   6.461   6.456   3.804
14913TIP3    H244681   6.430   6.452   3.952
14914TIP3   OH244682   5.147   6.337   0.002
14914TIP3    H144683   5.156   6.288   0.084
14914TIP3    H244684   5.200   6.416   0.016
14915TIP3   OH244685   3.950   4.779   5.473
14915TIP3    H144686   3.950   4.725   5.552
14915TIP3    H244687   4.031   4.830   5.480
14916TIP3   OH244688   3.361   5.434   5.763
14916TIP3    H144689   3.332   5.367   5.701
14916TIP3    H244690   3.281   5.465   5.804
14917TIP3   OH244691   5.762   1.912   0.231
14917TIP3    H144692   5.766   2.002   0.197
14917TIP3    H244693   5.792   1.857   0.158
14918TIP3   OH244694   4.759   5.928   1.639
14918TIP3    H144695   4.819   5.934   1.564
14918TIP3    H244696   4.676   5.962   1.606
14919TIP3   OH244697   0.608   1.482   4.690
14919TIP3    H144698   0.559   1.446   4.616
14919TIP3    H244699   0.694   1.440   4.685
14920TIP3   OH244700   4.549   1.387   0.886
14920TIP3    H144701   4.465   1.394   0.841
14920TIP3    H244702   4.553   1.297   0.916
14921TIP3   OH244703   2.333   5.796   2.641
14921TIP3    H144704   2.286   5.716   2.664
14921TIP3    H244705   2.425   5.774   2.653
14922TIP3   OH244706   5.794   4.713   5.038
14922TIP3    H144707   5.722   4.657   5.070
14922TIP3    H244708   5.750   4.785   4.992
14923TIP3   OH244709   8.048   4.015   5.000
14923TIP3    H144710   8.109   4.049   4.934
14923TIP3    H244711   8.084   3.930   5.025
14924TIP3   OH244712   1.751   3.802   6.349
14924TIP3    H144713   1.838   3.786   6.310
14924TIP3    H244714   1.754   3.755   6.432
14925TIP3   OH244715   2.599   3.896   2.248
14925TIP3    H144716   2.634   3.885   2.159
14925TIP3    H244717   2.532   3.964   2.238
14926TIP3   OH244718   4.490   3.937   3.781
14926TIP3    H144719   4.403   3.919   3.748
14926TIP3    H244720   4.480   3.939   3.876
14927TIP3   OH244721   0.058   2.194   2.327
14927TIP3    H144722   0.121   2.142   2.276
14927TIP3    H244723   0.061   2.156   2.415
14928TIP3   OH244724   4.426   1.790   0.950
14928TIP3    H144725   4.392   1.751   1.031
14928TIP3    H244726   4.358   1.772   0.885
14929TIP3   OH244727   3.090   4.390   0.015
14929TIP3    H144728   3.077   4.297   0.037
14929TIP3    H244729   3.104   4.433   0.099
14930TIP3   OH244730   0.837   2.631   6.395
14930TIP3    H144731   0.776   2.705   6.400
14930TIP3    H244732   0.885   2.646   6.313
14931TIP3   OH244733   4.749   0.993   3.185
14931TIP3    H144734   4.776   0.902   3.190
14931TIP3    H244735   4.665   0.991   3.140
14932TIP3   OH244736   2.180   5.144   2.296
14932TIP3    H144737   2.232   5.202   2.351
14932TIP3    H244738   2.216   5.155   2.208
14933TIP3   OH244739   2.676   2.849   6.646
14933TIP3    H144740   2.599   2.793   6.631
14933TIP3    H244741   2.665   2.921   6.585
14934TIP3   OH244742   0.708   4.024   5.338
14934TIP3    H144743   0.723   4.063   5.424
14934TIP3    H244744   0.671   4.094   5.285
14935TIP3   OH244745   3.870   1.310   6.439
14935TIP3    H144746   3.853   1.295   6.532
14935TIP3    H244747   3.795   1.272   6.395
14936TIP3   OH244748   6.965   3.843   2.366
14936TIP3    H144749   7.020   3.892   2.427
14936TIP3    H244750   7.022   3.825   2.291
14937TIP3   OH244751   0.442   4.295   6.201
14937TIP3    H144752   0.475   4.322   6.287
14937TIP3    H244753   0.371   4.234   6.221
14938TIP3   OH244754   6.174   7.149   0.454
14938TIP3    H144755   6.115   7.135   0.528
14938TIP3    H244756   6.127   7.209   0.396
14939TIP3   OH244757   2.818   4.478   3.462
14939TIP3    H144758   2.752   4.537   3.500
14939TIP3    H244759   2.768   4.419   3.406
14940TIP3   OH244760   5.006   7.567   2.378
14940TIP3    H144761   5.010   7.662   2.370
14940TIP3    H244762   5.069   7.547   2.448
14941TIP3   OH244763   5.118   1.280   1.821
14941TIP3    H144764   5.103   1.316   1.909
14941TIP3    H244765   5.069   1.338   1.763
14942TIP3   OH244766   0.455   6.203   6.630
14942TIP3    H144767   0.525   6.182   6.567
14942TIP3    H244768   0.445   6.298   6.623
14943TIP3   OH244769   5.664   0.466   5.625
14943TIP3    H144770   5.588   0.446   5.571
14943TIP3    H244771   5.632   0.466   5.715
14944TIP3   OH244772   6.934   7.053   4.226
14944TIP3    H144773   6.856   7.001   4.205
14944TIP3    H244774   6.988   6.994   4.279
14945TIP3   OH244775   3.593   4.788   4.105
14945TIP3    H144776   3.688   4.788   4.095
14945TIP3    H244777   3.559   4.787   4.016
14946TIP3   OH244778   1.371   2.822   4.314
14946TIP3    H144779   1.456   2.829   4.356
14946TIP3    H244780   1.311   2.797   4.385
14947TIP3   OH244781   1.905   6.054   4.022
14947TIP3    H144782   1.975   6.078   3.961
14947TIP3    H244783   1.825   6.068   3.972
14948TIP3   OH244784   0.855   4.418   1.995
14948TIP3    H144785   0.895   4.335   1.969
14948TIP3    H244786   0.888   4.482   1.933
14949TIP3   OH244787   1.656   1.947   0.170
14949TIP3    H144788   1.742   1.906   0.166
14949TIP3    H244789   1.670   2.035   0.137
14950TIP3   OH244790   4.150   6.205   4.265
14950TIP3    H144791   4.214   6.138   4.289
14950TIP3    H244792   4.072   6.183   4.316
14951TIP3   OH244793   8.171   0.861   5.324
14951TIP3    H144794   8.264   0.871   5.340
14951TIP3    H244795   8.163   0.856   5.229
14952TIP3   OH244796   0.138   4.744   5.232
14952TIP3    H144797   0.124   4.695   5.151
14952TIP3    H244798   0.207   4.807   5.210
14953TIP3   OH244799   5.221   7.752   0.709
14953TIP3    H144800   5.197   7.837   0.672
14953TIP3    H244801   5.316   7.758   0.722
14954TIP3   OH244802   5.116   2.683   1.002
14954TIP3    H144803   5.105   2.613   0.937
14954TIP3    H244804   5.028   2.720   1.011
14955TIP3   OH244805   2.302   7.801   3.275
14955TIP3    H144806   2.210   7.815   3.296
14955TIP3    H244807   2.343   7.887   3.291
14956TIP3   OH244808   1.928   4.328   6.602
14956TIP3    H144809   1.954   4.262   6.538
14956TIP3    H244810   1.958   4.294   6.686
14957TIP3   OH244811   7.631   6.037   0.472
14957TIP3    H144812   7.693   5.967   0.493
14957TIP3    H244813   7.548   5.991   0.455
14958TIP3   OH244814   7.608   1.579   5.469
14958TIP3    H144815   7.644   1.647   5.525
14958TIP3    H244816   7.513   1.593   5.472
14959TIP3   OH244817   6.550   1.608   2.867
14959TIP3    H144818   6.645   1.602   2.878
14959TIP3    H244819   6.516   1.531   2.914
14960TIP3   OH244820   0.583   4.559   5.225
14960TIP3    H144821   0.652   4.626   5.228
14960TIP3    H244822   0.513   4.594   5.281
14961TIP3   OH244823   5.958   5.296   3.829
14961TIP3    H144824   5.930   5.204   3.828
14961TIP3    H244825   6.010   5.305   3.909
14962TIP3   OH244826   6.735   3.077   4.893
14962TIP3    H144827   6.679   3.061   4.816
14962TIP3    H244828   6.750   3.171   4.892
14963TIP3   OH244829   0.811   6.512   0.455
14963TIP3    H144830   0.898   6.521   0.414
14963TIP3    H244831   0.750   6.511   0.381
14964TIP3   OH244832   5.795   0.941   0.016
14964TIP3    H144833   5.717   0.956  -0.038
14964TIP3    H244834   5.762   0.937   0.106
14965TIP3   OH244835   0.953   3.232   3.397
14965TIP3    H144836   0.925   3.202   3.484
14965TIP3    H244837   0.958   3.153   3.344
14966TIP3   OH244838   3.941   3.369   1.759
14966TIP3    H144839   3.896   3.357   1.676
14966TIP3    H244840   3.924   3.460   1.783
14967TIP3   OH244841   4.810   7.641   3.227
14967TIP3    H144842   4.716   7.651   3.240
14967TIP3    H244843   4.821   7.633   3.132
14968TIP3   OH244844   8.286   0.852   2.238
14968TIP3    H144845   8.223   0.892   2.178
14968TIP3    H244846   8.317   0.925   2.292
14969TIP3   OH244847   5.608   0.702   5.257
14969TIP3    H144848   5.558   0.758   5.199
14969TIP3    H244849   5.628   0.625   5.204
14970TIP3   OH244850   1.042   4.914   5.269
14970TIP3    H144851   1.020   4.935   5.360
14970TIP3    H244852   1.023   4.994   5.221
14971TIP3   OH244853   5.674   1.366   3.178
14971TIP3    H144854   5.709   1.455   3.171
14971TIP3    H244855   5.746   1.314   3.213
14972TIP3   OH244856   1.388   3.009   3.243
14972TIP3    H144857   1.363   3.096   3.212
14972TIP3    H244858   1.342   2.998   3.326
14973TIP3   OH244859   5.323   7.798   4.666
14973TIP3    H144860   5.379   7.739   4.617
14973TIP3    H244861   5.340   7.885   4.628
14974TIP3   OH244862   6.570   7.861   0.283
14974TIP3    H144863   6.530   7.775   0.296
14974TIP3    H244864   6.585   7.867   0.189
14975TIP3   OH244865   7.069   5.129   5.482
14975TIP3    H144866   6.987   5.127   5.531
14975TIP3    H244867   7.052   5.187   5.408
14976TIP3   OH244868   3.838   7.148   2.896
14976TIP3    H144869   3.898   7.174   2.825
14976TIP3    H244870   3.767   7.103   2.851
14977TIP3   OH244871   2.037   3.376   3.379
14977TIP3    H144872   1.981   3.454   3.375
14977TIP3    H244873   2.069   3.365   3.289
14978TIP3   OH244874   2.400   0.575   3.305
14978TIP3    H144875   2.461   0.648   3.295
14978TIP3    H244876   2.454   0.497   3.290
14979TIP3   OH244877   8.351   4.705   5.668
14979TIP3    H144878   8.432   4.726   5.623
14979TIP3    H244879   8.305   4.645   5.609
14980TIP3   OH244880   6.349   2.358   4.347
14980TIP3    H144881   6.406   2.428   4.315
14980TIP3    H244882   6.405   2.306   4.405
14981TIP3   OH244883   0.209   1.998   6.269
14981TIP3    H144884   0.249   1.934   6.210
14981TIP3    H244885   0.174   1.945   6.341
14982TIP3   OH244886   7.860   6.043   4.444
14982TIP3    H144887   7.783   6.100   4.449
14982TIP3    H244888   7.932   6.102   4.420
14983TIP3   OH244889   7.446   5.336   3.392
14983TIP3    H144890   7.476   5.284   3.467
14983TIP3    H244891   7.437   5.425   3.427
14984TIP3   OH244892   0.477   2.945   1.945
14984TIP3    H144893   0.551   2.960   2.004
14984TIP3    H244894   0.451   2.854   1.962
14985TIP3   OH244895   4.523   1.930   3.927
14985TIP3    H144896   4.605   1.979   3.935
14985TIP3    H244897   4.455   1.994   3.948
14986TIP3   OH244898   1.504   5.954   0.525
14986TIP3    H144899   1.561   6.022   0.560
14986TIP3    H244900   1.523   5.877   0.578
14987TIP3   OH244901   8.226   3.625   2.067
14987TIP3    H144902   8.202   3.658   2.154
14987TIP3    H244903   8.243   3.704   2.016
14988TIP3   OH244904   3.150   4.686   4.049
14988TIP3    H144905   3.080   4.706   4.111
14988TIP3    H244906   3.197   4.612   4.088
14989TIP3   OH244907   2.049   4.790   6.568
14989TIP3    H144908   1.977   4.834   6.613
14989TIP3    H244909   2.090   4.858   6.515
14990TIP3   OH244910   6.719   0.817   1.720
14990TIP3    H144911   6.758   0.802   1.806
14990TIP3    H244912   6.651   0.750   1.713
14991TIP3   OH244913   6.171   6.573   6.671
14991TIP3    H144914   6.209   6.490   6.643
14991TIP3    H244915   6.159   6.623   6.591
14992TIP3   OH244916   2.172   6.110   3.552
14992TIP3    H144917   2.171   6.180   3.616
14992TIP3    H244918   2.090   6.120   3.503
14993TIP3   OH244919   7.519   3.456   0.168
14993TIP3    H144920   7.465   3.436   0.092
14993TIP3    H244921   7.466   3.519   0.219
14994TIP3   OH244922   7.302   3.288   0.859
14994TIP3    H144923   7.297   3.383   0.864
14994TIP3    H244924   7.314   3.269   0.766
14995TIP3   OH244925   2.549   3.955   3.346
14995TIP3    H144926   2.642   3.974   3.337
14995TIP3    H244927   2.505   4.036   3.318
14996TIP3   OH244928   4.419   0.391   2.222
14996TIP3    H144929   4.465   0.342   2.154
14996TIP3    H244930   4.488   0.441   2.266
14997TIP3   OH244931   8.095   4.023   3.768
14997TIP3    H144932   8.089   3.929   3.786
14997TIP3    H244933   8.099   4.028   3.672
14998TIP3   OH244934   6.956   7.275   4.035
14998TIP3    H144935   6.934   7.223   4.112
14998TIP3    H244936   6.900   7.353   4.041
14999TIP3   OH244937   5.716   0.532   3.724
14999TIP3    H144938   5.642   0.472   3.737
14999TIP3    H244939   5.781   0.504   3.789
15000TIP3   OH244940   7.373   1.335   3.948
15000TIP3    H144941   7.282   1.363   3.940
15000TIP3    H244942   7.368   1.240   3.954
15001TIP3   OH244943   3.464   2.256   4.023
15001TIP3    H144944   3.417   2.179   4.053
15001TIP3    H244945   3.431   2.272   3.935
15002TIP3   OH244946   8.298   2.282   0.415
15002TIP3    H144947   8.299   2.358   0.472
15002TIP3    H244948   8.389   2.250   0.416
15003TIP3   OH244949   3.849   1.660   0.041
15003TIP3    H144950   3.810   1.594   0.099
15003TIP3    H244951   3.816   1.743   0.074
15004TIP3   OH244952   4.604   3.450   5.725
15004TIP3    H144953   4.585   3.530   5.677
15004TIP3    H244954   4.626   3.386   5.658
15005TIP3   OH244955   3.932   1.740   1.397
15005TIP3    H144956   3.985   1.712   1.322
15005TIP3    H244957   3.958   1.682   1.468
15006TIP3   OH244958   6.622   4.086   4.808
15006TIP3    H144959   6.679   4.098   4.884
15006TIP3    H244960   6.547   4.143   4.825
15007TIP3   OH244961   7.788   3.599   0.103
15007TIP3    H144962   7.701   3.564   0.082
15007TIP3    H244963   7.797   3.587   0.197
15008TIP3   OH244964   3.299   3.693   5.729
15008TIP3    H144965   3.235   3.638   5.683
15008TIP3    H244966   3.366   3.632   5.759
15009TIP3   OH244967   0.962   4.327   4.423
15009TIP3    H144968   0.894   4.262   4.442
15009TIP3    H244969   0.941   4.400   4.481
15010TIP3   OH244970   0.383   7.280   4.390
15010TIP3    H144971   0.429   7.200   4.364
15010TIP3    H244972   0.337   7.256   4.470
15011TIP3   OH244973   6.794   5.337   2.298
15011TIP3    H144974   6.713   5.314   2.253
15011TIP3    H244975   6.794   5.283   2.378
15012TIP3   OH244976   3.143   5.288   2.347
15012TIP3    H144977   3.082   5.217   2.330
15012TIP3    H244978   3.211   5.248   2.401
15013TIP3   OH244979   7.725   7.567   1.309
15013TIP3    H144980   7.767   7.502   1.253
15013TIP3    H244981   7.705   7.640   1.250
15014TIP3   OH244982   3.141   7.757   6.869
15014TIP3    H144983   3.155   7.727   6.779
15014TIP3    H244984   3.223   7.800   6.893
15015TIP3   OH244985   0.653   3.746   5.629
15015TIP3    H144986   0.597   3.822   5.643
15015TIP3    H244987   0.593   3.672   5.627
15016TIP3   OH244988   1.429   3.015   4.750
15016TIP3    H144989   1.514   3.053   4.729
15016TIP3    H244990   1.447   2.954   4.822
15017TIP3   OH244991   3.449   2.381   6.392
15017TIP3    H144992   3.451   2.389   6.297
15017TIP3    H244993   3.540   2.382   6.419
15018TIP3   OH244994   7.521   7.824   2.706
15018TIP3    H144995   7.468   7.806   2.629
15018TIP3    H244996   7.488   7.763   2.773
15019TIP3   OH244997   3.628   7.366   3.285
15019TIP3    H144998   3.690   7.413   3.341
15019TIP3    H244999   3.672   7.359   3.200
15020TIP3   OH245000   5.296   7.632   0.013
15020TIP3    H145001   5.364   7.666   0.072
15020TIP3    H245002   5.337   7.558  -0.031
15021TIP3   OH245003   3.698   2.831   4.271
15021TIP3    H145004   3.786   2.818   4.235
15021TIP3    H245005   3.639   2.795   4.204
15022TIP3   OH245006   6.924   3.541   6.393
15022TIP3    H145007   6.855   3.606   6.406
15022TIP3    H245008   6.923   3.489   6.474
15023TIP3   OH245009   7.170   4.683   3.108
15023TIP3    H145010   7.187   4.589   3.108
15023TIP3    H245011   7.258   4.722   3.106
15024TIP3   OH245012   0.240   4.777   6.418
15024TIP3    H145013   0.241   4.691   6.460
15024TIP3    H245014   0.182   4.766   6.343
15025TIP3   OH245015   7.864   5.791   6.752
15025TIP3    H145016   7.794   5.769   6.689
15025TIP3    H245017   7.893   5.706   6.785
15026TIP3   OH245018   5.138   1.506   5.272
15026TIP3    H145019   5.098   1.433   5.319
15026TIP3    H245020   5.110   1.495   5.181
15027TIP3   OH245021   8.357   0.233   3.723
15027TIP3    H145022   8.304   0.227   3.643
15027TIP3    H245023   8.439   0.187   3.701
15028TIP3   OH245024   7.651   3.314   2.998
15028TIP3    H145025   7.616   3.307   2.909
15028TIP3    H245026   7.717   3.383   2.993
15029TIP3   OH245027   2.704   4.901   1.271
15029TIP3    H145028   2.709   4.809   1.244
15029TIP3    H245029   2.792   4.935   1.258
15030TIP3   OH245030   2.028   6.278   1.333
15030TIP3    H145031   2.101   6.258   1.392
15030TIP3    H245032   2.011   6.371   1.348
15031TIP3   OH245033   0.976   4.086   1.663
15031TIP3    H145034   0.909   4.119   1.603
15031TIP3    H245035   0.971   3.991   1.654
15032TIP3   OH245036   6.374   3.097   4.944
15032TIP3    H145037   6.285   3.133   4.941
15032TIP3    H245038   6.365   3.007   4.913
15033TIP3   OH245039   4.522   4.792   1.867
15033TIP3    H145040   4.577   4.769   1.792
15033TIP3    H245041   4.583   4.806   1.939
15034TIP3   OH245042   4.395   2.408   0.226
15034TIP3    H145043   4.474   2.383   0.274
15034TIP3    H245044   4.408   2.373   0.138
15035TIP3   OH245045   8.062   3.266   5.780
15035TIP3    H145046   8.101   3.238   5.863
15035TIP3    H245047   8.023   3.351   5.800
15036TIP3   OH245048  -0.009   2.483   2.398
15036TIP3    H145049   0.001   2.388   2.385
15036TIP3    H245050   0.035   2.501   2.481
15037TIP3   OH245051   1.430   5.924   4.262
15037TIP3    H145052   1.368   5.993   4.284
15037TIP3    H245053   1.507   5.969   4.228
15038TIP3   OH245054   7.629   4.071   5.685
15038TIP3    H145055   7.628   4.143   5.748
15038TIP3    H245056   7.608   3.993   5.737
15039TIP3   OH245057   3.185   0.888   0.318
15039TIP3    H145058   3.276   0.914   0.328
15039TIP3    H245059   3.134   0.964   0.347
15040TIP3   OH245060   7.562   0.550   2.955
15040TIP3    H145061   7.599   0.564   2.868
15040TIP3    H245062   7.593   0.625   3.007
15041TIP3   OH245063   3.207   7.622   6.073
15041TIP3    H145064   3.278   7.659   6.021
15041TIP3    H245065   3.247   7.604   6.159
15042TIP3   OH245066   3.230   1.090   6.013
15042TIP3    H145067   3.135   1.100   6.007
15042TIP3    H245068   3.245   1.059   6.102
15043TIP3   OH245069   5.306   2.733   5.698
15043TIP3    H145070   5.396   2.762   5.689
15043TIP3    H245071   5.312   2.654   5.753
15044TIP3   OH245072   2.360   7.347   0.923
15044TIP3    H145073   2.406   7.389   0.997
15044TIP3    H245074   2.290   7.297   0.964
15045TIP3   OH245075   0.772   4.991   5.478
15045TIP3    H145076   0.832   5.064   5.463
15045TIP3    H245077   0.689   5.032   5.502
15046TIP3   OH245078   2.742   1.315   6.379
15046TIP3    H145079   2.752   1.324   6.284
15046TIP3    H245080   2.731   1.405   6.410
15047TIP3   OH245081   3.596   6.544   4.868
15047TIP3    H145082   3.529   6.609   4.846
15047TIP3    H245083   3.653   6.540   4.791
15048TIP3   OH245084   6.869   5.791   3.470
15048TIP3    H145085   6.925   5.768   3.396
15048TIP3    H245086   6.789   5.740   3.456
15049TIP3   OH245087   3.653   2.880   0.775
15049TIP3    H145088   3.604   2.931   0.710
15049TIP3    H245089   3.731   2.933   0.792
15050TIP3   OH245090   6.524   2.014   1.838
15050TIP3    H145091   6.475   1.996   1.919
15050TIP3    H245092   6.464   2.067   1.785
15051TIP3   OH245093   5.806   7.384   6.485
15051TIP3    H145094   5.752   7.415   6.558
15051TIP3    H245095   5.745   7.340   6.426
15052TIP3   OH245096   5.131   7.756   4.872
15052TIP3    H145097   5.041   7.786   4.881
15052TIP3    H245098   5.153   7.772   4.780
15053TIP3   OH245099   4.742   6.840   2.382
15053TIP3    H145100   4.784   6.893   2.314
15053TIP3    H245101   4.694   6.773   2.333
15054TIP3   OH245102   4.430   7.110   1.331
15054TIP3    H145103   4.453   7.017   1.327
15054TIP3    H245104   4.507   7.155   1.298
15055TIP3   OH245105   0.227   2.824   0.657
15055TIP3    H145106   0.263   2.882   0.724
15055TIP3    H245107   0.251   2.867   0.574
15056TIP3   OH245108   0.728   5.777   4.840
15056TIP3    H145109   0.651   5.824   4.809
15056TIP3    H245110   0.707   5.753   4.930
15057TIP3   OH245111   1.914   2.790   1.048
15057TIP3    H145112   1.910   2.780   0.953
15057TIP3    H245113   1.961   2.713   1.079
15058TIP3   OH245114   3.554   4.555   2.509
15058TIP3    H145115   3.596   4.628   2.463
15058TIP3    H245116   3.623   4.516   2.562
15059TIP3   OH245117   3.829   5.693   1.182
15059TIP3    H145118   3.854   5.640   1.106
15059TIP3    H245119   3.752   5.741   1.152
15060TIP3   OH245120   6.285   2.995   6.356
15060TIP3    H145121   6.342   3.043   6.296
15060TIP3    H245122   6.340   2.923   6.388
15061TIP3   OH245123   3.963   3.812   2.719
15061TIP3    H145124   3.930   3.731   2.678
15061TIP3    H245125   3.907   3.824   2.796
15062TIP3   OH245126   7.714   4.646   3.971
15062TIP3    H145127   7.648   4.584   3.941
15062TIP3    H245128   7.759   4.600   4.043
15063TIP3   OH245129   3.477   0.236   5.491
15063TIP3    H145130   3.443   0.283   5.415
15063TIP3    H245131   3.551   0.289   5.521
15064TIP3   OH245132   6.035   7.472   2.940
15064TIP3    H145133   5.978   7.548   2.947
15064TIP3    H245134   6.086   7.488   2.861
15065TIP3   OH245135   3.420   0.333   5.036
15065TIP3    H145136   3.335   0.289   5.025
15065TIP3    H245137   3.402   0.424   5.012
15066TIP3   OH245138   7.762   6.327   3.250
15066TIP3    H145139   7.781   6.418   3.229
15066TIP3    H245140   7.697   6.331   3.321
15067TIP3   OH245141   8.344   2.780   3.130
15067TIP3    H145142   8.344   2.685   3.144
15067TIP3    H245143   8.396   2.814   3.203
15068TIP3   OH245144   3.660   0.222   3.971
15068TIP3    H145145   3.612   0.139   3.970
15068TIP3    H245146   3.638   0.263   3.887
15069TIP3   OH245147   3.740   0.788   5.864
15069TIP3    H145148   3.726   0.812   5.955
15069TIP3    H245149   3.830   0.817   5.845
15070TIP3   OH245150   5.503   6.243   5.313
15070TIP3    H145151   5.531   6.265   5.224
15070TIP3    H245152   5.585   6.230   5.361
15071TIP3   OH245153   7.408   0.060   1.493
15071TIP3    H145154   7.405  -0.034   1.475
15071TIP3    H245155   7.413   0.066   1.588
15072TIP3   OH245156   5.062   1.232   2.504
15072TIP3    H145157   4.974   1.227   2.540
15072TIP3    H245158   5.088   1.141   2.490
15073TIP3   OH245159   7.799   7.859   6.585
15073TIP3    H145160   7.720   7.900   6.551
15073TIP3    H245161   7.870   7.918   6.562
15074TIP3   OH245162   3.328   5.175   2.511
15074TIP3    H145163   3.420   5.169   2.485
15074TIP3    H245164   3.320   5.116   2.585
15075TIP3   OH245165   4.392   1.290   3.783
15075TIP3    H145166   4.375   1.219   3.845
15075TIP3    H245167   4.314   1.292   3.727
15076TIP3   OH245168   7.317   7.514   1.342
15076TIP3    H145169   7.263   7.568   1.399
15076TIP3    H245170   7.361   7.576   1.283
15077TIP3   OH245171   1.375   0.411   5.383
15077TIP3    H145172   1.321   0.395   5.460
15077TIP3    H245173   1.383   0.506   5.379
15078TIP3   OH245174   2.126   0.236   2.126
15078TIP3    H145175   2.112   0.236   2.031
15078TIP3    H245176   2.039   0.224   2.163
15079TIP3   OH245177   4.071   7.006   6.016
15079TIP3    H145178   4.020   7.039   5.942
15079TIP3    H245179   4.009   6.953   6.066
15080TIP3   OH245180   4.880   6.438   4.344
15080TIP3    H145181   4.797   6.461   4.303
15080TIP3    H245182   4.919   6.523   4.367
15081TIP3   OH245183   0.809   3.856   5.142
15081TIP3    H145184   0.855   3.782   5.181
15081TIP3    H245185   0.787   3.912   5.217
15082TIP3   OH245186   6.776   2.230   4.836
15082TIP3    H145187   6.855   2.236   4.782
15082TIP3    H245188   6.711   2.187   4.779
15083TIP3   OH245189   7.319   3.626   0.252
15083TIP3    H145190   7.328   3.721   0.245
15083TIP3    H245191   7.228   3.612   0.277
15084TIP3   OH245192   8.202   5.601   4.597
15084TIP3    H145193   8.123   5.561   4.560
15084TIP3    H245194   8.242   5.531   4.649
15085TIP3   OH245195   6.681   4.806   2.136
15085TIP3    H145196   6.691   4.861   2.058
15085TIP3    H245197   6.764   4.758   2.141
15086TIP3   OH245198   1.036   2.843   6.218
15086TIP3    H145199   1.069   2.921   6.174
15086TIP3    H245200   1.045   2.773   6.152
15087TIP3   OH245201   3.221   3.806   6.709
15087TIP3    H145202   3.171   3.875   6.665
15087TIP3    H245203   3.306   3.846   6.727
15088TIP3   OH245204   2.634   1.480   2.035
15088TIP3    H145205   2.729   1.485   2.026
15088TIP3    H245206   2.620   1.437   2.120
15089TIP3   OH245207   3.651   1.250   1.650
15089TIP3    H145208   3.699   1.278   1.728
15089TIP3    H245209   3.661   1.323   1.589
15090TIP3   OH245210   6.581   3.290   4.122
15090TIP3    H145211   6.630   3.338   4.056
15090TIP3    H245212   6.536   3.358   4.173
15091TIP3   OH245213   6.831   1.309   2.839
15091TIP3    H145214   6.817   1.281   2.749
15091TIP3    H245215   6.805   1.234   2.892
15092TIP3   OH245216   4.827   5.059   4.905
15092TIP3    H145217   4.781   5.142   4.917
15092TIP3    H245218   4.779   5.014   4.836
15093TIP3   OH245219   0.957   0.007   0.759
15093TIP3    H145220   0.989  -0.024   0.843
15093TIP3    H245221   0.971   0.102   0.761
15094TIP3   OH245222   2.998   6.536   6.165
15094TIP3    H145223   3.003   6.590   6.244
15094TIP3    H245224   3.086   6.500   6.155
15095TIP3   OH245225   1.237   5.456   4.308
15095TIP3    H145226   1.276   5.538   4.279
15095TIP3    H245227   1.300   5.389   4.280
15096TIP3   OH245228   3.381   3.742   1.151
15096TIP3    H145229   3.350   3.652   1.145
15096TIP3    H245230   3.306   3.795   1.124
15097TIP3   OH245231   4.878   5.299   2.401
15097TIP3    H145232   4.864   5.204   2.404
15097TIP3    H245233   4.973   5.309   2.410
15098TIP3   OH245234   6.456   5.106   6.187
15098TIP3    H145235   6.525   5.165   6.217
15098TIP3    H245236   6.380   5.162   6.174
15099TIP3   OH245237   2.903   0.274   6.506
15099TIP3    H145238   2.831   0.338   6.510
15099TIP3    H245239   2.977   0.319   6.548
15100TIP3   OH245240   2.877   3.215   1.095
15100TIP3    H145241   2.820   3.190   1.168
15100TIP3    H245242   2.831   3.289   1.054
15101TIP3   OH245243   1.228   3.472   6.652
15101TIP3    H145244   1.190   3.386   6.635
15101TIP3    H245245   1.177   3.533   6.599
15102TIP3   OH245246   1.394   7.315   6.442
15102TIP3    H145247   1.306   7.346   6.464
15102TIP3    H245248   1.446   7.330   6.521
15103TIP3   OH245249   6.864   2.920   4.482
15103TIP3    H145250   6.860   2.876   4.398
15103TIP3    H245251   6.958   2.935   4.497
15104TIP3   OH245252   1.972   2.978   2.633
15104TIP3    H145253   1.882   3.006   2.615
15104TIP3    H245254   2.014   3.055   2.671
15105TIP3   OH245255   6.378   7.653   0.355
15105TIP3    H145256   6.362   7.568   0.313
15105TIP3    H245257   6.291   7.684   0.381
15106TIP3   OH245258   5.048   0.801   4.037
15106TIP3    H145259   5.018   0.711   4.040
15106TIP3    H245260   5.141   0.795   4.016
15107TIP3   OH245261   3.738   2.189   6.729
15107TIP3    H145262   3.720   2.150   6.815
15107TIP3    H245263   3.652   2.212   6.694
15108TIP3   OH245264   2.532   0.306   4.693
15108TIP3    H145265   2.452   0.333   4.739
15108TIP3    H245266   2.581   0.387   4.680
15109TIP3   OH245267   3.993   5.187   5.472
15109TIP3    H145268   3.961   5.194   5.562
15109TIP3    H245269   4.028   5.274   5.452
15110TIP3   OH245270   5.668   3.780   0.787
15110TIP3    H145271   5.745   3.816   0.742
15110TIP3    H245272   5.594   3.812   0.736
15111TIP3   OH245273   7.091   2.055   5.029
15111TIP3    H145274   7.159   2.088   5.087
15111TIP3    H245275   7.022   2.025   5.087
15112TIP3   OH245276   5.426   0.204   5.764
15112TIP3    H145277   5.445   0.175   5.854
15112TIP3    H245278   5.409   0.123   5.716
15113TIP3   OH245279   3.263   4.937   5.685
15113TIP3    H145280   3.202   4.986   5.740
15113TIP3    H245281   3.246   4.845   5.707
15114TIP3   OH245282   6.864   2.946   0.489
15114TIP3    H145283   6.787   2.993   0.522
15114TIP3    H245284   6.830   2.890   0.419
15115TIP3   OH245285   4.118   2.792   2.004
15115TIP3    H145286   4.208   2.823   2.012
15115TIP3    H245287   4.068   2.845   2.065
15116TIP3   OH245288   2.316   4.780   5.326
15116TIP3    H145289   2.397   4.816   5.362
15116TIP3    H245290   2.327   4.785   5.231
15117TIP3   OH245291   5.213   3.462   1.596
15117TIP3    H145292   5.272   3.525   1.637
15117TIP3    H245293   5.220   3.481   1.502
15118TIP3   OH245294   6.400   3.740   1.156
15118TIP3    H145295   6.485   3.697   1.150
15118TIP3    H245296   6.377   3.734   1.248
15119TIP3   OH245297   4.856   4.727   0.065
15119TIP3    H145298   4.945   4.709   0.096
15119TIP3    H245299   4.860   4.710  -0.029
15120TIP3   OH245300   6.880   6.864   1.729
15120TIP3    H145301   6.790   6.832   1.723
15120TIP3    H245302   6.874   6.958   1.715
15121TIP3   OH245303   0.645   0.524   1.234
15121TIP3    H145304   0.550   0.536   1.225
15121TIP3    H245305   0.681   0.612   1.222
15122TIP3   OH245306   7.498   4.774   0.298
15122TIP3    H145307   7.527   4.840   0.234
15122TIP3    H245308   7.423   4.732   0.257
15123TIP3   OH245309   7.094   3.148   6.503
15123TIP3    H145310   7.178   3.130   6.460
15123TIP3    H245311   7.065   3.063   6.537
15124TIP3   OH245312   0.707   6.749   4.534
15124TIP3    H145313   0.611   6.750   4.531
15124TIP3    H245314   0.732   6.840   4.548
15125TIP3   OH245315   0.168   3.698   5.519
15125TIP3    H145316   0.224   3.622   5.502
15125TIP3    H245317   0.218   3.752   5.580
15126TIP3   OH245318   4.477   6.478   0.094
15126TIP3    H145319   4.566   6.483   0.129
15126TIP3    H245320   4.422   6.460   0.171
15127TIP3   OH245321   6.239   1.253   1.215
15127TIP3    H145322   6.171   1.257   1.149
15127TIP3    H245323   6.211   1.315   1.282
15128TIP3   OH245324   3.520   3.993   5.084
15128TIP3    H145325   3.516   3.907   5.126
15128TIP3    H245326   3.482   4.053   5.147
15129TIP3   OH245327   4.537   0.152   6.790
15129TIP3    H145328   4.601   0.208   6.747
15129TIP3    H245329   4.452   0.184   6.761
15130TIP3   OH245330   7.142   6.078   3.139
15130TIP3    H145331   7.203   6.079   3.065
15130TIP3    H245332   7.096   5.995   3.131
15131TIP3   OH245333   3.944   3.633   3.923
15131TIP3    H145334   3.998   3.695   3.971
15131TIP3    H245335   3.856   3.645   3.958
15132TIP3   OH245336   7.841   2.956   2.163
15132TIP3    H145337   7.803   2.968   2.250
15132TIP3    H245338   7.933   2.936   2.180
15133TIP3   OH245339   0.633   6.039   1.527
15133TIP3    H145340   0.552   6.000   1.495
15133TIP3    H245341   0.696   6.024   1.456
15134TIP3   OH245342   1.817   4.382   0.422
15134TIP3    H145343   1.833   4.469   0.385
15134TIP3    H245344   1.722   4.371   0.417
15135TIP3   OH245345   7.393   5.526   5.833
15135TIP3    H145346   7.370   5.520   5.925
15135TIP3    H245347   7.480   5.567   5.833
15136TIP3   OH245348   1.509   6.662   4.551
15136TIP3    H145349   1.488   6.729   4.486
15136TIP3    H245350   1.604   6.649   4.542
15137TIP3   OH245351   5.651   5.250   3.700
15137TIP3    H145352   5.706   5.324   3.724
15137TIP3    H245353   5.565   5.289   3.683
15138TIP3   OH245354   7.528   5.901   2.036
15138TIP3    H145355   7.572   5.860   2.110
15138TIP3    H245356   7.477   5.830   1.996
15139TIP3   OH245357   6.678   6.432   6.523
15139TIP3    H145358   6.691   6.339   6.502
15139TIP3    H245359   6.659   6.473   6.439
15140TIP3   OH245360   0.068   0.410   2.317
15140TIP3    H145361   0.104   0.329   2.353
15140TIP3    H245362   0.006   0.381   2.251
15141TIP3   OH245363   6.235   4.497   3.804
15141TIP3    H145364   6.314   4.513   3.752
15141TIP3    H245365   6.163   4.519   3.746
15142TIP3   OH245366   7.823   7.266   3.672
15142TIP3    H145367   7.746   7.276   3.728
15142TIP3    H245368   7.805   7.188   3.620
15143TIP3   OH245369   4.476   0.959   5.940
15143TIP3    H145370   4.568   0.975   5.916
15143TIP3    H245371   4.438   0.918   5.863
15144TIP3   OH245372   4.289   2.608   1.581
15144TIP3    H145373   4.340   2.527   1.592
15144TIP3    H245374   4.321   2.666   1.650
15145TIP3   OH245375   0.538   4.807   2.542
15145TIP3    H145376   0.624   4.789   2.504
15145TIP3    H245377   0.554   4.875   2.607
15146TIP3   OH245378   0.308   4.283   1.226
15146TIP3    H145379   0.301   4.339   1.148
15146TIP3    H245380   0.327   4.344   1.297
15147TIP3   OH245381   4.089   3.806   5.508
15147TIP3    H145382   4.086   3.765   5.594
15147TIP3    H245383   3.998   3.807   5.478
15148TIP3   OH245384   6.244   1.310   6.098
15148TIP3    H145385   6.175   1.245   6.109
15148TIP3    H245386   6.203   1.379   6.046
15149TIP3   OH245387   5.455   4.075   1.330
15149TIP3    H145388   5.493   4.007   1.274
15149TIP3    H245389   5.417   4.138   1.268
15150TIP3   OH245390   6.986   2.091   4.382
15150TIP3    H145391   6.955   2.008   4.419
15150TIP3    H245392   6.912   2.124   4.331
15151TIP3   OH245393   2.742   3.657   2.967
15151TIP3    H145394   2.767   3.670   3.058
15151TIP3    H245395   2.792   3.722   2.918
15152TIP3   OH245396   4.481   4.948   5.658
15152TIP3    H145397   4.430   5.022   5.690
15152TIP3    H245398   4.427   4.872   5.677
15153TIP3   OH245399   2.783   4.119   3.186
15153TIP3    H145400   2.825   4.043   3.226
15153TIP3    H245401   2.710   4.082   3.136
15154TIP3   OH245402   2.431   1.627   0.223
15154TIP3    H145403   2.356   1.593   0.175
15154TIP3    H245404   2.507   1.597   0.173
15155TIP3   OH245405   2.043   4.093   6.490
15155TIP3    H145406   2.077   4.091   6.401
15155TIP3    H245407   2.091   4.024   6.536
15156TIP3   OH245408   2.700   6.612   2.037
15156TIP3    H145409   2.784   6.617   1.992
15156TIP3    H245410   2.635   6.607   1.967
15157TIP3   OH245411   0.665   1.223   4.232
15157TIP3    H145412   0.612   1.273   4.171
15157TIP3    H245413   0.606   1.155   4.266
15158TIP3   OH245414   4.952   2.818   1.349
15158TIP3    H145415   4.957   2.801   1.254
15158TIP3    H245416   4.860   2.838   1.365
15159TIP3   OH245417   0.753   3.212   2.318
15159TIP3    H145418   0.784   3.222   2.408
15159TIP3    H245419   0.658   3.217   2.325
15160TIP3   OH245420   7.480   3.591   2.797
15160TIP3    H145421   7.464   3.629   2.883
15160TIP3    H245422   7.420   3.638   2.739
15161TIP3   OH245423   1.092   2.822   4.334
15161TIP3    H145424   1.005   2.830   4.373
15161TIP3    H245425   1.096   2.892   4.269
15162TIP3   OH245426   3.441   6.022   6.146
15162TIP3    H145427   3.377   5.988   6.208
15162TIP3    H245428   3.479   5.943   6.106
15163TIP3   OH245429   7.887   5.370   1.360
15163TIP3    H145430   7.907   5.405   1.273
15163TIP3    H245431   7.793   5.349   1.355
15164TIP3   OH245432   6.669   4.322   3.480
15164TIP3    H145433   6.602   4.276   3.530
15164TIP3    H245434   6.678   4.406   3.525
15165TIP3   OH245435   7.181   5.221   4.185
15165TIP3    H145436   7.265   5.203   4.142
15165TIP3    H245437   7.115   5.199   4.120
15166TIP3   OH245438   6.107   5.852   3.720
15166TIP3    H145439   6.146   5.926   3.673
15166TIP3    H245440   6.017   5.848   3.689
15167TIP3   OH245441   3.345   5.872   3.035
15167TIP3    H145442   3.284   5.819   2.984
15167TIP3    H245443   3.430   5.859   2.992
15168TIP3   OH245444   2.588   3.487   2.808
15168TIP3    H145445   2.647   3.522   2.874
15168TIP3    H245446   2.500   3.500   2.844
15169TIP3   OH245447   2.221   3.753   3.350
15169TIP3    H145448   2.140   3.772   3.302
15169TIP3    H245449   2.191   3.718   3.434
15170TIP3   OH245450   1.336   5.259   5.846
15170TIP3    H145451   1.417   5.306   5.867
15170TIP3    H245452   1.268   5.327   5.847
15171TIP3   OH245453   5.170   2.687   4.236
15171TIP3    H145454   5.221   2.607   4.245
15171TIP3    H245455   5.225   2.755   4.273
15172TIP3   OH245456   0.413   7.102   3.863
15172TIP3    H145457   0.508   7.095   3.851
15172TIP3    H245458   0.376   7.040   3.799
15173TIP3   OH245459   3.123   6.652   1.402
15173TIP3    H145460   3.130   6.632   1.495
15173TIP3    H245461   3.136   6.747   1.397
15174TIP3   OH245462   7.578   5.719   4.841
15174TIP3    H145463   7.580   5.794   4.782
15174TIP3    H245464   7.517   5.746   4.910
15175TIP3   OH245465   7.930   2.418   4.141
15175TIP3    H145466   7.864   2.388   4.203
15175TIP3    H245467   8.010   2.425   4.192
15176TIP3   OH245468   2.499   6.302   5.277
15176TIP3    H145469   2.430   6.302   5.343
15176TIP3    H245470   2.453   6.289   5.194
15177TIP3   OH245471   7.180   4.476   5.513
15177TIP3    H145472   7.190   4.567   5.542
15177TIP3    H245473   7.268   4.450   5.486
15178TIP3   OH245474   1.203   3.687   3.528
15178TIP3    H145475   1.258   3.662   3.603
15178TIP3    H245476   1.113   3.677   3.559
15179TIP3   OH245477   7.688   5.631   1.673
15179TIP3    H145478   7.702   5.602   1.763
15179TIP3    H245479   7.649   5.556   1.629
15180TIP3   OH245480   1.637   7.408   3.446
15180TIP3    H145481   1.570   7.460   3.490
15180TIP3    H245482   1.587   7.348   3.390
15181TIP3   OH245483   2.374   3.349   1.574
15181TIP3    H145484   2.292   3.394   1.554
15181TIP3    H245485   2.422   3.411   1.629
15182TIP3   OH245486   1.471   5.435   1.785
15182TIP3    H145487   1.464   5.524   1.750
15182TIP3    H245488   1.560   5.407   1.762
15183TIP3   OH245489   4.696   6.883   4.999
15183TIP3    H145490   4.780   6.930   4.997
15183TIP3    H245491   4.664   6.895   5.088
15184TIP3   OH245492   5.360   0.765   1.321
15184TIP3    H145493   5.347   0.758   1.416
15184TIP3    H245494   5.454   0.779   1.311
15185TIP3   OH245495   2.643   5.756   0.452
15185TIP3    H145496   2.649   5.803   0.369
15185TIP3    H245497   2.719   5.786   0.502
15186TIP3   OH245498   5.367   4.488   1.734
15186TIP3    H145499   5.301   4.529   1.679
15186TIP3    H245500   5.330   4.402   1.756
15187TIP3   OH245501   6.350   1.640   3.159
15187TIP3    H145502   6.352   1.546   3.179
15187TIP3    H245503   6.284   1.649   3.090
15188TIP3   OH245504   5.285   1.480   5.731
15188TIP3    H145505   5.330   1.412   5.780
15188TIP3    H245506   5.323   1.562   5.764
15189TIP3   OH245507   2.695   1.423   4.488
15189TIP3    H145508   2.628   1.408   4.555
15189TIP3    H245509   2.772   1.376   4.519
15190TIP3   OH245510   2.768  -0.027   3.276
15190TIP3    H145511   2.801  -0.003   3.189
15190TIP3    H245512   2.835   0.002   3.337
15191TIP3   OH245513   5.279   3.630   4.229
15191TIP3    H145514   5.218   3.691   4.188
15191TIP3    H245515   5.228   3.550   4.242
15192TIP3   OH245516   3.051   3.139   5.510
15192TIP3    H145517   3.013   3.060   5.470
15192TIP3    H245518   3.089   3.187   5.436
15193TIP3   OH245519   0.986   1.699   0.248
15193TIP3    H145520   1.021   1.616   0.281
15193TIP3    H245521   1.049   1.728   0.183
15194TIP3   OH245522   6.762   2.598   3.549
15194TIP3    H145523   6.809   2.565   3.626
15194TIP3    H245524   6.826   2.652   3.503
15195TIP3   OH245525   8.303   2.101   1.161
15195TIP3    H145526   8.226   2.091   1.104
15195TIP3    H245527   8.377   2.079   1.105
15196TIP3   OH245528   7.032   4.182   2.418
15196TIP3    H145529   7.063   4.101   2.377
15196TIP3    H245530   6.983   4.227   2.350
15197TIP3   OH245531   4.748   7.230   0.138
15197TIP3    H145532   4.653   7.221   0.135
15197TIP3    H245533   4.781   7.161   0.080
15198TIP3   OH245534   0.125   2.148   6.853
15198TIP3    H145535   0.166   2.176   6.771
15198TIP3    H245536   0.039   2.190   6.851
15199TIP3   OH245537   6.376   6.225   0.562
15199TIP3    H145538   6.289   6.264   0.566
15199TIP3    H245539   6.427   6.274   0.627
15200TIP3   OH245540   1.895   7.436   0.155
15200TIP3    H145541   1.820   7.474   0.201
15200TIP3    H245542   1.960   7.419   0.224
15201TIP3   OH245543   0.125   5.624   1.402
15201TIP3    H145544   0.176   5.690   1.353
15201TIP3    H245545   0.108   5.555   1.338
15202TIP3   OH245546   6.779   6.914   3.319
15202TIP3    H145547   6.850   6.968   3.284
15202TIP3    H245548   6.764   6.948   3.407
15203TIP3   OH245549   5.807   6.879   5.793
15203TIP3    H145550   5.900   6.895   5.812
15203TIP3    H245551   5.778   6.822   5.865
15204TIP3   OH245552   2.161   6.380   0.147
15204TIP3    H145553   2.091   6.377   0.212
15204TIP3    H245554   2.136   6.316   0.081
15205TIP3   OH245555   5.267   0.954   4.915
15205TIP3    H145556   5.234   0.874   4.875
15205TIP3    H245557   5.192   0.989   4.963
15206TIP3   OH245558   6.317   1.732   2.451
15206TIP3    H145559   6.267   1.812   2.470
15206TIP3    H245560   6.275   1.664   2.505
15207TIP3   OH245561   1.986   2.472   3.747
15207TIP3    H145562   2.044   2.497   3.675
15207TIP3    H245563   1.900   2.463   3.706
15208TIP3   OH245564   1.751   0.403   0.852
15208TIP3    H145565   1.802   0.399   0.771
15208TIP3    H245566   1.701   0.484   0.843
15209TIP3   OH245567   2.711   5.484   1.956
15209TIP3    H145568   2.691   5.417   1.891
15209TIP3    H245569   2.766   5.547   1.910
15210TIP3   OH245570   4.160   1.061   5.485
15210TIP3    H145571   4.219   1.127   5.450
15210TIP3    H245572   4.104   1.037   5.411
15211TIP3   OH245573   8.347   1.576   1.502
15211TIP3    H145574   8.290   1.613   1.434
15211TIP3    H245575   8.312   1.612   1.583
15212TIP3   OH245576   2.313   7.157   2.409
15212TIP3    H145577   2.381   7.202   2.358
15212TIP3    H245578   2.314   7.202   2.494
15213TIP3   OH245579   4.901   0.564   0.649
15213TIP3    H145580   4.995   0.552   0.662
15213TIP3    H245581   4.881   0.517   0.568
15214TIP3   OH245582   7.362   5.809   3.556
15214TIP3    H145583   7.373   5.839   3.466
15214TIP3    H245584   7.298   5.869   3.593
15215TIP3   OH245585   1.531   1.097   3.993
15215TIP3    H145586   1.619   1.131   3.983
15215TIP3    H245587   1.530   1.017   3.939
15216TIP3   OH245588   0.869   1.959   6.219
15216TIP3    H145589   0.803   2.012   6.264
15216TIP3    H245590   0.863   1.873   6.259
15217TIP3   OH245591   0.152   2.579   5.219
15217TIP3    H145592   0.088   2.623   5.275
15217TIP3    H245593   0.099   2.540   5.149
15218TIP3   OH245594   7.581   0.228   5.840
15218TIP3    H145595   7.537   0.313   5.838
15218TIP3    H245596   7.671   0.247   5.817
15219TIP3   OH245597   4.291   5.676   3.352
15219TIP3    H145598   4.327   5.597   3.313
15219TIP3    H245599   4.256   5.648   3.437
15220TIP3   OH245600   6.605   2.401   1.404
15220TIP3    H145601   6.534   2.437   1.458
15220TIP3    H245602   6.569   2.398   1.315
15221TIP3   OH245603   5.945   0.688   6.300
15221TIP3    H145604   6.028   0.651   6.271
15221TIP3    H245605   5.963   0.781   6.310
15222TIP3   OH245606   5.504   4.836   4.183
15222TIP3    H145607   5.494   4.763   4.244
15222TIP3    H245608   5.533   4.795   4.101
15223TIP3   OH245609   4.715   3.450   1.377
15223TIP3    H145610   4.674   3.374   1.419
15223TIP3    H245611   4.648   3.483   1.317
15224TIP3   OH245612   0.558   2.658   2.297
15224TIP3    H145613   0.500   2.733   2.286
15224TIP3    H245614   0.646   2.696   2.297
15225TIP3   OH245615   2.246   7.432   5.885
15225TIP3    H145616   2.304   7.378   5.938
15225TIP3    H245617   2.166   7.439   5.937
15226TIP3   OH245618   4.290   7.624   1.259
15226TIP3    H145619   4.217   7.609   1.318
15226TIP3    H245620   4.250   7.635   1.173
15227TIP3   OH245621   6.135   3.459   4.916
15227TIP3    H145622   6.053   3.508   4.925
15227TIP3    H245623   6.135   3.432   4.824
15228TIP3   OH245624   4.480   6.328   1.909
15228TIP3    H145625   4.412   6.332   1.841
15228TIP3    H245626   4.553   6.283   1.868
15229TIP3   OH245627   6.471   5.727   3.059
15229TIP3    H145628   6.383   5.727   3.097
15229TIP3    H245629   6.457   5.718   2.965
15230TIP3   OH245630   6.783   7.732   5.931
15230TIP3    H145631   6.848   7.662   5.932
15230TIP3    H245632   6.712   7.700   5.988
15231TIP3   OH245633   5.598   2.921   1.659
15231TIP3    H145634   5.689   2.931   1.684
15231TIP3    H245635   5.551   2.911   1.742
15232TIP3   OH245636   8.075   6.439   4.222
15232TIP3    H145637   8.067   6.371   4.289
15232TIP3    H245638   8.032   6.516   4.259
15233TIP3   OH245639   1.077   3.068   6.089
15233TIP3    H145640   1.056   3.161   6.099
15233TIP3    H245641   1.171   3.066   6.073
15234TIP3   OH245642   1.940   2.052   2.291
15234TIP3    H145643   1.851   2.067   2.324
15234TIP3    H245644   1.949   2.114   2.219
15235TIP3   OH245645   7.376   0.456   5.150
15235TIP3    H145646   7.380   0.446   5.055
15235TIP3    H245647   7.293   0.416   5.175
15236TIP3   OH245648   4.056   7.256   2.201
15236TIP3    H145649   4.150   7.259   2.220
15236TIP3    H245650   4.016   7.312   2.268
15237TIP3   OH245651   2.325   2.824   4.054
15237TIP3    H145652   2.244   2.801   4.008
15237TIP3    H245653   2.378   2.870   3.989
15238TIP3   OH245654   7.115   1.046   1.895
15238TIP3    H145655   7.056   1.058   1.821
15238TIP3    H245656   7.126   0.951   1.900
15239TIP3   OH245657   4.077   1.218   2.583
15239TIP3    H145658   4.136   1.181   2.649
15239TIP3    H245659   4.134   1.274   2.529
15240TIP3   OH245660   7.022   3.951   1.082
15240TIP3    H145661   7.032   3.971   0.989
15240TIP3    H245662   6.945   4.001   1.109
15241TIP3   OH245663   8.128   0.743   5.071
15241TIP3    H145664   8.113   0.660   5.115
15241TIP3    H245665   8.061   0.748   5.003
15242TIP3   OH245666   4.773   1.808   3.457
15242TIP3    H145667   4.800   1.804   3.549
15242TIP3    H245668   4.809   1.728   3.418
15243TIP3   OH245669   3.266   0.268   1.314
15243TIP3    H145670   3.336   0.327   1.285
15243TIP3    H245671   3.191   0.325   1.331
15244TIP3   OH245672   0.949   5.136   6.233
15244TIP3    H145673   0.916   5.226   6.224
15244TIP3    H245674   1.044   5.145   6.227
15245TIP3   OH245675   8.401   4.339   6.582
15245TIP3    H145676   8.414   4.266   6.522
15245TIP3    H245677   8.307   4.358   6.576
15246TIP3   OH245678   7.557   4.912   1.459
15246TIP3    H145679   7.623   4.863   1.410
15246TIP3    H245680   7.489   4.848   1.479
15247TIP3   OH245681   1.567   0.187   3.764
15247TIP3    H145682   1.622   0.212   3.689
15247TIP3    H245683   1.609   0.229   3.839
15248TIP3   OH245684   0.974   0.759   1.108
15248TIP3    H145685   1.044   0.823   1.117
15248TIP3    H245686   0.898   0.810   1.079
15249TIP3   OH245687   3.878   1.295   3.320
15249TIP3    H145688   3.970   1.270   3.325
15249TIP3    H245689   3.836   1.246   3.390
15250TIP3   OH245690   0.422   1.739   0.875
15250TIP3    H145691   0.373   1.670   0.830
15250TIP3    H245692   0.474   1.692   0.941
15251TIP3   OH245693   4.868   5.797   6.787
15251TIP3    H145694   4.915   5.843   6.717
15251TIP3    H245695   4.898   5.838   6.867
15252TIP3   OH245696   8.259   3.938   2.943
15252TIP3    H145697   8.351   3.931   2.920
15252TIP3    H245698   8.213   3.931   2.860
15253TIP3   OH245699   6.247   5.260   6.101
15253TIP3    H145700   6.267   5.329   6.037
15253TIP3    H245701   6.218   5.308   6.179
15254TIP3   OH245702   4.409   5.140   0.837
15254TIP3    H145703   4.317   5.161   0.821
15254TIP3    H245704   4.457   5.198   0.779
15255TIP3   OH245705   5.833   2.859   3.576
15255TIP3    H145706   5.776   2.855   3.653
15255TIP3    H245707   5.842   2.953   3.557
15256TIP3   OH245708   4.075   1.051   4.747
15256TIP3    H145709   4.128   0.972   4.755
15256TIP3    H245710   4.109   1.095   4.670
15257TIP3   OH245711   7.381   6.701   3.654
15257TIP3    H145712   7.357   6.793   3.642
15257TIP3    H245713   7.453   6.704   3.718
15258TIP3   OH245714   0.401   6.215   0.912
15258TIP3    H145715   0.457   6.190   0.839
15258TIP3    H245716   0.349   6.288   0.879
15259TIP3   OH245717   6.654   0.429   4.519
15259TIP3    H145718   6.621   0.448   4.431
15259TIP3    H245719   6.733   0.481   4.527
15260TIP3   OH245720   4.408   2.126   2.365
15260TIP3    H145721   4.395   2.172   2.282
15260TIP3    H245722   4.352   2.172   2.428
15261TIP3   OH245723   3.978   5.801   4.620
15261TIP3    H145724   4.000   5.753   4.699
15261TIP3    H245725   3.922   5.742   4.570
15262TIP3   OH245726   0.527   7.227   5.735
15262TIP3    H145727   0.434   7.204   5.740
15262TIP3    H245728   0.549   7.217   5.642
15263TIP3   OH245729   4.161   5.200   1.543
15263TIP3    H145730   4.180   5.292   1.521
15263TIP3    H245731   4.240   5.170   1.587
15264TIP3   OH245732   1.423   3.787   3.376
15264TIP3    H145733   1.340   3.750   3.407
15264TIP3    H245734   1.489   3.726   3.406
15265TIP3   OH245735   3.178   6.588   5.033
15265TIP3    H145736   3.091   6.603   4.996
15265TIP3    H245737   3.229   6.665   5.008
15266TIP3   OH245738   3.751   4.459   0.190
15266TIP3    H145739   3.778   4.417   0.272
15266TIP3    H245740   3.734   4.550   0.214
15267TIP3   OH245741   2.987   3.400   5.412
15267TIP3    H145742   2.892   3.396   5.426
15267TIP3    H245743   3.003   3.339   5.340
15268TIP3   OH245744   5.421   5.702   6.132
15268TIP3    H145745   5.330   5.671   6.125
15268TIP3    H245746   5.452   5.705   6.041
15269TIP3   OH245747   5.130   4.811   5.794
15269TIP3    H145748   5.143   4.734   5.738
15269TIP3    H245749   5.217   4.850   5.801
15270TIP3   OH245750   6.667   7.184   2.077
15270TIP3    H145751   6.628   7.134   2.149
15270TIP3    H245752   6.659   7.275   2.104
15271TIP3   OH245753   1.770   6.889   5.598
15271TIP3    H145754   1.771   6.881   5.693
15271TIP3    H245755   1.747   6.980   5.581
15272TIP3   OH245756   3.507   1.510   0.077
15272TIP3    H145757   3.508   1.593   0.030
15272TIP3    H245758   3.419   1.475   0.062
15273TIP3   OH245759   1.745   0.074   5.457
15273TIP3    H145760   1.661   0.071   5.412
15273TIP3    H245761   1.723   0.060   5.549
15274TIP3   OH245762   0.069   2.251   5.085
15274TIP3    H145763   0.079   2.323   5.023
15274TIP3    H245764  -0.015   2.211   5.063
15275TIP3   OH245765   8.064   7.724   5.747
15275TIP3    H145766   7.995   7.719   5.814
15275TIP3    H245767   8.131   7.662   5.778
15276TIP3   OH245768   6.237   1.757   2.190
15276TIP3    H145769   6.256   1.747   2.284
15276TIP3    H245770   6.142   1.749   2.184
15277TIP3   OH245771   7.457   1.943   2.704
15277TIP3    H145772   7.450   1.963   2.797
15277TIP3    H245773   7.467   2.028   2.661
15278TIP3   OH245774   3.283   1.564   2.641
15278TIP3    H145775   3.227   1.558   2.564
15278TIP3    H245776   3.314   1.654   2.641
15279TIP3   OH245777   2.323   0.703   0.074
15279TIP3    H145778   2.310   0.608   0.069
15279TIP3    H245779   2.389   0.721   0.007
15280TIP3   OH245780   3.266   7.143   3.027
15280TIP3    H145781   3.359   7.126   3.016
15280TIP3    H245782   3.230   7.137   2.938
15281TIP3   OH245783   3.100   1.711   6.167
15281TIP3    H145784   3.029   1.666   6.214
15281TIP3    H245785   3.165   1.643   6.151
15282TIP3   OH245786   6.528   2.181   0.416
15282TIP3    H145787   6.552   2.223   0.333
15282TIP3    H245788   6.478   2.248   0.463
15283TIP3   OH245789   4.780   2.763   2.939
15283TIP3    H145790   4.708   2.729   2.992
15283TIP3    H245791   4.808   2.843   2.983
15284TIP3   OH245792   5.848   2.351   1.087
15284TIP3    H145793   5.848   2.443   1.116
15284TIP3    H245794   5.814   2.354   0.998
15285TIP3   OH245795   5.600   0.124   5.322
15285TIP3    H145796   5.686   0.095   5.291
15285TIP3    H245797   5.613   0.141   5.415
15286TIP3   OH245798   4.402   5.459   6.778
15286TIP3    H145799   4.478   5.423   6.731
15286TIP3    H245800   4.339   5.479   6.708
15287TIP3   OH245801   2.328   6.581   4.504
15287TIP3    H145802   2.367   6.631   4.433
15287TIP3    H245803   2.285   6.647   4.560
15288TIP3   OH245804   4.709   5.956   1.025
15288TIP3    H145805   4.771   6.024   0.998
15288TIP3    H245806   4.628   6.004   1.046
15289TIP3   OH245807   6.287   6.613   4.446
15289TIP3    H145808   6.231   6.600   4.522
15289TIP3    H245809   6.360   6.553   4.460
15290TIP3   OH245810   7.298   1.135   4.783
15290TIP3    H145811   7.310   1.209   4.842
15290TIP3    H245812   7.256   1.173   4.706
15291TIP3   OH245813   1.191   4.665   1.155
15291TIP3    H145814   1.136   4.587   1.155
15291TIP3    H245815   1.278   4.632   1.130
15292TIP3   OH245816   5.169   3.847   3.665
15292TIP3    H145817   5.101   3.859   3.599
15292TIP3    H245818   5.150   3.912   3.732
15293TIP3   OH245819   6.660   5.232   3.197
15293TIP3    H145820   6.609   5.188   3.130
15293TIP3    H245821   6.705   5.161   3.244
15294TIP3   OH245822   4.697   4.814   2.067
15294TIP3    H145823   4.716   4.720   2.061
15294TIP3    H245824   4.675   4.828   2.159
15295TIP3   OH245825   3.470   6.059   3.486
15295TIP3    H145826   3.535   6.012   3.434
15295TIP3    H245827   3.467   6.013   3.570
15296TIP3   OH245828   8.221   6.956   5.166
15296TIP3    H145829   8.155   6.893   5.196
15296TIP3    H245830   8.188   6.989   5.083
15297TIP3   OH245831   2.412   4.276   1.750
15297TIP3    H145832   2.408   4.255   1.657
15297TIP3    H245833   2.375   4.364   1.756
15298TIP3   OH245834   0.519   4.221   2.810
15298TIP3    H145835   0.494   4.304   2.850
15298TIP3    H245836   0.613   4.229   2.793
15299TIP3   OH245837   5.402   5.991   5.259
15299TIP3    H145838   5.414   5.963   5.350
15299TIP3    H245839   5.421   6.085   5.260
15300TIP3   OH245840   4.426   7.614   6.634
15300TIP3    H145841   4.506   7.666   6.636
15300TIP3    H245842   4.409   7.600   6.541
15301TIP3   OH245843   0.146   3.766   3.660
15301TIP3    H145844   0.122   3.681   3.622
15301TIP3    H245845   0.075   3.786   3.720
15302TIP3   OH245846   6.208   3.960   2.183
15302TIP3    H145847   6.162   4.030   2.230
15302TIP3    H245848   6.164   3.880   2.209
15303TIP3   OH245849   0.682   6.115   5.691
15303TIP3    H145850   0.743   6.046   5.716
15303TIP3    H245851   0.634   6.079   5.616
15304TIP3   OH245852   2.497   3.177   5.636
15304TIP3    H145853   2.463   3.197   5.723
15304TIP3    H245854   2.530   3.087   5.643
15305TIP3   OH245855   3.235   0.742   3.394
15305TIP3    H145856   3.161   0.783   3.349
15305TIP3    H245857   3.214   0.751   3.487
15306TIP3   OH245858   6.352   4.356   2.369
15306TIP3    H145859   6.372   4.281   2.313
15306TIP3    H245860   6.388   4.431   2.322
15307TIP3   OH245861   8.041   0.688   0.934
15307TIP3    H145862   7.985   0.739   0.992
15307TIP3    H245863   8.094   0.754   0.888
15308TIP3   OH245864   4.920   4.253   1.985
15308TIP3    H145865   4.871   4.173   2.005
15308TIP3    H245866   5.004   4.222   1.951
15309TIP3   OH245867   7.194   2.065   6.320
15309TIP3    H145868   7.252   2.010   6.372
15309TIP3    H245869   7.107   2.029   6.333
15310TIP3   OH245870   1.636   1.368   6.826
15310TIP3    H145871   1.577   1.315   6.881
15310TIP3    H245872   1.718   1.369   6.874
15311TIP3   OH245873   0.784   4.579   1.715
15311TIP3    H145874   0.874   4.551   1.698
15311TIP3    H245875   0.786   4.674   1.709
15312TIP3   OH245876   3.980   6.488   3.717
15312TIP3    H145877   4.036   6.545   3.664
15312TIP3    H245878   4.025   6.404   3.718
15313TIP3   OH245879   7.810   4.252   2.065
15313TIP3    H145880   7.784   4.167   2.028
15313TIP3    H245881   7.795   4.315   1.994
15314TIP3   OH245882   5.656   7.423   6.722
15314TIP3    H145883   5.664   7.336   6.759
15314TIP3    H245884   5.678   7.482   6.795
15315TIP3   OH245885   1.408   5.100   6.630
15315TIP3    H145886   1.394   5.041   6.556
15315TIP3    H245887   1.465   5.051   6.689
15316TIP3   OH245888   7.144   3.047   1.673
15316TIP3    H145889   7.201   3.044   1.596
15316TIP3    H245890   7.182   3.116   1.728
15317TIP3   OH245891   5.264   5.750   0.523
15317TIP3    H145892   5.308   5.760   0.608
15317TIP3    H245893   5.316   5.804   0.463
15318TIP3   OH245894   0.399   1.357   6.167
15318TIP3    H145895   0.337   1.429   6.166
15318TIP3    H245896   0.473   1.388   6.115
15319TIP3   OH245897   0.888   5.013   6.471
15319TIP3    H145898   0.908   5.053   6.386
15319TIP3    H245899   0.974   4.987   6.506
15320TIP3   OH245900   3.268   3.623   4.328
15320TIP3    H145901   3.249   3.711   4.294
15320TIP3    H245902   3.361   3.610   4.309
15321TIP3   OH245903   6.062   0.038   3.431
15321TIP3    H145904   6.147   0.054   3.390
15321TIP3    H245905   6.026  -0.037   3.384
15322TIP3   OH245906   6.835   1.535   6.553
15322TIP3    H145907   6.781   1.585   6.492
15322TIP3    H245908   6.785   1.456   6.572
15323TIP3   OH245909   2.949   1.366   4.614
15323TIP3    H145910   2.975   1.275   4.598
15323TIP3    H245911   3.001   1.392   4.690
15324TIP3   OH245912   8.063   5.287   3.186
15324TIP3    H145913   8.063   5.212   3.246
15324TIP3    H245914   8.146   5.281   3.139
15325TIP3   OH245915   3.078   4.261   5.251
15325TIP3    H145916   2.998   4.290   5.295
15325TIP3    H245917   3.145   4.266   5.319
15326TIP3   OH245918   0.766   0.815   4.256
15326TIP3    H145919   0.711   0.759   4.201
15326TIP3    H245920   0.832   0.755   4.291
15327TIP3   OH245921   2.436   5.593   0.377
15327TIP3    H145922   2.530   5.606   0.390
15327TIP3    H245923   2.402   5.682   0.362
15328TIP3   OH245924   4.838   4.602   2.646
15328TIP3    H145925   4.931   4.618   2.660
15328TIP3    H245926   4.827   4.508   2.659
15329TIP3   OH245927   8.221   3.484   4.960
15329TIP3    H145928   8.248   3.411   5.016
15329TIP3    H245929   8.240   3.454   4.871
15330TIP3   OH245930  -0.010   4.673   6.518
15330TIP3    H145931   0.025   4.760   6.537
15330TIP3    H245932   0.051   4.613   6.561
15331TIP3   OH245933   1.296   7.788   5.887
15331TIP3    H145934   1.369   7.727   5.886
15331TIP3    H245935   1.228   7.744   5.836
15332TIP3   OH245936   1.000   1.070   5.243
15332TIP3    H145937   1.017   1.013   5.168
15332TIP3    H245938   1.055   1.035   5.313
15333TIP3   OH245939   5.983   6.249   6.020
15333TIP3    H145940   6.019   6.254   6.109
15333TIP3    H245941   5.928   6.170   6.021
15334TIP3   OH245942   5.153   4.109   0.696
15334TIP3    H145943   5.230   4.089   0.642
15334TIP3    H245944   5.078   4.085   0.640
15335TIP3   OH245945   0.641   5.556   0.024
15335TIP3    H145946   0.660   5.492   0.093
15335TIP3    H245947   0.618   5.503  -0.052
15336TIP3   OH245948   5.497   6.028   4.536
15336TIP3    H145949   5.492   5.936   4.559
15336TIP3    H245950   5.456   6.074   4.610
15337TIP3   OH245951   7.258   7.805   4.096
15337TIP3    H145952   7.167   7.796   4.123
15337TIP3    H245953   7.297   7.719   4.114
15338TIP3   OH245954   3.988   2.291   4.010
15338TIP3    H145955   3.899   2.257   4.023
15338TIP3    H245956   4.007   2.274   3.918
15339TIP3   OH245957   4.882   0.260   5.346
15339TIP3    H145958   4.880   0.252   5.441
15339TIP3    H245959   4.815   0.326   5.326
15340TIP3   OH245960   7.880   3.637   5.719
15340TIP3    H145961   7.893   3.667   5.630
15340TIP3    H245962   7.968   3.621   5.753
15341TIP3   OH245963   4.389   1.056   4.406
15341TIP3    H145964   4.351   1.133   4.363
15341TIP3    H245965   4.476   1.047   4.367
15342TIP3   OH245966   7.919   3.504   6.296
15342TIP3    H145967   7.971   3.444   6.350
15342TIP3    H245968   7.953   3.491   6.207
15343TIP3   OH245969   1.385   0.147   4.249
15343TIP3    H145970   1.344   0.192   4.323
15343TIP3    H245971   1.403   0.216   4.185
15344TIP3   OH245972   1.367   4.140   3.958
15344TIP3    H145973   1.293   4.167   4.011
15344TIP3    H245974   1.353   4.046   3.943
15345TIP3   OH245975   3.391   2.534   5.745
15345TIP3    H145976   3.354   2.608   5.794
15345TIP3    H245977   3.457   2.574   5.688
15346TIP3   OH245978   3.731   6.205   2.750
15346TIP3    H145979   3.719   6.196   2.656
15346TIP3    H245980   3.704   6.294   2.770
15347TIP3   OH245981   5.435   2.057   1.225
15347TIP3    H145982   5.498   2.129   1.233
15347TIP3    H245983   5.386   2.077   1.145
15348TIP3   OH245984   5.942   3.704   4.819
15348TIP3    H145985   5.996   3.780   4.840
15348TIP3    H245986   5.885   3.734   4.748
15349TIP3   OH245987   7.798   6.696   1.470
15349TIP3    H145988   7.786   6.766   1.534
15349TIP3    H245989   7.763   6.618   1.514
15350TIP3   OH245990   4.753   7.346   3.464
15350TIP3    H145991   4.675   7.399   3.447
15350TIP3    H245992   4.823   7.409   3.478
15351TIP3   OH245993   4.582   1.784   2.955
15351TIP3    H145994   4.583   1.827   3.040
15351TIP3    H245995   4.666   1.806   2.915
15352TIP3   OH245996   4.478   6.291   6.419
15352TIP3    H145997   4.440   6.234   6.353
15352TIP3    H245998   4.414   6.292   6.490
15353TIP3   OH245999   7.746   6.779   2.141
15353TIP3    H146000   7.763   6.685   2.135
15353TIP3    H246001   7.759   6.800   2.233
15354TIP3   OH246002   3.833   3.175   0.634
15354TIP3    H146003   3.795   3.119   0.565
15354TIP3    H246004   3.904   3.222   0.590
15355TIP3   OH246005   5.184   1.533   2.929
15355TIP3    H146006   5.137   1.567   2.852
15355TIP3    H246007   5.131   1.562   3.004
15356TIP3   OH246008   0.545   3.582   0.591
15356TIP3    H146009   0.626   3.545   0.627
15356TIP3    H246010   0.484   3.585   0.664
15357TIP3   OH246011   7.727   4.294   2.518
15357TIP3    H146012   7.760   4.243   2.444
15357TIP3    H246013   7.772   4.378   2.511
15358TIP3   OH246014   0.832   7.630   5.784
15358TIP3    H146015   0.800   7.718   5.762
15358TIP3    H246016   0.784   7.606   5.863
15359TIP3   OH246017   1.373   7.422   5.801
15359TIP3    H146018   1.462   7.452   5.819
15359TIP3    H246019   1.375   7.392   5.710
15360TIP3   OH246020   2.156   0.016   2.583
15360TIP3    H146021   2.221  -0.050   2.605
15360TIP3    H246022   2.076  -0.013   2.627
15361TIP3   OH246023   6.302   5.371   2.516
15361TIP3    H146024   6.238   5.384   2.586
15361TIP3    H246025   6.368   5.439   2.532
15362TIP3   OH246026   2.222   5.921   3.170
15362TIP3    H146027   2.276   5.897   3.095
15362TIP3    H246028   2.233   5.848   3.232
15363TIP3   OH246029   3.131   6.118   0.581
15363TIP3    H146030   3.065   6.100   0.647
15363TIP3    H246031   3.173   6.199   0.610
15364TIP3   OH246032   0.368   7.723   4.388
15364TIP3    H146033   0.414   7.801   4.356
15364TIP3    H246034   0.416   7.698   4.467
15365TIP3   OH246035   7.860   7.515   5.264
15365TIP3    H146036   7.930   7.538   5.325
15365TIP3    H246037   7.823   7.433   5.298
15366TIP3   OH246038   0.490   3.188   2.317
15366TIP3    H146039   0.441   3.154   2.392
15366TIP3    H246040   0.432   3.253   2.278
15367TIP3   OH246041   6.338   6.373   6.602
15367TIP3    H146042   6.361   6.361   6.695
15367TIP3    H246043   6.394   6.445   6.573
15368TIP3   OH246044   0.186   2.316   4.792
15368TIP3    H146045   0.247   2.242   4.789
15368TIP3    H246046   0.107   2.284   4.748
15369TIP3   OH246047   5.187   0.938   3.291
15369TIP3    H146048   5.203   1.014   3.347
15369TIP3    H246049   5.143   0.973   3.214
15370TIP3   OH246050   4.299   3.791   2.243
15370TIP3    H146051   4.317   3.780   2.150
15370TIP3    H246052   4.251   3.874   2.249
15371TIP3   OH246053   3.469   3.758   5.252
15371TIP3    H146054   3.530   3.702   5.301
15371TIP3    H246055   3.382   3.734   5.286
   8.39736   7.91711   6.85642   0.00000   0.00000  -2.79912   0.00000  -2.79912  -3.95855
