Generated by CHARMM-GUI FF-Converter
68247
    1GLY      N    1   2.204   4.516   5.648
    1GLY    HT1    2   2.142   4.512   5.731
    1GLY    HT2    3   2.243   4.419   5.636
    1GLY    HT3    4   2.147   4.537   5.563
    1GLY     CA    5   2.311   4.612   5.674
    1GLY    HA1    6   2.368   4.574   5.756
    1GLY    HA2    7   2.261   4.705   5.695
    1GLY      C    8   2.405   4.629   5.556
    1GLY      O    9   2.403   4.549   5.462
    2PRO      N   10   2.491   4.736   5.544
    2PRO     CD   11   2.462   4.849   5.616
    2PRO    HD1   12   2.486   4.832   5.724
    2PRO    HD2   13   2.355   4.878   5.603
    2PRO     CA   14   2.589   4.755   5.437
    2PRO     HA   15   2.537   4.746   5.342
    2PRO     CB   16   2.645   4.894   5.464
    2PRO    HB1   17   2.657   4.952   5.369
    2PRO    HB2   18   2.745   4.889   5.513
    2PRO     CG   19   2.549   4.957   5.559
    2PRO    HG1   20   2.599   5.013   5.640
    2PRO    HG2   21   2.483   5.027   5.503
    2PRO      C   22   2.700   4.650   5.439
    2PRO      O   23   2.723   4.587   5.543
    3GLY      N   24   2.752   4.618   5.313
    3GLY     HN   25   2.733   4.675   5.233
    3GLY     CA   26   2.864   4.526   5.302
    3GLY    HA1   27   2.890   4.519   5.197
    3GLY    HA2   28   2.834   4.431   5.345
    3GLY      C   29   2.988   4.574   5.376
    3GLY      O   30   2.996   4.690   5.416
    4ASN      N   31   3.077   4.482   5.395
    4ASN     HN   32   3.066   4.390   5.359
    4ASN     CA   33   3.206   4.518   5.452
    4ASN     HA   34   3.187   4.571   5.543
    4ASN     CB   35   3.287   4.392   5.483
    4ASN    HB1   36   3.391   4.421   5.512
    4ASN    HB2   37   3.293   4.327   5.393
    4ASN     CG   38   3.231   4.314   5.601
    4ASN    OD1   39   3.156   4.368   5.682
    4ASN    ND2   40   3.267   4.187   5.610
    4ASN   HD21   41   3.235   4.137   5.690
    4ASN   HD22   42   3.329   4.147   5.543
    4ASN      C   43   3.285   4.609   5.358
    4ASN      O   44   3.274   4.598   5.236
    5PRO      N   45   3.373   4.709   5.412
    5PRO     CD   46   3.371   4.751   5.550
    5PRO    HD1   47   3.416   4.671   5.612
    5PRO    HD2   48   3.267   4.772   5.584
    5PRO     CA   49   3.461   4.789   5.326
    5PRO     HA   50   3.398   4.845   5.259
    5PRO     CB   51   3.539   4.875   5.426
    5PRO    HB1   52   3.560   4.976   5.388
    5PRO    HB2   53   3.637   4.826   5.451
    5PRO     CG   54   3.455   4.875   5.550
    5PRO    HG1   55   3.517   4.883   5.642
    5PRO    HG2   56   3.387   4.963   5.547
    5PRO      C   57   3.556   4.703   5.242
    5PRO      O   58   3.588   4.590   5.281
    6GLY      N   59   3.582   4.754   5.129
    6GLY     HN   60   3.545   4.843   5.102
    6GLY     CA   61   3.680   4.687   5.045
    6GLY    HA1   62   3.693   4.745   4.956
    6GLY    HA2   63   3.645   4.587   5.025
    6GLY      C   64   3.816   4.675   5.112
    6GLY      O   65   3.841   4.737   5.216
    7SER      N   66   3.889   4.606   5.042
    7SER     HN   67   3.860   4.557   4.961
    7SER     CA   68   4.028   4.594   5.086
    7SER     HA   69   4.031   4.572   5.192
    7SER     CB   70   4.098   4.481   5.012
    7SER    HB1   71   4.203   4.472   5.048
    7SER    HB2   72   4.101   4.500   4.902
    7SER     OG   73   4.032   4.357   5.035
    7SER    HG1   74   3.996   4.359   5.124
    7SER      C   75   4.104   4.725   5.064
    7SER      O   76   4.066   4.805   4.978
    8GLY      N   77   4.206   4.746   5.157
    8GLY     HN   78   4.230   4.680   5.229
    8GLY     CA   79   4.290   4.863   5.137
    8GLY    HA1   80   4.355   4.865   5.223
    8GLY    HA2   81   4.226   4.949   5.127
    8GLY      C   82   4.379   4.852   5.015
    8GLY      O   83   4.383   4.748   4.948
    9PRO      N   84   4.443   4.945   4.989
    9PRO     CD   85   4.452   5.070   5.076
    9PRO    HD1   86   4.480   5.046   5.181
    9PRO    HD2   87   4.356   5.127   5.072
    9PRO     CA   88   4.539   4.947   4.879
    9PRO     HA   89   4.492   4.912   4.788
    9PRO     CB   90   4.580   5.094   4.871
    9PRO    HB1   91   4.509   5.147   4.802
    9PRO    HB2   92   4.683   5.110   4.832
    9PRO     CG   93   4.563   5.146   5.010
    9PRO    HG1   94   4.657   5.129   5.067
    9PRO    HG2   95   4.542   5.255   5.007
    9PRO      C   96   4.660   4.858   4.905
    9PRO      O   97   4.689   4.824   5.020
   10GLY      N   98   4.720   4.823   4.796
   10GLY     HN   99   4.692   4.858   4.706
   10GLY     CA  100   4.840   4.742   4.807
   10GLY    HA1  101   4.868   4.711   4.708
   10GLY    HA2  102   4.821   4.658   4.873
   10GLY      C  103   4.959   4.818   4.864
   10GLY      O  104   4.954   4.940   4.877
   11ASP      N  105   5.060   4.747   4.903
   11ASP     HN  106   5.058   4.647   4.900
   11ASP     CA  107   5.186   4.803   4.949
   11ASP     HA  108   5.161   4.869   5.030
   11ASP     CB  109   5.279   4.693   5.000
   11ASP    HB1  110   5.380   4.733   5.023
   11ASP    HB2  111   5.290   4.614   4.922
   11ASP     CG  112   5.229   4.627   5.127
   11ASP    OD1  113   5.156   4.693   5.205
   11ASP    OD2  114   5.262   4.509   5.150
   11ASP      C  115   5.254   4.882   4.837
   11ASP      O  116   5.243   4.847   4.720
   12PRO      N  117   5.341   4.990   4.877
   12PRO     CD  118   5.350   5.038   5.000
   12PRO    HD1  119   5.402   4.963   5.065
   12PRO    HD2  120   5.249   5.058   5.042
   12PRO     CA  121   5.419   5.058   4.774
   12PRO     HA  122   5.351   5.093   4.699
   12PRO     CB  123   5.490   5.169   4.851
   12PRO    HB1  124   5.479   5.268   4.804
   12PRO    HB2  125   5.600   5.148   4.861
   12PRO     CG  126   5.431   5.163   4.989
   12PRO    HG1  127   5.511   5.163   5.067
   12PRO    HG2  128   5.368   5.252   5.008
   12PRO      C  129   5.521   4.966   4.706
   12PRO      O  130   5.563   4.866   4.765
   13GLY      N  131   5.545   4.998   4.578
   13GLY     HN  132   5.503   5.075   4.531
   13GLY     CA  133   5.646   4.921   4.506
   13GLY    HA1  134   5.655   4.963   4.407
   13GLY    HA2  135   5.614   4.819   4.506
   13GLY      C  136   5.783   4.928   4.570
   13GLY      O  137   5.807   5.012   4.658
   14SER      N  138   5.866   4.851   4.518
   14SER     HN  139   5.840   4.780   4.454
   14SER     CA  140   6.005   4.857   4.561
   14SER     HA  141   6.009   4.860   4.669
   14SER     CB  142   6.081   4.734   4.513
   14SER    HB1  143   6.188   4.738   4.545
   14SER    HB2  144   6.077   4.729   4.402
   14SER     OG  145   6.023   4.615   4.565
   14SER    HG1  146   6.041   4.612   4.660
   14SER      C  147   6.073   4.983   4.510
   14SER      O  148   6.033   5.039   4.407
   15GLY      N  149   6.166   5.051   4.596
   15GLY     HN  150   6.188   5.011   4.685
   15GLY     CA  151   6.243   5.166   4.550
   15GLY    HA1  152   6.309   5.193   4.631
   15GLY    HA2  153   6.171   5.242   4.524
   15GLY      C  154   6.329   5.136   4.429
   15GLY      O  155   6.343   5.020   4.389
   16PRO      N  156   6.381   5.217   4.362
   16PRO     CD  157   6.377   5.366   4.410
   16PRO    HD1  158   6.406   5.376   4.517
   16PRO    HD2  159   6.276   5.409   4.391
   16PRO     CA  160   6.475   5.199   4.251
   16PRO     HA  161   6.431   5.133   4.177
   16PRO     CB  162   6.496   5.342   4.200
   16PRO    HB1  163   6.415   5.364   4.126
   16PRO    HB2  164   6.593   5.356   4.148
   16PRO     CG  165   6.479   5.429   4.320
   16PRO    HG1  166   6.576   5.432   4.375
   16PRO    HG2  167   6.451   5.533   4.293
   16PRO      C  168   6.607   5.137   4.295
   16PRO      O  169   6.642   5.143   4.413
   17GLY      N  170   6.678   5.057   4.208
   17GLY     HN  171   6.639   5.043   4.117
   17GLY     CA  172   6.809   5.000   4.232
   17GLY    HA1  173   6.839   4.944   4.144
   17GLY    HA2  174   6.800   4.939   4.320
   17GLY      C  175   6.916   5.104   4.259
   17GLY      O  176   6.897   5.222   4.228
   18ASN      N  177   7.010   5.078   4.326
   18ASN     HN  178   7.018   4.986   4.365
   18ASN     CA  179   7.127   5.162   4.350
   18ASN     HA  180   7.090   5.253   4.394
   18ASN     CB  181   7.222   5.095   4.449
   18ASN    HB1  182   7.321   5.146   4.449
   18ASN    HB2  183   7.238   4.989   4.419
   18ASN     CG  184   7.171   5.100   4.592
   18ASN    OD1  185   7.078   5.175   4.623
   18ASN    ND2  186   7.232   5.021   4.680
   18ASN   HD21  187   7.186   5.008   4.767
   18ASN   HD22  188   7.310   4.967   4.651
   18ASN      C  189   7.201   5.194   4.220
   18ASN      O  190   7.208   5.110   4.130
   19PRO      N  191   7.227   5.346   4.192
   19PRO     CD  192   7.213   5.440   4.289
   19PRO    HD1  193   7.265   5.407   4.382
   19PRO    HD2  194   7.105   5.455   4.308
   19PRO     CA  195   7.301   5.388   4.073
   19PRO     HA  196   7.247   5.359   3.985
   19PRO     CB  197   7.313   5.540   4.091
   19PRO    HB1  198   7.239   5.588   4.024
   19PRO    HB2  199   7.413   5.580   4.064
   19PRO     CG  200   7.276   5.565   4.234
   19PRO    HG1  201   7.370   5.584   4.291
   19PRO    HG2  202   7.209   5.653   4.246
   19PRO      C  203   7.439   5.323   4.063
   19PRO    OT1  204   7.473   5.244   4.154
   19PRO    OT2  205   7.511   5.353   3.964
   20SOD    SOD  206   2.369   1.720   2.311
   21SOD    SOD  207   4.640   7.968   2.735
   22SOD    SOD  208   8.012   8.902   3.247
   23SOD    SOD  209   2.774   1.262   3.296
   24SOD    SOD  210   7.430   4.224   1.057
   25SOD    SOD  211   6.295   6.862   6.217
   26SOD    SOD  212   2.479   3.414   2.099
   27SOD    SOD  213   7.515   1.360   7.218
   28SOD    SOD  214   2.592   9.536   6.049
   29SOD    SOD  215   3.643   7.385   6.798
   30SOD    SOD  216   0.731   6.652   6.236
   31SOD    SOD  217   2.302   4.885   3.624
   32SOD    SOD  218   0.523   5.414   5.797
   33SOD    SOD  219   5.860   5.525   4.791
   34SOD    SOD  220   8.604   4.041   2.091
   35SOD    SOD  221   2.565   7.788   6.362
   36SOD    SOD  222   3.658   1.236   2.252
   37SOD    SOD  223   1.260   4.956   0.532
   38SOD    SOD  224   7.464   5.853   9.178
   39SOD    SOD  225   2.683   4.972   9.525
   40SOD    SOD  226   2.238   7.418   4.767
   41SOD    SOD  227   6.016   2.342   7.157
   42SOD    SOD  228   3.435   2.816   5.994
   43SOD    SOD  229   0.455   5.149   2.228
   44SOD    SOD  230   5.993   5.554   1.274
   45SOD    SOD  231   2.946   0.899   5.479
   46SOD    SOD  232   4.172   9.882   7.648
   47SOD    SOD  233   3.925   0.940   3.740
   48SOD    SOD  234   3.323   2.595   5.073
   49SOD    SOD  235   2.964   6.870   4.769
   50SOD    SOD  236   7.452   7.547   6.180
   51SOD    SOD  237   6.396   3.595   9.355
   52SOD    SOD  238   6.431   6.155   7.163
   53SOD    SOD  239   4.718   4.494   9.515
   54SOD    SOD  240   4.734   2.259   2.895
   55SOD    SOD  241   8.747   6.554   5.360
   56SOD    SOD  242   4.442   1.628   6.699
   57SOD    SOD  243   3.560   9.227   5.392
   58SOD    SOD  244   8.376   5.182   6.677
   59SOD    SOD  245   5.163   5.767   3.988
   60SOD    SOD  246   7.779   2.687   1.722
   61SOD    SOD  247   5.247   6.319   9.602
   62SOD    SOD  248   7.545   6.496   5.142
   63SOD    SOD  249   4.023   0.639   7.296
   64SOD    SOD  250   8.161   0.780   4.117
   65SOD    SOD  251   6.458   7.410   8.964
   66SOD    SOD  252   7.905   7.534   6.775
   67SOD    SOD  253   6.800   6.121   3.454
   68SOD    SOD  254   8.791   8.140   3.326
   69SOD    SOD  255   0.676   2.344   5.297
   70SOD    SOD  256   3.346   5.587   2.972
   71SOD    SOD  257   1.516   2.100   3.642
   72SOD    SOD  258   2.765   4.845   7.788
   73SOD    SOD  259   3.291   0.301   3.109
   74SOD    SOD  260   7.108   8.010   8.101
   75SOD    SOD  261   9.403   3.041   5.707
   76SOD    SOD  262   9.213   5.294   3.988
   77SOD    SOD  263   5.691   6.757   8.518
   78SOD    SOD  264   6.067   3.375   4.690
   79SOD    SOD  265   5.728   9.494   5.466
   80SOD    SOD  266   8.150   7.783   1.760
   81SOD    SOD  267   9.332   6.592   2.842
   82SOD    SOD  268   6.431   4.658   0.469
   83SOD    SOD  269   3.465  -0.064   5.402
   84SOD    SOD  270   9.959   7.084   4.932
   85SOD    SOD  271   4.890   0.853   2.728
   86CLA    CLA  272   3.975   0.023   3.850
   87CLA    CLA  273   2.291   4.682   7.534
   88CLA    CLA  274   5.876   2.265   0.036
   89CLA    CLA  275   7.002   7.711   1.508
   90CLA    CLA  276   4.418   2.288   3.584
   91CLA    CLA  277   3.136   4.777   9.582
   92CLA    CLA  278   1.785   6.086   8.192
   93CLA    CLA  279   2.833   6.966   5.233
   94CLA    CLA  280   0.350   5.377   5.982
   95CLA    CLA  281   7.523   3.286   1.376
   96CLA    CLA  282   1.952   7.846   3.646
   97CLA    CLA  283   1.305   2.159   2.862
   98CLA    CLA  284   3.758   1.338   6.138
   99CLA    CLA  285   8.376   7.748   3.307
  100CLA    CLA  286   3.235   4.941   7.866
  101CLA    CLA  287   3.352   1.737   4.028
  102CLA    CLA  288   5.467  -0.029   3.587
  103CLA    CLA  289   5.917   0.689   7.734
  104CLA    CLA  290   7.219   4.483   6.168
  105CLA    CLA  291   1.758   8.768   4.661
  106CLA    CLA  292   8.321   5.575   6.755
  107CLA    CLA  293   2.396   2.605   2.269
  108CLA    CLA  294   1.325   6.138   5.921
  109CLA    CLA  295   3.138   1.470   1.818
  110CLA    CLA  296   8.674   6.018   8.269
  111CLA    CLA  297   5.876   9.254   6.675
  112CLA    CLA  298   9.057   6.352   5.812
  113CLA    CLA  299   3.902   6.448   4.681
  114CLA    CLA  300   4.556   0.929   8.253
  115CLA    CLA  301   6.525   7.264   5.812
  116CLA    CLA  302   0.355   4.646   3.053
  117CLA    CLA  303   3.368   4.571   2.257
  118CLA    CLA  304   8.298   8.926   3.352
  119CLA    CLA  305   6.841   4.642   7.603
  120CLA    CLA  306   3.078   1.203   5.853
  121CLA    CLA  307   1.038   6.731   4.399
  122CLA    CLA  308   7.685   8.077   6.327
  123CLA    CLA  309   1.049   3.371   7.858
  124CLA    CLA  310   8.866   3.851   8.680
  125CLA    CLA  311   4.044   3.447   2.135
  126CLA    CLA  312   5.946   5.420   0.687
  127CLA    CLA  313   1.311   2.296   3.597
  128CLA    CLA  314   0.878   7.595   2.366
  129CLA    CLA  315   6.643   6.842   7.792
  130CLA    CLA  316   5.642   7.696   5.084
  131CLA    CLA  317   2.403   4.438   2.174
  132CLA    CLA  318   3.212  -0.290   5.555
  133CLA    CLA  319   0.557   4.642   5.209
  134CLA    CLA  320   5.266   2.101   6.877
  135CLA    CLA  321   0.712   5.921   1.753
  136CLA    CLA  322   1.064   1.853   3.799
  137CLA    CLA  323   6.941   8.263   4.820
  138CLA    CLA  324   9.449   7.228   5.486
  139CLA    CLA  325   4.473   9.728   5.819
  140CLA    CLA  326   2.530   1.331   3.328
  141CLA    CLA  327   4.171   8.035   7.463
  142CLA    CLA  328   6.482   3.847   9.601
  143CLA    CLA  329   7.082   1.987   6.753
  144CLA    CLA  330   6.562   3.899   5.380
  145CLA    CLA  331  -0.052   6.066   4.342
  146CLA    CLA  332   4.086   0.327   7.771
  147CLA    CLA  333   0.462   2.170   4.403
  148CLA    CLA  334   6.058   6.332   4.066
  149CLA    CLA  335   4.805   8.006   6.594
  150CLA    CLA  336   6.575   8.567   7.335
  151TIP3   OH2  337   4.583   0.071   1.704
  151TIP3    H1  338   4.494   0.040   1.728
  151TIP3    H2  339   4.560   0.143   1.642
  152TIP3   OH2  340   4.769   0.009   2.024
  152TIP3    H1  341   4.743  -0.064   1.963
  152TIP3    H2  342   4.758   0.087   1.965
  153TIP3   OH2  343   4.944  -0.309   1.915
  153TIP3    H1  344   4.860  -0.259   1.914
  153TIP3    H2  345   4.945  -0.345   1.824
  154TIP3   OH2  346   4.664  -0.509   2.171
  154TIP3    H1  347   4.652  -0.434   2.232
  154TIP3    H2  348   4.575  -0.547   2.166
  155TIP3   OH2  349   5.001   0.326   2.044
  155TIP3    H1  350   5.002   0.229   2.057
  155TIP3    H2  351   4.916   0.348   2.089
  156TIP3   OH2  352   4.130   0.103   2.193
  156TIP3    H1  353   4.122   0.199   2.207
  156TIP3    H2  354   4.050   0.071   2.237
  157TIP3   OH2  355   4.899  -0.561   2.332
  157TIP3    H1  356   4.820  -0.532   2.283
  157TIP3    H2  357   4.917  -0.647   2.291
  158TIP3   OH2  358   4.403  -0.554   2.543
  158TIP3    H1  359   4.385  -0.643   2.577
  158TIP3    H2  360   4.501  -0.551   2.548
  159TIP3   OH2  361   4.691   0.677   2.143
  159TIP3    H1  362   4.684   0.696   2.048
  159TIP3    H2  363   4.771   0.727   2.167
  160TIP3   OH2  364   4.696  -0.197   1.870
  160TIP3    H1  365   4.728  -0.227   1.783
  160TIP3    H2  366   4.619  -0.256   1.883
  161TIP3   OH2  367   4.288  -0.130   2.211
  161TIP3    H1  368   4.238  -0.184   2.273
  161TIP3    H2  369   4.226  -0.057   2.195
  162TIP3   OH2  370   4.395   0.133   2.082
  162TIP3    H1  371   4.304   0.102   2.096
  162TIP3    H2  372   4.417   0.164   2.172
  163TIP3   OH2  373   5.024   0.039   2.099
  163TIP3    H1  374   4.926   0.034   2.089
  163TIP3    H2  375   5.054   0.006   2.011
  164TIP3   OH2  376   4.521   0.372   1.990
  164TIP3    H1  377   4.454   0.300   1.984
  164TIP3    H2  378   4.501   0.426   1.910
  165TIP3   OH2  379   4.550   0.328   1.584
  165TIP3    H1  380   4.508   0.388   1.518
  165TIP3    H2  381   4.644   0.350   1.567
  166TIP3   OH2  382   3.344   0.350   2.515
  166TIP3    H1  383   3.399   0.352   2.595
  166TIP3    H2  384   3.258   0.316   2.548
  167TIP3   OH2  385   3.805   0.334   2.600
  167TIP3    H1  386   3.897   0.310   2.621
  167TIP3    H2  387   3.790   0.282   2.521
  168TIP3   OH2  388   4.437   0.239   2.337
  168TIP3    H1  389   4.426   0.165   2.402
  168TIP3    H2  390   4.517   0.283   2.368
  169TIP3   OH2  391   4.058  -0.137   2.542
  169TIP3    H1  392   4.035  -0.153   2.448
  169TIP3    H2  393   4.130  -0.200   2.556
  170TIP3   OH2  394   4.554  -0.153   2.136
  170TIP3    H1  395   4.600  -0.074   2.101
  170TIP3    H2  396   4.462  -0.121   2.147
  171TIP3   OH2  397   4.408  -0.213   2.539
  171TIP3    H1  398   4.491  -0.227   2.492
  171TIP3    H2  399   4.417  -0.275   2.614
  172TIP3   OH2  400   4.667  -0.538   2.591
  172TIP3    H1  401   4.720  -0.614   2.618
  172TIP3    H2  402   4.733  -0.473   2.566
  173TIP3   OH2  403   4.685  -0.283   2.327
  173TIP3    H1  404   4.627  -0.230   2.267
  173TIP3    H2  405   4.772  -0.259   2.287
  174TIP3   OH2  406   4.805   0.417   1.546
  174TIP3    H1  407   4.829   0.467   1.626
  174TIP3    H2  408   4.846   0.469   1.476
  175TIP3   OH2  409   4.842   0.467   1.820
  175TIP3    H1  410   4.794   0.381   1.820
  175TIP3    H2  411   4.918   0.441   1.874
  176TIP3   OH2  412   4.876   0.128   2.391
  176TIP3    H1  413   4.803   0.136   2.456
  176TIP3    H2  414   4.917   0.216   2.397
  177TIP3   OH2  415   4.914  -0.051   1.681
  177TIP3    H1  416   4.913  -0.118   1.611
  177TIP3    H2  417   4.900   0.030   1.630
  178TIP3   OH2  418   4.724   0.228   1.868
  178TIP3    H1  419   4.648   0.266   1.915
  178TIP3    H2  420   4.679   0.168   1.804
  179TIP3   OH2  421   4.926  -0.216   2.219
  179TIP3    H1  422   4.997  -0.282   2.206
  179TIP3    H2  423   4.948  -0.149   2.152
  180TIP3   OH2  424   5.111  -0.413   2.240
  180TIP3    H1  425   5.043  -0.473   2.277
  180TIP3    H2  426   5.191  -0.467   2.249
  181TIP3   OH2  427   4.876  -0.566   2.001
  181TIP3    H1  428   4.809  -0.517   2.050
  181TIP3    H2  429   4.922  -0.494   1.954
  182TIP3   OH2  430   4.106   0.379   2.263
  182TIP3    H1  431   4.150   0.375   2.350
  182TIP3    H2  432   4.174   0.425   2.209
  183TIP3   OH2  433   4.292   0.519   2.117
  183TIP3    H1  434   4.367   0.470   2.082
  183TIP3    H2  435   4.338   0.581   2.178
  184TIP3   OH2  436   4.275   0.347   1.814
  184TIP3    H1  437   4.183   0.320   1.834
  184TIP3    H2  438   4.272   0.442   1.833
  185TIP3   OH2  439   4.497   0.540   1.772
  185TIP3    H1  440   4.470   0.621   1.722
  185TIP3    H2  441   4.507   0.475   1.700
  186TIP3   OH2  442   4.754   0.408   2.150
  186TIP3    H1  443   4.675   0.374   2.102
  186TIP3    H2  444   4.734   0.504   2.149
  187TIP3   OH2  445   5.496   0.124   1.663
  187TIP3    H1  446   5.466   0.214   1.637
  187TIP3    H2  447   5.424   0.100   1.725
  188TIP3   OH2  448   5.707   0.241   1.813
  188TIP3    H1  449   5.646   0.303   1.857
  188TIP3    H2  450   5.644   0.185   1.764
  189TIP3   OH2  451   5.435  -0.152   1.876
  189TIP3    H1  452   5.444  -0.089   1.950
  189TIP3    H2  453   5.374  -0.218   1.915
  190TIP3   OH2  454   5.499   0.408   1.899
  190TIP3    H1  455   5.464   0.408   1.808
  190TIP3    H2  456   5.419   0.387   1.951
  191TIP3   OH2  457   5.107  -0.059   1.865
  191TIP3    H1  458   5.034  -0.068   1.799
  191TIP3    H2  459   5.129  -0.153   1.884
  192TIP3   OH2  460   4.941   0.168   1.511
  192TIP3    H1  461   5.023   0.204   1.551
  192TIP3    H2  462   4.882   0.245   1.524
  193TIP3   OH2  463   5.890   0.384   1.651
  193TIP3    H1  464   5.891   0.469   1.701
  193TIP3    H2  465   5.842   0.326   1.713
  194TIP3   OH2  466   5.287   0.136   1.837
  194TIP3    H1  467   5.343   0.118   1.916
  194TIP3    H2  468   5.222   0.063   1.845
  195TIP3   OH2  469   6.490   0.932   1.640
  195TIP3    H1  470   6.476   0.951   1.545
  195TIP3    H2  471   6.566   0.989   1.661
  196TIP3   OH2  472   5.444   0.058   2.060
  196TIP3    H1  473   5.525   0.082   2.109
  196TIP3    H2  474   5.381   0.049   2.134
  197TIP3   OH2  475   5.214  -0.282   1.991
  197TIP3    H1  476   5.245  -0.287   2.083
  197TIP3    H2  477   5.126  -0.323   1.996
  198TIP3   OH2  478   6.191   0.392   1.636
  198TIP3    H1  479   6.105   0.423   1.604
  198TIP3    H2  480   6.207   0.454   1.710
  199TIP3   OH2  481   5.668   0.497   1.514
  199TIP3    H1  482   5.704   0.555   1.444
  199TIP3    H2  483   5.750   0.457   1.549
  200TIP3   OH2  484   6.322   0.682   1.515
  200TIP3    H1  485   6.296   0.598   1.472
  200TIP3    H2  486   6.307   0.742   1.440
  201TIP3   OH2  487   5.142   0.303   1.637
  201TIP3    H1  488   5.193   0.245   1.696
  201TIP3    H2  489   5.162   0.390   1.674
  202TIP3   OH2  490   5.113   0.622   2.050
  202TIP3    H1  491   5.202   0.619   2.091
  202TIP3    H2  492   5.094   0.527   2.042
  203TIP3   OH2  493   5.594   0.589   2.088
  203TIP3    H1  494   5.689   0.573   2.095
  203TIP3    H2  495   5.571   0.529   2.014
  204TIP3   OH2  496   6.231   0.525   1.864
  204TIP3    H1  497   6.230   0.444   1.921
  204TIP3    H2  498   6.317   0.566   1.888
  205TIP3   OH2  499   5.249   0.028   2.252
  205TIP3    H1  500   5.265  -0.068   2.254
  205TIP3    H2  501   5.163   0.032   2.205
  206TIP3   OH2  502   5.851   0.114   2.015
  206TIP3    H1  503   5.814   0.140   1.928
  206TIP3    H2  504   5.914   0.045   1.991
  207TIP3   OH2  505   5.367  -0.239   2.227
  207TIP3    H1  506   5.441  -0.294   2.201
  207TIP3    H2  507   5.394  -0.210   2.317
  208TIP3   OH2  508   6.201   0.039   2.011
  208TIP3    H1  509   6.266   0.079   1.950
  208TIP3    H2  510   6.245   0.039   2.098
  209TIP3   OH2  511   5.642  -0.434   2.228
  209TIP3    H1  512   5.577  -0.503   2.251
  209TIP3    H2  513   5.640  -0.439   2.132
  210TIP3   OH2  514   4.858   0.302   1.259
  210TIP3    H1  515   4.894   0.217   1.287
  210TIP3    H2  516   4.926   0.363   1.294
  211TIP3   OH2  517   6.683   0.368   1.965
  211TIP3    H1  518   6.598   0.378   2.012
  211TIP3    H2  519   6.722   0.457   1.972
  212TIP3   OH2  520   5.279   0.365   2.066
  212TIP3    H1  521   5.190   0.329   2.046
  212TIP3    H2  522   5.293   0.335   2.156
  213TIP3   OH2  523   5.444   0.394   1.624
  213TIP3    H1  524   5.395   0.463   1.575
  213TIP3    H2  525   5.534   0.419   1.592
  214TIP3   OH2  526   5.904   0.639   1.754
  214TIP3    H1  527   5.945   0.641   1.843
  214TIP3    H2  528   5.969   0.689   1.701
  215TIP3   OH2  529   6.079   0.788   1.609
  215TIP3    H1  530   6.158   0.744   1.569
  215TIP3    H2  531   6.126   0.848   1.671
  216TIP3   OH2  532   5.133   0.640   1.637
  216TIP3    H1  533   5.045   0.675   1.611
  216TIP3    H2  534   5.144   0.684   1.722
  217TIP3   OH2  535   5.367   0.623   1.487
  217TIP3    H1  536   5.281   0.638   1.533
  217TIP3    H2  537   5.348   0.660   1.399
  218TIP3   OH2  538   5.767   0.661   1.318
  218TIP3    H1  539   5.701   0.682   1.248
  218TIP3    H2  540   5.787   0.751   1.352
  219TIP3   OH2  541   6.017   0.615   1.220
  219TIP3    H1  542   5.934   0.627   1.270
  219TIP3    H2  543   6.081   0.670   1.270
  220TIP3   OH2  544   6.232   0.798   1.283
  220TIP3    H1  545   6.212   0.890   1.253
  220TIP3    H2  546   6.306   0.777   1.222
  221TIP3   OH2  547   5.052   0.453   1.390
  221TIP3    H1  548   5.085   0.428   1.478
  221TIP3    H2  549   5.119   0.409   1.333
  222TIP3   OH2  550   5.233   0.336   1.233
  222TIP3    H1  551   5.259   0.245   1.213
  222TIP3    H2  552   5.321   0.380   1.238
  223TIP3   OH2  553   5.485   0.441   1.271
  223TIP3    H1  554   5.502   0.351   1.305
  223TIP3    H2  555   5.513   0.494   1.347
  224TIP3   OH2  556   6.567   0.666   1.660
  224TIP3    H1  557   6.497   0.634   1.600
  224TIP3    H2  558   6.548   0.762   1.654
  225TIP3   OH2  559   6.902   0.888   1.564
  225TIP3    H1  560   6.989   0.896   1.608
  225TIP3    H2  561   6.885   0.794   1.578
  226TIP3   OH2  562   2.591   1.592   2.184
  226TIP3    H1  563   2.563   1.507   2.141
  226TIP3    H2  564   2.609   1.646   2.104
  227TIP3   OH2  565   2.845   1.889   2.190
  227TIP3    H1  566   2.854   1.793   2.204
  227TIP3    H2  567   2.763   1.908   2.240
  228TIP3   OH2  568   2.540   2.227   2.289
  228TIP3    H1  569   2.530   2.265   2.200
  228TIP3    H2  570   2.595   2.294   2.332
  229TIP3   OH2  571   2.859   1.603   2.265
  229TIP3    H1  572   2.761   1.606   2.258
  229TIP3    H2  573   2.883   1.566   2.176
  230TIP3   OH2  574   2.344   1.908   2.161
  230TIP3    H1  575   2.251   1.894   2.133
  230TIP3    H2  576   2.369   1.982   2.101
  231TIP3   OH2  577   1.657   1.899   2.702
  231TIP3    H1  578   1.740   1.899   2.754
  231TIP3    H2  579   1.676   1.830   2.639
  232TIP3   OH2  580   2.306   1.395   2.773
  232TIP3    H1  581   2.371   1.351   2.717
  232TIP3    H2  582   2.230   1.335   2.773
  233TIP3   OH2  583   2.559   1.026   2.793
  233TIP3    H1  584   2.520   0.984   2.715
  233TIP3    H2  585   2.589   1.112   2.762
  234TIP3   OH2  586   2.533   1.309   2.457
  234TIP3    H1  587   2.478   1.365   2.399
  234TIP3    H2  588   2.624   1.332   2.425
  235TIP3   OH2  589   2.686   1.938   1.690
  235TIP3    H1  590   2.649   1.999   1.756
  235TIP3    H2  591   2.719   1.998   1.623
  236TIP3   OH2  592   2.666   2.019   1.982
  236TIP3    H1  593   2.629   1.930   1.966
  236TIP3    H2  594   2.752   1.995   2.018
  237TIP3   OH2  595   2.704   1.688   2.535
  237TIP3    H1  596   2.641   1.696   2.609
  237TIP3    H2  597   2.751   1.773   2.540
  238TIP3   OH2  598   2.533   1.774   1.991
  238TIP3    H1  599   2.448   1.807   2.023
  238TIP3    H2  600   2.508   1.725   1.911
  239TIP3   OH2  601   2.784   1.359   2.370
  239TIP3    H1  602   2.858   1.294   2.381
  239TIP3    H2  603   2.829   1.434   2.325
  240TIP3   OH2  604   2.924   1.138   2.442
  240TIP3    H1  605   2.877   1.070   2.393
  240TIP3    H2  606   3.014   1.100   2.438
  241TIP3   OH2  607   3.204   0.577   2.691
  241TIP3    H1  608   3.154   0.492   2.684
  241TIP3    H2  609   3.171   0.616   2.610
  242TIP3   OH2  610   1.947   1.970   2.422
  242TIP3    H1  611   2.004   1.953   2.499
  242TIP3    H2  612   2.010   2.006   2.356
  243TIP3   OH2  613   2.132   2.090   2.257
  243TIP3    H1  614   2.213   2.047   2.228
  243TIP3    H2  615   2.171   2.149   2.327
  244TIP3   OH2  616   2.364   2.081   1.948
  244TIP3    H1  617   2.285   2.137   1.927
  244TIP3    H2  618   2.413   2.092   1.863
  245TIP3   OH2  619   2.597   1.960   2.299
  245TIP3    H1  620   2.528   1.949   2.232
  245TIP3    H2  621   2.594   2.058   2.308
  246TIP3   OH2  622   3.850   1.355   1.151
  246TIP3    H1  623   3.868   1.443   1.110
  246TIP3    H2  624   3.855   1.298   1.070
  247TIP3   OH2  625   3.853   1.338   1.452
  247TIP3    H1  626   3.877   1.312   1.543
  247TIP3    H2  627   3.830   1.253   1.410
  248TIP3   OH2  628   3.192   1.168   1.771
  248TIP3    H1  629   3.160   1.141   1.857
  248TIP3    H2  630   3.177   1.265   1.775
  249TIP3   OH2  631   4.112   1.637   1.129
  249TIP3    H1  632   4.093   1.568   1.195
  249TIP3    H2  633   4.129   1.715   1.185
  250TIP3   OH2  634   3.160   1.638   1.549
  250TIP3    H1  635   3.147   1.581   1.628
  250TIP3    H2  636   3.256   1.642   1.540
  251TIP3   OH2  637   3.752   2.103   1.143
  251TIP3    H1  638   3.799   2.033   1.092
  251TIP3    H2  639   3.745   2.063   1.230
  252TIP3   OH2  640   3.671   1.563   1.454
  252TIP3    H1  641   3.716   1.480   1.433
  252TIP3    H2  642   3.747   1.612   1.491
  253TIP3   OH2  643   4.674   0.882   1.488
  253TIP3    H1  644   4.705   0.964   1.532
  253TIP3    H2  645   4.698   0.900   1.396
  254TIP3   OH2  646   4.132   1.104   1.555
  254TIP3    H1  647   4.198   1.034   1.565
  254TIP3    H2  648   4.148   1.137   1.468
  255TIP3   OH2  649   4.748   1.089   1.660
  255TIP3    H1  650   4.664   1.136   1.640
  255TIP3    H2  651   4.764   1.121   1.750
  256TIP3   OH2  652   3.765   1.608   0.981
  256TIP3    H1  653   3.771   1.574   0.890
  256TIP3    H2  654   3.718   1.692   0.968
  257TIP3   OH2  655   3.568   1.503   1.721
  257TIP3    H1  656   3.603   1.582   1.763
  257TIP3    H2  657   3.532   1.540   1.640
  258TIP3   OH2  658   4.317   0.827   1.303
  258TIP3    H1  659   4.369   0.756   1.343
  258TIP3    H2  660   4.373   0.903   1.315
  259TIP3   OH2  661   3.358   1.688   1.829
  259TIP3    H1  662   3.307   1.767   1.802
  259TIP3    H2  663   3.291   1.616   1.824
  260TIP3   OH2  664   4.178   1.880   1.293
  260TIP3    H1  665   4.088   1.873   1.332
  260TIP3    H2  666   4.170   1.966   1.246
  261TIP3   OH2  667   4.468   0.789   1.658
  261TIP3    H1  668   4.379   0.795   1.619
  261TIP3    H2  669   4.527   0.816   1.585
  262TIP3   OH2  670   3.874   1.932   0.970
  262TIP3    H1  671   3.923   1.850   0.950
  262TIP3    H2  672   3.935   1.995   0.925
  263TIP3   OH2  673   4.042   1.740   0.889
  263TIP3    H1  674   4.050   1.661   0.829
  263TIP3    H2  675   4.063   1.700   0.974
  264TIP3   OH2  676   4.402   1.792   1.637
  264TIP3    H1  677   4.391   1.717   1.575
  264TIP3    H2  678   4.383   1.869   1.578
  265TIP3   OH2  679   4.597   1.429   1.481
  265TIP3    H1  680   4.514   1.483   1.485
  265TIP3    H2  681   4.629   1.455   1.392
  266TIP3   OH2  682   4.050   1.440   0.943
  266TIP3    H1  683   4.106   1.372   0.963
  266TIP3    H2  684   3.993   1.340   0.916
  267TIP3   OH2  685   4.282   1.312   1.778
  267TIP3    H1  686   4.275   1.393   1.832
  267TIP3    H2  687   4.203   1.322   1.722
  268TIP3   OH2  688   3.421   1.679   1.431
  268TIP3    H1  689   3.387   1.634   1.353
  268TIP3    H2  690   3.514   1.648   1.434
  269TIP3   OH2  691   3.467   1.235   1.633
  269TIP3    H1  692   3.454   1.240   1.538
  269TIP3    H2  693   3.453   1.326   1.663
  270TIP3   OH2  694   3.938   1.877   1.414
  270TIP3    H1  695   3.919   1.958   1.464
  270TIP3    H2  696   3.918   1.805   1.477
  271TIP3   OH2  697   3.555   1.798   1.971
  271TIP3    H1  698   3.493   1.863   2.012
  271TIP3    H2  699   3.489   1.747   1.919
  272TIP3   OH2  700   3.300   1.341   2.070
  272TIP3    H1  701   3.299   1.426   2.119
  272TIP3    H2  702   3.240   1.365   1.997
  273TIP3   OH2  703   3.609   1.836   0.969
  273TIP3    H1  704   3.691   1.887   0.982
  273TIP3    H2  705   3.553   1.898   0.920
  274TIP3   OH2  706   3.346   1.964   2.048
  274TIP3    H1  707   3.310   1.963   1.957
  274TIP3    H2  708   3.266   1.946   2.102
  275TIP3   OH2  709   4.218   1.750   0.308
  275TIP3    H1  710   4.218   1.844   0.283
  275TIP3    H2  711   4.303   1.716   0.279
  276TIP3   OH2  712   2.901   1.498   2.024
  276TIP3    H1  713   2.851   1.529   1.946
  276TIP3    H2  714   2.979   1.458   1.981
  277TIP3   OH2  715   4.641   2.140   1.685
  277TIP3    H1  716   4.637   2.043   1.695
  277TIP3    H2  717   4.556   2.166   1.728
  278TIP3   OH2  718   3.748   1.923   1.820
  278TIP3    H1  719   3.746   2.017   1.849
  278TIP3    H2  720   3.676   1.886   1.874
  279TIP3   OH2  721   3.500   2.053   0.775
  279TIP3    H1  722   3.437   2.036   0.705
  279TIP3    H2  723   3.481   2.146   0.799
  280TIP3   OH2  724   3.760   2.022   0.692
  280TIP3    H1  725   3.667   2.018   0.721
  280TIP3    H2  726   3.803   1.958   0.751
  281TIP3   OH2  727   4.527   1.269   1.958
  281TIP3    H1  728   4.448   1.284   1.904
  281TIP3    H2  729   4.543   1.173   1.944
  282TIP3   OH2  730   3.108   1.718   2.024
  282TIP3    H1  731   3.186   1.683   2.071
  282TIP3    H2  732   3.082   1.639   1.973
  283TIP3   OH2  733   4.065   0.618   1.968
  283TIP3    H1  734   4.129   0.569   2.023
  283TIP3    H2  735   3.981   0.574   1.989
  284TIP3   OH2  736   4.299   1.047   1.879
  284TIP3    H1  737   4.253   1.051   1.966
  284TIP3    H2  738   4.274   1.133   1.839
  285TIP3   OH2  739   3.464   1.016   1.802
  285TIP3    H1  740   3.402   1.046   1.871
  285TIP3    H2  741   3.450   1.086   1.734
  286TIP3   OH2  742   4.014   1.273   2.117
  286TIP3    H1  743   3.991   1.199   2.177
  286TIP3    H2  744   4.110   1.279   2.133
  287TIP3   OH2  745   3.295   1.038   2.027
  287TIP3    H1  746   3.273   1.122   2.070
  287TIP3    H2  747   3.223   0.979   2.055
  288TIP3   OH2  748   3.971   1.273   1.694
  288TIP3    H1  749   4.027   1.211   1.643
  288TIP3    H2  750   3.951   1.218   1.772
  289TIP3   OH2  751   4.177   0.771   1.578
  289TIP3    H1  752   4.125   0.771   1.659
  289TIP3    H2  753   4.108   0.773   1.510
  290TIP3   OH2  754   4.331   2.488   1.781
  290TIP3    H1  755   4.326   2.514   1.687
  290TIP3    H2  756   4.406   2.542   1.812
  291TIP3   OH2  757   3.297   1.590   2.204
  291TIP3    H1  758   3.370   1.630   2.254
  291TIP3    H2  759   3.225   1.598   2.270
  292TIP3   OH2  760   3.853   0.973   1.450
  292TIP3    H1  761   3.913   0.986   1.523
  292TIP3    H2  762   3.815   0.887   1.468
  293TIP3   OH2  763   3.734   0.937   1.772
  293TIP3    H1  764   3.643   0.973   1.758
  293TIP3    H2  765   3.783   1.015   1.801
  294TIP3   OH2  766   4.365   1.574   1.471
  294TIP3    H1  767   4.389   1.627   1.392
  294TIP3    H2  768   4.278   1.537   1.446
  295TIP3   OH2  769   3.849   1.658   1.843
  295TIP3    H1  770   3.889   1.648   1.930
  295TIP3    H2  771   3.825   1.753   1.841
  296TIP3   OH2  772   3.019   1.282   2.176
  296TIP3    H1  773   3.089   1.290   2.243
  296TIP3    H2  774   3.010   1.185   2.167
  297TIP3   OH2  775   3.772   1.398   2.123
  297TIP3    H1  776   3.739   1.382   2.031
  297TIP3    H2  777   3.866   1.372   2.109
  298TIP3   OH2  778   4.025   1.908   1.743
  298TIP3    H1  779   3.928   1.917   1.748
  298TIP3    H2  780   4.052   1.967   1.816
  299TIP3   OH2  781   4.653   1.847   1.725
  299TIP3    H1  782   4.555   1.843   1.716
  299TIP3    H2  783   4.679   1.818   1.635
  300TIP3   OH2  784   4.129   1.809   0.555
  300TIP3    H1  785   4.132   1.732   0.613
  300TIP3    H2  786   4.138   1.768   0.467
  301TIP3   OH2  787   4.126   1.440   1.395
  301TIP3    H1  788   4.030   1.424   1.402
  301TIP3    H2  789   4.156   1.358   1.357
  302TIP3   OH2  790   3.527   2.012   1.613
  302TIP3    H1  791   3.567   2.085   1.560
  302TIP3    H2  792   3.604   1.979   1.661
  303TIP3   OH2  793   3.913   1.646   1.571
  303TIP3    H1  794   3.901   1.638   1.668
  303TIP3    H2  795   3.992   1.592   1.557
  304TIP3   OH2  796   4.163   2.177   1.619
  304TIP3    H1  797   4.081   2.126   1.608
  304TIP3    H2  798   4.152   2.245   1.549
  305TIP3   OH2  799   4.229   2.024   0.251
  305TIP3    H1  800   4.282   2.105   0.239
  305TIP3    H2  801   4.150   2.062   0.296
  306TIP3   OH2  802   4.059   1.535   0.709
  306TIP3    H1  803   3.988   1.517   0.627
  306TIP3    H2  804   4.117   1.471   0.687
  307TIP3   OH2  805   2.983   1.869   1.780
  307TIP3    H1  806   3.040   1.792   1.788
  307TIP3    H2  807   3.014   1.924   1.853
  308TIP3   OH2  808   4.064   0.876   1.882
  308TIP3    H1  809   4.159   0.893   1.886
  308TIP3    H2  810   4.058   0.784   1.915
  309TIP3   OH2  811   3.922   1.110   1.900
  309TIP3    H1  812   3.956   1.154   1.980
  309TIP3    H2  813   3.969   1.023   1.902
  310TIP3   OH2  814   4.565   1.003   1.878
  310TIP3    H1  815   4.467   1.000   1.884
  310TIP3    H2  816   4.577   0.960   1.792
  311TIP3   OH2  817   4.200   1.198   1.294
  311TIP3    H1  818   4.145   1.134   1.224
  311TIP3    H2  819   4.280   1.144   1.308
  312TIP3   OH2  820   4.185   2.152   1.215
  312TIP3    H1  821   4.141   2.198   1.140
  312TIP3    H2  822   4.278   2.171   1.192
  313TIP3   OH2  823   2.954   2.179   2.193
  313TIP3    H1  824   3.041   2.178   2.239
  313TIP3    H2  825   2.934   2.083   2.190
  314TIP3   OH2  826   3.438   2.143   2.242
  314TIP3    H1  827   3.534   2.128   2.239
  314TIP3    H2  828   3.409   2.086   2.168
  315TIP3   OH2  829   4.076   2.053   1.972
  315TIP3    H1  830   4.070   1.983   2.041
  315TIP3    H2  831   4.153   2.106   2.002
  316TIP3   OH2  832   3.097   1.586   2.398
  316TIP3    H1  833   3.108   1.490   2.395
  316TIP3    H2  834   3.009   1.598   2.357
  317TIP3   OH2  835   3.694   1.673   2.168
  317TIP3    H1  836   3.649   1.704   2.086
  317TIP3    H2  837   3.726   1.585   2.141
  318TIP3   OH2  838   4.186   1.681   1.775
  318TIP3    H1  839   4.262   1.723   1.729
  318TIP3    H2  840   4.117   1.750   1.759
  319TIP3   OH2  841   3.198   1.311   2.385
  319TIP3    H1  842   3.267   1.247   2.368
  319TIP3    H2  843   3.226   1.350   2.471
  320TIP3   OH2  844   3.541   1.220   2.056
  320TIP3    H1  845   3.451   1.259   2.048
  320TIP3    H2  846   3.579   1.241   1.969
  321TIP3   OH2  847   4.052   1.603   2.173
  321TIP3    H1  848   4.130   1.588   2.118
  321TIP3    H2  849   4.063   1.536   2.243
  322TIP3   OH2  850   3.656   0.989   2.157
  322TIP3    H1  851   3.655   0.902   2.112
  322TIP3    H2  852   3.605   1.041   2.091
  323TIP3   OH2  853   3.647   0.769   1.968
  323TIP3    H1  854   3.689   0.824   1.898
  323TIP3    H2  855   3.570   0.737   1.918
  324TIP3   OH2  856   3.711   1.330   1.868
  324TIP3    H1  857   3.784   1.312   1.808
  324TIP3    H2  858   3.654   1.385   1.810
  325TIP3   OH2  859   4.279   1.292   2.232
  325TIP3    H1  860   4.311   1.201   2.219
  325TIP3    H2  861   4.350   1.343   2.191
  326TIP3   OH2  862   4.315   1.538   1.962
  326TIP3    H1  863   4.258   1.592   1.903
  326TIP3    H2  864   4.403   1.558   1.923
  327TIP3   OH2  865   3.518   1.094   2.377
  327TIP3    H1  866   3.448   1.047   2.428
  327TIP3    H2  867   3.530   1.027   2.306
  328TIP3   OH2  868   3.796   0.547   2.037
  328TIP3    H1  869   3.749   0.631   2.015
  328TIP3    H2  870   3.742   0.484   1.987
  329TIP3   OH2  871   3.910   1.065   2.258
  329TIP3    H1  872   3.910   1.040   2.352
  329TIP3    H2  873   3.832   1.016   2.226
  330TIP3   OH2  874   4.187   1.029   2.125
  330TIP3    H1  875   4.106   0.994   2.165
  330TIP3    H2  876   4.257   0.982   2.175
  331TIP3   OH2  877   4.406   0.937   2.266
  331TIP3    H1  878   4.413   0.841   2.282
  331TIP3    H2  879   4.397   0.975   2.356
  332TIP3   OH2  880   3.379   0.866   2.449
  332TIP3    H1  881   3.375   0.774   2.414
  332TIP3    H2  882   3.413   0.848   2.539
  333TIP3   OH2  883   3.890   0.554   2.298
  333TIP3    H1  884   3.961   0.487   2.289
  333TIP3    H2  885   3.852   0.551   2.208
  334TIP3   OH2  886   3.957   0.772   2.452
  334TIP3    H1  887   3.937   0.697   2.391
  334TIP3    H2  888   3.876   0.825   2.447
  335TIP3   OH2  889   4.439   2.240   1.171
  335TIP3    H1  890   4.463   2.279   1.257
  335TIP3    H2  891   4.496   2.289   1.110
  336TIP3   OH2  892   4.464   2.264   1.454
  336TIP3    H1  893   4.423   2.176   1.448
  336TIP3    H2  894   4.542   2.243   1.507
  337TIP3   OH2  895   4.515   1.939   2.028
  337TIP3    H1  896   4.440   1.949   2.090
  337TIP3    H2  897   4.554   2.029   2.030
  338TIP3   OH2  898   4.352   1.469   0.650
  338TIP3    H1  899   4.427   1.528   0.632
  338TIP3    H2  900   4.383   1.416   0.722
  339TIP3   OH2  901   4.466   1.310   0.848
  339TIP3    H1  902   4.392   1.280   0.899
  339TIP3    H2  903   4.521   1.362   0.911
  340TIP3   OH2  904   4.510   1.712   1.283
  340TIP3    H1  905   4.563   1.649   1.231
  340TIP3    H2  906   4.504   1.789   1.223
  341TIP3   OH2  907   4.342   2.011   1.479
  341TIP3    H1  908   4.271   2.058   1.527
  341TIP3    H2  909   4.293   1.967   1.407
  342TIP3   OH2  910   4.342   1.031   0.995
  342TIP3    H1  911   4.354   1.058   1.088
  342TIP3    H2  912   4.447   1.043   1.017
  343TIP3   OH2  913   4.559   1.602   1.854
  343TIP3    H1  914   4.632   1.537   1.844
  343TIP3    H2  915   4.583   1.671   1.791
  344TIP3   OH2  916   4.743   1.406   1.872
  344TIP3    H1  917   4.669   1.356   1.911
  344TIP3    H2  918   4.817   1.343   1.886
  345TIP3   OH2  919   4.431   1.076   1.383
  345TIP3    H1  920   4.520   1.094   1.346
  345TIP3    H2  921   4.449   1.108   1.474
  346TIP3   OH2  922   4.497   1.212   1.617
  346TIP3    H1  923   4.423   1.248   1.669
  346TIP3    H2  924   4.531   1.293   1.573
  347TIP3   OH2  925   3.126   0.957   2.443
  347TIP3    H1  926   3.217   0.924   2.431
  347TIP3    H2  927   3.074   0.877   2.433
  348TIP3   OH2  928   4.947   0.799   2.179
  348TIP3    H1  929   5.007   0.736   2.135
  348TIP3    H2  930   4.919   0.855   2.104
  349TIP3   OH2  931   4.818   0.940   1.984
  349TIP3    H1  932   4.731   0.982   1.997
  349TIP3    H2  933   4.793   0.868   1.923
  350TIP3   OH2  934   4.029   2.108   0.833
  350TIP3    H1  935   4.074   2.091   0.748
  350TIP3    H2  936   4.081   2.179   0.871
  351TIP3   OH2  937   3.132   1.928   2.229
  351TIP3    H1  938   3.061   1.880   2.182
  351TIP3    H2  939   3.114   1.905   2.321
  352TIP3   OH2  940   3.298   1.954   1.766
  352TIP3    H1  941   3.247   2.027   1.723
  352TIP3    H2  942   3.382   1.966   1.718
  353TIP3   OH2  943   3.746   2.189   1.898
  353TIP3    H1  944   3.786   2.194   1.987
  353TIP3    H2  945   3.810   2.241   1.845
  354TIP3   OH2  946   3.923   2.342   1.759
  354TIP3    H1  947   3.995   2.295   1.714
  354TIP3    H2  948   3.974   2.401   1.819
  355TIP3   OH2  949   4.718   0.710   1.859
  355TIP3    H1  950   4.628   0.696   1.824
  355TIP3    H2  951   4.754   0.618   1.848
  356TIP3   OH2  952   2.982   2.215   1.779
  356TIP3    H1  953   2.890   2.242   1.758
  356TIP3    H2  954   2.983   2.232   1.874
  357TIP3   OH2  955   3.215   2.187   1.641
  357TIP3    H1  956   3.129   2.200   1.686
  357TIP3    H2  957   3.194   2.216   1.550
  358TIP3   OH2  958   3.640   2.210   1.441
  358TIP3    H1  959   3.571   2.228   1.374
  358TIP3    H2  960   3.651   2.298   1.481
  359TIP3   OH2  961   3.908   2.149   1.494
  359TIP3    H1  962   3.814   2.167   1.474
  359TIP3    H2  963   3.951   2.224   1.449
  360TIP3   OH2  964   4.116   2.342   1.407
  360TIP3    H1  965   4.100   2.427   1.360
  360TIP3    H2  966   4.140   2.283   1.332
  361TIP3   OH2  967   2.913   2.006   1.532
  361TIP3    H1  968   2.908   1.969   1.623
  361TIP3    H2  969   2.993   1.959   1.501
  362TIP3   OH2  970   3.105   1.866   1.407
  362TIP3    H1  971   3.121   1.779   1.450
  362TIP3    H2  972   3.195   1.897   1.388
  363TIP3   OH2  973   3.366   1.970   1.385
  363TIP3    H1  974   3.399   1.880   1.370
  363TIP3    H2  975   3.404   1.987   1.473
  364TIP3   OH2  976   4.469   0.513   1.408
  364TIP3    H1  977   4.504   0.547   1.322
  364TIP3    H2  978   4.378   0.487   1.386
  365TIP3   OH2  979   4.571   0.601   1.179
  365TIP3    H1  980   4.585   0.539   1.106
  365TIP3    H2  981   4.610   0.684   1.145
  366TIP3   OH2  982   4.169   2.074   0.593
  366TIP3    H1  983   4.153   1.977   0.585
  366TIP3    H2  984   4.118   2.107   0.516
  367TIP3   OH2  985   3.397   0.600   2.403
  367TIP3    H1  986   3.363   0.516   2.440
  367TIP3    H2  987   3.489   0.598   2.436
  368TIP3   OH2  988   3.649   0.608   2.518
  368TIP3    H1  989   3.726   0.574   2.469
  368TIP3    H2  990   3.629   0.533   2.577
  369TIP3   OH2  991   4.453   0.666   2.292
  369TIP3    H1  992   4.474   0.633   2.381
  369TIP3    H2  993   4.541   0.661   2.247
  370TIP3   OH2  994   4.392   2.219   1.784
  370TIP3    H1  995   4.314   2.189   1.733
  370TIP3    H2  996   4.375   2.316   1.786
  371TIP3   OH2  997   5.641   1.599   0.563
  371TIP3    H1  998   5.616   1.690   0.537
  371TIP3    H2  999   5.566   1.550   0.526
  372TIP3   OH2 1000   5.659   1.594   0.931
  372TIP3    H1 1001   5.690   1.562   1.018
  372TIP3    H2 1002   5.617   1.514   0.895
  373TIP3   OH2 1003   4.958   1.489   1.296
  373TIP3    H1 1004   4.991   1.421   1.359
  373TIP3    H2 1005   5.038   1.542   1.283
  374TIP3   OH2 1006   5.904   1.880   0.616
  374TIP3    H1 1007   5.888   1.822   0.691
  374TIP3    H2 1008   5.930   1.963   0.661
  375TIP3   OH2 1009   4.930   1.898   1.022
  375TIP3    H1 1010   4.922   1.800   1.023
  375TIP3    H2 1011   5.027   1.907   1.012
  376TIP3   OH2 1012   4.635   1.093   0.806
  376TIP3    H1 1013   4.593   1.181   0.800
  376TIP3    H2 1014   4.558   1.039   0.828
  377TIP3   OH2 1015   4.698   1.391   0.982
  377TIP3    H1 1016   4.750   1.314   1.015
  377TIP3    H2 1017   4.751   1.419   0.906
  378TIP3   OH2 1018   5.550   2.358   0.629
  378TIP3    H1 1019   5.594   2.287   0.577
  378TIP3    H2 1020   5.545   2.317   0.716
  379TIP3   OH2 1021   5.456   1.818   0.979
  379TIP3    H1 1022   5.495   1.742   0.933
  379TIP3    H2 1023   5.540   1.863   1.003
  380TIP3   OH2 1024   6.429   1.171   1.011
  380TIP3    H1 1025   6.494   1.218   1.068
  380TIP3    H2 1026   6.406   1.241   0.949
  381TIP3   OH2 1027   5.868   1.320   1.009
  381TIP3    H1 1028   5.906   1.233   1.030
  381TIP3    H2 1029   5.839   1.305   0.917
  382TIP3   OH2 1030   5.200   0.976   0.979
  382TIP3    H1 1031   5.188   1.050   0.916
  382TIP3    H2 1032   5.151   0.906   0.931
  383TIP3   OH2 1033   4.840   1.179   1.084
  383TIP3    H1 1034   4.924   1.162   1.132
  383TIP3    H2 1035   4.857   1.125   1.003
  384TIP3   OH2 1036   5.282   1.380   0.878
  384TIP3    H1 1037   5.377   1.356   0.888
  384TIP3    H2 1038   5.244   1.296   0.846
  385TIP3   OH2 1039   6.555   1.368   1.152
  385TIP3    H1 1040   6.467   1.410   1.141
  385TIP3    H2 1041   6.564   1.372   1.249
  386TIP3   OH2 1042   5.202   0.962   1.411
  386TIP3    H1 1043   5.144   1.001   1.343
  386TIP3    H2 1044   5.151   0.983   1.492
  387TIP3   OH2 1045   5.552   1.817   0.416
  387TIP3    H1 1046   5.508   1.796   0.332
  387TIP3    H2 1047   5.504   1.898   0.443
  388TIP3   OH2 1048   5.311   1.738   1.206
  388TIP3    H1 1049   5.249   1.805   1.242
  388TIP3    H2 1050   5.352   1.788   1.132
  389TIP3   OH2 1051   5.074   1.079   1.196
  389TIP3    H1 1052   5.138   1.151   1.218
  389TIP3    H2 1053   5.122   1.038   1.121
  390TIP3   OH2 1054   5.139   1.932   1.304
  390TIP3    H1 1055   5.113   2.017   1.263
  390TIP3    H2 1056   5.059   1.917   1.359
  391TIP3   OH2 1057   4.559   1.626   0.556
  391TIP3    H1 1058   4.502   1.631   0.477
  391TIP3    H2 1059   4.569   1.720   0.582
  392TIP3   OH2 1060   5.974   2.138   0.779
  392TIP3    H1 1061   5.884   2.129   0.819
  392TIP3    H2 1062   5.965   2.223   0.732
  393TIP3   OH2 1063   6.235   1.047   1.164
  393TIP3    H1 1064   6.152   1.066   1.118
  393TIP3    H2 1065   6.302   1.077   1.099
  394TIP3   OH2 1066   5.567   0.714   1.137
  394TIP3    H1 1067   5.546   0.621   1.117
  394TIP3    H2 1068   5.484   0.742   1.181
  395TIP3   OH2 1069   5.673   2.182   0.458
  395TIP3    H1 1070   5.725   2.102   0.433
  395TIP3    H2 1071   5.732   2.251   0.422
  396TIP3   OH2 1072   5.818   1.965   0.370
  396TIP3    H1 1073   5.762   1.896   0.332
  396TIP3    H2 1074   5.847   1.925   0.455
  397TIP3   OH2 1075   6.199   2.050   1.123
  397TIP3    H1 1076   6.186   1.973   1.064
  397TIP3    H2 1077   6.180   2.125   1.062
  398TIP3   OH2 1078   5.489   1.457   0.372
  398TIP3    H1 1079   5.408   1.509   0.355
  398TIP3    H2 1080   5.523   1.444   0.282
  399TIP3   OH2 1081   6.389   1.681   0.961
  399TIP3    H1 1082   6.307   1.735   0.971
  399TIP3    H2 1083   6.419   1.714   0.874
  400TIP3   OH2 1084   5.834   1.530   0.388
  400TIP3    H1 1085   5.757   1.551   0.447
  400TIP3    H2 1086   5.907   1.552   0.448
  401TIP3   OH2 1087   6.073   1.567   1.263
  401TIP3    H1 1088   6.068   1.650   1.312
  401TIP3    H2 1089   5.986   1.568   1.218
  402TIP3   OH2 1090   5.068   1.522   0.768
  402TIP3    H1 1091   5.030   1.463   0.700
  402TIP3    H2 1092   5.146   1.471   0.798
  403TIP3   OH2 1093   5.197   1.933   0.918
  403TIP3    H1 1094   5.178   1.896   0.831
  403TIP3    H2 1095   5.288   1.900   0.935
  404TIP3   OH2 1096   5.206   1.495   1.124
  404TIP3    H1 1097   5.239   1.473   1.034
  404TIP3    H2 1098   5.249   1.581   1.142
  405TIP3   OH2 1099   5.733   2.133   0.900
  405TIP3    H1 1100   5.718   2.214   0.953
  405TIP3    H2 1101   5.717   2.061   0.964
  406TIP3   OH2 1102   5.344   2.052   1.448
  406TIP3    H1 1103   5.283   2.115   1.493
  406TIP3    H2 1104   5.279   1.999   1.397
  407TIP3   OH2 1105   5.099   1.607   1.551
  407TIP3    H1 1106   5.103   1.695   1.593
  407TIP3    H2 1107   5.003   1.589   1.556
  408TIP3   OH2 1108   5.420   2.064   0.456
  408TIP3    H1 1109   5.501   2.118   0.466
  408TIP3    H2 1110   5.358   2.127   0.416
  409TIP3   OH2 1111   5.139   2.221   1.533
  409TIP3    H1 1112   5.104   2.222   1.442
  409TIP3    H2 1113   5.058   2.198   1.586
  410TIP3   OH2 1114   4.937   1.363   0.571
  410TIP3    H1 1115   4.883   1.427   0.518
  410TIP3    H2 1116   4.876   1.290   0.579
  411TIP3   OH2 1117   4.716   1.752   1.481
  411TIP3    H1 1118   4.651   1.732   1.410
  411TIP3    H2 1119   4.753   1.664   1.502
  412TIP3   OH2 1120   4.571   1.941   1.119
  412TIP3    H1 1121   4.666   1.941   1.104
  412TIP3    H2 1122   4.559   2.025   1.166
  413TIP3   OH2 1123   6.436   2.396   1.169
  413TIP3    H1 1124   6.434   2.299   1.182
  413TIP3    H2 1125   6.352   2.421   1.214
  414TIP3   OH2 1126   5.543   2.180   1.305
  414TIP3    H1 1127   5.541   2.273   1.336
  414TIP3    H2 1128   5.470   2.141   1.359
  415TIP3   OH2 1129   5.282   2.300   0.265
  415TIP3    H1 1130   5.253   2.289   0.172
  415TIP3    H2 1131   5.267   2.396   0.279
  416TIP3   OH2 1132   4.740   2.160   0.639
  416TIP3    H1 1133   4.787   2.151   0.725
  416TIP3    H2 1134   4.685   2.079   0.642
  417TIP3   OH2 1135   5.484   2.215  -0.078
  417TIP3    H1 1136   5.550   2.169  -0.133
  417TIP3    H2 1137   5.536   2.237   0.002
  418TIP3   OH2 1138   5.546   2.274   0.183
  418TIP3    H1 1139   5.463   2.268   0.233
  418TIP3    H2 1140   5.609   2.224   0.237
  419TIP3   OH2 1141   6.325   1.528   1.443
  419TIP3    H1 1142   6.243   1.540   1.392
  419TIP3    H2 1143   6.343   1.433   1.429
  420TIP3   OH2 1144   4.922   1.933   1.469
  420TIP3    H1 1145   4.971   1.917   1.552
  420TIP3    H2 1146   4.847   1.871   1.476
  421TIP3   OH2 1147   5.318   0.761   1.252
  421TIP3    H1 1148   5.229   0.729   1.227
  421TIP3    H2 1149   5.292   0.843   1.300
  422TIP3   OH2 1150   5.855   0.882   1.454
  422TIP3    H1 1151   5.926   0.849   1.514
  422TIP3    H2 1152   5.773   0.861   1.503
  423TIP3   OH2 1153   6.095   1.304   1.367
  423TIP3    H1 1154   6.044   1.299   1.451
  423TIP3    H2 1155   6.068   1.390   1.331
  424TIP3   OH2 1156   5.253   1.273   1.272
  424TIP3    H1 1157   5.203   1.296   1.353
  424TIP3    H2 1158   5.239   1.354   1.218
  425TIP3   OH2 1159   5.137   1.162   0.792
  425TIP3    H1 1160   5.043   1.137   0.803
  425TIP3    H2 1161   5.153   1.131   0.700
  426TIP3   OH2 1162   5.584   1.271   0.551
  426TIP3    H1 1163   5.533   1.340   0.503
  426TIP3    H2 1164   5.632   1.231   0.476
  427TIP3   OH2 1165   5.802   1.524   1.601
  427TIP3    H1 1166   5.780   1.450   1.662
  427TIP3    H2 1167   5.897   1.536   1.621
  428TIP3   OH2 1168   5.789   1.270   0.745
  428TIP3    H1 1169   5.715   1.303   0.690
  428TIP3    H2 1170   5.806   1.187   0.697
  429TIP3   OH2 1171   5.072   1.303   1.481
  429TIP3    H1 1172   5.101   1.368   1.547
  429TIP3    H2 1173   5.062   1.222   1.534
  430TIP3   OH2 1174   4.679   0.817   1.061
  430TIP3    H1 1175   4.742   0.857   1.125
  430TIP3    H2 1176   4.719   0.839   0.976
  431TIP3   OH2 1177   5.797   1.519   1.176
  431TIP3    H1 1178   5.828   1.447   1.116
  431TIP3    H2 1179   5.766   1.466   1.253
  432TIP3   OH2 1180   5.455   1.000   0.853
  432TIP3    H1 1181   5.379   0.987   0.913
  432TIP3    H2 1182   5.530   0.974   0.908
  433TIP3   OH2 1183   4.896   1.035   0.857
  433TIP3    H1 1184   4.805   1.046   0.821
  433TIP3    H2 1185   4.924   0.947   0.826
  434TIP3   OH2 1186   5.175   1.053   0.545
  434TIP3    H1 1187   5.272   1.037   0.550
  434TIP3    H2 1188   5.158   1.049   0.451
  435TIP3   OH2 1189   5.943   1.055   1.049
  435TIP3    H1 1190   5.913   1.068   1.141
  435TIP3    H2 1191   5.873   0.994   1.016
  436TIP3   OH2 1192   6.126   2.745   1.268
  436TIP3    H1 1193   6.123   2.769   1.173
  436TIP3    H2 1194   6.204   2.796   1.298
  437TIP3   OH2 1195   5.083   1.854   1.690
  437TIP3    H1 1196   5.163   1.886   1.737
  437TIP3    H2 1197   5.018   1.858   1.763
  438TIP3   OH2 1198   5.549   1.314   0.947
  438TIP3    H1 1199   5.607   1.261   0.891
  438TIP3    H2 1200   5.557   1.268   1.033
  439TIP3   OH2 1201   5.064   0.797   0.817
  439TIP3    H1 1202   5.048   0.710   0.859
  439TIP3    H2 1203   5.127   0.774   0.747
  440TIP3   OH2 1204   5.523   1.204   1.237
  440TIP3    H1 1205   5.435   1.243   1.248
  440TIP3    H2 1206   5.582   1.267   1.284
  441TIP3   OH2 1207   5.261   1.605   0.330
  441TIP3    H1 1208   5.194   1.532   0.323
  441TIP3    H2 1209   5.242   1.637   0.422
  442TIP3   OH2 1210   6.161   1.832   0.960
  442TIP3    H1 1211   6.184   1.882   0.879
  442TIP3    H2 1212   6.074   1.792   0.936
  443TIP3   OH2 1213   5.660   1.915   1.326
  443TIP3    H1 1214   5.683   1.896   1.418
  443TIP3    H2 1215   5.622   2.005   1.332
  444TIP3   OH2 1216   4.954   1.620   1.005
  444TIP3    H1 1217   4.990   1.593   0.918
  444TIP3    H2 1218   4.995   1.556   1.065
  445TIP3   OH2 1219   5.417   1.750   0.158
  445TIP3    H1 1220   5.368   1.836   0.162
  445TIP3    H2 1221   5.360   1.695   0.216
  446TIP3   OH2 1222   4.832   1.539   1.618
  446TIP3    H1 1223   4.852   1.525   1.713
  446TIP3    H2 1224   4.763   1.473   1.602
  447TIP3   OH2 1225   5.559   1.653   1.639
  447TIP3    H1 1226   5.500   1.596   1.587
  447TIP3    H2 1227   5.647   1.620   1.611
  448TIP3   OH2 1228   5.821   2.173   1.223
  448TIP3    H1 1229   5.725   2.173   1.234
  448TIP3    H2 1230   5.848   2.227   1.301
  449TIP3   OH2 1231   6.449   2.105   1.211
  449TIP3    H1 1232   6.351   2.100   1.203
  449TIP3    H2 1233   6.475   2.076   1.121
  450TIP3   OH2 1234   5.923   1.699   0.880
  450TIP3    H1 1235   5.829   1.674   0.893
  450TIP3    H2 1236   5.957   1.619   0.836
  451TIP3   OH2 1237   5.054   1.923   0.631
  451TIP3    H1 1238   5.055   2.004   0.577
  451TIP3    H2 1239   4.960   1.907   0.639
  452TIP3   OH2 1240   4.664   1.260   0.434
  452TIP3    H1 1241   4.702   1.349   0.425
  452TIP3    H2 1242   4.587   1.268   0.375
  453TIP3   OH2 1243   5.193   1.689   0.577
  453TIP3    H1 1244   5.157   1.779   0.594
  453TIP3    H2 1245   5.154   1.639   0.651
  454TIP3   OH2 1246   5.323   2.267   1.099
  454TIP3    H1 1247   5.362   2.340   1.047
  454TIP3    H2 1248   5.400   2.233   1.146
  455TIP3   OH2 1249   4.974   2.161   0.484
  455TIP3    H1 1250   4.888   2.172   0.529
  455TIP3    H2 1251   5.007   2.254   0.484
  456TIP3   OH2 1252   5.711   1.900   1.058
  456TIP3    H1 1253   5.702   1.898   1.155
  456TIP3    H2 1254   5.790   1.847   1.044
  457TIP3   OH2 1255   5.736   1.849  -0.036
  457TIP3    H1 1256   5.788   1.810   0.037
  457TIP3    H2 1257   5.668   1.897   0.013
  458TIP3   OH2 1258   5.960   2.435   1.107
  458TIP3    H1 1259   5.880   2.380   1.099
  458TIP3    H2 1260   5.945   2.500   1.035
  459TIP3   OH2 1261   5.971   2.335  -0.245
  459TIP3    H1 1262   6.038   2.395  -0.212
  459TIP3    H2 1263   5.923   2.315  -0.162
  460TIP3   OH2 1264   5.044   1.046   1.627
  460TIP3    H1 1265   4.947   1.048   1.638
  460TIP3    H2 1266   5.071   0.984   1.697
  461TIP3   OH2 1267   5.853   1.727   0.187
  461TIP3    H1 1268   5.832   1.658   0.254
  461TIP3    H2 1269   5.919   1.781   0.232
  462TIP3   OH2 1270   4.761   2.130   1.258
  462TIP3    H1 1271   4.815   2.055   1.289
  462TIP3    H2 1272   4.792   2.201   1.316
  463TIP3   OH2 1273   5.039   1.775  -0.065
  463TIP3    H1 1274   5.105   1.705  -0.075
  463TIP3    H2 1275   5.021   1.775   0.031
  464TIP3   OH2 1276   5.001   1.778   0.211
  464TIP3    H1 1277   5.072   1.752   0.270
  464TIP3    H2 1278   5.004   1.877   0.218
  465TIP3   OH2 1279   4.765   1.513   0.423
  465TIP3    H1 1280   4.697   1.551   0.484
  465TIP3    H2 1281   4.763   1.581   0.352
  466TIP3   OH2 1282   5.882   1.113   1.310
  466TIP3    H1 1283   5.967   1.147   1.344
  466TIP3    H2 1284   5.869   1.032   1.363
  467TIP3   OH2 1285   5.265   1.972   0.165
  467TIP3    H1 1286   5.180   2.008   0.198
  467TIP3    H2 1287   5.282   2.034   0.092
  468TIP3   OH2 1288   5.442   1.030   0.579
  468TIP3    H1 1289   5.500   1.108   0.574
  468TIP3    H2 1290   5.453   1.006   0.673
  469TIP3   OH2 1291   5.720   1.358   1.383
  469TIP3    H1 1292   5.743   1.410   1.462
  469TIP3    H2 1293   5.776   1.279   1.393
  470TIP3   OH2 1294   5.004   2.049   0.230
  470TIP3    H1 1295   4.977   2.119   0.167
  470TIP3    H2 1296   4.992   2.094   0.316
  471TIP3   OH2 1297   6.361   1.267   1.355
  471TIP3    H1 1298   6.263   1.266   1.366
  471TIP3    H2 1299   6.369   1.204   1.282
  472TIP3   OH2 1300   6.009   1.461   0.751
  472TIP3    H1 1301   5.934   1.399   0.751
  472TIP3    H2 1302   6.075   1.411   0.804
  473TIP3   OH2 1303   4.729   1.698   0.220
  473TIP3    H1 1304   4.804   1.760   0.230
  473TIP3    H2 1305   4.764   1.640   0.150
  474TIP3   OH2 1306   5.979   2.409   0.700
  474TIP3    H1 1307   5.935   2.460   0.628
  474TIP3    H2 1308   6.073   2.427   0.678
  475TIP3   OH2 1309   5.053   0.680   1.229
  475TIP3    H1 1310   5.027   0.638   1.144
  475TIP3    H2 1311   5.047   0.604   1.290
  476TIP3   OH2 1312   4.595   1.902   0.611
  476TIP3    H1 1313   4.522   1.931   0.666
  476TIP3    H2 1314   4.569   1.939   0.524
  477TIP3   OH2 1315   4.752   2.437   1.681
  477TIP3    H1 1316   4.838   2.437   1.727
  477TIP3    H2 1317   4.731   2.342   1.678
  478TIP3   OH2 1318   5.233   2.401   1.727
  478TIP3    H1 1319   5.328   2.384   1.730
  478TIP3    H2 1320   5.207   2.343   1.652
  479TIP3   OH2 1321   5.211   1.984  -0.128
  479TIP3    H1 1322   5.142   1.915  -0.117
  479TIP3    H2 1323   5.277   1.940  -0.182
  480TIP3   OH2 1324   5.872   2.310   1.459
  480TIP3    H1 1325   5.864   2.239   1.527
  480TIP3    H2 1326   5.949   2.360   1.489
  481TIP3   OH2 1327   5.692   2.081  -0.191
  481TIP3    H1 1328   5.732   2.006  -0.143
  481TIP3    H2 1329   5.750   2.154  -0.167
  482TIP3   OH2 1330   4.881   1.843   1.882
  482TIP3    H1 1331   4.898   1.747   1.883
  482TIP3    H2 1332   4.795   1.847   1.836
  483TIP3   OH2 1333   4.858   1.498   0.069
  483TIP3    H1 1334   4.924   1.468   0.134
  483TIP3    H2 1335   4.913   1.533  -0.003
  484TIP3   OH2 1336   5.489   1.929   1.655
  484TIP3    H1 1337   5.448   1.947   1.567
  484TIP3    H2 1338   5.520   1.836   1.645
  485TIP3   OH2 1339   5.264   1.626  -0.083
  485TIP3    H1 1340   5.286   1.689  -0.013
  485TIP3    H2 1341   5.353   1.623  -0.124
  486TIP3   OH2 1342   5.983   1.938   1.261
  486TIP3    H1 1343   6.057   1.983   1.217
  486TIP3    H2 1344   5.912   2.002   1.247
  487TIP3   OH2 1345   5.000   1.576   1.864
  487TIP3    H1 1346   5.080   1.530   1.835
  487TIP3    H2 1347   5.028   1.610   1.952
  488TIP3   OH2 1348   5.082   1.401   0.312
  488TIP3    H1 1349   5.045   1.362   0.393
  488TIP3    H2 1350   5.067   1.331   0.245
  489TIP3   OH2 1351   5.336   1.462   1.524
  489TIP3    H1 1352   5.259   1.523   1.526
  489TIP3    H2 1353   5.387   1.496   1.447
  490TIP3   OH2 1354   5.854   1.865   1.659
  490TIP3    H1 1355   5.932   1.840   1.608
  490TIP3    H2 1356   5.851   1.797   1.728
  491TIP3   OH2 1357   5.458   1.251   1.652
  491TIP3    H1 1358   5.460   1.172   1.594
  491TIP3    H2 1359   5.416   1.317   1.592
  492TIP3   OH2 1360   5.460   1.040   1.459
  492TIP3    H1 1361   5.490   1.081   1.375
  492TIP3    H2 1362   5.367   1.017   1.438
  493TIP3   OH2 1363   5.489   1.574   1.333
  493TIP3    H1 1364   5.572   1.581   1.284
  493TIP3    H2 1365   5.433   1.640   1.287
  494TIP3   OH2 1366   6.073   1.540   1.713
  494TIP3    H1 1367   6.119   1.455   1.719
  494TIP3    H2 1368   6.141   1.597   1.676
  495TIP3   OH2 1369   6.112   1.794   1.449
  495TIP3    H1 1370   6.055   1.847   1.389
  495TIP3    H2 1371   6.200   1.813   1.409
  496TIP3   OH2 1372   5.336   1.363   1.883
  496TIP3    H1 1373   5.269   1.293   1.894
  496TIP3    H2 1374   5.372   1.341   1.794
  497TIP3   OH2 1375   5.594   0.808   1.530
  497TIP3    H1 1376   5.542   0.887   1.504
  497TIP3    H2 1377   5.531   0.735   1.514
  498TIP3   OH2 1378   5.720   1.306   1.741
  498TIP3    H1 1379   5.709   1.293   1.836
  498TIP3    H2 1380   5.630   1.280   1.710
  499TIP3   OH2 1381   5.960   1.258   1.597
  499TIP3    H1 1382   5.885   1.256   1.659
  499TIP3    H2 1383   6.034   1.226   1.652
  500TIP3   OH2 1384   6.189   1.197   1.747
  500TIP3    H1 1385   6.203   1.101   1.762
  500TIP3    H2 1386   6.186   1.233   1.837
  501TIP3   OH2 1387   5.176   1.143   1.935
  501TIP3    H1 1388   5.184   1.053   1.897
  501TIP3    H2 1389   5.214   1.129   2.024
  502TIP3   OH2 1390   5.686   0.810   1.786
  502TIP3    H1 1391   5.755   0.740   1.779
  502TIP3    H2 1392   5.649   0.806   1.696
  503TIP3   OH2 1393   5.755   1.025   1.942
  503TIP3    H1 1394   5.734   0.954   1.878
  503TIP3    H2 1395   5.677   1.084   1.933
  504TIP3   OH2 1396   4.961   2.246   0.043
  504TIP3    H1 1397   5.057   2.249   0.023
  504TIP3    H2 1398   4.925   2.298  -0.030
  505TIP3   OH2 1399   4.477   1.598   0.275
  505TIP3    H1 1400   4.563   1.641   0.262
  505TIP3    H2 1401   4.441   1.609   0.185
  506TIP3   OH2 1402   4.371   2.248   0.668
  506TIP3    H1 1403   4.302   2.186   0.634
  506TIP3    H2 1404   4.414   2.191   0.736
  507TIP3   OH2 1405   4.505   2.101   0.857
  507TIP3    H1 1406   4.491   2.028   0.919
  507TIP3    H2 1407   4.557   2.162   0.914
  508TIP3   OH2 1408   6.235   2.493   0.659
  508TIP3    H1 1409   6.261   2.533   0.745
  508TIP3    H2 1410   6.290   2.543   0.597
  509TIP3   OH2 1411   6.263   2.522   0.941
  509TIP3    H1 1412   6.218   2.435   0.933
  509TIP3    H2 1413   6.337   2.496   0.998
  510TIP3   OH2 1414   6.309   2.197   1.513
  510TIP3    H1 1415   6.236   2.205   1.577
  510TIP3    H2 1416   6.350   2.286   1.517
  511TIP3   OH2 1417   6.309   1.969   0.771
  511TIP3    H1 1418   6.357   1.906   0.715
  511TIP3    H2 1419   6.301   2.047   0.713
  512TIP3   OH2 1420   6.138   2.270   0.964
  512TIP3    H1 1421   6.067   2.314   1.014
  512TIP3    H2 1422   6.089   2.224   0.893
  513TIP3   OH2 1423   6.220   1.435   0.558
  513TIP3    H1 1424   6.170   1.400   0.481
  513TIP3    H2 1425   6.148   1.450   0.620
  514TIP3   OH2 1426   4.693   1.503   1.234
  514TIP3    H1 1427   4.692   1.476   1.140
  514TIP3    H2 1428   4.790   1.509   1.249
  515TIP3   OH2 1429   6.356   1.858   1.340
  515TIP3    H1 1430   6.429   1.793   1.331
  515TIP3    H2 1431   6.382   1.927   1.277
  516TIP3   OH2 1432   6.542   1.664   1.356
  516TIP3    H1 1433   6.467   1.614   1.395
  516TIP3    H2 1434   6.614   1.600   1.374
  517TIP3   OH2 1435   6.219   1.339   0.876
  517TIP3    H1 1436   6.298   1.369   0.829
  517TIP3    H2 1437   6.236   1.369   0.967
  518TIP3   OH2 1438   6.295   1.470   1.107
  518TIP3    H1 1439   6.216   1.500   1.156
  518TIP3    H2 1440   6.324   1.553   1.062
  519TIP3   OH2 1441   4.908   1.192   1.905
  519TIP3    H1 1442   5.006   1.187   1.905
  519TIP3    H2 1443   4.886   1.107   1.947
  520TIP3   OH2 1444   6.733   1.075   1.668
  520TIP3    H1 1445   6.797   1.008   1.634
  520TIP3    H2 1446   6.710   1.125   1.586
  521TIP3   OH2 1447   4.872   0.890   1.240
  521TIP3    H1 1448   4.933   0.814   1.245
  521TIP3    H2 1449   4.937   0.963   1.230
  522TIP3   OH2 1450   4.675   1.161   1.306
  522TIP3    H1 1451   4.729   1.155   1.225
  522TIP3    H2 1452   4.702   1.248   1.339
  523TIP3   OH2 1453   6.614   1.204   1.463
  523TIP3    H1 1454   6.525   1.240   1.481
  523TIP3    H2 1455   6.589   1.130   1.404
  524TIP3   OH2 1456   5.818   2.367   0.325
  524TIP3    H1 1457   5.828   2.328   0.236
  524TIP3    H2 1458   5.884   2.436   0.321
  525TIP3   OH2 1459   4.878   0.744   1.624
  525TIP3    H1 1460   4.826   0.740   1.706
  525TIP3    H2 1461   4.812   0.782   1.562
  526TIP3   OH2 1462   4.919   2.168   1.699
  526TIP3    H1 1463   4.826   2.143   1.682
  526TIP3    H2 1464   4.925   2.156   1.795
  527TIP3   OH2 1465   5.096   2.204   1.248
  527TIP3    H1 1466   5.048   2.279   1.209
  527TIP3    H2 1467   5.182   2.218   1.203
  528TIP3   OH2 1468   5.541   2.447   1.386
  528TIP3    H1 1469   5.583   2.449   1.474
  528TIP3    H2 1470   5.606   2.498   1.333
  529TIP3   OH2 1471   5.719   2.599   1.245
  529TIP3    H1 1472   5.789   2.550   1.201
  529TIP3    H2 1473   5.772   2.656   1.305
  530TIP3   OH2 1474   6.487   0.976   1.362
  530TIP3    H1 1475   6.417   0.969   1.295
  530TIP3    H2 1476   6.549   0.907   1.332
  531TIP3   OH2 1477   4.772   2.459   1.272
  531TIP3    H1 1478   4.683   2.492   1.247
  531TIP3    H2 1479   4.781   2.501   1.359
  532TIP3   OH2 1480   5.009   2.438   1.129
  532TIP3    H1 1481   4.922   2.452   1.174
  532TIP3    H2 1482   4.990   2.472   1.039
  533TIP3   OH2 1483   5.434   2.466   0.929
  533TIP3    H1 1484   5.367   2.485   0.860
  533TIP3    H2 1485   5.446   2.555   0.969
  534TIP3   OH2 1486   5.703   2.407   0.980
  534TIP3    H1 1487   5.609   2.423   0.960
  534TIP3    H2 1488   5.745   2.481   0.933
  535TIP3   OH2 1489   5.914   2.601   0.893
  535TIP3    H1 1490   5.896   2.684   0.845
  535TIP3    H2 1491   5.937   2.540   0.818
  536TIP3   OH2 1492   4.684   2.254   1.016
  536TIP3    H1 1493   4.710   2.229   1.107
  536TIP3    H2 1494   4.756   2.210   0.965
  537TIP3   OH2 1495   4.877   2.125   0.873
  537TIP3    H1 1496   4.894   2.042   0.922
  537TIP3    H2 1497   4.968   2.163   0.868
  538TIP3   OH2 1498   5.143   2.220   0.876
  538TIP3    H1 1499   5.176   2.130   0.862
  538TIP3    H2 1500   5.188   2.242   0.960
  539TIP3   OH2 1501   5.731   0.880   0.973
  539TIP3    H1 1502   5.677   0.825   1.033
  539TIP3    H2 1503   5.763   0.814   0.909
  540TIP3   OH2 1504   4.984   0.565   0.984
  540TIP3    H1 1505   4.896   0.532   0.964
  540TIP3    H2 1506   5.037   0.486   0.966
  541TIP3   OH2 1507   4.472   2.022   0.405
  541TIP3    H1 1508   4.387   1.987   0.372
  541TIP3    H2 1509   4.456   2.118   0.398
  542TIP3   OH2 1510   5.227   2.227  -0.008
  542TIP3    H1 1511   5.320   2.245  -0.036
  542TIP3    H2 1512   5.212   2.147  -0.063
  543TIP3   OH2 1513   5.175   0.865   1.871
  543TIP3    H1 1514   5.143   0.794   1.929
  543TIP3    H2 1515   5.270   0.866   1.897
  544TIP3   OH2 1516   5.425   0.865   1.989
  544TIP3    H1 1517   5.509   0.843   1.947
  544TIP3    H2 1518   5.417   0.793   2.055
  545TIP3   OH2 1519   4.557   2.057   0.063
  545TIP3    H1 1520   4.533   2.098   0.146
  545TIP3    H2 1521   4.647   2.027   0.079
  546TIP3   OH2 1522   6.247   0.928   1.778
  546TIP3    H1 1523   6.268   0.894   1.868
  546TIP3    H2 1524   6.334   0.917   1.734
  547TIP3   OH2 1525   6.189   2.477   1.270
  547TIP3    H1 1526   6.111   2.445   1.220
  547TIP3    H2 1527   6.169   2.572   1.273
  548TIP3   OH2 1528   6.755   1.759   0.798
  548TIP3    H1 1529   6.777   1.679   0.851
  548TIP3    H2 1530   6.828   1.817   0.825
  549TIP3   OH2 1531   6.725   2.177   0.516
  549TIP3    H1 1532   6.713   2.083   0.540
  549TIP3    H2 1533   6.821   2.178   0.499
  550TIP3   OH2 1534   7.378   2.571   0.119
  550TIP3    H1 1535   7.348   2.480   0.104
  550TIP3    H2 1536   7.349   2.584   0.211
  551TIP3   OH2 1537   7.103   1.999   0.708
  551TIP3    H1 1538   7.029   2.057   0.737
  551TIP3    H2 1539   7.143   2.052   0.639
  552TIP3   OH2 1540   6.930   2.192   0.791
  552TIP3    H1 1541   6.905   2.278   0.752
  552TIP3    H2 1542   6.851   2.176   0.847
  553TIP3   OH2 1543   7.943   2.308   0.622
  553TIP3    H1 1544   7.872   2.265   0.572
  553TIP3    H2 1545   7.933   2.401   0.595
  554TIP3   OH2 1546   6.991   2.188   0.406
  554TIP3    H1 1547   6.972   2.152   0.318
  554TIP3    H2 1548   7.087   2.182   0.409
  555TIP3   OH2 1549   7.503   2.402   0.360
  555TIP3    H1 1550   7.502   2.489   0.404
  555TIP3    H2 1551   7.511   2.341   0.437
  556TIP3   OH2 1552   7.138   2.307   0.934
  556TIP3    H1 1553   7.079   2.370   0.980
  556TIP3    H2 1554   7.072   2.255   0.884
  557TIP3   OH2 1555   6.894   1.866   1.036
  557TIP3    H1 1556   6.901   1.952   1.083
  557TIP3    H2 1557   6.799   1.846   1.051
  558TIP3   OH2 1558   6.934   2.477   1.021
  558TIP3    H1 1559   6.899   2.477   0.930
  558TIP3    H2 1560   6.855   2.455   1.074
  559TIP3   OH2 1561   6.513   2.009   0.967
  559TIP3    H1 1562   6.445   1.988   0.900
  559TIP3    H2 1563   6.548   1.921   0.993
  560TIP3   OH2 1564   6.369   2.197   0.608
  560TIP3    H1 1565   6.464   2.205   0.592
  560TIP3    H2 1566   6.348   2.281   0.651
  561TIP3   OH2 1567   8.230   2.665   0.654
  561TIP3    H1 1568   8.233   2.567   0.664
  561TIP3    H2 1569   8.146   2.684   0.702
  562TIP3   OH2 1570   7.335   2.437   0.792
  562TIP3    H1 1571   7.338   2.529   0.825
  562TIP3    H2 1572   7.263   2.400   0.847
  563TIP3   OH2 1573   6.526   2.427   0.134
  563TIP3    H1 1574   6.571   2.414   0.220
  563TIP3    H2 1575   6.474   2.344   0.128
  564TIP3   OH2 1576   6.717   2.192   0.957
  564TIP3    H1 1577   6.767   2.174   1.040
  564TIP3    H2 1578   6.643   2.128   0.964
  565TIP3   OH2 1579   7.604   1.804   1.104
  565TIP3    H1 1580   7.581   1.721   1.149
  565TIP3    H2 1581   7.701   1.800   1.109
  566TIP3   OH2 1582   6.840   1.553   0.972
  566TIP3    H1 1583   6.895   1.615   1.023
  566TIP3    H2 1584   6.842   1.474   1.029
  567TIP3   OH2 1585   7.924   3.001   0.759
  567TIP3    H1 1586   7.920   3.024   0.664
  567TIP3    H2 1587   8.000   3.055   0.789
  568TIP3   OH2 1588   6.880   2.113   1.177
  568TIP3    H1 1589   6.958   2.145   1.225
  568TIP3    H2 1590   6.814   2.112   1.250
  569TIP3   OH2 1591   7.466   2.187   0.816
  569TIP3    H1 1592   7.468   2.145   0.903
  569TIP3    H2 1593   7.408   2.264   0.829
  570TIP3   OH2 1594   6.735   1.911   0.566
  570TIP3    H1 1595   6.761   1.856   0.490
  570TIP3    H2 1596   6.743   1.850   0.641
  571TIP3   OH2 1597   6.627   1.798   1.107
  571TIP3    H1 1598   6.651   1.785   1.201
  571TIP3    H2 1599   6.565   1.725   1.093
  572TIP3   OH2 1600   7.355   1.912   1.124
  572TIP3    H1 1601   7.310   1.874   1.047
  572TIP3    H2 1602   7.446   1.878   1.109
  573TIP3   OH2 1603   7.633   2.482   0.704
  573TIP3    H1 1604   7.543   2.447   0.705
  573TIP3    H2 1605   7.643   2.515   0.796
  574TIP3   OH2 1606   8.239   2.391   0.691
  574TIP3    H1 1607   8.159   2.360   0.736
  574TIP3    H2 1608   8.241   2.333   0.612
  575TIP3   OH2 1609   6.781   2.206   0.121
  575TIP3    H1 1610   6.781   2.286   0.064
  575TIP3    H2 1611   6.688   2.198   0.143
  576TIP3   OH2 1612   7.120   2.520   0.584
  576TIP3    H1 1613   7.160   2.595   0.535
  576TIP3    H2 1614   7.197   2.488   0.636
  577TIP3   OH2 1615   6.735   2.423  -0.041
  577TIP3    H1 1616   6.655   2.439   0.013
  577TIP3    H2 1617   6.779   2.510  -0.039
  578TIP3   OH2 1618   7.559   2.224   0.565
  578TIP3    H1 1619   7.518   2.208   0.653
  578TIP3    H2 1620   7.635   2.162   0.568
  579TIP3   OH2 1621   7.766   2.697   0.591
  579TIP3    H1 1622   7.695   2.631   0.605
  579TIP3    H2 1623   7.730   2.756   0.521
  580TIP3   OH2 1624   6.847   1.320   1.122
  580TIP3    H1 1625   6.750   1.324   1.127
  580TIP3    H2 1626   6.861   1.236   1.168
  581TIP3   OH2 1627   6.559   2.388   0.745
  581TIP3    H1 1628   6.608   2.311   0.776
  581TIP3    H2 1629   6.587   2.455   0.810
  582TIP3   OH2 1630   7.791   2.680   0.192
  582TIP3    H1 1631   7.736   2.733   0.129
  582TIP3    H2 1632   7.879   2.720   0.173
  583TIP3   OH2 1633   6.414   2.177   0.114
  583TIP3    H1 1634   6.327   2.168   0.154
  583TIP3    H2 1635   6.388   2.192   0.021
  584TIP3   OH2 1636   6.548   2.694   1.167
  584TIP3    H1 1637   6.634   2.693   1.213
  584TIP3    H2 1638   6.525   2.600   1.165
  585TIP3   OH2 1639   7.030   2.658   1.213
  585TIP3    H1 1640   7.125   2.640   1.216
  585TIP3    H2 1641   7.003   2.599   1.139
  586TIP3   OH2 1642   7.666   2.574   0.959
  586TIP3    H1 1643   7.660   2.500   1.024
  586TIP3    H2 1644   7.746   2.622   0.989
  587TIP3   OH2 1645   6.679   2.101   1.367
  587TIP3    H1 1646   6.695   2.005   1.373
  587TIP3    H2 1647   6.591   2.103   1.323
  588TIP3   OH2 1648   7.287   2.186   1.140
  588TIP3    H1 1649   7.242   2.200   1.055
  588TIP3    H2 1650   7.316   2.092   1.135
  589TIP3   OH2 1651   7.763   2.204   0.812
  589TIP3    H1 1652   7.825   2.264   0.769
  589TIP3    H2 1653   7.677   2.244   0.793
  590TIP3   OH2 1654   6.798   1.837   1.348
  590TIP3    H1 1655   6.870   1.776   1.329
  590TIP3    H2 1656   6.824   1.868   1.437
  591TIP3   OH2 1657   7.110   1.693   1.016
  591TIP3    H1 1658   7.041   1.761   1.028
  591TIP3    H2 1659   7.171   1.742   0.956
  592TIP3   OH2 1660   7.656   2.121   1.146
  592TIP3    H1 1661   7.729   2.086   1.093
  592TIP3    H2 1662   7.640   2.048   1.208
  593TIP3   OH2 1663   7.273   1.541   1.169
  593TIP3    H1 1664   7.254   1.456   1.125
  593TIP3    H2 1665   7.225   1.602   1.110
  594TIP3   OH2 1666   7.264   1.847   0.860
  594TIP3    H1 1667   7.338   1.846   0.796
  594TIP3    H2 1668   7.199   1.900   0.808
  595TIP3   OH2 1669   7.869   1.794   1.192
  595TIP3    H1 1670   7.907   1.729   1.254
  595TIP3    H2 1671   7.941   1.858   1.181
  596TIP3   OH2 1672   7.899   2.039   0.975
  596TIP3    H1 1673   7.834   2.087   0.918
  596TIP3    H2 1674   7.975   2.040   0.914
  597TIP3   OH2 1675   7.123   1.636   1.380
  597TIP3    H1 1676   7.060   1.562   1.389
  597TIP3    H2 1677   7.168   1.613   1.296
  598TIP3   OH2 1678   7.526   1.594   1.259
  598TIP3    H1 1679   7.498   1.575   1.350
  598TIP3    H2 1680   7.443   1.571   1.212
  599TIP3   OH2 1681   6.978   1.410   1.425
  599TIP3    H1 1682   6.967   1.314   1.403
  599TIP3    H2 1683   7.010   1.400   1.517
  600TIP3   OH2 1684   7.565   1.304   1.435
  600TIP3    H1 1685   7.568   1.257   1.350
  600TIP3    H2 1686   7.483   1.359   1.428
  601TIP3   OH2 1687   6.148   2.498   0.150
  601TIP3    H1 1688   6.091   2.430   0.109
  601TIP3    H2 1689   6.198   2.444   0.215
  602TIP3   OH2 1690   6.294   2.370   0.346
  602TIP3    H1 1691   6.283   2.289   0.398
  602TIP3    H2 1692   6.349   2.424   0.406
  603TIP3   OH2 1693   8.046   2.774   0.150
  603TIP3    H1 1694   8.062   2.800   0.243
  603TIP3    H2 1695   8.095   2.845   0.104
  604TIP3   OH2 1696   8.062   2.783   0.429
  604TIP3    H1 1697   8.021   2.694   0.436
  604TIP3    H2 1698   8.141   2.769   0.484
  605TIP3   OH2 1699   8.105   2.456   0.994
  605TIP3    H1 1700   8.033   2.461   1.060
  605TIP3    H2 1701   8.146   2.545   1.004
  606TIP3   OH2 1702   7.939   2.535   0.461
  606TIP3    H1 1703   7.874   2.592   0.508
  606TIP3    H2 1704   7.883   2.495   0.392
  607TIP3   OH2 1705   6.492   1.756   0.721
  607TIP3    H1 1706   6.508   1.715   0.633
  607TIP3    H2 1707   6.584   1.770   0.751
  608TIP3   OH2 1708   6.710   1.457   1.404
  608TIP3    H1 1709   6.807   1.447   1.395
  608TIP3    H2 1710   6.686   1.367   1.436
  609TIP3   OH2 1711   6.466   1.424   0.780
  609TIP3    H1 1712   6.434   1.457   0.695
  609TIP3    H2 1713   6.475   1.504   0.833
  610TIP3   OH2 1714   6.715   2.428   1.188
  610TIP3    H1 1715   6.623   2.401   1.169
  610TIP3    H2 1716   6.722   2.408   1.282
  611TIP3   OH2 1717   6.893   2.461   0.736
  611TIP3    H1 1718   6.842   2.534   0.696
  611TIP3    H2 1719   6.978   2.476   0.690
  612TIP3   OH2 1720   7.338   2.703   0.872
  612TIP3    H1 1721   7.378   2.706   0.961
  612TIP3    H2 1722   7.403   2.756   0.821
  613TIP3   OH2 1723   7.515   2.856   0.730
  613TIP3    H1 1724   7.587   2.806   0.690
  613TIP3    H2 1725   7.565   2.914   0.791
  614TIP3   OH2 1726   6.571   2.720   0.757
  614TIP3    H1 1727   6.481   2.751   0.732
  614TIP3    H2 1728   6.575   2.751   0.848
  615TIP3   OH2 1729   6.807   2.697   0.616
  615TIP3    H1 1730   6.720   2.709   0.661
  615TIP3    H2 1731   6.786   2.727   0.525
  616TIP3   OH2 1732   7.236   2.726   0.406
  616TIP3    H1 1733   7.157   2.743   0.351
  616TIP3    H2 1734   7.245   2.812   0.452
  617TIP3   OH2 1735   7.502   2.665   0.451
  617TIP3    H1 1736   7.407   2.684   0.441
  617TIP3    H2 1737   7.543   2.749   0.424
  618TIP3   OH2 1738   7.699   2.864   0.382
  618TIP3    H1 1739   7.689   2.950   0.335
  618TIP3    H2 1740   7.729   2.806   0.309
  619TIP3   OH2 1741   6.479   2.514   0.506
  619TIP3    H1 1742   6.506   2.486   0.596
  619TIP3    H2 1743   6.550   2.471   0.454
  620TIP3   OH2 1744   6.671   2.392   0.360
  620TIP3    H1 1745   6.687   2.309   0.411
  620TIP3    H2 1746   6.762   2.427   0.351
  621TIP3   OH2 1747   6.939   2.484   0.361
  621TIP3    H1 1748   6.968   2.393   0.340
  621TIP3    H2 1749   6.982   2.498   0.447
  622TIP3   OH2 1750   6.275   2.278  -0.100
  622TIP3    H1 1751   6.211   2.227  -0.151
  622TIP3    H2 1752   6.257   2.368  -0.133
  623TIP3   OH2 1753   6.955   1.141   1.409
  623TIP3    H1 1754   6.926   1.059   1.450
  623TIP3    H2 1755   7.021   1.109   1.345
  624TIP3   OH2 1756   7.252   1.126   1.490
  624TIP3    H1 1757   7.293   1.054   1.442
  624TIP3    H2 1758   7.213   1.076   1.566
  625TIP3   OH2 1759   7.985   2.734   0.759
  625TIP3    H1 1760   7.905   2.708   0.708
  625TIP3    H2 1761   7.969   2.831   0.764
  626TIP3   OH2 1762   8.341   2.948   0.655
  626TIP3    H1 1763   8.429   2.941   0.695
  626TIP3    H2 1764   8.315   2.854   0.650
  627TIP3   OH2 1765   8.451   2.360   0.857
  627TIP3    H1 1766   8.441   2.265   0.873
  627TIP3    H2 1767   8.375   2.377   0.798
  628TIP3   OH2 1768   8.504   2.639   0.683
  628TIP3    H1 1769   8.409   2.645   0.666
  628TIP3    H2 1770   8.509   2.651   0.778
  629TIP3   OH2 1771   8.341   2.976   0.223
  629TIP3    H1 1772   8.266   3.036   0.232
  629TIP3    H2 1773   8.390   2.993   0.304
  630TIP3   OH2 1774   0.695   3.448   2.370
  630TIP3    H1 1775   0.669   3.358   2.340
  630TIP3    H2 1776   0.612   3.478   2.410
  631TIP3   OH2 1777   0.375   3.788   2.444
  631TIP3    H1 1778   0.373   3.813   2.350
  631TIP3    H2 1779   0.452   3.839   2.476
  632TIP3   OH2 1780   0.569   3.247   2.702
  632TIP3    H1 1781   0.490   3.257   2.759
  632TIP3    H2 1782   0.606   3.338   2.703
  633TIP3   OH2 1783   0.442   3.524   2.451
  633TIP3    H1 1784   0.351   3.495   2.457
  633TIP3    H2 1785   0.431   3.621   2.453
  634TIP3   OH2 1786   1.950   3.188   1.275
  634TIP3    H1 1787   1.938   3.127   1.348
  634TIP3    H2 1788   1.977   3.269   1.320
  635TIP3   OH2 1789   1.599   3.663   1.291
  635TIP3    H1 1790   1.641   3.586   1.247
  635TIP3    H2 1791   1.566   3.624   1.372
  636TIP3   OH2 1792   1.532   3.148   1.669
  636TIP3    H1 1793   1.542   3.114   1.579
  636TIP3    H2 1794   1.625   3.173   1.688
  637TIP3   OH2 1795   2.522   2.437   1.641
  637TIP3    H1 1796   2.547   2.515   1.695
  637TIP3    H2 1797   2.530   2.474   1.551
  638TIP3   OH2 1798   2.583   2.639   1.819
  638TIP3    H1 1799   2.498   2.684   1.801
  638TIP3    H2 1800   2.599   2.666   1.910
  639TIP3   OH2 1801   1.394   3.059   1.973
  639TIP3    H1 1802   1.299   3.082   1.971
  639TIP3    H2 1803   1.430   3.126   1.914
  640TIP3   OH2 1804   1.175   3.240   1.994
  640TIP3    H1 1805   1.160   3.312   1.930
  640TIP3    H2 1806   1.094   3.248   2.047
  641TIP3   OH2 1807   2.020   3.441   1.440
  641TIP3    H1 1808   1.931   3.431   1.481
  641TIP3    H2 1809   2.011   3.528   1.398
  642TIP3   OH2 1810   2.319   2.327   1.795
  642TIP3    H1 1811   2.246   2.387   1.814
  642TIP3    H2 1812   2.374   2.377   1.732
  643TIP3   OH2 1813   1.735   3.482   1.131
  643TIP3    H1 1814   1.811   3.423   1.134
  643TIP3    H2 1815   1.766   3.550   1.067
  644TIP3   OH2 1816   2.244   3.358   1.794
  644TIP3    H1 1817   2.237   3.280   1.733
  644TIP3    H2 1818   2.220   3.431   1.731
  645TIP3   OH2 1819   2.443   2.988   1.630
  645TIP3    H1 1820   2.361   3.043   1.637
  645TIP3    H2 1821   2.473   3.013   1.540
  646TIP3   OH2 1822   2.149   2.872   1.937
  646TIP3    H1 1823   2.129   2.953   1.986
  646TIP3    H2 1824   2.061   2.857   1.894
  647TIP3   OH2 1825   1.782   3.435   1.563
  647TIP3    H1 1826   1.761   3.517   1.612
  647TIP3    H2 1827   1.772   3.366   1.631
  648TIP3   OH2 1828   1.391   3.355   2.112
  648TIP3    H1 1829   1.330   3.419   2.155
  648TIP3    H2 1830   1.325   3.301   2.064
  649TIP3   OH2 1831   1.157   2.918   2.232
  649TIP3    H1 1832   1.158   3.010   2.267
  649TIP3    H2 1833   1.060   2.904   2.228
  650TIP3   OH2 1834   1.186   3.522   2.199
  650TIP3    H1 1835   1.153   3.525   2.107
  650TIP3    H2 1836   1.104   3.499   2.249
  651TIP3   OH2 1837   2.485   3.707   1.843
  651TIP3    H1 1838   2.472   3.613   1.821
  651TIP3    H2 1839   2.397   3.731   1.878
  652TIP3   OH2 1840   1.591   3.481   1.971
  652TIP3    H1 1841   1.587   3.574   2.001
  652TIP3    H2 1842   1.516   3.443   2.021
  653TIP3   OH2 1843   2.367   2.848   2.096
  653TIP3    H1 1844   2.288   2.835   2.039
  653TIP3    H2 1845   2.370   2.761   2.144
  654TIP3   OH2 1846   0.958   3.256   2.166
  654TIP3    H1 1847   1.021   3.222   2.234
  654TIP3    H2 1848   0.929   3.177   2.118
  655TIP3   OH2 1849   2.126   2.587   2.002
  655TIP3    H1 1850   2.129   2.581   2.099
  655TIP3    H2 1851   2.131   2.683   1.987
  656TIP3   OH2 1852   1.857   2.831   2.267
  656TIP3    H1 1853   1.830   2.754   2.322
  656TIP3    H2 1854   1.953   2.832   2.285
  657TIP3   OH2 1855   1.903   2.827   1.852
  657TIP3    H1 1856   1.859   2.774   1.784
  657TIP3    H2 1857   1.828   2.838   1.912
  658TIP3   OH2 1858   2.165   4.036   1.930
  658TIP3    H1 1859   2.163   4.068   1.838
  658TIP3    H2 1860   2.248   4.080   1.960
  659TIP3   OH2 1861   1.131   3.163   2.364
  659TIP3    H1 1862   1.211   3.195   2.411
  659TIP3    H2 1863   1.065   3.169   2.436
  660TIP3   OH2 1864   2.224   3.148   1.631
  660TIP3    H1 1865   2.247   3.194   1.547
  660TIP3    H2 1866   2.138   3.106   1.608
  661TIP3   OH2 1867   1.708   3.220   1.985
  661TIP3    H1 1868   1.717   3.191   2.076
  661TIP3    H2 1869   1.667   3.308   1.993
  662TIP3   OH2 1870   1.616   2.959   2.311
  662TIP3    H1 1871   1.569   2.918   2.237
  662TIP3    H2 1872   1.707   2.930   2.288
  663TIP3   OH2 1873   1.868   3.471   1.888
  663TIP3    H1 1874   1.771   3.472   1.897
  663TIP3    H2 1875   1.893   3.527   1.965
  664TIP3   OH2 1876   2.486   3.426   1.875
  664TIP3    H1 1877   2.394   3.404   1.845
  664TIP3    H2 1878   2.534   3.389   1.798
  665TIP3   OH2 1879   2.000   3.018   1.560
  665TIP3    H1 1880   1.907   3.000   1.539
  665TIP3    H2 1881   2.036   2.927   1.548
  666TIP3   OH2 1882   1.373   3.561   1.776
  666TIP3    H1 1883   1.400   3.633   1.716
  666TIP3    H2 1884   1.456   3.536   1.817
  667TIP3   OH2 1885   1.792   3.202   1.727
  667TIP3    H1 1886   1.768   3.204   1.822
  667TIP3    H2 1887   1.879   3.160   1.729
  668TIP3   OH2 1888   2.007   3.734   1.769
  668TIP3    H1 1889   1.924   3.683   1.761
  668TIP3    H2 1890   1.993   3.802   1.700
  669TIP3   OH2 1891   0.802   3.422   1.937
  669TIP3    H1 1892   0.854   3.340   1.942
  669TIP3    H2 1893   0.850   3.480   1.996
  670TIP3   OH2 1894   1.900   2.437   1.974
  670TIP3    H1 1895   1.988   2.481   1.981
  670TIP3    H2 1896   1.920   2.346   1.994
  671TIP3   OH2 1897   1.738   2.628   2.099
  671TIP3    H1 1898   1.783   2.706   2.135
  671TIP3    H2 1899   1.813   2.575   2.063
  672TIP3   OH2 1900   2.060   2.742   1.526
  672TIP3    H1 1901   2.041   2.703   1.439
  672TIP3    H2 1902   2.150   2.704   1.540
  673TIP3   OH2 1903   2.027   3.710   1.364
  673TIP3    H1 1904   1.983   3.758   1.290
  673TIP3    H2 1905   2.120   3.730   1.342
  674TIP3   OH2 1906   0.796   3.740   2.342
  674TIP3    H1 1907   0.882   3.736   2.389
  674TIP3    H2 1908   0.774   3.645   2.338
  675TIP3   OH2 1909   1.278   3.702   2.391
  675TIP3    H1 1910   1.373   3.686   2.392
  675TIP3    H2 1911   1.250   3.645   2.317
  676TIP3   OH2 1912   1.920   3.608   2.120
  676TIP3    H1 1913   1.909   3.541   2.190
  676TIP3    H2 1914   1.989   3.667   2.157
  677TIP3   OH2 1915   0.925   3.142   2.548
  677TIP3    H1 1916   0.948   3.047   2.551
  677TIP3    H2 1917   0.835   3.140   2.512
  678TIP3   OH2 1918   1.534   3.231   2.317
  678TIP3    H1 1919   1.491   3.248   2.231
  678TIP3    H2 1920   1.565   3.139   2.309
  679TIP3   OH2 1921   2.029   3.240   1.924
  679TIP3    H1 1922   2.097   3.287   1.874
  679TIP3    H2 1923   1.954   3.303   1.915
  680TIP3   OH2 1924   1.048   2.875   2.551
  680TIP3    H1 1925   1.128   2.825   2.531
  680TIP3    H2 1926   1.073   2.914   2.638
  681TIP3   OH2 1927   1.403   2.763   2.211
  681TIP3    H1 1928   1.338   2.836   2.217
  681TIP3    H2 1929   1.462   2.796   2.139
  682TIP3   OH2 1930   1.904   3.167   2.325
  682TIP3    H1 1931   1.970   3.130   2.266
  682TIP3    H2 1932   1.894   3.097   2.392
  683TIP3   OH2 1933   1.501   2.521   2.294
  683TIP3    H1 1934   1.550   2.504   2.211
  683TIP3    H2 1935   1.461   2.607   2.267
  684TIP3   OH2 1936   1.581   2.882   2.045
  684TIP3    H1 1937   1.613   2.840   1.963
  684TIP3    H2 1938   1.522   2.952   2.009
  685TIP3   OH2 1939   2.127   2.834   2.380
  685TIP3    H1 1940   2.175   2.749   2.380
  685TIP3    H2 1941   2.193   2.891   2.340
  686TIP3   OH2 1942   2.157   3.107   2.119
  686TIP3    H1 1943   2.100   3.154   2.054
  686TIP3    H2 1944   2.245   3.119   2.080
  687TIP3   OH2 1945   1.388   2.677   2.543
  687TIP3    H1 1946   1.306   2.626   2.553
  687TIP3    H2 1947   1.401   2.680   2.447
  688TIP3   OH2 1948   1.774   2.613   2.412
  688TIP3    H1 1949   1.780   2.606   2.508
  688TIP3    H2 1950   1.682   2.588   2.395
  689TIP3   OH2 1951   2.013   2.556   2.264
  689TIP3    H1 1952   1.933   2.560   2.321
  689TIP3    H2 1953   2.080   2.520   2.323
  690TIP3   OH2 1954   1.273   2.413   2.582
  690TIP3    H1 1955   1.228   2.341   2.630
  690TIP3    H2 1956   1.314   2.455   2.661
  691TIP3   OH2 1957   1.737   2.139   2.439
  691TIP3    H1 1958   1.816   2.080   2.440
  691TIP3    H2 1959   1.673   2.082   2.395
  692TIP3   OH2 1960   1.800   2.333   2.617
  692TIP3    H1 1961   1.786   2.267   2.546
  692TIP3    H2 1962   1.723   2.392   2.608
  693TIP3   OH2 1963   2.280   3.799   1.320
  693TIP3    H1 1964   2.300   3.840   1.407
  693TIP3    H2 1965   2.338   3.848   1.261
  694TIP3   OH2 1966   2.301   3.825   1.601
  694TIP3    H1 1967   2.264   3.734   1.599
  694TIP3    H2 1968   2.386   3.809   1.645
  695TIP3   OH2 1969   2.356   3.275   1.432
  695TIP3    H1 1970   2.406   3.207   1.382
  695TIP3    H2 1971   2.348   3.347   1.365
  696TIP3   OH2 1972   2.184   3.569   1.630
  696TIP3    H1 1973   2.111   3.617   1.675
  696TIP3    H2 1974   2.136   3.525   1.556
  697TIP3   OH2 1975   2.421   3.194   2.028
  697TIP3    H1 1976   2.475   3.111   2.037
  697TIP3    H2 1977   2.418   3.200   1.931
  698TIP3   OH2 1978   2.587   2.976   2.033
  698TIP3    H1 1979   2.510   2.918   2.053
  698TIP3    H2 1980   2.660   2.911   2.041
  699TIP3   OH2 1981   2.297   2.619   1.549
  699TIP3    H1 1982   2.379   2.647   1.502
  699TIP3    H2 1983   2.315   2.656   1.637
  700TIP3   OH2 1984   2.348   2.770   1.769
  700TIP3    H1 1985   2.273   2.805   1.821
  700TIP3    H2 1986   2.377   2.850   1.721
  701TIP3   OH2 1987   2.798   2.370   2.322
  701TIP3    H1 1988   2.849   2.299   2.278
  701TIP3    H2 1989   2.762   2.419   2.246
  702TIP3   OH2 1990   2.656   2.508   2.132
  702TIP3    H1 1991   2.575   2.538   2.180
  702TIP3    H2 1992   2.619   2.436   2.077
  703TIP3   OH2 1993   1.854   3.677   0.979
  703TIP3    H1 1994   1.903   3.655   0.897
  703TIP3    H2 1995   1.913   3.737   1.025
  704TIP3   OH2 1996   0.969   3.480   2.375
  704TIP3    H1 1997   0.878   3.453   2.354
  704TIP3    H2 1998   0.972   3.464   2.470
  705TIP3   OH2 1999   1.139   3.508   1.921
  705TIP3    H1 2000   1.080   3.544   1.852
  705TIP3    H2 2001   1.225   3.528   1.877
  706TIP3   OH2 2002   1.586   3.747   2.049
  706TIP3    H1 2003   1.628   3.752   2.138
  706TIP3    H2 2004   1.650   3.800   1.996
  707TIP3   OH2 2005   1.763   3.901   1.910
  707TIP3    H1 2006   1.834   3.854   1.863
  707TIP3    H2 2007   1.816   3.959   1.969
  708TIP3   OH2 2008   2.566   2.277   2.007
  708TIP3    H1 2009   2.477   2.271   1.967
  708TIP3    H2 2010   2.596   2.184   2.002
  709TIP3   OH2 2011   0.810   3.772   1.908
  709TIP3    H1 2012   0.719   3.807   1.912
  709TIP3    H2 2013   0.836   3.780   2.000
  710TIP3   OH2 2014   1.067   3.767   1.797
  710TIP3    H1 2015   0.979   3.766   1.839
  710TIP3    H2 2016   1.044   3.748   1.705
  711TIP3   OH2 2017   1.487   3.768   1.592
  711TIP3    H1 2018   1.413   3.783   1.529
  711TIP3    H2 2019   1.494   3.857   1.632
  712TIP3   OH2 2020   1.751   3.707   1.645
  712TIP3    H1 2021   1.656   3.722   1.625
  712TIP3    H2 2022   1.792   3.782   1.599
  713TIP3   OH2 2023   1.957   3.900   1.558
  713TIP3    H1 2024   1.942   3.985   1.511
  713TIP3    H2 2025   1.982   3.841   1.483
  714TIP3   OH2 2026   1.228   3.566   1.524
  714TIP3    H1 2027   1.225   3.492   1.458
  714TIP3    H2 2028   1.260   3.523   1.604
  715TIP3   OH2 2029   1.995   3.632   0.734
  715TIP3    H1 2030   1.988   3.537   0.715
  715TIP3    H2 2031   1.952   3.670   0.655
  716TIP3   OH2 2032   1.480   2.194   2.602
  716TIP3    H1 2033   1.561   2.157   2.639
  716TIP3    H2 2034   1.418   2.178   2.677
  717TIP3   OH2 2035   2.289   2.205   2.439
  717TIP3    H1 2036   2.312   2.198   2.534
  717TIP3    H2 2037   2.371   2.243   2.402
  718TIP3   OH2 2038   2.232   3.771   1.938
  718TIP3    H1 2039   2.153   3.746   1.884
  718TIP3    H2 2040   2.219   3.868   1.939
  719TIP3   OH2 2041   3.504   3.154   0.704
  719TIP3    H1 2042   3.474   3.245   0.684
  719TIP3    H2 2043   3.431   3.104   0.663
  720TIP3   OH2 2044   3.499   3.151   1.081
  720TIP3    H1 2045   3.531   3.124   1.169
  720TIP3    H2 2046   3.458   3.070   1.048
  721TIP3   OH2 2047   2.799   3.046   1.446
  721TIP3    H1 2048   2.831   2.978   1.509
  721TIP3    H2 2049   2.879   3.100   1.435
  722TIP3   OH2 2050   3.744   3.452   0.762
  722TIP3    H1 2051   3.727   3.383   0.827
  722TIP3    H2 2052   3.772   3.527   0.817
  723TIP3   OH2 2053   2.770   3.458   1.172
  723TIP3    H1 2054   2.763   3.360   1.174
  723TIP3    H2 2055   2.867   3.467   1.166
  724TIP3   OH2 2056   2.557   2.956   1.136
  724TIP3    H1 2057   2.598   2.872   1.165
  724TIP3    H2 2058   2.574   2.957   1.042
  725TIP3   OH2 2059   3.392   3.916   0.778
  725TIP3    H1 2060   3.437   3.844   0.729
  725TIP3    H2 2061   3.385   3.878   0.867
  726TIP3   OH2 2062   3.298   3.376   1.129
  726TIP3    H1 2063   3.338   3.300   1.084
  726TIP3    H2 2064   3.381   3.422   1.154
  727TIP3   OH2 2065   4.313   2.696   1.127
  727TIP3    H1 2066   4.340   2.779   1.170
  727TIP3    H2 2067   4.331   2.716   1.034
  728TIP3   OH2 2068   3.710   2.878   1.161
  728TIP3    H1 2069   3.753   2.792   1.181
  728TIP3    H2 2070   3.679   2.861   1.070
  729TIP3   OH2 2071   3.046   2.532   1.125
  729TIP3    H1 2072   3.023   2.604   1.063
  729TIP3    H2 2073   3.005   2.456   1.081
  730TIP3   OH2 2074   3.742   2.627   0.749
  730TIP3    H1 2075   3.814   2.610   0.814
  730TIP3    H2 2076   3.794   2.663   0.675
  731TIP3   OH2 2077   2.685   2.733   1.230
  731TIP3    H1 2078   2.767   2.720   1.281
  731TIP3    H2 2079   2.703   2.674   1.154
  732TIP3   OH2 2080   3.122   2.937   1.025
  732TIP3    H1 2081   3.216   2.913   1.039
  732TIP3    H2 2082   3.084   2.851   0.997
  733TIP3   OH2 2083   4.385   2.904   1.297
  733TIP3    H1 2084   4.301   2.952   1.277
  733TIP3    H2 2085   4.401   2.935   1.388
  734TIP3   OH2 2086   3.045   2.520   1.560
  734TIP3    H1 2087   2.984   2.560   1.495
  734TIP3    H2 2088   2.994   2.535   1.642
  735TIP3   OH2 2089   3.393   3.372   0.570
  735TIP3    H1 2090   3.353   3.351   0.485
  735TIP3    H2 2091   3.347   3.456   0.592
  736TIP3   OH2 2092   3.151   3.296   1.356
  736TIP3    H1 2093   3.089   3.362   1.393
  736TIP3    H2 2094   3.194   3.347   1.284
  737TIP3   OH2 2095   3.953   2.631   0.920
  737TIP3    H1 2096   3.941   2.583   1.003
  737TIP3    H2 2097   4.005   2.708   0.949
  738TIP3   OH2 2098   2.916   2.636   1.345
  738TIP3    H1 2099   2.978   2.709   1.370
  738TIP3    H2 2100   2.965   2.596   1.271
  739TIP3   OH2 2101   2.979   3.490   1.453
  739TIP3    H1 2102   2.954   3.576   1.414
  739TIP3    H2 2103   2.900   3.474   1.508
  740TIP3   OH2 2104   2.365   3.191   0.703
  740TIP3    H1 2105   2.389   3.185   0.610
  740TIP3    H2 2106   2.414   3.269   0.733
  741TIP3   OH2 2107   3.813   3.696   0.929
  741TIP3    H1 2108   3.724   3.686   0.969
  741TIP3    H2 2109   3.804   3.782   0.885
  742TIP3   OH2 2110   4.105   2.594   1.293
  742TIP3    H1 2111   4.017   2.624   1.263
  742TIP3    H2 2112   4.163   2.627   1.221
  743TIP3   OH2 2113   3.403   2.237   1.275
  743TIP3    H1 2114   3.390   2.143   1.298
  743TIP3    H2 2115   3.325   2.277   1.318
  744TIP3   OH2 2116   3.514   3.742   0.603
  744TIP3    H1 2117   3.564   3.659   0.583
  744TIP3    H2 2118   3.576   3.807   0.563
  745TIP3   OH2 2119   3.658   3.528   0.511
  745TIP3    H1 2120   3.620   3.448   0.471
  745TIP3    H2 2121   3.694   3.492   0.595
  746TIP3   OH2 2122   4.039   3.610   1.272
  746TIP3    H1 2123   4.027   3.531   1.215
  746TIP3    H2 2124   4.022   3.683   1.210
  747TIP3   OH2 2125   3.336   3.015   0.539
  747TIP3    H1 2126   3.251   3.059   0.518
  747TIP3    H2 2127   3.368   2.993   0.450
  748TIP3   OH2 2128   3.294   2.790   0.344
  748TIP3    H1 2129   3.379   2.837   0.336
  748TIP3    H2 2130   3.321   2.698   0.329
  749TIP3   OH2 2131   4.235   3.245   1.117
  749TIP3    H1 2132   4.152   3.297   1.124
  749TIP3    H2 2133   4.263   3.271   1.027
  750TIP3   OH2 2134   3.681   3.088   0.506
  750TIP3    H1 2135   3.626   3.113   0.584
  750TIP3    H2 2136   3.764   3.061   0.550
  751TIP3   OH2 2137   3.911   3.113   1.407
  751TIP3    H1 2138   3.917   3.193   1.464
  751TIP3    H2 2139   3.824   3.129   1.365
  752TIP3   OH2 2140   2.910   3.077   0.917
  752TIP3    H1 2141   2.880   3.016   0.849
  752TIP3    H2 2142   2.989   3.031   0.952
  753TIP3   OH2 2143   3.041   3.495   1.067
  753TIP3    H1 2144   3.020   3.452   0.983
  753TIP3    H2 2145   3.130   3.460   1.086
  754TIP3   OH2 2146   3.051   3.052   1.275
  754TIP3    H1 2147   3.081   3.033   1.184
  754TIP3    H2 2148   3.090   3.139   1.294
  755TIP3   OH2 2149   3.572   3.691   1.050
  755TIP3    H1 2150   3.559   3.771   1.104
  755TIP3    H2 2151   3.557   3.618   1.113
  756TIP3   OH2 2152   3.186   3.610   1.596
  756TIP3    H1 2153   3.126   3.673   1.643
  756TIP3    H2 2154   3.120   3.557   1.547
  757TIP3   OH2 2155   3.530   2.939   0.333
  757TIP3    H1 2156   3.583   3.004   0.384
  757TIP3    H2 2157   3.556   2.963   0.240
  758TIP3   OH2 2158   2.939   3.166   1.697
  758TIP3    H1 2159   2.942   3.253   1.743
  758TIP3    H2 2160   2.844   3.146   1.707
  759TIP3   OH2 2161   3.261   3.623   0.602
  759TIP3    H1 2162   3.341   3.675   0.619
  759TIP3    H2 2163   3.200   3.688   0.565
  760TIP3   OH2 2164   2.980   3.777   1.681
  760TIP3    H1 2165   2.945   3.779   1.591
  760TIP3    H2 2166   2.902   3.749   1.733
  761TIP3   OH2 2167   4.039   2.185   0.373
  761TIP3    H1 2168   3.957   2.198   0.425
  761TIP3    H2 2169   4.046   2.271   0.327
  762TIP3   OH2 2170   2.765   2.914   0.705
  762TIP3    H1 2171   2.695   2.981   0.711
  762TIP3    H2 2172   2.722   2.836   0.746
  763TIP3   OH2 2173   3.833   3.555  -0.082
  763TIP3    H1 2174   3.844   3.651  -0.095
  763TIP3    H2 2175   3.925   3.523  -0.087
  764TIP3   OH2 2176   2.553   3.313   1.643
  764TIP3    H1 2177   2.492   3.294   1.569
  764TIP3    H2 2178   2.592   3.225   1.663
  765TIP3   OH2 2179   2.411   3.503   1.263
  765TIP3    H1 2180   2.507   3.496   1.254
  765TIP3    H2 2181   2.402   3.584   1.315
  766TIP3   OH2 2182   4.277   3.953   1.318
  766TIP3    H1 2183   4.276   3.857   1.334
  766TIP3    H2 2184   4.194   3.979   1.364
  767TIP3   OH2 2185   3.382   3.740   1.453
  767TIP3    H1 2186   3.381   3.833   1.486
  767TIP3    H2 2187   3.312   3.700   1.508
  768TIP3   OH2 2188   3.141   3.867   0.403
  768TIP3    H1 2189   3.096   3.851   0.318
  768TIP3    H2 2190   3.111   3.956   0.428
  769TIP3   OH2 2191   2.582   3.719   0.790
  769TIP3    H1 2192   2.628   3.708   0.876
  769TIP3    H2 2193   2.530   3.636   0.786
  770TIP3   OH2 2194   3.337   3.765   0.060
  770TIP3    H1 2195   3.396   3.707   0.007
  770TIP3    H2 2196   3.384   3.770   0.145
  771TIP3   OH2 2197   3.399   3.821   0.326
  771TIP3    H1 2198   3.308   3.828   0.363
  771TIP3    H2 2199   3.446   3.776   0.398
  772TIP3   OH2 2200   4.171   3.084   1.595
  772TIP3    H1 2201   4.087   3.103   1.552
  772TIP3    H2 2202   4.180   2.987   1.581
  773TIP3   OH2 2203   2.762   3.489   1.618
  773TIP3    H1 2204   2.810   3.478   1.703
  773TIP3    H2 2205   2.688   3.426   1.627
  774TIP3   OH2 2206   3.160   2.317   1.401
  774TIP3    H1 2207   3.070   2.287   1.379
  774TIP3    H2 2208   3.138   2.398   1.450
  775TIP3   OH2 2209   3.695   2.430   1.597
  775TIP3    H1 2210   3.762   2.405   1.663
  775TIP3    H2 2211   3.611   2.412   1.643
  776TIP3   OH2 2212   3.937   2.859   1.517
  776TIP3    H1 2213   3.885   2.857   1.601
  776TIP3    H2 2214   3.913   2.946   1.479
  777TIP3   OH2 2215   3.600   2.993   0.077
  777TIP3    H1 2216   3.538   2.992   0.004
  777TIP3    H2 2217   3.675   3.044   0.042
  778TIP3   OH2 2218   3.093   2.830   1.423
  778TIP3    H1 2219   3.044   2.853   1.505
  778TIP3    H2 2220   3.080   2.911   1.369
  779TIP3   OH2 2221   2.972   2.717   0.942
  779TIP3    H1 2222   2.878   2.691   0.947
  779TIP3    H2 2223   2.995   2.683   0.852
  780TIP3   OH2 2224   3.473   2.809   0.662
  780TIP3    H1 2225   3.420   2.881   0.623
  780TIP3    H2 2226   3.521   2.774   0.585
  781TIP3   OH2 2227   3.641   3.078   1.746
  781TIP3    H1 2228   3.623   3.008   1.812
  781TIP3    H2 2229   3.733   3.102   1.770
  782TIP3   OH2 2230   3.625   2.831   0.902
  782TIP3    H1 2231   3.566   2.862   0.831
  782TIP3    H2 2232   3.658   2.749   0.859
  783TIP3   OH2 2233   2.911   2.860   1.632
  783TIP3    H1 2234   2.944   2.922   1.699
  783TIP3    H2 2235   2.901   2.777   1.683
  784TIP3   OH2 2236   3.630   3.077   1.323
  784TIP3    H1 2237   3.667   3.006   1.267
  784TIP3    H2 2238   3.604   3.025   1.402
  785TIP3   OH2 2239   3.311   2.546   0.998
  785TIP3    H1 2240   3.229   2.538   1.051
  785TIP3    H2 2241   3.379   2.538   1.067
  786TIP3   OH2 2242   2.730   2.586   1.005
  786TIP3    H1 2243   2.639   2.605   0.979
  786TIP3    H2 2244   2.744   2.499   0.961
  787TIP3   OH2 2245   3.041   2.624   0.700
  787TIP3    H1 2246   3.138   2.614   0.693
  787TIP3    H2 2247   3.013   2.626   0.608
  788TIP3   OH2 2248   3.797   2.614   1.198
  788TIP3    H1 2249   3.764   2.628   1.290
  788TIP3    H2 2250   3.730   2.553   1.163
  789TIP3   OH2 2251   3.967   4.304   1.418
  789TIP3    H1 2252   3.965   4.328   1.324
  789TIP3    H2 2253   4.044   4.354   1.451
  790TIP3   OH2 2254   2.918   3.409   1.846
  790TIP3    H1 2255   3.001   3.446   1.881
  790TIP3    H2 2256   2.875   3.384   1.928
  791TIP3   OH2 2257   3.387   2.868   1.094
  791TIP3    H1 2258   3.460   2.829   1.044
  791TIP3    H2 2259   3.397   2.826   1.181
  792TIP3   OH2 2260   3.365   2.763   1.387
  792TIP3    H1 2261   3.276   2.801   1.399
  792TIP3    H2 2262   3.423   2.825   1.435
  793TIP3   OH2 2263   3.100   3.173   0.481
  793TIP3    H1 2264   3.047   3.090   0.482
  793TIP3    H2 2265   3.086   3.203   0.574
  794TIP3   OH2 2266   4.003   3.390   1.109
  794TIP3    H1 2267   4.025   3.441   1.028
  794TIP3    H2 2268   3.917   3.349   1.085
  795TIP3   OH2 2269   3.596   2.471   0.319
  795TIP3    H1 2270   3.498   2.476   0.323
  795TIP3    H2 2271   3.620   2.562   0.345
  796TIP3   OH2 2272   3.497   3.471   1.477
  796TIP3    H1 2273   3.535   3.452   1.564
  796TIP3    H2 2274   3.463   3.561   1.487
  797TIP3   OH2 2275   3.638   2.712   0.443
  797TIP3    H1 2276   3.732   2.724   0.464
  797TIP3    H2 2277   3.616   2.794   0.394
  798TIP3   OH2 2278   2.802   3.186   1.156
  798TIP3    H1 2279   2.831   3.150   1.071
  798TIP3    H2 2280   2.826   3.114   1.217
  799TIP3   OH2 2281   3.256   3.314   0.315
  799TIP3    H1 2282   3.205   3.399   0.316
  799TIP3    H2 2283   3.198   3.259   0.374
  800TIP3   OH2 2284   2.672   3.102   1.773
  800TIP3    H1 2285   2.701   3.085   1.864
  800TIP3    H2 2286   2.611   3.028   1.756
  801TIP3   OH2 2287   3.401   3.210   1.790
  801TIP3    H1 2288   3.343   3.153   1.737
  801TIP3    H2 2289   3.489   3.179   1.761
  802TIP3   OH2 2290   3.660   3.735   1.371
  802TIP3    H1 2291   3.564   3.733   1.385
  802TIP3    H2 2292   3.689   3.784   1.450
  803TIP3   OH2 2293   4.071   2.807   0.284
  803TIP3    H1 2294   4.010   2.761   0.222
  803TIP3    H2 2295   4.068   2.896   0.242
  804TIP3   OH2 2296   4.290   3.663   1.361
  804TIP3    H1 2297   4.191   3.658   1.355
  804TIP3    H2 2298   4.314   3.633   1.271
  805TIP3   OH2 2299   3.780   3.622   0.188
  805TIP3    H1 2300   3.742   3.556   0.247
  805TIP3    H2 2301   3.777   3.578   0.101
  806TIP3   OH2 2302   3.767   3.254   1.027
  806TIP3    H1 2303   3.674   3.229   1.040
  806TIP3    H2 2304   3.801   3.173   0.982
  807TIP3   OH2 2305   2.893   3.480   0.779
  807TIP3    H1 2306   2.894   3.562   0.726
  807TIP3    H2 2307   2.798   3.466   0.790
  808TIP3   OH2 2308   3.034   3.248   0.730
  808TIP3    H1 2309   2.997   3.337   0.745
  808TIP3    H2 2310   2.997   3.199   0.805
  809TIP3   OH2 2311   3.164   3.824   1.250
  809TIP3    H1 2312   3.205   3.897   1.200
  809TIP3    H2 2313   3.240   3.789   1.299
  810TIP3   OH2 2314   2.814   3.720   0.633
  810TIP3    H1 2315   2.728   3.728   0.678
  810TIP3    H2 2316   2.845   3.813   0.635
  811TIP3   OH2 2317   3.552   3.459   1.208
  811TIP3    H1 2318   3.541   3.456   1.306
  811TIP3    H2 2319   3.633   3.407   1.197
  812TIP3   OH2 2320   3.527   3.358   0.091
  812TIP3    H1 2321   3.576   3.330   0.171
  812TIP3    H2 2322   3.437   3.332   0.112
  813TIP3   OH2 2323   3.801   3.991   1.259
  813TIP3    H1 2324   3.722   3.934   1.253
  813TIP3    H2 2325   3.784   4.056   1.186
  814TIP3   OH2 2326   3.869   3.835  -0.097
  814TIP3    H1 2327   3.916   3.915  -0.125
  814TIP3    H2 2328   3.787   3.875  -0.061
  815TIP3   OH2 2329   2.885   2.603   1.777
  815TIP3    H1 2330   2.788   2.604   1.791
  815TIP3    H2 2331   2.914   2.541   1.847
  816TIP3   OH2 2332   3.686   3.285   0.310
  816TIP3    H1 2333   3.677   3.220   0.383
  816TIP3    H2 2334   3.783   3.283   0.297
  817TIP3   OH2 2335   2.600   3.688   1.411
  817TIP3    H1 2336   2.657   3.615   1.440
  817TIP3    H2 2337   2.635   3.761   1.462
  818TIP3   OH2 2338   2.888   3.335   0.093
  818TIP3    H1 2339   2.913   3.247   0.064
  818TIP3    H2 2340   2.872   3.323   0.188
  819TIP3   OH2 2341   2.852   3.334   0.368
  819TIP3    H1 2342   2.927   3.308   0.423
  819TIP3    H2 2343   2.855   3.432   0.373
  820TIP3   OH2 2344   3.724   2.666   1.456
  820TIP3    H1 2345   3.801   2.707   1.499
  820TIP3    H2 2346   3.709   2.587   1.512
  821TIP3   OH2 2347   3.589   2.429   0.616
  821TIP3    H1 2348   3.595   2.453   0.522
  821TIP3    H2 2349   3.636   2.505   0.657
  822TIP3   OH2 2350   3.103   3.536   0.309
  822TIP3    H1 2351   3.017   3.564   0.345
  822TIP3    H2 2352   3.123   3.610   0.250
  823TIP3   OH2 2353   3.312   2.599   0.730
  823TIP3    H1 2354   3.373   2.674   0.712
  823TIP3    H2 2355   3.314   2.596   0.828
  824TIP3   OH2 2356   3.561   2.916   1.533
  824TIP3    H1 2357   3.583   2.972   1.611
  824TIP3    H2 2358   3.617   2.838   1.548
  825TIP3   OH2 2359   3.446   2.326   0.832
  825TIP3    H1 2360   3.435   2.405   0.887
  825TIP3    H2 2361   3.499   2.363   0.758
  826TIP3   OH2 2362   2.848   3.608   0.382
  826TIP3    H1 2363   2.817   3.677   0.319
  826TIP3    H2 2364   2.830   3.650   0.468
  827TIP3   OH2 2365   4.202   2.814   1.514
  827TIP3    H1 2366   4.104   2.814   1.522
  827TIP3    H2 2367   4.211   2.779   1.424
  828TIP3   OH2 2368   3.853   3.011   0.901
  828TIP3    H1 2369   3.776   2.952   0.914
  828TIP3    H2 2370   3.924   2.964   0.950
  829TIP3   OH2 2371   2.578   3.322   0.356
  829TIP3    H1 2372   2.672   3.339   0.374
  829TIP3    H2 2373   2.571   3.227   0.370
  830TIP3   OH2 2374   3.821   3.968   0.851
  830TIP3    H1 2375   3.778   4.014   0.776
  830TIP3    H2 2376   3.915   3.986   0.830
  831TIP3   OH2 2377   2.896   2.233   1.383
  831TIP3    H1 2378   2.847   2.189   1.312
  831TIP3    H2 2379   2.904   2.160   1.449
  832TIP3   OH2 2380   2.446   3.466   0.756
  832TIP3    H1 2381   2.369   3.486   0.811
  832TIP3    H2 2382   2.414   3.498   0.669
  833TIP3   OH2 2383   2.602   3.999   1.820
  833TIP3    H1 2384   2.683   4.003   1.876
  833TIP3    H2 2385   2.575   3.907   1.833
  834TIP3   OH2 2386   3.072   3.960   1.876
  834TIP3    H1 2387   3.167   3.945   1.884
  834TIP3    H2 2388   3.051   3.901   1.801
  835TIP3   OH2 2389   3.061   3.530   0.006
  835TIP3    H1 2390   2.995   3.471   0.048
  835TIP3    H2 2391   3.141   3.475   0.010
  836TIP3   OH2 2392   3.715   3.865   1.607
  836TIP3    H1 2393   3.705   3.795   1.676
  836TIP3    H2 2394   3.791   3.916   1.639
  837TIP3   OH2 2395   3.507   3.590  -0.071
  837TIP3    H1 2396   3.519   3.507  -0.022
  837TIP3    H2 2397   3.578   3.586  -0.135
  838TIP3   OH2 2398   3.328   3.486   1.806
  838TIP3    H1 2399   3.293   3.504   1.717
  838TIP3    H2 2400   3.363   3.395   1.797
  839TIP3   OH2 2401   3.224   3.277   0.050
  839TIP3    H1 2402   3.236   3.285   0.147
  839TIP3    H2 2403   3.192   3.186   0.041
  840TIP3   OH2 2404   3.821   3.497   1.407
  840TIP3    H1 2405   3.898   3.542   1.368
  840TIP3    H2 2406   3.752   3.566   1.396
  841TIP3   OH2 2407   2.853   3.123   2.003
  841TIP3    H1 2408   2.933   3.071   1.993
  841TIP3    H2 2409   2.868   3.168   2.088
  842TIP3   OH2 2410   2.972   2.938   0.496
  842TIP3    H1 2411   2.930   2.903   0.576
  842TIP3    H2 2412   2.970   2.863   0.434
  843TIP3   OH2 2413   3.176   3.019   1.673
  843TIP3    H1 2414   3.100   3.080   1.674
  843TIP3    H2 2415   3.228   3.053   1.596
  844TIP3   OH2 2416   3.699   3.422   1.804
  844TIP3    H1 2417   3.796   3.435   1.793
  844TIP3    H2 2418   3.697   3.360   1.878
  845TIP3   OH2 2419   3.825   3.089  -0.064
  845TIP3    H1 2420   3.840   3.050  -0.151
  845TIP3    H2 2421   3.824   3.184  -0.083
  846TIP3   OH2 2422   3.301   2.810   1.802
  846TIP3    H1 2423   3.301   2.730   1.745
  846TIP3    H2 2424   3.258   2.875   1.743
  847TIP3   OH2 2425   3.303   2.595   1.608
  847TIP3    H1 2426   3.331   2.637   1.525
  847TIP3    H2 2427   3.210   2.572   1.589
  848TIP3   OH2 2428   3.330   3.129   1.481
  848TIP3    H1 2429   3.414   3.140   1.436
  848TIP3    H2 2430   3.275   3.197   1.436
  849TIP3   OH2 2431   3.908   3.096   1.863
  849TIP3    H1 2432   3.965   3.018   1.871
  849TIP3    H2 2433   3.972   3.165   1.838
  850TIP3   OH2 2434   3.960   3.324   1.568
  850TIP3    H1 2435   3.896   3.388   1.528
  850TIP3    H2 2436   4.044   3.362   1.534
  851TIP3   OH2 2437   3.176   2.921   2.032
  851TIP3    H1 2438   3.110   2.849   2.045
  851TIP3    H2 2439   3.212   2.898   1.944
  852TIP3   OH2 2440   3.436   2.359   1.676
  852TIP3    H1 2441   3.387   2.441   1.653
  852TIP3    H2 2442   3.366   2.291   1.664
  853TIP3   OH2 2443   3.563   2.861   1.891
  853TIP3    H1 2444   3.550   2.851   1.987
  853TIP3    H2 2445   3.473   2.838   1.860
  854TIP3   OH2 2446   3.799   2.806   1.744
  854TIP3    H1 2447   3.725   2.815   1.806
  854TIP3    H2 2448   3.873   2.782   1.803
  855TIP3   OH2 2449   4.031   2.754   1.898
  855TIP3    H1 2450   4.040   2.659   1.917
  855TIP3    H2 2451   4.024   2.794   1.987
  856TIP3   OH2 2452   3.017   2.702   2.085
  856TIP3    H1 2453   3.020   2.611   2.049
  856TIP3    H2 2454   3.055   2.687   2.174
  857TIP3   OH2 2455   3.531   2.367   1.933
  857TIP3    H1 2456   3.597   2.296   1.924
  857TIP3    H2 2457   3.489   2.364   1.844
  858TIP3   OH2 2458   3.595   2.582   2.094
  858TIP3    H1 2459   3.573   2.512   2.028
  858TIP3    H2 2460   3.518   2.642   2.086
  859TIP3   OH2 2461   2.813   3.809   0.195
  859TIP3    H1 2462   2.906   3.805   0.166
  859TIP3    H2 2463   2.769   3.853   0.121
  860TIP3   OH2 2464   2.204   3.804   0.821
  860TIP3    H1 2465   2.143   3.739   0.783
  860TIP3    H2 2466   2.253   3.750   0.887
  861TIP3   OH2 2467   2.343   3.661   1.009
  861TIP3    H1 2468   2.337   3.585   1.070
  861TIP3    H2 2469   2.396   3.722   1.064
  862TIP3   OH2 2470   4.074   4.058   0.808
  862TIP3    H1 2471   4.100   4.089   0.896
  862TIP3    H2 2472   4.137   4.104   0.751
  863TIP3   OH2 2473   4.105   4.078   1.089
  863TIP3    H1 2474   4.059   3.991   1.085
  863TIP3    H2 2475   4.177   4.055   1.149
  864TIP3   OH2 2476   4.152   3.753   1.661
  864TIP3    H1 2477   4.078   3.756   1.724
  864TIP3    H2 2478   4.190   3.842   1.670
  865TIP3   OH2 2479   3.967   3.266   0.282
  865TIP3    H1 2480   4.033   3.333   0.255
  865TIP3    H2 2481   4.009   3.229   0.363
  866TIP3   OH2 2482   4.094   3.135   0.487
  866TIP3    H1 2483   4.028   3.093   0.546
  866TIP3    H2 2484   4.158   3.174   0.550
  867TIP3   OH2 2485   4.149   3.528   0.919
  867TIP3    H1 2486   4.201   3.462   0.869
  867TIP3    H2 2487   4.140   3.601   0.854
  868TIP3   OH2 2488   3.979   3.829   1.112
  868TIP3    H1 2489   3.908   3.869   1.166
  868TIP3    H2 2490   3.928   3.781   1.044
  869TIP3   OH2 2491   4.027   3.043   0.132
  869TIP3    H1 2492   3.951   3.045   0.071
  869TIP3    H2 2493   4.005   3.119   0.190
  870TIP3   OH2 2494   3.909   2.714   0.092
  870TIP3    H1 2495   3.865   2.750   0.014
  870TIP3    H2 2496   3.881   2.619   0.086
  871TIP3   OH2 2497   3.909   2.991   0.633
  871TIP3    H1 2498   3.916   2.895   0.628
  871TIP3    H2 2499   3.894   3.005   0.730
  872TIP3   OH2 2500   2.534   3.066   1.384
  872TIP3    H1 2501   2.533   3.035   1.290
  872TIP3    H2 2502   2.631   3.068   1.399
  873TIP3   OH2 2503   4.199   3.417   1.483
  873TIP3    H1 2504   4.273   3.353   1.478
  873TIP3    H2 2505   4.230   3.492   1.429
  874TIP3   OH2 2506   4.384   3.221   1.501
  874TIP3    H1 2507   4.309   3.174   1.544
  874TIP3    H2 2508   4.456   3.157   1.518
  875TIP3   OH2 2509   3.839   2.453   0.097
  875TIP3    H1 2510   3.926   2.418   0.126
  875TIP3    H2 2511   3.776   2.409   0.155
  876TIP3   OH2 2512   3.906   2.709   0.529
  876TIP3    H1 2513   3.946   2.619   0.544
  876TIP3    H2 2514   3.964   2.741   0.458
  877TIP3   OH2 2515   4.066   2.881   1.023
  877TIP3    H1 2516   4.152   2.907   0.983
  877TIP3    H2 2517   4.078   2.919   1.112
  878TIP3   OH2 2518   4.135   3.025   1.254
  878TIP3    H1 2519   4.056   3.056   1.303
  878TIP3    H2 2520   4.166   3.107   1.211
  879TIP3   OH2 2521   2.750   2.757   2.057
  879TIP3    H1 2522   2.848   2.744   2.057
  879TIP3    H2 2523   2.721   2.671   2.094
  880TIP3   OH2 2524   4.590   2.618   1.812
  880TIP3    H1 2525   4.646   2.552   1.766
  880TIP3    H2 2526   4.557   2.671   1.737
  881TIP3   OH2 2527   4.014   2.457   0.564
  881TIP3    H1 2528   4.060   2.441   0.649
  881TIP3    H2 2529   3.952   2.381   0.563
  882TIP3   OH2 2530   2.714   2.440   1.392
  882TIP3    H1 2531   2.786   2.374   1.399
  882TIP3    H2 2532   2.765   2.522   1.382
  883TIP3   OH2 2533   2.530   2.721   1.458
  883TIP3    H1 2534   2.575   2.721   1.371
  883TIP3    H2 2535   2.549   2.810   1.490
  884TIP3   OH2 2536   4.457   2.755   1.620
  884TIP3    H1 2537   4.373   2.799   1.645
  884TIP3    H2 2538   4.423   2.688   1.559
  885TIP3   OH2 2539   4.103   2.393   0.184
  885TIP3    H1 2540   4.175   2.335   0.154
  885TIP3    H2 2541   4.152   2.478   0.191
  886TIP3   OH2 2542   3.661   3.924   0.466
  886TIP3    H1 2543   3.710   3.910   0.383
  886TIP3    H2 2544   3.715   3.991   0.511
  887TIP3   OH2 2545   2.724   2.302   1.773
  887TIP3    H1 2546   2.674   2.299   1.857
  887TIP3    H2 2547   2.657   2.341   1.714
  888TIP3   OH2 2548   2.766   3.713   1.849
  888TIP3    H1 2549   2.669   3.705   1.844
  888TIP3    H2 2550   2.781   3.744   1.939
  889TIP3   OH2 2551   2.936   3.761   1.397
  889TIP3    H1 2552   2.889   3.838   1.358
  889TIP3    H2 2553   3.022   3.774   1.354
  890TIP3   OH2 2554   3.382   4.006   1.535
  890TIP3    H1 2555   3.423   4.006   1.624
  890TIP3    H2 2556   3.448   4.057   1.484
  891TIP3   OH2 2557   3.561   4.158   1.393
  891TIP3    H1 2558   3.633   4.106   1.355
  891TIP3    H2 2559   3.612   4.214   1.456
  892TIP3   OH2 2560   4.355   2.520   1.495
  892TIP3    H1 2561   4.265   2.518   1.459
  892TIP3    H2 2562   4.384   2.427   1.482
  893TIP3   OH2 2563   2.613   4.016   1.425
  893TIP3    H1 2564   2.523   4.048   1.401
  893TIP3    H2 2565   2.627   4.065   1.507
  894TIP3   OH2 2566   2.849   3.996   1.280
  894TIP3    H1 2567   2.762   4.009   1.325
  894TIP3    H2 2568   2.829   4.030   1.190
  895TIP3   OH2 2569   3.276   4.026   1.077
  895TIP3    H1 2570   3.206   4.046   1.012
  895TIP3    H2 2571   3.288   4.113   1.121
  896TIP3   OH2 2572   3.544   3.964   1.127
  896TIP3    H1 2573   3.450   3.981   1.109
  896TIP3    H2 2574   3.587   4.042   1.088
  897TIP3   OH2 2575   3.753   4.158   1.044
  897TIP3    H1 2576   3.738   4.241   0.996
  897TIP3    H2 2577   3.778   4.096   0.971
  898TIP3   OH2 2578   2.525   3.812   1.165
  898TIP3    H1 2579   2.550   3.787   1.257
  898TIP3    H2 2580   2.597   3.768   1.116
  899TIP3   OH2 2581   2.719   3.683   1.024
  899TIP3    H1 2582   2.735   3.599   1.073
  899TIP3    H2 2583   2.810   3.720   1.019
  900TIP3   OH2 2584   2.986   3.778   1.026
  900TIP3    H1 2585   3.017   3.686   1.015
  900TIP3    H2 2586   3.030   3.800   1.111
  901TIP3   OH2 2587   3.560   2.435   1.115
  901TIP3    H1 2588   3.517   2.365   1.167
  901TIP3    H2 2589   3.630   2.386   1.068
  902TIP3   OH2 2590   4.085   2.318   1.023
  902TIP3    H1 2591   4.120   2.368   0.946
  902TIP3    H2 2592   3.989   2.331   1.013
  903TIP3   OH2 2593   4.179   2.413   0.783
  903TIP3    H1 2594   4.252   2.363   0.742
  903TIP3    H2 2595   4.211   2.506   0.769
  904TIP3   OH2 2596   3.242   2.207   1.003
  904TIP3    H1 2597   3.315   2.241   0.950
  904TIP3    H2 2598   3.281   2.199   1.090
  905TIP3   OH2 2599   3.802   2.321   0.992
  905TIP3    H1 2600   3.797   2.283   0.903
  905TIP3    H2 2601   3.787   2.242   1.048
  906TIP3   OH2 2602   3.836   2.243   0.553
  906TIP3    H1 2603   3.744   2.272   0.543
  906TIP3    H2 2604   3.821   2.158   0.602
  907TIP3   OH2 2605   2.300   3.580   0.558
  907TIP3    H1 2606   2.222   3.542   0.514
  907TIP3    H2 2607   2.296   3.671   0.523
  908TIP3   OH2 2608   3.240   2.361   0.633
  908TIP3    H1 2609   3.275   2.297   0.697
  908TIP3    H2 2610   3.274   2.445   0.673
  909TIP3   OH2 2611   3.077   3.776   0.130
  909TIP3    H1 2612   3.170   3.794   0.103
  909TIP3    H2 2613   3.062   3.697   0.073
  910TIP3   OH2 2614   3.806   3.890   0.232
  910TIP3    H1 2615   3.799   3.792   0.221
  910TIP3    H2 2616   3.757   3.921   0.153
  911TIP3   OH2 2617   3.017   2.430   2.023
  911TIP3    H1 2618   2.980   2.358   2.077
  911TIP3    H2 2619   3.111   2.427   2.050
  912TIP3   OH2 2620   3.267   2.423   2.141
  912TIP3    H1 2621   3.351   2.395   2.101
  912TIP3    H2 2622   3.252   2.352   2.207
  913TIP3   OH2 2623   2.426   3.648   0.224
  913TIP3    H1 2624   2.369   3.665   0.300
  913TIP3    H2 2625   2.466   3.564   0.247
  914TIP3   OH2 2626   4.091   2.481   1.927
  914TIP3    H1 2627   4.111   2.452   2.019
  914TIP3    H2 2628   4.180   2.479   1.886
  915TIP3   OH2 2629   4.032   4.036   1.417
  915TIP3    H1 2630   3.952   4.003   1.372
  915TIP3    H2 2631   4.010   4.131   1.425
  916TIP3   OH2 2632   5.296   3.409   0.188
  916TIP3    H1 2633   5.265   3.499   0.164
  916TIP3    H2 2634   5.222   3.356   0.153
  917TIP3   OH2 2635   5.297   3.409   0.568
  917TIP3    H1 2636   5.326   3.375   0.654
  917TIP3    H2 2637   5.256   3.331   0.528
  918TIP3   OH2 2638   4.595   3.302   0.931
  918TIP3    H1 2639   4.625   3.234   0.994
  918TIP3    H2 2640   4.672   3.360   0.927
  919TIP3   OH2 2641   5.543   3.709   0.248
  919TIP3    H1 2642   5.521   3.638   0.309
  919TIP3    H2 2643   5.566   3.782   0.306
  920TIP3   OH2 2644   4.566   3.713   0.657
  920TIP3    H1 2645   4.557   3.615   0.659
  920TIP3    H2 2646   4.663   3.721   0.652
  921TIP3   OH2 2647   4.274   2.916   0.442
  921TIP3    H1 2648   4.225   2.999   0.458
  921TIP3    H2 2649   4.202   2.861   0.404
  922TIP3   OH2 2650   4.333   3.202   0.614
  922TIP3    H1 2651   4.381   3.125   0.651
  922TIP3    H2 2652   4.391   3.230   0.543
  923TIP3   OH2 2653   5.188   4.173   0.267
  923TIP3    H1 2654   5.234   4.102   0.218
  923TIP3    H2 2655   5.178   4.134   0.354
  924TIP3   OH2 2656   5.094   3.634   0.616
  924TIP3    H1 2657   5.130   3.557   0.569
  924TIP3    H2 2658   5.178   3.678   0.639
  925TIP3   OH2 2659   6.110   2.952   0.614
  925TIP3    H1 2660   6.138   3.038   0.653
  925TIP3    H2 2661   6.126   2.969   0.520
  926TIP3   OH2 2662   5.507   3.134   0.648
  926TIP3    H1 2663   5.550   3.048   0.667
  926TIP3    H2 2664   5.475   3.120   0.557
  927TIP3   OH2 2665   4.844   2.794   0.613
  927TIP3    H1 2666   4.825   2.866   0.551
  927TIP3    H2 2667   4.797   2.720   0.569
  928TIP3   OH2 2668   5.537   2.886   0.237
  928TIP3    H1 2669   5.611   2.868   0.301
  928TIP3    H2 2670   5.589   2.916   0.161
  929TIP3   OH2 2671   4.478   2.996   0.720
  929TIP3    H1 2672   4.561   2.976   0.768
  929TIP3    H2 2673   4.491   2.940   0.640
  930TIP3   OH2 2674   4.919   3.194   0.513
  930TIP3    H1 2675   5.013   3.168   0.526
  930TIP3    H2 2676   4.880   3.110   0.481
  931TIP3   OH2 2677   6.184   3.164   0.781
  931TIP3    H1 2678   6.099   3.209   0.760
  931TIP3    H2 2679   6.187   3.179   0.877
  932TIP3   OH2 2680   4.841   2.777   1.048
  932TIP3    H1 2681   4.781   2.814   0.980
  932TIP3    H2 2682   4.788   2.796   1.129
  933TIP3   OH2 2683   5.183   3.625   0.061
  933TIP3    H1 2684   5.154   3.610  -0.031
  933TIP3    H2 2685   5.139   3.711   0.080
  934TIP3   OH2 2686   4.949   3.553   0.843
  934TIP3    H1 2687   4.885   3.618   0.881
  934TIP3    H2 2688   4.988   3.604   0.769
  935TIP3   OH2 2689   5.749   2.888   0.407
  935TIP3    H1 2690   5.748   2.828   0.483
  935TIP3    H2 2691   5.803   2.963   0.439
  936TIP3   OH2 2692   4.712   2.892   0.832
  936TIP3    H1 2693   4.774   2.965   0.855
  936TIP3    H2 2694   4.760   2.852   0.756
  937TIP3   OH2 2695   4.776   3.746   0.941
  937TIP3    H1 2696   4.749   3.832   0.902
  937TIP3    H2 2697   4.697   3.729   0.997
  938TIP3   OH2 2698   4.171   3.436   0.180
  938TIP3    H1 2699   4.131   3.459   0.094
  938TIP3    H2 2700   4.200   3.523   0.214
  939TIP3   OH2 2701   5.612   3.953   0.419
  939TIP3    H1 2702   5.522   3.942   0.458
  939TIP3    H2 2703   5.600   4.038   0.372
  940TIP3   OH2 2704   5.900   2.858   0.783
  940TIP3    H1 2705   5.811   2.878   0.749
  940TIP3    H2 2706   5.957   2.883   0.708
  941TIP3   OH2 2707   5.198   2.496   0.762
  941TIP3    H1 2708   5.182   2.401   0.778
  941TIP3    H2 2709   5.120   2.534   0.808
  942TIP3   OH2 2710   5.309   3.997   0.097
  942TIP3    H1 2711   5.358   3.915   0.073
  942TIP3    H2 2712   5.368   4.063   0.053
  943TIP3   OH2 2713   5.454   3.789  -0.004
  943TIP3    H1 2714   5.443   3.711  -0.061
  943TIP3    H2 2715   5.487   3.747   0.079
  944TIP3   OH2 2716   5.838   3.865   0.759
  944TIP3    H1 2717   5.823   3.787   0.702
  944TIP3    H2 2718   5.817   3.939   0.697
  945TIP3   OH2 2719   5.129   3.260   0.017
  945TIP3    H1 2720   5.047   3.311  -0.001
  945TIP3    H2 2721   5.166   3.253  -0.072
  946TIP3   OH2 2722   5.079   3.031  -0.240
  946TIP3    H1 2723   5.159   3.082  -0.216
  946TIP3    H2 2724   5.115   2.963  -0.297
  947TIP3   OH2 2725   6.032   3.507   0.607
  947TIP3    H1 2726   5.947   3.555   0.612
  947TIP3    H2 2727   6.058   3.527   0.514
  948TIP3   OH2 2728   5.472   3.333  -0.007
  948TIP3    H1 2729   5.419   3.361   0.071
  948TIP3    H2 2730   5.558   3.312   0.036
  949TIP3   OH2 2731   5.710   3.381   0.899
  949TIP3    H1 2732   5.704   3.465   0.949
  949TIP3    H2 2733   5.623   3.381   0.855
  950TIP3   OH2 2734   4.706   3.339   0.406
  950TIP3    H1 2735   4.665   3.281   0.339
  950TIP3    H2 2736   4.783   3.285   0.435
  951TIP3   OH2 2737   4.837   3.752   0.553
  951TIP3    H1 2738   4.815   3.710   0.469
  951TIP3    H2 2739   4.926   3.716   0.571
  952TIP3   OH2 2740   4.846   3.309   0.761
  952TIP3    H1 2741   4.876   3.288   0.670
  952TIP3    H2 2742   4.887   3.396   0.778
  953TIP3   OH2 2743   5.371   3.948   0.537
  953TIP3    H1 2744   5.355   4.027   0.592
  953TIP3    H2 2745   5.354   3.874   0.599
  954TIP3   OH2 2746   4.981   3.867   1.084
  954TIP3    H1 2747   4.920   3.929   1.130
  954TIP3    H2 2748   4.915   3.813   1.034
  955TIP3   OH2 2749   5.321   3.204  -0.192
  955TIP3    H1 2750   5.374   3.253  -0.125
  955TIP3    H2 2751   5.342   3.253  -0.273
  956TIP3   OH2 2752   4.735   3.423   1.184
  956TIP3    H1 2753   4.740   3.510   1.229
  956TIP3    H2 2754   4.640   3.402   1.197
  957TIP3   OH2 2755   5.055   3.876   0.094
  957TIP3    H1 2756   5.130   3.934   0.116
  957TIP3    H2 2757   4.988   3.936   0.060
  958TIP3   OH2 2758   4.775   4.035   1.172
  958TIP3    H1 2759   4.739   4.034   1.081
  958TIP3    H2 2760   4.696   4.013   1.226
  959TIP3   OH2 2761   4.573   3.182   0.211
  959TIP3    H1 2762   4.507   3.227   0.154
  959TIP3    H2 2763   4.531   3.096   0.224
  960TIP3   OH2 2764   4.355   3.565   1.117
  960TIP3    H1 2765   4.287   3.543   1.050
  960TIP3    H2 2766   4.391   3.478   1.141
  961TIP3   OH2 2767   4.208   3.760   0.748
  961TIP3    H1 2768   4.304   3.753   0.742
  961TIP3    H2 2769   4.197   3.837   0.805
  962TIP3   OH2 2770   6.074   4.211   0.803
  962TIP3    H1 2771   6.073   4.114   0.818
  962TIP3    H2 2772   5.991   4.236   0.851
  963TIP3   OH2 2773   5.179   3.995   0.941
  963TIP3    H1 2774   5.177   4.088   0.973
  963TIP3    H2 2775   5.106   3.956   0.995
  964TIP3   OH2 2776   4.915   4.130  -0.093
  964TIP3    H1 2777   4.894   4.114  -0.186
  964TIP3    H2 2778   4.902   4.226  -0.085
  965TIP3   OH2 2779   4.376   3.975   0.277
  965TIP3    H1 2780   4.424   3.965   0.363
  965TIP3    H2 2781   4.322   3.894   0.278
  966TIP3   OH2 2782   5.170   4.045  -0.153
  966TIP3    H1 2783   5.078   4.058  -0.125
  966TIP3    H2 2784   5.206   3.995  -0.078
  967TIP3   OH2 2785   5.964   3.343   1.078
  967TIP3    H1 2786   5.881   3.354   1.029
  967TIP3    H2 2787   5.978   3.247   1.068
  968TIP3   OH2 2788   4.559   3.749   1.106
  968TIP3    H1 2789   4.608   3.732   1.189
  968TIP3    H2 2790   4.485   3.685   1.114
  969TIP3   OH2 2791   4.959   2.571   0.891
  969TIP3    H1 2792   4.870   2.541   0.863
  969TIP3    H2 2793   4.933   2.654   0.936
  970TIP3   OH2 2794   5.492   2.688   1.084
  970TIP3    H1 2795   5.559   2.659   1.149
  970TIP3    H2 2796   5.408   2.668   1.130
  971TIP3   OH2 2797   5.735   3.119   1.007
  971TIP3    H1 2798   5.682   3.114   1.089
  971TIP3    H2 2799   5.706   3.203   0.968
  972TIP3   OH2 2800   5.118   2.640  -0.133
  972TIP3    H1 2801   5.078   2.629  -0.044
  972TIP3    H2 2802   5.079   2.566  -0.180
  973TIP3   OH2 2803   4.891   3.087   0.910
  973TIP3    H1 2804   4.839   3.108   0.990
  973TIP3    H2 2805   4.875   3.168   0.856
  974TIP3   OH2 2806   4.774   2.975   0.424
  974TIP3    H1 2807   4.681   2.948   0.441
  974TIP3    H2 2808   4.788   2.934   0.336
  975TIP3   OH2 2809   5.265   3.061   0.154
  975TIP3    H1 2810   5.213   3.130   0.108
  975TIP3    H2 2811   5.318   3.025   0.080
  976TIP3   OH2 2812   5.439   3.338   1.238
  976TIP3    H1 2813   5.416   3.265   1.299
  976TIP3    H2 2814   5.533   3.351   1.259
  977TIP3   OH2 2815   5.422   3.089   0.389
  977TIP3    H1 2816   5.360   3.115   0.317
  977TIP3    H2 2817   5.457   3.008   0.347
  978TIP3   OH2 2818   4.710   3.117   1.117
  978TIP3    H1 2819   4.730   3.182   1.186
  978TIP3    H2 2820   4.697   3.035   1.169
  979TIP3   OH2 2821   4.759   2.566  -0.167
  979TIP3    H1 2822   4.760   2.582  -0.071
  979TIP3    H2 2823   4.689   2.624  -0.197
  980TIP3   OH2 2824   4.303   2.637   0.698
  980TIP3    H1 2825   4.377   2.670   0.752
  980TIP3    H2 2826   4.346   2.607   0.616
  981TIP3   OH2 2827   4.270   2.622   0.216
  981TIP3    H1 2828   4.322   2.658   0.141
  981TIP3    H2 2829   4.213   2.699   0.236
  982TIP3   OH2 2830   5.437   3.334   0.814
  982TIP3    H1 2831   5.467   3.262   0.754
  982TIP3    H2 2832   5.404   3.281   0.889
  983TIP3   OH2 2833   5.102   2.798   0.485
  983TIP3    H1 2834   5.020   2.795   0.538
  983TIP3    H2 2835   5.171   2.794   0.554
  984TIP3   OH2 2836   4.536   2.852   0.492
  984TIP3    H1 2837   4.441   2.859   0.465
  984TIP3    H2 2838   4.559   2.760   0.469
  985TIP3   OH2 2839   4.806   2.849   0.184
  985TIP3    H1 2840   4.901   2.861   0.165
  985TIP3    H2 2841   4.762   2.869   0.098
  986TIP3   OH2 2842   5.595   2.872   0.690
  986TIP3    H1 2843   5.555   2.884   0.779
  986TIP3    H2 2844   5.532   2.811   0.649
  987TIP3   OH2 2845   4.651   2.875  -0.037
  987TIP3    H1 2846   4.559   2.859  -0.061
  987TIP3    H2 2847   4.690   2.915  -0.118
  988TIP3   OH2 2848   5.763   4.558   0.902
  988TIP3    H1 2849   5.756   4.586   0.809
  988TIP3    H2 2850   5.830   4.620   0.937
  989TIP3   OH2 2851   4.722   3.670   1.325
  989TIP3    H1 2852   4.800   3.702   1.375
  989TIP3    H2 2853   4.655   3.667   1.397
  990TIP3   OH2 2854   5.185   3.125   0.582
  990TIP3    H1 2855   5.255   3.084   0.529
  990TIP3    H2 2856   5.194   3.080   0.668
  991TIP3   OH2 2857   4.707   2.612   0.460
  991TIP3    H1 2858   4.674   2.533   0.506
  991TIP3    H2 2859   4.758   2.574   0.387
  992TIP3   OH2 2860   5.160   3.019   0.873
  992TIP3    H1 2861   5.070   3.056   0.885
  992TIP3    H2 2862   5.217   3.082   0.922
  993TIP3   OH2 2863   4.893   3.410  -0.031
  993TIP3    H1 2864   4.821   3.344  -0.042
  993TIP3    H2 2865   4.876   3.443   0.061
  994TIP3   OH2 2866   5.797   3.647   0.596
  994TIP3    H1 2867   5.818   3.697   0.514
  994TIP3    H2 2868   5.712   3.603   0.572
  995TIP3   OH2 2869   5.374   2.725  -0.181
  995TIP3    H1 2870   5.280   2.697  -0.177
  995TIP3    H2 2871   5.371   2.818  -0.152
  996TIP3   OH2 2872   5.304   3.734   0.962
  996TIP3    H1 2873   5.316   3.706   1.054
  996TIP3    H2 2874   5.257   3.819   0.971
  997TIP3   OH2 2875   5.422   2.974  -0.063
  997TIP3    H1 2876   5.519   2.973  -0.047
  997TIP3    H2 2877   5.410   3.051  -0.121
  998TIP3   OH2 2878   4.591   3.435   0.643
  998TIP3    H1 2879   4.628   3.405   0.557
  998TIP3    H2 2880   4.628   3.371   0.705
  999TIP3   OH2 2881   5.046   3.572  -0.191
  999TIP3    H1 2882   4.996   3.657  -0.191
  999TIP3    H2 2883   4.987   3.514  -0.138
 1000TIP3   OH2 2884   4.472   3.352   1.254
 1000TIP3    H1 2885   4.489   3.340   1.349
 1000TIP3    H2 2886   4.400   3.288   1.239
 1001TIP3   OH2 2887   5.196   3.469   1.275
 1001TIP3    H1 2888   5.134   3.410   1.228
 1001TIP3    H2 2889   5.282   3.433   1.246
 1002TIP3   OH2 2890   5.459   3.994   0.856
 1002TIP3    H1 2891   5.363   3.987   0.870
 1002TIP3    H2 2892   5.485   4.043   0.937
 1003TIP3   OH2 2893   5.833   3.076  -0.190
 1003TIP3    H1 2894   5.863   3.003  -0.247
 1003TIP3    H2 2895   5.832   3.150  -0.251
 1004TIP3   OH2 2896   6.087   3.923   0.846
 1004TIP3    H1 2897   5.989   3.915   0.840
 1004TIP3    H2 2898   6.112   3.889   0.757
 1005TIP3   OH2 2899   5.565   3.509   0.516
 1005TIP3    H1 2900   5.471   3.484   0.528
 1005TIP3    H2 2901   5.597   3.429   0.470
 1006TIP3   OH2 2902   4.691   3.738   0.268
 1006TIP3    H1 2903   4.689   3.819   0.213
 1006TIP3    H2 2904   4.597   3.719   0.277
 1007TIP3   OH2 2905   4.259   3.042  -0.022
 1007TIP3    H1 2906   4.302   3.128  -0.006
 1007TIP3    H2 2907   4.179   3.048   0.034
 1008TIP3   OH2 2908   4.828   3.503   0.214
 1008TIP3    H1 2909   4.794   3.593   0.231
 1008TIP3    H2 2910   4.791   3.453   0.289
 1009TIP3   OH2 2911   4.960   4.082   0.736
 1009TIP3    H1 2912   5.001   4.154   0.686
 1009TIP3    H2 2913   5.036   4.046   0.785
 1010TIP3   OH2 2914   4.610   3.976   0.122
 1010TIP3    H1 2915   4.524   3.984   0.167
 1010TIP3    H2 2916   4.640   4.069   0.122
 1011TIP3   OH2 2917   5.349   3.716   0.694
 1011TIP3    H1 2918   5.340   3.714   0.792
 1011TIP3    H2 2919   5.425   3.657   0.681
 1012TIP3   OH2 2920   5.598   4.248   0.746
 1012TIP3    H1 2921   5.520   4.190   0.741
 1012TIP3    H2 2922   5.580   4.312   0.673
 1013TIP3   OH2 2923   4.681   2.859   1.263
 1013TIP3    H1 2924   4.585   2.865   1.277
 1013TIP3    H2 2925   4.708   2.800   1.335
 1014TIP3   OH2 2926   5.475   3.562  -0.170
 1014TIP3    H1 2927   5.467   3.482  -0.114
 1014TIP3    H2 2928   5.567   3.553  -0.201
 1015TIP3   OH2 2929   4.400   3.944   0.894
 1015TIP3    H1 2930   4.451   3.868   0.927
 1015TIP3    H2 2931   4.424   4.011   0.959
 1016TIP3   OH2 2932   4.672   3.570  -0.428
 1016TIP3    H1 2933   4.718   3.486  -0.434
 1016TIP3    H2 2934   4.651   3.573  -0.332
 1017TIP3   OH2 2935   4.635   3.594  -0.149
 1017TIP3    H1 2936   4.708   3.565  -0.093
 1017TIP3    H2 2937   4.641   3.691  -0.142
 1018TIP3   OH2 2938   4.371   3.289   0.054
 1018TIP3    H1 2939   4.305   3.336   0.110
 1018TIP3    H2 2940   4.387   3.357  -0.014
 1019TIP3   OH2 2941   5.516   2.927   0.949
 1019TIP3    H1 2942   5.600   2.959   0.985
 1019TIP3    H2 2943   5.502   2.844   1.000
 1020TIP3   OH2 2944   5.370   2.690   0.109
 1020TIP3    H1 2945   5.381   2.697   0.013
 1020TIP3    H2 2946   5.430   2.760   0.141
 1021TIP3   OH2 2947   4.898   3.800  -0.214
 1021TIP3    H1 2948   4.813   3.825  -0.174
 1021TIP3    H2 2949   4.883   3.829  -0.306
 1022TIP3   OH2 2950   5.084   2.855   0.213
 1022TIP3    H1 2951   5.153   2.922   0.192
 1022TIP3    H2 2952   5.093   2.848   0.310
 1023TIP3   OH2 2953   5.357   3.174   1.019
 1023TIP3    H1 2954   5.379   3.225   1.099
 1023TIP3    H2 2955   5.411   3.093   1.030
 1024TIP3   OH2 2956   5.232   2.581   0.316
 1024TIP3    H1 2957   5.226   2.659   0.374
 1024TIP3    H2 2958   5.287   2.618   0.243
 1025TIP3   OH2 2959   4.644   3.864  -0.128
 1025TIP3    H1 2960   4.614   3.934  -0.190
 1025TIP3    H2 2961   4.629   3.907  -0.042
 1026TIP3   OH2 2962   4.745   2.583   0.110
 1026TIP3    H1 2963   4.743   2.674   0.144
 1026TIP3    H2 2964   4.842   2.565   0.118
 1027TIP3   OH2 2965   6.000   3.073   0.996
 1027TIP3    H1 2966   5.903   3.075   1.009
 1027TIP3    H2 2967   6.004   3.024   0.912
 1028TIP3   OH2 2968   5.649   3.268   0.389
 1028TIP3    H1 2969   5.572   3.208   0.397
 1028TIP3    H2 2970   5.719   3.218   0.436
 1029TIP3   OH2 2971   4.364   3.505  -0.141
 1029TIP3    H1 2972   4.440   3.565  -0.130
 1029TIP3    H2 2973   4.405   3.441  -0.203
 1030TIP3   OH2 2974   4.320   2.778  -0.013
 1030TIP3    H1 2975   4.306   2.875  -0.020
 1030TIP3    H2 2976   4.242   2.745  -0.057
 1031TIP3   OH2 2977   5.613   4.221   0.339
 1031TIP3    H1 2978   5.568   4.270   0.267
 1031TIP3    H2 2979   5.707   4.242   0.317
 1032TIP3   OH2 2980   4.694   2.492   0.865
 1032TIP3    H1 2981   4.663   2.459   0.778
 1032TIP3    H2 2982   4.682   2.414   0.922
 1033TIP3   OH2 2983   4.234   3.714   0.245
 1033TIP3    H1 2984   4.162   3.742   0.303
 1033TIP3    H2 2985   4.206   3.752   0.159
 1034TIP3   OH2 2986   4.389   4.252   1.316
 1034TIP3    H1 2987   4.474   4.250   1.363
 1034TIP3    H2 2988   4.366   4.158   1.316
 1035TIP3   OH2 2989   4.873   4.218   1.360
 1035TIP3    H1 2990   4.966   4.194   1.367
 1035TIP3    H2 2991   4.844   4.158   1.288
 1036TIP3   OH2 2992   5.511   4.123   1.094
 1036TIP3    H1 2993   5.501   4.053   1.163
 1036TIP3    H2 2994   5.587   4.174   1.128
 1037TIP3   OH2 2995   4.522   3.660   1.515
 1037TIP3    H1 2996   4.533   3.564   1.528
 1037TIP3    H2 2997   4.432   3.663   1.476
 1038TIP3   OH2 2998   4.505   3.318  -0.273
 1038TIP3    H1 2999   4.570   3.279  -0.212
 1038TIP3    H2 3000   4.540   3.297  -0.360
 1039TIP3   OH2 3001   5.129   3.744   1.290
 1039TIP3    H1 3002   5.084   3.760   1.205
 1039TIP3    H2 3003   5.157   3.651   1.283
 1040TIP3   OH2 3004   5.049   3.529  -0.465
 1040TIP3    H1 3005   5.051   3.557  -0.371
 1040TIP3    H2 3006   5.044   3.433  -0.455
 1041TIP3   OH2 3007   5.622   3.751   0.899
 1041TIP3    H1 3008   5.693   3.800   0.854
 1041TIP3    H2 3009   5.546   3.811   0.886
 1042TIP3   OH2 3010   4.640   3.393   1.499
 1042TIP3    H1 3011   4.713   3.332   1.483
 1042TIP3    H2 3012   4.663   3.426   1.588
 1043TIP3   OH2 3013   4.703   3.211  -0.069
 1043TIP3    H1 3014   4.680   3.169   0.016
 1043TIP3    H2 3015   4.742   3.136  -0.119
 1044TIP3   OH2 3016   4.976   3.279   1.164
 1044TIP3    H1 3017   4.896   3.336   1.164
 1044TIP3    H2 3018   5.023   3.313   1.084
 1045TIP3   OH2 3019   4.802   3.004  -0.230
 1045TIP3    H1 3020   4.794   2.989  -0.325
 1045TIP3    H2 3021   4.899   3.017  -0.223
 1046TIP3   OH2 3022   5.492   3.681   1.296
 1046TIP3    H1 3023   5.569   3.652   1.246
 1046TIP3    H2 3024   5.486   3.613   1.366
 1047TIP3   OH2 3025   5.099   3.066   1.286
 1047TIP3    H1 3026   5.097   2.986   1.229
 1047TIP3    H2 3027   5.054   3.132   1.229
 1048TIP3   OH2 3028   5.100   2.851   1.095
 1048TIP3    H1 3029   5.127   2.893   1.011
 1048TIP3    H2 3030   5.006   2.829   1.076
 1049TIP3   OH2 3031   5.128   3.389   0.969
 1049TIP3    H1 3032   5.209   3.396   0.918
 1049TIP3    H2 3033   5.069   3.454   0.924
 1050TIP3   OH2 3034   5.709   3.354   1.349
 1050TIP3    H1 3035   5.756   3.270   1.357
 1050TIP3    H2 3036   5.777   3.412   1.313
 1051TIP3   OH2 3037   5.750   3.608   1.088
 1051TIP3    H1 3038   5.692   3.661   1.028
 1051TIP3    H2 3039   5.837   3.627   1.046
 1052TIP3   OH2 3040   4.978   3.176   1.519
 1052TIP3    H1 3041   4.907   3.110   1.533
 1052TIP3    H2 3042   5.009   3.151   1.429
 1053TIP3   OH2 3043   5.232   2.616   1.163
 1053TIP3    H1 3044   5.183   2.698   1.139
 1053TIP3    H2 3045   5.163   2.548   1.150
 1054TIP3   OH2 3046   5.358   3.120   1.378
 1054TIP3    H1 3047   5.343   3.107   1.473
 1054TIP3    H2 3048   5.268   3.095   1.345
 1055TIP3   OH2 3049   5.598   3.071   1.234
 1055TIP3    H1 3050   5.521   3.071   1.295
 1055TIP3    H2 3051   5.670   3.038   1.291
 1056TIP3   OH2 3052   5.831   3.011   1.384
 1056TIP3    H1 3053   5.840   2.915   1.402
 1056TIP3    H2 3054   5.824   3.049   1.474
 1057TIP3   OH2 3055   4.814   2.957   1.570
 1057TIP3    H1 3056   4.819   2.866   1.536
 1057TIP3    H2 3057   4.848   2.946   1.661
 1058TIP3   OH2 3058   5.326   2.624   1.420
 1058TIP3    H1 3059   5.393   2.554   1.413
 1058TIP3    H2 3060   5.286   2.620   1.331
 1059TIP3   OH2 3061   5.392   2.840   1.579
 1059TIP3    H1 3062   5.370   2.769   1.514
 1059TIP3    H2 3063   5.314   2.899   1.572
 1060TIP3   OH2 3064   4.592   4.068  -0.305
 1060TIP3    H1 3065   4.675   4.082  -0.352
 1060TIP3    H2 3066   4.529   4.079  -0.377
 1061TIP3   OH2 3067   4.099   3.451  -0.092
 1061TIP3    H1 3068   4.189   3.486  -0.113
 1061TIP3    H2 3069   4.097   3.372  -0.146
 1062TIP3   OH2 3070   4.008   4.063   0.307
 1062TIP3    H1 3071   3.940   4.001   0.273
 1062TIP3    H2 3072   4.052   4.007   0.374
 1063TIP3   OH2 3073   4.142   3.916   0.496
 1063TIP3    H1 3074   4.130   3.841   0.557
 1063TIP3    H2 3075   4.193   3.976   0.552
 1064TIP3   OH2 3076   5.864   4.316   0.298
 1064TIP3    H1 3077   5.886   4.348   0.387
 1064TIP3    H2 3078   5.931   4.359   0.244
 1065TIP3   OH2 3079   5.907   4.331   0.576
 1065TIP3    H1 3080   5.856   4.246   0.570
 1065TIP3    H2 3081   5.969   4.306   0.645
 1066TIP3   OH2 3082   5.946   4.011   1.149
 1066TIP3    H1 3083   5.873   4.019   1.213
 1066TIP3    H2 3084   5.987   4.100   1.155
 1067TIP3   OH2 3085   5.742   3.537  -0.222
 1067TIP3    H1 3086   5.812   3.592  -0.260
 1067TIP3    H2 3087   5.792   3.480  -0.161
 1068TIP3   OH2 3088   5.892   3.395  -0.031
 1068TIP3    H1 3089   5.823   3.350   0.023
 1068TIP3    H2 3090   5.951   3.432   0.037
 1069TIP3   OH2 3091   5.948   3.786   0.409
 1069TIP3    H1 3092   5.997   3.717   0.359
 1069TIP3    H2 3093   5.934   3.855   0.342
 1070TIP3   OH2 3094   5.776   4.086   0.600
 1070TIP3    H1 3095   5.704   4.127   0.652
 1070TIP3    H2 3096   5.725   4.038   0.531
 1071TIP3   OH2 3097   5.708   3.250   0.119
 1071TIP3    H1 3098   5.710   3.153   0.110
 1071TIP3    H2 3099   5.692   3.261   0.215
 1072TIP3   OH2 3100   4.330   3.322   0.866
 1072TIP3    H1 3101   4.328   3.291   0.773
 1072TIP3    H2 3102   4.427   3.323   0.883
 1073TIP3   OH2 3103   5.994   3.673   0.978
 1073TIP3    H1 3104   6.065   3.607   0.967
 1073TIP3    H2 3105   6.017   3.740   0.911
 1074TIP3   OH2 3106   6.181   3.479   0.992
 1074TIP3    H1 3107   6.104   3.430   1.030
 1074TIP3    H2 3108   6.252   3.414   1.008
 1075TIP3   OH2 3109   5.625   2.707  -0.405
 1075TIP3    H1 3110   5.707   2.675  -0.363
 1075TIP3    H2 3111   5.558   2.665  -0.349
 1076TIP3   OH2 3112   5.695   2.967   0.022
 1076TIP3    H1 3113   5.741   2.880   0.030
 1076TIP3    H2 3114   5.746   3.006  -0.052
 1077TIP3   OH2 3115   5.863   3.139   0.511
 1077TIP3    H1 3116   5.949   3.165   0.470
 1077TIP3    H2 3117   5.876   3.175   0.600
 1078TIP3   OH2 3118   5.933   3.284   0.742
 1078TIP3    H1 3119   5.853   3.315   0.790
 1078TIP3    H2 3120   5.963   3.365   0.698
 1079TIP3   OH2 3121   4.547   3.006   1.538
 1079TIP3    H1 3122   4.645   3.002   1.542
 1079TIP3    H2 3123   4.523   2.923   1.582
 1080TIP3   OH2 3124   6.384   2.875   1.297
 1080TIP3    H1 3125   6.442   2.809   1.254
 1080TIP3    H2 3126   6.354   2.929   1.221
 1081TIP3   OH2 3127   5.821   2.722   0.049
 1081TIP3    H1 3128   5.853   2.697   0.137
 1081TIP3    H2 3129   5.755   2.650   0.035
 1082TIP3   OH2 3130   4.509   2.700   0.871
 1082TIP3    H1 3131   4.571   2.626   0.881
 1082TIP3    H2 3132   4.571   2.775   0.865
 1083TIP3   OH2 3133   4.312   2.973   0.946
 1083TIP3    H1 3134   4.361   2.969   0.861
 1083TIP3    H2 3135   4.338   3.060   0.979
 1084TIP3   OH2 3136   6.253   3.013   1.102
 1084TIP3    H1 3137   6.167   3.054   1.123
 1084TIP3    H2 3138   6.224   2.941   1.044
 1085TIP3   OH2 3139   5.866   2.648  -0.286
 1085TIP3    H1 3140   5.926   2.583  -0.326
 1085TIP3    H2 3141   5.911   2.732  -0.302
 1086TIP3   OH2 3142   4.296   2.476   0.443
 1086TIP3    H1 3143   4.203   2.475   0.474
 1086TIP3    H2 3144   4.291   2.536   0.366
 1087TIP3   OH2 3145   5.459   4.181  -0.036
 1087TIP3    H1 3146   5.490   4.154  -0.123
 1087TIP3    H2 3147   5.517   4.255  -0.014
 1088TIP3   OH2 3148   4.515   2.555   1.260
 1088TIP3    H1 3149   4.465   2.554   1.343
 1088TIP3    H2 3150   4.450   2.596   1.200
 1089TIP3   OH2 3151   4.556   3.986   1.340
 1089TIP3    H1 3152   4.464   3.959   1.320
 1089TIP3    H2 3153   4.563   3.963   1.433
 1090TIP3   OH2 3154   4.733   4.017   0.885
 1090TIP3    H1 3155   4.684   4.092   0.847
 1090TIP3    H2 3156   4.819   4.032   0.840
 1091TIP3   OH2 3157   5.178   4.261   1.023
 1091TIP3    H1 3158   5.220   4.263   1.112
 1091TIP3    H2 3159   5.244   4.313   0.971
 1092TIP3   OH2 3160   5.356   4.414   0.882
 1092TIP3    H1 3161   5.427   4.363   0.840
 1092TIP3    H2 3162   5.408   4.471   0.942
 1093TIP3   OH2 3163   6.151   2.776   0.982
 1093TIP3    H1 3164   6.061   2.770   0.946
 1093TIP3    H2 3165   6.182   2.683   0.970
 1094TIP3   OH2 3166   4.410   4.277   0.907
 1094TIP3    H1 3167   4.321   4.310   0.884
 1094TIP3    H2 3168   4.418   4.308   0.997
 1095TIP3   OH2 3169   4.647   4.254   0.766
 1095TIP3    H1 3170   4.560   4.267   0.811
 1095TIP3    H2 3171   4.626   4.286   0.676
 1096TIP3   OH2 3172   5.073   4.282   0.563
 1096TIP3    H1 3173   5.002   4.301   0.499
 1096TIP3    H2 3174   5.084   4.370   0.606
 1097TIP3   OH2 3175   5.341   4.223   0.616
 1097TIP3    H1 3176   5.246   4.238   0.596
 1097TIP3    H2 3177   5.382   4.299   0.573
 1098TIP3   OH2 3178   5.553   4.413   0.531
 1098TIP3    H1 3179   5.535   4.497   0.484
 1098TIP3    H2 3180   5.572   4.352   0.457
 1099TIP3   OH2 3181   4.322   4.069   0.654
 1099TIP3    H1 3182   4.348   4.042   0.744
 1099TIP3    H2 3183   4.393   4.024   0.603
 1100TIP3   OH2 3184   4.515   3.940   0.510
 1100TIP3    H1 3185   4.530   3.856   0.559
 1100TIP3    H2 3186   4.606   3.976   0.505
 1101TIP3   OH2 3187   4.783   4.035   0.512
 1101TIP3    H1 3188   4.812   3.943   0.500
 1101TIP3    H2 3189   4.826   4.055   0.597
 1102TIP3   OH2 3190   5.359   2.692   0.603
 1102TIP3    H1 3191   5.315   2.620   0.651
 1102TIP3    H2 3192   5.428   2.645   0.553
 1103TIP3   OH2 3193   5.880   2.596   0.526
 1103TIP3    H1 3194   5.918   2.629   0.441
 1103TIP3    H2 3195   5.786   2.588   0.502
 1104TIP3   OH2 3196   5.976   2.670   0.279
 1104TIP3    H1 3197   6.043   2.618   0.229
 1104TIP3    H2 3198   6.006   2.762   0.258
 1105TIP3   OH2 3199   4.605   2.400   0.617
 1105TIP3    H1 3200   4.513   2.367   0.619
 1105TIP3    H2 3201   4.654   2.315   0.614
 1106TIP3   OH2 3202   4.372   2.266   0.259
 1106TIP3    H1 3203   4.422   2.319   0.193
 1106TIP3    H2 3204   4.357   2.333   0.329
 1107TIP3   OH2 3205   5.047   2.432   0.498
 1107TIP3    H1 3206   5.105   2.476   0.434
 1107TIP3    H2 3207   5.075   2.473   0.581
 1108TIP3   OH2 3208   5.598   2.577   0.477
 1108TIP3    H1 3209   5.600   2.542   0.387
 1108TIP3    H2 3210   5.582   2.496   0.531
 1109TIP3   OH2 3211   5.628   2.528   0.065
 1109TIP3    H1 3212   5.536   2.519   0.039
 1109TIP3    H2 3213   5.651   2.436   0.084
 1110TIP3   OH2 3214   4.110   3.837   0.040
 1110TIP3    H1 3215   4.025   3.802   0.010
 1110TIP3    H2 3216   4.094   3.932   0.033
 1111TIP3   OH2 3217   4.516   2.413   0.076
 1111TIP3    H1 3218   4.542   2.374  -0.008
 1111TIP3    H2 3219   4.587   2.479   0.090
 1112TIP3   OH2 3220   5.021   2.602   0.129
 1112TIP3    H1 3221   5.085   2.557   0.186
 1112TIP3    H2 3222   5.044   2.695   0.152
 1113TIP3   OH2 3223   4.813   2.681   1.507
 1113TIP3    H1 3224   4.778   2.612   1.565
 1113TIP3    H2 3225   4.908   2.681   1.535
 1114TIP3   OH2 3226   5.063   2.677   1.627
 1114TIP3    H1 3227   5.147   2.653   1.586
 1114TIP3    H2 3228   5.051   2.605   1.692
 1115TIP3   OH2 3229   4.229   3.909  -0.287
 1115TIP3    H1 3230   4.174   3.903  -0.209
 1115TIP3    H2 3231   4.272   3.822  -0.289
 1116TIP3   OH2 3232   5.887   2.739   1.415
 1116TIP3    H1 3233   5.906   2.708   1.506
 1116TIP3    H2 3234   5.976   2.734   1.373
 1117TIP3   OH2 3235   5.829   4.292   0.904
 1117TIP3    H1 3236   5.749   4.258   0.858
 1117TIP3    H2 3237   5.807   4.387   0.910
 1118TIP3   OH2 3238   7.082   3.646   0.065
 1118TIP3    H1 3239   7.127   3.635   0.152
 1118TIP3    H2 3240   7.041   3.557   0.057
 1119TIP3   OH2 3241   6.390   3.559   0.419
 1119TIP3    H1 3242   6.419   3.490   0.482
 1119TIP3    H2 3243   6.474   3.606   0.405
 1120TIP3   OH2 3244   6.358   3.961   0.167
 1120TIP3    H1 3245   6.347   3.863   0.161
 1120TIP3    H2 3246   6.454   3.967   0.161
 1121TIP3   OH2 3247   6.060   3.172  -0.069
 1121TIP3    H1 3248   6.019   3.260  -0.060
 1121TIP3    H2 3249   5.980   3.121  -0.092
 1122TIP3   OH2 3250   6.137   3.463   0.100
 1122TIP3    H1 3251   6.179   3.382   0.137
 1122TIP3    H2 3252   6.196   3.482   0.026
 1123TIP3   OH2 3253   6.886   3.897   0.095
 1123TIP3    H1 3254   6.909   3.809   0.063
 1123TIP3    H2 3255   6.974   3.928   0.127
 1124TIP3   OH2 3256   7.308   3.389   0.137
 1124TIP3    H1 3257   7.348   3.307   0.172
 1124TIP3    H2 3258   7.298   3.363   0.045
 1125TIP3   OH2 3259   6.628   3.045   0.113
 1125TIP3    H1 3260   6.604   3.124   0.059
 1125TIP3    H2 3261   6.584   2.975   0.060
 1126TIP3   OH2 3262   6.272   3.248   0.202
 1126TIP3    H1 3263   6.356   3.230   0.249
 1126TIP3    H2 3264   6.282   3.190   0.124
 1127TIP3   OH2 3265   6.732   3.460   0.019
 1127TIP3    H1 3266   6.825   3.429   0.022
 1127TIP3    H2 3267   6.688   3.381  -0.018
 1128TIP3   OH2 3268   7.950   3.419   0.261
 1128TIP3    H1 3269   7.872   3.478   0.256
 1128TIP3    H2 3270   7.986   3.436   0.348
 1129TIP3   OH2 3271   6.638   3.035   0.535
 1129TIP3    H1 3272   6.577   3.070   0.468
 1129TIP3    H2 3273   6.586   3.050   0.616
 1130TIP3   OH2 3274   6.748   3.812   0.329
 1130TIP3    H1 3275   6.681   3.870   0.372
 1130TIP3    H2 3276   6.786   3.872   0.262
 1131TIP3   OH2 3277   6.504   3.152   0.326
 1131TIP3    H1 3278   6.569   3.223   0.345
 1131TIP3    H2 3279   6.549   3.107   0.250
 1132TIP3   OH2 3280   6.572   4.001   0.428
 1132TIP3    H1 3281   6.539   4.084   0.390
 1132TIP3    H2 3282   6.497   3.979   0.487
 1133TIP3   OH2 3283   7.690   3.113   0.257
 1133TIP3    H1 3284   7.597   3.136   0.240
 1133TIP3    H2 3285   7.730   3.135   0.172
 1134TIP3   OH2 3286   6.998   2.752   0.260
 1134TIP3    H1 3287   6.976   2.658   0.269
 1134TIP3    H2 3288   6.917   2.793   0.296
 1135TIP3   OH2 3289   7.619   4.138   0.248
 1135TIP3    H1 3290   7.640   4.079   0.175
 1135TIP3    H2 3291   7.596   4.219   0.200
 1136TIP3   OH2 3292   7.499   3.635   0.393
 1136TIP3    H1 3293   7.498   3.719   0.443
 1136TIP3    H2 3294   7.414   3.641   0.346
 1137TIP3   OH2 3295   6.468   3.543  -0.072
 1137TIP3    H1 3296   6.458   3.604  -0.147
 1137TIP3    H2 3297   6.563   3.521  -0.073
 1138TIP3   OH2 3298   6.640   4.011   0.022
 1138TIP3    H1 3299   6.591   3.933  -0.009
 1138TIP3    H2 3300   6.725   3.970   0.051
 1139TIP3   OH2 3301   6.641   3.564   0.259
 1139TIP3    H1 3302   6.667   3.537   0.168
 1139TIP3    H2 3303   6.682   3.653   0.267
 1140TIP3   OH2 3304   6.774   4.129   0.569
 1140TIP3    H1 3305   6.713   4.188   0.617
 1140TIP3    H2 3306   6.710   4.072   0.521
 1141TIP3   OH2 3307   6.532   3.683   0.670
 1141TIP3    H1 3308   6.533   3.767   0.720
 1141TIP3    H2 3309   6.438   3.659   0.679
 1142TIP3   OH2 3310   6.569   4.297   0.658
 1142TIP3    H1 3311   6.532   4.285   0.568
 1142TIP3    H2 3312   6.492   4.272   0.714
 1143TIP3   OH2 3313   6.153   3.824   0.602
 1143TIP3    H1 3314   6.083   3.802   0.537
 1143TIP3    H2 3315   6.187   3.735   0.626
 1144TIP3   OH2 3316   6.003   4.015   0.236
 1144TIP3    H1 3317   6.099   4.010   0.226
 1144TIP3    H2 3318   5.990   4.092   0.292
 1145TIP3   OH2 3319   7.867   4.455   0.301
 1145TIP3    H1 3320   7.894   4.363   0.316
 1145TIP3    H2 3321   7.791   4.464   0.361
 1146TIP3   OH2 3322   6.967   4.257   0.424
 1146TIP3    H1 3323   6.968   4.348   0.462
 1146TIP3    H2 3324   6.900   4.214   0.482
 1147TIP3   OH2 3325   7.752   3.594   0.571
 1147TIP3    H1 3326   7.678   3.602   0.510
 1147TIP3    H2 3327   7.772   3.498   0.565
 1148TIP3   OH2 3328   6.356   4.007   0.594
 1148TIP3    H1 3329   6.404   3.988   0.677
 1148TIP3    H2 3330   6.282   3.942   0.598
 1149TIP3   OH2 3331   6.755   2.829   0.376
 1149TIP3    H1 3332   6.666   2.796   0.349
 1149TIP3    H2 3333   6.727   2.910   0.423
 1150TIP3   OH2 3334   7.288   2.942   0.570
 1150TIP3    H1 3335   7.355   2.917   0.636
 1150TIP3    H2 3336   7.204   2.924   0.616
 1151TIP3   OH2 3337   7.527   3.372   0.488
 1151TIP3    H1 3338   7.481   3.367   0.575
 1151TIP3    H2 3339   7.502   3.461   0.458
 1152TIP3   OH2 3340   6.691   3.342   0.402
 1152TIP3    H1 3341   6.636   3.360   0.481
 1152TIP3    H2 3342   6.673   3.422   0.348
 1153TIP3   OH2 3343   6.547   3.243  -0.044
 1153TIP3    H1 3344   6.462   3.198  -0.062
 1153TIP3    H2 3345   6.588   3.252  -0.133
 1154TIP3   OH2 3346   7.237   3.600   0.728
 1154TIP3    H1 3347   7.214   3.525   0.787
 1154TIP3    H2 3348   7.333   3.606   0.746
 1155TIP3   OH2 3349   6.507   3.373   0.605
 1155TIP3    H1 3350   6.526   3.434   0.677
 1155TIP3    H2 3351   6.492   3.289   0.652
 1156TIP3   OH2 3352   6.095   2.898   0.188
 1156TIP3    H1 3353   6.176   2.924   0.236
 1156TIP3    H2 3354   6.126   2.863   0.104
 1157TIP3   OH2 3355   4.345   1.063   9.121
 1157TIP3    H1 3356   4.355   1.153   9.087
 1157TIP3    H2 3357   4.248   1.052   9.123
 1158TIP3   OH2 3358   7.227   3.594   0.292
 1158TIP3    H1 3359   7.261   3.517   0.240
 1158TIP3    H2 3360   7.201   3.546   0.374
 1159TIP3   OH2 3361   6.881   2.974   0.028
 1159TIP3    H1 3362   6.798   3.015   0.058
 1159TIP3    H2 3363   6.947   3.040   0.048
 1160TIP3   OH2 3364   6.315   3.092  -0.033
 1160TIP3    H1 3365   6.217   3.101  -0.044
 1160TIP3    H2 3366   6.330   2.997  -0.050
 1161TIP3   OH2 3367   7.383   3.127   0.183
 1161TIP3    H1 3368   7.350   3.142   0.274
 1161TIP3    H2 3369   7.316   3.064   0.150
 1162TIP3   OH2 3370   7.560   4.808   0.384
 1162TIP3    H1 3371   7.515   4.860   0.315
 1162TIP3    H2 3372   7.625   4.871   0.417
 1163TIP3   OH2 3373   6.518   3.931   0.813
 1163TIP3    H1 3374   6.596   3.958   0.865
 1163TIP3    H2 3375   6.451   3.924   0.885
 1164TIP3   OH2 3376   6.997   3.379   0.067
 1164TIP3    H1 3377   7.023   3.304   0.010
 1164TIP3    H2 3378   6.999   3.338   0.156
 1165TIP3   OH2 3379   6.511   2.863  -0.054
 1165TIP3    H1 3380   6.468   2.788  -0.007
 1165TIP3    H2 3381   6.582   2.821  -0.102
 1166TIP3   OH2 3382   6.959   3.285   0.345
 1166TIP3    H1 3383   6.867   3.311   0.369
 1166TIP3    H2 3384   7.013   3.339   0.406
 1167TIP3   OH2 3385   7.091   3.987   0.445
 1167TIP3    H1 3386   7.109   3.949   0.532
 1167TIP3    H2 3387   7.053   4.074   0.466
 1168TIP3   OH2 3388   6.395   3.694   0.139
 1168TIP3    H1 3389   6.412   3.645   0.055
 1168TIP3    H2 3390   6.413   3.623   0.203
 1169TIP3   OH2 3391   6.268   3.609   0.741
 1169TIP3    H1 3392   6.282   3.593   0.836
 1169TIP3    H2 3393   6.196   3.546   0.721
 1170TIP3   OH2 3394   6.992   3.728   0.759
 1170TIP3    H1 3395   6.929   3.666   0.718
 1170TIP3    H2 3396   7.078   3.689   0.733
 1171TIP3   OH2 3397   7.248   4.239   0.352
 1171TIP3    H1 3398   7.152   4.243   0.366
 1171TIP3    H2 3399   7.280   4.295   0.425
 1172TIP3   OH2 3400   7.875   4.180   0.360
 1172TIP3    H1 3401   7.778   4.186   0.350
 1172TIP3    H2 3402   7.900   4.149   0.271
 1173TIP3   OH2 3403   6.763   4.329   0.233
 1173TIP3    H1 3404   6.815   4.346   0.153
 1173TIP3    H2 3405   6.834   4.299   0.294
 1174TIP3   OH2 3406   7.132   3.988   0.175
 1174TIP3    H1 3407   7.130   3.982   0.273
 1174TIP3    H2 3408   7.224   3.962   0.157
 1175TIP3   OH2 3409   6.476   3.117   0.749
 1175TIP3    H1 3410   6.379   3.121   0.761
 1175TIP3    H2 3411   6.502   3.056   0.820
 1176TIP3   OH2 3412   6.206   4.207   0.394
 1176TIP3    H1 3413   6.245   4.119   0.406
 1176TIP3    H2 3414   6.217   4.243   0.483
 1177TIP3   OH2 3415   7.311   3.184   0.438
 1177TIP3    H1 3416   7.393   3.220   0.477
 1177TIP3    H2 3417   7.299   3.101   0.489
 1178TIP3   OH2 3418   7.159   3.436   0.503
 1178TIP3    H1 3419   7.176   3.482   0.587
 1178TIP3    H2 3420   7.209   3.353   0.515
 1179TIP3   OH2 3421   7.796   3.330   0.490
 1179TIP3    H1 3422   7.698   3.324   0.493
 1179TIP3    H2 3423   7.813   3.299   0.400
 1180TIP3   OH2 3424   6.491   2.748   0.351
 1180TIP3    H1 3425   6.457   2.715   0.265
 1180TIP3    H2 3426   6.478   2.670   0.409
 1181TIP3   OH2 3427   6.187   4.505   0.794
 1181TIP3    H1 3428   6.269   4.505   0.848
 1181TIP3    H2 3429   6.159   4.412   0.802
 1182TIP3   OH2 3430   6.667   4.480   0.846
 1182TIP3    H1 3431   6.761   4.465   0.858
 1182TIP3    H2 3432   6.644   4.415   0.777
 1183TIP3   OH2 3433   7.304   4.375   0.599
 1183TIP3    H1 3434   7.318   4.305   0.665
 1183TIP3    H2 3435   7.383   4.431   0.614
 1184TIP3   OH2 3436   6.317   3.916   1.002
 1184TIP3    H1 3437   6.332   3.820   1.011
 1184TIP3    H2 3438   6.228   3.917   0.960
 1185TIP3   OH2 3439   6.926   4.000   0.774
 1185TIP3    H1 3440   6.879   4.009   0.689
 1185TIP3    H2 3441   6.956   3.906   0.771
 1186TIP3   OH2 3442   7.416   4.011   0.387
 1186TIP3    H1 3443   7.489   4.054   0.338
 1186TIP3    H2 3444   7.345   4.076   0.373
 1187TIP3   OH2 3445   6.438   3.654   0.985
 1187TIP3    H1 3446   6.505   3.586   0.969
 1187TIP3    H2 3447   6.463   3.684   1.075
 1188TIP3   OH2 3448   6.772   3.539   0.653
 1188TIP3    H1 3449   6.691   3.593   0.653
 1188TIP3    H2 3450   6.818   3.571   0.572
 1189TIP3   OH2 3451   7.299   3.940   0.786
 1189TIP3    H1 3452   7.364   3.900   0.727
 1189TIP3    H2 3453   7.285   3.869   0.851
 1190TIP3   OH2 3454   6.893   3.322   0.774
 1190TIP3    H1 3455   6.892   3.242   0.718
 1190TIP3    H2 3456   6.848   3.388   0.717
 1191TIP3   OH2 3457   6.896   3.111   0.579
 1191TIP3    H1 3458   6.922   3.145   0.492
 1191TIP3    H2 3459   6.802   3.086   0.564
 1192TIP3   OH2 3460   6.925   3.648   0.457
 1192TIP3    H1 3461   7.003   3.645   0.402
 1192TIP3    H2 3462   6.867   3.712   0.409
 1193TIP3   OH2 3463   7.502   3.611   0.831
 1193TIP3    H1 3464   7.540   3.540   0.886
 1193TIP3    H2 3465   7.582   3.647   0.790
 1194TIP3   OH2 3466   7.549   3.870   0.574
 1194TIP3    H1 3467   7.492   3.923   0.513
 1194TIP3    H2 3468   7.636   3.883   0.530
 1195TIP3   OH2 3469   6.771   3.435   1.004
 1195TIP3    H1 3470   6.703   3.367   1.020
 1195TIP3    H2 3471   6.806   3.407   0.917
 1196TIP3   OH2 3472   7.027   2.872   0.646
 1196TIP3    H1 3473   6.978   2.954   0.625
 1196TIP3    H2 3474   6.957   2.804   0.636
 1197TIP3   OH2 3475   7.154   3.381   0.864
 1197TIP3    H1 3476   7.153   3.364   0.960
 1197TIP3    H2 3477   7.064   3.352   0.840
 1198TIP3   OH2 3478   7.393   3.324   0.718
 1198TIP3    H1 3479   7.320   3.327   0.783
 1198TIP3    H2 3480   7.469   3.297   0.774
 1199TIP3   OH2 3481   7.625   3.263   0.862
 1199TIP3    H1 3482   7.633   3.170   0.891
 1199TIP3    H2 3483   7.613   3.312   0.946
 1200TIP3   OH2 3484   6.612   3.215   1.057
 1200TIP3    H1 3485   6.616   3.123   1.022
 1200TIP3    H2 3486   6.648   3.201   1.147
 1201TIP3   OH2 3487   7.123   2.881   0.904
 1201TIP3    H1 3488   7.189   2.810   0.898
 1201TIP3    H2 3489   7.082   2.875   0.815
 1202TIP3   OH2 3490   7.185   3.094   1.069
 1202TIP3    H1 3491   7.165   3.025   1.002
 1202TIP3    H2 3492   7.110   3.156   1.060
 1203TIP3   OH2 3493   5.933   4.179   0.002
 1203TIP3    H1 3494   5.911   4.100   0.053
 1203TIP3    H2 3495   5.973   4.234   0.070
 1204TIP3   OH2 3496   7.747   4.266   0.638
 1204TIP3    H1 3497   7.664   4.287   0.680
 1204TIP3    H2 3498   7.791   4.353   0.634
 1205TIP3   OH2 3499   6.125   3.578   0.353
 1205TIP3    H1 3500   6.124   3.546   0.260
 1205TIP3    H2 3501   6.222   3.579   0.371
 1206TIP3   OH2 3502   7.789   3.931   0.452
 1206TIP3    H1 3503   7.864   3.867   0.455
 1206TIP3    H2 3504   7.831   4.013   0.420
 1207TIP3   OH2 3505   7.967   3.737   0.504
 1207TIP3    H1 3506   7.891   3.680   0.530
 1207TIP3    H2 3507   8.041   3.673   0.512
 1208TIP3   OH2 3508   7.729   3.578   0.238
 1208TIP3    H1 3509   7.648   3.584   0.291
 1208TIP3    H2 3510   7.694   3.603   0.150
 1209TIP3   OH2 3511   6.346   3.268   1.034
 1209TIP3    H1 3512   6.444   3.258   1.033
 1209TIP3    H2 3513   6.320   3.181   1.070
 1210TIP3   OH2 3514   8.180   3.132   0.786
 1210TIP3    H1 3515   8.237   3.066   0.741
 1210TIP3    H2 3516   8.149   3.187   0.710
 1211TIP3   OH2 3517   6.307   2.956   0.358
 1211TIP3    H1 3518   6.369   2.881   0.368
 1211TIP3    H2 3519   6.368   3.031   0.355
 1212TIP3   OH2 3520   6.110   3.231   0.433
 1212TIP3    H1 3521   6.156   3.220   0.347
 1212TIP3    H2 3522   6.140   3.318   0.460
 1213TIP3   OH2 3523   8.050   3.275   0.595
 1213TIP3    H1 3524   7.961   3.311   0.611
 1213TIP3    H2 3525   8.028   3.205   0.531
 1214TIP3   OH2 3526   6.084   2.751  -0.065
 1214TIP3    H1 3527   5.994   2.731  -0.032
 1214TIP3    H2 3528   6.065   2.795  -0.148
 1215TIP3   OH2 3529   6.313   2.815   0.748
 1215TIP3    H1 3530   6.260   2.809   0.830
 1215TIP3    H2 3531   6.246   2.853   0.687
 1216TIP3   OH2 3532   6.352   4.243   0.826
 1216TIP3    H1 3533   6.261   4.214   0.808
 1216TIP3    H2 3534   6.362   4.219   0.919
 1217TIP3   OH2 3535   6.525   4.277   0.377
 1217TIP3    H1 3536   6.458   4.302   0.312
 1217TIP3    H2 3537   6.608   4.304   0.333
 1218TIP3   OH2 3538   6.966   4.520   0.510
 1218TIP3    H1 3539   7.006   4.519   0.600
 1218TIP3    H2 3540   7.037   4.568   0.461
 1219TIP3   OH2 3541   7.156   4.650   0.363
 1219TIP3    H1 3542   7.240   4.616   0.329
 1219TIP3    H2 3543   7.191   4.722   0.421
 1220TIP3   OH2 3544   7.948   3.034   0.479
 1220TIP3    H1 3545   7.860   3.036   0.437
 1220TIP3    H2 3546   7.976   2.942   0.462
 1221TIP3   OH2 3547   6.227   4.549   0.412
 1221TIP3    H1 3548   6.147   4.576   0.361
 1221TIP3    H2 3549   6.183   4.536   0.497
 1222TIP3   OH2 3550   6.422   4.528   0.216
 1222TIP3    H1 3551   6.337   4.515   0.262
 1222TIP3    H2 3552   6.396   4.514   0.124
 1223TIP3   OH2 3553   6.108   4.335   0.171
 1223TIP3    H1 3554   6.133   4.298   0.258
 1223TIP3    H2 3555   6.177   4.290   0.117
 1224TIP3   OH2 3556   6.310   4.218   0.050
 1224TIP3    H1 3557   6.315   4.120   0.053
 1224TIP3    H2 3558   6.395   4.241   0.009
 1225TIP3   OH2 3559   6.577   4.289   0.027
 1225TIP3    H1 3560   6.593   4.193   0.018
 1225TIP3    H2 3561   6.626   4.308   0.109
 1226TIP3   OH2 3562   7.167   2.959   0.109
 1226TIP3    H1 3563   7.095   2.904   0.145
 1226TIP3    H2 3564   7.227   2.891   0.071
 1227TIP3   OH2 3565   7.667   2.866   0.043
 1227TIP3    H1 3566   7.710   2.934  -0.012
 1227TIP3    H2 3567   7.575   2.874   0.012
 1228TIP3   OH2 3568   6.395   2.662   0.102
 1228TIP3    H1 3569   6.303   2.631   0.097
 1228TIP3    H2 3570   6.442   2.575   0.104
 1229TIP3   OH2 3571   6.193   2.516  -0.208
 1229TIP3    H1 3572   6.167   2.547  -0.298
 1229TIP3    H2 3573   6.166   2.590  -0.151
 1230TIP3   OH2 3574   6.853   2.684  -0.015
 1230TIP3    H1 3575   6.878   2.758  -0.072
 1230TIP3    H2 3576   6.856   2.730   0.070
 1231TIP3   OH2 3577   7.361   2.808  -0.011
 1231TIP3    H1 3578   7.329   2.759  -0.090
 1231TIP3    H2 3579   7.376   2.733   0.050
 1232TIP3   OH2 3580   6.609   2.940   0.997
 1232TIP3    H1 3581   6.574   2.868   1.051
 1232TIP3    H2 3582   6.703   2.939   1.024
 1233TIP3   OH2 3583   6.858   2.935   1.115
 1233TIP3    H1 3584   6.944   2.909   1.076
 1233TIP3    H2 3585   6.845   2.864   1.181
 1234TIP3   OH2 3586   7.682   2.991   0.900
 1234TIP3    H1 3587   7.701   2.964   0.993
 1234TIP3    H2 3588   7.772   2.990   0.861
 1235TIP3   OH2 3589   7.614   4.535   0.412
 1235TIP3    H1 3590   7.599   4.496   0.323
 1235TIP3    H2 3591   7.604   4.631   0.394
 1236TIP3   OH2 3592   8.355   4.127   0.342
 1236TIP3    H1 3593   8.411   4.180   0.400
 1236TIP3    H2 3594   8.280   4.109   0.401
 1237TIP3   OH2 3595   8.070   3.820   0.252
 1237TIP3    H1 3596   8.122   3.848   0.331
 1237TIP3    H2 3597   8.029   3.740   0.287
 1238TIP3   OH2 3598   8.212   3.275   0.267
 1238TIP3    H1 3599   8.200   3.368   0.246
 1238TIP3    H2 3600   8.287   3.275   0.329
 1239TIP3   OH2 3601   8.115   4.169   0.496
 1239TIP3    H1 3602   8.117   4.073   0.508
 1239TIP3    H2 3603   8.028   4.182   0.453
 1240TIP3   OH2 3604   8.228   3.894   0.476
 1240TIP3    H1 3605   8.304   3.838   0.456
 1240TIP3    H2 3606   8.252   3.929   0.564
 1241TIP3   OH2 3607   8.548   3.701   0.470
 1241TIP3    H1 3608   8.484   3.629   0.488
 1241TIP3    H2 3609   8.580   3.676   0.382
 1242TIP3   OH2 3610   8.403   3.480   0.555
 1242TIP3    H1 3611   8.420   3.404   0.497
 1242TIP3    H2 3612   8.438   3.450   0.641
 1243TIP3   OH2 3613   8.137   3.528   0.517
 1243TIP3    H1 3614   8.235   3.520   0.518
 1243TIP3    H2 3615   8.113   3.440   0.553
 1244TIP3   OH2 3616   8.054   3.067   0.217
 1244TIP3    H1 3617   8.038   3.068   0.312
 1244TIP3    H2 3618   8.098   3.154   0.207
 1245TIP3   OH2 3619   8.378   3.184   0.471
 1245TIP3    H1 3620   8.344   3.115   0.530
 1245TIP3    H2 3621   8.470   3.192   0.504
 1246TIP3   OH2 3622   8.612   3.197   0.600
 1246TIP3    H1 3623   8.709   3.203   0.590
 1246TIP3    H2 3624   8.607   3.122   0.663
 1247TIP3   OH2 3625   0.433   4.176   1.977
 1247TIP3    H1 3626   0.368   4.225   1.924
 1247TIP3    H2 3627   0.451   4.239   2.049
 1248TIP3   OH2 3628  -0.128   4.987   1.632
 1248TIP3    H1 3629  -0.223   4.975   1.637
 1248TIP3    H2 3630  -0.115   5.043   1.552
 1249TIP3   OH2 3631   0.085   4.913   1.939
 1249TIP3    H1 3632   0.075   4.836   1.879
 1249TIP3    H2 3633   0.073   4.988   1.876
 1250TIP3   OH2 3634   0.277   4.549   1.787
 1250TIP3    H1 3635   0.194   4.599   1.788
 1250TIP3    H2 3636   0.307   4.562   1.695
 1251TIP3   OH2 3637  -0.026   4.427   2.090
 1251TIP3    H1 3638  -0.045   4.509   2.141
 1251TIP3    H2 3639  -0.103   4.421   2.031
 1252TIP3   OH2 3640  -0.556   5.027   2.127
 1252TIP3    H1 3641  -0.545   5.120   2.159
 1252TIP3    H2 3642  -0.652   5.022   2.127
 1253TIP3   OH2 3643   0.213   4.385   2.256
 1253TIP3    H1 3644   0.132   4.394   2.203
 1253TIP3    H2 3645   0.227   4.288   2.254
 1254TIP3   OH2 3646  -0.029   4.158   2.165
 1254TIP3    H1 3647  -0.060   4.158   2.259
 1254TIP3    H2 3648  -0.034   4.253   2.145
 1255TIP3   OH2 3649  -0.312   4.403   2.425
 1255TIP3    H1 3650  -0.339   4.320   2.469
 1255TIP3    H2 3651  -0.216   4.399   2.436
 1256TIP3   OH2 3652   0.011   5.600   2.103
 1256TIP3    H1 3653   0.005   5.621   2.008
 1256TIP3    H2 3654   0.090   5.652   2.129
 1257TIP3   OH2 3655   0.049   4.700   1.772
 1257TIP3    H1 3656   0.085   4.748   1.693
 1257TIP3    H2 3657  -0.038   4.672   1.739
 1258TIP3   OH2 3658  -0.428   4.788   2.124
 1258TIP3    H1 3659  -0.424   4.754   2.214
 1258TIP3    H2 3660  -0.482   4.870   2.137
 1259TIP3   OH2 3661  -0.550   4.527   2.481
 1259TIP3    H1 3662  -0.607   4.498   2.406
 1259TIP3    H2 3663  -0.463   4.489   2.452
 1260TIP3   OH2 3664  -0.301   5.093   2.018
 1260TIP3    H1 3665  -0.384   5.049   2.039
 1260TIP3    H2 3666  -0.269   5.113   2.109
 1261TIP3   OH2 3667   0.335   4.967   2.029
 1261TIP3    H1 3668   0.237   4.965   2.017
 1261TIP3    H2 3669   0.361   4.941   1.938
 1262TIP3   OH2 3670  -0.326   4.804   1.861
 1262TIP3    H1 3671  -0.358   4.811   1.952
 1262TIP3    H2 3672  -0.353   4.713   1.840
 1263TIP3   OH2 3673  -0.135   5.288   1.928
 1263TIP3    H1 3674  -0.196   5.216   1.959
 1263TIP3    H2 3675  -0.192   5.333   1.863
 1264TIP3   OH2 3676   0.242   4.115   2.182
 1264TIP3    H1 3677   0.145   4.109   2.170
 1264TIP3    H2 3678   0.274   4.113   2.090
 1265TIP3   OH2 3679  -0.231   5.161   2.269
 1265TIP3    H1 3680  -0.241   5.092   2.339
 1265TIP3    H2 3681  -0.165   5.221   2.310
 1266TIP3   OH2 3682  -0.610   4.794   2.454
 1266TIP3    H1 3683  -0.673   4.764   2.389
 1266TIP3    H2 3684  -0.573   4.708   2.483
 1267TIP3   OH2 3685  -0.120   4.793   2.081
 1267TIP3    H1 3686  -0.051   4.842   2.031
 1267TIP3    H2 3687  -0.200   4.836   2.049
 1268TIP3   OH2 3688  -0.260   4.719   2.474
 1268TIP3    H1 3689  -0.178   4.695   2.429
 1268TIP3    H2 3690  -0.266   4.649   2.541
 1269TIP3   OH2 3691  -0.039   4.415   2.532
 1269TIP3    H1 3692  -0.013   4.322   2.525
 1269TIP3    H2 3693   0.041   4.460   2.502
 1270TIP3   OH2 3694   0.003   4.652   2.269
 1270TIP3    H1 3695  -0.053   4.707   2.209
 1270TIP3    H2 3696   0.090   4.667   2.227
 1271TIP3   OH2 3697  -0.416   4.186   2.564
 1271TIP3    H1 3698  -0.395   4.165   2.658
 1271TIP3    H2 3699  -0.511   4.199   2.572
 1272TIP3   OH2 3700  -0.102   4.159   2.428
 1272TIP3    H1 3701  -0.178   4.121   2.474
 1272TIP3    H2 3702  -0.028   4.109   2.470
 1273TIP3   OH2 3703   0.096   4.045   2.570
 1273TIP3    H1 3704   0.097   3.949   2.590
 1273TIP3    H2 3705   0.086   4.087   2.658
 1274TIP3   OH2 3706   0.141   5.422   1.476
 1274TIP3    H1 3707   0.176   5.384   1.558
 1274TIP3    H2 3708   0.205   5.389   1.410
 1275TIP3   OH2 3709   0.150   5.390   1.764
 1275TIP3    H1 3710   0.104   5.303   1.757
 1275TIP3    H2 3711   0.234   5.362   1.801
 1276TIP3   OH2 3712   0.233   5.099   2.330
 1276TIP3    H1 3713   0.164   5.055   2.383
 1276TIP3    H2 3714   0.183   5.178   2.304
 1277TIP3   OH2 3715   0.193   4.823   1.581
 1277TIP3    H1 3716   0.250   4.758   1.536
 1277TIP3    H2 3717   0.198   4.900   1.520
 1278TIP3   OH2 3718   0.041   5.136   1.783
 1278TIP3    H1 3719  -0.029   5.180   1.835
 1278TIP3    H2 3720  -0.012   5.084   1.719
 1279TIP3   OH2 3721   0.243   4.719   2.153
 1279TIP3    H1 3722   0.312   4.649   2.146
 1279TIP3    H2 3723   0.266   4.777   2.079
 1280TIP3   OH2 3724   0.428   4.526   2.175
 1280TIP3    H1 3725   0.353   4.471   2.209
 1280TIP3    H2 3726   0.501   4.462   2.188
 1281TIP3   OH2 3727   0.185   4.326   1.929
 1281TIP3    H1 3728   0.116   4.374   1.978
 1281TIP3    H2 3729   0.222   4.396   1.871
 1282TIP3   OH2 3730   0.628   3.914   2.474
 1282TIP3    H1 3731   0.689   3.851   2.430
 1282TIP3    H2 3732   0.602   3.972   2.399
 1283TIP3   OH2 3733   0.503   4.060   2.281
 1283TIP3    H1 3734   0.416   4.098   2.307
 1283TIP3    H2 3735   0.474   3.993   2.216
 1284TIP3   OH2 3736  -0.551   5.282   2.209
 1284TIP3    H1 3737  -0.539   5.324   2.296
 1284TIP3    H2 3738  -0.516   5.350   2.149
 1285TIP3   OH2 3739  -0.367   5.428   2.053
 1285TIP3    H1 3740  -0.277   5.393   2.052
 1285TIP3    H2 3741  -0.353   5.505   2.112
 1286TIP3   OH2 3742   0.395   3.814   2.151
 1286TIP3    H1 3743   0.308   3.829   2.111
 1286TIP3    H2 3744   0.402   3.718   2.145
 1287TIP3   OH2 3745   0.134   3.768   2.591
 1287TIP3    H1 3746   0.161   3.745   2.682
 1287TIP3    H2 3747   0.220   3.774   2.545
 1288TIP3   OH2 3748   0.081   5.333   2.111
 1288TIP3    H1 3749   0.017   5.305   2.042
 1288TIP3    H2 3750   0.067   5.430   2.108
 1289TIP3   OH2 3751   1.369   4.734   0.874
 1289TIP3    H1 3752   1.323   4.803   0.923
 1289TIP3    H2 3753   1.295   4.682   0.835
 1290TIP3   OH2 3754   1.330   4.706   1.233
 1290TIP3    H1 3755   1.371   4.688   1.320
 1290TIP3    H2 3756   1.300   4.617   1.210
 1291TIP3   OH2 3757   0.638   4.609   1.602
 1291TIP3    H1 3758   0.662   4.530   1.653
 1291TIP3    H2 3759   0.723   4.656   1.600
 1292TIP3   OH2 3760   1.558   5.020   0.921
 1292TIP3    H1 3761   1.570   4.941   0.975
 1292TIP3    H2 3762   1.606   5.087   0.972
 1293TIP3   OH2 3763   0.609   5.012   1.325
 1293TIP3    H1 3764   0.600   4.915   1.327
 1293TIP3    H2 3765   0.706   5.020   1.323
 1294TIP3   OH2 3766   1.226   5.465   0.914
 1294TIP3    H1 3767   1.286   5.391   0.896
 1294TIP3    H2 3768   1.212   5.459   1.010
 1295TIP3   OH2 3769   1.142   4.932   1.275
 1295TIP3    H1 3770   1.185   4.851   1.244
 1295TIP3    H2 3771   1.223   4.981   1.301
 1296TIP3   OH2 3772   2.152   4.255   1.277
 1296TIP3    H1 3773   2.181   4.336   1.323
 1296TIP3    H2 3774   2.173   4.276   1.185
 1297TIP3   OH2 3775   1.555   4.439   1.310
 1297TIP3    H1 3776   1.594   4.352   1.333
 1297TIP3    H2 3777   1.519   4.420   1.221
 1298TIP3   OH2 3778   1.574   4.180   0.916
 1298TIP3    H1 3779   1.655   4.166   0.970
 1298TIP3    H2 3780   1.611   4.208   0.832
 1299TIP3   OH2 3781   0.976   4.484   1.178
 1299TIP3    H1 3782   1.072   4.474   1.198
 1299TIP3    H2 3783   0.953   4.391   1.163
 1300TIP3   OH2 3784   2.225   4.461   1.446
 1300TIP3    H1 3785   2.140   4.509   1.434
 1300TIP3    H2 3786   2.246   4.487   1.538
 1301TIP3   OH2 3787   0.881   4.073   1.715
 1301TIP3    H1 3788   0.821   4.114   1.648
 1301TIP3    H2 3789   0.832   4.095   1.796
 1302TIP3   OH2 3790   0.990   4.855   1.506
 1302TIP3    H1 3791   0.927   4.919   1.546
 1302TIP3    H2 3792   1.035   4.910   1.439
 1303TIP3   OH2 3793   1.799   4.188   1.068
 1303TIP3    H1 3794   1.780   4.140   1.150
 1303TIP3    H2 3795   1.848   4.266   1.100
 1304TIP3   OH2 3796   0.753   4.198   1.515
 1304TIP3    H1 3797   0.828   4.258   1.501
 1304TIP3    H2 3798   0.761   4.131   1.444
 1305TIP3   OH2 3799   0.815   5.049   1.604
 1305TIP3    H1 3800   0.793   5.136   1.566
 1305TIP3    H2 3801   0.737   5.035   1.662
 1306TIP3   OH2 3802   1.652   5.253   1.074
 1306TIP3    H1 3803   1.563   5.244   1.117
 1306TIP3    H2 3804   1.646   5.343   1.037
 1307TIP3   OH2 3805   1.945   4.152   1.443
 1307TIP3    H1 3806   1.857   4.183   1.413
 1307TIP3    H2 3807   2.004   4.185   1.372
 1308TIP3   OH2 3808   1.268   3.819   1.427
 1308TIP3    H1 3809   1.247   3.724   1.443
 1308TIP3    H2 3810   1.184   3.860   1.459
 1309TIP3   OH2 3811   1.382   5.283   0.759
 1309TIP3    H1 3812   1.448   5.223   0.796
 1309TIP3    H2 3813   1.439   5.355   0.722
 1310TIP3   OH2 3814   1.879   5.167   1.424
 1310TIP3    H1 3815   1.869   5.089   1.365
 1310TIP3    H2 3816   1.863   5.241   1.362
 1311TIP3   OH2 3817   1.202   4.609   0.704
 1311TIP3    H1 3818   1.112   4.632   0.672
 1311TIP3    H2 3819   1.251   4.600   0.620
 1312TIP3   OH2 3820   2.075   4.803   1.267
 1312TIP3    H1 3821   1.992   4.855   1.274
 1312TIP3    H2 3822   2.104   4.827   1.177
 1313TIP3   OH2 3823   1.523   4.646   0.665
 1313TIP3    H1 3824   1.483   4.678   0.748
 1313TIP3    H2 3825   1.611   4.616   0.698
 1314TIP3   OH2 3826   1.754   4.682   1.565
 1314TIP3    H1 3827   1.752   4.764   1.618
 1314TIP3    H2 3828   1.668   4.688   1.520
 1315TIP3   OH2 3829   0.788   4.639   1.061
 1315TIP3    H1 3830   0.728   4.563   1.046
 1315TIP3    H2 3831   0.863   4.595   1.105
 1316TIP3   OH2 3832   0.890   5.043   1.212
 1316TIP3    H1 3833   0.873   4.974   1.147
 1316TIP3    H2 3834   0.981   5.021   1.239
 1317TIP3   OH2 3835   0.881   4.617   1.418
 1317TIP3    H1 3836   0.929   4.590   1.337
 1317TIP3    H2 3837   0.928   4.699   1.445
 1318TIP3   OH2 3838   1.412   5.247   1.196
 1318TIP3    H1 3839   1.401   5.330   1.248
 1318TIP3    H2 3840   1.398   5.177   1.263
 1319TIP3   OH2 3841   1.029   5.162   1.746
 1319TIP3    H1 3842   0.971   5.227   1.792
 1319TIP3    H2 3843   0.962   5.110   1.697
 1320TIP3   OH2 3844   1.349   4.547   0.482
 1320TIP3    H1 3845   1.423   4.570   0.544
 1320TIP3    H2 3846   1.398   4.505   0.411
 1321TIP3   OH2 3847   0.781   4.730   1.847
 1321TIP3    H1 3848   0.783   4.813   1.896
 1321TIP3    H2 3849   0.687   4.705   1.854
 1322TIP3   OH2 3850   1.098   5.189   0.723
 1322TIP3    H1 3851   1.174   5.228   0.769
 1322TIP3    H2 3852   1.024   5.244   0.754
 1323TIP3   OH2 3853   0.826   5.336   1.819
 1323TIP3    H1 3854   0.801   5.339   1.724
 1323TIP3    H2 3855   0.741   5.336   1.862
 1324TIP3   OH2 3856   1.683   5.114   0.092
 1324TIP3    H1 3857   1.687   5.204   0.057
 1324TIP3    H2 3858   1.771   5.078   0.070
 1325TIP3   OH2 3859   0.400   4.871   1.784
 1325TIP3    H1 3860   0.339   4.846   1.711
 1325TIP3    H2 3861   0.438   4.784   1.811
 1326TIP3   OH2 3862   0.254   5.038   1.415
 1326TIP3    H1 3863   0.348   5.050   1.394
 1326TIP3    H2 3864   0.231   5.127   1.445
 1327TIP3   OH2 3865   2.117   5.510   1.468
 1327TIP3    H1 3866   2.117   5.414   1.485
 1327TIP3    H2 3867   2.034   5.536   1.515
 1328TIP3   OH2 3868   1.225   5.291   1.601
 1328TIP3    H1 3869   1.228   5.384   1.633
 1328TIP3    H2 3870   1.154   5.253   1.657
 1329TIP3   OH2 3871   1.249   5.349   0.519
 1329TIP3    H1 3872   1.190   5.405   0.570
 1329TIP3    H2 3873   1.312   5.321   0.588
 1330TIP3   OH2 3874   2.009   4.642   1.741
 1330TIP3    H1 3875   1.926   4.649   1.692
 1330TIP3    H2 3876   2.027   4.546   1.735
 1331TIP3   OH2 3877   0.602   5.058   1.781
 1331TIP3    H1 3878   0.659   5.028   1.855
 1331TIP3    H2 3879   0.531   4.991   1.780
 1332TIP3   OH2 3880   1.027   3.913   1.527
 1332TIP3    H1 3881   0.958   3.844   1.518
 1332TIP3    H2 3882   0.983   3.971   1.591
 1333TIP3   OH2 3883   1.539   3.992   1.748
 1333TIP3    H1 3884   1.605   3.962   1.814
 1333TIP3    H2 3885   1.453   3.971   1.791
 1334TIP3   OH2 3886   1.772   4.416   1.664
 1334TIP3    H1 3887   1.725   4.413   1.750
 1334TIP3    H2 3888   1.750   4.505   1.631
 1335TIP3   OH2 3889   0.945   4.398   1.571
 1335TIP3    H1 3890   0.884   4.404   1.648
 1335TIP3    H2 3891   0.917   4.477   1.520
 1336TIP3   OH2 3892   1.300   4.380   0.828
 1336TIP3    H1 3893   1.259   4.458   0.786
 1336TIP3    H2 3894   1.371   4.359   0.763
 1337TIP3   OH2 3895   1.484   4.640   1.901
 1337TIP3    H1 3896   1.463   4.566   1.963
 1337TIP3    H2 3897   1.578   4.653   1.922
 1338TIP3   OH2 3898   1.468   4.391   1.053
 1338TIP3    H1 3899   1.403   4.412   0.983
 1338TIP3    H2 3900   1.501   4.306   1.017
 1339TIP3   OH2 3901   0.759   4.424   1.776
 1339TIP3    H1 3902   0.790   4.471   1.854
 1339TIP3    H2 3903   0.733   4.337   1.813
 1340TIP3   OH2 3904   1.472   4.637   1.472
 1340TIP3    H1 3905   1.508   4.565   1.415
 1340TIP3    H2 3906   1.446   4.584   1.551
 1341TIP3   OH2 3907   1.160   4.134   1.169
 1341TIP3    H1 3908   1.086   4.089   1.212
 1341TIP3    H2 3909   1.236   4.104   1.223
 1342TIP3   OH2 3910   1.636   4.174   1.348
 1342TIP3    H1 3911   1.602   4.186   1.440
 1342TIP3    H2 3912   1.572   4.111   1.313
 1343TIP3   OH2 3913   1.808   5.861   1.568
 1343TIP3    H1 3914   1.806   5.887   1.474
 1343TIP3    H2 3915   1.886   5.911   1.601
 1344TIP3   OH2 3916   0.764   4.975   1.992
 1344TIP3    H1 3917   0.848   5.002   2.035
 1344TIP3    H2 3918   0.710   4.960   2.071
 1345TIP3   OH2 3919   1.234   4.434   1.250
 1345TIP3    H1 3920   1.288   4.374   1.196
 1345TIP3    H2 3921   1.236   4.389   1.337
 1346TIP3   OH2 3922   1.208   4.328   1.526
 1346TIP3    H1 3923   1.118   4.359   1.549
 1346TIP3    H2 3924   1.265   4.382   1.584
 1347TIP3   OH2 3925   0.954   4.703   0.647
 1347TIP3    H1 3926   0.886   4.635   0.648
 1347TIP3    H2 3927   0.936   4.752   0.731
 1348TIP3   OH2 3928   1.843   4.950   1.258
 1348TIP3    H1 3929   1.868   4.999   1.177
 1348TIP3    H2 3930   1.758   4.907   1.233
 1349TIP3   OH2 3931   1.338   5.028   1.626
 1349TIP3    H1 3932   1.369   5.009   1.715
 1349TIP3    H2 3933   1.304   5.119   1.633
 1350TIP3   OH2 3934   1.491   4.323   0.645
 1350TIP3    H1 3935   1.587   4.306   0.646
 1350TIP3    H2 3936   1.464   4.288   0.558
 1351TIP3   OH2 3937   0.635   4.735   1.313
 1351TIP3    H1 3938   0.666   4.709   1.226
 1351TIP3    H2 3939   0.686   4.677   1.372
 1352TIP3   OH2 3940   0.511   4.662   1.922
 1352TIP3    H1 3941   0.534   4.639   2.014
 1352TIP3    H2 3942   0.452   4.588   1.898
 1353TIP3   OH2 3943   1.241   4.770   1.938
 1353TIP3    H1 3944   1.181   4.708   1.893
 1353TIP3    H2 3945   1.328   4.735   1.911
 1354TIP3   OH2 3946   1.502   5.288   1.522
 1354TIP3    H1 3947   1.405   5.289   1.536
 1354TIP3    H2 3948   1.531   5.340   1.600
 1355TIP3   OH2 3949   1.910   4.359   0.431
 1355TIP3    H1 3950   1.849   4.308   0.376
 1355TIP3    H2 3951   1.902   4.447   0.389
 1356TIP3   OH2 3952   2.130   5.220   1.512
 1356TIP3    H1 3953   2.032   5.214   1.505
 1356TIP3    H2 3954   2.155   5.190   1.422
 1357TIP3   OH2 3955   1.608   5.174   0.346
 1357TIP3    H1 3956   1.632   5.091   0.388
 1357TIP3    H2 3957   1.620   5.152   0.251
 1358TIP3   OH2 3958   1.609   4.812   1.172
 1358TIP3    H1 3959   1.517   4.786   1.189
 1358TIP3    H2 3960   1.644   4.731   1.131
 1359TIP3   OH2 3961   0.721   5.049   0.907
 1359TIP3    H1 3962   0.747   5.130   0.952
 1359TIP3    H2 3963   0.639   5.026   0.953
 1360TIP3   OH2 3964   0.881   4.821   0.876
 1360TIP3    H1 3965   0.828   4.903   0.886
 1360TIP3    H2 3966   0.845   4.764   0.947
 1361TIP3   OH2 3967   1.006   5.379   1.403
 1361TIP3    H1 3968   1.041   5.457   1.355
 1361TIP3    H2 3969   1.085   5.349   1.451
 1362TIP3   OH2 3970   1.392   5.016   1.358
 1362TIP3    H1 3971   1.381   5.015   1.456
 1362TIP3    H2 3972   1.476   4.968   1.350
 1363TIP3   OH2 3973   1.349   4.895   0.333
 1363TIP3    H1 3974   1.416   4.875   0.266
 1363TIP3    H2 3975   1.269   4.855   0.293
 1364TIP3   OH2 3976   1.643   5.549   1.408
 1364TIP3    H1 3977   1.562   5.494   1.400
 1364TIP3    H2 3978   1.628   5.615   1.337
 1365TIP3   OH2 3979   1.701   5.393   0.058
 1365TIP3    H1 3980   1.758   5.465   0.027
 1365TIP3    H2 3981   1.614   5.426   0.032
 1366TIP3   OH2 3982   0.725   4.161   1.929
 1366TIP3    H1 3983   0.628   4.158   1.938
 1366TIP3    H2 3984   0.753   4.102   2.001
 1367TIP3   OH2 3985   0.437   5.250   1.571
 1367TIP3    H1 3986   0.492   5.176   1.598
 1367TIP3    H2 3987   0.486   5.326   1.605
 1368TIP3   OH2 3988   1.562   4.227   1.608
 1368TIP3    H1 3989   1.642   4.265   1.646
 1368TIP3    H2 3990   1.549   4.146   1.662
 1369TIP3   OH2 3991   1.219   4.124   0.879
 1369TIP3    H1 3992   1.246   4.215   0.856
 1369TIP3    H2 3993   1.168   4.141   0.960
 1370TIP3   OH2 3994   1.405   4.476   1.682
 1370TIP3    H1 3995   1.426   4.527   1.763
 1370TIP3    H2 3996   1.458   4.396   1.694
 1371TIP3   OH2 3997   1.332   3.901   0.993
 1371TIP3    H1 3998   1.320   3.921   1.086
 1371TIP3    H2 3999   1.325   3.989   0.954
 1372TIP3   OH2 4000   2.039   4.376   1.662
 1372TIP3    H1 4001   1.941   4.373   1.668
 1372TIP3    H2 4002   2.054   4.333   1.577
 1373TIP3   OH2 4003   1.693   4.570   1.051
 1373TIP3    H1 4004   1.618   4.510   1.064
 1373TIP3    H2 4005   1.765   4.523   1.099
 1374TIP3   OH2 4006   1.662   5.521   0.998
 1374TIP3    H1 4007   1.622   5.573   0.925
 1374TIP3    H2 4008   1.757   5.541   0.981
 1375TIP3   OH2 4009   0.437   5.553   1.996
 1375TIP3    H1 4010   0.522   5.562   2.047
 1375TIP3    H2 4011   0.431   5.458   1.987
 1376TIP3   OH2 4012   0.909   5.509   2.037
 1376TIP3    H1 4013   1.005   5.508   2.049
 1376TIP3    H2 4014   0.902   5.471   1.948
 1377TIP3   OH2 4015   1.557   5.422   1.757
 1377TIP3    H1 4016   1.547   5.354   1.827
 1377TIP3    H2 4017   1.633   5.474   1.789
 1378TIP3   OH2 4018   0.555   4.951   2.184
 1378TIP3    H1 4019   0.594   4.864   2.205
 1378TIP3    H2 4020   0.485   4.924   2.121
 1379TIP3   OH2 4021   1.171   5.044   1.956
 1379TIP3    H1 4022   1.134   5.062   1.868
 1379TIP3    H2 4023   1.204   4.952   1.947
 1380TIP3   OH2 4024   1.663   5.053   1.558
 1380TIP3    H1 4025   1.740   5.097   1.517
 1380TIP3    H2 4026   1.595   5.122   1.546
 1381TIP3   OH2 4027   0.686   4.700   2.161
 1381TIP3    H1 4028   0.754   4.635   2.138
 1381TIP3    H2 4029   0.713   4.724   2.252
 1382TIP3   OH2 4030   1.022   4.583   1.830
 1382TIP3    H1 4031   0.942   4.638   1.825
 1382TIP3    H2 4032   1.070   4.611   1.748
 1383TIP3   OH2 4033   1.536   4.980   1.958
 1383TIP3    H1 4034   1.618   4.958   1.913
 1383TIP3    H2 4035   1.532   4.914   2.029
 1384TIP3   OH2 4036   1.681   4.649   0.065
 1384TIP3    H1 4037   1.649   4.633  -0.025
 1384TIP3    H2 4038   1.665   4.743   0.074
 1385TIP3   OH2 4039   1.141   4.366   1.952
 1385TIP3    H1 4040   1.140   4.286   1.894
 1385TIP3    H2 4041   1.099   4.432   1.894
 1386TIP3   OH2 4042   1.139   4.157   1.758
 1386TIP3    H1 4043   1.168   4.188   1.670
 1386TIP3    H2 4044   1.048   4.127   1.740
 1387TIP3   OH2 4045   1.170   4.686   1.628
 1387TIP3    H1 4046   1.256   4.694   1.585
 1387TIP3    H2 4047   1.118   4.756   1.585
 1388TIP3   OH2 4048   1.756   4.656   2.013
 1388TIP3    H1 4049   1.802   4.571   2.023
 1388TIP3    H2 4050   1.827   4.713   1.982
 1389TIP3   OH2 4051   1.794   4.909   1.747
 1389TIP3    H1 4052   1.737   4.962   1.687
 1389TIP3    H2 4053   1.882   4.928   1.708
 1390TIP3   OH2 4054   1.019   4.479   2.180
 1390TIP3    H1 4055   0.950   4.411   2.196
 1390TIP3    H2 4056   1.054   4.453   2.093
 1391TIP3   OH2 4057   1.283   3.927   1.827
 1391TIP3    H1 4058   1.230   4.006   1.803
 1391TIP3    H2 4059   1.215   3.856   1.815
 1392TIP3   OH2 4060   1.402   4.422   2.042
 1392TIP3    H1 4061   1.391   4.409   2.137
 1392TIP3    H2 4062   1.312   4.396   2.011
 1393TIP3   OH2 4063   1.640   4.372   1.895
 1393TIP3    H1 4064   1.566   4.371   1.958
 1393TIP3    H2 4065   1.715   4.341   1.951
 1394TIP3   OH2 4066   1.858   4.309   2.048
 1394TIP3    H1 4067   1.880   4.215   2.065
 1394TIP3    H2 4068   1.865   4.349   2.137
 1395TIP3   OH2 4069   0.858   4.260   2.234
 1395TIP3    H1 4070   0.864   4.169   2.199
 1395TIP3    H2 4071   0.894   4.247   2.324
 1396TIP3   OH2 4072   1.371   3.925   2.086
 1396TIP3    H1 4073   1.437   3.853   2.076
 1396TIP3    H2 4074   1.332   3.924   1.996
 1397TIP3   OH2 4075   1.437   4.141   2.243
 1397TIP3    H1 4076   1.415   4.070   2.179
 1397TIP3    H2 4077   1.359   4.200   2.235
 1398TIP3   OH2 4078   1.913   5.617   0.959
 1398TIP3    H1 4079   1.939   5.647   1.047
 1398TIP3    H2 4080   1.977   5.663   0.902
 1399TIP3   OH2 4081   1.945   5.635   1.239
 1399TIP3    H1 4082   1.901   5.547   1.237
 1399TIP3    H2 4083   2.019   5.615   1.298
 1400TIP3   OH2 4084   1.988   5.315   1.810
 1400TIP3    H1 4085   1.917   5.321   1.877
 1400TIP3    H2 4086   2.031   5.402   1.817
 1401TIP3   OH2 4087   1.819   4.822   0.421
 1401TIP3    H1 4088   1.889   4.887   0.402
 1401TIP3    H2 4089   1.849   4.787   0.508
 1402TIP3   OH2 4090   1.934   4.694   0.637
 1402TIP3    H1 4091   1.869   4.650   0.696
 1402TIP3    H2 4092   1.999   4.730   0.700
 1403TIP3   OH2 4093   1.985   5.084   1.065
 1403TIP3    H1 4094   2.043   5.020   1.020
 1403TIP3    H2 4095   1.983   5.159   1.002
 1404TIP3   OH2 4096   1.819   5.385   1.262
 1404TIP3    H1 4097   1.749   5.427   1.316
 1404TIP3    H2 4098   1.768   5.337   1.194
 1405TIP3   OH2 4099   1.862   4.591   0.281
 1405TIP3    H1 4100   1.795   4.605   0.211
 1405TIP3    H2 4101   1.844   4.670   0.338
 1406TIP3   OH2 4102   1.754   4.547   0.784
 1406TIP3    H1 4103   1.754   4.450   0.779
 1406TIP3    H2 4104   1.736   4.562   0.880
 1407TIP3   OH2 4105   0.379   4.625   1.528
 1407TIP3    H1 4106   0.387   4.590   1.438
 1407TIP3    H2 4107   0.474   4.629   1.553
 1408TIP3   OH2 4108   2.037   4.974   1.639
 1408TIP3    H1 4109   2.109   4.907   1.632
 1408TIP3    H2 4110   2.069   5.044   1.579
 1409TIP3   OH2 4111   2.224   4.782   1.655
 1409TIP3    H1 4112   2.150   4.729   1.693
 1409TIP3    H2 4113   2.298   4.719   1.670
 1410TIP3   OH2 4114   1.757   4.261   0.676
 1410TIP3    H1 4115   1.795   4.172   0.696
 1410TIP3    H2 4116   1.822   4.294   0.612
 1411TIP3   OH2 4117   1.906   4.440   1.172
 1411TIP3    H1 4118   1.992   4.466   1.132
 1411TIP3    H2 4119   1.919   4.476   1.262
 1412TIP3   OH2 4120   1.974   4.583   1.404
 1412TIP3    H1 4121   1.897   4.617   1.454
 1412TIP3    H2 4122   2.008   4.664   1.361
 1413TIP3   OH2 4123   0.591   4.313   2.205
 1413TIP3    H1 4124   0.689   4.306   2.207
 1413TIP3    H2 4125   0.568   4.227   2.245
 1414TIP3   OH2 4126   2.410   4.140   1.960
 1414TIP3    H1 4127   2.482   4.106   1.903
 1414TIP3    H2 4128   2.408   4.235   1.937
 1415TIP3   OH2 4129   1.855   4.004   0.714
 1415TIP3    H1 4130   1.906   4.007   0.798
 1415TIP3    H2 4131   1.819   3.915   0.720
 1416TIP3   OH2 4132   0.434   4.311   1.641
 1416TIP3    H1 4133   0.392   4.241   1.589
 1416TIP3    H2 4134   0.390   4.389   1.607
 1417TIP3   OH2 4135   2.303   4.322   1.764
 1417TIP3    H1 4136   2.223   4.358   1.805
 1417TIP3    H2 4137   2.267   4.244   1.718
 1418TIP3   OH2 4138   1.999   3.938   0.345
 1418TIP3    H1 4139   2.034   3.892   0.267
 1418TIP3    H2 4140   2.054   4.019   0.345
 1419TIP3   OH2 4141   1.517   5.476   0.628
 1419TIP3    H1 4142   1.563   5.473   0.542
 1419TIP3    H2 4143   1.561   5.550   0.673
 1420TIP3   OH2 4144   0.553   3.880   1.921
 1420TIP3    H1 4145   0.514   3.851   2.005
 1420TIP3    H2 4146   0.491   3.951   1.896
 1421TIP3   OH2 4147   0.778   5.317   1.545
 1421TIP3    H1 4148   0.734   5.395   1.504
 1421TIP3    H2 4149   0.865   5.328   1.501
 1422TIP3   OH2 4150   1.234   5.550   1.680
 1422TIP3    H1 4151   1.267   5.561   1.772
 1422TIP3    H2 4152   1.295   5.609   1.631
 1423TIP3   OH2 4153   1.405   5.715   1.544
 1423TIP3    H1 4154   1.479   5.664   1.508
 1423TIP3    H2 4155   1.452   5.774   1.607
 1424TIP3   OH2 4156   2.195   4.080   1.646
 1424TIP3    H1 4157   2.104   4.076   1.611
 1424TIP3    H2 4158   2.224   3.987   1.632
 1425TIP3   OH2 4159   0.465   5.569   1.590
 1425TIP3    H1 4160   0.389   5.619   1.558
 1425TIP3    H2 4161   0.487   5.624   1.668
 1426TIP3   OH2 4162   0.692   5.546   1.426
 1426TIP3    H1 4163   0.609   5.566   1.474
 1426TIP3    H2 4164   0.674   5.582   1.337
 1427TIP3   OH2 4165   1.129   5.581   1.231
 1427TIP3    H1 4166   1.048   5.598   1.177
 1427TIP3    H2 4167   1.139   5.669   1.274
 1428TIP3   OH2 4168   1.394   5.518   1.275
 1428TIP3    H1 4169   1.298   5.536   1.263
 1428TIP3    H2 4170   1.433   5.601   1.242
 1429TIP3   OH2 4171   1.595   5.715   1.194
 1429TIP3    H1 4172   1.580   5.800   1.148
 1429TIP3    H2 4173   1.619   5.656   1.120
 1430TIP3   OH2 4174   0.357   5.356   1.326
 1430TIP3    H1 4175   0.403   5.334   1.409
 1430TIP3    H2 4176   0.424   5.326   1.260
 1431TIP3   OH2 4177   0.551   5.241   1.176
 1431TIP3    H1 4178   0.571   5.160   1.228
 1431TIP3    H2 4179   0.641   5.280   1.168
 1432TIP3   OH2 4180   0.815   5.310   1.180
 1432TIP3    H1 4181   0.859   5.225   1.194
 1432TIP3    H2 4182   0.861   5.367   1.244
 1433TIP3   OH2 4183   1.393   3.994   1.258
 1433TIP3    H1 4184   1.356   3.930   1.323
 1433TIP3    H2 4185   1.469   3.944   1.222
 1434TIP3   OH2 4186   1.930   3.874   1.170
 1434TIP3    H1 4187   1.962   3.929   1.095
 1434TIP3    H2 4188   1.833   3.888   1.165
 1435TIP3   OH2 4189   2.018   3.977   0.930
 1435TIP3    H1 4190   2.092   3.924   0.893
 1435TIP3    H2 4191   2.054   4.068   0.920
 1436TIP3   OH2 4192   1.650   3.885   1.148
 1436TIP3    H1 4193   1.631   3.848   1.061
 1436TIP3    H2 4194   1.636   3.805   1.205
 1437TIP3   OH2 4195   1.638   5.445   0.380
 1437TIP3    H1 4196   1.628   5.347   0.380
 1437TIP3    H2 4197   1.611   5.464   0.289
 1438TIP3   OH2 4198   0.857   3.984   2.173
 1438TIP3    H1 4199   0.824   3.910   2.227
 1438TIP3    H2 4200   0.951   3.983   2.199
 1439TIP3   OH2 4201   1.107   3.980   2.290
 1439TIP3    H1 4202   1.191   3.953   2.248
 1439TIP3    H2 4203   1.095   3.908   2.356
 1440TIP3   OH2 4204   1.932   4.041   2.078
 1440TIP3    H1 4205   1.953   4.013   2.170
 1440TIP3    H2 4206   2.021   4.038   2.035
 1441TIP3   OH2 4207   1.872   5.593   1.569
 1441TIP3    H1 4208   1.792   5.561   1.522
 1441TIP3    H2 4209   1.852   5.689   1.575
 1442TIP3   OH2 4210   3.139   4.966   0.334
 1442TIP3    H1 4211   3.110   5.057   0.316
 1442TIP3    H2 4212   3.061   4.916   0.306
 1443TIP3   OH2 4213   3.136   4.964   0.718
 1443TIP3    H1 4214   3.169   4.938   0.806
 1443TIP3    H2 4215   3.094   4.882   0.687
 1444TIP3   OH2 4216   2.435   4.859   1.082
 1444TIP3    H1 4217   2.464   4.791   1.146
 1444TIP3    H2 4218   2.511   4.918   1.084
 1445TIP3   OH2 4219   3.380   5.268   0.398
 1445TIP3    H1 4220   3.365   5.199   0.464
 1445TIP3    H2 4221   3.409   5.343   0.453
 1446TIP3   OH2 4222   2.406   5.269   0.806
 1446TIP3    H1 4223   2.398   5.171   0.809
 1446TIP3    H2 4224   2.503   5.279   0.804
 1447TIP3   OH2 4225   2.116   4.476   0.589
 1447TIP3    H1 4226   2.069   4.559   0.607
 1447TIP3    H2 4227   2.042   4.419   0.563
 1448TIP3   OH2 4228   2.172   4.760   0.764
 1448TIP3    H1 4229   2.221   4.683   0.802
 1448TIP3    H2 4230   2.235   4.792   0.698
 1449TIP3   OH2 4231   3.028   5.729   0.414
 1449TIP3    H1 4232   3.074   5.657   0.366
 1449TIP3    H2 4233   3.021   5.693   0.503
 1450TIP3   OH2 4234   2.935   5.191   0.765
 1450TIP3    H1 4235   2.974   5.114   0.721
 1450TIP3    H2 4236   3.019   5.237   0.790
 1451TIP3   OH2 4237   3.948   4.512   0.763
 1451TIP3    H1 4238   3.977   4.594   0.807
 1451TIP3    H2 4239   3.969   4.532   0.671
 1452TIP3   OH2 4240   3.349   4.693   0.797
 1452TIP3    H1 4241   3.390   4.608   0.819
 1452TIP3    H2 4242   3.317   4.676   0.707
 1453TIP3   OH2 4243   2.686   4.351   0.763
 1453TIP3    H1 4244   2.665   4.424   0.701
 1453TIP3    H2 4245   2.637   4.278   0.720
 1454TIP3   OH2 4246   3.379   4.443   0.385
 1454TIP3    H1 4247   3.451   4.425   0.451
 1454TIP3    H2 4248   3.432   4.477   0.312
 1455TIP3   OH2 4249   2.320   4.555   0.869
 1455TIP3    H1 4250   2.401   4.535   0.919
 1455TIP3    H2 4251   2.333   4.497   0.791
 1456TIP3   OH2 4252   2.761   4.752   0.661
 1456TIP3    H1 4253   2.854   4.726   0.676
 1456TIP3    H2 4254   2.721   4.667   0.632
 1457TIP3   OH2 4255   4.022   4.720   0.932
 1457TIP3    H1 4256   3.938   4.766   0.913
 1457TIP3    H2 4257   4.032   4.740   1.026
 1458TIP3   OH2 4258   2.682   4.334   1.197
 1458TIP3    H1 4259   2.621   4.372   1.131
 1458TIP3    H2 4260   2.630   4.350   1.279
 1459TIP3   OH2 4261   3.032   5.190   0.205
 1459TIP3    H1 4262   2.984   5.169   0.123
 1459TIP3    H2 4263   2.986   5.272   0.232
 1460TIP3   OH2 4264   2.788   5.110   0.992
 1460TIP3    H1 4265   2.726   5.175   1.031
 1460TIP3    H2 4266   2.830   5.163   0.921
 1461TIP3   OH2 4267   3.590   4.445   0.557
 1461TIP3    H1 4268   3.577   4.397   0.640
 1461TIP3    H2 4269   3.642   4.522   0.586
 1462TIP3   OH2 4270   2.552   4.451   0.982
 1462TIP3    H1 4271   2.615   4.523   1.006
 1462TIP3    H2 4272   2.602   4.410   0.908
 1463TIP3   OH2 4273   2.616   5.304   1.090
 1463TIP3    H1 4274   2.590   5.391   1.054
 1463TIP3    H2 4275   2.537   5.287   1.147
 1464TIP3   OH2 4276   2.016   4.997   0.330
 1464TIP3    H1 4277   1.975   5.021   0.244
 1464TIP3    H2 4278   2.046   5.084   0.364
 1465TIP3   OH2 4279   3.450   5.509   0.566
 1465TIP3    H1 4280   3.361   5.501   0.606
 1465TIP3    H2 4281   3.442   5.596   0.522
 1466TIP3   OH2 4282   3.741   4.412   0.930
 1466TIP3    H1 4283   3.653   4.440   0.900
 1466TIP3    H2 4284   3.800   4.443   0.858
 1467TIP3   OH2 4285   3.038   4.054   0.911
 1467TIP3    H1 4286   3.025   3.959   0.930
 1467TIP3    H2 4287   2.960   4.092   0.959
 1468TIP3   OH2 4288   3.151   5.554   0.239
 1468TIP3    H1 4289   3.202   5.472   0.221
 1468TIP3    H2 4290   3.216   5.619   0.202
 1469TIP3   OH2 4291   3.299   5.340   0.144
 1469TIP3    H1 4292   3.252   5.262   0.112
 1469TIP3    H2 4293   3.334   5.308   0.230
 1470TIP3   OH2 4294   3.677   5.423   0.910
 1470TIP3    H1 4295   3.665   5.345   0.852
 1470TIP3    H2 4296   3.659   5.497   0.849
 1471TIP3   OH2 4297   2.967   4.816   0.168
 1471TIP3    H1 4298   2.888   4.869   0.146
 1471TIP3    H2 4299   3.013   4.812   0.083
 1472TIP3   OH2 4300   2.919   4.591  -0.100
 1472TIP3    H1 4301   2.991   4.648  -0.069
 1472TIP3    H2 4302   2.968   4.515  -0.134
 1473TIP3   OH2 4303   3.872   5.061   0.755
 1473TIP3    H1 4304   3.788   5.112   0.761
 1473TIP3    H2 4305   3.901   5.085   0.664
 1474TIP3   OH2 4306   3.316   4.897   0.138
 1474TIP3    H1 4307   3.260   4.922   0.216
 1474TIP3    H2 4308   3.399   4.871   0.184
 1475TIP3   OH2 4309   3.550   4.939   1.051
 1475TIP3    H1 4310   3.547   5.022   1.102
 1475TIP3    H2 4311   3.464   4.943   1.006
 1476TIP3   OH2 4312   2.549   4.897   0.555
 1476TIP3    H1 4313   2.509   4.838   0.487
 1476TIP3    H2 4314   2.625   4.844   0.586
 1477TIP3   OH2 4315   2.679   5.310   0.704
 1477TIP3    H1 4316   2.658   5.266   0.620
 1477TIP3    H2 4317   2.768   5.275   0.723
 1478TIP3   OH2 4318   2.685   4.868   0.909
 1478TIP3    H1 4319   2.719   4.847   0.820
 1478TIP3    H2 4320   2.728   4.954   0.930
 1479TIP3   OH2 4321   3.210   5.506   0.687
 1479TIP3    H1 4322   3.196   5.585   0.741
 1479TIP3    H2 4323   3.194   5.433   0.750
 1480TIP3   OH2 4324   2.821   5.426   1.233
 1480TIP3    H1 4325   2.762   5.487   1.280
 1480TIP3    H2 4326   2.756   5.371   1.185
 1481TIP3   OH2 4327   3.153   4.756  -0.035
 1481TIP3    H1 4328   3.212   4.816   0.016
 1481TIP3    H2 4329   3.180   4.778  -0.128
 1482TIP3   OH2 4330   2.575   4.984   1.330
 1482TIP3    H1 4331   2.581   5.068   1.380
 1482TIP3    H2 4332   2.481   4.961   1.347
 1483TIP3   OH2 4333   2.899   5.435   0.245
 1483TIP3    H1 4334   2.977   5.491   0.259
 1483TIP3    H2 4335   2.838   5.494   0.198
 1484TIP3   OH2 4336   2.616   5.594   1.321
 1484TIP3    H1 4337   2.580   5.592   1.231
 1484TIP3    H2 4338   2.536   5.572   1.375
 1485TIP3   OH2 4339   3.675   4.002   0.013
 1485TIP3    H1 4340   3.592   4.015   0.062
 1485TIP3    H2 4341   3.681   4.085  -0.038
 1486TIP3   OH2 4342   2.418   4.739   0.354
 1486TIP3    H1 4343   2.347   4.783   0.302
 1486TIP3    H2 4344   2.375   4.656   0.378
 1487TIP3   OH2 4345   2.195   5.123   1.268
 1487TIP3    H1 4346   2.131   5.097   1.200
 1487TIP3    H2 4347   2.234   5.037   1.295
 1488TIP3   OH2 4348   2.049   5.318   0.898
 1488TIP3    H1 4349   2.145   5.309   0.892
 1488TIP3    H2 4350   2.040   5.395   0.956
 1489TIP3   OH2 4351   3.914   5.768   0.956
 1489TIP3    H1 4352   3.912   5.671   0.970
 1489TIP3    H2 4353   3.831   5.793   1.002
 1490TIP3   OH2 4354   3.019   5.554   1.090
 1490TIP3    H1 4355   3.018   5.646   1.124
 1490TIP3    H2 4356   2.948   5.514   1.145
 1491TIP3   OH2 4357   2.781   5.683   0.040
 1491TIP3    H1 4358   2.735   5.666  -0.044
 1491TIP3    H2 4359   2.752   5.773   0.063
 1492TIP3   OH2 4360   2.217   5.533   0.428
 1492TIP3    H1 4361   2.267   5.524   0.512
 1492TIP3    H2 4362   2.163   5.452   0.431
 1493TIP3   OH2 4363   2.976   5.595  -0.302
 1493TIP3    H1 4364   3.020   5.520  -0.342
 1493TIP3    H2 4365   3.010   5.592  -0.210
 1494TIP3   OH2 4366   3.035   5.621  -0.036
 1494TIP3    H1 4367   2.943   5.634  -0.002
 1494TIP3    H2 4368   3.078   5.584   0.043
 1495TIP3   OH2 4369   3.805   4.900   1.229
 1495TIP3    H1 4370   3.721   4.911   1.182
 1495TIP3    H2 4371   3.819   4.804   1.221
 1496TIP3   OH2 4372   2.399   5.307   1.256
 1496TIP3    H1 4373   2.450   5.290   1.338
 1496TIP3    H2 4374   2.326   5.243   1.265
 1497TIP3   OH2 4375   2.799   4.130   1.040
 1497TIP3    H1 4376   2.710   4.099   1.014
 1497TIP3    H2 4377   2.774   4.212   1.088
 1498TIP3   OH2 4378   3.333   4.245   1.235
 1498TIP3    H1 4379   3.402   4.218   1.299
 1498TIP3    H2 4380   3.250   4.225   1.282
 1499TIP3   OH2 4381   3.574   4.676   1.155
 1499TIP3    H1 4382   3.524   4.670   1.239
 1499TIP3    H2 4383   3.547   4.762   1.120
 1500TIP3   OH2 4384   3.232   4.802  -0.291
 1500TIP3    H1 4385   3.198   4.805  -0.381
 1500TIP3    H2 4386   3.315   4.854  -0.302
 1501TIP3   OH2 4387   2.956   4.200   0.017
 1501TIP3    H1 4388   2.920   4.189   0.107
 1501TIP3    H2 4389   2.920   4.122  -0.027
 1502TIP3   OH2 4390   2.730   4.646   1.059
 1502TIP3    H1 4391   2.681   4.667   1.141
 1502TIP3    H2 4392   2.714   4.727   1.006
 1503TIP3   OH2 4393   2.614   4.533   0.574
 1503TIP3    H1 4394   2.522   4.504   0.592
 1503TIP3    H2 4395   2.628   4.490   0.486
 1504TIP3   OH2 4396   3.106   4.617   0.302
 1504TIP3    H1 4397   3.053   4.688   0.259
 1504TIP3    H2 4398   3.160   4.584   0.227
 1505TIP3   OH2 4399   3.280   4.896   1.387
 1505TIP3    H1 4400   3.257   4.823   1.449
 1505TIP3    H2 4401   3.374   4.909   1.409
 1506TIP3   OH2 4402   3.263   4.646   0.539
 1506TIP3    H1 4403   3.202   4.674   0.469
 1506TIP3    H2 4404   3.296   4.564   0.497
 1507TIP3   OH2 4405   2.549   4.674   1.269
 1507TIP3    H1 4406   2.577   4.735   1.338
 1507TIP3    H2 4407   2.538   4.591   1.319
 1508TIP3   OH2 4408   2.590   4.129  -0.022
 1508TIP3    H1 4409   2.604   4.133   0.074
 1508TIP3    H2 4410   2.520   4.193  -0.033
 1509TIP3   OH2 4411   2.140   4.204   0.850
 1509TIP3    H1 4412   2.218   4.230   0.902
 1509TIP3    H2 4413   2.177   4.166   0.769
 1510TIP3   OH2 4414   2.125   4.185   0.366
 1510TIP3    H1 4415   2.175   4.221   0.290
 1510TIP3    H2 4416   2.070   4.262   0.389
 1511TIP3   OH2 4417   3.273   4.893   0.962
 1511TIP3    H1 4418   3.306   4.820   0.904
 1511TIP3    H2 4419   3.244   4.840   1.039
 1512TIP3   OH2 4420   2.942   4.356   0.634
 1512TIP3    H1 4421   2.860   4.353   0.688
 1512TIP3    H2 4422   3.011   4.351   0.702
 1513TIP3   OH2 4423   2.378   4.409   0.641
 1513TIP3    H1 4424   2.283   4.416   0.615
 1513TIP3    H2 4425   2.400   4.316   0.622
 1514TIP3   OH2 4426   2.648   4.405   0.335
 1514TIP3    H1 4427   2.742   4.419   0.316
 1514TIP3    H2 4428   2.603   4.426   0.250
 1515TIP3   OH2 4429   3.434   4.430   0.835
 1515TIP3    H1 4430   3.402   4.442   0.927
 1515TIP3    H2 4431   3.367   4.368   0.800
 1516TIP3   OH2 4432   2.491   4.432   0.114
 1516TIP3    H1 4433   2.397   4.416   0.097
 1516TIP3    H2 4434   2.524   4.475   0.033
 1517TIP3   OH2 4435   3.604   6.118   1.055
 1517TIP3    H1 4436   3.602   6.142   0.961
 1517TIP3    H2 4437   3.682   6.168   1.086
 1518TIP3   OH2 4438   2.562   5.231   1.476
 1518TIP3    H1 4439   2.641   5.259   1.525
 1518TIP3    H2 4440   2.497   5.224   1.549
 1519TIP3   OH2 4441   3.025   4.683   0.732
 1519TIP3    H1 4442   3.097   4.641   0.684
 1519TIP3    H2 4443   3.031   4.641   0.820
 1520TIP3   OH2 4444   2.547   4.169   0.611
 1520TIP3    H1 4445   2.511   4.091   0.659
 1520TIP3    H2 4446   2.601   4.127   0.542
 1521TIP3   OH2 4447   3.002   4.581   1.019
 1521TIP3    H1 4448   2.912   4.616   1.036
 1521TIP3    H2 4449   3.059   4.640   1.072
 1522TIP3   OH2 4450   2.739   4.970   0.115
 1522TIP3    H1 4451   2.665   4.906   0.105
 1522TIP3    H2 4452   2.722   5.005   0.206
 1523TIP3   OH2 4453   3.639   5.206   0.746
 1523TIP3    H1 4454   3.662   5.255   0.665
 1523TIP3    H2 4455   3.554   5.164   0.721
 1524TIP3   OH2 4456   3.213   4.282  -0.032
 1524TIP3    H1 4457   3.118   4.257  -0.025
 1524TIP3    H2 4458   3.214   4.375  -0.004
 1525TIP3   OH2 4459   3.140   5.289   1.113
 1525TIP3    H1 4460   3.160   5.264   1.204
 1525TIP3    H2 4461   3.099   5.376   1.123
 1526TIP3   OH2 4462   3.265   4.529   0.084
 1526TIP3    H1 4463   3.361   4.532   0.100
 1526TIP3    H2 4464   3.249   4.609   0.031
 1527TIP3   OH2 4465   2.430   4.990   0.792
 1527TIP3    H1 4466   2.470   4.961   0.708
 1527TIP3    H2 4467   2.471   4.931   0.856
 1528TIP3   OH2 4468   2.883   5.120  -0.069
 1528TIP3    H1 4469   2.840   5.208  -0.056
 1528TIP3    H2 4470   2.831   5.065  -0.007
 1529TIP3   OH2 4471   2.312   4.913   1.406
 1529TIP3    H1 4472   2.336   4.901   1.500
 1529TIP3    H2 4473   2.245   4.844   1.394
 1530TIP3   OH2 4474   3.037   5.028   1.423
 1530TIP3    H1 4475   2.977   4.965   1.380
 1530TIP3    H2 4476   3.125   4.992   1.396
 1531TIP3   OH2 4477   3.298   5.549   1.008
 1531TIP3    H1 4478   3.202   5.545   1.022
 1531TIP3    H2 4479   3.326   5.600   1.087
 1532TIP3   OH2 4480   3.707   4.615  -0.077
 1532TIP3    H1 4481   3.650   4.573  -0.145
 1532TIP3    H2 4482   3.705   4.706  -0.114
 1533TIP3   OH2 4483   3.927   5.478   0.999
 1533TIP3    H1 4484   3.829   5.472   0.991
 1533TIP3    H2 4485   3.953   5.447   0.909
 1534TIP3   OH2 4486   3.415   5.433  -0.184
 1534TIP3    H1 4487   3.380   5.384  -0.108
 1534TIP3    H2 4488   3.401   5.372  -0.257
 1535TIP3   OH2 4489   3.404   5.068   0.663
 1535TIP3    H1 4490   3.311   5.043   0.678
 1535TIP3    H2 4491   3.438   4.988   0.619
 1536TIP3   OH2 4492   2.532   5.294   0.415
 1536TIP3    H1 4493   2.532   5.376   0.362
 1536TIP3    H2 4494   2.438   5.281   0.429
 1537TIP3   OH2 4495   2.095   4.602   0.123
 1537TIP3    H1 4496   2.140   4.686   0.142
 1537TIP3    H2 4497   2.017   4.607   0.182
 1538TIP3   OH2 4498   2.670   5.060   0.359
 1538TIP3    H1 4499   2.635   5.150   0.378
 1538TIP3    H2 4500   2.635   5.010   0.435
 1539TIP3   OH2 4501   2.801   5.639   0.886
 1539TIP3    H1 4502   2.843   5.712   0.836
 1539TIP3    H2 4503   2.877   5.604   0.935
 1540TIP3   OH2 4504   2.451   5.535   0.269
 1540TIP3    H1 4505   2.365   5.544   0.316
 1540TIP3    H2 4506   2.484   5.627   0.272
 1541TIP3   OH2 4507   3.189   5.273   0.845
 1541TIP3    H1 4508   3.179   5.272   0.943
 1541TIP3    H2 4509   3.269   5.220   0.834
 1542TIP3   OH2 4510   3.154   5.137  -0.268
 1542TIP3    H1 4511   3.214   5.125  -0.191
 1542TIP3    H2 4512   3.068   5.145  -0.223
 1543TIP3   OH2 4513   3.438   5.807   0.896
 1543TIP3    H1 4514   3.359   5.749   0.890
 1543TIP3    H2 4515   3.421   5.871   0.823
 1544TIP3   OH2 4516   2.524   4.415   1.412
 1544TIP3    H1 4517   2.429   4.425   1.433
 1544TIP3    H2 4518   2.555   4.364   1.489
 1545TIP3   OH2 4519   3.324   5.099  -0.053
 1545TIP3    H1 4520   3.314   5.033   0.019
 1545TIP3    H2 4521   3.421   5.098  -0.064
 1546TIP3   OH2 4522   2.239   5.500   1.045
 1546TIP3    H1 4523   2.293   5.427   1.080
 1546TIP3    H2 4524   2.264   5.571   1.105
 1547TIP3   OH2 4525   2.523   5.145  -0.277
 1547TIP3    H1 4526   2.591   5.080  -0.295
 1547TIP3    H2 4527   2.505   5.135  -0.181
 1548TIP3   OH2 4528   2.478   5.151   0.002
 1548TIP3    H1 4529   2.549   5.128   0.063
 1548TIP3    H2 4530   2.480   5.249   0.006
 1549TIP3   OH2 4531   2.210   4.846   0.204
 1549TIP3    H1 4532   2.146   4.893   0.262
 1549TIP3    H2 4533   2.227   4.915   0.137
 1550TIP3   OH2 4534   3.362   4.480   1.094
 1550TIP3    H1 4535   3.439   4.519   1.137
 1550TIP3    H2 4536   3.346   4.400   1.148
 1551TIP3   OH2 4537   3.234   4.236   0.257
 1551TIP3    H1 4538   3.228   4.256   0.162
 1551TIP3    H2 4539   3.276   4.317   0.293
 1552TIP3   OH2 4540   2.746   5.349  -0.040
 1552TIP3    H1 4541   2.660   5.384  -0.009
 1552TIP3    H2 4542   2.743   5.372  -0.134
 1553TIP3   OH2 4543   2.927   4.413   0.362
 1553TIP3    H1 4544   2.993   4.483   0.345
 1553TIP3    H2 4545   2.933   4.404   0.460
 1554TIP3   OH2 4546   3.200   4.732   1.170
 1554TIP3    H1 4547   3.218   4.786   1.249
 1554TIP3    H2 4548   3.253   4.652   1.186
 1555TIP3   OH2 4549   3.074   4.139   0.464
 1555TIP3    H1 4550   3.071   4.214   0.526
 1555TIP3    H2 4551   3.133   4.175   0.394
 1556TIP3   OH2 4552   2.483   5.422   0.019
 1556TIP3    H1 4553   2.458   5.493  -0.044
 1556TIP3    H2 4554   2.469   5.466   0.105
 1557TIP3   OH2 4555   2.590   4.139   0.255
 1557TIP3    H1 4556   2.584   4.228   0.295
 1557TIP3    H2 4557   2.686   4.122   0.268
 1558TIP3   OH2 4558   3.840   4.632   1.148
 1558TIP3    H1 4559   3.742   4.631   1.160
 1558TIP3    H2 4560   3.846   4.585   1.064
 1559TIP3   OH2 4561   3.490   4.826   0.538
 1559TIP3    H1 4562   3.414   4.766   0.551
 1559TIP3    H2 4563   3.561   4.779   0.586
 1560TIP3   OH2 4564   2.204   5.063   0.012
 1560TIP3    H1 4565   2.278   5.125   0.021
 1560TIP3    H2 4566   2.246   5.000  -0.052
 1561TIP3   OH2 4567   2.170   4.341   0.133
 1561TIP3    H1 4568   2.146   4.437   0.126
 1561TIP3    H2 4569   2.099   4.299   0.083
 1562TIP3   OH2 4570   3.458   5.780   0.490
 1562TIP3    H1 4571   3.414   5.827   0.416
 1562TIP3    H2 4572   3.552   5.800   0.467
 1563TIP3   OH2 4573   2.535   4.050   1.015
 1563TIP3    H1 4574   2.503   4.016   0.929
 1563TIP3    H2 4575   2.524   3.972   1.073
 1564TIP3   OH2 4576   2.078   5.267   0.401
 1564TIP3    H1 4577   2.007   5.299   0.458
 1564TIP3    H2 4578   2.051   5.304   0.315
 1565TIP3   OH2 4579   2.230   5.810   1.467
 1565TIP3    H1 4580   2.316   5.809   1.514
 1565TIP3    H2 4581   2.209   5.715   1.466
 1566TIP3   OH2 4582   2.713   5.776   1.511
 1566TIP3    H1 4583   2.806   5.753   1.519
 1566TIP3    H2 4584   2.685   5.716   1.438
 1567TIP3   OH2 4585   2.712   5.343  -0.315
 1567TIP3    H1 4586   2.632   5.287  -0.311
 1567TIP3    H2 4587   2.743   5.323  -0.404
 1568TIP3   OH2 4588   3.351   5.681   1.245
 1568TIP3    H1 4589   3.342   5.611   1.314
 1568TIP3    H2 4590   3.428   5.731   1.277
 1569TIP3   OH2 4591   2.361   5.218   1.668
 1569TIP3    H1 4592   2.380   5.123   1.677
 1569TIP3    H2 4593   2.274   5.217   1.624
 1570TIP3   OH2 4594   2.343   4.873  -0.120
 1570TIP3    H1 4595   2.409   4.840  -0.057
 1570TIP3    H2 4596   2.389   4.869  -0.205
 1571TIP3   OH2 4597   2.969   5.302   1.441
 1571TIP3    H1 4598   2.926   5.317   1.355
 1571TIP3    H2 4599   2.999   5.209   1.434
 1572TIP3   OH2 4600   2.798   5.032  -0.321
 1572TIP3    H1 4601   2.829   5.086  -0.246
 1572TIP3    H2 4602   2.856   4.956  -0.314
 1573TIP3   OH2 4603   3.461   5.309   1.047
 1573TIP3    H1 4604   3.535   5.355   1.004
 1573TIP3    H2 4605   3.389   5.373   1.035
 1574TIP3   OH2 4606   2.483   4.954   1.648
 1574TIP3    H1 4607   2.539   4.876   1.645
 1574TIP3    H2 4608   2.503   4.984   1.739
 1575TIP3   OH2 4609   2.543   4.772   0.080
 1575TIP3    H1 4610   2.518   4.737   0.168
 1575TIP3    H2 4611   2.580   4.693   0.036
 1576TIP3   OH2 4612   2.815   4.835   1.310
 1576TIP3    H1 4613   2.737   4.894   1.313
 1576TIP3    H2 4614   2.864   4.870   1.233
 1577TIP3   OH2 4615   2.645   4.562  -0.080
 1577TIP3    H1 4616   2.643   4.523  -0.168
 1577TIP3    H2 4617   2.741   4.577  -0.071
 1578TIP3   OH2 4618   3.333   5.238   1.446
 1578TIP3    H1 4619   3.412   5.210   1.398
 1578TIP3    H2 4620   3.327   5.172   1.517
 1579TIP3   OH2 4621   3.473   4.917  -0.369
 1579TIP3    H1 4622   3.487   4.881  -0.459
 1579TIP3    H2 4623   3.477   5.012  -0.390
 1580TIP3   OH2 4624   2.941   4.622   1.434
 1580TIP3    H1 4625   2.938   4.542   1.378
 1580TIP3    H2 4626   2.894   4.688   1.378
 1581TIP3   OH2 4627   2.941   4.408   1.243
 1581TIP3    H1 4628   2.967   4.450   1.159
 1581TIP3    H2 4629   2.847   4.386   1.226
 1582TIP3   OH2 4630   2.968   4.944   1.116
 1582TIP3    H1 4631   3.052   4.954   1.070
 1582TIP3    H2 4632   2.911   5.011   1.072
 1583TIP3   OH2 4633   3.547   4.913   1.494
 1583TIP3    H1 4634   3.593   4.833   1.525
 1583TIP3    H2 4635   3.620   4.967   1.462
 1584TIP3   OH2 4636   3.591   5.166   1.236
 1584TIP3    H1 4637   3.533   5.219   1.176
 1584TIP3    H2 4638   3.679   5.186   1.195
 1585TIP3   OH2 4639   2.825   4.735   1.666
 1585TIP3    H1 4640   2.747   4.680   1.687
 1585TIP3    H2 4641   2.851   4.700   1.579
 1586TIP3   OH2 4642   3.073   4.173   1.311
 1586TIP3    H1 4643   3.024   4.255   1.290
 1586TIP3    H2 4644   3.003   4.105   1.301
 1587TIP3   OH2 4645   3.199   4.679   1.528
 1587TIP3    H1 4646   3.187   4.665   1.624
 1587TIP3    H2 4647   3.109   4.654   1.497
 1588TIP3   OH2 4648   3.437   4.624   1.381
 1588TIP3    H1 4649   3.363   4.628   1.445
 1588TIP3    H2 4650   3.511   4.595   1.438
 1589TIP3   OH2 4651   3.671   4.564   1.527
 1589TIP3    H1 4652   3.681   4.470   1.551
 1589TIP3    H2 4653   3.662   4.608   1.614
 1590TIP3   OH2 4654   2.656   4.514   1.715
 1590TIP3    H1 4655   2.661   4.421   1.688
 1590TIP3    H2 4656   2.685   4.508   1.808
 1591TIP3   OH2 4657   3.167   4.183   1.570
 1591TIP3    H1 4658   3.235   4.113   1.564
 1591TIP3    H2 4659   3.127   4.177   1.481
 1592TIP3   OH2 4660   3.234   4.400   1.729
 1592TIP3    H1 4661   3.212   4.329   1.665
 1592TIP3    H2 4662   3.155   4.458   1.724
 1593TIP3   OH2 4663   2.449   5.621  -0.166
 1593TIP3    H1 4664   2.543   5.623  -0.195
 1593TIP3    H2 4665   2.405   5.663  -0.240
 1594TIP3   OH2 4666   1.939   5.008   0.056
 1594TIP3    H1 4667   2.029   5.042   0.036
 1594TIP3    H2 4668   1.939   4.926   0.005
 1595TIP3   OH2 4669   1.845   5.621   0.458
 1595TIP3    H1 4670   1.780   5.556   0.425
 1595TIP3    H2 4671   1.893   5.567   0.525
 1596TIP3   OH2 4672   1.982   5.474   0.646
 1596TIP3    H1 4673   1.975   5.400   0.709
 1596TIP3    H2 4674   2.035   5.536   0.699
 1597TIP3   OH2 4675   3.710   5.874   0.445
 1597TIP3    H1 4676   3.738   5.906   0.533
 1597TIP3    H2 4677   3.775   5.915   0.386
 1598TIP3   OH2 4678   3.741   5.893   0.727
 1598TIP3    H1 4679   3.696   5.806   0.722
 1598TIP3    H2 4680   3.816   5.869   0.785
 1599TIP3   OH2 4681   3.787   5.569   1.300
 1599TIP3    H1 4682   3.714   5.577   1.364
 1599TIP3    H2 4683   3.828   5.658   1.305
 1600TIP3   OH2 4684   3.604   5.084  -0.072
 1600TIP3    H1 4685   3.681   5.140  -0.095
 1600TIP3    H2 4686   3.638   5.041   0.010
 1601TIP3   OH2 4687   3.729   4.950   0.126
 1601TIP3    H1 4688   3.665   4.906   0.186
 1601TIP3    H2 4689   3.796   4.986   0.187
 1602TIP3   OH2 4690   3.785   5.342   0.556
 1602TIP3    H1 4691   3.839   5.277   0.506
 1602TIP3    H2 4692   3.779   5.416   0.493
 1603TIP3   OH2 4693   3.616   5.643   0.750
 1603TIP3    H1 4694   3.545   5.684   0.802
 1603TIP3    H2 4695   3.566   5.595   0.681
 1604TIP3   OH2 4696   3.676   4.853  -0.206
 1604TIP3    H1 4697   3.597   4.856  -0.266
 1604TIP3    H2 4698   3.655   4.930  -0.151
 1605TIP3   OH2 4699   3.552   4.537  -0.289
 1605TIP3    H1 4700   3.471   4.572  -0.326
 1605TIP3    H2 4701   3.528   4.442  -0.279
 1606TIP3   OH2 4702   3.545   4.805   0.270
 1606TIP3    H1 4703   3.552   4.709   0.265
 1606TIP3    H2 4704   3.531   4.820   0.366
 1607TIP3   OH2 4705   2.171   4.884   1.015
 1607TIP3    H1 4706   2.170   4.850   0.923
 1607TIP3    H2 4707   2.268   4.883   1.034
 1608TIP3   OH2 4708   3.835   5.231   1.127
 1608TIP3    H1 4709   3.907   5.165   1.118
 1608TIP3    H2 4710   3.861   5.300   1.064
 1609TIP3   OH2 4711   4.021   5.037   1.142
 1609TIP3    H1 4712   3.945   4.987   1.181
 1609TIP3    H2 4713   4.092   4.972   1.157
 1610TIP3   OH2 4714   3.481   4.280  -0.261
 1610TIP3    H1 4715   3.565   4.237  -0.236
 1610TIP3    H2 4716   3.415   4.215  -0.232
 1611TIP3   OH2 4717   3.541   4.522   0.164
 1611TIP3    H1 4718   3.580   4.433   0.181
 1611TIP3    H2 4719   3.600   4.553   0.094
 1612TIP3   OH2 4720   3.702   4.696   0.659
 1612TIP3    H1 4721   3.789   4.722   0.620
 1612TIP3    H2 4722   3.715   4.733   0.749
 1613TIP3   OH2 4723   3.771   4.840   0.891
 1613TIP3    H1 4724   3.694   4.873   0.941
 1613TIP3    H2 4725   3.803   4.922   0.847
 1614TIP3   OH2 4726   2.389   4.567   1.678
 1614TIP3    H1 4727   2.486   4.568   1.694
 1614TIP3    H2 4728   2.366   4.484   1.726
 1615TIP3   OH2 4729   4.226   4.434   1.448
 1615TIP3    H1 4730   4.283   4.366   1.405
 1615TIP3    H2 4731   4.196   4.486   1.371
 1616TIP3   OH2 4732   3.651   4.272   0.202
 1616TIP3    H1 4733   3.697   4.256   0.286
 1616TIP3    H2 4734   3.590   4.196   0.200
 1617TIP3   OH2 4735   2.351   4.258   1.020
 1617TIP3    H1 4736   2.413   4.183   1.032
 1617TIP3    H2 4737   2.413   4.333   1.016
 1618TIP3   OH2 4738   2.151   4.532   1.093
 1618TIP3    H1 4739   2.202   4.528   1.010
 1618TIP3    H2 4740   2.184   4.614   1.132
 1619TIP3   OH2 4741   4.095   4.571   1.253
 1619TIP3    H1 4742   4.009   4.612   1.277
 1619TIP3    H2 4743   4.063   4.499   1.195
 1620TIP3   OH2 4744   3.739   4.208  -0.180
 1620TIP3    H1 4745   3.800   4.146  -0.222
 1620TIP3    H2 4746   3.796   4.287  -0.172
 1621TIP3   OH2 4747   2.140   4.055   0.607
 1621TIP3    H1 4748   2.046   4.036   0.621
 1621TIP3    H2 4749   2.140   4.104   0.522
 1622TIP3   OH2 4750   3.309   5.730   0.108
 1622TIP3    H1 4751   3.356   5.725   0.023
 1622TIP3    H2 4752   3.346   5.809   0.148
 1623TIP3   OH2 4753   2.354   4.108   1.408
 1623TIP3    H1 4754   2.308   4.114   1.494
 1623TIP3    H2 4755   2.288   4.152   1.350
 1624TIP3   OH2 4756   2.395   5.546   1.488
 1624TIP3    H1 4757   2.304   5.516   1.470
 1624TIP3    H2 4758   2.407   5.521   1.580
 1625TIP3   OH2 4759   2.574   5.575   1.035
 1625TIP3    H1 4760   2.526   5.651   0.996
 1625TIP3    H2 4761   2.660   5.589   0.991
 1626TIP3   OH2 4762   3.019   5.820   1.173
 1626TIP3    H1 4763   3.061   5.821   1.262
 1626TIP3    H2 4764   3.085   5.871   1.121
 1627TIP3   OH2 4765   3.198   5.972   1.032
 1627TIP3    H1 4766   3.269   5.920   0.991
 1627TIP3    H2 4767   3.250   6.029   1.093
 1628TIP3   OH2 4768   3.993   4.333   1.131
 1628TIP3    H1 4769   3.902   4.326   1.099
 1628TIP3    H2 4770   4.024   4.240   1.121
 1629TIP3   OH2 4771   2.251   5.832   1.058
 1629TIP3    H1 4772   2.161   5.865   1.036
 1629TIP3    H2 4773   2.262   5.869   1.146
 1630TIP3   OH2 4774   2.487   5.811   0.916
 1630TIP3    H1 4775   2.401   5.824   0.961
 1630TIP3    H2 4776   2.467   5.844   0.827
 1631TIP3   OH2 4777   2.913   5.840   0.714
 1631TIP3    H1 4778   2.844   5.860   0.648
 1631TIP3    H2 4779   2.925   5.927   0.757
 1632TIP3   OH2 4780   3.182   5.779   0.765
 1632TIP3    H1 4781   3.087   5.796   0.746
 1632TIP3    H2 4782   3.224   5.856   0.723
 1633TIP3   OH2 4783   3.390   5.972   0.681
 1633TIP3    H1 4784   3.375   6.056   0.633
 1633TIP3    H2 4785   3.415   5.911   0.608
 1634TIP3   OH2 4786   2.162   5.625   0.803
 1634TIP3    H1 4787   2.188   5.600   0.894
 1634TIP3    H2 4788   2.234   5.581   0.753
 1635TIP3   OH2 4789   2.356   5.497   0.660
 1635TIP3    H1 4790   2.371   5.413   0.709
 1635TIP3    H2 4791   2.447   5.534   0.656
 1636TIP3   OH2 4792   2.622   5.592   0.664
 1636TIP3    H1 4793   2.654   5.500   0.653
 1636TIP3    H2 4794   2.666   5.614   0.748
 1637TIP3   OH2 4795   3.195   4.247   0.747
 1637TIP3    H1 4796   3.154   4.179   0.802
 1637TIP3    H2 4797   3.270   4.199   0.707
 1638TIP3   OH2 4798   3.721   4.130   0.656
 1638TIP3    H1 4799   3.756   4.182   0.580
 1638TIP3    H2 4800   3.625   4.147   0.649
 1639TIP3   OH2 4801   3.816   4.230   0.419
 1639TIP3    H1 4802   3.890   4.179   0.380
 1639TIP3    H2 4803   3.849   4.322   0.405
 1640TIP3   OH2 4804   2.446   3.958   0.767
 1640TIP3    H1 4805   2.354   3.926   0.764
 1640TIP3    H2 4806   2.495   3.872   0.763
 1641TIP3   OH2 4807   2.260   3.815   0.421
 1641TIP3    H1 4808   2.288   3.874   0.349
 1641TIP3    H2 4809   2.207   3.874   0.476
 1642TIP3   OH2 4810   2.889   3.991   0.647
 1642TIP3    H1 4811   2.949   4.039   0.588
 1642TIP3    H2 4812   2.912   4.027   0.733
 1643TIP3   OH2 4813   3.438   4.136   0.631
 1643TIP3    H1 4814   3.436   4.097   0.542
 1643TIP3    H2 4815   3.424   4.056   0.687
 1644TIP3   OH2 4816   3.470   4.058   0.195
 1644TIP3    H1 4817   3.380   4.095   0.196
 1644TIP3    H2 4818   3.455   3.973   0.242
 1645TIP3   OH2 4819   1.949   5.383   0.199
 1645TIP3    H1 4820   1.863   5.352   0.167
 1645TIP3    H2 4821   1.946   5.476   0.170
 1646TIP3   OH2 4822   2.352   3.985   0.208
 1646TIP3    H1 4823   2.390   3.910   0.160
 1646TIP3    H2 4824   2.430   4.041   0.224
 1647TIP3   OH2 4825   2.865   4.161   0.277
 1647TIP3    H1 4826   2.925   4.115   0.339
 1647TIP3    H2 4827   2.885   4.254   0.303
 1648TIP3   OH2 4828   2.712   5.605  -0.235
 1648TIP3    H1 4829   2.805   5.620  -0.262
 1648TIP3    H2 4830   2.698   5.519  -0.281
 1649TIP3   OH2 4831   3.440   5.704  -0.140
 1649TIP3    H1 4832   3.434   5.606  -0.150
 1649TIP3    H2 4833   3.363   5.735  -0.189
 1650TIP3   OH2 4834   2.658   4.237   1.650
 1650TIP3    H1 4835   2.619   4.171   1.711
 1650TIP3    H2 4836   2.751   4.238   1.682
 1651TIP3   OH2 4837   2.905   4.231   1.775
 1651TIP3    H1 4838   2.991   4.208   1.737
 1651TIP3    H2 4839   2.894   4.159   1.841
 1652TIP3   OH2 4840   2.032   5.447  -0.146
 1652TIP3    H1 4841   2.016   5.470  -0.053
 1652TIP3    H2 4842   2.113   5.396  -0.143
 1653TIP3   OH2 4843   3.728   4.294   1.565
 1653TIP3    H1 4844   3.746   4.264   1.657
 1653TIP3    H2 4845   3.817   4.290   1.525
 1654TIP3   OH2 4846   3.667   5.849   1.057
 1654TIP3    H1 4847   3.589   5.817   1.009
 1654TIP3    H2 4848   3.647   5.945   1.061
 1655TIP3   OH2 4849   4.916   5.224   0.211
 1655TIP3    H1 4850   4.961   5.198   0.293
 1655TIP3    H2 4851   4.888   5.138   0.175
 1656TIP3   OH2 4852   4.232   5.116   0.570
 1656TIP3    H1 4853   4.263   5.048   0.632
 1656TIP3    H2 4854   4.309   5.174   0.565
 1657TIP3   OH2 4855   4.203   5.526   0.298
 1657TIP3    H1 4856   4.194   5.428   0.298
 1657TIP3    H2 4857   4.299   5.535   0.287
 1658TIP3   OH2 4858   3.912   4.732   0.076
 1658TIP3    H1 4859   3.863   4.814   0.095
 1658TIP3    H2 4860   3.840   4.675   0.044
 1659TIP3   OH2 4861   3.968   5.016   0.249
 1659TIP3    H1 4862   4.017   4.939   0.287
 1659TIP3    H2 4863   4.034   5.051   0.187
 1660TIP3   OH2 4864   4.733   5.446   0.251
 1660TIP3    H1 4865   4.773   5.364   0.217
 1660TIP3    H2 4866   4.816   5.493   0.274
 1661TIP3   OH2 4867   5.747   4.757   0.258
 1661TIP3    H1 4868   5.765   4.841   0.307
 1661TIP3    H2 4869   5.785   4.779   0.171
 1662TIP3   OH2 4870   5.141   4.949   0.294
 1662TIP3    H1 4871   5.184   4.862   0.306
 1662TIP3    H2 4872   5.117   4.946   0.199
 1663TIP3   OH2 4873   4.482   4.608   0.251
 1663TIP3    H1 4874   4.462   4.680   0.187
 1663TIP3    H2 4875   4.434   4.534   0.207
 1664TIP3   OH2 4876   5.125   4.682  -0.058
 1664TIP3    H1 4877   5.191   4.659   0.010
 1664TIP3    H2 4878   5.188   4.683  -0.134
 1665TIP3   OH2 4879   4.115   4.811   0.356
 1665TIP3    H1 4880   4.197   4.791   0.405
 1665TIP3    H2 4881   4.128   4.754   0.277
 1666TIP3   OH2 4882   4.556   5.007   0.149
 1666TIP3    H1 4883   4.649   4.982   0.165
 1666TIP3    H2 4884   4.517   4.922   0.117
 1667TIP3   OH2 4885   5.806   4.968   0.414
 1667TIP3    H1 4886   5.724   5.022   0.412
 1667TIP3    H2 4887   5.853   5.007   0.491
 1668TIP3   OH2 4888   4.478   4.592   0.684
 1668TIP3    H1 4889   4.418   4.629   0.618
 1668TIP3    H2 4890   4.427   4.608   0.766
 1669TIP3   OH2 4891   4.585   5.367   0.479
 1669TIP3    H1 4892   4.522   5.432   0.518
 1669TIP3    H2 4893   4.624   5.419   0.406
 1670TIP3   OH2 4894   5.399   4.709   0.065
 1670TIP3    H1 4895   5.380   4.664   0.148
 1670TIP3    H2 4896   5.437   4.794   0.095
 1671TIP3   OH2 4897   4.349   4.707   0.469
 1671TIP3    H1 4898   4.411   4.779   0.493
 1671TIP3    H2 4899   4.398   4.666   0.394
 1672TIP3   OH2 4900   4.413   5.560   0.579
 1672TIP3    H1 4901   4.386   5.645   0.538
 1672TIP3    H2 4902   4.334   5.545   0.635
 1673TIP3   OH2 4903   3.805   5.250  -0.181
 1673TIP3    H1 4904   3.725   5.280  -0.227
 1673TIP3    H2 4905   3.821   5.322  -0.118
 1674TIP3   OH2 4906   5.223   5.794   0.086
 1674TIP3    H1 4907   5.138   5.755   0.117
 1674TIP3    H2 4908   5.190   5.855   0.019
 1675TIP3   OH2 4909   5.534   4.663   0.416
 1675TIP3    H1 4910   5.447   4.696   0.389
 1675TIP3    H2 4911   5.593   4.697   0.347
 1676TIP3   OH2 4912   4.834   4.309   0.399
 1676TIP3    H1 4913   4.820   4.214   0.418
 1676TIP3    H2 4914   4.757   4.348   0.446
 1677TIP3   OH2 4915   5.473   5.680   0.400
 1677TIP3    H1 4916   5.474   5.603   0.340
 1677TIP3    H2 4917   5.461   5.755   0.339
 1678TIP3   OH2 4918   5.671   5.308   0.270
 1678TIP3    H1 4919   5.590   5.365   0.275
 1678TIP3    H2 4920   5.683   5.305   0.174
 1679TIP3   OH2 4921   5.344   5.195   0.534
 1679TIP3    H1 4922   5.340   5.276   0.588
 1679TIP3    H2 4923   5.259   5.203   0.486
 1680TIP3   OH2 4924   4.345   5.155   0.045
 1680TIP3    H1 4925   4.302   5.095  -0.021
 1680TIP3    H2 4926   4.422   5.101   0.073
 1681TIP3   OH2 4927   4.470   5.565   0.194
 1681TIP3    H1 4928   4.443   5.534   0.106
 1681TIP3    H2 4929   4.559   5.525   0.205
 1682TIP3   OH2 4930   4.481   5.125   0.397
 1682TIP3    H1 4931   4.514   5.103   0.307
 1682TIP3    H2 4932   4.524   5.211   0.416
 1683TIP3   OH2 4933   4.971   5.758   0.183
 1683TIP3    H1 4934   4.973   5.837   0.239
 1683TIP3    H2 4935   4.969   5.685   0.247
 1684TIP3   OH2 4936   4.618   5.681   0.721
 1684TIP3    H1 4937   4.558   5.744   0.767
 1684TIP3    H2 4938   4.553   5.628   0.671
 1685TIP3   OH2 4939   4.372   5.237   0.822
 1685TIP3    H1 4940   4.376   5.324   0.866
 1685TIP3    H2 4941   4.277   5.217   0.833
 1686TIP3   OH2 4942   4.413   5.850   0.808
 1686TIP3    H1 4943   4.377   5.849   0.717
 1686TIP3    H2 4944   4.333   5.828   0.861
 1687TIP3   OH2 4945   4.205   4.992  -0.133
 1687TIP3    H1 4946   4.148   5.035  -0.199
 1687TIP3    H2 4947   4.154   4.915  -0.109
 1688TIP3   OH2 4948   3.991   5.380   0.755
 1688TIP3    H1 4949   3.925   5.358   0.686
 1688TIP3    H2 4950   4.028   5.292   0.779
 1689TIP3   OH2 4951   3.846   5.571   0.388
 1689TIP3    H1 4952   3.942   5.567   0.377
 1689TIP3    H2 4953   3.836   5.651   0.441
 1690TIP3   OH2 4954   5.708   6.020   0.451
 1690TIP3    H1 4955   5.706   5.924   0.467
 1690TIP3    H2 4956   5.624   6.047   0.494
 1691TIP3   OH2 4957   4.816   5.809   0.578
 1691TIP3    H1 4958   4.815   5.902   0.611
 1691TIP3    H2 4959   4.744   5.770   0.632
 1692TIP3   OH2 4960   4.006   5.781  -0.086
 1692TIP3    H1 4961   4.073   5.782  -0.014
 1692TIP3    H2 4962   3.954   5.704  -0.058
 1693TIP3   OH2 4963   5.595   5.159   0.736
 1693TIP3    H1 4964   5.536   5.180   0.663
 1693TIP3    H2 4965   5.626   5.069   0.713
 1694TIP3   OH2 4966   4.196   5.563   0.744
 1694TIP3    H1 4967   4.245   5.546   0.826
 1694TIP3    H2 4968   4.122   5.500   0.751
 1695TIP3   OH2 4969   4.596   4.387   0.526
 1695TIP3    H1 4970   4.507   4.356   0.500
 1695TIP3    H2 4971   4.570   4.468   0.574
 1696TIP3   OH2 4972   5.129   4.502   0.722
 1696TIP3    H1 4973   5.196   4.473   0.787
 1696TIP3    H2 4974   5.045   4.482   0.768
 1697TIP3   OH2 4975   5.368   4.929   0.638
 1697TIP3    H1 4976   5.321   4.928   0.724
 1697TIP3    H2 4977   5.347   5.018   0.604
 1698TIP3   OH2 4978   4.527   4.902   0.546
 1698TIP3    H1 4979   4.476   4.923   0.627
 1698TIP3    H2 4980   4.511   4.983   0.493
 1699TIP3   OH2 4981   4.412   4.784   0.057
 1699TIP3    H1 4982   4.319   4.761   0.078
 1699TIP3    H2 4983   4.420   4.746  -0.033
 1700TIP3   OH2 4984   5.076   5.153   0.875
 1700TIP3    H1 4985   5.054   5.080   0.937
 1700TIP3    H2 4986   5.171   5.165   0.895
 1701TIP3   OH2 4987   5.051   4.932   0.033
 1701TIP3    H1 4988   5.023   4.980  -0.048
 1701TIP3    H2 4989   5.069   4.843  -0.002
 1702TIP3   OH2 4990   4.347   4.931   0.755
 1702TIP3    H1 4991   4.371   4.994   0.823
 1702TIP3    H2 4992   4.334   4.848   0.806
 1703TIP3   OH2 4993   3.939   4.455   0.333
 1703TIP3    H1 4994   4.015   4.484   0.388
 1703TIP3    H2 4995   3.982   4.418   0.254
 1704TIP3   OH2 4996   3.908   4.435  -0.146
 1704TIP3    H1 4997   3.961   4.470  -0.220
 1704TIP3    H2 4998   3.851   4.511  -0.125
 1705TIP3   OH2 4999   5.061   5.151   0.450
 1705TIP3    H1 5000   5.099   5.080   0.393
 1705TIP3    H2 5001   5.035   5.097   0.528
 1706TIP3   OH2 5002   4.741   4.603   0.129
 1706TIP3    H1 5003   4.658   4.605   0.181
 1706TIP3    H2 5004   4.808   4.608   0.199
 1707TIP3   OH2 5005   4.173   4.666   0.128
 1707TIP3    H1 5006   4.078   4.673   0.102
 1707TIP3    H2 5007   4.195   4.574   0.107
 1708TIP3   OH2 5008   4.439   4.667  -0.195
 1708TIP3    H1 5009   4.536   4.673  -0.181
 1708TIP3    H2 5010   4.426   4.723  -0.272
 1709TIP3   OH2 5011   5.230   4.685   0.323
 1709TIP3    H1 5012   5.197   4.699   0.415
 1709TIP3    H2 5013   5.162   4.625   0.289
 1710TIP3   OH2 5014   5.399   6.371   0.575
 1710TIP3    H1 5015   5.391   6.375   0.476
 1710TIP3    H2 5016   5.463   6.442   0.590
 1711TIP3   OH2 5017   4.358   5.485   0.963
 1711TIP3    H1 5018   4.437   5.516   1.012
 1711TIP3    H2 5019   4.293   5.483   1.036
 1712TIP3   OH2 5020   4.818   4.936   0.218
 1712TIP3    H1 5021   4.899   4.912   0.170
 1712TIP3    H2 5022   4.832   4.894   0.305
 1713TIP3   OH2 5023   4.346   4.425   0.097
 1713TIP3    H1 5024   4.309   4.348   0.145
 1713TIP3    H2 5025   4.403   4.383   0.032
 1714TIP3   OH2 5026   4.798   4.834   0.509
 1714TIP3    H1 5027   4.708   4.871   0.522
 1714TIP3    H2 5028   4.855   4.896   0.559
 1715TIP3   OH2 5029   5.442   5.450   0.233
 1715TIP3    H1 5030   5.428   5.525   0.172
 1715TIP3    H2 5031   5.355   5.404   0.228
 1716TIP3   OH2 5032   4.940   5.548   0.600
 1716TIP3    H1 5033   4.954   5.521   0.691
 1716TIP3    H2 5034   4.895   5.634   0.609
 1717TIP3   OH2 5035   4.224   5.245   0.280
 1717TIP3    H1 5036   4.264   5.220   0.194
 1717TIP3    H2 5037   4.269   5.185   0.341
 1718TIP3   OH2 5038   4.108   5.167   0.892
 1718TIP3    H1 5039   4.126   5.154   0.987
 1718TIP3    H2 5040   4.038   5.102   0.876
 1719TIP3   OH2 5041   4.833   5.283   0.912
 1719TIP3    H1 5042   4.772   5.224   0.865
 1719TIP3    H2 5043   4.920   5.248   0.883
 1720TIP3   OH2 5044   5.091   5.809   0.491
 1720TIP3    H1 5045   4.997   5.802   0.511
 1720TIP3    H2 5046   5.123   5.858   0.569
 1721TIP3   OH2 5047   5.721   5.735   0.496
 1721TIP3    H1 5048   5.623   5.727   0.494
 1721TIP3    H2 5049   5.741   5.704   0.405
 1722TIP3   OH2 5050   5.207   5.316   0.200
 1722TIP3    H1 5051   5.112   5.307   0.181
 1722TIP3    H2 5052   5.241   5.244   0.143
 1723TIP3   OH2 5053   4.343   5.562  -0.077
 1723TIP3    H1 5054   4.351   5.653  -0.112
 1723TIP3    H2 5055   4.269   5.529  -0.132
 1724TIP3   OH2 5056   3.879   4.852  -0.390
 1724TIP3    H1 5057   3.920   4.936  -0.362
 1724TIP3    H2 5058   3.801   4.849  -0.330
 1725TIP3   OH2 5059   4.488   5.328  -0.128
 1725TIP3    H1 5060   4.443   5.414  -0.118
 1725TIP3    H2 5061   4.436   5.272  -0.068
 1726TIP3   OH2 5062   4.597   5.896   0.373
 1726TIP3    H1 5063   4.640   5.967   0.321
 1726TIP3    H2 5064   4.673   5.860   0.422
 1727TIP3   OH2 5065   4.991   5.525   0.333
 1727TIP3    H1 5066   4.979   5.526   0.431
 1727TIP3    H2 5067   5.069   5.468   0.324
 1728TIP3   OH2 5068   5.225   6.068   0.395
 1728TIP3    H1 5069   5.145   6.013   0.381
 1728TIP3    H2 5070   5.212   6.137   0.328
 1729TIP3   OH2 5071   4.319   4.674   0.900
 1729TIP3    H1 5072   4.222   4.678   0.914
 1729TIP3    H2 5073   4.346   4.614   0.972
 1730TIP3   OH2 5074   4.035   5.759   0.532
 1730TIP3    H1 5075   4.088   5.683   0.561
 1730TIP3    H2 5076   4.064   5.826   0.595
 1731TIP3   OH2 5077   3.998   5.079  -0.300
 1731TIP3    H1 5078   3.939   5.137  -0.248
 1731TIP3    H2 5079   4.040   5.144  -0.362
 1732TIP3   OH2 5080   5.156   4.738   0.582
 1732TIP3    H1 5081   5.235   4.777   0.621
 1732TIP3    H2 5082   5.142   4.658   0.637
 1733TIP3   OH2 5083   4.703   4.679  -0.134
 1733TIP3    H1 5084   4.781   4.724  -0.171
 1733TIP3    H2 5085   4.725   4.672  -0.039
 1734TIP3   OH2 5086   4.994   4.987   0.658
 1734TIP3    H1 5087   5.015   5.040   0.737
 1734TIP3    H2 5088   5.049   4.908   0.669
 1735TIP3   OH2 5089   4.885   4.416  -0.047
 1735TIP3    H1 5090   4.854   4.478   0.022
 1735TIP3    H2 5091   4.970   4.457  -0.070
 1736TIP3   OH2 5092   4.372   4.392  -0.244
 1736TIP3    H1 5093   4.372   4.485  -0.212
 1736TIP3    H2 5094   4.461   4.364  -0.214
 1737TIP3   OH2 5095   5.638   4.887   0.646
 1737TIP3    H1 5096   5.539   4.887   0.649
 1737TIP3    H2 5097   5.653   4.864   0.554
 1738TIP3   OH2 5098   5.299   5.100   0.056
 1738TIP3    H1 5099   5.222   5.048   0.030
 1738TIP3    H2 5100   5.365   5.032   0.077
 1739TIP3   OH2 5101   3.947   4.588  -0.384
 1739TIP3    H1 5102   3.922   4.683  -0.387
 1739TIP3    H2 5103   3.869   4.547  -0.423
 1740TIP3   OH2 5104   4.331   4.307   0.502
 1740TIP3    H1 5105   4.300   4.272   0.416
 1740TIP3    H2 5106   4.321   4.229   0.560
 1741TIP3   OH2 5107   3.852   5.535  -0.075
 1741TIP3    H1 5108   3.776   5.592  -0.058
 1741TIP3    H2 5109   3.864   5.538  -0.172
 1742TIP3   OH2 5110   4.026   6.067   0.954
 1742TIP3    H1 5111   4.112   6.066   1.001
 1742TIP3    H2 5112   4.004   5.972   0.953
 1743TIP3   OH2 5113   4.508   6.031   1.000
 1743TIP3    H1 5114   4.603   6.012   1.005
 1743TIP3    H2 5115   4.481   5.972   0.926
 1744TIP3   OH2 5116   5.148   5.935   0.730
 1744TIP3    H1 5117   5.139   5.867   0.800
 1744TIP3    H2 5118   5.223   5.989   0.762
 1745TIP3   OH2 5119   4.157   5.474   1.155
 1745TIP3    H1 5120   4.173   5.377   1.160
 1745TIP3    H2 5121   4.069   5.476   1.111
 1746TIP3   OH2 5122   4.765   5.558   0.928
 1746TIP3    H1 5123   4.721   5.575   0.842
 1746TIP3    H2 5124   4.794   5.465   0.920
 1747TIP3   OH2 5125   5.259   5.564   0.536
 1747TIP3    H1 5126   5.330   5.615   0.492
 1747TIP3    H2 5127   5.182   5.622   0.523
 1748TIP3   OH2 5128   4.276   5.209   1.136
 1748TIP3    H1 5129   4.348   5.149   1.116
 1748TIP3    H2 5130   4.302   5.241   1.225
 1749TIP3   OH2 5131   4.612   5.093   0.799
 1749TIP3    H1 5132   4.533   5.151   0.800
 1749TIP3    H2 5133   4.661   5.127   0.721
 1750TIP3   OH2 5134   5.129   5.495   0.933
 1750TIP3    H1 5135   5.206   5.468   0.882
 1750TIP3    H2 5136   5.125   5.426   1.001
 1751TIP3   OH2 5137   4.735   4.881   0.924
 1751TIP3    H1 5138   4.734   4.800   0.868
 1751TIP3    H2 5139   4.691   4.946   0.866
 1752TIP3   OH2 5140   4.737   4.666   0.732
 1752TIP3    H1 5141   4.764   4.708   0.648
 1752TIP3    H2 5142   4.643   4.643   0.714
 1753TIP3   OH2 5143   4.765   5.203   0.605
 1753TIP3    H1 5144   4.847   5.209   0.555
 1753TIP3    H2 5145   4.708   5.269   0.559
 1754TIP3   OH2 5146   5.351   5.170   0.986
 1754TIP3    H1 5147   5.396   5.084   0.991
 1754TIP3    H2 5148   5.418   5.224   0.941
 1755TIP3   OH2 5149   5.392   5.423   0.725
 1755TIP3    H1 5150   5.338   5.477   0.662
 1755TIP3    H2 5151   5.481   5.434   0.686
 1756TIP3   OH2 5152   4.613   4.991   1.155
 1756TIP3    H1 5153   4.544   4.923   1.170
 1756TIP3    H2 5154   4.646   4.966   1.067
 1757TIP3   OH2 5155   4.869   4.430   0.798
 1757TIP3    H1 5156   4.819   4.511   0.776
 1757TIP3    H2 5157   4.799   4.361   0.787
 1758TIP3   OH2 5158   4.995   4.934   1.015
 1758TIP3    H1 5159   4.980   4.921   1.111
 1758TIP3    H2 5160   4.905   4.910   0.982
 1759TIP3   OH2 5161   5.236   4.886   0.871
 1759TIP3    H1 5162   5.159   4.886   0.932
 1759TIP3    H2 5163   5.308   4.854   0.928
 1760TIP3   OH2 5164   5.468   4.825   1.022
 1760TIP3    H1 5165   5.476   4.729   1.040
 1760TIP3    H2 5166   5.461   4.863   1.112
 1761TIP3   OH2 5167   4.452   4.772   1.207
 1761TIP3    H1 5168   4.456   4.680   1.173
 1761TIP3    H2 5169   4.488   4.759   1.298
 1762TIP3   OH2 5170   4.965   4.441   1.055
 1762TIP3    H1 5171   5.030   4.368   1.050
 1762TIP3    H2 5172   4.924   4.434   0.967
 1763TIP3   OH2 5173   5.030   4.655   1.214
 1763TIP3    H1 5174   5.008   4.584   1.150
 1763TIP3    H2 5175   4.952   4.713   1.208
 1764TIP3   OH2 5176   3.637   5.883  -0.055
 1764TIP3    H1 5177   3.575   5.817  -0.094
 1764TIP3    H2 5178   3.682   5.829   0.014
 1765TIP3   OH2 5179   3.770   5.739   0.136
 1765TIP3    H1 5180   3.769   5.660   0.192
 1765TIP3    H2 5181   3.827   5.797   0.190
 1766TIP3   OH2 5182   5.573   6.127   0.212
 1766TIP3    H1 5183   5.522   6.044   0.226
 1766TIP3    H2 5184   5.632   6.123   0.289
 1767TIP3   OH2 5185   5.583   5.825   0.785
 1767TIP3    H1 5186   5.509   5.833   0.848
 1767TIP3    H2 5187   5.623   5.915   0.789
 1768TIP3   OH2 5188   5.406   5.908   0.254
 1768TIP3    H1 5189   5.345   5.954   0.314
 1768TIP3    H2 5190   5.343   5.864   0.194
 1769TIP3   OH2 5191   3.967   5.136   0.503
 1769TIP3    H1 5192   3.966   5.106   0.410
 1769TIP3    H2 5193   4.064   5.138   0.520
 1770TIP3   OH2 5194   5.645   5.468   0.615
 1770TIP3    H1 5195   5.729   5.419   0.626
 1770TIP3    H2 5196   5.673   5.544   0.562
 1771TIP3   OH2 5197   5.510   4.947   0.149
 1771TIP3    H1 5198   5.591   4.980   0.106
 1771TIP3    H2 5199   5.521   4.987   0.238
 1772TIP3   OH2 5200   5.559   5.088   0.386
 1772TIP3    H1 5201   5.479   5.121   0.432
 1772TIP3    H2 5202   5.597   5.171   0.352
 1773TIP3   OH2 5203   4.186   4.824   1.180
 1773TIP3    H1 5204   4.284   4.816   1.181
 1773TIP3    H2 5205   4.160   4.738   1.219
 1774TIP3   OH2 5206   6.039   4.693   0.941
 1774TIP3    H1 5207   6.083   4.621   0.891
 1774TIP3    H2 5208   5.988   4.739   0.870
 1775TIP3   OH2 5209   4.146   4.514   0.506
 1775TIP3    H1 5210   4.208   4.440   0.518
 1775TIP3    H2 5211   4.208   4.589   0.502
 1776TIP3   OH2 5212   3.949   4.789   0.581
 1776TIP3    H1 5213   3.999   4.784   0.497
 1776TIP3    H2 5214   3.977   4.874   0.616
 1777TIP3   OH2 5215   5.878   4.811   0.761
 1777TIP3    H1 5216   5.796   4.863   0.769
 1777TIP3    H2 5217   5.852   4.753   0.687
 1778TIP3   OH2 5218   3.933   4.292   0.084
 1778TIP3    H1 5219   3.840   4.288   0.112
 1778TIP3    H2 5220   3.928   4.351   0.005
 1779TIP3   OH2 5221   4.153   4.374   0.897
 1779TIP3    H1 5222   4.102   4.366   0.980
 1779TIP3    H2 5223   4.085   4.411   0.837
 1780TIP3   OH2 5224   4.192   5.801   0.975
 1780TIP3    H1 5225   4.101   5.773   0.956
 1780TIP3    H2 5226   4.201   5.780   1.069
 1781TIP3   OH2 5227   4.370   5.832   0.523
 1781TIP3    H1 5228   4.321   5.907   0.483
 1781TIP3    H2 5229   4.456   5.846   0.478
 1782TIP3   OH2 5230   4.815   6.075   0.660
 1782TIP3    H1 5231   4.857   6.078   0.749
 1782TIP3    H2 5232   4.880   6.128   0.608
 1783TIP3   OH2 5233   4.993   6.228   0.522
 1783TIP3    H1 5234   5.067   6.177   0.486
 1783TIP3    H2 5235   5.042   6.289   0.582
 1784TIP3   OH2 5236   5.790   4.588   0.611
 1784TIP3    H1 5237   5.697   4.588   0.581
 1784TIP3    H2 5238   5.813   4.493   0.603
 1785TIP3   OH2 5239   4.047   6.091   0.544
 1785TIP3    H1 5240   3.957   6.124   0.521
 1785TIP3    H2 5241   4.056   6.124   0.634
 1786TIP3   OH2 5242   4.284   6.068   0.403
 1786TIP3    H1 5243   4.197   6.081   0.447
 1786TIP3    H2 5244   4.264   6.099   0.312
 1787TIP3   OH2 5245   4.717   6.095   0.198
 1787TIP3    H1 5246   4.637   6.112   0.144
 1787TIP3    H2 5247   4.728   6.181   0.244
 1788TIP3   OH2 5248   4.989   6.049   0.242
 1788TIP3    H1 5249   4.892   6.053   0.229
 1788TIP3    H2 5250   5.019   6.116   0.178
 1789TIP3   OH2 5251   3.957   5.883   0.292
 1789TIP3    H1 5252   3.985   5.856   0.382
 1789TIP3    H2 5253   4.029   5.839   0.239
 1790TIP3   OH2 5254   4.153   5.758   0.148
 1790TIP3    H1 5255   4.167   5.671   0.191
 1790TIP3    H2 5256   4.244   5.791   0.141
 1791TIP3   OH2 5257   4.420   5.853   0.147
 1791TIP3    H1 5258   4.448   5.761   0.131
 1791TIP3    H2 5259   4.463   5.868   0.233
 1792TIP3   OH2 5260   4.996   4.501   0.237
 1792TIP3    H1 5261   4.952   4.431   0.288
 1792TIP3    H2 5262   5.071   4.452   0.196
 1793TIP3   OH2 5263   5.512   4.394   0.156
 1793TIP3    H1 5264   5.549   4.432   0.074
 1793TIP3    H2 5265   5.416   4.405   0.143
 1794TIP3   OH2 5266   5.631   4.449  -0.090
 1794TIP3    H1 5267   5.726   4.434  -0.084
 1794TIP3    H2 5268   5.631   4.546  -0.098
 1795TIP3   OH2 5269   4.242   4.215   0.253
 1795TIP3    H1 5270   4.150   4.181   0.256
 1795TIP3    H2 5271   4.292   4.130   0.250
 1796TIP3   OH2 5272   4.012   4.085  -0.103
 1796TIP3    H1 5273   4.055   4.143  -0.168
 1796TIP3    H2 5274   3.994   4.147  -0.030
 1797TIP3   OH2 5275   4.678   4.248   0.141
 1797TIP3    H1 5276   4.742   4.289   0.083
 1797TIP3    H2 5277   4.703   4.283   0.227
 1798TIP3   OH2 5278   5.231   4.391   0.114
 1798TIP3    H1 5279   5.242   4.348   0.028
 1798TIP3    H2 5280   5.217   4.312   0.172
 1799TIP3   OH2 5281   4.139   4.256  -0.308
 1799TIP3    H1 5282   4.181   4.177  -0.345
 1799TIP3    H2 5283   4.217   4.312  -0.287
 1800TIP3   OH2 5284   4.633   4.408  -0.174
 1800TIP3    H1 5285   4.710   4.368  -0.131
 1800TIP3    H2 5286   4.660   4.502  -0.174
 1801TIP3   OH2 5287   4.450   4.497   1.146
 1801TIP3    H1 5288   4.415   4.426   1.202
 1801TIP3    H2 5289   4.545   4.496   1.174
 1802TIP3   OH2 5290   4.700   4.493   1.265
 1802TIP3    H1 5291   4.784   4.464   1.226
 1802TIP3    H2 5292   4.685   4.424   1.332
 1803TIP3   OH2 5293   5.525   4.553   1.052
 1803TIP3    H1 5294   5.543   4.522   1.143
 1803TIP3    H2 5295   5.613   4.545   1.011
 1804TIP3   OH2 5296   5.464   6.105   0.546
 1804TIP3    H1 5297   5.380   6.081   0.502
 1804TIP3    H2 5298   5.450   6.202   0.555
 1805TIP3   OH2 5299   6.257   4.839   0.175
 1805TIP3    H1 5300   6.283   4.920   0.127
 1805TIP3    H2 5301   6.198   4.874   0.245
 1806TIP3   OH2 5302   6.175   5.481   0.319
 1806TIP3    H1 5303   6.184   5.569   0.359
 1806TIP3    H2 5304   6.079   5.466   0.326
 1807TIP3   OH2 5305   5.773   5.632   0.253
 1807TIP3    H1 5306   5.761   5.627   0.157
 1807TIP3    H2 5307   5.814   5.546   0.276
 1808TIP3   OH2 5308   6.015   5.768   0.257
 1808TIP3    H1 5309   6.076   5.760   0.333
 1808TIP3    H2 5310   5.942   5.709   0.282
 1809TIP3   OH2 5311   6.922   4.786   0.241
 1809TIP3    H1 5312   6.998   4.748   0.287
 1809TIP3    H2 5313   6.846   4.745   0.283
 1810TIP3   OH2 5314   6.882   5.420   0.413
 1810TIP3    H1 5315   6.865   5.327   0.438
 1810TIP3    H2 5316   6.969   5.413   0.370
 1811TIP3   OH2 5317   6.112   5.177   0.250
 1811TIP3    H1 5318   6.154   5.257   0.284
 1811TIP3    H2 5319   6.132   5.111   0.317
 1812TIP3   OH2 5320   6.165   5.727   0.480
 1812TIP3    H1 5321   6.239   5.764   0.531
 1812TIP3    H2 5322   6.095   5.726   0.548
 1813TIP3   OH2 5323   5.909   5.427   0.370
 1813TIP3    H1 5324   5.929   5.417   0.466
 1813TIP3    H2 5325   5.842   5.358   0.357
 1814TIP3   OH2 5326   6.622   5.509   0.439
 1814TIP3    H1 5327   6.565   5.485   0.364
 1814TIP3    H2 5328   6.710   5.480   0.407
 1815TIP3   OH2 5329   6.119   4.922   0.395
 1815TIP3    H1 5330   6.031   4.958   0.416
 1815TIP3    H2 5331   6.133   4.866   0.472
 1816TIP3   OH2 5332   6.080   4.543  -0.012
 1816TIP3    H1 5333   6.072   4.495  -0.096
 1816TIP3    H2 5334   6.087   4.471   0.052
 1817TIP3   OH2 5335   5.817   6.296   0.436
 1817TIP3    H1 5336   5.904   6.308   0.478
 1817TIP3    H2 5337   5.799   6.203   0.455
 1818TIP3   OH2 5338   6.338   6.285   0.472
 1818TIP3    H1 5339   6.409   6.220   0.488
 1818TIP3    H2 5340   6.275   6.232   0.422
 1819TIP3   OH2 5341   5.951   5.727   0.656
 1819TIP3    H1 5342   5.954   5.630   0.672
 1819TIP3    H2 5343   5.867   5.733   0.606
 1820TIP3   OH2 5344   6.567   5.777   0.459
 1820TIP3    H1 5345   6.521   5.785   0.373
 1820TIP3    H2 5346   6.583   5.680   0.463
 1821TIP3   OH2 5347   6.400   5.337   0.281
 1821TIP3    H1 5348   6.322   5.390   0.307
 1821TIP3    H2 5349   6.429   5.390   0.205
 1822TIP3   OH2 5350   6.969   5.757   0.458
 1822TIP3    H1 5351   7.028   5.718   0.395
 1822TIP3    H2 5352   6.939   5.682   0.510
 1823TIP3   OH2 5353   6.534   5.150   0.422
 1823TIP3    H1 5354   6.521   5.066   0.374
 1823TIP3    H2 5355   6.488   5.214   0.363
 1824TIP3   OH2 5356   6.511   4.914   0.276
 1824TIP3    H1 5357   6.547   4.956   0.195
 1824TIP3    H2 5358   6.420   4.898   0.245
 1825TIP3   OH2 5359   7.169   5.432   0.488
 1825TIP3    H1 5360   7.195   5.339   0.479
 1825TIP3    H2 5361   7.212   5.473   0.412
 1826TIP3   OH2 5362   6.420   5.252   0.656
 1826TIP3    H1 5363   6.337   5.200   0.662
 1826TIP3    H2 5364   6.447   5.234   0.564
 1827TIP3   OH2 5365   6.628   4.677   0.318
 1827TIP3    H1 5366   6.607   4.769   0.289
 1827TIP3    H2 5367   6.581   4.625   0.249
 1828TIP3   OH2 5368   6.797   5.172   0.500
 1828TIP3    H1 5369   6.781   5.174   0.596
 1828TIP3    H2 5370   6.705   5.163   0.467
 1829TIP3   OH2 5371   7.028   5.134   0.350
 1829TIP3    H1 5372   6.952   5.132   0.412
 1829TIP3    H2 5373   7.102   5.103   0.405
 1830TIP3   OH2 5374   7.278   5.087   0.514
 1830TIP3    H1 5375   7.269   4.991   0.526
 1830TIP3    H2 5376   7.259   5.122   0.604
 1831TIP3   OH2 5377   6.248   5.036   0.695
 1831TIP3    H1 5378   6.247   4.947   0.658
 1831TIP3    H2 5379   6.279   5.020   0.787
 1832TIP3   OH2 5380   6.751   4.688   0.555
 1832TIP3    H1 5381   6.823   4.622   0.552
 1832TIP3    H2 5382   6.719   4.684   0.464
 1833TIP3   OH2 5383   6.822   4.909   0.706
 1833TIP3    H1 5384   6.797   4.842   0.639
 1833TIP3    H2 5385   6.748   4.974   0.699
 1834TIP3   OH2 5386   5.970   5.040   0.613
 1834TIP3    H1 5387   6.042   5.099   0.640
 1834TIP3    H2 5388   5.948   4.996   0.697
 1835TIP3   OH2 5389   5.940   4.805   0.054
 1835TIP3    H1 5390   6.008   4.743   0.083
 1835TIP3    H2 5391   5.991   4.884   0.025
 1836TIP3   OH2 5392   5.755   5.049   0.056
 1836TIP3    H1 5393   5.829   4.987   0.051
 1836TIP3    H2 5394   5.803   5.132   0.074
 1837TIP3   OH2 5395   5.957   4.623   0.385
 1837TIP3    H1 5396   5.905   4.618   0.467
 1837TIP3    H2 5397   5.890   4.664   0.326
 1838TIP3   OH2 5398   5.984   6.052   0.466
 1838TIP3    H1 5399   5.894   6.020   0.449
 1838TIP3    H2 5400   5.997   6.028   0.558
 1839TIP3   OH2 5401   6.263   4.741   0.626
 1839TIP3    H1 5402   6.207   4.685   0.681
 1839TIP3    H2 5403   6.342   4.749   0.684
 1840TIP3   OH2 5404   6.508   4.720   0.728
 1840TIP3    H1 5405   6.605   4.715   0.729
 1840TIP3    H2 5406   6.488   4.667   0.808
 1841TIP3   OH2 5407   7.304   4.803   0.549
 1841TIP3    H1 5408   7.336   4.777   0.638
 1841TIP3    H2 5409   7.386   4.813   0.498
 1842TIP3   OH2 5410  -0.231   5.871   2.230
 1842TIP3    H1 5411  -0.259   5.778   2.233
 1842TIP3    H2 5412  -0.284   5.915   2.299
 1843TIP3   OH2 5413   0.266   5.731   2.110
 1843TIP3    H1 5414   0.328   5.667   2.070
 1843TIP3    H2 5415   0.245   5.789   2.033
 1844TIP3   OH2 5416   0.128   5.880   1.930
 1844TIP3    H1 5417   0.063   5.916   1.994
 1844TIP3    H2 5418   0.084   5.800   1.895
 1845TIP3   OH2 5419   0.038   5.636   1.828
 1845TIP3    H1 5420  -0.005   5.644   1.740
 1845TIP3    H2 5421   0.078   5.547   1.816
 1846TIP3   OH2 5422  -0.238   5.592   2.232
 1846TIP3    H1 5423  -0.216   5.566   2.324
 1846TIP3    H2 5424  -0.148   5.597   2.192
 1847TIP3   OH2 5425   1.795   6.065   0.917
 1847TIP3    H1 5426   1.824   6.147   0.963
 1847TIP3    H2 5427   1.806   6.091   0.824
 1848TIP3   OH2 5428   1.129   6.238   0.964
 1848TIP3    H1 5429   1.178   6.159   0.992
 1848TIP3    H2 5430   1.183   6.266   0.889
 1849TIP3   OH2 5431   1.863   6.275   1.085
 1849TIP3    H1 5432   1.780   6.324   1.065
 1849TIP3    H2 5433   1.878   6.304   1.176
 1850TIP3   OH2 5434   0.539   5.878   1.363
 1850TIP3    H1 5435   0.459   5.862   1.311
 1850TIP3    H2 5436   0.500   5.903   1.450
 1851TIP3   OH2 5437   1.432   6.001   0.712
 1851TIP3    H1 5438   1.411   5.959   0.796
 1851TIP3    H2 5439   1.487   6.076   0.739
 1852TIP3   OH2 5440   1.582   5.968   1.079
 1852TIP3    H1 5441   1.495   5.998   1.050
 1852TIP3    H2 5442   1.641   6.000   1.008
 1853TIP3   OH2 5443   0.898   5.625   1.091
 1853TIP3    H1 5444   0.861   5.565   1.023
 1853TIP3    H2 5445   0.814   5.659   1.128
 1854TIP3   OH2 5446   1.515   6.986   1.070
 1854TIP3    H1 5447   1.514   6.920   0.999
 1854TIP3    H2 5448   1.474   7.064   1.025
 1855TIP3   OH2 5449   1.713   6.615   0.903
 1855TIP3    H1 5450   1.636   6.675   0.912
 1855TIP3    H2 5451   1.743   6.642   0.814
 1856TIP3   OH2 5452   1.403   6.498   1.202
 1856TIP3    H1 5453   1.395   6.578   1.258
 1856TIP3    H2 5454   1.311   6.494   1.166
 1857TIP3   OH2 5455   1.768   7.326   1.122
 1857TIP3    H1 5456   1.753   7.231   1.131
 1857TIP3    H2 5457   1.680   7.360   1.151
 1858TIP3   OH2 5458   1.645   6.457   1.381
 1858TIP3    H1 5459   1.563   6.468   1.331
 1858TIP3    H2 5460   1.659   6.360   1.373
 1859TIP3   OH2 5461   0.637   5.684   1.192
 1859TIP3    H1 5462   0.552   5.671   1.149
 1859TIP3    H2 5463   0.623   5.768   1.238
 1860TIP3   OH2 5464   1.173   5.807   1.386
 1860TIP3    H1 5465   1.238   5.781   1.454
 1860TIP3    H2 5466   1.088   5.787   1.430
 1861TIP3   OH2 5467   1.415   6.233   1.305
 1861TIP3    H1 5468   1.365   6.228   1.390
 1861TIP3    H2 5469   1.388   6.319   1.270
 1862TIP3   OH2 5470   1.122   6.455   1.542
 1862TIP3    H1 5471   1.101   6.381   1.604
 1862TIP3    H2 5472   1.215   6.471   1.564
 1863TIP3   OH2 5473   1.146   6.458   1.124
 1863TIP3    H1 5474   1.134   6.384   1.062
 1863TIP3    H2 5475   1.094   6.421   1.199
 1864TIP3   OH2 5476   1.272   5.990   0.985
 1864TIP3    H1 5477   1.244   5.998   1.079
 1864TIP3    H2 5478   1.204   5.925   0.955
 1865TIP3   OH2 5479   0.878   6.062   1.161
 1865TIP3    H1 5480   0.826   6.138   1.192
 1865TIP3    H2 5481   0.969   6.091   1.173
 1866TIP3   OH2 5482   1.488   6.778   0.885
 1866TIP3    H1 5483   1.498   6.812   0.795
 1866TIP3    H2 5484   1.423   6.708   0.875
 1867TIP3   OH2 5485   0.881   6.582   1.570
 1867TIP3    H1 5486   0.834   6.505   1.536
 1867TIP3    H2 5487   0.974   6.557   1.552
 1868TIP3   OH2 5488   1.769   7.026   1.149
 1868TIP3    H1 5489   1.671   7.029   1.142
 1868TIP3    H2 5490   1.791   7.000   1.057
 1869TIP3   OH2 5491   0.404   5.949   1.591
 1869TIP3    H1 5492   0.316   5.934   1.627
 1869TIP3    H2 5493   0.456   5.897   1.655
 1870TIP3   OH2 5494   1.197   6.043   1.246
 1870TIP3    H1 5495   1.276   6.077   1.290
 1870TIP3    H2 5496   1.181   5.960   1.296
 1871TIP3   OH2 5497   1.046   6.302   1.323
 1871TIP3    H1 5498   1.070   6.350   1.404
 1871TIP3    H2 5499   1.091   6.217   1.335
 1872TIP3   OH2 5500   1.681   6.188   1.302
 1872TIP3    H1 5501   1.583   6.187   1.311
 1872TIP3    H2 5502   1.691   6.149   1.214
 1873TIP3   OH2 5503   1.313   6.310   0.764
 1873TIP3    H1 5504   1.332   6.346   0.675
 1873TIP3    H2 5505   1.404   6.290   0.792
 1874TIP3   OH2 5506   1.229   7.226   1.389
 1874TIP3    H1 5507   1.190   7.174   1.462
 1874TIP3    H2 5508   1.280   7.294   1.436
 1875TIP3   OH2 5509   0.813   6.856   1.600
 1875TIP3    H1 5510   0.763   6.857   1.518
 1875TIP3    H2 5511   0.856   6.768   1.597
 1876TIP3   OH2 5512   1.303   6.878   1.205
 1876TIP3    H1 5513   1.384   6.924   1.175
 1876TIP3    H2 5514   1.259   6.946   1.258
 1877TIP3   OH2 5515   0.371   6.590   1.815
 1877TIP3    H1 5516   0.344   6.499   1.796
 1877TIP3    H2 5517   0.390   6.590   1.910
 1878TIP3   OH2 5518   1.169   6.787   1.602
 1878TIP3    H1 5519   1.256   6.776   1.562
 1878TIP3    H2 5520   1.171   6.722   1.674
 1879TIP3   OH2 5521   0.775   6.191   1.580
 1879TIP3    H1 5522   0.768   6.098   1.613
 1879TIP3    H2 5523   0.770   6.175   1.485
 1880TIP3   OH2 5524   0.799   5.959   1.400
 1880TIP3    H1 5525   0.824   5.981   1.309
 1880TIP3    H2 5526   0.704   5.940   1.392
 1881TIP3   OH2 5527   1.390   6.471   1.649
 1881TIP3    H1 5528   1.439   6.387   1.660
 1881TIP3    H2 5529   1.459   6.530   1.617
 1882TIP3   OH2 5530   1.435   6.717   1.383
 1882TIP3    H1 5531   1.376   6.770   1.325
 1882TIP3    H2 5532   1.522   6.740   1.344
 1883TIP3   OH2 5533   0.661   6.295   1.814
 1883TIP3    H1 5534   0.586   6.235   1.829
 1883TIP3    H2 5535   0.693   6.267   1.725
 1884TIP3   OH2 5536   0.919   5.725   1.467
 1884TIP3    H1 5537   0.873   5.812   1.460
 1884TIP3    H2 5538   0.844   5.663   1.456
 1885TIP3   OH2 5539   1.041   6.236   1.679
 1885TIP3    H1 5540   1.023   6.221   1.774
 1885TIP3    H2 5541   0.953   6.214   1.643
 1886TIP3   OH2 5542   1.279   6.184   1.533
 1886TIP3    H1 5543   1.203   6.184   1.594
 1886TIP3    H2 5544   1.352   6.153   1.591
 1887TIP3   OH2 5545   1.512   6.126   1.683
 1887TIP3    H1 5546   1.521   6.030   1.702
 1887TIP3    H2 5547   1.505   6.165   1.773
 1888TIP3   OH2 5548   0.495   6.084   1.880
 1888TIP3    H1 5549   0.561   6.035   1.824
 1888TIP3    H2 5550   0.530   6.061   1.968
 1889TIP3   OH2 5551   1.040   5.743   1.715
 1889TIP3    H1 5552   1.089   5.662   1.694
 1889TIP3    H2 5553   0.972   5.743   1.645
 1890TIP3   OH2 5554   1.071   5.956   1.880
 1890TIP3    H1 5555   1.055   5.881   1.817
 1890TIP3    H2 5556   0.990   6.008   1.867
 1891TIP3   OH2 5557   1.629   7.123   1.449
 1891TIP3    H1 5558   1.556   7.132   1.513
 1891TIP3    H2 5559   1.668   7.213   1.451
 1892TIP3   OH2 5560   1.674   6.788   1.275
 1892TIP3    H1 5561   1.748   6.724   1.266
 1892TIP3    H2 5562   1.705   6.862   1.219
 1893TIP3   OH2 5563   1.860   6.594   1.291
 1893TIP3    H1 5564   1.786   6.545   1.332
 1893TIP3    H2 5565   1.933   6.530   1.307
 1894TIP3   OH2 5566   1.569   6.237   0.816
 1894TIP3    H1 5567   1.651   6.270   0.772
 1894TIP3    H2 5568   1.581   6.279   0.903
 1895TIP3   OH2 5569   1.613   6.395   1.038
 1895TIP3    H1 5570   1.538   6.430   1.091
 1895TIP3    H2 5571   1.646   6.476   0.994
 1896TIP3   OH2 5572   0.239   6.092   1.798
 1896TIP3    H1 5573   0.334   6.100   1.823
 1896TIP3    H2 5574   0.207   6.037   1.872
 1897TIP3   OH2 5575   2.066   5.990   1.599
 1897TIP3    H1 5576   2.124   5.924   1.556
 1897TIP3    H2 5577   2.036   6.044   1.522
 1898TIP3   OH2 5578   1.504   5.810   0.342
 1898TIP3    H1 5579   1.548   5.817   0.429
 1898TIP3    H2 5580   1.430   5.752   0.363
 1899TIP3   OH2 5581   1.936   6.129   1.405
 1899TIP3    H1 5582   1.850   6.170   1.428
 1899TIP3    H2 5583   1.904   6.058   1.346
 1900TIP3   OH2 5584   0.218   5.721   1.556
 1900TIP3    H1 5585   0.201   5.666   1.634
 1900TIP3    H2 5586   0.138   5.706   1.505
 1901TIP3   OH2 5587   1.835   5.892   1.281
 1901TIP3    H1 5588   1.743   5.886   1.249
 1901TIP3    H2 5589   1.864   5.799   1.271
 1902TIP3   OH2 5590   1.073   5.813   0.923
 1902TIP3    H1 5591   0.997   5.776   0.971
 1902TIP3    H2 5592   1.089   5.745   0.856
 1903TIP3   OH2 5593   1.570   5.688   0.805
 1903TIP3    H1 5594   1.602   5.747   0.733
 1903TIP3    H2 5595   1.474   5.704   0.802
 1904TIP3   OH2 5596   1.659   5.796   0.568
 1904TIP3    H1 5597   1.733   5.744   0.531
 1904TIP3    H2 5598   1.692   5.888   0.557
 1905TIP3   OH2 5599   1.299   5.685   0.773
 1905TIP3    H1 5600   1.281   5.643   0.688
 1905TIP3    H2 5601   1.270   5.615   0.836
 1906TIP3   OH2 5602   0.463   5.752   1.793
 1906TIP3    H1 5603   0.468   5.705   1.878
 1906TIP3    H2 5604   0.550   5.799   1.791
 1907TIP3   OH2 5605   1.569   5.854   1.715
 1907TIP3    H1 5606   1.588   5.824   1.807
 1907TIP3    H2 5607   1.658   5.849   1.675
 1908TIP3   OH2 5608   1.518   7.405   1.212
 1908TIP3    H1 5609   1.450   7.351   1.169
 1908TIP3    H2 5610   1.474   7.492   1.196
 1909TIP3   OH2 5611   2.761   6.781   0.015
 1909TIP3    H1 5612   2.740   6.875   0.002
 1909TIP3    H2 5613   2.691   6.739  -0.037
 1910TIP3   OH2 5614   2.774   6.783   0.357
 1910TIP3    H1 5615   2.804   6.747   0.442
 1910TIP3    H2 5616   2.733   6.705   0.316
 1911TIP3   OH2 5617   2.092   6.664   0.716
 1911TIP3    H1 5618   2.117   6.598   0.784
 1911TIP3    H2 5619   2.161   6.731   0.728
 1912TIP3   OH2 5620   3.036   7.060   0.035
 1912TIP3    H1 5621   3.007   7.002   0.107
 1912TIP3    H2 5622   3.050   7.144   0.082
 1913TIP3   OH2 5623   2.044   7.059   0.480
 1913TIP3    H1 5624   2.076   6.967   0.494
 1913TIP3    H2 5625   2.127   7.100   0.449
 1914TIP3   OH2 5626   1.842   6.601   0.412
 1914TIP3    H1 5627   1.876   6.516   0.448
 1914TIP3    H2 5628   1.871   6.596   0.321
 1915TIP3   OH2 5629   2.697   7.540   0.045
 1915TIP3    H1 5630   2.726   7.448   0.035
 1915TIP3    H2 5631   2.662   7.538   0.135
 1916TIP3   OH2 5632   2.579   7.005   0.403
 1916TIP3    H1 5633   2.616   6.927   0.357
 1916TIP3    H2 5634   2.663   7.049   0.428
 1917TIP3   OH2 5635   3.584   6.326   0.403
 1917TIP3    H1 5636   3.614   6.408   0.449
 1917TIP3    H2 5637   3.611   6.347   0.312
 1918TIP3   OH2 5638   2.980   6.503   0.440
 1918TIP3    H1 5639   3.024   6.418   0.458
 1918TIP3    H2 5640   2.950   6.488   0.348
 1919TIP3   OH2 5641   2.323   6.166   0.402
 1919TIP3    H1 5642   2.304   6.239   0.340
 1919TIP3    H2 5643   2.277   6.092   0.357
 1920TIP3   OH2 5644   3.013   6.254   0.030
 1920TIP3    H1 5645   3.090   6.237   0.089
 1920TIP3    H2 5646   3.062   6.289  -0.049
 1921TIP3   OH2 5647   1.958   6.365   0.500
 1921TIP3    H1 5648   2.037   6.350   0.554
 1921TIP3    H2 5649   1.980   6.310   0.422
 1922TIP3   OH2 5650   2.406   6.562   0.300
 1922TIP3    H1 5651   2.499   6.536   0.315
 1922TIP3    H2 5652   2.367   6.479   0.267
 1923TIP3   OH2 5653   3.659   6.534   0.570
 1923TIP3    H1 5654   3.574   6.580   0.551
 1923TIP3    H2 5655   3.672   6.558   0.663
 1924TIP3   OH2 5656   2.319   6.149   0.835
 1924TIP3    H1 5657   2.259   6.188   0.768
 1924TIP3    H2 5658   2.267   6.166   0.917
 1925TIP3   OH2 5659   2.676   7.018  -0.097
 1925TIP3    H1 5660   2.686   6.969  -0.180
 1925TIP3    H2 5661   2.606   7.083  -0.117
 1926TIP3   OH2 5662   2.428   6.925   0.632
 1926TIP3    H1 5663   2.362   6.989   0.669
 1926TIP3    H2 5664   2.463   6.975   0.556
 1927TIP3   OH2 5665   3.231   6.259   0.196
 1927TIP3    H1 5666   3.214   6.212   0.278
 1927TIP3    H2 5667   3.279   6.338   0.227
 1928TIP3   OH2 5668   2.188   6.265   0.620
 1928TIP3    H1 5669   2.250   6.338   0.645
 1928TIP3    H2 5670   2.240   6.225   0.547
 1929TIP3   OH2 5671   2.256   7.115   0.732
 1929TIP3    H1 5672   2.228   7.197   0.687
 1929TIP3    H2 5673   2.176   7.100   0.787
 1930TIP3   OH2 5674   3.090   7.327   0.201
 1930TIP3    H1 5675   3.003   7.309   0.243
 1930TIP3    H2 5676   3.075   7.418   0.171
 1931TIP3   OH2 5677   3.378   6.226   0.568
 1931TIP3    H1 5678   3.290   6.252   0.536
 1931TIP3    H2 5679   3.436   6.258   0.496
 1932TIP3   OH2 5680   2.675   5.868   0.548
 1932TIP3    H1 5681   2.661   5.773   0.567
 1932TIP3    H2 5682   2.598   5.906   0.596
 1933TIP3   OH2 5683   3.314   7.236   0.548
 1933TIP3    H1 5684   3.301   7.158   0.490
 1933TIP3    H2 5685   3.296   7.311   0.488
 1934TIP3   OH2 5686   2.612   6.632  -0.185
 1934TIP3    H1 5687   2.518   6.658  -0.185
 1934TIP3    H2 5688   2.629   6.622  -0.280
 1935TIP3   OH2 5689   3.508   6.874   0.392
 1935TIP3    H1 5690   3.424   6.925   0.398
 1935TIP3    H2 5691   3.536   6.898   0.301
 1936TIP3   OH2 5692   2.920   6.657  -0.167
 1936TIP3    H1 5693   2.885   6.695  -0.084
 1936TIP3    H2 5694   3.016   6.652  -0.148
 1937TIP3   OH2 5695   3.188   6.753   0.688
 1937TIP3    H1 5696   3.184   6.837   0.737
 1937TIP3    H2 5697   3.101   6.755   0.643
 1938TIP3   OH2 5698   2.193   6.703   0.211
 1938TIP3    H1 5699   2.171   6.656   0.129
 1938TIP3    H2 5700   2.276   6.658   0.235
 1939TIP3   OH2 5701   2.311   7.083   0.379
 1939TIP3    H1 5702   2.299   7.098   0.285
 1939TIP3    H2 5703   2.407   7.065   0.384
 1940TIP3   OH2 5704   2.343   6.676   0.549
 1940TIP3    H1 5705   2.368   6.660   0.456
 1940TIP3    H2 5706   2.372   6.768   0.565
 1941TIP3   OH2 5707   2.849   7.318   0.320
 1941TIP3    H1 5708   2.836   7.399   0.374
 1941TIP3    H2 5709   2.834   7.246   0.385
 1942TIP3   OH2 5710   2.460   7.240   0.871
 1942TIP3    H1 5711   2.398   7.301   0.918
 1942TIP3    H2 5712   2.394   7.186   0.822
 1943TIP3   OH2 5713   2.213   6.795   0.970
 1943TIP3    H1 5714   2.218   6.882   1.014
 1943TIP3    H2 5715   2.118   6.775   0.986
 1944TIP3   OH2 5716   2.254   7.407   0.960
 1944TIP3    H1 5717   2.217   7.405   0.870
 1944TIP3    H2 5718   2.176   7.384   1.015
 1945TIP3   OH2 5719   1.835   6.929   0.901
 1945TIP3    H1 5720   1.810   6.897   0.812
 1945TIP3    H2 5721   1.877   6.849   0.939
 1946TIP3   OH2 5722   3.552   7.583   0.594
 1946TIP3    H1 5723   3.550   7.486   0.608
 1946TIP3    H2 5724   3.468   7.608   0.640
 1947TIP3   OH2 5725   2.659   7.368   0.732
 1947TIP3    H1 5726   2.658   7.460   0.766
 1947TIP3    H2 5727   2.586   7.327   0.785
 1948TIP3   OH2 5728   3.441   6.713   0.868
 1948TIP3    H1 5729   3.358   6.726   0.818
 1948TIP3    H2 5730   3.455   6.617   0.857
 1949TIP3   OH2 5731   2.038   7.117   0.894
 1949TIP3    H1 5732   2.085   7.103   0.978
 1949TIP3    H2 5733   1.960   7.058   0.904
 1950TIP3   OH2 5734   2.437   5.945   0.678
 1950TIP3    H1 5735   2.347   5.914   0.652
 1950TIP3    H2 5736   2.412   6.027   0.725
 1951TIP3   OH2 5737   2.970   6.060   0.872
 1951TIP3    H1 5738   3.038   6.031   0.937
 1951TIP3    H2 5739   2.886   6.039   0.919
 1952TIP3   OH2 5740   3.211   6.490   0.792
 1952TIP3    H1 5741   3.160   6.485   0.876
 1952TIP3    H2 5742   3.184   6.576   0.755
 1953TIP3   OH2 5743   2.604   5.990  -0.361
 1953TIP3    H1 5744   2.575   6.009  -0.270
 1953TIP3    H2 5745   2.565   5.904  -0.375
 1954TIP3   OH2 5746   2.369   6.455   0.700
 1954TIP3    H1 5747   2.318   6.480   0.780
 1954TIP3    H2 5748   2.358   6.537   0.645
 1955TIP3   OH2 5749   2.249   6.344   0.212
 1955TIP3    H1 5750   2.155   6.321   0.223
 1955TIP3    H2 5751   2.267   6.308   0.123
 1956TIP3   OH2 5752   2.743   6.427  -0.062
 1956TIP3    H1 5753   2.693   6.503  -0.097
 1956TIP3    H2 5754   2.817   6.424  -0.125
 1957TIP3   OH2 5755   2.917   6.710   1.024
 1957TIP3    H1 5756   2.894   6.637   1.086
 1957TIP3    H2 5757   3.011   6.724   1.046
 1958TIP3   OH2 5758   2.901   6.459   0.179
 1958TIP3    H1 5759   2.840   6.489   0.109
 1958TIP3    H2 5760   2.935   6.378   0.134
 1959TIP3   OH2 5761   2.191   6.487   0.910
 1959TIP3    H1 5762   2.212   6.551   0.979
 1959TIP3    H2 5763   2.177   6.405   0.961
 1960TIP3   OH2 5764   2.252   5.994  -0.371
 1960TIP3    H1 5765   2.263   5.972  -0.278
 1960TIP3    H2 5766   2.163   5.957  -0.385
 1961TIP3   OH2 5767   1.777   6.028   0.474
 1961TIP3    H1 5768   1.853   6.046   0.533
 1961TIP3    H2 5769   1.815   5.975   0.402
 1962TIP3   OH2 5770   2.913   6.707   0.601
 1962TIP3    H1 5771   2.944   6.634   0.542
 1962TIP3    H2 5772   2.881   6.654   0.678
 1963TIP3   OH2 5773   2.579   6.168   0.273
 1963TIP3    H1 5774   2.499   6.167   0.328
 1963TIP3    H2 5775   2.650   6.167   0.340
 1964TIP3   OH2 5776   2.008   6.209   0.272
 1964TIP3    H1 5777   1.918   6.174   0.266
 1964TIP3    H2 5778   2.062   6.128   0.260
 1965TIP3   OH2 5779   2.285   6.211  -0.026
 1965TIP3    H1 5780   2.383   6.223  -0.029
 1965TIP3    H2 5781   2.256   6.261  -0.106
 1966TIP3   OH2 5782   3.073   6.243   0.473
 1966TIP3    H1 5783   3.039   6.255   0.564
 1966TIP3    H2 5784   3.006   6.182   0.436
 1967TIP3   OH2 5785   3.241   7.933   0.694
 1967TIP3    H1 5786   3.238   7.958   0.600
 1967TIP3    H2 5787   3.322   7.979   0.724
 1968TIP3   OH2 5788   2.200   7.040   1.115
 1968TIP3    H1 5789   2.278   7.073   1.163
 1968TIP3    H2 5790   2.134   7.042   1.187
 1969TIP3   OH2 5791   2.665   6.493   0.369
 1969TIP3    H1 5792   2.739   6.455   0.319
 1969TIP3    H2 5793   2.675   6.452   0.457
 1970TIP3   OH2 5794   2.179   5.989   0.247
 1970TIP3    H1 5795   2.150   5.908   0.294
 1970TIP3    H2 5796   2.224   5.953   0.170
 1971TIP3   OH2 5797   2.639   6.392   0.660
 1971TIP3    H1 5798   2.549   6.428   0.673
 1971TIP3    H2 5799   2.696   6.455   0.709
 1972TIP3   OH2 5800   3.273   7.017   0.387
 1972TIP3    H1 5801   3.297   7.064   0.304
 1972TIP3    H2 5802   3.186   6.977   0.362
 1973TIP3   OH2 5803   2.780   7.105   0.749
 1973TIP3    H1 5804   2.796   7.079   0.841
 1973TIP3    H2 5805   2.735   7.191   0.759
 1974TIP3   OH2 5806   2.096   6.794   0.452
 1974TIP3    H1 5807   2.127   6.764   0.364
 1974TIP3    H2 5808   2.129   6.723   0.510
 1975TIP3   OH2 5809   1.951   6.725   1.043
 1975TIP3    H1 5810   1.968   6.711   1.138
 1975TIP3    H2 5811   1.881   6.659   1.026
 1976TIP3   OH2 5812   2.674   6.841   1.063
 1976TIP3    H1 5813   2.613   6.782   1.014
 1976TIP3    H2 5814   2.761   6.806   1.034
 1977TIP3   OH2 5815   2.936   7.366   0.643
 1977TIP3    H1 5816   2.840   7.359   0.659
 1977TIP3    H2 5817   2.964   7.415   0.724
 1978TIP3   OH2 5818   3.564   7.291   0.636
 1978TIP3    H1 5819   3.466   7.286   0.630
 1978TIP3    H2 5820   3.589   7.260   0.546
 1979TIP3   OH2 5821   3.035   6.890   0.306
 1979TIP3    H1 5822   2.942   6.863   0.318
 1979TIP3    H2 5823   3.072   6.806   0.269
 1980TIP3   OH2 5824   2.322   6.871   0.028
 1980TIP3    H1 5825   2.298   6.964   0.024
 1980TIP3    H2 5826   2.277   6.839   0.108
 1981TIP3   OH2 5827   2.454   7.455   0.560
 1981TIP3    H1 5828   2.494   7.518   0.499
 1981TIP3    H2 5829   2.533   7.419   0.606
 1982TIP3   OH2 5830   2.831   7.090   0.481
 1982TIP3    H1 5831   2.819   7.087   0.579
 1982TIP3    H2 5832   2.907   7.031   0.470
 1983TIP3   OH2 5833   3.077   7.619   0.534
 1983TIP3    H1 5834   2.999   7.561   0.528
 1983TIP3    H2 5835   3.057   7.685   0.465
 1984TIP3   OH2 5836   2.160   6.231   1.051
 1984TIP3    H1 5837   2.063   6.235   1.065
 1984TIP3    H2 5838   2.188   6.172   1.124
 1985TIP3   OH2 5839   1.855   7.300   0.692
 1985TIP3    H1 5840   1.921   7.230   0.708
 1985TIP3    H2 5841   1.887   7.368   0.752
 1986TIP3   OH2 5842   2.998   6.295   0.732
 1986TIP3    H1 5843   3.077   6.333   0.773
 1986TIP3    H2 5844   2.983   6.215   0.786
 1987TIP3   OH2 5845   2.849   6.073  -0.107
 1987TIP3    H1 5846   2.855   6.095  -0.200
 1987TIP3    H2 5847   2.911   6.137  -0.067
 1988TIP3   OH2 5848   2.558   6.227   0.001
 1988TIP3    H1 5849   2.628   6.292  -0.023
 1988TIP3    H2 5850   2.572   6.219   0.098
 1989TIP3   OH2 5851   2.835   6.546   0.807
 1989TIP3    H1 5852   2.855   6.600   0.886
 1989TIP3    H2 5853   2.890   6.466   0.821
 1990TIP3   OH2 5854   2.713   5.954   0.099
 1990TIP3    H1 5855   2.709   6.030   0.160
 1990TIP3    H2 5856   2.767   5.993   0.027
 1991TIP3   OH2 5857   2.233   5.948  -0.087
 1991TIP3    H1 5858   2.232   6.042  -0.059
 1991TIP3    H2 5859   2.329   5.931  -0.082
 1992TIP3   OH2 5860   3.477   6.446   0.786
 1992TIP3    H1 5861   3.379   6.445   0.796
 1992TIP3    H2 5862   3.485   6.401   0.701
 1993TIP3   OH2 5863   3.119   6.644   0.209
 1993TIP3    H1 5864   3.045   6.581   0.208
 1993TIP3    H2 5865   3.191   6.591   0.249
 1994TIP3   OH2 5866   3.104   7.602   0.148
 1994TIP3    H1 5867   3.063   7.581   0.061
 1994TIP3    H2 5868   3.193   7.632   0.121
 1995TIP3   OH2 5869   2.173   5.863   0.653
 1995TIP3    H1 5870   2.142   5.829   0.567
 1995TIP3    H2 5871   2.163   5.785   0.712
 1996TIP3   OH2 5872   1.866   7.607   1.112
 1996TIP3    H1 5873   1.951   7.595   1.159
 1996TIP3    H2 5874   1.833   7.516   1.105
 1997TIP3   OH2 5875   2.353   7.590   1.148
 1997TIP3    H1 5876   2.446   7.564   1.153
 1997TIP3    H2 5877   2.322   7.531   1.076
 1998TIP3   OH2 5878   2.989   7.495   0.881
 1998TIP3    H1 5879   2.979   7.425   0.950
 1998TIP3    H2 5880   3.066   7.546   0.914
 1999TIP3   OH2 5881   1.998   7.031   1.305
 1999TIP3    H1 5882   2.013   6.935   1.310
 1999TIP3    H2 5883   1.910   7.035   1.261
 2000TIP3   OH2 5884   2.606   7.116   1.077
 2000TIP3    H1 5885   2.562   7.133   0.992
 2000TIP3    H2 5886   2.635   7.023   1.070
 2001TIP3   OH2 5887   3.099   7.123   0.686
 2001TIP3    H1 5888   3.172   7.170   0.642
 2001TIP3    H2 5889   3.025   7.185   0.672
 2002TIP3   OH2 5890   2.117   6.763   1.288
 2002TIP3    H1 5891   2.193   6.708   1.268
 2002TIP3    H2 5892   2.142   6.798   1.376
 2003TIP3   OH2 5893   2.453   6.651   0.950
 2003TIP3    H1 5894   2.374   6.709   0.950
 2003TIP3    H2 5895   2.502   6.685   0.871
 2004TIP3   OH2 5896   2.969   7.052   1.083
 2004TIP3    H1 5897   3.048   7.026   1.035
 2004TIP3    H2 5898   2.965   6.985   1.153
 2005TIP3   OH2 5899   2.576   6.438   1.074
 2005TIP3    H1 5900   2.575   6.358   1.018
 2005TIP3    H2 5901   2.532   6.505   1.017
 2006TIP3   OH2 5902   2.577   6.223   0.882
 2006TIP3    H1 5903   2.605   6.266   0.798
 2006TIP3    H2 5904   2.484   6.202   0.863
 2007TIP3   OH2 5905   2.606   6.762   0.757
 2007TIP3    H1 5906   2.687   6.770   0.705
 2007TIP3    H2 5907   2.547   6.826   0.712
 2008TIP3   OH2 5908   3.187   6.727   1.136
 2008TIP3    H1 5909   3.235   6.643   1.146
 2008TIP3    H2 5910   3.255   6.785   1.101
 2009TIP3   OH2 5911   3.229   6.979   0.873
 2009TIP3    H1 5912   3.170   7.032   0.814
 2009TIP3    H2 5913   3.316   7.000   0.833
 2010TIP3   OH2 5914   2.454   6.549   1.306
 2010TIP3    H1 5915   2.385   6.481   1.320
 2010TIP3    H2 5916   2.488   6.524   1.217
 2011TIP3   OH2 5917   2.710   5.987   0.948
 2011TIP3    H1 5918   2.660   6.069   0.926
 2011TIP3    H2 5919   2.640   5.919   0.938
 2012TIP3   OH2 5920   2.836   6.492   1.165
 2012TIP3    H1 5921   2.823   6.479   1.261
 2012TIP3    H2 5922   2.746   6.468   1.134
 2013TIP3   OH2 5923   3.075   6.441   1.020
 2013TIP3    H1 5924   2.999   6.443   1.082
 2013TIP3    H2 5925   3.148   6.410   1.077
 2014TIP3   OH2 5926   3.307   6.383   1.171
 2014TIP3    H1 5927   3.317   6.287   1.189
 2014TIP3    H2 5928   3.301   6.421   1.261
 2015TIP3   OH2 5929   2.292   6.330   1.358
 2015TIP3    H1 5930   2.298   6.238   1.324
 2015TIP3    H2 5931   2.328   6.318   1.448
 2016TIP3   OH2 5932   2.805   5.998   1.206
 2016TIP3    H1 5933   2.871   5.927   1.201
 2016TIP3    H2 5934   2.765   5.992   1.117
 2017TIP3   OH2 5935   2.871   6.213   1.365
 2017TIP3    H1 5936   2.849   6.142   1.301
 2017TIP3    H2 5937   2.792   6.271   1.359
 2018TIP3   OH2 5938   3.354   7.700   0.090
 2018TIP3    H1 5939   3.383   7.711   0.182
 2018TIP3    H2 5940   3.436   7.716   0.042
 2019TIP3   OH2 5941   3.377   7.706   0.367
 2019TIP3    H1 5942   3.334   7.618   0.367
 2019TIP3    H2 5943   3.456   7.686   0.420
 2020TIP3   OH2 5944   3.424   7.383   0.937
 2020TIP3    H1 5945   3.351   7.392   1.002
 2020TIP3    H2 5946   3.465   7.472   0.942
 2021TIP3   OH2 5947   3.422   7.145   0.196
 2021TIP3    H1 5948   3.472   7.082   0.142
 2021TIP3    H2 5949   3.439   7.230   0.151
 2022TIP3   OH2 5950   3.255   7.456   0.391
 2022TIP3    H1 5951   3.184   7.500   0.442
 2022TIP3    H2 5952   3.204   7.409   0.321
 2023TIP3   OH2 5953   3.173   6.612  -0.055
 2023TIP3    H1 5954   3.194   6.518  -0.057
 2023TIP3    H2 5955   3.166   6.633   0.040
 2024TIP3   OH2 5956   1.831   6.732   0.678
 2024TIP3    H1 5957   1.803   6.693   0.593
 2024TIP3    H2 5958   1.927   6.713   0.677
 2025TIP3   OH2 5959   3.471   7.046   0.765
 2025TIP3    H1 5960   3.544   6.980   0.755
 2025TIP3    H2 5961   3.498   7.115   0.702
 2026TIP3   OH2 5962   3.656   6.850   0.779
 2026TIP3    H1 5963   3.581   6.800   0.819
 2026TIP3    H2 5964   3.729   6.786   0.794
 2027TIP3   OH2 5965   3.177   6.336  -0.166
 2027TIP3    H1 5966   3.220   6.247  -0.173
 2027TIP3    H2 5967   3.239   6.390  -0.218
 2028TIP3   OH2 5968   3.341   6.507   0.299
 2028TIP3    H1 5969   3.425   6.535   0.257
 2028TIP3    H2 5970   3.355   6.545   0.388
 2029TIP3   OH2 5971   3.408   6.654   0.528
 2029TIP3    H1 5972   3.330   6.687   0.577
 2029TIP3    H2 5973   3.440   6.736   0.484
 2030TIP3   OH2 5974   2.025   6.380   1.327
 2030TIP3    H1 5975   2.123   6.374   1.330
 2030TIP3    H2 5976   2.001   6.295   1.369
 2031TIP3   OH2 5977   3.862   6.247   1.085
 2031TIP3    H1 5978   3.920   6.180   1.042
 2031TIP3    H2 5979   3.832   6.300   1.009
 2032TIP3   OH2 5980   3.288   6.088  -0.158
 2032TIP3    H1 5981   3.338   6.074  -0.075
 2032TIP3    H2 5982   3.226   6.012  -0.152
 2033TIP3   OH2 5983   1.986   6.068   0.648
 2033TIP3    H1 5984   2.050   5.997   0.665
 2033TIP3    H2 5985   2.044   6.146   0.652
 2034TIP3   OH2 5986   1.806   6.346   0.735
 2034TIP3    H1 5987   1.849   6.350   0.648
 2034TIP3    H2 5988   1.811   6.438   0.763
 2035TIP3   OH2 5989   3.731   6.385   0.891
 2035TIP3    H1 5990   3.645   6.426   0.912
 2035TIP3    H2 5991   3.701   6.313   0.832
 2036TIP3   OH2 5992   1.762   5.877   0.231
 2036TIP3    H1 5993   1.671   5.855   0.255
 2036TIP3    H2 5994   1.757   5.884   0.134
 2037TIP3   OH2 5995   1.996   5.927   1.048
 2037TIP3    H1 5996   1.945   5.923   1.131
 2037TIP3    H2 5997   1.929   5.967   0.988
 2038TIP3   OH2 5998   2.040   7.352   1.128
 2038TIP3    H1 5999   1.946   7.333   1.109
 2038TIP3    H2 6000   2.042   7.337   1.223
 2039TIP3   OH2 6001   2.207   7.389   0.678
 2039TIP3    H1 6002   2.156   7.454   0.628
 2039TIP3    H2 6003   2.297   7.411   0.647
 2040TIP3   OH2 6004   2.657   7.634   0.811
 2040TIP3    H1 6005   2.697   7.634   0.900
 2040TIP3    H2 6006   2.724   7.684   0.760
 2041TIP3   OH2 6007   2.839   7.783   0.672
 2041TIP3    H1 6008   2.911   7.733   0.631
 2041TIP3    H2 6009   2.889   7.842   0.732
 2042TIP3   OH2 6010   3.630   6.148   0.769
 2042TIP3    H1 6011   3.539   6.141   0.735
 2042TIP3    H2 6012   3.661   6.055   0.758
 2043TIP3   OH2 6013   2.563   7.654   0.356
 2043TIP3    H1 6014   2.480   7.654   0.307
 2043TIP3    H2 6015   2.567   7.747   0.387
 2044TIP3   OH2 6016   2.825   7.590   0.402
 2044TIP3    H1 6017   2.729   7.608   0.389
 2044TIP3    H2 6018   2.865   7.672   0.367
 2045TIP3   OH2 6019   3.021   7.790   0.329
 2045TIP3    H1 6020   3.021   7.876   0.283
 2045TIP3    H2 6021   3.050   7.729   0.258
 2046TIP3   OH2 6022   2.323   7.481   0.329
 2046TIP3    H1 6023   2.327   7.403   0.272
 2046TIP3    H2 6024   2.351   7.442   0.414
 2047TIP3   OH2 6025   2.835   6.063   0.387
 2047TIP3    H1 6026   2.792   5.993   0.439
 2047TIP3    H2 6027   2.907   6.016   0.343
 2048TIP3   OH2 6028   3.353   5.943   0.300
 2048TIP3    H1 6029   3.389   5.993   0.224
 2048TIP3    H2 6030   3.257   5.961   0.292
 2049TIP3   OH2 6031   3.446   6.037   0.064
 2049TIP3    H1 6032   3.517   5.986   0.021
 2049TIP3    H2 6033   3.482   6.128   0.056
 2050TIP3   OH2 6034   2.083   5.772   0.403
 2050TIP3    H1 6035   1.992   5.736   0.405
 2050TIP3    H2 6036   2.135   5.688   0.400
 2051TIP3   OH2 6037   1.886   5.617   0.079
 2051TIP3    H1 6038   1.884   5.681   0.004
 2051TIP3    H2 6039   1.838   5.669   0.145
 2052TIP3   OH2 6040   2.526   5.805   0.286
 2052TIP3    H1 6041   2.584   5.853   0.225
 2052TIP3    H2 6042   2.552   5.842   0.371
 2053TIP3   OH2 6043   3.074   5.951   0.267
 2053TIP3    H1 6044   3.071   5.919   0.176
 2053TIP3    H2 6045   3.059   5.869   0.319
 2054TIP3   OH2 6046   3.124   5.875  -0.121
 2054TIP3    H1 6047   3.069   5.884  -0.202
 2054TIP3    H2 6048   3.092   5.789  -0.086
 2055TIP3   OH2 6049   2.079   5.797  -0.280
 2055TIP3    H1 6050   2.053   5.708  -0.254
 2055TIP3    H2 6051   2.103   5.838  -0.195
 2056TIP3   OH2 6052   2.506   5.973  -0.087
 2056TIP3    H1 6053   2.570   5.930  -0.027
 2056TIP3    H2 6054   2.525   6.067  -0.064
 2057TIP3   OH2 6055   2.291   6.053   1.295
 2057TIP3    H1 6056   2.256   5.983   1.352
 2057TIP3    H2 6057   2.386   6.053   1.323
 2058TIP3   OH2 6058   2.541   6.050   1.414
 2058TIP3    H1 6059   2.625   6.023   1.376
 2058TIP3    H2 6060   2.527   5.980   1.482
 2059TIP3   OH2 6061   3.365   6.111   1.202
 2059TIP3    H1 6062   3.384   6.080   1.293
 2059TIP3    H2 6063   3.454   6.106   1.161
 2060TIP3   OH2 6064   3.305   7.664   0.695
 2060TIP3    H1 6065   3.226   7.632   0.646
 2060TIP3    H2 6066   3.285   7.759   0.699
 2061TIP3   OH2 6067   3.871   6.928   0.208
 2061TIP3    H1 6068   3.908   6.872   0.278
 2061TIP3    H2 6069   3.931   7.004   0.207
 2062TIP3   OH2 6070   3.741   6.607  -0.013
 2062TIP3    H1 6071   3.827   6.605   0.031
 2062TIP3    H2 6072   3.761   6.560  -0.095
 2063TIP3   OH2 6073   4.113   6.403   0.324
 2063TIP3    H1 6074   4.054   6.438   0.255
 2063TIP3    H2 6075   4.060   6.422   0.404
 2064TIP3   OH2 6076   3.991   6.511   0.096
 2064TIP3    H1 6077   4.050   6.583   0.127
 2064TIP3    H2 6078   4.026   6.499   0.005
 2065TIP3   OH2 6079   4.057   7.309   0.258
 2065TIP3    H1 6080   4.037   7.372   0.186
 2065TIP3    H2 6081   3.976   7.320   0.311
 2066TIP3   OH2 6082   4.479   6.119   0.060
 2066TIP3    H1 6083   4.454   6.027   0.078
 2066TIP3    H2 6084   4.395   6.165   0.080
 2067TIP3   OH2 6085   4.234   7.455   0.418
 2067TIP3    H1 6086   4.202   7.546   0.410
 2067TIP3    H2 6087   4.178   7.408   0.353
 2068TIP3   OH2 6088   4.006   7.047   0.461
 2068TIP3    H1 6089   4.015   7.138   0.497
 2068TIP3    H2 6090   3.911   7.031   0.478
 2069TIP3   OH2 6091   4.038   7.677   0.442
 2069TIP3    H1 6092   3.999   7.647   0.359
 2069TIP3    H2 6093   3.968   7.653   0.506
 2070TIP3   OH2 6094   3.628   7.192   0.392
 2070TIP3    H1 6095   3.562   7.165   0.325
 2070TIP3    H2 6096   3.666   7.106   0.421
 2071TIP3   OH2 6097   3.528   7.376   0.084
 2071TIP3    H1 6098   3.616   7.361   0.047
 2071TIP3    H2 6099   3.549   7.451   0.144
 2072TIP3   OH2 6100   5.267   6.994   0.369
 2072TIP3    H1 6101   5.183   6.998   0.318
 2072TIP3    H2 6102   5.286   6.900   0.363
 2073TIP3   OH2 6103   3.825   7.385   0.388
 2073TIP3    H1 6104   3.872   7.369   0.472
 2073TIP3    H2 6105   3.751   7.320   0.393
 2074TIP3   OH2 6106   4.229   6.204   0.165
 2074TIP3    H1 6107   4.140   6.171   0.140
 2074TIP3    H2 6108   4.202   6.281   0.218
 2075TIP3   OH2 6109   4.765   6.312   0.358
 2075TIP3    H1 6110   4.837   6.291   0.421
 2075TIP3    H2 6111   4.684   6.293   0.409
 2076TIP3   OH2 6112   4.168   6.703   0.213
 2076TIP3    H1 6113   4.115   6.726   0.292
 2076TIP3    H2 6114   4.119   6.747   0.141
 2077TIP3   OH2 6115   4.708   6.970   0.514
 2077TIP3    H1 6116   4.691   6.893   0.573
 2077TIP3    H2 6117   4.805   6.977   0.522
 2078TIP3   OH2 6118   3.976   6.746   0.405
 2078TIP3    H1 6119   4.000   6.811   0.472
 2078TIP3    H2 6120   3.964   6.665   0.457
 2079TIP3   OH2 6121   3.602   6.249   0.001
 2079TIP3    H1 6122   3.648   6.301   0.070
 2079TIP3    H2 6123   3.677   6.203  -0.039
 2080TIP3   OH2 6124   3.990   7.298   0.598
 2080TIP3    H1 6125   4.073   7.332   0.638
 2080TIP3    H2 6126   3.932   7.298   0.676
 2081TIP3   OH2 6127   4.530   7.298   0.274
 2081TIP3    H1 6128   4.556   7.286   0.367
 2081TIP3    H2 6129   4.542   7.394   0.267
 2082TIP3   OH2 6130   3.744   6.982   0.531
 2082TIP3    H1 6131   3.764   6.969   0.626
 2082TIP3    H2 6132   3.676   6.914   0.516
 2083TIP3   OH2 6133   4.468   7.095   0.552
 2083TIP3    H1 6134   4.411   7.033   0.505
 2083TIP3    H2 6135   4.557   7.059   0.531
 2084TIP3   OH2 6136   3.955   6.489   0.539
 2084TIP3    H1 6137   3.858   6.490   0.551
 2084TIP3    H2 6138   3.983   6.428   0.610
 2085TIP3   OH2 6139   3.671   7.567   0.208
 2085TIP3    H1 6140   3.742   7.514   0.247
 2085TIP3    H2 6141   3.703   7.657   0.215
 2086TIP3   OH2 6142   4.739   6.548   0.216
 2086TIP3    H1 6143   4.833   6.576   0.205
 2086TIP3    H2 6144   4.751   6.469   0.271
 2087TIP3   OH2 6145   4.652   6.809   0.299
 2087TIP3    H1 6146   4.676   6.865   0.377
 2087TIP3    H2 6147   4.692   6.724   0.326
 2088TIP3   OH2 6148   3.968   6.122   0.144
 2088TIP3    H1 6149   3.934   6.088   0.058
 2088TIP3    H2 6150   3.958   6.043   0.201
 2089TIP3   OH2 6151   3.664   7.880   0.597
 2089TIP3    H1 6152   3.751   7.878   0.642
 2089TIP3    H2 6153   3.643   7.785   0.592
 2090TIP3   OH2 6154   4.146   7.846   0.637
 2090TIP3    H1 6155   4.241   7.828   0.639
 2090TIP3    H2 6156   4.118   7.792   0.560
 2091TIP3   OH2 6157   4.781   7.717   0.353
 2091TIP3    H1 6158   4.766   7.675   0.441
 2091TIP3    H2 6159   4.850   7.782   0.372
 2092TIP3   OH2 6160   3.793   7.287   0.794
 2092TIP3    H1 6161   3.810   7.191   0.798
 2092TIP3    H2 6162   3.706   7.291   0.749
 2093TIP3   OH2 6163   4.423   7.370   0.582
 2093TIP3    H1 6164   4.360   7.391   0.509
 2093TIP3    H2 6165   4.438   7.274   0.569
 2094TIP3   OH2 6166   3.913   7.021   0.774
 2094TIP3    H1 6167   3.989   6.967   0.752
 2094TIP3    H2 6168   3.938   7.055   0.862
 2095TIP3   OH2 6169   4.240   6.900   0.446
 2095TIP3    H1 6170   4.162   6.960   0.448
 2095TIP3    H2 6171   4.290   6.936   0.370
 2096TIP3   OH2 6172   4.765   7.295   0.563
 2096TIP3    H1 6173   4.853   7.277   0.528
 2096TIP3    H2 6174   4.759   7.233   0.637
 2097TIP3   OH2 6175   4.369   6.691   0.564
 2097TIP3    H1 6176   4.371   6.612   0.506
 2097TIP3    H2 6177   4.322   6.757   0.508
 2098TIP3   OH2 6178   4.369   6.482   0.367
 2098TIP3    H1 6179   4.381   6.538   0.289
 2098TIP3    H2 6180   4.275   6.455   0.357
 2099TIP3   OH2 6181   4.399   7.033   0.273
 2099TIP3    H1 6182   4.490   7.045   0.242
 2099TIP3    H2 6183   4.370   7.125   0.273
 2100TIP3   OH2 6184   4.986   6.983   0.631
 2100TIP3    H1 6185   5.023   6.894   0.621
 2100TIP3    H2 6186   5.050   7.037   0.582
 2101TIP3   OH2 6187   5.008   7.223   0.387
 2101TIP3    H1 6188   4.949   7.239   0.312
 2101TIP3    H2 6189   5.092   7.248   0.346
 2102TIP3   OH2 6190   4.248   6.807   0.793
 2102TIP3    H1 6191   4.180   6.738   0.807
 2102TIP3    H2 6192   4.283   6.782   0.705
 2103TIP3   OH2 6193   4.504   6.245   0.437
 2103TIP3    H1 6194   4.455   6.327   0.412
 2103TIP3    H2 6195   4.435   6.177   0.425
 2104TIP3   OH2 6196   4.625   6.753   0.657
 2104TIP3    H1 6197   4.615   6.738   0.753
 2104TIP3    H2 6198   4.536   6.725   0.627
 2105TIP3   OH2 6199   4.863   6.716   0.509
 2105TIP3    H1 6200   4.798   6.700   0.579
 2105TIP3    H2 6201   4.943   6.672   0.541
 2106TIP3   OH2 6202   5.110   6.641   0.660
 2106TIP3    H1 6203   5.114   6.545   0.677
 2106TIP3    H2 6204   5.100   6.678   0.750
 2107TIP3   OH2 6205   4.089   6.586   0.845
 2107TIP3    H1 6206   4.094   6.495   0.811
 2107TIP3    H2 6207   4.125   6.574   0.935
 2108TIP3   OH2 6208   4.600   6.253   0.694
 2108TIP3    H1 6209   4.667   6.183   0.687
 2108TIP3    H2 6210   4.560   6.248   0.605
 2109TIP3   OH2 6211   4.665   6.468   0.854
 2109TIP3    H1 6212   4.644   6.397   0.789
 2109TIP3    H2 6213   4.587   6.527   0.846
 2110TIP3   OH2 6214   5.214   7.660   0.471
 2110TIP3    H1 6215   5.136   7.672   0.530
 2110TIP3    H2 6216   5.223   7.749   0.434
 2111TIP3   OH2 6217   3.611   6.946   0.140
 2111TIP3    H1 6218   3.618   6.928   0.046
 2111TIP3    H2 6219   3.707   6.943   0.165
 2112TIP3   OH2 6220   3.822   6.638   0.816
 2112TIP3    H1 6221   3.920   6.631   0.818
 2112TIP3    H2 6222   3.797   6.552   0.856
 2113TIP3   OH2 6223   5.695   6.493   0.588
 2113TIP3    H1 6224   5.734   6.431   0.523
 2113TIP3    H2 6225   5.634   6.544   0.530
 2114TIP3   OH2 6226   3.792   6.335   0.174
 2114TIP3    H1 6227   3.852   6.258   0.174
 2114TIP3    H2 6228   3.854   6.405   0.148
 2115TIP3   OH2 6229   3.585   6.604   0.218
 2115TIP3    H1 6230   3.636   6.601   0.134
 2115TIP3    H2 6231   3.616   6.686   0.257
 2116TIP3   OH2 6232   5.507   6.628   0.454
 2116TIP3    H1 6233   5.416   6.656   0.437
 2116TIP3    H2 6234   5.542   6.634   0.363
 2117TIP3   OH2 6235   3.790   6.188   0.535
 2117TIP3    H1 6236   3.738   6.181   0.617
 2117TIP3    H2 6237   3.724   6.225   0.474
 2118TIP3   OH2 6238   3.831   7.614   0.615
 2118TIP3    H1 6239   3.739   7.587   0.595
 2118TIP3    H2 6240   3.836   7.597   0.710
 2119TIP3   OH2 6241   5.402   6.368   0.307
 2119TIP3    H1 6242   5.372   6.455   0.277
 2119TIP3    H2 6243   5.476   6.350   0.248
 2120TIP3   OH2 6244   3.662   7.895   0.164
 2120TIP3    H1 6245   3.577   7.943   0.163
 2120TIP3    H2 6246   3.707   7.938   0.238
 2121TIP3   OH2 6247   3.872   6.026  -0.092
 2121TIP3    H1 6248   3.783   5.989  -0.109
 2121TIP3    H2 6249   3.927   5.947  -0.109
 2122TIP3   OH2 6250   4.087   6.311   0.782
 2122TIP3    H1 6251   4.052   6.240   0.838
 2122TIP3    H2 6252   4.182   6.310   0.810
 2123TIP3   OH2 6253   4.336   6.307   0.901
 2123TIP3    H1 6254   4.421   6.282   0.862
 2123TIP3    H2 6255   4.324   6.236   0.968
 2124TIP3   OH2 6256   5.154   6.368   0.695
 2124TIP3    H1 6257   5.174   6.337   0.786
 2124TIP3    H2 6258   5.244   6.366   0.655
 2125TIP3   OH2 6259   6.140   6.580   0.418
 2125TIP3    H1 6260   6.199   6.541   0.352
 2125TIP3    H2 6261   6.099   6.502   0.460
 2126TIP3   OH2 6262   1.730   7.829   1.203
 2126TIP3    H1 6263   1.772   7.742   1.192
 2126TIP3    H2 6264   1.653   7.818   1.146
 2127TIP3   OH2 6265   3.220   8.343   0.248
 2127TIP3    H1 6266   3.258   8.407   0.186
 2127TIP3    H2 6267   3.283   8.352   0.321
 2128TIP3   OH2 6268   3.042   8.052   0.235
 2128TIP3    H1 6269   2.962   8.101   0.257
 2128TIP3    H2 6270   3.027   8.035   0.139
 2129TIP3   OH2 6271   3.087   8.528   0.556
 2129TIP3    H1 6272   3.053   8.531   0.464
 2129TIP3    H2 6273   3.096   8.431   0.569
 2130TIP3   OH2 6274   2.615   7.875   0.522
 2130TIP3    H1 6275   2.684   7.842   0.583
 2130TIP3    H2 6276   2.532   7.854   0.567
 2131TIP3   OH2 6277   2.855   8.332   0.435
 2131TIP3    H1 6278   2.817   8.301   0.521
 2131TIP3    H2 6279   2.777   8.373   0.399
 2132TIP3   OH2 6280   2.600   8.561   0.745
 2132TIP3    H1 6281   2.557   8.473   0.754
 2132TIP3    H2 6282   2.694   8.537   0.738
 2133TIP3   OH2 6283   2.660   8.108   0.364
 2133TIP3    H1 6284   2.696   8.136   0.448
 2133TIP3    H2 6285   2.618   8.023   0.390
 2134TIP3   OH2 6286   3.105   8.240   0.479
 2134TIP3    H1 6287   3.009   8.256   0.472
 2134TIP3    H2 6288   3.130   8.240   0.385
 2135TIP3   OH2 6289   2.880   8.548   0.765
 2135TIP3    H1 6290   2.895   8.461   0.803
 2135TIP3    H2 6291   2.961   8.560   0.712
 2136TIP3   OH2 6292   2.342   7.816   0.587
 2136TIP3    H1 6293   2.303   7.880   0.526
 2136TIP3    H2 6294   2.280   7.740   0.575
 2137TIP3   OH2 6295   2.488   8.310   0.803
 2137TIP3    H1 6296   2.486   8.304   0.900
 2137TIP3    H2 6297   2.395   8.289   0.784
 2138TIP3   OH2 6298   2.723   8.256   0.654
 2138TIP3    H1 6299   2.640   8.260   0.707
 2138TIP3    H2 6300   2.789   8.226   0.720
 2139TIP3   OH2 6301   2.945   8.198   0.813
 2139TIP3    H1 6302   2.957   8.102   0.829
 2139TIP3    H2 6303   2.940   8.235   0.903
 2140TIP3   OH2 6304   2.042   8.188   0.987
 2140TIP3    H1 6305   1.985   8.133   0.931
 2140TIP3    H2 6306   2.018   8.153   1.074
 2141TIP3   OH2 6307   2.446   7.816   0.843
 2141TIP3    H1 6308   2.508   7.742   0.837
 2141TIP3    H2 6309   2.401   7.810   0.756
 2142TIP3   OH2 6310   2.506   8.030   1.003
 2142TIP3    H1 6311   2.488   7.956   0.941
 2142TIP3    H2 6312   2.427   8.086   0.993
 2143TIP3   OH2 6313   3.288   8.673   0.431
 2143TIP3    H1 6314   3.213   8.625   0.470
 2143TIP3    H2 6315   3.360   8.609   0.446
 2144TIP3   OH2 6316   3.037   8.582   0.294
 2144TIP3    H1 6317   2.979   8.527   0.240
 2144TIP3    H2 6318   3.093   8.624   0.226
 2145TIP3   OH2 6319   3.495   8.060   0.721
 2145TIP3    H1 6320   3.556   7.994   0.680
 2145TIP3    H2 6321   3.473   8.116   0.644
 2146TIP3   OH2 6322   3.369   8.204   0.525
 2146TIP3    H1 6323   3.277   8.230   0.546
 2146TIP3    H2 6324   3.351   8.123   0.473
 2147TIP3   OH2 6325   3.275   7.967   0.409
 2147TIP3    H1 6326   3.185   7.974   0.372
 2147TIP3    H2 6327   3.295   7.871   0.398
 2148TIP3   OH2 6328   1.983   7.759   0.914
 2148TIP3    H1 6329   1.935   7.715   0.987
 2148TIP3    H2 6330   2.046   7.814   0.962
 2149TIP3   OH2 6331   2.188   7.876   1.070
 2149TIP3    H1 6332   2.267   7.841   1.025
 2149TIP3    H2 6333   2.169   7.804   1.133
 2150TIP3   OH2 6334   3.003   7.927   0.840
 2150TIP3    H1 6335   3.022   7.895   0.931
 2150TIP3    H2 6336   3.092   7.921   0.798
 2151TIP3   OH2 6337   3.571   8.807   0.422
 2151TIP3    H1 6338   3.607   8.733   0.473
 2151TIP3    H2 6339   3.560   8.875   0.492
 2152TIP3   OH2 6340   3.852   8.632   0.397
 2152TIP3    H1 6341   3.800   8.555   0.429
 2152TIP3    H2 6342   3.908   8.592   0.330
 2153TIP3   OH2 6343   3.726   8.406   0.489
 2153TIP3    H1 6344   3.730   8.326   0.433
 2153TIP3    H2 6345   3.762   8.374   0.574
 2154TIP3   OH2 6346   4.275   8.264   0.468
 2154TIP3    H1 6347   4.239   8.236   0.382
 2154TIP3    H2 6348   4.221   8.344   0.483
 2155TIP3   OH2 6349   3.455   8.461   0.461
 2155TIP3    H1 6350   3.552   8.452   0.450
 2155TIP3    H2 6351   3.435   8.372   0.497
 2156TIP3   OH2 6352   3.410   8.006   0.162
 2156TIP3    H1 6353   3.373   7.986   0.250
 2156TIP3    H2 6354   3.351   8.075   0.131
 2157TIP3   OH2 6355   3.721   8.112   0.428
 2157TIP3    H1 6356   3.696   8.039   0.486
 2157TIP3    H2 6357   3.815   8.124   0.453
 2158TIP3   OH2 6358   3.969   8.129   0.548
 2158TIP3    H1 6359   4.048   8.108   0.496
 2158TIP3    H2 6360   3.963   8.052   0.609
 2159TIP3   OH2 6361   1.638  -0.094   4.789
 2159TIP3    H1 6362   1.570  -0.158   4.765
 2159TIP3    H2 6363   1.607  -0.012   4.744
 2160TIP3   OH2 6364   1.854   0.256   4.850
 2160TIP3    H1 6365   1.855   0.160   4.866
 2160TIP3    H2 6366   1.772   0.282   4.897
 2161TIP3   OH2 6367   1.542   0.606   4.948
 2161TIP3    H1 6368   1.541   0.630   4.853
 2161TIP3    H2 6369   1.621   0.654   4.979
 2162TIP3   OH2 6370   1.877  -0.029   4.892
 2162TIP3    H1 6371   1.779  -0.039   4.886
 2162TIP3    H2 6372   1.900  -0.061   4.802
 2163TIP3   OH2 6373   1.386   0.293   4.781
 2163TIP3    H1 6374   1.302   0.250   4.800
 2163TIP3    H2 6375   1.363   0.361   4.714
 2164TIP3   OH2 6376   1.361   0.153   5.098
 2164TIP3    H1 6377   1.279   0.136   5.145
 2164TIP3    H2 6378   1.403   0.220   5.154
 2165TIP3   OH2 6379   1.641   0.361   4.327
 2165TIP3    H1 6380   1.666   0.393   4.416
 2165TIP3    H2 6381   1.711   0.399   4.272
 2166TIP3   OH2 6382   1.682   0.380   4.616
 2166TIP3    H1 6383   1.644   0.291   4.613
 2166TIP3    H2 6384   1.759   0.364   4.673
 2167TIP3   OH2 6385   1.744   0.053   5.183
 2167TIP3    H1 6386   1.667   0.058   5.244
 2167TIP3    H2 6387   1.778   0.144   5.190
 2168TIP3   OH2 6388   1.554   0.129   4.646
 2168TIP3    H1 6389   1.496   0.184   4.704
 2168TIP3    H2 6390   1.494   0.101   4.577
 2169TIP3   OH2 6391   1.783  -0.278   5.021
 2169TIP3    H1 6392   1.845  -0.352   5.008
 2169TIP3    H2 6393   1.807  -0.216   4.950
 2170TIP3   OH2 6394   1.949  -0.497   5.034
 2170TIP3    H1 6395   1.898  -0.571   5.068
 2170TIP3    H2 6396   2.039  -0.519   5.058
 2171TIP3   OH2 6397   1.140   0.469   4.909
 2171TIP3    H1 6398   1.207   0.401   4.909
 2171TIP3    H2 6399   1.175   0.527   4.979
 2172TIP3   OH2 6400   1.346   0.462   4.569
 2172TIP3    H1 6401   1.314   0.550   4.540
 2172TIP3    H2 6402   1.371   0.423   4.485
 2173TIP3   OH2 6403   1.612   0.339   4.955
 2173TIP3    H1 6404   1.533   0.299   4.913
 2173TIP3    H2 6405   1.587   0.433   4.954
 2174TIP3   OH2 6406   2.910  -0.262   3.773
 2174TIP3    H1 6407   2.891  -0.168   3.759
 2174TIP3    H2 6408   2.836  -0.303   3.726
 2175TIP3   OH2 6409   2.857  -0.296   4.107
 2175TIP3    H1 6410   2.906  -0.303   4.191
 2175TIP3    H2 6411   2.830  -0.389   4.096
 2176TIP3   OH2 6412   2.169  -0.397   4.454
 2176TIP3    H1 6413   2.198  -0.459   4.524
 2176TIP3    H2 6414   2.253  -0.356   4.430
 2177TIP3   OH2 6415   3.113   0.011   3.781
 2177TIP3    H1 6416   3.109  -0.060   3.846
 2177TIP3    H2 6417   3.143   0.086   3.834
 2178TIP3   OH2 6418   2.170   0.025   4.216
 2178TIP3    H1 6419   2.155  -0.069   4.209
 2178TIP3    H2 6420   2.265   0.032   4.197
 2179TIP3   OH2 6421   2.764   0.476   3.797
 2179TIP3    H1 6422   2.808   0.403   3.748
 2179TIP3    H2 6423   2.760   0.439   3.886
 2180TIP3   OH2 6424   2.675  -0.068   4.142
 2180TIP3    H1 6425   2.719  -0.149   4.110
 2180TIP3    H2 6426   2.756  -0.017   4.165
 2181TIP3   OH2 6427   3.092  -0.554   4.178
 2181TIP3    H1 6428   3.119  -0.641   4.211
 2181TIP3    H2 6429   3.051  -0.578   4.093
 2182TIP3   OH2 6430   3.733  -0.563   4.333
 2182TIP3    H1 6431   3.669  -0.492   4.312
 2182TIP3    H2 6432   3.780  -0.528   4.410
 2183TIP3   OH2 6433   2.778  -0.016   3.639
 2183TIP3    H1 6434   2.802  -0.042   3.549
 2183TIP3    H2 6435   2.725   0.065   3.623
 2184TIP3   OH2 6436   2.524  -0.147   4.373
 2184TIP3    H1 6437   2.464  -0.082   4.415
 2184TIP3    H2 6438   2.568  -0.093   4.304
 2185TIP3   OH2 6439   2.355   0.048   4.472
 2185TIP3    H1 6440   2.327   0.134   4.432
 2185TIP3    H2 6441   2.277   0.032   4.528
 2186TIP3   OH2 6442   3.186   0.255   3.946
 2186TIP3    H1 6443   3.097   0.246   3.985
 2186TIP3    H2 6444   3.178   0.341   3.901
 2187TIP3   OH2 6445   2.879   0.298   3.623
 2187TIP3    H1 6446   2.931   0.217   3.605
 2187TIP3    H2 6447   2.940   0.364   3.584
 2188TIP3   OH2 6448   3.042   0.101   3.530
 2188TIP3    H1 6449   3.056   0.023   3.473
 2188TIP3    H2 6450   3.071   0.064   3.617
 2189TIP3   OH2 6451   3.412   0.167   4.291
 2189TIP3    H1 6452   3.404   0.090   4.231
 2189TIP3    H2 6453   3.397   0.242   4.229
 2190TIP3   OH2 6454   3.606  -0.203   4.133
 2190TIP3    H1 6455   3.526  -0.147   4.136
 2190TIP3    H2 6456   3.644  -0.176   4.047
 2191TIP3   OH2 6457   3.058  -0.327   3.548
 2191TIP3    H1 6458   3.049  -0.306   3.643
 2191TIP3    H2 6459   3.144  -0.375   3.547
 2192TIP3   OH2 6460   3.280  -0.312   4.424
 2192TIP3    H1 6461   3.281  -0.228   4.474
 2192TIP3    H2 6462   3.197  -0.301   4.372
 2193TIP3   OH2 6463   2.420   0.045   4.086
 2193TIP3    H1 6464   2.408  -0.003   4.004
 2193TIP3    H2 6465   2.511   0.021   4.110
 2194TIP3   OH2 6466   2.418  -0.392   4.292
 2194TIP3    H1 6467   2.457  -0.420   4.208
 2194TIP3    H2 6468   2.464  -0.308   4.312
 2195TIP3   OH2 6469   2.945   0.250   4.067
 2195TIP3    H1 6470   2.933   0.331   4.120
 2195TIP3    H2 6471   2.931   0.178   4.131
 2196TIP3   OH2 6472   2.559   0.172   4.613
 2196TIP3    H1 6473   2.499   0.233   4.661
 2196TIP3    H2 6474   2.493   0.117   4.565
 2197TIP3   OH2 6475   2.306  -0.264   4.710
 2197TIP3    H1 6476   2.310  -0.182   4.762
 2197TIP3    H2 6477   2.212  -0.285   4.712
 2198TIP3   OH2 6478   2.616   0.212   3.620
 2198TIP3    H1 6479   2.701   0.256   3.637
 2198TIP3    H2 6480   2.566   0.281   3.573
 2199TIP3   OH2 6481   2.352   0.339   4.701
 2199TIP3    H1 6482   2.318   0.337   4.610
 2199TIP3    H2 6483   2.273   0.316   4.754
 2200TIP3   OH2 6484   3.238   0.140   2.958
 2200TIP3    H1 6485   3.180   0.154   2.882
 2200TIP3    H2 6486   3.299   0.071   2.926
 2201TIP3   OH2 6487   1.940  -0.134   4.649
 2201TIP3    H1 6488   1.894  -0.160   4.568
 2201TIP3    H2 6489   1.973  -0.220   4.683
 2202TIP3   OH2 6490   1.800   0.046   4.293
 2202TIP3    H1 6491   1.890   0.074   4.272
 2202TIP3    H2 6492   1.764   0.126   4.332
 2203TIP3   OH2 6493   3.648   0.512   4.331
 2203TIP3    H1 6494   3.650   0.416   4.347
 2203TIP3    H2 6495   3.566   0.536   4.381
 2204TIP3   OH2 6496   2.755   0.300   4.469
 2204TIP3    H1 6497   2.755   0.392   4.504
 2204TIP3    H2 6498   2.685   0.259   4.525
 2205TIP3   OH2 6499   2.510   0.426   3.427
 2205TIP3    H1 6500   2.457   0.419   3.346
 2205TIP3    H2 6501   2.493   0.518   3.455
 2206TIP3   OH2 6502   2.772   0.388   3.349
 2206TIP3    H1 6503   2.678   0.389   3.375
 2206TIP3    H2 6504   2.810   0.325   3.412
 2207TIP3   OH2 6505   3.541  -0.365   4.626
 2207TIP3    H1 6506   3.470  -0.333   4.569
 2207TIP3    H2 6507   3.562  -0.451   4.587
 2208TIP3   OH2 6508   2.139   0.053   4.637
 2208TIP3    H1 6509   2.189   0.036   4.720
 2208TIP3    H2 6510   2.064  -0.010   4.646
 2209TIP3   OH2 6511   3.220  -0.491   4.632
 2209TIP3    H1 6512   3.246  -0.580   4.606
 2209TIP3    H2 6513   3.230  -0.439   4.550
 2210TIP3   OH2 6514   2.481  -0.612   4.454
 2210TIP3    H1 6515   2.409  -0.598   4.517
 2210TIP3    H2 6516   2.458  -0.546   4.386
 2211TIP3   OH2 6517   3.018  -0.307   4.725
 2211TIP3    H1 6518   3.007  -0.358   4.809
 2211TIP3    H2 6519   3.114  -0.317   4.712
 2212TIP3   OH2 6520   3.005  -0.615   3.918
 2212TIP3    H1 6521   2.969  -0.567   3.842
 2212TIP3    H2 6522   3.056  -0.685   3.875
 2213TIP3   OH2 6523   2.283  -0.574   4.645
 2213TIP3    H1 6524   2.321  -0.521   4.716
 2213TIP3    H2 6525   2.262  -0.658   4.688
 2214TIP3   OH2 6526   3.004  -0.358   4.342
 2214TIP3    H1 6527   3.038  -0.430   4.283
 2214TIP3    H2 6528   2.977  -0.410   4.420
 2215TIP3   OH2 6529   3.341   0.863   4.434
 2215TIP3    H1 6530   3.338   0.890   4.340
 2215TIP3    H2 6531   3.417   0.914   4.467
 2216TIP3   OH2 6532   2.299  -0.027   4.857
 2216TIP3    H1 6533   2.380   0.002   4.904
 2216TIP3    H2 6534   2.235  -0.025   4.931
 2217TIP3   OH2 6535   2.788  -0.563   4.129
 2217TIP3    H1 6536   2.831  -0.626   4.069
 2217TIP3    H2 6537   2.772  -0.618   4.208
 2218TIP3   OH2 6538   2.745  -0.683   4.414
 2218TIP3    H1 6539   2.653  -0.649   4.425
 2218TIP3    H2 6540   2.797  -0.622   4.470
 2219TIP3   OH2 6541   3.377  -0.049   4.125
 2219TIP3    H1 6542   3.403  -0.002   4.043
 2219TIP3    H2 6543   3.293  -0.092   4.099
 2220TIP3   OH2 6544   2.873   0.032   4.492
 2220TIP3    H1 6545   2.899   0.007   4.581
 2220TIP3    H2 6546   2.837   0.122   4.503
 2221TIP3   OH2 6547   2.041  -0.342   4.795
 2221TIP3    H1 6548   2.086  -0.340   4.882
 2221TIP3    H2 6549   1.997  -0.428   4.799
 2222TIP3   OH2 6550   2.766  -0.224   4.803
 2222TIP3    H1 6551   2.703  -0.284   4.759
 2222TIP3    H2 6552   2.850  -0.248   4.758
 2223TIP3   OH2 6553   3.034   0.290   4.390
 2223TIP3    H1 6554   2.938   0.290   4.402
 2223TIP3    H2 6555   3.062   0.344   4.468
 2224TIP3   OH2 6556   3.663   0.223   4.379
 2224TIP3    H1 6557   3.565   0.216   4.370
 2224TIP3    H2 6558   3.690   0.192   4.290
 2225TIP3   OH2 6559   3.135   0.162   3.219
 2225TIP3    H1 6560   3.112   0.098   3.288
 2225TIP3    H2 6561   3.123   0.108   3.139
 2226TIP3   OH2 6562   3.142  -0.188   4.044
 2226TIP3    H1 6563   3.048  -0.214   4.050
 2226TIP3    H2 6564   3.178  -0.268   3.999
 2227TIP3   OH2 6565   2.539   0.383   4.265
 2227TIP3    H1 6566   2.580   0.457   4.216
 2227TIP3    H2 6567   2.615   0.350   4.316
 2228TIP3   OH2 6568   2.926   0.017   4.224
 2228TIP3    H1 6569   2.916   0.016   4.322
 2228TIP3    H2 6570   3.008  -0.031   4.212
 2229TIP3   OH2 6571   3.174   0.551   4.275
 2229TIP3    H1 6572   3.095   0.495   4.267
 2229TIP3    H2 6573   3.160   0.616   4.203
 2230TIP3   OH2 6574   3.243   0.429   2.924
 2230TIP3    H1 6575   3.262   0.481   2.843
 2230TIP3    H2 6576   3.153   0.463   2.944
 2231TIP3   OH2 6577   3.080  -0.113   3.373
 2231TIP3    H1 6578   3.090  -0.196   3.425
 2231TIP3    H2 6579   3.151  -0.128   3.308
 2232TIP3   OH2 6580   1.977   0.251   4.428
 2232TIP3    H1 6581   2.028   0.173   4.455
 2232TIP3    H2 6582   2.009   0.318   4.489
 2233TIP3   OH2 6583   2.930  -0.526   4.567
 2233TIP3    H1 6584   2.948  -0.455   4.631
 2233TIP3    H2 6585   3.010  -0.579   4.574
 2234TIP3   OH2 6586   3.224  -0.426   3.918
 2234TIP3    H1 6587   3.158  -0.492   3.942
 2234TIP3    H2 6588   3.304  -0.462   3.963
 2235TIP3   OH2 6589   3.196   0.525   3.867
 2235TIP3    H1 6590   3.153   0.573   3.792
 2235TIP3    H2 6591   3.290   0.543   3.846
 2236TIP3   OH2 6592   1.966   0.554   4.848
 2236TIP3    H1 6593   2.053   0.554   4.894
 2236TIP3    H2 6594   1.947   0.459   4.846
 2237TIP3   OH2 6595   2.449   0.518   4.893
 2237TIP3    H1 6596   2.544   0.498   4.898
 2237TIP3    H2 6597   2.422   0.460   4.819
 2238TIP3   OH2 6598   3.085   0.427   4.626
 2238TIP3    H1 6599   3.078   0.357   4.694
 2238TIP3    H2 6600   3.164   0.477   4.655
 2239TIP3   OH2 6601   2.103  -0.033   5.048
 2239TIP3    H1 6602   2.112  -0.128   5.067
 2239TIP3    H2 6603   2.015  -0.031   5.004
 2240TIP3   OH2 6604   2.705   0.048   4.822
 2240TIP3    H1 6605   2.664   0.061   4.734
 2240TIP3    H2 6606   2.735  -0.046   4.817
 2241TIP3   OH2 6607   3.197   0.054   4.427
 2241TIP3    H1 6608   3.272   0.098   4.383
 2241TIP3    H2 6609   3.128   0.122   4.414
 2242TIP3   OH2 6610   2.210  -0.321   5.028
 2242TIP3    H1 6611   2.292  -0.367   5.007
 2242TIP3    H2 6612   2.234  -0.283   5.115
 2243TIP3   OH2 6613   2.554  -0.376   4.678
 2243TIP3    H1 6614   2.469  -0.328   4.673
 2243TIP3    H2 6615   2.598  -0.353   4.593
 2244TIP3   OH2 6616   3.072  -0.012   4.829
 2244TIP3    H1 6617   3.148  -0.042   4.780
 2244TIP3    H2 6618   3.065  -0.080   4.898
 2245TIP3   OH2 6619   2.589  -0.597   4.819
 2245TIP3    H1 6620   2.656  -0.651   4.774
 2245TIP3    H2 6621   2.580  -0.520   4.759
 2246TIP3   OH2 6622   2.722  -0.303   4.477
 2246TIP3    H1 6623   2.802  -0.295   4.423
 2246TIP3    H2 6624   2.663  -0.236   4.438
 2247TIP3   OH2 6625   3.298  -0.337   4.896
 2247TIP3    H1 6626   3.322  -0.424   4.861
 2247TIP3    H2 6627   3.359  -0.279   4.849
 2248TIP3   OH2 6628   3.330  -0.094   4.610
 2248TIP3    H1 6629   3.271  -0.038   4.554
 2248TIP3    H2 6630   3.417  -0.069   4.573
 2249TIP3   OH2 6631   2.517  -0.491   5.059
 2249TIP3    H1 6632   2.454  -0.565   5.065
 2249TIP3    H2 6633   2.560  -0.517   4.975
 2250TIP3   OH2 6634   2.979  -0.474   4.930
 2250TIP3    H1 6635   2.955  -0.488   5.023
 2250TIP3    H2 6636   3.029  -0.555   4.910
 2251TIP3   OH2 6637   3.450   0.615   3.824
 2251TIP3    H1 6638   3.469   0.647   3.914
 2251TIP3    H2 6639   3.504   0.674   3.769
 2252TIP3   OH2 6640   3.480   0.633   4.103
 2252TIP3    H1 6641   3.436   0.546   4.102
 2252TIP3    H2 6642   3.550   0.614   4.168
 2253TIP3   OH2 6643   3.524   0.314   4.680
 2253TIP3    H1 6644   3.451   0.323   4.744
 2253TIP3    H2 6645   3.566   0.402   4.684
 2254TIP3   OH2 6646   3.350  -0.144   3.312
 2254TIP3    H1 6647   3.432  -0.098   3.287
 2254TIP3    H2 6648   3.383  -0.211   3.375
 2255TIP3   OH2 6649   3.475  -0.309   3.499
 2255TIP3    H1 6650   3.405  -0.351   3.553
 2255TIP3    H2 6651   3.534  -0.270   3.566
 2256TIP3   OH2 6652   3.522   0.081   3.930
 2256TIP3    H1 6653   3.580   0.019   3.882
 2256TIP3    H2 6654   3.510   0.153   3.866
 2257TIP3   OH2 6655   3.353   0.387   4.130
 2257TIP3    H1 6656   3.282   0.428   4.182
 2257TIP3    H2 6657   3.302   0.338   4.061
 2258TIP3   OH2 6658   3.293  -0.453   3.653
 2258TIP3    H1 6659   3.285  -0.550   3.649
 2258TIP3    H2 6660   3.276  -0.436   3.748
 2259TIP3   OH2 6661   3.577  -0.029   4.507
 2259TIP3    H1 6662   3.648  -0.095   4.494
 2259TIP3    H2 6663   3.601   0.040   4.443
 2260TIP3   OH2 6664   3.759  -0.234   4.523
 2260TIP3    H1 6665   3.693  -0.285   4.574
 2260TIP3    H2 6666   3.842  -0.273   4.553
 2261TIP3   OH2 6667   3.444  -0.519   4.044
 2261TIP3    H1 6668   3.533  -0.512   4.003
 2261TIP3    H2 6669   3.466  -0.509   4.137
 2262TIP3   OH2 6670   3.508  -0.406   4.295
 2262TIP3    H1 6671   3.424  -0.364   4.322
 2262TIP3    H2 6672   3.544  -0.337   4.233
 2263TIP3   OH2 6673   3.033   0.482   3.499
 2263TIP3    H1 6674   3.081   0.485   3.415
 2263TIP3    H2 6675   3.076   0.553   3.550
 2264TIP3   OH2 6676   2.132   0.289   4.867
 2264TIP3    H1 6677   2.041   0.260   4.850
 2264TIP3    H2 6678   2.143   0.267   4.960
 2265TIP3   OH2 6679   2.311   0.320   4.415
 2265TIP3    H1 6680   2.263   0.395   4.375
 2265TIP3    H2 6681   2.398   0.334   4.371
 2266TIP3   OH2 6682   2.757   0.565   4.555
 2266TIP3    H1 6683   2.800   0.567   4.643
 2266TIP3    H2 6684   2.822   0.615   4.501
 2267TIP3   OH2 6685   2.935   0.715   4.412
 2267TIP3    H1 6686   3.007   0.666   4.369
 2267TIP3    H2 6687   2.986   0.774   4.472
 2268TIP3   OH2 6688   1.988   0.578   4.438
 2268TIP3    H1 6689   1.898   0.611   4.415
 2268TIP3    H2 6690   1.998   0.616   4.526
 2269TIP3   OH2 6691   2.224   0.554   4.296
 2269TIP3    H1 6692   2.137   0.568   4.340
 2269TIP3    H2 6693   2.205   0.589   4.206
 2270TIP3   OH2 6694   2.649   0.584   4.095
 2270TIP3    H1 6695   2.582   0.605   4.028
 2270TIP3    H2 6696   2.663   0.672   4.136
 2271TIP3   OH2 6697   2.919   0.523   4.145
 2271TIP3    H1 6698   2.825   0.542   4.126
 2271TIP3    H2 6699   2.963   0.599   4.104
 2272TIP3   OH2 6700   3.124   0.713   4.061
 2272TIP3    H1 6701   3.111   0.798   4.014
 2272TIP3    H2 6702   3.150   0.654   3.987
 2273TIP3   OH2 6703   1.910   0.373   4.187
 2273TIP3    H1 6704   1.924   0.348   4.281
 2273TIP3    H2 6705   1.990   0.330   4.150
 2274TIP3   OH2 6706   2.110   0.243   4.061
 2274TIP3    H1 6707   2.129   0.161   4.112
 2274TIP3    H2 6708   2.199   0.279   4.048
 2275TIP3   OH2 6709   2.371   0.343   4.042
 2275TIP3    H1 6710   2.405   0.253   4.026
 2275TIP3    H2 6711   2.414   0.362   4.128
 2276TIP3   OH2 6712   3.159   0.445   3.246
 2276TIP3    H1 6713   3.102   0.366   3.258
 2276TIP3    H2 6714   3.108   0.495   3.178
 2277TIP3   OH2 6715   3.403   0.594   4.437
 2277TIP3    H1 6716   3.324   0.563   4.388
 2277TIP3    H2 6717   3.385   0.691   4.440
 2278TIP3   OH2 6718   4.674  -0.032   3.202
 2278TIP3    H1 6719   4.644   0.059   3.185
 2278TIP3    H2 6720   4.595  -0.082   3.175
 2279TIP3   OH2 6721   4.672  -0.035   3.582
 2279TIP3    H1 6722   4.701  -0.066   3.670
 2279TIP3    H2 6723   4.622  -0.112   3.551
 2280TIP3   OH2 6724   4.911   0.275   3.265
 2280TIP3    H1 6725   4.899   0.198   3.322
 2280TIP3    H2 6726   4.945   0.342   3.327
 2281TIP3   OH2 6727   3.945   0.274   3.675
 2281TIP3    H1 6728   3.934   0.186   3.720
 2281TIP3    H2 6729   4.042   0.273   3.669
 2282TIP3   OH2 6730   3.637  -0.531   3.448
 2282TIP3    H1 6731   3.606  -0.440   3.462
 2282TIP3    H2 6732   3.558  -0.580   3.476
 2283TIP3   OH2 6733   3.713  -0.241   3.632
 2283TIP3    H1 6734   3.763  -0.316   3.671
 2283TIP3    H2 6735   3.780  -0.202   3.574
 2284TIP3   OH2 6736   4.558   0.728   3.286
 2284TIP3    H1 6737   4.613   0.663   3.236
 2284TIP3    H2 6738   4.561   0.690   3.375
 2285TIP3   OH2 6739   4.472   0.203   3.613
 2285TIP3    H1 6740   4.499   0.117   3.579
 2285TIP3    H2 6741   4.558   0.237   3.643
 2286TIP3   OH2 6742   4.883  -0.297   3.666
 2286TIP3    H1 6743   4.917  -0.384   3.691
 2286TIP3    H2 6744   4.849  -0.314   3.576
 2287TIP3   OH2 6745   3.853  -0.453   3.737
 2287TIP3    H1 6746   3.933  -0.475   3.789
 2287TIP3    H2 6747   3.873  -0.504   3.657
 2288TIP3   OH2 6748   4.297  -0.246   3.512
 2288TIP3    H1 6749   4.380  -0.280   3.548
 2288TIP3    H2 6750   4.248  -0.329   3.491
 2289TIP3   OH2 6751   5.528  -0.309   3.822
 2289TIP3    H1 6752   5.476  -0.237   3.781
 2289TIP3    H2 6753   5.577  -0.263   3.891
 2290TIP3   OH2 6754   4.568   0.192   3.069
 2290TIP3    H1 6755   4.517   0.157   2.995
 2290TIP3    H2 6756   4.520   0.275   3.087
 2291TIP3   OH2 6757   4.096  -0.543   3.835
 2291TIP3    H1 6758   4.156  -0.469   3.859
 2291TIP3    H2 6759   4.137  -0.576   3.754
 2292TIP3   OH2 6760   4.164   0.311   3.981
 2292TIP3    H1 6761   4.121   0.364   3.913
 2292TIP3    H2 6762   4.091   0.252   4.007
 2293TIP3   OH2 6763   3.557  -0.002   3.197
 2293TIP3    H1 6764   3.510   0.016   3.113
 2293TIP3    H2 6765   3.575   0.088   3.231
 2294TIP3   OH2 6766   4.981   0.515   3.432
 2294TIP3    H1 6767   4.892   0.502   3.472
 2294TIP3    H2 6768   4.970   0.603   3.391
 2295TIP3   OH2 6769   4.698   0.574   3.112
 2295TIP3    H1 6770   4.737   0.484   3.100
 2295TIP3    H2 6771   4.741   0.621   3.040
 2296TIP3   OH2 6772   4.827   0.354   3.015
 2296TIP3    H1 6773   4.787   0.274   2.977
 2296TIP3    H2 6774   4.863   0.317   3.099
 2297TIP3   OH2 6775   5.210   0.430   3.780
 2297TIP3    H1 6776   5.195   0.351   3.723
 2297TIP3    H2 6777   5.198   0.502   3.715
 2298TIP3   OH2 6778   4.502  -0.182   3.033
 2298TIP3    H1 6779   4.419  -0.134   3.013
 2298TIP3    H2 6780   4.544  -0.187   2.946
 2299TIP3   OH2 6781   4.457  -0.380   2.766
 2299TIP3    H1 6782   4.539  -0.346   2.806
 2299TIP3    H2 6783   4.489  -0.462   2.725
 2300TIP3   OH2 6784   4.850  -0.098   3.004
 2300TIP3    H1 6785   4.795  -0.075   3.082
 2300TIP3    H2 6786   4.933  -0.128   3.047
 2301TIP3   OH2 6787   5.072  -0.052   3.917
 2301TIP3    H1 6788   5.074   0.035   3.960
 2301TIP3    H2 6789   4.991  -0.045   3.863
 2302TIP3   OH2 6790   4.094  -0.096   3.395
 2302TIP3    H1 6791   4.054  -0.170   3.345
 2302TIP3    H2 6792   4.159  -0.143   3.452
 2303TIP3   OH2 6793   4.219   0.325   3.565
 2303TIP3    H1 6794   4.189   0.259   3.501
 2303TIP3    H2 6795   4.306   0.287   3.590
 2304TIP3   OH2 6796   4.738   0.508   3.552
 2304TIP3    H1 6797   4.734   0.583   3.614
 2304TIP3    H2 6798   4.728   0.430   3.610
 2305TIP3   OH2 6799   4.364   0.436   4.106
 2305TIP3    H1 6800   4.301   0.492   4.155
 2305TIP3    H2 6801   4.300   0.379   4.057
 2306TIP3   OH2 6802   4.697  -0.251   2.834
 2306TIP3    H1 6803   4.754  -0.191   2.888
 2306TIP3    H2 6804   4.721  -0.222   2.743
 2307TIP3   OH2 6805   4.107  -0.026   4.214
 2307TIP3    H1 6806   4.106   0.062   4.258
 2307TIP3    H2 6807   4.022  -0.024   4.167
 2308TIP3   OH2 6808   4.441   0.440   3.088
 2308TIP3    H1 6809   4.498   0.495   3.142
 2308TIP3    H2 6810   4.367   0.499   3.067
 2309TIP3   OH2 6811   4.150   0.598   4.192
 2309TIP3    H1 6812   4.118   0.589   4.100
 2309TIP3    H2 6813   4.070   0.573   4.244
 2310TIP3   OH2 6814   3.959  -0.266   3.212
 2310TIP3    H1 6815   3.890  -0.209   3.173
 2310TIP3    H2 6816   3.913  -0.346   3.237
 2311TIP3   OH2 6817   5.006   0.369   2.435
 2311TIP3    H1 6818   5.019   0.464   2.418
 2311TIP3    H2 6819   5.096   0.334   2.419
 2312TIP3   OH2 6820   3.723   0.127   4.134
 2312TIP3    H1 6821   3.666   0.098   4.060
 2312TIP3    H2 6822   3.763   0.042   4.163
 2313TIP3   OH2 6823   3.581   0.324   3.756
 2313TIP3    H1 6824   3.676   0.304   3.761
 2313TIP3    H2 6825   3.572   0.395   3.821
 2314TIP3   OH2 6826   5.446   0.769   3.820
 2314TIP3    H1 6827   5.447   0.672   3.833
 2314TIP3    H2 6828   5.363   0.792   3.868
 2315TIP3   OH2 6829   4.547   0.561   3.951
 2315TIP3    H1 6830   4.550   0.651   3.989
 2315TIP3    H2 6831   4.482   0.517   4.010
 2316TIP3   OH2 6832   4.316   0.689   2.904
 2316TIP3    H1 6833   4.266   0.665   2.824
 2316TIP3    H2 6834   4.279   0.776   2.928
 2317TIP3   OH2 6835   3.755   0.535   3.296
 2317TIP3    H1 6836   3.807   0.524   3.379
 2317TIP3    H2 6837   3.690   0.465   3.307
 2318TIP3   OH2 6838   4.519   0.587   2.552
 2318TIP3    H1 6839   4.574   0.515   2.513
 2318TIP3    H2 6840   4.552   0.589   2.644
 2319TIP3   OH2 6841   4.568   0.632   2.830
 2319TIP3    H1 6842   4.477   0.651   2.862
 2319TIP3    H2 6843   4.589   0.555   2.884
 2320TIP3   OH2 6844   5.338  -0.108   4.109
 2320TIP3    H1 6845   5.267  -0.071   4.055
 2320TIP3    H2 6846   5.359  -0.190   4.062
 2321TIP3   OH2 6847   3.915   0.322   4.129
 2321TIP3    H1 6848   3.979   0.297   4.199
 2321TIP3    H2 6849   3.854   0.246   4.129
 2322TIP3   OH2 6850   5.009  -0.237   4.115
 2322TIP3    H1 6851   5.051  -0.320   4.089
 2322TIP3    H2 6852   5.026  -0.179   4.038
 2323TIP3   OH2 6853   4.765  -0.195   2.576
 2323TIP3    H1 6854   4.731  -0.222   2.489
 2323TIP3    H2 6855   4.845  -0.147   2.551
 2324TIP3   OH2 6856   4.265  -0.344   3.920
 2324TIP3    H1 6857   4.218  -0.332   4.006
 2324TIP3    H2 6858   4.240  -0.263   3.873
 2325TIP3   OH2 6859   4.131  -0.450   3.437
 2325TIP3    H1 6860   4.055  -0.502   3.466
 2325TIP3    H2 6861   4.156  -0.497   3.354
 2326TIP3   OH2 6862   4.646  -0.377   3.165
 2326TIP3    H1 6863   4.592  -0.306   3.125
 2326TIP3    H2 6864   4.689  -0.416   3.087
 2327TIP3   OH2 6865   4.814  -0.048   4.216
 2327TIP3    H1 6866   4.806  -0.098   4.301
 2327TIP3    H2 6867   4.909  -0.059   4.200
 2328TIP3   OH2 6868   4.802  -0.352   3.406
 2328TIP3    H1 6869   4.742  -0.321   3.335
 2328TIP3    H2 6870   4.834  -0.435   3.366
 2329TIP3   OH2 6871   4.119  -0.339   4.153
 2329TIP3    H1 6872   4.102  -0.251   4.187
 2329TIP3    H2 6873   4.039  -0.388   4.175
 2330TIP3   OH2 6874   4.801  -0.103   3.834
 2330TIP3    H1 6875   4.834  -0.173   3.774
 2330TIP3    H2 6876   4.776  -0.157   3.912
 2331TIP3   OH2 6877   3.901  -0.594   3.507
 2331TIP3    H1 6878   3.810  -0.576   3.475
 2331TIP3    H2 6879   3.910  -0.689   3.490
 2332TIP3   OH2 6880   4.197  -0.579   3.205
 2332TIP3    H1 6881   4.284  -0.598   3.166
 2332TIP3    H2 6882   4.139  -0.572   3.126
 2333TIP3   OH2 6883   4.023  -0.536   2.993
 2333TIP3    H1 6884   3.959  -0.599   2.958
 2333TIP3    H2 6885   4.073  -0.512   2.912
 2334TIP3   OH2 6886   5.137   1.121   3.923
 2334TIP3    H1 6887   5.137   1.144   3.828
 2334TIP3    H2 6888   5.216   1.167   3.955
 2335TIP3   OH2 6889   4.091   0.232   4.341
 2335TIP3    H1 6890   4.173   0.260   4.387
 2335TIP3    H2 6891   4.028   0.231   4.415
 2336TIP3   OH2 6892   4.566  -0.313   3.609
 2336TIP3    H1 6893   4.619  -0.367   3.549
 2336TIP3    H2 6894   4.558  -0.370   3.687
 2337TIP3   OH2 6895   4.532  -0.436   3.918
 2337TIP3    H1 6896   4.447  -0.388   3.910
 2337TIP3    H2 6897   4.589  -0.371   3.964
 2338TIP3   OH2 6898   4.270  -0.030   2.979
 2338TIP3    H1 6899   4.197  -0.096   2.972
 2338TIP3    H2 6900   4.254   0.006   3.070
 2339TIP3   OH2 6901   5.154   0.221   3.623
 2339TIP3    H1 6902   5.218   0.223   3.550
 2339TIP3    H2 6903   5.084   0.162   3.589
 2340TIP3   OH2 6904   4.681   0.294   3.977
 2340TIP3    H1 6905   4.695   0.262   4.067
 2340TIP3    H2 6906   4.627   0.374   3.991
 2341TIP3   OH2 6907   4.790  -0.496   2.938
 2341TIP3    H1 6908   4.887  -0.486   2.952
 2341TIP3    H2 6909   4.770  -0.414   2.890
 2342TIP3   OH2 6910   4.414   0.119   2.802
 2342TIP3    H1 6911   4.368   0.205   2.811
 2342TIP3    H2 6912   4.361   0.063   2.863
 2343TIP3   OH2 6913   3.827  -0.079   4.278
 2343TIP3    H1 6914   3.870  -0.096   4.364
 2343TIP3    H2 6915   3.769  -0.156   4.267
 2344TIP3   OH2 6916   4.561   0.032   4.290
 2344TIP3    H1 6917   4.497  -0.030   4.249
 2344TIP3    H2 6918   4.645   0.006   4.247
 2345TIP3   OH2 6919   4.830   0.566   3.866
 2345TIP3    H1 6920   4.736   0.547   3.884
 2345TIP3    H2 6921   4.857   0.607   3.950
 2346TIP3   OH2 6922   5.242  -0.383   2.781
 2346TIP3    H1 6923   5.181  -0.430   2.721
 2346TIP3    H2 6924   5.239  -0.294   2.740
 2347TIP3   OH2 6925   5.462   0.482   3.863
 2347TIP3    H1 6926   5.364   0.474   3.856
 2347TIP3    H2 6927   5.488   0.447   3.774
 2348TIP3   OH2 6928   4.933   0.454   2.698
 2348TIP3    H1 6929   4.921   0.381   2.760
 2348TIP3    H2 6930   4.954   0.408   2.615
 2349TIP3   OH2 6931   4.936   0.065   3.529
 2349TIP3    H1 6932   4.843   0.038   3.540
 2349TIP3    H2 6933   4.973  -0.014   3.486
 2350TIP3   OH2 6934   4.064   0.303   3.281
 2350TIP3    H1 6935   4.052   0.380   3.223
 2350TIP3    H2 6936   3.974   0.271   3.293
 2351TIP3   OH2 6937   3.664  -0.347   3.018
 2351TIP3    H1 6938   3.725  -0.271   3.029
 2351TIP3    H2 6939   3.612  -0.340   3.098
 2352TIP3   OH2 6940   4.211   0.073   3.218
 2352TIP3    H1 6941   4.172   0.156   3.250
 2352TIP3    H2 6942   4.178   0.010   3.287
 2353TIP3   OH2 6943   4.328   0.649   3.751
 2353TIP3    H1 6944   4.384   0.710   3.699
 2353TIP3    H2 6945   4.396   0.604   3.804
 2354TIP3   OH2 6946   3.982   0.537   3.132
 2354TIP3    H1 6947   3.898   0.544   3.181
 2354TIP3    H2 6948   4.013   0.630   3.132
 2355TIP3   OH2 6949   4.729   0.276   3.708
 2355TIP3    H1 6950   4.719   0.274   3.806
 2355TIP3    H2 6951   4.804   0.217   3.694
 2356TIP3   OH2 6952   4.695   0.170   2.595
 2356TIP3    H1 6953   4.751   0.145   2.673
 2356TIP3    H2 6954   4.609   0.139   2.625
 2357TIP3   OH2 6955   4.970   0.810   3.769
 2357TIP3    H1 6956   4.896   0.746   3.767
 2357TIP3    H2 6957   4.949   0.868   3.693
 2358TIP3   OH2 6958   5.034   0.648   2.417
 2358TIP3    H1 6959   5.078   0.714   2.361
 2358TIP3    H2 6960   4.941   0.672   2.402
 2359TIP3   OH2 6961   4.857   0.103   2.810
 2359TIP3    H1 6962   4.846   0.037   2.881
 2359TIP3    H2 6963   4.955   0.098   2.798
 2360TIP3   OH2 6964   3.788   0.507   3.912
 2360TIP3    H1 6965   3.826   0.422   3.941
 2360TIP3    H2 6966   3.797   0.557   3.993
 2361TIP3   OH2 6967   4.061   0.149   2.596
 2361TIP3    H1 6968   4.072   0.057   2.567
 2361TIP3    H2 6969   4.042   0.137   2.691
 2362TIP3   OH2 6970   4.007   0.154   2.868
 2362TIP3    H1 6971   4.077   0.120   2.926
 2362TIP3    H2 6972   4.017   0.251   2.879
 2363TIP3   OH2 6973   3.773  -0.113   3.081
 2363TIP3    H1 6974   3.703  -0.071   3.136
 2363TIP3    H2 6975   3.779  -0.048   3.008
 2364TIP3   OH2 6976   4.274   0.351   2.815
 2364TIP3    H1 6977   4.188   0.378   2.852
 2364TIP3    H2 6978   4.285   0.417   2.745
 2365TIP3   OH2 6979   4.487  -0.593   3.232
 2365TIP3    H1 6980   4.528  -0.506   3.212
 2365TIP3    H2 6981   4.441  -0.575   3.315
 2366TIP3   OH2 6982   4.729  -0.267   4.052
 2366TIP3    H1 6983   4.736  -0.197   4.118
 2366TIP3    H2 6984   4.813  -0.313   4.066
 2367TIP3   OH2 6985   4.019   0.428   2.881
 2367TIP3    H1 6986   3.988   0.498   2.820
 2367TIP3    H2 6987   4.001   0.469   2.969
 2368TIP3   OH2 6988   5.026  -0.172   3.406
 2368TIP3    H1 6989   4.955  -0.236   3.421
 2368TIP3    H2 6990   5.103  -0.215   3.451
 2369TIP3   OH2 6991   3.739   0.070   2.868
 2369TIP3    H1 6992   3.816   0.130   2.874
 2369TIP3    H2 6993   3.779   0.001   2.810
 2370TIP3   OH2 6994   4.988   0.789   3.351
 2370TIP3    H1 6995   4.951   0.827   3.269
 2370TIP3    H2 6996   5.084   0.807   3.337
 2371TIP3   OH2 6997   3.592   0.264   3.261
 2371TIP3    H1 6998   3.557   0.316   3.334
 2371TIP3    H2 6999   3.581   0.320   3.182
 2372TIP3   OH2 7000   3.764   0.809   4.331
 2372TIP3    H1 7001   3.849   0.809   4.379
 2372TIP3    H2 7002   3.743   0.714   4.332
 2373TIP3   OH2 7003   4.249   0.784   4.370
 2373TIP3    H1 7004   4.340   0.753   4.385
 2373TIP3    H2 7005   4.219   0.717   4.304
 2374TIP3   OH2 7006   4.228   0.350   2.508
 2374TIP3    H1 7007   4.172   0.278   2.545
 2374TIP3    H2 7008   4.302   0.298   2.472
 2375TIP3   OH2 7009   4.883   0.682   4.111
 2375TIP3    H1 7010   4.873   0.612   4.180
 2375TIP3    H2 7011   4.961   0.731   4.142
 2376TIP3   OH2 7012   4.665   0.395   2.421
 2376TIP3    H1 7013   4.705   0.327   2.478
 2376TIP3    H2 7014   4.718   0.388   2.339
 2377TIP3   OH2 7015   3.893   0.216   4.535
 2377TIP3    H1 7016   3.912   0.120   4.539
 2377TIP3    H2 7017   3.807   0.218   4.489
 2378TIP3   OH2 7018   3.875  -0.129   2.750
 2378TIP3    H1 7019   3.940  -0.160   2.816
 2378TIP3    H2 7020   3.930  -0.131   2.669
 2379TIP3   OH2 7021   4.502   0.303   4.311
 2379TIP3    H1 7022   4.460   0.318   4.224
 2379TIP3    H2 7023   4.530   0.209   4.305
 2380TIP3   OH2 7024   4.381   0.064   2.534
 2380TIP3    H1 7025   4.384   0.076   2.631
 2380TIP3    H2 7026   4.376  -0.033   2.527
 2381TIP3   OH2 7027   4.996   0.309   3.919
 2381TIP3    H1 7028   5.067   0.354   3.869
 2381TIP3    H2 7029   4.921   0.367   3.901
 2382TIP3   OH2 7030   4.007  -0.053   4.519
 2382TIP3    H1 7031   4.085  -0.098   4.486
 2382TIP3    H2 7032   4.038  -0.024   4.608
 2383TIP3   OH2 7033   4.073  -0.224   2.946
 2383TIP3    H1 7034   4.052  -0.261   3.034
 2383TIP3    H2 7035   4.111  -0.302   2.901
 2384TIP3   OH2 7036   4.355  -0.120   4.162
 2384TIP3    H1 7037   4.265  -0.080   4.167
 2384TIP3    H2 7038   4.388  -0.091   4.074
 2385TIP3   OH2 7039   4.182  -0.431   2.789
 2385TIP3    H1 7040   4.176  -0.492   2.714
 2385TIP3    H2 7041   4.278  -0.411   2.790
 2386TIP3   OH2 7042   4.869   0.246   4.317
 2386TIP3    H1 7043   4.940   0.209   4.263
 2386TIP3    H2 7044   4.859   0.177   4.385
 2387TIP3   OH2 7045   5.000  -0.103   2.454
 2387TIP3    H1 7046   4.981  -0.148   2.369
 2387TIP3    H2 7047   4.968  -0.013   2.431
 2388TIP3   OH2 7048   4.426  -0.324   4.316
 2388TIP3    H1 7049   4.435  -0.400   4.255
 2388TIP3    H2 7050   4.389  -0.256   4.257
 2389TIP3   OH2 7051   4.510  -0.036   3.949
 2389TIP3    H1 7052   4.595  -0.041   3.905
 2389TIP3    H2 7053   4.471   0.043   3.909
 2390TIP3   OH2 7054   5.092  -0.074   4.379
 2390TIP3    H1 7055   5.118  -0.164   4.356
 2390TIP3    H2 7056   5.153  -0.020   4.328
 2391TIP3   OH2 7057   5.129   0.165   4.103
 2391TIP3    H1 7058   5.069   0.220   4.046
 2391TIP3    H2 7059   5.215   0.188   4.063
 2392TIP3   OH2 7060   4.317  -0.233   4.550
 2392TIP3    H1 7061   4.249  -0.303   4.546
 2392TIP3    H2 7062   4.367  -0.256   4.469
 2393TIP3   OH2 7063   4.789  -0.212   4.424
 2393TIP3    H1 7064   4.743  -0.233   4.508
 2393TIP3    H2 7065   4.814  -0.301   4.393
 2394TIP3   OH2 7066   3.987   0.631   2.696
 2394TIP3    H1 7067   4.082   0.625   2.673
 2394TIP3    H2 7068   3.955   0.678   2.617
 2395TIP3   OH2 7069   3.478   0.001   2.925
 2395TIP3    H1 7070   3.567   0.033   2.896
 2395TIP3    H2 7071   3.463  -0.073   2.865
 2396TIP3   OH2 7072   3.379   0.612   3.323
 2396TIP3    H1 7073   3.303   0.559   3.295
 2396TIP3    H2 7074   3.420   0.555   3.392
 2397TIP3   OH2 7075   3.522   0.463   3.508
 2397TIP3    H1 7076   3.509   0.396   3.578
 2397TIP3    H2 7077   3.564   0.533   3.562
 2398TIP3   OH2 7078   5.237   0.891   3.309
 2398TIP3    H1 7079   5.270   0.909   3.399
 2398TIP3    H2 7080   5.315   0.911   3.254
 2399TIP3   OH2 7081   5.274   0.893   3.591
 2399TIP3    H1 7082   5.229   0.806   3.590
 2399TIP3    H2 7083   5.349   0.871   3.649
 2400TIP3   OH2 7084   5.320   0.570   4.168
 2400TIP3    H1 7085   5.247   0.580   4.232
 2400TIP3    H2 7086   5.361   0.659   4.172
 2401TIP3   OH2 7087   5.136   0.084   2.784
 2401TIP3    H1 7088   5.207   0.145   2.758
 2401TIP3    H2 7089   5.175   0.043   2.865
 2402TIP3   OH2 7090   5.256  -0.051   2.985
 2402TIP3    H1 7091   5.198  -0.092   3.053
 2402TIP3    H2 7092   5.332  -0.017   3.038
 2403TIP3   OH2 7093   5.335   0.338   3.420
 2403TIP3    H1 7094   5.361   0.266   3.361
 2403TIP3    H2 7095   5.307   0.408   3.359
 2404TIP3   OH2 7096   5.149   0.646   3.613
 2404TIP3    H1 7097   5.077   0.678   3.671
 2404TIP3    H2 7098   5.100   0.592   3.547
 2405TIP3   OH2 7099   5.202  -0.145   2.635
 2405TIP3    H1 7100   5.130  -0.134   2.568
 2405TIP3    H2 7101   5.179  -0.071   2.695
 2406TIP3   OH2 7102   5.079  -0.475   2.582
 2406TIP3    H1 7103   5.041  -0.407   2.526
 2406TIP3    H2 7104   5.039  -0.555   2.545
 2407TIP3   OH2 7105   5.076  -0.193   3.141
 2407TIP3    H1 7106   5.090  -0.288   3.145
 2407TIP3    H2 7107   5.063  -0.171   3.236
 2408TIP3   OH2 7108   3.713  -0.123   3.886
 2408TIP3    H1 7109   3.710  -0.159   3.795
 2408TIP3    H2 7110   3.802  -0.080   3.883
 2409TIP3   OH2 7111   5.374   0.227   3.995
 2409TIP3    H1 7112   5.445   0.162   3.978
 2409TIP3    H2 7113   5.389   0.292   3.924
 2410TIP3   OH2 7114   5.559   0.024   4.012
 2410TIP3    H1 7115   5.488  -0.024   4.060
 2410TIP3    H2 7116   5.638  -0.023   4.041
 2411TIP3   OH2 7117   5.060  -0.480   2.980
 2411TIP3    H1 7118   5.105  -0.513   3.061
 2411TIP3    H2 7119   5.133  -0.442   2.929
 2412TIP3   OH2 7120   5.252  -0.272   3.524
 2412TIP3    H1 7121   5.324  -0.215   3.490
 2412TIP3    H2 7122   5.261  -0.256   3.619
 2413TIP3   OH2 7123   5.288  -0.162   3.786
 2413TIP3    H1 7124   5.216  -0.101   3.808
 2413TIP3    H2 7125   5.339  -0.107   3.721
 2414TIP3   OH2 7126   3.699  -0.462   3.965
 2414TIP3    H1 7127   3.744  -0.474   3.879
 2414TIP3    H2 7128   3.722  -0.371   3.985
 2415TIP3   OH2 7129   4.880   0.745   2.927
 2415TIP3    H1 7130   4.916   0.657   2.948
 2415TIP3    H2 7131   4.893   0.794   3.012
 2416TIP3   OH2 7132   3.928   0.552   4.357
 2416TIP3    H1 7133   3.842   0.514   4.334
 2416TIP3    H2 7134   3.940   0.523   4.449
 2417TIP3   OH2 7135   4.098   0.604   3.913
 2417TIP3    H1 7136   4.029   0.599   3.847
 2417TIP3    H2 7137   4.181   0.604   3.861
 2418TIP3   OH2 7138   4.552   0.827   4.041
 2418TIP3    H1 7139   4.597   0.820   4.129
 2418TIP3    H2 7140   4.621   0.873   3.989
 2419TIP3   OH2 7141   4.731   0.977   3.892
 2419TIP3    H1 7142   4.802   0.921   3.856
 2419TIP3    H2 7143   4.783   1.032   3.955
 2420TIP3   OH2 7144   3.799   0.861   3.904
 2420TIP3    H1 7145   3.702   0.879   3.895
 2420TIP3    H2 7146   3.806   0.863   4.001
 2421TIP3   OH2 7147   4.448   0.844   3.583
 2421TIP3    H1 7148   4.386   0.868   3.512
 2421TIP3    H2 7149   4.460   0.928   3.631
 2422TIP3   OH2 7150   4.717   0.784   3.632
 2422TIP3    H1 7151   4.623   0.799   3.611
 2422TIP3    H2 7152   4.761   0.860   3.592
 2423TIP3   OH2 7153   4.919   0.972   3.548
 2423TIP3    H1 7154   4.908   1.056   3.499
 2423TIP3    H2 7155   4.948   0.910   3.478
 2424TIP3   OH2 7156   3.701   0.628   3.670
 2424TIP3    H1 7157   3.720   0.594   3.760
 2424TIP3    H2 7158   3.767   0.576   3.619
 2425TIP3   OH2 7159   3.892   0.495   3.528
 2425TIP3    H1 7160   3.903   0.409   3.574
 2425TIP3    H2 7161   3.985   0.524   3.521
 2426TIP3   OH2 7162   4.161   0.597   3.532
 2426TIP3    H1 7163   4.184   0.503   3.512
 2426TIP3    H2 7164   4.218   0.608   3.611
 2427TIP3   OH2 7165   3.499   0.407   3.045
 2427TIP3    H1 7166   3.480   0.376   2.955
 2427TIP3    H2 7167   3.489   0.503   3.029
 2428TIP3   OH2 7168   4.254   0.589   2.639
 2428TIP3    H1 7169   4.343   0.611   2.604
 2428TIP3    H2 7170   4.233   0.513   2.581
 2429TIP3   OH2 7171   3.564   0.423   2.710
 2429TIP3    H1 7172   3.580   0.480   2.787
 2429TIP3    H2 7173   3.652   0.381   2.695
 2430TIP3   OH2 7174   5.201   0.852   3.924
 2430TIP3    H1 7175   5.121   0.819   3.877
 2430TIP3    H2 7176   5.180   0.947   3.929
 2431TIP3   OH2 7177   6.466   0.227   2.695
 2431TIP3    H1 7178   6.437   0.317   2.671
 2431TIP3    H2 7179   6.389   0.176   2.665
 2432TIP3   OH2 7180   6.467   0.222   3.070
 2432TIP3    H1 7181   6.498   0.190   3.156
 2432TIP3    H2 7182   6.422   0.143   3.036
 2433TIP3   OH2 7183   5.781   0.145   3.417
 2433TIP3    H1 7184   5.774   0.067   3.473
 2433TIP3    H2 7185   5.871   0.174   3.431
 2434TIP3   OH2 7186   6.708   0.525   2.752
 2434TIP3    H1 7187   6.694   0.455   2.817
 2434TIP3    H2 7188   6.737   0.599   2.808
 2435TIP3   OH2 7189   5.735   0.532   3.161
 2435TIP3    H1 7190   5.728   0.434   3.162
 2435TIP3    H2 7191   5.832   0.540   3.159
 2436TIP3   OH2 7192   5.441  -0.285   2.951
 2436TIP3    H1 7193   5.405  -0.199   2.975
 2436TIP3    H2 7194   5.371  -0.321   2.894
 2437TIP3   OH2 7195   5.494   0.009   3.098
 2437TIP3    H1 7196   5.533  -0.042   3.171
 2437TIP3    H2 7197   5.575   0.040   3.055
 2438TIP3   OH2 7198   6.358   0.987   2.769
 2438TIP3    H1 7199   6.404   0.917   2.719
 2438TIP3    H2 7200   6.351   0.948   2.857
 2439TIP3   OH2 7201   6.263   0.449   3.120
 2439TIP3    H1 7202   6.299   0.372   3.074
 2439TIP3    H2 7203   6.348   0.493   3.142
 2440TIP3   OH2 7204   6.680  -0.043   3.153
 2440TIP3    H1 7205   6.713  -0.130   3.175
 2440TIP3    H2 7206   6.646  -0.056   3.062
 2441TIP3   OH2 7207   5.666  -0.172   3.213
 2441TIP3    H1 7208   5.707  -0.211   3.291
 2441TIP3    H2 7209   5.681  -0.239   3.145
 2442TIP3   OH2 7210   6.090   0.010   3.016
 2442TIP3    H1 7211   6.179  -0.023   3.035
 2442TIP3    H2 7212   6.044  -0.072   2.987
 2443TIP3   OH2 7213   7.327  -0.048   3.305
 2443TIP3    H1 7214   7.262   0.022   3.284
 2443TIP3    H2 7215   7.371  -0.014   3.384
 2444TIP3   OH2 7216   6.359   0.445   2.558
 2444TIP3    H1 7217   6.311   0.424   2.477
 2444TIP3    H2 7218   6.315   0.529   2.585
 2445TIP3   OH2 7219   6.121   0.370   3.351
 2445TIP3    H1 7220   6.055   0.433   3.387
 2445TIP3    H2 7221   6.158   0.420   3.276
 2446TIP3   OH2 7222   5.915  -0.313   3.331
 2446TIP3    H1 7223   5.955  -0.227   3.352
 2446TIP3    H2 7224   5.919  -0.314   3.235
 2447TIP3   OH2 7225   5.946   0.562   3.445
 2447TIP3    H1 7226   5.918   0.648   3.407
 2447TIP3    H2 7227   5.867   0.543   3.500
 2448TIP3   OH2 7228   5.340   0.251   2.680
 2448TIP3    H1 7229   5.300   0.281   2.596
 2448TIP3    H2 7230   5.373   0.335   2.718
 2449TIP3   OH2 7231   6.781   0.768   2.921
 2449TIP3    H1 7232   6.691   0.759   2.960
 2449TIP3    H2 7233   6.772   0.854   2.875
 2450TIP3   OH2 7234   6.481   0.815   2.594
 2450TIP3    H1 7235   6.531   0.732   2.574
 2450TIP3    H2 7236   6.543   0.880   2.553
 2451TIP3   OH2 7237   6.624   0.600   2.500
 2451TIP3    H1 7238   6.584   0.520   2.463
 2451TIP3    H2 7239   6.661   0.565   2.585
 2452TIP3   OH2 7240   7.007   0.680   3.263
 2452TIP3    H1 7241   6.994   0.603   3.204
 2452TIP3    H2 7242   6.988   0.755   3.203
 2453TIP3   OH2 7243   6.298   0.077   2.523
 2453TIP3    H1 7244   6.212   0.123   2.514
 2453TIP3    H2 7245   6.323   0.071   2.430
 2454TIP3   OH2 7246   6.258  -0.066   2.259
 2454TIP3    H1 7247   6.340  -0.084   2.307
 2454TIP3    H2 7248   6.250  -0.145   2.204
 2455TIP3   OH2 7249   7.202   0.317   3.111
 2455TIP3    H1 7250   7.117   0.367   3.115
 2455TIP3    H2 7251   7.230   0.341   3.020
 2456TIP3   OH2 7252   6.650   0.162   2.507
 2456TIP3    H1 7253   6.596   0.186   2.586
 2456TIP3    H2 7254   6.734   0.135   2.548
 2457TIP3   OH2 7255   6.876   0.202   3.397
 2457TIP3    H1 7256   6.873   0.286   3.446
 2457TIP3    H2 7257   6.791   0.206   3.349
 2458TIP3   OH2 7258   5.880   0.154   2.905
 2458TIP3    H1 7259   5.838   0.094   2.839
 2458TIP3    H2 7260   5.954   0.098   2.938
 2459TIP3   OH2 7261   6.009   0.572   3.055
 2459TIP3    H1 7262   5.984   0.521   2.977
 2459TIP3    H2 7263   6.098   0.535   3.075
 2460TIP3   OH2 7264   6.036   0.118   3.271
 2460TIP3    H1 7265   6.050   0.100   3.175
 2460TIP3    H2 7266   6.064   0.211   3.280
 2461TIP3   OH2 7267   6.539   0.764   3.040
 2461TIP3    H1 7268   6.526   0.843   3.095
 2461TIP3    H2 7269   6.524   0.690   3.103
 2462TIP3   OH2 7270   6.151   0.683   3.586
 2462TIP3    H1 7271   6.091   0.745   3.634
 2462TIP3    H2 7272   6.086   0.629   3.538
 2463TIP3   OH2 7273   6.512   0.039   2.317
 2463TIP3    H1 7274   6.561   0.078   2.393
 2463TIP3    H2 7275   6.487   0.120   2.271
 2464TIP3   OH2 7276   5.896   0.246   3.685
 2464TIP3    H1 7277   5.899   0.328   3.739
 2464TIP3    H2 7278   5.800   0.227   3.688
 2465TIP3   OH2 7279   6.229   0.694   2.593
 2465TIP3    H1 7280   6.308   0.748   2.610
 2465TIP3    H2 7281   6.168   0.758   2.554
 2466TIP3   OH2 7282   5.945   0.852   3.674
 2466TIP3    H1 7283   5.910   0.849   3.584
 2466TIP3    H2 7284   5.865   0.830   3.728
 2467TIP3   OH2 7285   5.748   0.001   2.704
 2467TIP3    H1 7286   5.671   0.035   2.654
 2467TIP3    H2 7287   5.716  -0.083   2.738
 2468TIP3   OH2 7288   6.796   0.622   1.919
 2468TIP3    H1 7289   6.801   0.718   1.902
 2468TIP3    H2 7290   6.874   0.590   1.871
 2469TIP3   OH2 7291   5.523   0.382   3.620
 2469TIP3    H1 7292   5.457   0.359   3.550
 2469TIP3    H2 7293   5.558   0.292   3.642
 2470TIP3   OH2 7294   5.378   0.585   3.241
 2470TIP3    H1 7295   5.469   0.555   3.237
 2470TIP3    H2 7296   5.382   0.651   3.312
 2471TIP3   OH2 7297   7.244   1.026   3.310
 2471TIP3    H1 7298   7.241   0.930   3.323
 2471TIP3    H2 7299   7.160   1.052   3.355
 2472TIP3   OH2 7300   6.348   0.812   3.444
 2472TIP3    H1 7301   6.347   0.904   3.477
 2472TIP3    H2 7302   6.276   0.772   3.498
 2473TIP3   OH2 7303   6.108   0.939   2.397
 2473TIP3    H1 7304   6.065   0.921   2.311
 2473TIP3    H2 7305   6.077   1.029   2.418
 2474TIP3   OH2 7306   5.549   0.789   2.782
 2474TIP3    H1 7307   5.597   0.780   2.867
 2474TIP3    H2 7308   5.497   0.707   2.783
 2475TIP3   OH2 7309   6.308   0.843   2.038
 2475TIP3    H1 7310   6.369   0.775   2.001
 2475TIP3    H2 7311   6.344   0.852   2.129
 2476TIP3   OH2 7312   6.361   0.891   2.308
 2476TIP3    H1 7313   6.272   0.898   2.350
 2476TIP3    H2 7314   6.412   0.848   2.379
 2477TIP3   OH2 7315   7.137   0.154   3.598
 2477TIP3    H1 7316   7.059   0.187   3.550
 2477TIP3    H2 7317   7.148   0.065   3.562
 2478TIP3   OH2 7318   5.727   0.566   3.610
 2478TIP3    H1 7319   5.777   0.545   3.691
 2478TIP3    H2 7320   5.655   0.499   3.614
 2479TIP3   OH2 7321   6.814   0.021   3.604
 2479TIP3    H1 7322   6.837  -0.069   3.576
 2479TIP3    H2 7323   6.818   0.072   3.521
 2480TIP3   OH2 7324   6.072  -0.104   3.419
 2480TIP3    H1 7325   6.016  -0.081   3.497
 2480TIP3    H2 7326   6.060  -0.022   3.364
 2481TIP3   OH2 7327   5.927  -0.188   2.920
 2481TIP3    H1 7328   5.852  -0.241   2.952
 2481TIP3    H2 7329   5.953  -0.238   2.839
 2482TIP3   OH2 7330   6.434  -0.116   2.666
 2482TIP3    H1 7331   6.383  -0.045   2.621
 2482TIP3    H2 7332   6.483  -0.155   2.591
 2483TIP3   OH2 7333   6.612   0.206   3.703
 2483TIP3    H1 7334   6.602   0.158   3.788
 2483TIP3    H2 7335   6.708   0.196   3.690
 2484TIP3   OH2 7336   6.600  -0.094   2.892
 2484TIP3    H1 7337   6.535  -0.068   2.823
 2484TIP3    H2 7338   6.632  -0.177   2.856
 2485TIP3   OH2 7339   5.896  -0.070   3.625
 2485TIP3    H1 7340   5.890   0.001   3.690
 2485TIP3    H2 7341   5.817  -0.123   3.642
 2486TIP3   OH2 7342   6.607   0.154   3.323
 2486TIP3    H1 7343   6.634   0.080   3.262
 2486TIP3    H2 7344   6.568   0.103   3.396
 2487TIP3   OH2 7345   5.703  -0.343   2.992
 2487TIP3    H1 7346   5.610  -0.317   2.971
 2487TIP3    H2 7347   5.700  -0.438   2.976
 2488TIP3   OH2 7348   5.988  -0.321   2.687
 2488TIP3    H1 7349   6.076  -0.338   2.652
 2488TIP3    H2 7350   5.930  -0.325   2.608
 2489TIP3   OH2 7351   5.809  -0.308   2.466
 2489TIP3    H1 7352   5.732  -0.343   2.420
 2489TIP3    H2 7353   5.854  -0.258   2.396
 2490TIP3   OH2 7354   6.934   1.375   3.408
 2490TIP3    H1 7355   6.931   1.399   3.314
 2490TIP3    H2 7356   7.012   1.426   3.439
 2491TIP3   OH2 7357   5.889   0.488   3.831
 2491TIP3    H1 7358   5.970   0.516   3.879
 2491TIP3    H2 7359   5.825   0.485   3.904
 2492TIP3   OH2 7360   6.359  -0.056   3.094
 2492TIP3    H1 7361   6.412  -0.115   3.040
 2492TIP3    H2 7362   6.352  -0.106   3.178
 2493TIP3   OH2 7363   6.341  -0.167   3.382
 2493TIP3    H1 7364   6.247  -0.140   3.395
 2493TIP3    H2 7365   6.388  -0.110   3.446
 2494TIP3   OH2 7366   6.068   0.228   2.471
 2494TIP3    H1 7367   5.994   0.164   2.461
 2494TIP3    H2 7368   6.050   0.263   2.561
 2495TIP3   OH2 7369   6.969   0.461   3.100
 2495TIP3    H1 7370   6.992   0.512   3.019
 2495TIP3    H2 7371   6.883   0.419   3.075
 2496TIP3   OH2 7372   6.477   0.551   3.464
 2496TIP3    H1 7373   6.486   0.518   3.554
 2496TIP3    H2 7374   6.428   0.635   3.476
 2497TIP3   OH2 7375   6.583  -0.202   2.454
 2497TIP3    H1 7376   6.678  -0.214   2.475
 2497TIP3    H2 7377   6.582  -0.120   2.402
 2498TIP3   OH2 7378   5.762   0.261   3.146
 2498TIP3    H1 7379   5.803   0.212   3.073
 2498TIP3    H2 7380   5.766   0.198   3.221
 2499TIP3   OH2 7381   6.215   0.374   2.291
 2499TIP3    H1 7382   6.168   0.460   2.296
 2499TIP3    H2 7383   6.161   0.321   2.353
 2500TIP3   OH2 7384   5.636   0.170   3.757
 2500TIP3    H1 7385   5.646   0.141   3.849
 2500TIP3    H2 7386   5.581   0.098   3.718
 2501TIP3   OH2 7387   6.358   0.288   3.777
 2501TIP3    H1 7388   6.294   0.228   3.735
 2501TIP3    H2 7389   6.441   0.263   3.731
 2502TIP3   OH2 7390   6.629   0.810   3.359
 2502TIP3    H1 7391   6.533   0.802   3.374
 2502TIP3    H2 7392   6.655   0.859   3.440
 2503TIP3   OH2 7393   7.257   0.733   3.353
 2503TIP3    H1 7394   7.159   0.729   3.344
 2503TIP3    H2 7395   7.283   0.704   3.262
 2504TIP3   OH2 7396   6.724   0.697   2.178
 2504TIP3    H1 7397   6.727   0.629   2.246
 2504TIP3    H2 7398   6.761   0.653   2.100
 2505TIP3   OH2 7399   6.734   0.324   3.020
 2505TIP3    H1 7400   6.640   0.299   3.031
 2505TIP3    H2 7401   6.768   0.245   2.973
 2506TIP3   OH2 7402   5.861   0.552   2.769
 2506TIP3    H1 7403   5.859   0.634   2.715
 2506TIP3    H2 7404   5.768   0.534   2.782
 2507TIP3   OH2 7405   5.430  -0.149   2.478
 2507TIP3    H1 7406   5.474  -0.063   2.495
 2507TIP3    H2 7407   5.351  -0.140   2.535
 2508TIP3   OH2 7408   6.001   0.319   2.714
 2508TIP3    H1 7409   5.964   0.407   2.735
 2508TIP3    H2 7410   5.966   0.266   2.787
 2509TIP3   OH2 7411   6.130   0.897   3.240
 2509TIP3    H1 7412   6.172   0.969   3.189
 2509TIP3    H2 7413   6.205   0.861   3.288
 2510TIP3   OH2 7414   5.779   0.794   2.621
 2510TIP3    H1 7415   5.695   0.801   2.670
 2510TIP3    H2 7416   5.811   0.886   2.626
 2511TIP3   OH2 7417   6.519   0.531   3.197
 2511TIP3    H1 7418   6.510   0.531   3.295
 2511TIP3    H2 7419   6.597   0.474   3.185
 2512TIP3   OH2 7420   6.456   0.416   2.112
 2512TIP3    H1 7421   6.516   0.397   2.187
 2512TIP3    H2 7422   6.370   0.411   2.156
 2513TIP3   OH2 7423   6.768   1.065   3.249
 2513TIP3    H1 7424   6.689   1.007   3.244
 2513TIP3    H2 7425   6.750   1.128   3.176
 2514TIP3   OH2 7426   6.831   0.900   1.897
 2514TIP3    H1 7427   6.871   0.979   1.856
 2514TIP3    H2 7428   6.749   0.942   1.932
 2515TIP3   OH2 7429   6.639   0.345   2.299
 2515TIP3    H1 7430   6.644   0.291   2.381
 2515TIP3    H2 7431   6.735   0.351   2.279
 2516TIP3   OH2 7432   5.565   0.759   3.400
 2516TIP3    H1 7433   5.618   0.682   3.426
 2516TIP3    H2 7434   5.598   0.825   3.463
 2517TIP3   OH2 7435   5.858   0.405   2.082
 2517TIP3    H1 7436   5.866   0.313   2.051
 2517TIP3    H2 7437   5.838   0.392   2.177
 2518TIP3   OH2 7438   5.803   0.409   2.354
 2518TIP3    H1 7439   5.873   0.381   2.415
 2518TIP3    H2 7440   5.809   0.507   2.361
 2519TIP3   OH2 7441   5.535   0.100   2.554
 2519TIP3    H1 7442   5.472   0.145   2.613
 2519TIP3    H2 7443   5.555   0.171   2.491
 2520TIP3   OH2 7444   6.072   0.603   2.302
 2520TIP3    H1 7445   5.986   0.632   2.338
 2520TIP3    H2 7446   6.087   0.672   2.236
 2521TIP3   OH2 7447   6.278  -0.336   2.718
 2521TIP3    H1 7448   6.321  -0.249   2.704
 2521TIP3    H2 7449   6.236  -0.324   2.805
 2522TIP3   OH2 7450   6.526  -0.012   3.540
 2522TIP3    H1 7451   6.531   0.061   3.603
 2522TIP3    H2 7452   6.610  -0.056   3.556
 2523TIP3   OH2 7453   5.815   0.682   2.369
 2523TIP3    H1 7454   5.785   0.752   2.306
 2523TIP3    H2 7455   5.799   0.725   2.455
 2524TIP3   OH2 7456   6.818   0.088   2.892
 2524TIP3    H1 7457   6.746   0.023   2.904
 2524TIP3    H2 7458   6.893   0.044   2.940
 2525TIP3   OH2 7459   5.531   0.315   2.361
 2525TIP3    H1 7460   5.601   0.382   2.370
 2525TIP3    H2 7461   5.575   0.257   2.296
 2526TIP3   OH2 7462   5.448  -0.430   2.497
 2526TIP3    H1 7463   5.485  -0.340   2.494
 2526TIP3    H2 7464   5.361  -0.411   2.534
 2527TIP3   OH2 7465   6.787   1.040   2.842
 2527TIP3    H1 7466   6.744   1.087   2.767
 2527TIP3    H2 7467   6.881   1.058   2.820
 2528TIP3   OH2 7468   5.407   0.531   2.750
 2528TIP3    H1 7469   5.339   0.562   2.810
 2528TIP3    H2 7470   5.378   0.571   2.665
 2529TIP3   OH2 7471   5.559   1.068   3.820
 2529TIP3    H1 7472   5.645   1.067   3.867
 2529TIP3    H2 7473   5.538   0.973   3.819
 2530TIP3   OH2 7474   6.041   1.034   3.864
 2530TIP3    H1 7475   6.135   1.012   3.872
 2530TIP3    H2 7476   6.015   0.974   3.791
 2531TIP3   OH2 7477   6.015   0.616   2.001
 2531TIP3    H1 7478   5.967   0.536   2.033
 2531TIP3    H2 7479   6.095   0.576   1.960
 2532TIP3   OH2 7480   6.681   0.939   3.598
 2532TIP3    H1 7481   6.670   0.869   3.667
 2532TIP3    H2 7482   6.757   0.990   3.630
 2533TIP3   OH2 7483   6.465   0.657   1.915
 2533TIP3    H1 7484   6.527   0.605   1.968
 2533TIP3    H2 7485   6.510   0.660   1.828
 2534TIP3   OH2 7486   5.689   0.473   4.022
 2534TIP3    H1 7487   5.706   0.376   4.025
 2534TIP3    H2 7488   5.603   0.476   3.975
 2535TIP3   OH2 7489   5.667   0.126   2.218
 2535TIP3    H1 7490   5.723   0.096   2.291
 2535TIP3    H2 7491   5.732   0.126   2.145
 2536TIP3   OH2 7492   6.298   0.561   3.794
 2536TIP3    H1 7493   6.254   0.574   3.708
 2536TIP3    H2 7494   6.326   0.466   3.790
 2537TIP3   OH2 7495   6.166   0.318   2.024
 2537TIP3    H1 7496   6.171   0.325   2.121
 2537TIP3    H2 7497   6.148   0.223   2.011
 2538TIP3   OH2 7498   6.792   0.565   3.403
 2538TIP3    H1 7499   6.862   0.615   3.357
 2538TIP3    H2 7500   6.716   0.625   3.391
 2539TIP3   OH2 7501   5.809   0.205   4.007
 2539TIP3    H1 7502   5.885   0.151   3.981
 2539TIP3    H2 7503   5.837   0.236   4.096
 2540TIP3   OH2 7504   5.868   0.040   2.442
 2540TIP3    H1 7505   5.845   0.003   2.529
 2540TIP3    H2 7506   5.905  -0.038   2.395
 2541TIP3   OH2 7507   6.144   0.137   3.650
 2541TIP3    H1 7508   6.056   0.182   3.649
 2541TIP3    H2 7509   6.183   0.162   3.564
 2542TIP3   OH2 7510   5.969  -0.163   2.287
 2542TIP3    H1 7511   5.965  -0.247   2.237
 2542TIP3    H2 7512   6.048  -0.121   2.250
 2543TIP3   OH2 7513   6.665   0.502   3.805
 2543TIP3    H1 7514   6.735   0.464   3.751
 2543TIP3    H2 7515   6.654   0.433   3.873
 2544TIP3   OH2 7516   6.223  -0.066   3.802
 2544TIP3    H1 7517   6.226  -0.143   3.742
 2544TIP3    H2 7518   6.187   0.004   3.744
 2545TIP3   OH2 7519   6.321   0.216   3.451
 2545TIP3    H1 7520   6.392   0.224   3.387
 2545TIP3    H2 7521   6.254   0.279   3.416
 2546TIP3   OH2 7522   6.888   0.183   3.867
 2546TIP3    H1 7523   6.912   0.093   3.843
 2546TIP3    H2 7524   6.950   0.237   3.817
 2547TIP3   OH2 7525   6.924   0.420   3.587
 2547TIP3    H1 7526   6.863   0.474   3.531
 2547TIP3    H2 7527   7.010   0.445   3.547
 2548TIP3   OH2 7528   6.115   0.024   4.037
 2548TIP3    H1 7529   6.047  -0.046   4.034
 2548TIP3    H2 7530   6.165   0.002   3.956
 2549TIP3   OH2 7531   6.587   0.045   3.913
 2549TIP3    H1 7532   6.537   0.026   3.994
 2549TIP3    H2 7533   6.605  -0.044   3.880
 2550TIP3   OH2 7534   5.782   0.886   2.182
 2550TIP3    H1 7535   5.878   0.880   2.165
 2550TIP3    H2 7536   5.754   0.934   2.102
 2551TIP3   OH2 7537   5.262   0.269   2.396
 2551TIP3    H1 7538   5.357   0.290   2.383
 2551TIP3    H2 7539   5.257   0.178   2.358
 2552TIP3   OH2 7540   5.308   0.734   2.993
 2552TIP3    H1 7541   5.304   0.660   3.056
 2552TIP3    H2 7542   5.357   0.798   3.046
 2553TIP3   OH2 7543   7.040   1.130   2.798
 2553TIP3    H1 7544   7.068   1.164   2.885
 2553TIP3    H2 7545   7.103   1.173   2.738
 2554TIP3   OH2 7546   7.069   1.151   3.081
 2554TIP3    H1 7547   7.025   1.064   3.075
 2554TIP3    H2 7548   7.145   1.128   3.136
 2555TIP3   OH2 7549   7.118   0.825   3.656
 2555TIP3    H1 7550   7.043   0.835   3.718
 2555TIP3    H2 7551   7.157   0.915   3.658
 2556TIP3   OH2 7552   6.910   0.346   2.282
 2556TIP3    H1 7553   6.971   0.417   2.252
 2556TIP3    H2 7554   6.968   0.295   2.341
 2557TIP3   OH2 7555   7.058   0.199   2.475
 2557TIP3    H1 7556   6.991   0.158   2.535
 2557TIP3    H2 7557   7.122   0.236   2.538
 2558TIP3   OH2 7558   7.116   0.600   2.912
 2558TIP3    H1 7559   7.165   0.535   2.859
 2558TIP3    H2 7560   7.108   0.675   2.849
 2559TIP3   OH2 7561   6.946   0.900   3.105
 2559TIP3    H1 7562   6.874   0.943   3.156
 2559TIP3    H2 7563   6.896   0.853   3.035
 2560TIP3   OH2 7564   6.874   0.061   2.627
 2560TIP3    H1 7565   6.883  -0.035   2.621
 2560TIP3    H2 7566   6.859   0.075   2.723
 2561TIP3   OH2 7567   7.169   0.484   3.481
 2561TIP3    H1 7568   7.241   0.420   3.464
 2561TIP3    H2 7569   7.189   0.555   3.417
 2562TIP3   OH2 7570   7.355   0.280   3.490
 2562TIP3    H1 7571   7.284   0.235   3.539
 2562TIP3    H2 7572   7.434   0.236   3.525
 2563TIP3   OH2 7573   7.038  -0.012   3.019
 2563TIP3    H1 7574   7.127  -0.004   2.980
 2563TIP3    H2 7575   7.057   0.007   3.112
 2564TIP3   OH2 7576   7.101   0.108   3.265
 2564TIP3    H1 7577   7.018   0.149   3.296
 2564TIP3    H2 7578   7.136   0.179   3.208
 2565TIP3   OH2 7579   6.625   0.998   2.455
 2565TIP3    H1 7580   6.675   0.982   2.373
 2565TIP3    H2 7581   6.681   1.063   2.500
 2566TIP3   OH2 7582   5.725   0.805   3.842
 2566TIP3    H1 7583   5.635   0.773   3.822
 2566TIP3    H2 7584   5.735   0.780   3.934
 2567TIP3   OH2 7585   5.902   0.834   3.388
 2567TIP3    H1 7586   5.856   0.910   3.349
 2567TIP3    H2 7587   5.989   0.846   3.345
 2568TIP3   OH2 7588   6.348   1.078   3.526
 2568TIP3    H1 7589   6.390   1.078   3.615
 2568TIP3    H2 7590   6.414   1.129   3.475
 2569TIP3   OH2 7591   6.527   1.230   3.385
 2569TIP3    H1 7592   6.597   1.178   3.343
 2569TIP3    H2 7593   6.579   1.287   3.446
 2570TIP3   OH2 7594   5.580   1.093   3.409
 2570TIP3    H1 7595   5.490   1.128   3.389
 2570TIP3    H2 7596   5.591   1.124   3.500
 2571TIP3   OH2 7597   5.817   1.070   3.270
 2571TIP3    H1 7598   5.730   1.083   3.314
 2571TIP3    H2 7599   5.797   1.101   3.180
 2572TIP3   OH2 7600   6.243   1.098   3.067
 2572TIP3    H1 7601   6.173   1.118   3.002
 2572TIP3    H2 7602   6.254   1.185   3.110
 2573TIP3   OH2 7603   6.511   1.038   3.119
 2573TIP3    H1 7604   6.417   1.054   3.099
 2573TIP3    H2 7605   6.554   1.113   3.076
 2574TIP3   OH2 7606   6.719   1.230   3.034
 2574TIP3    H1 7607   6.705   1.314   2.986
 2574TIP3    H2 7608   6.745   1.169   2.961
 2575TIP3   OH2 7609   5.489   0.884   3.159
 2575TIP3    H1 7610   5.518   0.856   3.249
 2575TIP3    H2 7611   5.559   0.838   3.107
 2576TIP3   OH2 7612   5.684   0.757   3.014
 2576TIP3    H1 7613   5.698   0.673   3.064
 2576TIP3    H2 7614   5.776   0.791   3.011
 2577TIP3   OH2 7615   5.952   0.850   3.017
 2577TIP3    H1 7616   5.982   0.757   3.005
 2577TIP3    H2 7617   5.997   0.870   3.101
 2578TIP3   OH2 7618   5.278   0.664   2.551
 2578TIP3    H1 7619   5.194   0.624   2.521
 2578TIP3    H2 7620   5.271   0.751   2.509
 2579TIP3   OH2 7621   6.050   0.849   2.132
 2579TIP3    H1 7622   6.139   0.869   2.095
 2579TIP3    H2 7623   6.027   0.773   2.074
 2580TIP3   OH2 7624   6.770   0.961   2.223
 2580TIP3    H1 7625   6.757   0.864   2.211
 2580TIP3    H2 7626   6.724   0.995   2.143
 2581TIP3   OH2 7627   5.358   0.682   2.188
 2581TIP3    H1 7628   5.369   0.705   2.281
 2581TIP3    H2 7629   5.443   0.637   2.168
 2582TIP3   OH2 7630   6.997   1.107   3.410
 2582TIP3    H1 7631   6.918   1.075   3.361
 2582TIP3    H2 7632   6.977   1.202   3.414
 2583TIP3   OH2 7633   8.215   0.476   2.556
 2583TIP3    H1 7634   8.279   0.458   2.627
 2583TIP3    H2 7635   8.213   0.394   2.505
 2584TIP3   OH2 7636   7.563   0.376   2.920
 2584TIP3    H1 7637   7.598   0.310   2.983
 2584TIP3    H2 7638   7.633   0.443   2.923
 2585TIP3   OH2 7639   7.534   0.787   2.652
 2585TIP3    H1 7640   7.524   0.689   2.657
 2585TIP3    H2 7641   7.629   0.794   2.634
 2586TIP3   OH2 7642   7.301   0.278   2.605
 2586TIP3    H1 7643   7.364   0.215   2.647
 2586TIP3    H2 7644   7.347   0.303   2.524
 2587TIP3   OH2 7645   8.154   1.255   2.260
 2587TIP3    H1 7646   8.212   1.185   2.222
 2587TIP3    H2 7647   8.125   1.213   2.342
 2588TIP3   OH2 7648   8.057   0.705   2.610
 2588TIP3    H1 7649   8.098   0.626   2.570
 2588TIP3    H2 7650   8.140   0.754   2.631
 2589TIP3   OH2 7651   7.466   0.100   2.729
 2589TIP3    H1 7652   7.543   0.064   2.778
 2589TIP3    H2 7653   7.458   0.031   2.659
 2590TIP3   OH2 7654   7.913   0.625   2.836
 2590TIP3    H1 7655   7.850   0.691   2.873
 2590TIP3    H2 7656   7.951   0.673   2.760
 2591TIP3   OH2 7657   7.683  -0.030   2.820
 2591TIP3    H1 7658   7.755   0.028   2.850
 2591TIP3    H2 7659   7.729  -0.098   2.769
 2592TIP3   OH2 7660   7.743   0.818   2.933
 2592TIP3    H1 7661   7.717   0.901   2.889
 2592TIP3    H2 7662   7.663   0.803   2.988
 2593TIP3   OH2 7663   7.084   0.546   2.188
 2593TIP3    H1 7664   7.135   0.512   2.114
 2593TIP3    H2 7665   7.149   0.606   2.228
 2594TIP3   OH2 7666   8.566   1.021   2.403
 2594TIP3    H1 7667   8.476   1.013   2.443
 2594TIP3    H2 7668   8.563   1.113   2.371
 2595TIP3   OH2 7669   8.329   1.089   2.130
 2595TIP3    H1 7670   8.374   1.003   2.130
 2595TIP3    H2 7671   8.381   1.142   2.068
 2596TIP3   OH2 7672   8.671   0.459   2.875
 2596TIP3    H1 7673   8.681   0.528   2.942
 2596TIP3    H2 7674   8.585   0.480   2.837
 2597TIP3   OH2 7675   7.667   0.431   2.416
 2597TIP3    H1 7676   7.615   0.421   2.334
 2597TIP3    H2 7677   7.733   0.362   2.401
 2598TIP3   OH2 7678   7.796   0.814   2.545
 2598TIP3    H1 7679   7.777   0.787   2.454
 2598TIP3    H2 7680   7.888   0.782   2.557
 2599TIP3   OH2 7681   7.823   0.379   2.755
 2599TIP3    H1 7682   7.839   0.382   2.660
 2599TIP3    H2 7683   7.854   0.468   2.783
 2600TIP3   OH2 7684   8.327   1.020   2.527
 2600TIP3    H1 7685   8.311   1.102   2.576
 2600TIP3    H2 7686   8.309   0.950   2.591
 2601TIP3   OH2 7687   7.947   0.937   3.077
 2601TIP3    H1 7688   7.886   1.001   3.121
 2601TIP3    H2 7689   7.882   0.885   3.025
 2602TIP3   OH2 7690   7.692   0.506   3.167
 2602TIP3    H1 7691   7.698   0.589   3.219
 2602TIP3    H2 7692   7.599   0.480   3.185
 2603TIP3   OH2 7693   7.965   1.008   2.139
 2603TIP3    H1 7694   8.058   1.002   2.118
 2603TIP3    H2 7695   7.927   1.048   2.060
 2604TIP3   OH2 7696   7.742   1.107   3.161
 2604TIP3    H1 7697   7.708   1.107   3.070
 2604TIP3    H2 7698   7.662   1.084   3.214
 2605TIP3   OH2 7699   7.320   0.638   3.108
 2605TIP3    H1 7700   7.253   0.620   3.039
 2605TIP3    H2 7701   7.356   0.549   3.126
 2606TIP3   OH2 7702   7.175   0.829   2.744
 2606TIP3    H1 7703   7.270   0.826   2.730
 2606TIP3    H2 7704   7.165   0.911   2.794
 2607TIP3   OH2 7705   8.146   1.066   2.933
 2607TIP3    H1 7706   8.145   1.159   2.963
 2607TIP3    H2 7707   8.073   1.027   2.986
 2608TIP3   OH2 7708   7.902   1.196   1.887
 2608TIP3    H1 7709   7.837   1.170   1.821
 2608TIP3    H2 7710   7.875   1.287   1.911
 2609TIP3   OH2 7711   7.344   1.050   2.268
 2609TIP3    H1 7712   7.391   1.038   2.353
 2609TIP3    H2 7713   7.294   0.965   2.264
 2610TIP3   OH2 7714   8.158   1.160   1.816
 2610TIP3    H1 7715   8.066   1.178   1.844
 2610TIP3    H2 7716   8.152   1.066   1.799
 2611TIP3   OH2 7717   7.525   0.821   3.096
 2611TIP3    H1 7718   7.574   0.803   3.179
 2611TIP3    H2 7719   7.451   0.757   3.103
 2612TIP3   OH2 7720   7.858   0.157   2.907
 2612TIP3    H1 7721   7.801   0.184   2.982
 2612TIP3    H2 7722   7.849   0.236   2.848
 2613TIP3   OH2 7723   8.418   0.447   3.183
 2613TIP3    H1 7724   8.400   0.402   3.268
 2613TIP3    H2 7725   8.512   0.468   3.196
 2614TIP3   OH2 7726   7.677   0.198   3.108
 2614TIP3    H1 7727   7.693   0.254   3.186
 2614TIP3    H2 7728   7.635   0.120   3.145
 2615TIP3   OH2 7729   8.384   0.399   2.787
 2615TIP3    H1 7730   8.445   0.329   2.763
 2615TIP3    H2 7731   8.356   0.367   2.875
 2616TIP3   OH2 7732   8.722   1.639   2.893
 2616TIP3    H1 7733   8.724   1.656   2.796
 2616TIP3    H2 7734   8.792   1.699   2.923
 2617TIP3   OH2 7735   7.686   0.742   3.317
 2617TIP3    H1 7736   7.765   0.774   3.364
 2617TIP3    H2 7737   7.621   0.743   3.390
 2618TIP3   OH2 7738   8.114   0.063   2.927
 2618TIP3    H1 7739   8.038   0.113   2.892
 2618TIP3    H2 7740   8.182   0.133   2.935
 2619TIP3   OH2 7741   8.270   0.804   2.955
 2619TIP3    H1 7742   8.281   0.782   3.048
 2619TIP3    H2 7743   8.228   0.891   2.958
 2620TIP3   OH2 7744   7.552   0.511   2.651
 2620TIP3    H1 7745   7.590   0.486   2.564
 2620TIP3    H2 7746   7.580   0.437   2.707
 2621TIP3   OH2 7747   7.438   0.423   3.244
 2621TIP3    H1 7748   7.455   0.408   3.339
 2621TIP3    H2 7749   7.364   0.361   3.227
 2622TIP3   OH2 7750   8.159   0.542   3.261
 2622TIP3    H1 7751   8.092   0.483   3.222
 2622TIP3    H2 7752   8.239   0.517   3.210
 2623TIP3   OH2 7753   8.423   1.053   2.855
 2623TIP3    H1 7754   8.327   1.058   2.864
 2623TIP3    H2 7755   8.452   1.112   2.927
 2624TIP3   OH2 7756   7.658   0.809   2.265
 2624TIP3    H1 7757   7.670   0.886   2.207
 2624TIP3    H2 7758   7.563   0.792   2.253
 2625TIP3   OH2 7759   7.836   0.582   2.247
 2625TIP3    H1 7760   7.801   0.669   2.220
 2625TIP3    H2 7761   7.765   0.550   2.305
 2626TIP3   OH2 7762   7.926   1.153   2.726
 2626TIP3    H1 7763   7.965   1.226   2.674
 2626TIP3    H2 7764   8.004   1.119   2.773
 2627TIP3   OH2 7765   7.581   1.049   2.112
 2627TIP3    H1 7766   7.493   1.055   2.155
 2627TIP3    H2 7767   7.609   1.143   2.114
 2628TIP3   OH2 7768   8.311   0.789   2.686
 2628TIP3    H1 7769   8.303   0.789   2.784
 2628TIP3    H2 7770   8.393   0.741   2.673
 2629TIP3   OH2 7771   8.552   1.317   2.734
 2629TIP3    H1 7772   8.468   1.270   2.717
 2629TIP3    H2 7773   8.548   1.385   2.663
 2630TIP3   OH2 7774   7.364   1.017   2.886
 2630TIP3    H1 7775   7.417   0.941   2.914
 2630TIP3    H2 7776   7.395   1.085   2.947
 2631TIP3   OH2 7777   8.337   0.245   3.010
 2631TIP3    H1 7778   8.350   0.315   3.077
 2631TIP3    H2 7779   8.376   0.168   3.053
 2632TIP3   OH2 7780   7.545   0.947   1.848
 2632TIP3    H1 7781   7.559   1.029   1.799
 2632TIP3    H2 7782   7.576   0.969   1.938
 2633TIP3   OH2 7783   8.606   1.300   2.336
 2633TIP3    H1 7784   8.561   1.347   2.262
 2633TIP3    H2 7785   8.681   1.256   2.291
 2634TIP3   OH2 7786   7.210   0.803   2.241
 2634TIP3    H1 7787   7.128   0.812   2.290
 2634TIP3    H2 7788   7.181   0.828   2.151
 2635TIP3   OH2 7789   7.355   1.325   3.308
 2635TIP3    H1 7790   7.441   1.324   3.354
 2635TIP3    H2 7791   7.333   1.230   3.306
 2636TIP3   OH2 7792   7.837   1.287   3.355
 2636TIP3    H1 7793   7.932   1.273   3.356
 2636TIP3    H2 7794   7.810   1.229   3.281
 2637TIP3   OH2 7795   8.475   1.196   3.086
 2637TIP3    H1 7796   8.467   1.126   3.155
 2637TIP3    H2 7797   8.550   1.249   3.120
 2638TIP3   OH2 7798   7.486   0.730   3.509
 2638TIP3    H1 7799   7.502   0.634   3.514
 2638TIP3    H2 7800   7.399   0.734   3.464
 2639TIP3   OH2 7801   8.094   0.816   3.282
 2639TIP3    H1 7802   8.050   0.833   3.196
 2639TIP3    H2 7803   8.123   0.722   3.273
 2640TIP3   OH2 7804   8.591   0.826   2.881
 2640TIP3    H1 7805   8.643   0.872   2.814
 2640TIP3    H2 7806   8.513   0.885   2.885
 2641TIP3   OH2 7807   7.605   0.460   3.493
 2641TIP3    H1 7808   7.680   0.403   3.472
 2641TIP3    H2 7809   7.631   0.493   3.581
 2642TIP3   OH2 7810   7.939   0.393   3.135
 2642TIP3    H1 7811   7.853   0.441   3.131
 2642TIP3    H2 7812   7.985   0.421   3.053
 2643TIP3   OH2 7813   8.456   0.754   3.291
 2643TIP3    H1 7814   8.534   0.728   3.242
 2643TIP3    H2 7815   8.453   0.687   3.363
 2644TIP3   OH2 7816   8.014   0.188   3.287
 2644TIP3    H1 7817   8.025   0.110   3.228
 2644TIP3    H2 7818   7.980   0.255   3.225
 2645TIP3   OH2 7819   8.114   0.473   2.938
 2645TIP3    H1 7820   8.187   0.480   2.876
 2645TIP3    H2 7821   8.049   0.536   2.900
 2646TIP3   OH2 7822   8.677   0.435   3.336
 2646TIP3    H1 7823   8.719   0.349   3.334
 2646TIP3    H2 7824   8.748   0.496   3.314
 2647TIP3   OH2 7825   8.734   0.689   3.068
 2647TIP3    H1 7826   8.670   0.738   3.011
 2647TIP3    H2 7827   8.817   0.711   3.021
 2648TIP3   OH2 7828   7.913   0.282   3.523
 2648TIP3    H1 7829   7.847   0.211   3.526
 2648TIP3    H2 7830   7.960   0.256   3.441
 2649TIP3   OH2 7831   8.379   0.303   3.403
 2649TIP3    H1 7832   8.333   0.286   3.486
 2649TIP3    H2 7833   8.407   0.213   3.378
 2650TIP3   OH2 7834   7.590   1.161   1.672
 2650TIP3    H1 7835   7.646   1.238   1.683
 2650TIP3    H2 7836   7.536   1.191   1.597
 2651TIP3   OH2 7837   6.973   1.136   2.297
 2651TIP3    H1 7838   6.906   1.072   2.262
 2651TIP3    H2 7839   7.018   1.080   2.364
 2652TIP3   OH2 7840   7.104   0.991   2.488
 2652TIP3    H1 7841   7.097   0.913   2.545
 2652TIP3    H2 7842   7.160   1.049   2.543
 2653TIP3   OH2 7843   8.720   1.109   2.627
 2653TIP3    H1 7844   8.655   1.174   2.660
 2653TIP3    H2 7845   8.673   1.070   2.551
 2654TIP3   OH2 7846   7.296   0.388   2.860
 2654TIP3    H1 7847   7.291   0.362   2.766
 2654TIP3    H2 7848   7.394   0.392   2.872
 2655TIP3   OH2 7849   7.293   0.053   2.941
 2655TIP3    H1 7850   7.345   0.051   2.859
 2655TIP3    H2 7851   7.304   0.145   2.967
 2656TIP3   OH2 7852   8.460   1.237   1.937
 2656TIP3    H1 7853   8.449   1.243   1.841
 2656TIP3    H2 7854   8.459   1.330   1.963
 2657TIP3   OH2 7855   7.522   1.055   3.328
 2657TIP3    H1 7856   7.430   1.030   3.309
 2657TIP3    H2 7857   7.527   1.041   3.424
 2658TIP3   OH2 7858   7.700   1.091   2.876
 2658TIP3    H1 7859   7.651   1.165   2.836
 2658TIP3    H2 7860   7.786   1.105   2.831
 2659TIP3   OH2 7861   8.145   1.333   3.012
 2659TIP3    H1 7862   8.186   1.337   3.101
 2659TIP3    H2 7863   8.210   1.384   2.959
 2660TIP3   OH2 7864   8.323   1.485   2.872
 2660TIP3    H1 7865   8.395   1.437   2.827
 2660TIP3    H2 7866   8.374   1.543   2.932
 2661TIP3   OH2 7867   7.376   1.348   2.899
 2661TIP3    H1 7868   7.287   1.381   2.874
 2661TIP3    H2 7869   7.384   1.384   2.987
 2662TIP3   OH2 7870   7.613   1.326   2.757
 2662TIP3    H1 7871   7.526   1.339   2.801
 2662TIP3    H2 7872   7.594   1.357   2.667
 2663TIP3   OH2 7873   8.037   1.353   2.554
 2663TIP3    H1 7874   7.968   1.373   2.489
 2663TIP3    H2 7875   8.051   1.441   2.595
 2664TIP3   OH2 7876   8.305   1.290   2.607
 2664TIP3    H1 7877   8.212   1.310   2.584
 2664TIP3    H2 7878   8.351   1.365   2.564
 2665TIP3   OH2 7879   8.505   1.478   2.523
 2665TIP3    H1 7880   8.491   1.566   2.481
 2665TIP3    H2 7881   8.542   1.426   2.449
 2666TIP3   OH2 7882   7.287   1.141   2.645
 2666TIP3    H1 7883   7.314   1.115   2.735
 2666TIP3    H2 7884   7.358   1.098   2.593
 2667TIP3   OH2 7885   7.480   1.014   2.502
 2667TIP3    H1 7886   7.497   0.929   2.548
 2667TIP3    H2 7887   7.571   1.050   2.495
 2668TIP3   OH2 7888   7.746   1.112   2.502
 2668TIP3    H1 7889   7.780   1.025   2.476
 2668TIP3    H2 7890   7.792   1.124   2.587
 2669TIP3   OH2 7891   7.075   0.909   2.031
 2669TIP3    H1 7892   6.988   0.878   2.000
 2669TIP3    H2 7893   7.065   1.005   2.020
 2670TIP3   OH2 7894   7.172   0.967   1.698
 2670TIP3    H1 7895   7.149   0.999   1.786
 2670TIP3    H2 7896   7.248   0.908   1.717
 2671TIP3   OH2 7897   8.760   1.369   2.912
 2671TIP3    H1 7898   8.696   1.330   2.849
 2671TIP3    H2 7899   8.739   1.464   2.901
 2672TIP3   OH2 7900   0.951   1.522   3.926
 2672TIP3    H1 7901   0.953   1.519   4.022
 2672TIP3    H2 7902   0.982   1.613   3.907
 2673TIP3   OH2 7903   0.609   2.018   3.931
 2673TIP3    H1 7904   0.660   1.941   3.900
 2673TIP3    H2 7905   0.607   2.002   4.026
 2674TIP3   OH2 7906   0.515   1.484   4.318
 2674TIP3    H1 7907   0.529   1.454   4.228
 2674TIP3    H2 7908   0.602   1.524   4.338
 2675TIP3   OH2 7909   1.526   0.811   4.296
 2675TIP3    H1 7910   1.556   0.895   4.336
 2675TIP3    H2 7911   1.551   0.826   4.203
 2676TIP3   OH2 7912   1.600   1.019   4.468
 2676TIP3    H1 7913   1.519   1.070   4.445
 2676TIP3    H2 7914   1.620   1.055   4.555
 2677TIP3   OH2 7915   0.367   1.411   4.538
 2677TIP3    H1 7916   0.304   1.482   4.561
 2677TIP3    H2 7917   0.412   1.448   4.458
 2678TIP3   OH2 7918   0.187   1.608   4.620
 2678TIP3    H1 7919   0.167   1.698   4.587
 2678TIP3    H2 7920   0.107   1.589   4.673
 2679TIP3   OH2 7921   1.320   0.711   4.458
 2679TIP3    H1 7922   1.244   0.768   4.442
 2679TIP3    H2 7923   1.383   0.741   4.388
 2680TIP3   OH2 7924   0.760   1.838   3.766
 2680TIP3    H1 7925   0.850   1.814   3.798
 2680TIP3    H2 7926   0.785   1.917   3.715
 2681TIP3   OH2 7927   1.254   1.727   4.440
 2681TIP3    H1 7928   1.244   1.650   4.381
 2681TIP3    H2 7929   1.231   1.801   4.380
 2682TIP3   OH2 7930   1.449   1.362   4.287
 2682TIP3    H1 7931   1.366   1.414   4.290
 2682TIP3    H2 7932   1.480   1.386   4.196
 2683TIP3   OH2 7933   1.135   1.244   4.583
 2683TIP3    H1 7934   1.128   1.329   4.629
 2683TIP3    H2 7935   1.047   1.240   4.539
 2684TIP3   OH2 7936   0.778   1.808   4.207
 2684TIP3    H1 7937   0.769   1.894   4.252
 2684TIP3    H2 7938   0.772   1.743   4.278
 2685TIP3   OH2 7939   0.394   1.722   4.772
 2685TIP3    H1 7940   0.333   1.789   4.809
 2685TIP3    H2 7941   0.334   1.670   4.715
 2686TIP3   OH2 7942   0.151   1.285   4.860
 2686TIP3    H1 7943   0.149   1.374   4.899
 2686TIP3    H2 7944   0.059   1.271   4.834
 2687TIP3   OH2 7945   0.190   1.898   4.855
 2687TIP3    H1 7946   0.161   1.906   4.762
 2687TIP3    H2 7947   0.107   1.876   4.901
 2688TIP3   OH2 7948   1.492   2.071   4.488
 2688TIP3    H1 7949   1.489   1.974   4.498
 2688TIP3    H2 7950   1.407   2.095   4.532
 2689TIP3   OH2 7951   0.615   1.848   4.640
 2689TIP3    H1 7952   0.602   1.945   4.643
 2689TIP3    H2 7953   0.530   1.817   4.676
 2690TIP3   OH2 7954   1.380   1.201   4.762
 2690TIP3    H1 7955   1.300   1.214   4.709
 2690TIP3    H2 7956   1.394   1.105   4.752
 2691TIP3   OH2 7957  -0.027   1.583   4.794
 2691TIP3    H1 7958   0.033   1.586   4.871
 2691TIP3    H2 7959  -0.107   1.545   4.832
 2692TIP3   OH2 7960   0.914   0.560   4.774
 2692TIP3    H1 7961   0.993   0.524   4.819
 2692TIP3    H2 7962   0.843   0.533   4.832
 2693TIP3   OH2 7963   1.156   0.978   4.681
 2693TIP3    H1 7964   1.102   0.971   4.763
 2693TIP3    H2 7965   1.125   1.064   4.646
 2694TIP3   OH2 7966   0.861   1.209   4.930
 2694TIP3    H1 7967   0.844   1.130   4.985
 2694TIP3    H2 7968   0.957   1.215   4.937
 2695TIP3   OH2 7969   0.881   1.200   4.485
 2695TIP3    H1 7970   0.869   1.126   4.425
 2695TIP3    H2 7971   0.845   1.161   4.568
 2696TIP3   OH2 7972   1.183   2.419   4.584
 2696TIP3    H1 7973   1.177   2.442   4.489
 2696TIP3    H2 7974   1.260   2.471   4.612
 2697TIP3   OH2 7975   0.143   1.542   5.007
 2697TIP3    H1 7976   0.231   1.581   5.021
 2697TIP3    H2 7977   0.125   1.512   5.097
 2698TIP3   OH2 7978   1.219   1.509   4.279
 2698TIP3    H1 7979   1.248   1.557   4.197
 2698TIP3    H2 7980   1.133   1.471   4.250
 2699TIP3   OH2 7981   0.722   1.593   4.641
 2699TIP3    H1 7982   0.731   1.568   4.733
 2699TIP3    H2 7983   0.686   1.685   4.647
 2700TIP3   OH2 7984   0.610   1.328   4.959
 2700TIP3    H1 7985   0.548   1.273   4.908
 2700TIP3    H2 7986   0.696   1.294   4.926
 2701TIP3   OH2 7987   0.884   1.844   4.549
 2701TIP3    H1 7988   0.786   1.844   4.553
 2701TIP3    H2 7989   0.903   1.906   4.621
 2702TIP3   OH2 7990   1.505   1.780   4.529
 2702TIP3    H1 7991   1.407   1.775   4.519
 2702TIP3    H2 7992   1.532   1.749   4.439
 2703TIP3   OH2 7993   0.987   1.383   4.203
 2703TIP3    H1 7994   0.899   1.369   4.239
 2703TIP3    H2 7995   1.016   1.291   4.187
 2704TIP3   OH2 7996   0.775   1.562   4.376
 2704TIP3    H1 7997   0.757   1.570   4.473
 2704TIP3    H2 7998   0.869   1.542   4.377
 2705TIP3   OH2 7999   1.014   2.108   4.423
 2705TIP3    H1 8000   0.932   2.056   4.413
 2705TIP3    H2 8001   0.999   2.177   4.354
 2706TIP3   OH2 8002  -0.197   1.795   4.633
 2706TIP3    H1 8003  -0.124   1.734   4.621
 2706TIP3    H2 8004  -0.157   1.881   4.616
 2707TIP3   OH2 8005   0.929   0.795   4.628
 2707TIP3    H1 8006   1.016   0.822   4.658
 2707TIP3    H2 8007   0.918   0.707   4.671
 2708TIP3   OH2 8008   0.803   1.054   4.693
 2708TIP3    H1 8009   0.797   1.087   4.784
 2708TIP3    H2 8010   0.822   0.960   4.703
 2709TIP3   OH2 8011   1.421   0.932   4.686
 2709TIP3    H1 8012   1.322   0.932   4.689
 2709TIP3    H2 8013   1.435   0.906   4.594
 2710TIP3   OH2 8014   1.040   1.120   4.158
 2710TIP3    H1 8015   0.996   1.046   4.115
 2710TIP3    H2 8016   1.130   1.083   4.172
 2711TIP3   OH2 8017   1.049   2.104   4.044
 2711TIP3    H1 8018   0.994   2.132   3.968
 2711TIP3    H2 8019   1.121   2.060   3.995
 2712TIP3   OH2 8020  -0.178   2.123   4.982
 2712TIP3    H1 8021  -0.100   2.126   5.041
 2712TIP3    H2 8022  -0.199   2.029   4.984
 2713TIP3   OH2 8023   0.300   2.075   5.047
 2713TIP3    H1 8024   0.391   2.044   5.040
 2713TIP3    H2 8025   0.261   2.025   4.972
 2714TIP3   OH2 8026   0.919   1.993   4.786
 2714TIP3    H1 8027   0.915   1.916   4.847
 2714TIP3    H2 8028   1.005   2.035   4.809
 2715TIP3   OH2 8029   0.543   1.601   4.972
 2715TIP3    H1 8030   0.505   1.623   4.885
 2715TIP3    H2 8031   0.573   1.509   4.960
 2716TIP3   OH2 8032   1.039   1.611   4.577
 2716TIP3    H1 8033   1.113   1.658   4.532
 2716TIP3    H2 8034   0.969   1.678   4.569
 2717TIP3   OH2 8035   0.399   1.151   4.856
 2717TIP3    H1 8036   0.310   1.189   4.844
 2717TIP3    H2 8037   0.442   1.174   4.770
 2718TIP3   OH2 8038   0.914   1.541   4.981
 2718TIP3    H1 8039   0.983   1.512   4.921
 2718TIP3    H2 8040   0.906   1.465   5.042
 2719TIP3   OH2 8041   0.549   0.940   4.958
 2719TIP3    H1 8042   0.493   0.873   4.914
 2719TIP3    H2 8043   0.496   1.019   4.935
 2720TIP3   OH2 8044   0.551   1.254   4.657
 2720TIP3    H1 8045   0.625   1.254   4.596
 2720TIP3    H2 8046   0.487   1.314   4.612
 2721TIP3   OH2 8047   1.131   1.217   5.033
 2721TIP3    H1 8048   1.177   1.131   5.031
 2721TIP3    H2 8049   1.197   1.275   4.993
 2722TIP3   OH2 8050   1.167   1.471   4.768
 2722TIP3    H1 8051   1.110   1.522   4.707
 2722TIP3    H2 8052   1.255   1.490   4.728
 2723TIP3   OH2 8053   0.798   0.979   5.060
 2723TIP3    H1 8054   0.783   0.986   5.155
 2723TIP3    H2 8055   0.708   0.961   5.025
 2724TIP3   OH2 8056   1.026   0.935   4.912
 2724TIP3    H1 8057   0.948   0.935   4.971
 2724TIP3    H2 8058   1.097   0.900   4.970
 2725TIP3   OH2 8059   1.249   0.871   5.066
 2725TIP3    H1 8060   1.260   0.775   5.084
 2725TIP3    H2 8061   1.244   0.909   5.156
 2726TIP3   OH2 8062   1.315   2.170   3.957
 2726TIP3    H1 8063   1.311   2.199   4.050
 2726TIP3    H2 8064   1.318   2.253   3.909
 2727TIP3   OH2 8065   1.315   2.196   4.256
 2727TIP3    H1 8066   1.270   2.110   4.247
 2727TIP3    H2 8067   1.392   2.169   4.308
 2728TIP3   OH2 8068   1.367   1.872   4.832
 2728TIP3    H1 8069   1.293   1.881   4.894
 2728TIP3    H2 8070   1.407   1.961   4.834
 2729TIP3   OH2 8071   1.314   1.250   3.640
 2729TIP3    H1 8072   1.259   1.212   3.709
 2729TIP3    H2 8073   1.388   1.287   3.690
 2730TIP3   OH2 8074   1.351   1.635   4.083
 2730TIP3    H1 8075   1.409   1.578   4.030
 2730TIP3    H2 8076   1.358   1.719   4.034
 2731TIP3   OH2 8077   1.185   1.944   4.278
 2731TIP3    H1 8078   1.118   1.991   4.331
 2731TIP3    H2 8079   1.137   1.928   4.196
 2732TIP3   OH2 8080   1.411   1.534   4.659
 2732TIP3    H1 8081   1.484   1.468   4.647
 2732TIP3    H2 8082   1.434   1.602   4.593
 2733TIP3   OH2 8083   1.596   1.338   4.674
 2733TIP3    H1 8084   1.521   1.288   4.713
 2733TIP3    H2 8085   1.669   1.274   4.688
 2734TIP3   OH2 8086   1.286   1.008   4.195
 2734TIP3    H1 8087   1.371   1.028   4.150
 2734TIP3    H2 8088   1.308   1.043   4.283
 2735TIP3   OH2 8089   1.353   1.145   4.427
 2735TIP3    H1 8090   1.274   1.180   4.473
 2735TIP3    H2 8091   1.384   1.225   4.379
 2736TIP3   OH2 8092   1.802   0.733   4.979
 2736TIP3    H1 8093   1.860   0.668   4.935
 2736TIP3    H2 8094   1.772   0.787   4.903
 2737TIP3   OH2 8095   1.672   0.872   4.786
 2737TIP3    H1 8096   1.585   0.914   4.802
 2737TIP3    H2 8097   1.645   0.801   4.725
 2738TIP3   OH2 8098   0.858   2.054   3.621
 2738TIP3    H1 8099   0.923   1.998   3.578
 2738TIP3    H2 8100   0.912   2.088   3.695
 2739TIP3   OH2 8101  -0.040   1.840   5.020
 2739TIP3    H1 8102  -0.113   1.781   5.000
 2739TIP3    H2 8103  -0.031   1.834   5.116
 2740TIP3   OH2 8104   0.156   1.875   4.573
 2740TIP3    H1 8105   0.103   1.943   4.524
 2740TIP3    H2 8106   0.243   1.900   4.539
 2741TIP3   OH2 8107   0.598   2.123   4.722
 2741TIP3    H1 8108   0.673   2.138   4.779
 2741TIP3    H2 8109   0.631   2.164   4.639
 2742TIP3   OH2 8110   0.795   2.254   4.582
 2742TIP3    H1 8111   0.861   2.219   4.522
 2742TIP3    H2 8112   0.842   2.325   4.629
 2743TIP3   OH2 8113   1.574   0.636   4.663
 2743TIP3    H1 8114   1.483   0.632   4.628
 2743TIP3    H2 8115   1.604   0.543   4.650
 2744TIP3   OH2 8116  -0.180   2.143   4.594
 2744TIP3    H1 8117  -0.270   2.177   4.576
 2744TIP3    H2 8118  -0.168   2.170   4.685
 2745TIP3   OH2 8119   0.043   2.079   4.445
 2745TIP3    H1 8120  -0.035   2.123   4.482
 2745TIP3    H2 8121   0.064   2.131   4.366
 2746TIP3   OH2 8122   0.748   2.082   4.304
 2746TIP3    H1 8123   0.659   2.104   4.339
 2746TIP3    H2 8124   0.769   2.162   4.255
 2747TIP3   OH2 8125   0.975   2.291   4.224
 2747TIP3    H1 8126   0.952   2.368   4.169
 2747TIP3    H2 8127   1.000   2.224   4.155
 2748TIP3   OH2 8128   0.172   1.915   4.209
 2748TIP3    H1 8129   0.203   1.858   4.137
 2748TIP3    H2 8130   0.252   1.939   4.258
 2749TIP3   OH2 8131   0.957   1.917   3.347
 2749TIP3    H1 8132   1.042   1.929   3.394
 2749TIP3    H2 8133   0.946   2.005   3.308
 2750TIP3   OH2 8134   1.303   0.600   5.098
 2750TIP3    H1 8135   1.326   0.567   5.187
 2750TIP3    H2 8136   1.390   0.594   5.052
 2751TIP3   OH2 8137   1.242   2.150   4.589
 2751TIP3    H1 8138   1.166   2.118   4.537
 2751TIP3    H2 8139   1.224   2.246   4.589
 2752TIP3   OH2 8140   2.517   1.523   3.728
 2752TIP3    H1 8141   2.538   1.493   3.818
 2752TIP3    H2 8142   2.467   1.448   3.693
 2753TIP3   OH2 8143   1.811   1.420   4.100
 2753TIP3    H1 8144   1.843   1.352   4.162
 2753TIP3    H2 8145   1.890   1.475   4.090
 2754TIP3   OH2 8146   2.760   1.827   3.415
 2754TIP3    H1 8147   2.735   1.762   3.482
 2754TIP3    H2 8148   2.788   1.903   3.470
 2755TIP3   OH2 8149   1.790   1.823   3.835
 2755TIP3    H1 8150   1.773   1.726   3.833
 2755TIP3    H2 8151   1.887   1.824   3.827
 2756TIP3   OH2 8152   1.547   1.319   3.780
 2756TIP3    H1 8153   1.598   1.244   3.816
 2756TIP3    H2 8154   1.600   1.344   3.703
 2757TIP3   OH2 8155   2.405   2.288   3.431
 2757TIP3    H1 8156   2.449   2.216   3.381
 2757TIP3    H2 8157   2.396   2.249   3.518
 2758TIP3   OH2 8158   2.308   1.750   3.784
 2758TIP3    H1 8159   2.344   1.677   3.732
 2758TIP3    H2 8160   2.393   1.794   3.808
 2759TIP3   OH2 8161   3.325   1.071   3.784
 2759TIP3    H1 8162   3.349   1.152   3.834
 2759TIP3    H2 8163   3.337   1.103   3.692
 2760TIP3   OH2 8164   2.728   1.255   3.819
 2760TIP3    H1 8165   2.767   1.169   3.841
 2760TIP3    H2 8166   2.686   1.233   3.733
 2761TIP3   OH2 8167   2.062   0.912   3.783
 2761TIP3    H1 8168   2.037   0.982   3.719
 2761TIP3    H2 8169   2.016   0.835   3.743
 2762TIP3   OH2 8170   2.780   1.029   3.380
 2762TIP3    H1 8171   2.827   1.014   3.465
 2762TIP3    H2 8172   2.831   0.968   3.325
 2763TIP3   OH2 8173   1.695   1.114   3.890
 2763TIP3    H1 8174   1.777   1.096   3.939
 2763TIP3    H2 8175   1.709   1.055   3.812
 2764TIP3   OH2 8176   2.132   1.310   3.682
 2764TIP3    H1 8177   2.226   1.287   3.693
 2764TIP3    H2 8178   2.095   1.225   3.649
 2765TIP3   OH2 8179   3.392   1.276   3.957
 2765TIP3    H1 8180   3.314   1.333   3.939
 2765TIP3    H2 8181   3.434   1.326   4.031
 2766TIP3   OH2 8182   2.055   0.893   4.215
 2766TIP3    H1 8183   1.995   0.931   4.147
 2766TIP3    H2 8184   2.003   0.912   4.296
 2767TIP3   OH2 8185   2.430   1.779   3.196
 2767TIP3    H1 8186   2.379   1.698   3.184
 2767TIP3    H2 8187   2.362   1.842   3.225
 2768TIP3   OH2 8188   2.163   1.669   4.010
 2768TIP3    H1 8189   2.101   1.736   4.047
 2768TIP3    H2 8190   2.205   1.720   3.937
 2769TIP3   OH2 8191   2.960   1.003   3.580
 2769TIP3    H1 8192   2.947   0.961   3.666
 2769TIP3    H2 8193   3.014   1.081   3.604
 2770TIP3   OH2 8194   1.927   1.010   4.000
 2770TIP3    H1 8195   1.988   1.083   4.024
 2770TIP3    H2 8196   1.976   0.971   3.924
 2771TIP3   OH2 8197   1.990   1.864   4.109
 2771TIP3    H1 8198   1.965   1.949   4.068
 2771TIP3    H2 8199   1.910   1.848   4.163
 2772TIP3   OH2 8200   1.388   1.559   3.349
 2772TIP3    H1 8201   1.353   1.589   3.264
 2772TIP3    H2 8202   1.419   1.641   3.389
 2773TIP3   OH2 8203   2.823   2.069   3.582
 2773TIP3    H1 8204   2.734   2.061   3.622
 2773TIP3    H2 8205   2.816   2.156   3.539
 2774TIP3   OH2 8206   3.115   0.960   3.940
 2774TIP3    H1 8207   3.031   1.003   3.919
 2774TIP3    H2 8208   3.177   0.999   3.875
 2775TIP3   OH2 8209   2.413   0.612   3.926
 2775TIP3    H1 8210   2.400   0.518   3.949
 2775TIP3    H2 8211   2.336   0.652   3.972
 2776TIP3   OH2 8212   2.526   2.112   3.254
 2776TIP3    H1 8213   2.578   2.031   3.237
 2776TIP3    H2 8214   2.586   2.179   3.215
 2777TIP3   OH2 8215   2.673   1.893   3.160
 2777TIP3    H1 8216   2.588   1.844   3.161
 2777TIP3    H2 8217   2.713   1.862   3.244
 2778TIP3   OH2 8218   3.046   1.984   3.935
 2778TIP3    H1 8219   3.044   1.905   3.877
 2778TIP3    H2 8220   3.040   2.057   3.871
 2779TIP3   OH2 8221   2.330   1.130   3.015
 2779TIP3    H1 8222   2.404   1.190   3.034
 2779TIP3    H2 8223   2.360   1.089   2.932
 2780TIP3   OH2 8224   3.224   1.581   3.724
 2780TIP3    H1 8225   3.179   1.651   3.775
 2780TIP3    H2 8226   3.264   1.635   3.652
 2781TIP3   OH2 8227   2.919   1.496   4.060
 2781TIP3    H1 8228   2.919   1.575   4.115
 2781TIP3    H2 8229   2.832   1.503   4.017
 2782TIP3   OH2 8230   1.920   1.451   3.571
 2782TIP3    H1 8231   1.885   1.392   3.501
 2782TIP3    H2 8232   1.999   1.402   3.601
 2783TIP3   OH2 8233   2.054   1.867   3.723
 2783TIP3    H1 8234   2.030   1.831   3.637
 2783TIP3    H2 8235   2.143   1.831   3.738
 2784TIP3   OH2 8236   2.060   1.426   3.929
 2784TIP3    H1 8237   2.091   1.404   3.839
 2784TIP3    H2 8238   2.102   1.513   3.946
 2785TIP3   OH2 8239   2.582   2.065   3.704
 2785TIP3    H1 8240   2.570   2.145   3.759
 2785TIP3    H2 8241   2.568   1.992   3.767
 2786TIP3   OH2 8242   2.195   1.984   4.252
 2786TIP3    H1 8243   2.134   2.046   4.297
 2786TIP3    H2 8244   2.131   1.931   4.201
 2787TIP3   OH2 8245   2.576   1.293   3.001
 2787TIP3    H1 8246   2.528   1.355   3.057
 2787TIP3    H2 8247   2.577   1.336   2.913
 2788TIP3   OH2 8248   1.951   1.538   4.354
 2788TIP3    H1 8249   1.955   1.626   4.396
 2788TIP3    H2 8250   1.855   1.520   4.361
 2789TIP3   OH2 8251   2.265   2.003   3.263
 2789TIP3    H1 8252   2.350   2.049   3.273
 2789TIP3    H2 8253   2.210   2.069   3.219
 2790TIP3   OH2 8254   1.990   2.153   4.338
 2790TIP3    H1 8255   1.957   2.152   4.247
 2790TIP3    H2 8256   1.910   2.130   4.390
 2791TIP3   OH2 8257   3.038   0.568   3.032
 2791TIP3    H1 8258   2.952   0.586   3.075
 2791TIP3    H2 8259   3.051   0.650   2.980
 2792TIP3   OH2 8260   1.794   1.283   3.373
 2792TIP3    H1 8261   1.729   1.349   3.337
 2792TIP3    H2 8262   1.734   1.215   3.406
 2793TIP3   OH2 8263   2.842   1.922   2.576
 2793TIP3    H1 8264   2.850   2.020   2.565
 2793TIP3    H2 8265   2.936   1.895   2.566
 2794TIP3   OH2 8266   1.568   1.684   4.284
 2794TIP3    H1 8267   1.506   1.667   4.211
 2794TIP3    H2 8268   1.604   1.595   4.303
 2795TIP3   OH2 8269   1.451   1.859   3.966
 2795TIP3    H1 8270   1.532   1.879   3.918
 2795TIP3    H2 8271   1.398   1.938   3.949
 2796TIP3   OH2 8272   3.283   2.334   3.968
 2796TIP3    H1 8273   3.289   2.236   3.977
 2796TIP3    H2 8274   3.201   2.351   4.018
 2797TIP3   OH2 8275   2.394   2.112   4.109
 2797TIP3    H1 8276   2.392   2.205   4.141
 2797TIP3    H2 8277   2.321   2.072   4.162
 2798TIP3   OH2 8278   2.152   2.240   3.060
 2798TIP3    H1 8279   2.109   2.228   2.974
 2798TIP3    H2 8280   2.124   2.329   3.086
 2799TIP3   OH2 8281   1.593   2.072   3.419
 2799TIP3    H1 8282   1.678   2.025   3.427
 2799TIP3    H2 8283   1.536   2.000   3.384
 2800TIP3   OH2 8284   2.354   2.143   2.703
 2800TIP3    H1 8285   2.411   2.075   2.661
 2800TIP3    H2 8286   2.394   2.151   2.792
 2801TIP3   OH2 8287   2.406   2.191   2.973
 2801TIP3    H1 8288   2.318   2.201   3.015
 2801TIP3    H2 8289   2.457   2.149   3.044
 2802TIP3   OH2 8290   3.160   1.459   4.276
 2802TIP3    H1 8291   3.153   1.496   4.187
 2802TIP3    H2 8292   3.199   1.372   4.259
 2803TIP3   OH2 8293   1.773   1.866   4.275
 2803TIP3    H1 8294   1.823   1.846   4.357
 2803TIP3    H2 8295   1.699   1.803   4.280
 2804TIP3   OH2 8296   2.174   0.688   4.058
 2804TIP3    H1 8297   2.085   0.659   4.030
 2804TIP3    H2 8298   2.150   0.772   4.103
 2805TIP3   OH2 8299   2.708   0.803   4.252
 2805TIP3    H1 8300   2.776   0.777   4.317
 2805TIP3    H2 8301   2.624   0.785   4.298
 2806TIP3   OH2 8302   2.943   1.228   4.162
 2806TIP3    H1 8303   2.901   1.231   4.251
 2806TIP3    H2 8304   2.935   1.320   4.132
 2807TIP3   OH2 8305   2.608   1.360   2.724
 2807TIP3    H1 8306   2.582   1.353   2.630
 2807TIP3    H2 8307   2.689   1.415   2.717
 2808TIP3   OH2 8308   2.106   1.204   4.077
 2808TIP3    H1 8309   2.055   1.226   4.157
 2808TIP3    H2 8310   2.091   1.285   4.023
 2809TIP3   OH2 8311   1.989   1.088   3.591
 2809TIP3    H1 8312   1.892   1.076   3.596
 2809TIP3    H2 8313   2.008   1.051   3.502
 2810TIP3   OH2 8314   2.654   1.455   4.405
 2810TIP3    H1 8315   2.633   1.382   4.466
 2810TIP3    H2 8316   2.749   1.468   4.422
 2811TIP3   OH2 8317   2.624   1.198   3.578
 2811TIP3    H1 8318   2.579   1.257   3.512
 2811TIP3    H2 8319   2.650   1.126   3.518
 2812TIP3   OH2 8320   1.925   1.234   4.285
 2812TIP3    H1 8321   1.950   1.299   4.352
 2812TIP3    H2 8322   1.914   1.153   4.337
 2813TIP3   OH2 8323   2.638   1.451   3.980
 2813TIP3    H1 8324   2.678   1.381   3.923
 2813TIP3    H2 8325   2.614   1.397   4.058
 2814TIP3   OH2 8326   2.319   0.913   3.651
 2814TIP3    H1 8327   2.236   0.914   3.703
 2814TIP3    H2 8328   2.386   0.916   3.721
 2815TIP3   OH2 8329   1.745   0.961   3.670
 2815TIP3    H1 8330   1.661   0.975   3.621
 2815TIP3    H2 8331   1.778   0.879   3.630
 2816TIP3   OH2 8332   2.055   0.981   3.352
 2816TIP3    H1 8333   2.151   0.986   3.338
 2816TIP3    H2 8334   2.020   1.028   3.275
 2817TIP3   OH2 8335   2.803   0.987   3.849
 2817TIP3    H1 8336   2.774   1.000   3.942
 2817TIP3    H2 8337   2.734   0.927   3.817
 2818TIP3   OH2 8338   2.977   2.679   4.071
 2818TIP3    H1 8339   2.975   2.700   3.976
 2818TIP3    H2 8340   3.057   2.727   4.100
 2819TIP3   OH2 8341   1.935   1.786   4.494
 2819TIP3    H1 8342   2.015   1.818   4.541
 2819TIP3    H2 8343   1.870   1.787   4.567
 2820TIP3   OH2 8344   2.397   1.239   3.751
 2820TIP3    H1 8345   2.472   1.207   3.699
 2820TIP3    H2 8346   2.410   1.196   3.837
 2821TIP3   OH2 8347   1.952   0.706   3.637
 2821TIP3    H1 8348   1.980   0.616   3.660
 2821TIP3    H2 8349   2.007   0.722   3.559
 2822TIP3   OH2 8350   2.376   1.135   4.042
 2822TIP3    H1 8351   2.287   1.174   4.053
 2822TIP3    H2 8352   2.434   1.198   4.091
 2823TIP3   OH2 8353   2.097   1.563   3.131
 2823TIP3    H1 8354   2.080   1.466   3.133
 2823TIP3    H2 8355   2.096   1.582   3.228
 2824TIP3   OH2 8356   3.009   1.771   3.768
 2824TIP3    H1 8357   3.039   1.815   3.686
 2824TIP3    H2 8358   2.927   1.726   3.739
 2825TIP3   OH2 8359   2.561   0.875   3.022
 2825TIP3    H1 8360   2.470   0.854   2.996
 2825TIP3    H2 8361   2.583   0.940   2.952
 2826TIP3   OH2 8362   2.510   1.846   4.130
 2826TIP3    H1 8363   2.536   1.826   4.221
 2826TIP3    H2 8364   2.473   1.935   4.136
 2827TIP3   OH2 8365   1.806   1.547   3.810
 2827TIP3    H1 8366   1.841   1.517   3.723
 2827TIP3    H2 8367   1.846   1.482   3.870
 2828TIP3   OH2 8368   2.260   1.689   2.952
 2828TIP3    H1 8369   2.215   1.775   2.967
 2828TIP3    H2 8370   2.211   1.632   3.015
 2829TIP3   OH2 8371   1.686   1.469   4.422
 2829TIP3    H1 8372   1.703   1.455   4.517
 2829TIP3    H2 8373   1.615   1.405   4.405
 2830TIP3   OH2 8374   2.411   1.585   4.443
 2830TIP3    H1 8375   2.352   1.527   4.392
 2830TIP3    H2 8376   2.499   1.551   4.415
 2831TIP3   OH2 8377   2.671   2.107   4.027
 2831TIP3    H1 8378   2.575   2.105   4.039
 2831TIP3    H2 8379   2.699   2.160   4.105
 2832TIP3   OH2 8380   3.100   1.184   2.922
 2832TIP3    H1 8381   3.027   1.137   2.877
 2832TIP3    H2 8382   3.085   1.273   2.882
 2833TIP3   OH2 8383   3.304   2.063   4.008
 2833TIP3    H1 8384   3.213   2.029   4.020
 2833TIP3    H2 8385   3.337   1.995   3.946
 2834TIP3   OH2 8386   2.786   1.997   2.845
 2834TIP3    H1 8387   2.752   1.931   2.908
 2834TIP3    H2 8388   2.793   1.948   2.762
 2835TIP3   OH2 8389   2.777   1.626   3.681
 2835TIP3    H1 8390   2.684   1.600   3.695
 2835TIP3    H2 8391   2.811   1.550   3.633
 2836TIP3   OH2 8392   1.905   1.855   3.438
 2836TIP3    H1 8393   1.907   1.936   3.384
 2836TIP3    H2 8394   1.819   1.818   3.418
 2837TIP3   OH2 8395   2.053   1.625   3.393
 2837TIP3    H1 8396   2.014   1.713   3.408
 2837TIP3    H2 8397   2.009   1.572   3.461
 2838TIP3   OH2 8398   2.177   2.200   3.903
 2838TIP3    H1 8399   2.219   2.273   3.853
 2838TIP3    H2 8400   2.253   2.163   3.950
 2839TIP3   OH2 8401   1.834   2.097   3.281
 2839TIP3    H1 8402   1.744   2.130   3.292
 2839TIP3    H2 8403   1.883   2.182   3.286
 2840TIP3   OH2 8404   2.563   1.832   3.861
 2840TIP3    H1 8405   2.555   1.829   3.959
 2840TIP3    H2 8406   2.644   1.780   3.847
 2841TIP3   OH2 8407   2.535   1.722   2.741
 2841TIP3    H1 8408   2.590   1.694   2.818
 2841TIP3    H2 8409   2.447   1.699   2.774
 2842TIP3   OH2 8410   2.810   2.368   3.915
 2842TIP3    H1 8411   2.733   2.310   3.905
 2842TIP3    H2 8412   2.797   2.431   3.840
 2843TIP3   OH2 8413   2.875   2.199   2.563
 2843TIP3    H1 8414   2.909   2.268   2.504
 2843TIP3    H2 8415   2.797   2.246   2.600
 2844TIP3   OH2 8416   1.897   0.977   4.432
 2844TIP3    H1 8417   1.800   0.979   4.443
 2844TIP3    H2 8418   1.924   0.916   4.502
 2845TIP3   OH2 8419   2.700   1.646   2.943
 2845TIP3    H1 8420   2.674   1.633   3.034
 2845TIP3    H2 8421   2.798   1.649   2.948
 2846TIP3   OH2 8422   1.628   2.070   4.071
 2846TIP3    H1 8423   1.654   1.981   4.100
 2846TIP3    H2 8424   1.657   2.125   4.144
 2847TIP3   OH2 8425   1.889   1.707   2.732
 2847TIP3    H1 8426   1.921   1.617   2.718
 2847TIP3    H2 8427   1.885   1.707   2.831
 2848TIP3   OH2 8428   1.882   1.707   2.998
 2848TIP3    H1 8429   1.945   1.669   3.062
 2848TIP3    H2 8430   1.870   1.799   3.030
 2849TIP3   OH2 8431   1.612   1.434   3.247
 2849TIP3    H1 8432   1.530   1.457   3.294
 2849TIP3    H2 8433   1.610   1.504   3.178
 2850TIP3   OH2 8434   2.735   1.040   4.108
 2850TIP3    H1 8435   2.813   1.084   4.144
 2850TIP3    H2 8436   2.725   0.961   4.166
 2851TIP3   OH2 8437   2.610   0.798   3.280
 2851TIP3    H1 8438   2.590   0.819   3.185
 2851TIP3    H2 8439   2.639   0.885   3.310
 2852TIP3   OH2 8440   2.115   1.917   2.956
 2852TIP3    H1 8441   2.027   1.933   2.995
 2852TIP3    H2 8442   2.133   2.003   2.916
 2853TIP3   OH2 8443   2.331   0.974   3.377
 2853TIP3    H1 8444   2.373   1.060   3.357
 2853TIP3    H2 8445   2.326   0.974   3.475
 2854TIP3   OH2 8446   2.572   1.289   4.189
 2854TIP3    H1 8447   2.594   1.344   4.267
 2854TIP3    H2 8448   2.631   1.212   4.201
 2855TIP3   OH2 8449   2.455   0.695   3.488
 2855TIP3    H1 8450   2.439   0.775   3.542
 2855TIP3    H2 8451   2.511   0.733   3.417
 2856TIP3   OH2 8452   1.856   1.981   3.031
 2856TIP3    H1 8453   1.827   2.051   2.970
 2856TIP3    H2 8454   1.846   2.025   3.118
 2857TIP3   OH2 8455   3.215   1.187   4.178
 2857TIP3    H1 8456   3.117   1.186   4.174
 2857TIP3    H2 8457   3.238   1.185   4.085
 2858TIP3   OH2 8458   2.861   1.356   3.520
 2858TIP3    H1 8459   2.789   1.326   3.578
 2858TIP3    H2 8460   2.939   1.336   3.577
 2859TIP3   OH2 8461   1.596   1.649   3.074
 2859TIP3    H1 8462   1.582   1.741   3.049
 2859TIP3    H2 8463   1.612   1.608   2.988
 2860TIP3   OH2 8464   2.831   2.341   3.505
 2860TIP3    H1 8465   2.789   2.389   3.430
 2860TIP3    H2 8466   2.926   2.359   3.485
 2861TIP3   OH2 8467   1.910   0.602   4.030
 2861TIP3    H1 8468   1.870   0.556   3.956
 2861TIP3    H2 8469   1.907   0.533   4.100
 2862TIP3   OH2 8470   1.440   1.843   3.422
 2862TIP3    H1 8471   1.366   1.866   3.480
 2862TIP3    H2 8472   1.401   1.864   3.334
 2863TIP3   OH2 8473   1.603   2.369   4.486
 2863TIP3    H1 8474   1.690   2.366   4.531
 2863TIP3    H2 8475   1.581   2.274   4.482
 2864TIP3   OH2 8476   2.087   2.333   4.530
 2864TIP3    H1 8477   2.181   2.312   4.533
 2864TIP3    H2 8478   2.058   2.275   4.456
 2865TIP3   OH2 8479   2.078   1.897   2.652
 2865TIP3    H1 8480   2.013   1.846   2.703
 2865TIP3    H2 8481   2.159   1.848   2.673
 2866TIP3   OH2 8482   2.721   2.243   4.265
 2866TIP3    H1 8483   2.714   2.170   4.331
 2866TIP3    H2 8484   2.801   2.290   4.293
 2867TIP3   OH2 8485   2.500   1.952   2.569
 2867TIP3    H1 8486   2.539   1.885   2.627
 2867TIP3    H2 8487   2.563   1.956   2.494
 2868TIP3   OH2 8488   1.734   1.775   4.686
 2868TIP3    H1 8489   1.750   1.679   4.688
 2868TIP3    H2 8490   1.647   1.779   4.640
 2869TIP3   OH2 8491   2.341   1.860   4.458
 2869TIP3    H1 8492   2.300   1.878   4.371
 2869TIP3    H2 8493   2.372   1.768   4.449
 2870TIP3   OH2 8494   2.229   1.647   2.693
 2870TIP3    H1 8495   2.241   1.670   2.788
 2870TIP3    H2 8496   2.241   1.551   2.703
 2871TIP3   OH2 8497   2.835   1.868   4.067
 2871TIP3    H1 8498   2.910   1.910   4.020
 2871TIP3    H2 8499   2.765   1.934   4.051
 2872TIP3   OH2 8500   1.853   1.509   4.668
 2872TIP3    H1 8501   1.929   1.457   4.642
 2872TIP3    H2 8502   1.880   1.543   4.756
 2873TIP3   OH2 8503   2.004   1.303   3.158
 2873TIP3    H1 8504   1.942   1.300   3.233
 2873TIP3    H2 8505   1.955   1.257   3.089
 2874TIP3   OH2 8506   2.190   1.394   4.329
 2874TIP3    H1 8507   2.111   1.453   4.330
 2874TIP3    H2 8508   2.239   1.428   4.250
 2875TIP3   OH2 8509   2.706   1.797   4.463
 2875TIP3    H1 8510   2.784   1.773   4.411
 2875TIP3    H2 8511   2.705   1.727   4.531
 2876TIP3   OH2 8512   2.848   1.471   2.612
 2876TIP3    H1 8513   2.828   1.421   2.531
 2876TIP3    H2 8514   2.811   1.558   2.587
 2877TIP3   OH2 8515   2.312   1.182   4.455
 2877TIP3    H1 8516   2.312   1.103   4.397
 2877TIP3    H2 8517   2.269   1.249   4.396
 2878TIP3   OH2 8518   2.314   0.967   4.262
 2878TIP3    H1 8519   2.342   1.011   4.179
 2878TIP3    H2 8520   2.220   0.946   4.243
 2879TIP3   OH2 8521   2.343   1.505   4.135
 2879TIP3    H1 8522   2.426   1.513   4.088
 2879TIP3    H2 8523   2.286   1.571   4.090
 2880TIP3   OH2 8524   2.930   1.472   4.515
 2880TIP3    H1 8525   2.974   1.386   4.516
 2880TIP3    H2 8526   2.994   1.525   4.465
 2881TIP3   OH2 8527   2.976   1.730   4.252
 2881TIP3    H1 8528   2.921   1.784   4.191
 2881TIP3    H2 8529   3.061   1.730   4.205
 2882TIP3   OH2 8530   2.191   1.293   4.686
 2882TIP3    H1 8531   2.122   1.225   4.699
 2882TIP3    H2 8532   2.224   1.270   4.598
 2883TIP3   OH2 8533   2.447   0.732   4.329
 2883TIP3    H1 8534   2.398   0.814   4.306
 2883TIP3    H2 8535   2.377   0.664   4.317
 2884TIP3   OH2 8536   2.573   1.236   4.545
 2884TIP3    H1 8537   2.560   1.225   4.641
 2884TIP3    H2 8538   2.483   1.212   4.514
 2885TIP3   OH2 8539   2.813   1.188   4.399
 2885TIP3    H1 8540   2.738   1.188   4.462
 2885TIP3    H2 8541   2.887   1.158   4.455
 2886TIP3   OH2 8542   3.037   1.126   4.553
 2886TIP3    H1 8543   3.052   1.031   4.570
 2886TIP3    H2 8544   3.037   1.165   4.643
 2887TIP3   OH2 8545   2.028   1.075   4.738
 2887TIP3    H1 8546   2.035   0.984   4.702
 2887TIP3    H2 8547   2.065   1.061   4.828
 2888TIP3   OH2 8548   2.541   0.741   4.587
 2888TIP3    H1 8549   2.608   0.671   4.580
 2888TIP3    H2 8550   2.501   0.736   4.498
 2889TIP3   OH2 8551   2.606   0.955   4.748
 2889TIP3    H1 8552   2.585   0.885   4.682
 2889TIP3    H2 8553   2.529   1.015   4.739
 2890TIP3   OH2 8554   1.829   2.178   2.843
 2890TIP3    H1 8555   1.925   2.178   2.826
 2890TIP3    H2 8556   1.800   2.239   2.772
 2891TIP3   OH2 8557   1.177   2.056   3.459
 2891TIP3    H1 8558   1.125   2.134   3.439
 2891TIP3    H2 8559   1.248   2.101   3.509
 2892TIP3   OH2 8560   1.330   1.998   3.731
 2892TIP3    H1 8561   1.254   1.935   3.737
 2892TIP3    H2 8562   1.293   2.070   3.786
 2893TIP3   OH2 8563   3.084   2.432   3.462
 2893TIP3    H1 8564   3.113   2.464   3.549
 2893TIP3    H2 8565   3.148   2.475   3.402
 2894TIP3   OH2 8566   3.115   2.452   3.746
 2894TIP3    H1 8567   3.071   2.365   3.739
 2894TIP3    H2 8568   3.190   2.426   3.802
 2895TIP3   OH2 8569   3.163   2.125   4.321
 2895TIP3    H1 8570   3.089   2.135   4.384
 2895TIP3    H2 8571   3.202   2.215   4.322
 2896TIP3   OH2 8572   2.981   1.639   2.943
 2896TIP3    H1 8573   3.046   1.706   2.911
 2896TIP3    H2 8574   3.026   1.604   3.022
 2897TIP3   OH2 8575   3.104   1.510   3.156
 2897TIP3    H1 8576   3.054   1.501   3.237
 2897TIP3    H2 8577   3.187   1.551   3.190
 2898TIP3   OH2 8578   3.157   1.899   3.574
 2898TIP3    H1 8579   3.218   1.838   3.528
 2898TIP3    H2 8580   3.151   1.973   3.511
 2899TIP3   OH2 8581   2.992   2.202   3.766
 2899TIP3    H1 8582   2.919   2.238   3.820
 2899TIP3    H2 8583   2.943   2.151   3.698
 2900TIP3   OH2 8584   3.048   1.420   2.788
 2900TIP3    H1 8585   2.974   1.423   2.723
 2900TIP3    H2 8586   3.019   1.494   2.846
 2901TIP3   OH2 8587   2.920   1.094   2.743
 2901TIP3    H1 8588   2.897   1.127   2.655
 2901TIP3    H2 8589   2.886   1.001   2.739
 2902TIP3   OH2 8590   1.545   1.431   4.037
 2902TIP3    H1 8591   1.541   1.406   3.943
 2902TIP3    H2 8592   1.643   1.437   4.050
 2903TIP3   OH2 8593   2.859   0.828   2.739
 2903TIP3    H1 8594   2.943   0.802   2.782
 2903TIP3    H2 8595   2.796   0.767   2.778
 2904TIP3   OH2 8596   3.074   1.258   3.675
 2904TIP3    H1 8597   3.162   1.279   3.637
 2904TIP3    H2 8598   3.086   1.296   3.764
 2905TIP3   OH2 8599   3.143   1.396   3.912
 2905TIP3    H1 8600   3.065   1.435   3.957
 2905TIP3    H2 8601   3.175   1.472   3.859
 2906TIP3   OH2 8602   1.761   1.124   4.707
 2906TIP3    H1 8603   1.859   1.119   4.709
 2906TIP3    H2 8604   1.738   1.039   4.750
 2907TIP3   OH2 8605   3.603   0.989   4.469
 2907TIP3    H1 8606   3.659   0.924   4.422
 2907TIP3    H2 8607   3.566   1.041   4.395
 2908TIP3   OH2 8608   3.022   0.828   3.221
 2908TIP3    H1 8609   3.069   0.814   3.306
 2908TIP3    H2 8610   2.960   0.752   3.220
 2909TIP3   OH2 8611   1.726   0.816   4.065
 2909TIP3    H1 8612   1.790   0.743   4.057
 2909TIP3    H2 8613   1.780   0.891   4.038
 2910TIP3   OH2 8614   1.533   1.094   4.115
 2910TIP3    H1 8615   1.582   1.086   4.030
 2910TIP3    H2 8616   1.554   1.184   4.140
 2911TIP3   OH2 8617   3.462   1.122   4.282
 2911TIP3    H1 8618   3.376   1.168   4.293
 2911TIP3    H2 8619   3.435   1.057   4.214
 2912TIP3   OH2 8620   3.109   0.772   2.853
 2912TIP3    H1 8621   3.153   0.705   2.797
 2912TIP3    H2 8622   3.171   0.846   2.849
 2913TIP3   OH2 8623   2.671   2.296   3.121
 2913TIP3    H1 8624   2.719   2.283   3.036
 2913TIP3    H2 8625   2.724   2.366   3.162
 2914TIP3   OH2 8626   1.732   0.675   4.428
 2914TIP3    H1 8627   1.680   0.671   4.510
 2914TIP3    H2 8628   1.667   0.714   4.366
 2915TIP3   OH2 8629   1.770   2.103   4.505
 2915TIP3    H1 8630   1.678   2.075   4.486
 2915TIP3    H2 8631   1.778   2.083   4.599
 2916TIP3   OH2 8632   1.952   2.136   4.054
 2916TIP3    H1 8633   1.900   2.209   4.014
 2916TIP3    H2 8634   2.036   2.151   4.006
 2917TIP3   OH2 8635   2.393   2.379   4.191
 2917TIP3    H1 8636   2.437   2.381   4.279
 2917TIP3    H2 8637   2.459   2.429   4.137
 2918TIP3   OH2 8638   2.571   2.530   4.049
 2918TIP3    H1 8639   2.641   2.480   4.004
 2918TIP3    H2 8640   2.625   2.587   4.108
 2919TIP3   OH2 8641   3.370   0.892   4.145
 2919TIP3    H1 8642   3.278   0.895   4.112
 2919TIP3    H2 8643   3.392   0.798   4.133
 2920TIP3   OH2 8644   1.628   2.401   4.075
 2920TIP3    H1 8645   1.536   2.427   4.050
 2920TIP3    H2 8646   1.629   2.427   4.167
 2921TIP3   OH2 8647   1.859   2.366   3.931
 2921TIP3    H1 8648   1.773   2.383   3.977
 2921TIP3    H2 8649   1.842   2.406   3.843
 2922TIP3   OH2 8650   2.287   2.399   3.732
 2922TIP3    H1 8651   2.218   2.417   3.665
 2922TIP3    H2 8652   2.299   2.487   3.772
 2923TIP3   OH2 8653   2.555   2.339   3.784
 2923TIP3    H1 8654   2.461   2.355   3.763
 2923TIP3    H2 8655   2.599   2.412   3.739
 2924TIP3   OH2 8656   2.764   2.531   3.698
 2924TIP3    H1 8657   2.749   2.615   3.649
 2924TIP3    H2 8658   2.790   2.470   3.625
 2925TIP3   OH2 8659   1.579   2.207   3.837
 2925TIP3    H1 8660   1.552   2.172   3.925
 2925TIP3    H2 8661   1.673   2.182   3.840
 2926TIP3   OH2 8662   1.752   2.049   3.682
 2926TIP3    H1 8663   1.772   1.969   3.737
 2926TIP3    H2 8664   1.842   2.088   3.673
 2927TIP3   OH2 8665   2.015   2.159   3.676
 2927TIP3    H1 8666   2.049   2.069   3.659
 2927TIP3    H2 8667   2.058   2.177   3.762
 2928TIP3   OH2 8668   2.575   0.809   3.769
 2928TIP3    H1 8669   2.528   0.739   3.819
 2928TIP3    H2 8670   2.644   0.758   3.723
 2929TIP3   OH2 8671   3.096   0.688   3.672
 2929TIP3    H1 8672   3.133   0.743   3.599
 2929TIP3    H2 8673   3.001   0.711   3.669
 2930TIP3   OH2 8674   3.193   0.787   3.436
 2930TIP3    H1 8675   3.267   0.741   3.392
 2930TIP3    H2 8676   3.221   0.881   3.422
 2931TIP3   OH2 8677   2.244   0.572   3.654
 2931TIP3    H1 8678   2.315   0.611   3.600
 2931TIP3    H2 8679   2.281   0.577   3.742
 2932TIP3   OH2 8680   2.812   0.693   3.644
 2932TIP3    H1 8681   2.810   0.651   3.557
 2932TIP3    H2 8682   2.798   0.616   3.703
 2933TIP3   OH2 8683   2.840   0.615   3.213
 2933TIP3    H1 8684   2.750   0.650   3.203
 2933TIP3    H2 8685   2.821   0.530   3.259
 2934TIP3   OH2 8686   1.320   1.931   3.205
 2934TIP3    H1 8687   1.274   1.905   3.125
 2934TIP3    H2 8688   1.299   2.027   3.207
 2935TIP3   OH2 8689   2.238   0.721   3.317
 2935TIP3    H1 8690   2.304   0.680   3.375
 2935TIP3    H2 8691   2.273   0.812   3.315
 2936TIP3   OH2 8692   2.096   2.146   2.791
 2936TIP3    H1 8693   2.186   2.169   2.758
 2936TIP3    H2 8694   2.078   2.073   2.728
 2937TIP3   OH2 8695   2.814   2.265   2.887
 2937TIP3    H1 8696   2.807   2.168   2.873
 2937TIP3    H2 8697   2.768   2.298   2.807
 2938TIP3   OH2 8698   2.028   0.797   4.675
 2938TIP3    H1 8699   1.994   0.727   4.732
 2938TIP3    H2 8700   2.122   0.798   4.702
 2939TIP3   OH2 8701   2.277   0.795   4.794
 2939TIP3    H1 8702   2.362   0.771   4.753
 2939TIP3    H2 8703   2.266   0.724   4.860
 2940TIP3   OH2 8704   1.466   1.887   2.913
 2940TIP3    H1 8705   1.403   1.962   2.912
 2940TIP3    H2 8706   1.528   1.917   2.845
 2941TIP3   OH2 8707   3.103   0.855   4.581
 2941TIP3    H1 8708   3.123   0.824   4.672
 2941TIP3    H2 8709   3.191   0.852   4.539
 2942TIP3   OH2 8710   3.037   2.409   4.080
 2942TIP3    H1 8711   2.961   2.376   4.027
 2942TIP3    H2 8712   3.019   2.505   4.078
 2943TIP3   OH2 8713   4.310   1.786   2.834
 2943TIP3    H1 8714   4.273   1.874   2.813
 2943TIP3    H2 8715   4.233   1.730   2.813
 2944TIP3   OH2 8716   4.316   1.776   3.216
 2944TIP3    H1 8717   4.342   1.758   3.308
 2944TIP3    H2 8718   4.264   1.697   3.194
 2945TIP3   OH2 8719   3.609   1.674   3.579
 2945TIP3    H1 8720   3.636   1.606   3.643
 2945TIP3    H2 8721   3.676   1.742   3.596
 2946TIP3   OH2 8722   4.573   2.107   2.944
 2946TIP3    H1 8723   4.562   2.018   2.982
 2946TIP3    H2 8724   4.493   2.150   2.979
 2947TIP3   OH2 8725   3.574   2.084   3.308
 2947TIP3    H1 8726   3.566   1.987   3.312
 2947TIP3    H2 8727   3.671   2.094   3.313
 2948TIP3   OH2 8728   3.286   1.286   3.097
 2948TIP3    H1 8729   3.235   1.367   3.116
 2948TIP3    H2 8730   3.217   1.234   3.050
 2949TIP3   OH2 8731   3.346   1.575   3.258
 2949TIP3    H1 8732   3.393   1.500   3.301
 2949TIP3    H2 8733   3.415   1.615   3.205
 2950TIP3   OH2 8734   4.194   2.540   2.912
 2950TIP3    H1 8735   4.251   2.469   2.877
 2950TIP3    H2 8736   4.187   2.518   3.006
 2951TIP3   OH2 8737   4.108   2.007   3.267
 2951TIP3    H1 8738   4.149   1.933   3.220
 2951TIP3    H2 8739   4.189   2.050   3.302
 2952TIP3   OH2 8740   5.115   1.328   3.265
 2952TIP3    H1 8741   5.146   1.408   3.313
 2952TIP3    H2 8742   5.144   1.348   3.175
 2953TIP3   OH2 8743   4.521   1.509   3.300
 2953TIP3    H1 8744   4.559   1.422   3.322
 2953TIP3    H2 8745   4.487   1.493   3.210
 2954TIP3   OH2 8746   3.860   1.165   3.267
 2954TIP3    H1 8747   3.836   1.240   3.208
 2954TIP3    H2 8748   3.808   1.093   3.223
 2955TIP3   OH2 8749   4.552   1.257   2.893
 2955TIP3    H1 8750   4.626   1.239   2.955
 2955TIP3    H2 8751   4.599   1.302   2.820
 2956TIP3   OH2 8752   3.492   1.373   3.374
 2956TIP3    H1 8753   3.572   1.353   3.424
 2956TIP3    H2 8754   3.504   1.314   3.297
 2957TIP3   OH2 8755   3.932   1.568   3.158
 2957TIP3    H1 8756   4.024   1.540   3.179
 2957TIP3    H2 8757   3.891   1.482   3.133
 2958TIP3   OH2 8758   5.189   1.532   3.437
 2958TIP3    H1 8759   5.105   1.580   3.422
 2958TIP3    H2 8760   5.210   1.562   3.527
 2959TIP3   OH2 8761   3.845   1.145   3.714
 2959TIP3    H1 8762   3.804   1.190   3.637
 2959TIP3    H2 8763   3.791   1.184   3.787
 2960TIP3   OH2 8764   4.207   2.010   2.710
 2960TIP3    H1 8765   4.160   1.985   2.628
 2960TIP3    H2 8766   4.158   2.093   2.732
 2961TIP3   OH2 8767   3.956   1.926   3.498
 2961TIP3    H1 8768   3.892   1.989   3.538
 2961TIP3    H2 8769   3.999   1.982   3.431
 2962TIP3   OH2 8770   4.767   1.249   3.067
 2962TIP3    H1 8771   4.728   1.229   3.154
 2962TIP3    H2 8772   4.819   1.329   3.087
 2963TIP3   OH2 8773   3.728   1.261   3.491
 2963TIP3    H1 8774   3.786   1.337   3.513
 2963TIP3    H2 8775   3.777   1.224   3.415
 2964TIP3   OH2 8776   3.776   2.116   3.588
 2964TIP3    H1 8777   3.755   2.206   3.555
 2964TIP3    H2 8778   3.699   2.102   3.647
 2965TIP3   OH2 8779   3.182   1.809   2.831
 2965TIP3    H1 8780   3.139   1.836   2.747
 2965TIP3    H2 8781   3.211   1.896   2.866
 2966TIP3   OH2 8782   4.911   1.220   3.425
 2966TIP3    H1 8783   4.826   1.262   3.403
 2966TIP3    H2 8784   4.972   1.260   3.360
 2967TIP3   OH2 8785   4.216   0.863   3.408
 2967TIP3    H1 8786   4.212   0.768   3.431
 2967TIP3    H2 8787   4.127   0.892   3.430
 2968TIP3   OH2 8788   4.340   2.367   2.756
 2968TIP3    H1 8789   4.381   2.287   2.717
 2968TIP3    H2 8790   4.392   2.437   2.711
 2969TIP3   OH2 8791   4.478   2.149   2.656
 2969TIP3    H1 8792   4.435   2.092   2.589
 2969TIP3    H2 8793   4.478   2.091   2.732
 2970TIP3   OH2 8794   4.850   2.246   3.413
 2970TIP3    H1 8795   4.836   2.166   3.359
 2970TIP3    H2 8796   4.819   2.316   3.353
 2971TIP3   OH2 8797   4.139   1.630   2.672
 2971TIP3    H1 8798   4.058   1.683   2.654
 2971TIP3    H2 8799   4.183   1.631   2.585
 2972TIP3   OH2 8800   4.096   1.413   2.397
 2972TIP3    H1 8801   4.164   1.467   2.441
 2972TIP3    H2 8802   4.154   1.354   2.345
 2973TIP3   OH2 8803   5.040   1.870   3.262
 2973TIP3    H1 8804   4.966   1.933   3.273
 2973TIP3    H2 8805   5.073   1.897   3.173
 2974TIP3   OH2 8806   4.487   1.714   2.641
 2974TIP3    H1 8807   4.430   1.737   2.718
 2974TIP3    H2 8808   4.569   1.688   2.686
 2975TIP3   OH2 8809   4.720   1.755   3.554
 2975TIP3    H1 8810   4.720   1.836   3.609
 2975TIP3    H2 8811   4.631   1.761   3.515
 2976TIP3   OH2 8812   3.719   1.711   3.057
 2976TIP3    H1 8813   3.679   1.653   2.989
 2976TIP3    H2 8814   3.796   1.659   3.086
 2977TIP3   OH2 8815   3.850   2.127   3.206
 2977TIP3    H1 8816   3.828   2.081   3.124
 2977TIP3    H2 8817   3.939   2.093   3.226
 2978TIP3   OH2 8818   3.863   1.681   3.411
 2978TIP3    H1 8819   3.893   1.668   3.320
 2978TIP3    H2 8820   3.899   1.769   3.435
 2979TIP3   OH2 8821   4.406   2.310   3.183
 2979TIP3    H1 8822   4.383   2.396   3.223
 2979TIP3    H2 8823   4.378   2.248   3.253
 2980TIP3   OH2 8824   3.977   2.218   3.756
 2980TIP3    H1 8825   3.929   2.298   3.785
 2980TIP3    H2 8826   3.912   2.177   3.697
 2981TIP3   OH2 8827   4.326   1.572   2.467
 2981TIP3    H1 8828   4.385   1.632   2.518
 2981TIP3    H2 8829   4.352   1.594   2.374
 2982TIP3   OH2 8830   3.737   1.794   3.835
 2982TIP3    H1 8831   3.755   1.876   3.886
 2982TIP3    H2 8832   3.642   1.787   3.852
 2983TIP3   OH2 8833   4.074   2.251   2.740
 2983TIP3    H1 8834   4.137   2.317   2.773
 2983TIP3    H2 8835   4.005   2.306   2.701
 2984TIP3   OH2 8836   3.783   2.417   3.824
 2984TIP3    H1 8837   3.751   2.410   3.732
 2984TIP3    H2 8838   3.704   2.392   3.876
 2985TIP3   OH2 8839   3.589   1.552   2.853
 2985TIP3    H1 8840   3.519   1.601   2.804
 2985TIP3    H2 8841   3.540   1.474   2.881
 2986TIP3   OH2 8842   4.640   2.182   2.068
 2986TIP3    H1 8843   4.648   2.278   2.049
 2986TIP3    H2 8844   4.733   2.153   2.054
 2987TIP3   OH2 8845   3.381   1.916   3.777
 2987TIP3    H1 8846   3.306   1.904   3.716
 2987TIP3    H2 8847   3.370   1.841   3.839
 2988TIP3   OH2 8848   3.219   2.132   3.402
 2988TIP3    H1 8849   3.315   2.126   3.396
 2988TIP3    H2 8850   3.208   2.210   3.459
 2989TIP3   OH2 8851   5.084   2.582   3.460
 2989TIP3    H1 8852   5.084   2.487   3.481
 2989TIP3    H2 8853   5.002   2.610   3.506
 2990TIP3   OH2 8854   3.952   2.499   2.546
 2990TIP3    H1 8855   3.904   2.481   2.463
 2990TIP3    H2 8856   3.919   2.587   2.572
 2991TIP3   OH2 8857   3.389   2.347   2.930
 2991TIP3    H1 8858   3.436   2.338   3.015
 2991TIP3    H2 8859   3.327   2.273   2.935
 2992TIP3   OH2 8860   4.152   2.400   2.186
 2992TIP3    H1 8861   4.211   2.330   2.149
 2992TIP3    H2 8862   4.186   2.410   2.277
 2993TIP3   OH2 8863   4.202   2.447   2.456
 2993TIP3    H1 8864   4.112   2.459   2.494
 2993TIP3    H2 8865   4.248   2.409   2.532
 2994TIP3   OH2 8866   4.977   1.715   3.735
 2994TIP3    H1 8867   4.892   1.730   3.693
 2994TIP3    H2 8868   4.988   1.618   3.725
 2995TIP3   OH2 8869   3.565   2.121   3.761
 2995TIP3    H1 8870   3.618   2.106   3.841
 2995TIP3    H2 8871   3.497   2.050   3.769
 2996TIP3   OH2 8872   4.500   1.056   3.756
 2996TIP3    H1 8873   4.588   1.032   3.793
 2996TIP3    H2 8874   4.449   1.068   3.837
 2997TIP3   OH2 8875   4.739   1.491   3.655
 2997TIP3    H1 8876   4.692   1.485   3.741
 2997TIP3    H2 8877   4.716   1.580   3.624
 2998TIP3   OH2 8878   4.403   1.621   2.213
 2998TIP3    H1 8879   4.367   1.594   2.126
 2998TIP3    H2 8880   4.484   1.668   2.187
 2999TIP3   OH2 8881   4.110   0.995   2.512
 2999TIP3    H1 8882   4.081   0.992   2.605
 2999TIP3    H2 8883   4.073   0.911   2.480
 3000TIP3   OH2 8884   3.901   1.458   3.564
 3000TIP3    H1 8885   3.852   1.484   3.645
 3000TIP3    H2 8886   3.890   1.540   3.509
 3001TIP3   OH2 8887   3.786   1.345   3.079
 3001TIP3    H1 8888   3.692   1.321   3.097
 3001TIP3    H2 8889   3.797   1.304   2.990
 3002TIP3   OH2 8890   4.277   1.433   2.804
 3002TIP3    H1 8891   4.223   1.503   2.763
 3002TIP3    H2 8892   4.330   1.402   2.728
 3003TIP3   OH2 8893   4.451   1.699   3.874
 3003TIP3    H1 8894   4.435   1.637   3.949
 3003TIP3    H2 8895   4.525   1.753   3.906
 3004TIP3   OH2 8896   4.434   1.462   3.043
 3004TIP3    H1 8897   4.371   1.492   2.975
 3004TIP3    H2 8898   4.464   1.379   3.000
 3005TIP3   OH2 8899   3.720   1.492   3.771
 3005TIP3    H1 8900   3.733   1.562   3.837
 3005TIP3    H2 8901   3.699   1.415   3.826
 3006TIP3   OH2 8902   3.763   0.967   2.481
 3006TIP3    H1 8903   3.767   0.966   2.579
 3006TIP3    H2 8904   3.668   0.979   2.468
 3007TIP3   OH2 8905   3.311   1.013   3.354
 3007TIP3    H1 8906   3.388   1.044   3.407
 3007TIP3    H2 8907   3.350   0.986   3.270
 3008TIP3   OH2 8908   3.290   0.993   2.870
 3008TIP3    H1 8909   3.335   1.032   2.792
 3008TIP3    H2 8910   3.227   1.066   2.891
 3009TIP3   OH2 8911   4.444   1.708   3.466
 3009TIP3    H1 8912   4.476   1.635   3.409
 3009TIP3    H2 8913   4.413   1.657   3.543
 3010TIP3   OH2 8914   4.113   1.165   3.137
 3010TIP3    H1 8915   4.028   1.168   3.185
 3010TIP3    H2 8916   4.176   1.183   3.209
 3011TIP3   OH2 8917   3.547   1.226   3.145
 3011TIP3    H1 8918   3.451   1.235   3.121
 3011TIP3    H2 8919   3.565   1.133   3.123
 3012TIP3   OH2 8920   3.818   1.218   2.838
 3012TIP3    H1 8921   3.911   1.236   2.816
 3012TIP3    H2 8922   3.769   1.245   2.757
 3013TIP3   OH2 8923   4.601   1.243   3.326
 3013TIP3    H1 8924   4.581   1.255   3.422
 3013TIP3    H2 8925   4.529   1.183   3.301
 3014TIP3   OH2 8926   3.663   1.258   2.619
 3014TIP3    H1 8927   3.577   1.220   2.594
 3014TIP3    H2 8928   3.704   1.280   2.534
 3015TIP3   OH2 8929   4.775   2.932   3.558
 3015TIP3    H1 8930   4.773   2.958   3.465
 3015TIP3    H2 8931   4.851   2.983   3.591
 3016TIP3   OH2 8932   3.729   2.050   3.977
 3016TIP3    H1 8933   3.810   2.076   4.024
 3016TIP3    H2 8934   3.671   2.030   4.052
 3017TIP3   OH2 8935   4.193   1.495   3.236
 3017TIP3    H1 8936   4.272   1.457   3.196
 3017TIP3    H2 8937   4.197   1.461   3.328
 3018TIP3   OH2 8938   3.721   0.983   3.115
 3018TIP3    H1 8939   3.683   0.906   3.162
 3018TIP3    H2 8940   3.765   0.942   3.040
 3019TIP3   OH2 8941   4.176   1.402   3.506
 3019TIP3    H1 8942   4.086   1.419   3.539
 3019TIP3    H2 8943   4.231   1.448   3.572
 3020TIP3   OH2 8944   3.912   1.782   2.623
 3020TIP3    H1 8945   3.837   1.721   2.610
 3020TIP3    H2 8946   3.892   1.819   2.712
 3021TIP3   OH2 8947   4.812   2.026   3.238
 3021TIP3    H1 8948   4.807   2.004   3.145
 3021TIP3    H2 8949   4.728   1.987   3.268
 3022TIP3   OH2 8950   4.366   1.093   2.490
 3022TIP3    H1 8951   4.269   1.078   2.490
 3022TIP3    H2 8952   4.374   1.189   2.502
 3023TIP3   OH2 8953   4.435   1.346   2.586
 3023TIP3    H1 8954   4.532   1.356   2.597
 3023TIP3    H2 8955   4.412   1.424   2.530
 3024TIP3   OH2 8956   3.598   1.802   3.296
 3024TIP3    H1 8957   3.642   1.774   3.214
 3024TIP3    H2 8958   3.639   1.746   3.363
 3025TIP3   OH2 8959   4.055   1.935   2.444
 3025TIP3    H1 8960   4.007   2.022   2.447
 3025TIP3    H2 8961   3.999   1.881   2.504
 3026TIP3   OH2 8962   4.211   1.835   3.936
 3026TIP3    H1 8963   4.155   1.782   3.877
 3026TIP3    H2 8964   4.299   1.819   3.899
 3027TIP3   OH2 8965   4.874   1.434   2.426
 3027TIP3    H1 8966   4.815   1.389   2.360
 3027TIP3    H2 8967   4.875   1.522   2.383
 3028TIP3   OH2 8968   5.101   2.291   3.503
 3028TIP3    H1 8969   5.002   2.290   3.500
 3028TIP3    H2 8970   5.121   2.262   3.411
 3029TIP3   OH2 8971   4.585   2.250   2.333
 3029TIP3    H1 8972   4.551   2.174   2.382
 3029TIP3    H2 8973   4.596   2.214   2.243
 3030TIP3   OH2 8974   4.579   1.885   3.154
 3030TIP3    H1 8975   4.488   1.865   3.183
 3030TIP3    H2 8976   4.607   1.798   3.121
 3031TIP3   OH2 8977   3.701   2.108   2.914
 3031TIP3    H1 8978   3.699   2.193   2.864
 3031TIP3    H2 8979   3.608   2.096   2.934
 3032TIP3   OH2 8980   3.269   1.414   2.628
 3032TIP3    H1 8981   3.310   1.501   2.644
 3032TIP3    H2 8982   3.190   1.421   2.686
 3033TIP3   OH2 8983   3.842   1.877   2.865
 3033TIP3    H1 8984   3.804   1.966   2.881
 3033TIP3    H2 8985   3.805   1.828   2.940
 3034TIP3   OH2 8986   3.967   2.457   3.389
 3034TIP3    H1 8987   4.011   2.529   3.340
 3034TIP3    H2 8988   4.038   2.431   3.450
 3035TIP3   OH2 8989   3.623   2.349   2.774
 3035TIP3    H1 8990   3.537   2.358   2.819
 3035TIP3    H2 8991   3.655   2.442   2.776
 3036TIP3   OH2 8992   4.356   2.089   3.362
 3036TIP3    H1 8993   4.359   2.148   3.441
 3036TIP3    H2 8994   4.440   2.044   3.373
 3037TIP3   OH2 8995   4.334   1.980   2.232
 3037TIP3    H1 8996   4.383   1.955   2.313
 3037TIP3    H2 8997   4.244   1.956   2.257
 3038TIP3   OH2 8998   4.609   2.621   3.396
 3038TIP3    H1 8999   4.527   2.569   3.391
 3038TIP3    H2 9000   4.595   2.687   3.325
 3039TIP3   OH2 9001   4.672   2.456   2.051
 3039TIP3    H1 9002   4.707   2.526   1.993
 3039TIP3    H2 9003   4.593   2.503   2.085
 3040TIP3   OH2 9004   3.694   1.225   3.923
 3040TIP3    H1 9005   3.601   1.244   3.944
 3040TIP3    H2 9006   3.720   1.171   4.000
 3041TIP3   OH2 9007   4.494   1.922   2.453
 3041TIP3    H1 9008   4.484   1.850   2.519
 3041TIP3    H2 9009   4.590   1.915   2.435
 3042TIP3   OH2 9010   3.411   2.316   3.550
 3042TIP3    H1 9011   3.460   2.240   3.584
 3042TIP3    H2 9012   3.439   2.386   3.610
 3043TIP3   OH2 9013   3.704   1.963   2.231
 3043TIP3    H1 9014   3.711   1.871   2.202
 3043TIP3    H2 9015   3.684   1.953   2.326
 3044TIP3   OH2 9016   3.651   1.966   2.502
 3044TIP3    H1 9017   3.714   1.946   2.572
 3044TIP3    H2 9018   3.647   2.064   2.506
 3045TIP3   OH2 9019   3.382   1.663   2.708
 3045TIP3    H1 9020   3.315   1.706   2.764
 3045TIP3    H2 9021   3.392   1.732   2.639
 3046TIP3   OH2 9022   4.545   1.282   3.589
 3046TIP3    H1 9023   4.608   1.337   3.638
 3046TIP3    H2 9024   4.522   1.213   3.654
 3047TIP3   OH2 9025   4.410   1.049   2.766
 3047TIP3    H1 9026   4.392   1.069   2.672
 3047TIP3    H2 9027   4.445   1.134   2.799
 3048TIP3   OH2 9028   3.913   2.165   2.453
 3048TIP3    H1 9029   3.825   2.190   2.487
 3048TIP3    H2 9030   3.927   2.238   2.390
 3049TIP3   OH2 9031   4.101   1.228   2.866
 3049TIP3    H1 9032   4.165   1.301   2.849
 3049TIP3    H2 9033   4.104   1.222   2.963
 3050TIP3   OH2 9034   4.369   1.542   3.671
 3050TIP3    H1 9035   4.384   1.606   3.744
 3050TIP3    H2 9036   4.428   1.470   3.699
 3051TIP3   OH2 9037   4.242   0.957   2.971
 3051TIP3    H1 9038   4.229   1.036   3.026
 3051TIP3    H2 9039   4.304   0.992   2.902
 3052TIP3   OH2 9040   3.655   2.237   2.520
 3052TIP3    H1 9041   3.625   2.306   2.456
 3052TIP3    H2 9042   3.638   2.282   2.605
 3053TIP3   OH2 9043   3.759   0.954   2.757
 3053TIP3    H1 9044   3.756   1.043   2.797
 3053TIP3    H2 9045   3.855   0.935   2.767
 3054TIP3   OH2 9046   5.007   1.447   3.656
 3054TIP3    H1 9047   4.909   1.445   3.661
 3054TIP3    H2 9048   5.021   1.409   3.568
 3055TIP3   OH2 9049   4.660   1.641   3.041
 3055TIP3    H1 9050   4.583   1.584   3.058
 3055TIP3    H2 9051   4.731   1.594   3.091
 3056TIP3   OH2 9052   3.371   1.869   2.517
 3056TIP3    H1 9053   3.427   1.948   2.521
 3056TIP3    H2 9054   3.417   1.819   2.445
 3057TIP3   OH2 9055   3.327   1.145   2.633
 3057TIP3    H1 9056   3.310   1.241   2.643
 3057TIP3    H2 9057   3.240   1.112   2.605
 3058TIP3   OH2 9058   4.638   2.582   2.986
 3058TIP3    H1 9059   4.586   2.632   2.919
 3058TIP3    H2 9060   4.727   2.622   2.969
 3059TIP3   OH2 9061   3.723   0.866   3.530
 3059TIP3    H1 9062   3.690   0.843   3.440
 3059TIP3    H2 9063   3.702   0.784   3.579
 3060TIP3   OH2 9064   3.241   2.079   2.898
 3060TIP3    H1 9065   3.174   2.113   2.958
 3060TIP3    H2 9066   3.214   2.123   2.814
 3061TIP3   OH2 9067   3.398   2.624   3.974
 3061TIP3    H1 9068   3.487   2.619   4.016
 3061TIP3    H2 9069   3.377   2.529   3.968
 3062TIP3   OH2 9070   3.882   2.590   4.018
 3062TIP3    H1 9071   3.976   2.569   4.021
 3062TIP3    H2 9072   3.854   2.534   3.942
 3063TIP3   OH2 9073   3.865   2.168   2.143
 3063TIP3    H1 9074   3.809   2.096   2.180
 3063TIP3    H2 9075   3.938   2.116   2.105
 3064TIP3   OH2 9076   4.299   2.207   2.055
 3064TIP3    H1 9077   4.349   2.144   2.110
 3064TIP3    H2 9078   4.351   2.208   1.972
 3065TIP3   OH2 9079   3.526   2.029   4.174
 3065TIP3    H1 9080   3.549   1.934   4.164
 3065TIP3    H2 9081   3.442   2.032   4.123
 3066TIP3   OH2 9082   3.510   1.683   2.367
 3066TIP3    H1 9083   3.569   1.665   2.442
 3066TIP3    H2 9084   3.575   1.688   2.294
 3067TIP3   OH2 9085   4.138   2.120   3.954
 3067TIP3    H1 9086   4.100   2.143   3.866
 3067TIP3    H2 9087   4.181   2.034   3.936
 3068TIP3   OH2 9088   4.024   1.879   2.173
 3068TIP3    H1 9089   4.020   1.895   2.270
 3068TIP3    H2 9090   4.017   1.782   2.170
 3069TIP3   OH2 9091   4.643   2.093   3.532
 3069TIP3    H1 9092   4.703   2.168   3.511
 3069TIP3    H2 9093   4.564   2.145   3.561
 3070TIP3   OH2 9094   3.683   1.796   4.144
 3070TIP3    H1 9095   3.641   1.711   4.131
 3070TIP3    H2 9096   3.702   1.800   4.240
 3071TIP3   OH2 9097   3.717   1.585   2.588
 3071TIP3    H1 9098   3.683   1.556   2.675
 3071TIP3    H2 9099   3.746   1.502   2.547
 3072TIP3   OH2 9100   3.985   1.650   3.814
 3072TIP3    H1 9101   3.907   1.709   3.819
 3072TIP3    H2 9102   4.033   1.685   3.736
 3073TIP3   OH2 9103   3.812   1.364   2.403
 3073TIP3    H1 9104   3.820   1.421   2.324
 3073TIP3    H2 9105   3.906   1.363   2.430
 3074TIP3   OH2 9106   4.501   1.986   3.937
 3074TIP3    H1 9107   4.538   2.070   3.912
 3074TIP3    H2 9108   4.512   1.982   4.032
 3075TIP3   OH2 9109   4.640   1.709   2.092
 3075TIP3    H1 9110   4.619   1.665   2.007
 3075TIP3    H2 9111   4.608   1.800   2.069
 3076TIP3   OH2 9112   4.111   1.448   3.940
 3076TIP3    H1 9113   4.082   1.372   3.890
 3076TIP3    H2 9114   4.069   1.522   3.890
 3077TIP3   OH2 9115   4.136   1.759   3.619
 3077TIP3    H1 9116   4.220   1.775   3.574
 3077TIP3    H2 9117   4.078   1.826   3.578
 3078TIP3   OH2 9118   4.722   1.728   4.011
 3078TIP3    H1 9119   4.776   1.649   4.017
 3078TIP3    H2 9120   4.780   1.792   3.968
 3079TIP3   OH2 9121   4.771   1.973   3.736
 3079TIP3    H1 9122   4.705   2.021   3.682
 3079TIP3    H2 9123   4.854   2.003   3.693
 3080TIP3   OH2 9124   3.995   1.548   4.182
 3080TIP3    H1 9125   3.918   1.488   4.190
 3080TIP3    H2 9126   4.022   1.534   4.089
 3081TIP3   OH2 9127   4.374   1.490   4.034
 3081TIP3    H1 9128   4.361   1.483   4.130
 3081TIP3    H2 9129   4.283   1.474   4.003
 3082TIP3   OH2 9130   4.605   1.425   3.880
 3082TIP3    H1 9131   4.533   1.445   3.944
 3082TIP3    H2 9132   4.680   1.407   3.940
 3083TIP3   OH2 9133   4.836   1.383   4.036
 3083TIP3    H1 9134   4.849   1.288   4.055
 3083TIP3    H2 9135   4.831   1.423   4.126
 3084TIP3   OH2 9136   3.823   1.331   4.226
 3084TIP3    H1 9137   3.829   1.239   4.195
 3084TIP3    H2 9138   3.861   1.322   4.316
 3085TIP3   OH2 9139   4.345   1.005   4.037
 3085TIP3    H1 9140   4.421   0.949   4.063
 3085TIP3    H2 9141   4.287   0.938   4.002
 3086TIP3   OH2 9142   4.400   1.209   4.232
 3086TIP3    H1 9143   4.379   1.151   4.156
 3086TIP3    H2 9144   4.326   1.274   4.229
 3087TIP3   OH2 9145   3.624   2.439   2.332
 3087TIP3    H1 9146   3.719   2.439   2.312
 3087TIP3    H2 9147   3.591   2.489   2.256
 3088TIP3   OH2 9148   3.103   1.822   2.550
 3088TIP3    H1 9149   3.197   1.847   2.536
 3088TIP3    H2 9150   3.100   1.734   2.508
 3089TIP3   OH2 9151   3.019   2.436   2.963
 3089TIP3    H1 9152   2.951   2.375   2.925
 3089TIP3    H2 9153   3.062   2.378   3.027
 3090TIP3   OH2 9154   3.157   2.286   3.148
 3090TIP3    H1 9155   3.143   2.214   3.212
 3090TIP3    H2 9156   3.206   2.349   3.203
 3091TIP3   OH2 9157   4.879   2.694   2.946
 3091TIP3    H1 9158   4.910   2.725   3.033
 3091TIP3    H2 9159   4.943   2.735   2.887
 3092TIP3   OH2 9160   4.910   2.708   3.230
 3092TIP3    H1 9161   4.871   2.619   3.220
 3092TIP3    H2 9162   4.985   2.689   3.287
 3093TIP3   OH2 9163   4.958   2.384   3.803
 3093TIP3    H1 9164   4.883   2.393   3.866
 3093TIP3    H2 9165   4.998   2.474   3.809
 3094TIP3   OH2 9166   4.772   1.899   2.425
 3094TIP3    H1 9167   4.839   1.962   2.391
 3094TIP3    H2 9168   4.819   1.860   2.501
 3095TIP3   OH2 9169   4.901   1.769   2.629
 3095TIP3    H1 9170   4.838   1.723   2.689
 3095TIP3    H2 9171   4.972   1.799   2.690
 3096TIP3   OH2 9172   4.761   2.452   3.244
 3096TIP3    H1 9173   4.723   2.503   3.318
 3096TIP3    H2 9174   4.688   2.458   3.181
 3097TIP3   OH2 9175   4.839   1.672   2.276
 3097TIP3    H1 9176   4.769   1.673   2.207
 3097TIP3    H2 9177   4.810   1.750   2.328
 3098TIP3   OH2 9178   4.709   1.346   2.231
 3098TIP3    H1 9179   4.670   1.385   2.152
 3098TIP3    H2 9180   4.684   1.252   2.220
 3099TIP3   OH2 9181   4.716   1.624   2.775
 3099TIP3    H1 9182   4.723   1.528   2.766
 3099TIP3    H2 9183   4.701   1.635   2.871
 3100TIP3   OH2 9184   3.344   1.707   3.509
 3100TIP3    H1 9185   3.347   1.674   3.417
 3100TIP3    H2 9186   3.440   1.704   3.532
 3101TIP3   OH2 9187   5.008   2.049   3.625
 3101TIP3    H1 9188   5.080   1.982   3.619
 3101TIP3    H2 9189   5.040   2.121   3.569
 3102TIP3   OH2 9190   5.190   1.852   3.643
 3102TIP3    H1 9191   5.116   1.803   3.685
 3102TIP3    H2 9192   5.263   1.788   3.659
 3103TIP3   OH2 9193   4.653   1.081   2.220
 3103TIP3    H1 9194   4.726   1.045   2.273
 3103TIP3    H2 9195   4.579   1.020   2.236
 3104TIP3   OH2 9196   4.714   1.349   2.668
 3104TIP3    H1 9197   4.768   1.273   2.694
 3104TIP3    H2 9198   4.763   1.383   2.591
 3105TIP3   OH2 9199   4.871   1.510   3.161
 3105TIP3    H1 9200   4.957   1.537   3.122
 3105TIP3    H2 9201   4.883   1.546   3.252
 3106TIP3   OH2 9202   4.937   1.651   3.395
 3106TIP3    H1 9203   4.863   1.686   3.447
 3106TIP3    H2 9204   4.972   1.733   3.353
 3107TIP3   OH2 9205   3.556   1.358   4.164
 3107TIP3    H1 9206   3.651   1.367   4.185
 3107TIP3    H2 9207   3.530   1.289   4.228
 3108TIP3   OH2 9208   5.393   1.246   3.951
 3108TIP3    H1 9209   5.452   1.180   3.910
 3108TIP3    H2 9210   5.366   1.301   3.875
 3109TIP3   OH2 9211   3.526   1.068   3.517
 3109TIP3    H1 9212   3.592   0.998   3.534
 3109TIP3    H2 9213   3.582   1.148   3.520
 3110TIP3   OH2 9214   3.326   1.336   3.603
 3110TIP3    H1 9215   3.377   1.354   3.522
 3110TIP3    H2 9216   3.319   1.425   3.644
 3111TIP3   OH2 9217   5.265   1.387   3.757
 3111TIP3    H1 9218   5.179   1.427   3.782
 3111TIP3    H2 9219   5.233   1.315   3.699
 3112TIP3   OH2 9220   4.904   1.025   2.341
 3112TIP3    H1 9221   4.937   0.950   2.289
 3112TIP3    H2 9222   4.972   1.093   2.326
 3113TIP3   OH2 9223   3.302   0.851   3.102
 3113TIP3    H1 9224   3.208   0.851   3.128
 3113TIP3    H2 9225   3.300   0.909   3.023
 3114TIP3   OH2 9226   4.475   2.546   2.610
 3114TIP3    H1 9227   4.519   2.542   2.523
 3114TIP3    H2 9228   4.512   2.627   2.648
 3115TIP3   OH2 9229   3.531   0.922   3.909
 3115TIP3    H1 9230   3.484   0.922   3.994
 3115TIP3    H2 9231   3.466   0.967   3.852
 3116TIP3   OH2 9232   3.563   2.365   3.990
 3116TIP3    H1 9233   3.475   2.330   3.970
 3116TIP3    H2 9234   3.579   2.330   4.078
 3117TIP3   OH2 9235   3.743   2.389   3.538
 3117TIP3    H1 9236   3.696   2.466   3.500
 3117TIP3    H2 9237   3.829   2.402   3.494
 3118TIP3   OH2 9238   4.178   2.661   3.681
 3118TIP3    H1 9239   4.225   2.627   3.759
 3118TIP3    H2 9240   4.252   2.685   3.623
 3119TIP3   OH2 9241   4.373   2.788   3.528
 3119TIP3    H1 9242   4.447   2.734   3.498
 3119TIP3    H2 9243   4.418   2.846   3.593
 3120TIP3   OH2 9244   5.164   1.147   3.635
 3120TIP3    H1 9245   5.072   1.137   3.606
 3120TIP3    H2 9246   5.197   1.055   3.625
 3121TIP3   OH2 9247   3.420   2.649   3.560
 3121TIP3    H1 9248   3.331   2.684   3.537
 3121TIP3    H2 9249   3.429   2.681   3.650
 3122TIP3   OH2 9250   3.657   2.626   3.420
 3122TIP3    H1 9251   3.571   2.639   3.464
 3122TIP3    H2 9252   3.638   2.659   3.330
 3123TIP3   OH2 9253   4.086   2.657   3.215
 3123TIP3    H1 9254   4.013   2.677   3.153
 3123TIP3    H2 9255   4.097   2.743   3.260
 3124TIP3   OH2 9256   4.355   2.590   3.255
 3124TIP3    H1 9257   4.259   2.608   3.250
 3124TIP3    H2 9258   4.392   2.676   3.229
 3125TIP3   OH2 9259   4.563   2.788   3.183
 3125TIP3    H1 9260   4.546   2.874   3.138
 3125TIP3    H2 9261   4.584   2.730   3.107
 3126TIP3   OH2 9262   3.332   2.442   3.308
 3126TIP3    H1 9263   3.359   2.415   3.398
 3126TIP3    H2 9264   3.404   2.398   3.256
 3127TIP3   OH2 9265   3.526   2.313   3.164
 3127TIP3    H1 9266   3.541   2.230   3.213
 3127TIP3    H2 9267   3.617   2.350   3.160
 3128TIP3   OH2 9268   3.792   2.407   3.168
 3128TIP3    H1 9269   3.823   2.314   3.160
 3128TIP3    H2 9270   3.837   2.431   3.251
 3129TIP3   OH2 9271   4.377   1.066   3.258
 3129TIP3    H1 9272   4.331   0.996   3.307
 3129TIP3    H2 9273   4.444   1.016   3.209
 3130TIP3   OH2 9274   4.890   0.931   3.132
 3130TIP3    H1 9275   4.933   1.017   3.127
 3130TIP3    H2 9276   4.796   0.955   3.146
 3131TIP3   OH2 9277   3.619   0.775   3.274
 3131TIP3    H1 9278   3.527   0.745   3.268
 3131TIP3    H2 9279   3.667   0.689   3.269
 3132TIP3   OH2 9280   3.443   0.654   2.932
 3132TIP3    H1 9281   3.436   0.701   2.848
 3132TIP3    H2 9282   3.388   0.709   2.991
 3133TIP3   OH2 9283   4.061   0.804   3.140
 3133TIP3    H1 9284   4.119   0.855   3.080
 3133TIP3    H2 9285   4.083   0.844   3.224
 3134TIP3   OH2 9286   4.609   0.947   3.136
 3134TIP3    H1 9287   4.586   0.912   3.049
 3134TIP3    H2 9288   4.593   0.868   3.194
 3135TIP3   OH2 9289   4.663   0.868   2.715
 3135TIP3    H1 9290   4.581   0.917   2.700
 3135TIP3    H2 9291   4.628   0.785   2.754
 3136TIP3   OH2 9292   3.120   2.215   2.699
 3136TIP3    H1 9293   3.034   2.183   2.665
 3136TIP3    H2 9294   3.113   2.308   2.673
 3137TIP3   OH2 9295   3.524   0.804   2.678
 3137TIP3    H1 9296   3.573   0.738   2.626
 3137TIP3    H2 9297   3.597   0.854   2.721
 3138TIP3   OH2 9298   4.035   0.978   2.779
 3138TIP3    H1 9299   4.092   0.929   2.840
 3138TIP3    H2 9300   4.056   1.070   2.806
 3139TIP3   OH2 9301   3.893   2.402   2.282
 3139TIP3    H1 9302   3.980   2.427   2.243
 3139TIP3    H2 9303   3.870   2.329   2.221
 3140TIP3   OH2 9304   4.611   2.520   2.373
 3140TIP3    H1 9305   4.602   2.423   2.358
 3140TIP3    H2 9306   4.566   2.555   2.293
 3141TIP3   OH2 9307   3.827   1.054   4.159
 3141TIP3    H1 9308   3.787   0.986   4.215
 3141TIP3    H2 9309   3.919   1.053   4.194
 3142TIP3   OH2 9310   4.074   1.046   4.280
 3142TIP3    H1 9311   4.166   1.023   4.261
 3142TIP3    H2 9312   4.053   0.980   4.351
 3143TIP3   OH2 9313   3.196   2.243   2.336
 3143TIP3    H1 9314   3.195   2.270   2.429
 3143TIP3    H2 9315   3.284   2.198   2.328
 3144TIP3   OH2 9316   4.897   1.111   4.068
 3144TIP3    H1 9317   4.916   1.080   4.159
 3144TIP3    H2 9318   4.986   1.107   4.027
 3145TIP3   OH2 9319   4.839   2.663   3.558
 3145TIP3    H1 9320   4.756   2.633   3.516
 3145TIP3    H2 9321   4.819   2.759   3.566
 3146TIP3   OH2 9322   6.104   2.037   2.327
 3146TIP3    H1 9323   6.075   2.128   2.307
 3146TIP3    H2 9324   6.027   1.987   2.293
 3147TIP3   OH2 9325   6.102   2.038   2.708
 3147TIP3    H1 9326   6.134   2.009   2.795
 3147TIP3    H2 9327   6.062   1.957   2.674
 3148TIP3   OH2 9328   5.396   1.934   3.078
 3148TIP3    H1 9329   5.430   1.865   3.140
 3148TIP3    H2 9330   5.476   1.987   3.065
 3149TIP3   OH2 9331   6.347   2.339   2.389
 3149TIP3    H1 9332   6.332   2.270   2.455
 3149TIP3    H2 9333   6.375   2.414   2.444
 3150TIP3   OH2 9334   5.379   2.340   2.793
 3150TIP3    H1 9335   5.370   2.242   2.799
 3150TIP3    H2 9336   5.476   2.349   2.787
 3151TIP3   OH2 9337   5.077   1.542   2.582
 3151TIP3    H1 9338   5.034   1.628   2.595
 3151TIP3    H2 9339   5.006   1.493   2.538
 3152TIP3   OH2 9340   5.135   1.832   2.757
 3152TIP3    H1 9341   5.187   1.757   2.794
 3152TIP3    H2 9342   5.199   1.870   2.695
 3153TIP3   OH2 9343   5.995   2.802   2.405
 3153TIP3    H1 9344   6.041   2.730   2.356
 3153TIP3    H2 9345   5.988   2.764   2.494
 3154TIP3   OH2 9346   5.902   2.262   2.756
 3154TIP3    H1 9347   5.941   2.186   2.711
 3154TIP3    H2 9348   5.985   2.309   2.781
 3155TIP3   OH2 9349   6.915   1.583   2.754
 3155TIP3    H1 9350   6.944   1.666   2.796
 3155TIP3    H2 9351   6.936   1.601   2.661
 3156TIP3   OH2 9352   6.313   1.765   2.789
 3156TIP3    H1 9353   6.356   1.679   2.809
 3156TIP3    H2 9354   6.283   1.748   2.697
 3157TIP3   OH2 9355   5.650   1.423   2.754
 3157TIP3    H1 9356   5.632   1.497   2.691
 3157TIP3    H2 9357   5.602   1.351   2.709
 3158TIP3   OH2 9358   6.346   1.516   2.376
 3158TIP3    H1 9359   6.418   1.500   2.441
 3158TIP3    H2 9360   6.398   1.550   2.301
 3159TIP3   OH2 9361   5.285   1.627   2.860
 3159TIP3    H1 9362   5.368   1.608   2.908
 3159TIP3    H2 9363   5.299   1.572   2.781
 3160TIP3   OH2 9364   5.726   1.824   2.656
 3160TIP3    H1 9365   5.820   1.799   2.668
 3160TIP3    H2 9366   5.688   1.740   2.622
 3161TIP3   OH2 9367   6.989   1.791   2.923
 3161TIP3    H1 9368   6.905   1.838   2.904
 3161TIP3    H2 9369   7.002   1.817   3.016
 3162TIP3   OH2 9370   5.649   1.407   3.187
 3162TIP3    H1 9371   5.587   1.444   3.121
 3162TIP3    H2 9372   5.597   1.423   3.269
 3163TIP3   OH2 9373   5.994   2.258   2.197
 3163TIP3    H1 9374   5.953   2.240   2.111
 3163TIP3    H2 9375   5.951   2.342   2.221
 3164TIP3   OH2 9376   5.754   2.182   2.982
 3164TIP3    H1 9377   5.693   2.249   3.020
 3164TIP3    H2 9378   5.797   2.233   2.911
 3165TIP3   OH2 9379   6.556   1.518   2.548
 3165TIP3    H1 9380   6.547   1.468   2.630
 3165TIP3    H2 9381   6.610   1.594   2.575
 3166TIP3   OH2 9382   5.517   1.522   2.972
 3166TIP3    H1 9383   5.580   1.594   2.997
 3166TIP3    H2 9384   5.567   1.481   2.898
 3167TIP3   OH2 9385   5.582   2.376   3.080
 3167TIP3    H1 9386   5.557   2.463   3.042
 3167TIP3    H2 9387   5.504   2.361   3.137
 3168TIP3   OH2 9388   4.974   2.066   2.317
 3168TIP3    H1 9389   4.936   2.090   2.230
 3168TIP3    H2 9390   5.003   2.153   2.352
 3169TIP3   OH2 9391   6.417   2.582   2.557
 3169TIP3    H1 9392   6.327   2.573   2.596
 3169TIP3    H2 9393   6.408   2.668   2.512
 3170TIP3   OH2 9394   6.708   1.484   2.920
 3170TIP3    H1 9395   6.620   1.512   2.889
 3170TIP3    H2 9396   6.767   1.515   2.849
 3171TIP3   OH2 9397   6.003   1.125   2.900
 3171TIP3    H1 9398   5.992   1.030   2.921
 3171TIP3    H2 9399   5.926   1.162   2.948
 3172TIP3   OH2 9400   6.118   2.628   2.231
 3172TIP3    H1 9401   6.168   2.546   2.210
 3172TIP3    H2 9402   6.179   2.694   2.190
 3173TIP3   OH2 9403   6.261   2.413   2.138
 3173TIP3    H1 9404   6.225   2.334   2.097
 3173TIP3    H2 9405   6.297   2.378   2.222
 3174TIP3   OH2 9406   6.643   2.495   2.901
 3174TIP3    H1 9407   6.631   2.418   2.841
 3174TIP3    H2 9408   6.625   2.570   2.840
 3175TIP3   OH2 9409   5.934   1.889   2.158
 3175TIP3    H1 9410   5.855   1.941   2.135
 3175TIP3    H2 9411   5.981   1.885   2.072
 3176TIP3   OH2 9412   5.893   1.672   1.875
 3176TIP3    H1 9413   5.961   1.724   1.922
 3176TIP3    H2 9414   5.950   1.609   1.827
 3177TIP3   OH2 9415   6.838   2.133   2.746
 3177TIP3    H1 9416   6.754   2.184   2.751
 3177TIP3    H2 9417   6.867   2.156   2.655
 3178TIP3   OH2 9418   6.282   1.972   2.129
 3178TIP3    H1 9419   6.227   1.996   2.208
 3178TIP3    H2 9420   6.366   1.946   2.173
 3179TIP3   OH2 9421   6.517   2.011   3.041
 3179TIP3    H1 9422   6.514   2.094   3.092
 3179TIP3    H2 9423   6.430   2.015   2.996
 3180TIP3   OH2 9424   5.514   1.970   2.548
 3180TIP3    H1 9425   5.472   1.912   2.480
 3180TIP3    H2 9426   5.591   1.916   2.576
 3181TIP3   OH2 9427   5.644   2.378   2.696
 3181TIP3    H1 9428   5.626   2.340   2.608
 3181TIP3    H2 9429   5.735   2.344   2.713
 3182TIP3   OH2 9430   5.644   1.942   2.900
 3182TIP3    H1 9431   5.681   1.918   2.813
 3182TIP3    H2 9432   5.691   2.026   2.921
 3183TIP3   OH2 9433   6.176   2.578   2.677
 3183TIP3    H1 9434   6.162   2.658   2.731
 3183TIP3    H2 9435   6.160   2.505   2.741
 3184TIP3   OH2 9436   5.788   2.497   3.225
 3184TIP3    H1 9437   5.728   2.559   3.271
 3184TIP3    H2 9438   5.723   2.444   3.175
 3185TIP3   OH2 9439   6.121   1.830   1.955
 3185TIP3    H1 9440   6.181   1.889   2.007
 3185TIP3    H2 9441   6.148   1.853   1.863
 3186TIP3   OH2 9442   5.544   2.054   3.326
 3186TIP3    H1 9443   5.549   2.141   3.370
 3186TIP3    H2 9444   5.449   2.034   3.337
 3187TIP3   OH2 9445   5.865   2.509   2.233
 3187TIP3    H1 9446   5.945   2.563   2.247
 3187TIP3    H2 9447   5.805   2.572   2.190
 3188TIP3   OH2 9448   5.583   2.665   3.312
 3188TIP3    H1 9449   5.547   2.666   3.221
 3188TIP3    H2 9450   5.503   2.643   3.365
 3189TIP3   OH2 9451   6.639   1.071   2.005
 3189TIP3    H1 9452   6.557   1.090   2.054
 3189TIP3    H2 9453   6.652   1.154   1.955
 3190TIP3   OH2 9454   5.379   1.812   2.354
 3190TIP3    H1 9455   5.314   1.858   2.295
 3190TIP3    H2 9456   5.340   1.724   2.359
 3191TIP3   OH2 9457   6.436   2.438   1.552
 3191TIP3    H1 9458   6.445   2.534   1.538
 3191TIP3    H2 9459   6.529   2.408   1.539
 3192TIP3   OH2 9460   5.164   2.186   3.257
 3192TIP3    H1 9461   5.147   2.148   3.170
 3192TIP3    H2 9462   5.207   2.109   3.302
 3193TIP3   OH2 9463   6.880   2.840   2.947
 3193TIP3    H1 9464   6.879   2.743   2.961
 3193TIP3    H2 9465   6.797   2.866   2.992
 3194TIP3   OH2 9466   5.986   2.625   3.082
 3194TIP3    H1 9467   5.985   2.718   3.114
 3194TIP3    H2 9468   5.915   2.586   3.136
 3195TIP3   OH2 9469   5.747   2.754   2.033
 3195TIP3    H1 9470   5.701   2.736   1.949
 3195TIP3    H2 9471   5.714   2.843   2.057
 3196TIP3   OH2 9472   5.184   2.604   2.416
 3196TIP3    H1 9473   5.234   2.595   2.501
 3196TIP3    H2 9474   5.121   2.531   2.425
 3197TIP3   OH2 9475   5.948   2.657   1.673
 3197TIP3    H1 9476   6.007   2.587   1.637
 3197TIP3    H2 9477   5.982   2.665   1.764
 3198TIP3   OH2 9478   5.999   2.704   1.943
 3198TIP3    H1 9479   5.910   2.714   1.984
 3198TIP3    H2 9480   6.049   2.664   2.016
 3199TIP3   OH2 9481   6.770   1.971   3.221
 3199TIP3    H1 9482   6.688   1.983   3.171
 3199TIP3    H2 9483   6.785   1.875   3.211
 3200TIP3   OH2 9484   5.367   2.376   3.248
 3200TIP3    H1 9485   5.417   2.363   3.330
 3200TIP3    H2 9486   5.291   2.315   3.260
 3201TIP3   OH2 9487   5.765   1.202   3.030
 3201TIP3    H1 9488   5.675   1.172   3.005
 3201TIP3    H2 9489   5.741   1.284   3.078
 3202TIP3   OH2 9490   6.300   1.318   3.225
 3202TIP3    H1 9491   6.368   1.289   3.289
 3202TIP3    H2 9492   6.216   1.297   3.272
 3203TIP3   OH2 9493   6.539   1.747   3.144
 3203TIP3    H1 9494   6.489   1.743   3.229
 3203TIP3    H2 9495   6.514   1.834   3.108
 3204TIP3   OH2 9496   6.199   1.877   1.701
 3204TIP3    H1 9497   6.164   1.851   1.613
 3204TIP3    H2 9498   6.281   1.924   1.675
 3205TIP3   OH2 9499   5.909   1.252   2.002
 3205TIP3    H1 9500   5.877   1.248   2.094
 3205TIP3    H2 9501   5.873   1.168   1.968
 3206TIP3   OH2 9502   5.695   1.719   3.048
 3206TIP3    H1 9503   5.648   1.741   3.131
 3206TIP3    H2 9504   5.679   1.800   2.995
 3207TIP3   OH2 9505   5.582   1.604   2.563
 3207TIP3    H1 9506   5.489   1.579   2.580
 3207TIP3    H2 9507   5.595   1.564   2.475
 3208TIP3   OH2 9508   6.071   1.689   2.291
 3208TIP3    H1 9509   6.020   1.761   2.248
 3208TIP3    H2 9510   6.127   1.658   2.217
 3209TIP3   OH2 9511   6.246   1.968   3.377
 3209TIP3    H1 9512   6.224   1.895   3.439
 3209TIP3    H2 9513   6.340   1.982   3.399
 3210TIP3   OH2 9514   6.228   1.718   2.530
 3210TIP3    H1 9515   6.168   1.747   2.458
 3210TIP3    H2 9516   6.263   1.637   2.487
 3211TIP3   OH2 9517   5.514   1.747   3.259
 3211TIP3    H1 9518   5.548   1.809   3.325
 3211TIP3    H2 9519   5.506   1.665   3.311
 3212TIP3   OH2 9520   5.565   1.223   1.968
 3212TIP3    H1 9521   5.558   1.222   2.065
 3212TIP3    H2 9522   5.488   1.277   1.943
 3213TIP3   OH2 9523   5.103   1.265   2.831
 3213TIP3    H1 9524   5.163   1.299   2.900
 3213TIP3    H2 9525   5.164   1.228   2.767
 3214TIP3   OH2 9526   5.095   1.254   2.370
 3214TIP3    H1 9527   5.135   1.288   2.288
 3214TIP3    H2 9528   5.029   1.324   2.385
 3215TIP3   OH2 9529   6.239   1.964   2.953
 3215TIP3    H1 9530   6.272   1.892   2.894
 3215TIP3    H2 9531   6.210   1.911   3.030
 3216TIP3   OH2 9532   5.909   1.428   2.625
 3216TIP3    H1 9533   5.828   1.425   2.681
 3216TIP3    H2 9534   5.979   1.423   2.692
 3217TIP3   OH2 9535   5.342   1.482   2.633
 3217TIP3    H1 9536   5.248   1.487   2.605
 3217TIP3    H2 9537   5.370   1.392   2.607
 3218TIP3   OH2 9538   5.611   1.478   2.321
 3218TIP3    H1 9539   5.706   1.492   2.302
 3218TIP3    H2 9540   5.567   1.501   2.237
 3219TIP3   OH2 9541   6.401   1.502   2.827
 3219TIP3    H1 9542   6.366   1.514   2.919
 3219TIP3    H2 9543   6.336   1.441   2.790
 3220TIP3   OH2 9544   5.453   1.512   2.098
 3220TIP3    H1 9545   5.384   1.466   2.047
 3220TIP3    H2 9546   5.507   1.550   2.026
 3221TIP3   OH2 9547   6.571   3.190   3.046
 3221TIP3    H1 9548   6.569   3.215   2.951
 3221TIP3    H2 9549   6.649   3.239   3.077
 3222TIP3   OH2 9550   5.528   2.300   3.467
 3222TIP3    H1 9551   5.608   2.331   3.515
 3222TIP3    H2 9552   5.464   2.300   3.541
 3223TIP3   OH2 9553   5.991   1.754   2.721
 3223TIP3    H1 9554   6.064   1.716   2.671
 3223TIP3    H2 9555   6.001   1.711   2.808
 3224TIP3   OH2 9556   5.511   1.245   2.597
 3224TIP3    H1 9557   5.489   1.163   2.646
 3224TIP3    H2 9558   5.569   1.211   2.527
 3225TIP3   OH2 9559   5.968   1.650   3.013
 3225TIP3    H1 9560   5.879   1.688   3.026
 3225TIP3    H2 9561   6.026   1.711   3.063
 3226TIP3   OH2 9562   5.704   2.042   2.106
 3226TIP3    H1 9563   5.632   1.977   2.095
 3226TIP3    H2 9564   5.686   2.075   2.198
 3227TIP3   OH2 9565   6.605   2.277   2.736
 3227TIP3    H1 9566   6.629   2.327   2.655
 3227TIP3    H2 9567   6.520   2.236   2.711
 3228TIP3   OH2 9568   6.163   1.352   1.973
 3228TIP3    H1 9569   6.066   1.336   1.978
 3228TIP3    H2 9570   6.172   1.447   1.994
 3229TIP3   OH2 9571   6.103   2.359   3.104
 3229TIP3    H1 9572   6.129   2.340   3.195
 3229TIP3    H2 9573   6.066   2.449   3.111
 3230TIP3   OH2 9574   6.232   1.602   2.073
 3230TIP3    H1 9575   6.329   1.607   2.088
 3230TIP3    H2 9576   6.214   1.681   2.019
 3231TIP3   OH2 9577   5.392   2.056   2.782
 3231TIP3    H1 9578   5.432   2.034   2.696
 3231TIP3    H2 9579   5.444   2.001   2.843
 3232TIP3   OH2 9580   5.850   2.191   1.929
 3232TIP3    H1 9581   5.803   2.278   1.934
 3232TIP3    H2 9582   5.796   2.136   1.989
 3233TIP3   OH2 9583   5.279   1.987   3.400
 3233TIP3    H1 9584   5.305   1.976   3.494
 3233TIP3    H2 9585   5.214   1.915   3.390
 3234TIP3   OH2 9586   6.004   2.098   3.415
 3234TIP3    H1 9587   5.946   2.039   3.365
 3234TIP3    H2 9588   6.092   2.065   3.388
 3235TIP3   OH2 9589   6.265   2.618   3.001
 3235TIP3    H1 9590   6.168   2.618   3.013
 3235TIP3    H2 9591   6.293   2.671   3.078
 3236TIP3   OH2 9592   6.675   1.692   1.909
 3236TIP3    H1 9593   6.613   1.647   1.847
 3236TIP3    H2 9594   6.672   1.781   1.867
 3237TIP3   OH2 9595   6.893   2.549   2.989
 3237TIP3    H1 9596   6.795   2.544   2.981
 3237TIP3    H2 9597   6.919   2.519   2.899
 3238TIP3   OH2 9598   6.377   2.510   1.818
 3238TIP3    H1 9599   6.348   2.440   1.878
 3238TIP3    H2 9600   6.387   2.464   1.733
 3239TIP3   OH2 9601   6.371   2.140   2.655
 3239TIP3    H1 9602   6.277   2.115   2.668
 3239TIP3    H2 9603   6.405   2.060   2.610
 3240TIP3   OH2 9604   5.500   2.368   2.408
 3240TIP3    H1 9605   5.502   2.449   2.354
 3240TIP3    H2 9606   5.405   2.354   2.417
 3241TIP3   OH2 9607   5.063   1.671   2.112
 3241TIP3    H1 9608   5.109   1.755   2.131
 3241TIP3    H2 9609   4.986   1.677   2.172
 3242TIP3   OH2 9610   5.635   2.132   2.352
 3242TIP3    H1 9611   5.602   2.222   2.369
 3242TIP3    H2 9612   5.600   2.083   2.428
 3243TIP3   OH2 9613   5.767   2.711   2.877
 3243TIP3    H1 9614   5.808   2.784   2.826
 3243TIP3    H2 9615   5.844   2.677   2.925
 3244TIP3   OH2 9616   5.419   2.606   2.260
 3244TIP3    H1 9617   5.333   2.616   2.305
 3244TIP3    H2 9618   5.452   2.698   2.262
 3245TIP3   OH2 9619   6.155   2.345   2.836
 3245TIP3    H1 9620   6.146   2.343   2.934
 3245TIP3    H2 9621   6.235   2.293   2.823
 3246TIP3   OH2 9622   6.130   2.239   1.718
 3246TIP3    H1 9623   6.183   2.213   1.797
 3246TIP3    H2 9624   6.042   2.211   1.746
 3247TIP3   OH2 9625   6.404   2.879   2.886
 3247TIP3    H1 9626   6.324   2.823   2.878
 3247TIP3    H2 9627   6.389   2.944   2.813
 3248TIP3   OH2 9628   6.470   2.713   1.538
 3248TIP3    H1 9629   6.506   2.785   1.484
 3248TIP3    H2 9630   6.390   2.758   1.572
 3249TIP3   OH2 9631   5.491   1.490   3.404
 3249TIP3    H1 9632   5.395   1.492   3.420
 3249TIP3    H2 9633   5.521   1.431   3.475
 3250TIP3   OH2 9634   6.290   2.173   1.936
 3250TIP3    H1 9635   6.280   2.106   2.006
 3250TIP3    H2 9636   6.387   2.170   1.923
 3251TIP3   OH2 9637   5.207   2.581   3.035
 3251TIP3    H1 9638   5.259   2.503   3.058
 3251TIP3    H2 9639   5.238   2.645   3.100
 3252TIP3   OH2 9640   5.496   2.219   1.718
 3252TIP3    H1 9641   5.510   2.127   1.689
 3252TIP3    H2 9642   5.477   2.206   1.813
 3253TIP3   OH2 9643   5.441   2.223   1.992
 3253TIP3    H1 9644   5.516   2.198   2.048
 3253TIP3    H2 9645   5.445   2.322   1.997
 3254TIP3   OH2 9646   5.176   1.917   2.193
 3254TIP3    H1 9647   5.110   1.963   2.250
 3254TIP3    H2 9648   5.192   1.985   2.125
 3255TIP3   OH2 9649   6.325   1.554   3.086
 3255TIP3    H1 9650   6.406   1.592   3.125
 3255TIP3    H2 9651   6.312   1.473   3.140
 3256TIP3   OH2 9652   6.204   1.306   2.252
 3256TIP3    H1 9653   6.192   1.327   2.157
 3256TIP3    H2 9654   6.244   1.388   2.286
 3257TIP3   OH2 9655   5.707   2.421   1.940
 3257TIP3    H1 9656   5.620   2.448   1.975
 3257TIP3    H2 9657   5.723   2.492   1.876
 3258TIP3   OH2 9658   5.893   1.486   2.353
 3258TIP3    H1 9659   5.959   1.556   2.334
 3258TIP3    H2 9660   5.901   1.478   2.451
 3259TIP3   OH2 9661   6.165   1.803   3.161
 3259TIP3    H1 9662   6.187   1.856   3.240
 3259TIP3    H2 9663   6.220   1.724   3.173
 3260TIP3   OH2 9664   6.039   1.211   2.454
 3260TIP3    H1 9665   6.036   1.287   2.515
 3260TIP3    H2 9666   6.100   1.246   2.385
 3261TIP3   OH2 9667   5.450   2.496   2.006
 3261TIP3    H1 9668   5.421   2.565   1.943
 3261TIP3    H2 9669   5.435   2.541   2.092
 3262TIP3   OH2 9670   5.550   1.210   2.245
 3262TIP3    H1 9671   5.550   1.301   2.280
 3262TIP3    H2 9672   5.645   1.190   2.252
 3263TIP3   OH2 9673   6.806   1.704   3.140
 3263TIP3    H1 9674   6.708   1.702   3.149
 3263TIP3    H2 9675   6.816   1.661   3.054
 3264TIP3   OH2 9676   6.456   1.898   2.529
 3264TIP3    H1 9677   6.380   1.838   2.541
 3264TIP3    H2 9678   6.528   1.851   2.577
 3265TIP3   OH2 9679   5.168   2.126   2.000
 3265TIP3    H1 9680   5.234   2.198   2.007
 3265TIP3    H2 9681   5.213   2.071   1.932
 3266TIP3   OH2 9682   5.106   1.399   2.140
 3266TIP3    H1 9683   5.112   1.496   2.133
 3266TIP3    H2 9684   5.034   1.379   2.079
 3267TIP3   OH2 9685   6.425   2.854   2.479
 3267TIP3    H1 9686   6.382   2.900   2.404
 3267TIP3    H2 9687   6.519   2.872   2.457
 3268TIP3   OH2 9688   5.497   1.124   3.010
 3268TIP3    H1 9689   5.472   1.087   2.923
 3268TIP3    H2 9690   5.491   1.046   3.068
 3269TIP3   OH2 9691   5.033   2.338   2.394
 3269TIP3    H1 9692   4.950   2.378   2.423
 3269TIP3    H2 9693   5.035   2.372   2.303
 3270TIP3   OH2 9694   5.197   2.883   3.458
 3270TIP3    H1 9695   5.282   2.884   3.505
 3270TIP3    H2 9696   5.176   2.788   3.457
 3271TIP3   OH2 9697   5.679   2.846   3.503
 3271TIP3    H1 9698   5.773   2.827   3.509
 3271TIP3    H2 9699   5.652   2.788   3.429
 3272TIP3   OH2 9700   5.660   2.423   1.631
 3272TIP3    H1 9701   5.604   2.351   1.668
 3272TIP3    H2 9702   5.735   2.371   1.596
 3273TIP3   OH2 9703   6.317   2.753   3.236
 3273TIP3    H1 9704   6.308   2.683   3.305
 3273TIP3    H2 9705   6.394   2.804   3.267
 3274TIP3   OH2 9706   6.096   2.463   1.542
 3274TIP3    H1 9707   6.140   2.399   1.600
 3274TIP3    H2 9708   6.151   2.462   1.462
 3275TIP3   OH2 9709   5.330   2.290   3.660
 3275TIP3    H1 9710   5.344   2.194   3.668
 3275TIP3    H2 9711   5.242   2.293   3.617
 3276TIP3   OH2 9712   5.304   1.939   1.852
 3276TIP3    H1 9713   5.361   1.908   1.924
 3276TIP3    H2 9714   5.369   1.944   1.779
 3277TIP3   OH2 9715   5.935   2.374   3.432
 3277TIP3    H1 9716   5.893   2.391   3.345
 3277TIP3    H2 9717   5.966   2.281   3.423
 3278TIP3   OH2 9718   5.815   2.138   1.659
 3278TIP3    H1 9719   5.817   2.150   1.756
 3278TIP3    H2 9720   5.815   2.040   1.654
 3279TIP3   OH2 9721   6.427   2.382   3.038
 3279TIP3    H1 9722   6.502   2.427   2.994
 3279TIP3    H2 9723   6.357   2.448   3.024
 3280TIP3   OH2 9724   5.447   2.021   3.639
 3280TIP3    H1 9725   5.523   1.965   3.620
 3280TIP3    H2 9726   5.471   2.055   3.727
 3281TIP3   OH2 9727   5.512   1.843   2.073
 3281TIP3    H1 9728   5.488   1.799   2.156
 3281TIP3    H2 9729   5.549   1.769   2.021
 3282TIP3   OH2 9730   5.778   1.904   3.299
 3282TIP3    H1 9731   5.703   1.967   3.302
 3282TIP3    H2 9732   5.831   1.940   3.223
 3283TIP3   OH2 9733   5.613   1.637   1.915
 3283TIP3    H1 9734   5.587   1.641   1.820
 3283TIP3    H2 9735   5.711   1.641   1.907
 3284TIP3   OH2 9736   6.298   2.309   3.436
 3284TIP3    H1 9737   6.378   2.285   3.388
 3284TIP3    H2 9738   6.295   2.243   3.507
 3285TIP3   OH2 9739   6.435   1.968   1.577
 3285TIP3    H1 9740   6.414   1.921   1.494
 3285TIP3    H2 9741   6.402   2.058   1.554
 3286TIP3   OH2 9742   5.904   1.696   3.428
 3286TIP3    H1 9743   5.905   1.615   3.372
 3286TIP3    H2 9744   5.860   1.761   3.369
 3287TIP3   OH2 9745   5.907   1.482   3.236
 3287TIP3    H1 9746   5.935   1.523   3.152
 3287TIP3    H2 9747   5.813   1.459   3.217
 3288TIP3   OH2 9748   5.933   2.017   3.108
 3288TIP3    H1 9749   6.018   2.026   3.063
 3288TIP3    H2 9750   5.878   2.084   3.064
 3289TIP3   OH2 9751   6.516   1.985   3.489
 3289TIP3    H1 9752   6.564   1.901   3.500
 3289TIP3    H2 9753   6.585   2.043   3.455
 3290TIP3   OH2 9754   6.557   2.238   3.226
 3290TIP3    H1 9755   6.499   2.291   3.166
 3290TIP3    H2 9756   6.645   2.258   3.186
 3291TIP3   OH2 9757   5.781   1.808   3.658
 3291TIP3    H1 9758   5.713   1.739   3.673
 3291TIP3    H2 9759   5.817   1.781   3.571
 3292TIP3   OH2 9760   6.039   1.245   3.301
 3292TIP3    H1 9761   5.990   1.327   3.280
 3292TIP3    H2 9762   5.970   1.177   3.291
 3293TIP3   OH2 9763   6.165   1.750   3.519
 3293TIP3    H1 9764   6.154   1.737   3.615
 3293TIP3    H2 9765   6.075   1.725   3.489
 3294TIP3   OH2 9766   6.404   1.700   3.373
 3294TIP3    H1 9767   6.329   1.700   3.436
 3294TIP3    H2 9768   6.478   1.668   3.430
 3295TIP3   OH2 9769   6.634   1.640   3.524
 3295TIP3    H1 9770   6.646   1.544   3.542
 3295TIP3    H2 9771   6.629   1.679   3.614
 3296TIP3   OH2 9772   5.621   1.588   3.711
 3296TIP3    H1 9773   5.627   1.496   3.678
 3296TIP3    H2 9774   5.658   1.576   3.802
 3297TIP3   OH2 9775   6.134   1.256   3.559
 3297TIP3    H1 9776   6.201   1.185   3.554
 3297TIP3    H2 9777   6.094   1.249   3.470
 3298TIP3   OH2 9778   6.200   1.471   3.718
 3298TIP3    H1 9779   6.178   1.399   3.654
 3298TIP3    H2 9780   6.121   1.529   3.712
 3299TIP3   OH2 9781   5.420   2.698   1.819
 3299TIP3    H1 9782   5.515   2.695   1.799
 3299TIP3    H2 9783   5.389   2.748   1.741
 3300TIP3   OH2 9784   4.901   2.078   2.040
 3300TIP3    H1 9785   4.995   2.101   2.022
 3300TIP3    H2 9786   4.894   1.991   1.996
 3301TIP3   OH2 9787   4.815   2.695   2.443
 3301TIP3    H1 9788   4.747   2.634   2.407
 3301TIP3    H2 9789   4.856   2.639   2.512
 3302TIP3   OH2 9790   4.949   2.554   2.635
 3302TIP3    H1 9791   4.974   2.473   2.679
 3302TIP3    H2 9792   5.000   2.620   2.687
 3303TIP3   OH2 9793   6.678   2.943   2.435
 3303TIP3    H1 9794   6.703   2.977   2.523
 3303TIP3    H2 9795   6.739   2.991   2.377
 3304TIP3   OH2 9796   6.707   2.965   2.717
 3304TIP3    H1 9797   6.663   2.877   2.713
 3304TIP3    H2 9798   6.781   2.943   2.775
 3305TIP3   OH2 9799   6.753   2.641   3.290
 3305TIP3    H1 9800   6.680   2.650   3.355
 3305TIP3    H2 9801   6.795   2.730   3.295
 3306TIP3   OH2 9802   6.569   2.155   1.911
 3306TIP3    H1 9803   6.637   2.218   1.882
 3306TIP3    H2 9804   6.613   2.115   1.990
 3307TIP3   OH2 9805   6.697   2.022   2.115
 3307TIP3    H1 9806   6.631   1.979   2.173
 3307TIP3    H2 9807   6.760   2.060   2.179
 3308TIP3   OH2 9808   6.752   2.414   2.547
 3308TIP3    H1 9809   6.804   2.349   2.497
 3308TIP3    H2 9810   6.744   2.488   2.483
 3309TIP3   OH2 9811   6.583   2.715   2.741
 3309TIP3    H1 9812   6.511   2.757   2.793
 3309TIP3    H2 9813   6.533   2.667   2.671
 3310TIP3   OH2 9814   6.636   1.930   1.760
 3310TIP3    H1 9815   6.564   1.932   1.693
 3310TIP3    H2 9816   6.607   2.006   1.816
 3311TIP3   OH2 9817   6.505   1.604   1.716
 3311TIP3    H1 9818   6.464   1.639   1.636
 3311TIP3    H2 9819   6.481   1.509   1.709
 3312TIP3   OH2 9820   6.511   1.879   2.260
 3312TIP3    H1 9821   6.519   1.782   2.253
 3312TIP3    H2 9822   6.497   1.892   2.357
 3313TIP3   OH2 9823   5.133   1.960   3.017
 3313TIP3    H1 9824   5.129   1.931   2.924
 3313TIP3    H2 9825   5.230   1.958   3.032
 3314TIP3   OH2 9826   6.800   2.303   3.117
 3314TIP3    H1 9827   6.873   2.237   3.108
 3314TIP3    H2 9828   6.827   2.373   3.055
 3315TIP3   OH2 9829   6.986   2.108   3.133
 3315TIP3    H1 9830   6.911   2.058   3.172
 3315TIP3    H2 9831   7.058   2.044   3.148
 3316TIP3   OH2 9832   6.448   1.339   1.705
 3316TIP3    H1 9833   6.523   1.306   1.759
 3316TIP3    H2 9834   6.376   1.277   1.724
 3317TIP3   OH2 9835   6.508   1.595   2.155
 3317TIP3    H1 9836   6.548   1.506   2.171
 3317TIP3    H2 9837   6.566   1.627   2.084
 3318TIP3   OH2 9838   6.669   1.769   2.650
 3318TIP3    H1 9839   6.755   1.794   2.610
 3318TIP3    H2 9840   6.683   1.805   2.740
 3319TIP3   OH2 9841   6.738   1.913   2.882
 3319TIP3    H1 9842   6.660   1.946   2.930
 3319TIP3    H2 9843   6.770   1.994   2.837
 3320TIP3   OH2 9844   5.355   1.637   3.677
 3320TIP3    H1 9845   5.453   1.632   3.682
 3320TIP3    H2 9846   5.330   1.553   3.721
 3321TIP3   OH2 9847   7.191   1.504   3.438
 3321TIP3    H1 9848   7.249   1.438   3.395
 3321TIP3    H2 9849   7.161   1.558   3.362
 3322TIP3   OH2 9850   6.615   1.345   2.194
 3322TIP3    H1 9851   6.664   1.328   2.277
 3322TIP3    H2 9852   6.556   1.268   2.192
 3323TIP3   OH2 9853   5.309   1.330   3.012
 3323TIP3    H1 9854   5.372   1.256   3.024
 3323TIP3    H2 9855   5.372   1.404   3.005
 3324TIP3   OH2 9856   5.116   1.604   3.082
 3324TIP3    H1 9857   5.167   1.601   2.999
 3324TIP3    H2 9858   5.152   1.683   3.124
 3325TIP3   OH2 9859   7.060   1.643   3.244
 3325TIP3    H1 9860   6.974   1.684   3.265
 3325TIP3    H2 9861   7.030   1.571   3.185
 3326TIP3   OH2 9862   6.696   1.285   1.834
 3326TIP3    H1 9863   6.727   1.213   1.775
 3326TIP3    H2 9864   6.765   1.353   1.821
 3327TIP3   OH2 9865   5.084   1.089   2.582
 3327TIP3    H1 9866   5.005   1.140   2.601
 3327TIP3    H2 9867   5.120   1.145   2.510
 3328TIP3   OH2 9868   6.262   2.811   2.093
 3328TIP3    H1 9869   6.313   2.797   2.010
 3328TIP3    H2 9870   6.315   2.878   2.138
 3329TIP3   OH2 9871   5.324   1.194   3.403
 3329TIP3    H1 9872   5.273   1.183   3.485
 3329TIP3    H2 9873   5.255   1.225   3.342
 3330TIP3   OH2 9874   5.362   2.613   3.477
 3330TIP3    H1 9875   5.269   2.588   3.461
 3330TIP3    H2 9876   5.371   2.597   3.572
 3331TIP3   OH2 9877   5.540   2.647   3.025
 3331TIP3    H1 9878   5.492   2.723   2.986
 3331TIP3    H2 9879   5.626   2.662   2.981
 3332TIP3   OH2 9880   5.986   2.892   3.163
 3332TIP3    H1 9881   6.027   2.893   3.252
 3332TIP3    H2 9882   6.051   2.943   3.111
 3333TIP3   OH2 9883   6.164   3.044   3.022
 3333TIP3    H1 9884   6.236   2.993   2.981
 3333TIP3    H2 9885   6.216   3.101   3.083
 3334TIP3   OH2 9886   6.959   1.406   3.122
 3334TIP3    H1 9887   6.868   1.399   3.088
 3334TIP3    H2 9888   6.990   1.313   3.111
 3335TIP3   OH2 9889   5.218   2.906   3.049
 3335TIP3    H1 9890   5.128   2.938   3.025
 3335TIP3    H2 9891   5.227   2.945   3.137
 3336TIP3   OH2 9892   5.453   2.883   2.907
 3336TIP3    H1 9893   5.367   2.896   2.952
 3336TIP3    H2 9894   5.434   2.917   2.817
 3337TIP3   OH2 9895   5.879   2.912   2.705
 3337TIP3    H1 9896   5.810   2.932   2.639
 3337TIP3    H2 9897   5.891   3.000   2.747
 3338TIP3   OH2 9898   6.148   2.851   2.756
 3338TIP3    H1 9899   6.054   2.868   2.737
 3338TIP3    H2 9900   6.191   2.927   2.714
 3339TIP3   OH2 9901   6.356   3.044   2.671
 3339TIP3    H1 9902   6.341   3.128   2.624
 3339TIP3    H2 9903   6.381   2.983   2.598
 3340TIP3   OH2 9904   5.127   2.696   2.793
 3340TIP3    H1 9905   5.150   2.669   2.885
 3340TIP3    H2 9906   5.202   2.654   2.746
 3341TIP3   OH2 9907   5.321   2.568   2.650
 3341TIP3    H1 9908   5.339   2.485   2.701
 3341TIP3    H2 9909   5.411   2.606   2.646
 3342TIP3   OH2 9910   5.587   2.664   2.654
 3342TIP3    H1 9911   5.620   2.574   2.642
 3342TIP3    H2 9912   5.631   2.687   2.738
 3343TIP3   OH2 9913   6.161   1.320   2.738
 3343TIP3    H1 9914   6.120   1.250   2.792
 3343TIP3    H2 9915   6.236   1.273   2.696
 3344TIP3   OH2 9916   6.687   1.203   2.648
 3344TIP3    H1 9917   6.724   1.253   2.572
 3344TIP3    H2 9918   6.591   1.220   2.639
 3345TIP3   OH2 9919   6.782   1.301   2.411
 3345TIP3    H1 9920   6.855   1.250   2.370
 3345TIP3    H2 9921   6.815   1.393   2.395
 3346TIP3   OH2 9922   5.423   1.029   2.756
 3346TIP3    H1 9923   5.334   0.995   2.746
 3346TIP3    H2 9924   5.475   0.945   2.759
 3347TIP3   OH2 9925   5.205   0.896   2.403
 3347TIP3    H1 9926   5.239   0.948   2.328
 3347TIP3    H2 9927   5.165   0.964   2.459
 3348TIP3   OH2 9928   5.853   1.066   2.640
 3348TIP3    H1 9929   5.912   1.111   2.578
 3348TIP3    H2 9930   5.885   1.099   2.725
 3349TIP3   OH2 9931   6.403   1.209   2.622
 3349TIP3    H1 9932   6.403   1.171   2.533
 3349TIP3    H2 9933   6.390   1.129   2.678
 3350TIP3   OH2 9934   6.433   1.131   2.184
 3350TIP3    H1 9935   6.346   1.172   2.194
 3350TIP3    H2 9936   6.419   1.046   2.231
 3351TIP3   OH2 9937   4.914   2.473   2.189
 3351TIP3    H1 9938   4.829   2.441   2.153
 3351TIP3    H2 9939   4.906   2.567   2.165
 3352TIP3   OH2 9940   5.317   1.053   2.174
 3352TIP3    H1 9941   5.364   0.993   2.113
 3352TIP3    H2 9942   5.390   1.110   2.206
 3353TIP3   OH2 9943   5.827   1.234   2.268
 3353TIP3    H1 9944   5.889   1.187   2.326
 3353TIP3    H2 9945   5.850   1.327   2.293
 3354TIP3   OH2 9946   5.689   2.659   1.767
 3354TIP3    H1 9947   5.777   2.682   1.731
 3354TIP3    H2 9948   5.666   2.584   1.707
 3355TIP3   OH2 9949   6.408   2.778   1.860
 3355TIP3    H1 9950   6.400   2.680   1.848
 3355TIP3    H2 9951   6.362   2.809   1.780
 3356TIP3   OH2 9952   5.621   1.312   3.649
 3356TIP3    H1 9953   5.586   1.241   3.705
 3356TIP3    H2 9954   5.715   1.311   3.676
 3357TIP3   OH2 9955   5.870   1.308   3.767
 3357TIP3    H1 9956   5.955   1.281   3.729
 3357TIP3    H2 9957   5.857   1.238   3.835
 3358TIP3   OH2 9958   4.991   2.492   1.823
 3358TIP3    H1 9959   4.993   2.527   1.913
 3358TIP3    H2 9960   5.081   2.453   1.813
 3359TIP3   OH2 9961   6.695   1.369   3.555
 3359TIP3    H1 9962   6.713   1.338   3.646
 3359TIP3    H2 9963   6.784   1.364   3.514
 3360TIP3   OH2 9964   6.634   2.922   3.047
 3360TIP3    H1 9965   6.555   2.890   2.998
 3360TIP3    H2 9966   6.614   3.017   3.051
 3361TIP3   OH2 9967   7.906   2.281   1.812
 3361TIP3    H1 9968   7.866   2.363   1.840
 3361TIP3    H2 9969   7.831   2.231   1.772
 3362TIP3   OH2 9970   7.890   2.293   2.196
 3362TIP3    H1 9971   7.929   2.270   2.282
 3362TIP3    H2 9972   7.855   2.206   2.169
 3363TIP3   OH2 9973   7.199   2.189   2.558
 3363TIP3    H1 9974   7.228   2.120   2.622
 3363TIP3    H2 9975   7.276   2.246   2.557
 3364TIP3   OH2 9976   8.093   2.607   1.891
 3364TIP3    H1 9977   8.119   2.528   1.939
 3364TIP3    H2 9978   8.150   2.674   1.933
 3365TIP3   OH2 9979   7.169   2.599   2.282
 3365TIP3    H1 9980   7.159   2.501   2.285
 3365TIP3    H2 9981   7.265   2.608   2.289
 3366TIP3   OH2 9982   6.877   1.804   2.070
 3366TIP3    H1 9983   6.826   1.885   2.084
 3366TIP3    H2 9984   6.808   1.747   2.031
 3367TIP3   OH2 9985   6.936   2.090   2.243
 3367TIP3    H1 9986   6.984   2.012   2.279
 3367TIP3    H2 9987   6.992   2.114   2.168
 3368TIP3   OH2 9988   7.789   3.047   1.883
 3368TIP3    H1 9989   7.850   2.974   1.869
 3368TIP3    H2 9990   7.777   3.048   1.979
 3369TIP3   OH2 9991   7.702   2.519   2.234
 3369TIP3    H1 9992   7.743   2.435   2.206
 3369TIP3    H2 9993   7.784   2.565   2.262
 3370TIP3   OH2 9994   8.640   1.866   2.252
 3370TIP3    H1 9995   8.705   1.915   2.306
 3370TIP3    H2 9996   8.688   1.860   2.168
 3371TIP3   OH2 9997   8.109   2.023   2.274
 3371TIP3    H1 9998   8.152   1.938   2.296
 3371TIP3    H2 9999   8.079   2.005   2.183
 3372TIP3   OH210000   7.448   1.681   2.240
 3372TIP3    H110001   7.427   1.753   2.177
 3372TIP3    H210002   7.400   1.607   2.197
 3373TIP3   OH210003   8.144   1.771   1.864
 3373TIP3    H110004   8.216   1.751   1.928
 3373TIP3    H210005   8.197   1.801   1.788
 3374TIP3   OH210006   7.082   1.882   2.347
 3374TIP3    H110007   7.164   1.862   2.395
 3374TIP3    H210008   7.094   1.826   2.268
 3375TIP3   OH210009   7.523   2.080   2.139
 3375TIP3    H110010   7.616   2.054   2.153
 3375TIP3    H210011   7.483   1.996   2.108
 3376TIP3   OH210012   8.780   2.044   2.408
 3376TIP3    H110013   8.697   2.096   2.408
 3376TIP3    H210014   8.826   2.081   2.487
 3377TIP3   OH210015   7.445   1.664   2.675
 3377TIP3    H110016   7.384   1.700   2.608
 3377TIP3    H210017   7.393   1.681   2.756
 3378TIP3   OH210018   7.551   2.440   2.469
 3378TIP3    H110019   7.487   2.503   2.510
 3378TIP3    H210020   7.593   2.497   2.401
 3379TIP3   OH210021   8.356   1.770   2.036
 3379TIP3    H110022   8.341   1.727   2.121
 3379TIP3    H210023   8.410   1.847   2.062
 3380TIP3   OH210024   7.315   1.779   2.459
 3380TIP3    H110025   7.378   1.851   2.483
 3380TIP3    H210026   7.364   1.738   2.384
 3381TIP3   OH210027   7.377   2.633   2.566
 3381TIP3    H110028   7.353   2.721   2.531
 3381TIP3    H210029   7.299   2.616   2.623
 3382TIP3   OH210030   6.774   2.323   1.803
 3382TIP3    H110031   6.731   2.349   1.720
 3382TIP3    H210032   6.803   2.409   1.839
 3383TIP3   OH210033   8.209   2.837   2.037
 3383TIP3    H110034   8.121   2.830   2.080
 3383TIP3    H210035   8.205   2.928   2.000
 3384TIP3   OH210036   8.481   1.728   2.419
 3384TIP3    H110037   8.393   1.758   2.390
 3384TIP3    H210038   8.539   1.773   2.353
 3385TIP3   OH210039   7.801   1.382   2.388
 3385TIP3    H110040   7.787   1.287   2.405
 3385TIP3    H210041   7.723   1.420   2.436
 3386TIP3   OH210042   7.936   2.849   1.712
 3386TIP3    H110043   8.026   2.816   1.729
 3386TIP3    H210044   7.962   2.935   1.671
 3387TIP3   OH210045   8.435   2.752   2.387
 3387TIP3    H110046   8.424   2.675   2.328
 3387TIP3    H210047   8.420   2.827   2.326
 3388TIP3   OH210048   7.733   2.153   1.644
 3388TIP3    H110049   7.649   2.195   1.616
 3388TIP3    H210050   7.776   2.137   1.558
 3389TIP3   OH210051   7.687   1.929   1.370
 3389TIP3    H110052   7.765   1.976   1.405
 3389TIP3    H210053   7.729   1.860   1.316
 3390TIP3   OH210054   8.631   2.385   2.231
 3390TIP3    H110055   8.548   2.439   2.236
 3390TIP3    H210056   8.661   2.406   2.141
 3391TIP3   OH210057   8.082   2.228   1.614
 3391TIP3    H110058   8.028   2.244   1.695
 3391TIP3    H210059   8.166   2.198   1.655
 3392TIP3   OH210060   8.311   2.268   2.529
 3392TIP3    H110061   8.310   2.349   2.583
 3392TIP3    H210062   8.225   2.273   2.484
 3393TIP3   OH210063   7.316   2.229   2.027
 3393TIP3    H110064   7.270   2.170   1.964
 3393TIP3    H210065   7.388   2.172   2.060
 3394TIP3   OH210066   7.447   2.642   2.177
 3394TIP3    H110067   7.417   2.587   2.104
 3394TIP3    H210068   7.535   2.603   2.198
 3395TIP3   OH210069   7.449   2.196   2.387
 3395TIP3    H110070   7.481   2.174   2.297
 3395TIP3    H210071   7.491   2.282   2.406
 3396TIP3   OH210072   7.967   2.832   2.158
 3396TIP3    H110073   7.958   2.914   2.210
 3396TIP3    H210074   7.957   2.762   2.225
 3397TIP3   OH210075   7.584   2.754   2.710
 3397TIP3    H110076   7.525   2.816   2.758
 3397TIP3    H210077   7.518   2.700   2.662
 3398TIP3   OH210078   7.919   2.084   1.446
 3398TIP3    H110079   7.979   2.142   1.498
 3398TIP3    H210080   7.945   2.110   1.354
 3399TIP3   OH210081   7.338   2.311   2.811
 3399TIP3    H110082   7.343   2.397   2.857
 3399TIP3    H210083   7.244   2.290   2.823
 3400TIP3   OH210084   7.379   2.921   2.798
 3400TIP3    H110085   7.342   2.921   2.708
 3400TIP3    H210086   7.299   2.900   2.852
 3401TIP3   OH210087   7.176   2.070   1.840
 3401TIP3    H110088   7.108   2.113   1.782
 3401TIP3    H210089   7.138   1.982   1.851
 3402TIP3   OH210090   8.232   2.697   1.041
 3402TIP3    H110091   8.240   2.794   1.023
 3402TIP3    H210092   8.325   2.669   1.026
 3403TIP3   OH210093   6.958   2.452   2.745
 3403TIP3    H110094   6.891   2.430   2.677
 3403TIP3    H210095   6.994   2.365   2.769
 3404TIP3   OH210096   6.811   2.645   2.378
 3404TIP3    H110097   6.907   2.642   2.370
 3404TIP3    H210098   6.799   2.725   2.432
 3405TIP3   OH210099   8.670   3.099   2.428
 3405TIP3    H110100   8.674   3.004   2.445
 3405TIP3    H210101   8.589   3.124   2.479
 3406TIP3   OH210102   7.781   2.883   2.567
 3406TIP3    H110103   7.781   2.975   2.601
 3406TIP3    H210104   7.710   2.843   2.622
 3407TIP3   OH210105   7.543   3.018   1.513
 3407TIP3    H110106   7.498   2.985   1.434
 3407TIP3    H210107   7.533   3.115   1.496
 3408TIP3   OH210108   6.981   2.861   1.903
 3408TIP3    H110109   7.027   2.852   1.989
 3408TIP3    H210110   6.923   2.783   1.906
 3409TIP3   OH210111   7.744   2.913   1.157
 3409TIP3    H110112   7.805   2.844   1.123
 3409TIP3    H210113   7.775   2.921   1.250
 3410TIP3   OH210114   7.792   2.958   1.427
 3410TIP3    H110115   7.702   2.978   1.464
 3410TIP3    H210116   7.846   2.954   1.506
 3411TIP3   OH210117   8.575   2.232   2.700
 3411TIP3    H110118   8.490   2.240   2.654
 3411TIP3    H210119   8.590   2.135   2.694
 3412TIP3   OH210120   7.163   2.635   2.733
 3412TIP3    H110121   7.212   2.619   2.816
 3412TIP3    H210122   7.088   2.571   2.741
 3413TIP3   OH210123   7.562   1.459   2.518
 3413TIP3    H110124   7.473   1.427   2.491
 3413TIP3    H210125   7.536   1.540   2.564
 3414TIP3   OH210126   8.095   1.574   2.712
 3414TIP3    H110127   8.164   1.546   2.776
 3414TIP3    H210128   8.012   1.554   2.758
 3415TIP3   OH210129   8.329   2.002   2.627
 3415TIP3    H110130   8.283   1.999   2.714
 3415TIP3    H210131   8.309   2.092   2.595
 3416TIP3   OH210132   8.003   2.147   1.200
 3416TIP3    H110133   7.959   2.110   1.121
 3416TIP3    H210134   8.083   2.185   1.160
 3417TIP3   OH210135   7.732   1.508   1.499
 3417TIP3    H110136   7.699   1.517   1.590
 3417TIP3    H210137   7.675   1.435   1.467
 3418TIP3   OH210138   7.494   1.974   2.537
 3418TIP3    H110139   7.443   1.995   2.618
 3418TIP3    H210140   7.478   2.055   2.483
 3419TIP3   OH210141   7.376   1.862   2.050
 3419TIP3    H110142   7.284   1.834   2.068
 3419TIP3    H210143   7.389   1.820   1.962
 3420TIP3   OH210144   7.869   1.947   1.778
 3420TIP3    H110145   7.817   2.016   1.732
 3420TIP3    H210146   7.923   1.910   1.705
 3421TIP3   OH210147   8.043   2.225   2.864
 3421TIP3    H110148   8.021   2.152   2.926
 3421TIP3    H210149   8.136   2.239   2.885
 3422TIP3   OH210150   8.024   1.973   2.015
 3422TIP3    H110151   7.963   1.997   1.943
 3422TIP3    H210152   8.061   1.892   1.975
 3423TIP3   OH210153   7.312   2.003   2.745
 3423TIP3    H110154   7.339   2.066   2.813
 3423TIP3    H210155   7.301   1.921   2.796
 3424TIP3   OH210156   7.360   1.480   1.461
 3424TIP3    H110157   7.347   1.478   1.558
 3424TIP3    H210158   7.281   1.529   1.432
 3425TIP3   OH210159   6.905   1.526   2.326
 3425TIP3    H110160   6.982   1.556   2.378
 3425TIP3    H210161   6.943   1.492   2.244
 3426TIP3   OH210162   6.880   1.508   1.847
 3426TIP3    H110163   6.923   1.546   1.767
 3426TIP3    H210164   6.817   1.579   1.867
 3427TIP3   OH210165   8.032   2.223   2.436
 3427TIP3    H110166   8.067   2.150   2.379
 3427TIP3    H210167   8.005   2.170   2.515
 3428TIP3   OH210168   7.705   1.686   2.111
 3428TIP3    H110169   7.623   1.681   2.165
 3428TIP3    H210170   7.774   1.678   2.179
 3429TIP3   OH210171   7.139   1.738   2.119
 3429TIP3    H110172   7.045   1.746   2.092
 3429TIP3    H210173   7.161   1.646   2.097
 3430TIP3   OH210174   7.407   1.734   1.810
 3430TIP3    H110175   7.501   1.751   1.790
 3430TIP3    H210176   7.361   1.757   1.725
 3431TIP3   OH210177   8.193   1.760   2.313
 3431TIP3    H110178   8.158   1.771   2.405
 3431TIP3    H210179   8.128   1.697   2.277
 3432TIP3   OH210180   7.251   1.771   1.589
 3432TIP3    H110181   7.178   1.728   1.540
 3432TIP3    H210182   7.302   1.807   1.514
 3433TIP3   OH210183   8.366   3.447   2.533
 3433TIP3    H110184   8.367   3.470   2.438
 3433TIP3    H210185   8.447   3.493   2.564
 3434TIP3   OH210186   7.325   2.557   2.954
 3434TIP3    H110187   7.404   2.587   3.002
 3434TIP3    H210188   7.259   2.556   3.027
 3435TIP3   OH210189   7.789   2.014   2.209
 3435TIP3    H110190   7.859   1.970   2.158
 3435TIP3    H210191   7.795   1.970   2.296
 3436TIP3   OH210192   7.311   1.498   2.088
 3436TIP3    H110193   7.275   1.420   2.136
 3436TIP3    H210194   7.363   1.456   2.019
 3437TIP3   OH210195   7.764   1.909   2.497
 3437TIP3    H110196   7.675   1.944   2.513
 3437TIP3    H210197   7.822   1.969   2.549
 3438TIP3   OH210198   7.499   2.303   1.596
 3438TIP3    H110199   7.429   2.234   1.581
 3438TIP3    H210200   7.479   2.331   1.688
 3439TIP3   OH210201   8.400   2.535   2.221
 3439TIP3    H110202   8.424   2.582   2.138
 3439TIP3    H210203   8.316   2.492   2.198
 3440TIP3   OH210204   7.949   1.643   1.401
 3440TIP3    H110205   7.873   1.592   1.438
 3440TIP3    H210206   7.966   1.709   1.470
 3441TIP3   OH210207   7.899   2.617   2.589
 3441TIP3    H110208   7.926   2.593   2.678
 3441TIP3    H210209   7.861   2.706   2.601
 3442TIP3   OH210210   8.032   1.855   1.563
 3442TIP3    H110211   8.128   1.861   1.578
 3442TIP3    H210212   8.014   1.933   1.508
 3443TIP3   OH210213   7.197   2.323   2.268
 3443TIP3    H110214   7.234   2.290   2.184
 3443TIP3    H210215   7.231   2.258   2.332
 3444TIP3   OH210216   7.644   2.450   1.413
 3444TIP3    H110217   7.595   2.535   1.420
 3444TIP3    H210218   7.593   2.394   1.475
 3445TIP3   OH210219   7.075   2.240   2.882
 3445TIP3    H110220   7.094   2.226   2.977
 3445TIP3    H210221   7.005   2.174   2.867
 3446TIP3   OH210222   7.800   2.355   2.902
 3446TIP3    H110223   7.741   2.295   2.855
 3446TIP3    H210224   7.888   2.321   2.875
 3447TIP3   OH210225   8.059   2.877   2.484
 3447TIP3    H110226   7.963   2.875   2.500
 3447TIP3    H210227   8.090   2.927   2.563
 3448TIP3   OH210228   8.458   1.947   1.415
 3448TIP3    H110229   8.430   1.880   1.351
 3448TIP3    H210230   8.447   2.029   1.362
 3449TIP3   OH210231   8.688   2.795   2.469
 3449TIP3    H110232   8.590   2.796   2.464
 3449TIP3    H210233   8.709   2.763   2.379
 3450TIP3   OH210234   8.167   2.759   1.305
 3450TIP3    H110235   8.154   2.674   1.350
 3450TIP3    H210236   8.184   2.730   1.213
 3451TIP3   OH210237   8.167   2.399   2.136
 3451TIP3    H110238   8.075   2.372   2.155
 3451TIP3    H210239   8.200   2.317   2.094
 3452TIP3   OH210240   7.292   2.624   1.884
 3452TIP3    H110241   7.282   2.709   1.836
 3452TIP3    H210242   7.200   2.606   1.908
 3453TIP3   OH210243   6.858   1.928   1.598
 3453TIP3    H110244   6.903   2.012   1.619
 3453TIP3    H210245   6.781   1.932   1.659
 3454TIP3   OH210246   7.449   2.401   1.846
 3454TIP3    H110247   7.395   2.482   1.859
 3454TIP3    H210248   7.409   2.342   1.913
 3455TIP3   OH210249   7.564   2.968   2.363
 3455TIP3    H110250   7.604   3.042   2.314
 3455TIP3    H210251   7.640   2.935   2.414
 3456TIP3   OH210252   7.217   2.862   1.750
 3456TIP3    H110253   7.129   2.873   1.793
 3456TIP3    H210254   7.249   2.955   1.751
 3457TIP3   OH210255   7.952   2.601   2.321
 3457TIP3    H110256   7.940   2.602   2.419
 3457TIP3    H210257   8.035   2.551   2.314
 3458TIP3   OH210258   7.928   2.494   1.203
 3458TIP3    H110259   7.979   2.468   1.283
 3458TIP3    H210260   7.840   2.462   1.228
 3459TIP3   OH210261   8.200   3.135   2.371
 3459TIP3    H110262   8.121   3.078   2.365
 3459TIP3    H210263   8.184   3.199   2.299
 3460TIP3   OH210264   8.263   2.972   1.025
 3460TIP3    H110265   8.298   3.044   0.971
 3460TIP3    H210266   8.183   3.017   1.059
 3461TIP3   OH210267   7.285   1.747   2.891
 3461TIP3    H110268   7.188   1.750   2.904
 3461TIP3    H210269   7.312   1.687   2.962
 3462TIP3   OH210270   8.086   2.433   1.422
 3462TIP3    H110271   8.076   2.365   1.492
 3462TIP3    H210272   8.183   2.428   1.408
 3463TIP3   OH210273   7.003   2.830   2.522
 3463TIP3    H110274   7.054   2.756   2.558
 3463TIP3    H210275   7.028   2.901   2.583
 3464TIP3   OH210276   7.294   2.472   1.203
 3464TIP3    H110277   7.306   2.380   1.175
 3464TIP3    H210278   7.272   2.462   1.298
 3465TIP3   OH210279   7.238   2.481   1.474
 3465TIP3    H110280   7.305   2.453   1.537
 3465TIP3    H210281   7.241   2.579   1.483
 3466TIP3   OH210282   6.974   2.175   1.680
 3466TIP3    H110283   6.907   2.218   1.737
 3466TIP3    H210284   6.985   2.244   1.612
 3467TIP3   OH210285   8.120   1.811   2.572
 3467TIP3    H110286   8.202   1.850   2.609
 3467TIP3    H210287   8.109   1.730   2.627
 3468TIP3   OH210288   7.963   1.589   1.735
 3468TIP3    H110289   7.991   1.584   1.643
 3468TIP3    H210290   8.030   1.649   1.774
 3469TIP3   OH210291   7.514   2.687   1.443
 3469TIP3    H110292   7.422   2.709   1.470
 3469TIP3    H210293   7.524   2.751   1.370
 3470TIP3   OH210294   7.686   1.743   1.839
 3470TIP3    H110295   7.757   1.806   1.820
 3470TIP3    H210296   7.694   1.733   1.936
 3471TIP3   OH210297   7.962   2.061   2.646
 3471TIP3    H110298   7.984   2.113   2.726
 3471TIP3    H210299   8.016   1.981   2.658
 3472TIP3   OH210300   7.835   1.467   1.942
 3472TIP3    H110301   7.834   1.542   2.004
 3472TIP3    H210302   7.887   1.508   1.868
 3473TIP3   OH210303   7.251   2.753   1.494
 3473TIP3    H110304   7.220   2.821   1.430
 3473TIP3    H210305   7.233   2.798   1.579
 3474TIP3   OH210306   7.349   1.467   1.735
 3474TIP3    H110307   7.343   1.557   1.772
 3474TIP3    H210308   7.446   1.452   1.745
 3475TIP3   OH210309   8.597   1.962   2.630
 3475TIP3    H110310   8.499   1.956   2.630
 3475TIP3    H210311   8.617   1.935   2.540
 3476TIP3   OH210312   8.241   2.162   2.011
 3476TIP3    H110313   8.170   2.097   2.024
 3476TIP3    H210314   8.316   2.119   2.059
 3477TIP3   OH210315   6.964   2.382   1.486
 3477TIP3    H110316   7.027   2.456   1.492
 3477TIP3    H210317   7.011   2.328   1.419
 3478TIP3   OH210318   6.907   1.658   1.622
 3478TIP3    H110319   6.906   1.755   1.615
 3478TIP3    H210320   6.829   1.633   1.572
 3479TIP3   OH210321   8.221   3.105   1.963
 3479TIP3    H110322   8.180   3.156   1.888
 3479TIP3    H210323   8.315   3.127   1.945
 3480TIP3   OH210324   7.297   1.379   2.492
 3480TIP3    H110325   7.266   1.345   2.406
 3480TIP3    H210326   7.286   1.300   2.550
 3481TIP3   OH210327   6.836   2.597   1.873
 3481TIP3    H110328   6.766   2.627   1.932
 3481TIP3    H210329   6.808   2.638   1.788
 3482TIP3   OH210330   6.993   3.139   2.945
 3482TIP3    H110331   7.079   3.139   2.992
 3482TIP3    H210332   6.972   3.044   2.944
 3483TIP3   OH210333   7.474   3.104   2.989
 3483TIP3    H110334   7.568   3.085   2.997
 3483TIP3    H210335   7.449   3.044   2.916
 3484TIP3   OH210336   7.455   2.677   1.118
 3484TIP3    H110337   7.401   2.603   1.152
 3484TIP3    H210338   7.530   2.629   1.078
 3485TIP3   OH210339   8.116   3.007   2.720
 3485TIP3    H110340   8.105   2.939   2.790
 3485TIP3    H210341   8.192   3.059   2.752
 3486TIP3   OH210342   7.895   2.720   1.031
 3486TIP3    H110343   7.940   2.655   1.088
 3486TIP3    H210344   7.949   2.719   0.950
 3487TIP3   OH210345   7.123   2.545   3.145
 3487TIP3    H110346   7.139   2.449   3.150
 3487TIP3    H210347   7.035   2.548   3.101
 3488TIP3   OH210348   7.100   2.198   1.337
 3488TIP3    H110349   7.154   2.161   1.409
 3488TIP3    H210350   7.168   2.201   1.266
 3489TIP3   OH210351   7.731   2.630   2.918
 3489TIP3    H110352   7.689   2.646   2.831
 3489TIP3    H210353   7.762   2.538   2.911
 3490TIP3   OH210354   7.613   2.391   1.147
 3490TIP3    H110355   7.613   2.403   1.244
 3490TIP3    H210356   7.617   2.293   1.141
 3491TIP3   OH210357   8.222   2.638   2.522
 3491TIP3    H110358   8.298   2.684   2.481
 3491TIP3    H210359   8.152   2.705   2.511
 3492TIP3   OH210360   7.243   2.279   3.127
 3492TIP3    H110361   7.317   2.222   3.106
 3492TIP3    H210362   7.268   2.313   3.215
 3493TIP3   OH210363   7.314   2.100   1.563
 3493TIP3    H110364   7.281   2.055   1.643
 3493TIP3    H210365   7.348   2.025   1.510
 3494TIP3   OH210366   7.577   2.164   2.789
 3494TIP3    H110367   7.499   2.224   2.791
 3494TIP3    H210368   7.627   2.197   2.712
 3495TIP3   OH210369   7.408   1.894   1.402
 3495TIP3    H110370   7.382   1.893   1.307
 3495TIP3    H210371   7.506   1.896   1.395
 3496TIP3   OH210372   8.094   2.566   2.921
 3496TIP3    H110373   8.177   2.544   2.878
 3496TIP3    H210374   8.090   2.500   2.993
 3497TIP3   OH210375   8.225   2.219   1.046
 3497TIP3    H110376   8.193   2.179   0.963
 3497TIP3    H210377   8.197   2.312   1.030
 3498TIP3   OH210378   7.701   1.952   2.915
 3498TIP3    H110379   7.701   1.872   2.858
 3498TIP3    H210380   7.657   2.018   2.857
 3499TIP3   OH210381   7.703   1.739   2.722
 3499TIP3    H110382   7.731   1.779   2.637
 3499TIP3    H210383   7.610   1.716   2.703
 3500TIP3   OH210384   7.729   2.273   2.595
 3500TIP3    H110385   7.813   2.280   2.549
 3500TIP3    H210386   7.674   2.340   2.550
 3501TIP3   OH210387   8.313   2.241   2.976
 3501TIP3    H110388   8.362   2.158   2.987
 3501TIP3    H210389   8.383   2.301   2.946
 3502TIP3   OH210390   8.353   2.493   2.710
 3502TIP3    H110391   8.296   2.547   2.651
 3502TIP3    H210392   8.441   2.513   2.671
 3503TIP3   OH210393   7.578   2.064   3.145
 3503TIP3    H110394   7.510   1.995   3.160
 3503TIP3    H210395   7.613   2.038   3.057
 3504TIP3   OH210396   7.835   1.503   2.790
 3504TIP3    H110397   7.786   1.584   2.767
 3504TIP3    H210398   7.766   1.434   2.778
 3505TIP3   OH210399   7.961   2.007   3.006
 3505TIP3    H110400   7.950   1.995   3.101
 3505TIP3    H210401   7.871   1.982   2.975
 3506TIP3   OH210402   8.200   1.956   2.860
 3506TIP3    H110403   8.125   1.957   2.923
 3506TIP3    H210404   8.274   1.926   2.916
 3507TIP3   OH210405   8.427   1.896   3.012
 3507TIP3    H110406   8.439   1.800   3.030
 3507TIP3    H210407   8.424   1.935   3.102
 3508TIP3   OH210408   7.418   1.844   3.198
 3508TIP3    H110409   7.423   1.753   3.163
 3508TIP3    H210410   7.453   1.832   3.288
 3509TIP3   OH210411   7.929   1.510   3.047
 3509TIP3    H110412   7.997   1.440   3.040
 3509TIP3    H210413   7.889   1.506   2.958
 3510TIP3   OH210414   7.995   1.726   3.207
 3510TIP3    H110415   7.973   1.656   3.142
 3510TIP3    H210416   7.917   1.785   3.200
 3511TIP3   OH210417   7.214   2.954   1.306
 3511TIP3    H110418   7.311   2.954   1.294
 3511TIP3    H210419   7.188   3.001   1.225
 3512TIP3   OH210420   6.696   2.337   1.522
 3512TIP3    H110421   6.791   2.358   1.508
 3512TIP3    H210422   6.689   2.248   1.481
 3513TIP3   OH210423   6.611   2.950   1.935
 3513TIP3    H110424   6.544   2.888   1.899
 3513TIP3    H210425   6.655   2.892   2.001
 3514TIP3   OH210426   6.747   2.800   2.122
 3514TIP3    H110427   6.734   2.728   2.185
 3514TIP3    H210428   6.798   2.862   2.178
 3515TIP3   OH210429   8.473   3.202   1.924
 3515TIP3    H110430   8.504   3.232   2.011
 3515TIP3    H210431   8.538   3.240   1.863
 3516TIP3   OH210432   8.503   3.222   2.206
 3516TIP3    H110433   8.462   3.134   2.202
 3516TIP3    H210434   8.580   3.202   2.262
 3517TIP3   OH210435   8.548   2.899   2.775
 3517TIP3    H110436   8.476   2.907   2.841
 3517TIP3    H210437   8.590   2.987   2.781
 3518TIP3   OH210438   8.358   2.418   1.397
 3518TIP3    H110439   8.427   2.482   1.369
 3518TIP3    H210440   8.402   2.376   1.474
 3519TIP3   OH210441   8.475   2.280   1.598
 3519TIP3    H110442   8.412   2.232   1.656
 3519TIP3    H210443   8.540   2.316   1.662
 3520TIP3   OH210444   8.541   2.664   2.023
 3520TIP3    H110445   8.596   2.610   1.964
 3520TIP3    H210446   8.539   2.749   1.975
 3521TIP3   OH210447   8.378   2.970   2.226
 3521TIP3    H110448   8.309   3.014   2.280
 3521TIP3    H210449   8.325   2.924   2.158
 3522TIP3   OH210450   8.397   2.177   1.262
 3522TIP3    H110451   8.338   2.186   1.185
 3522TIP3    H210452   8.371   2.255   1.315
 3523TIP3   OH210453   8.268   1.841   1.212
 3523TIP3    H110454   8.307   1.901   1.147
 3523TIP3    H210455   8.315   1.758   1.195
 3524TIP3   OH210456   8.305   2.131   1.747
 3524TIP3    H110457   8.317   2.034   1.741
 3524TIP3    H210458   8.290   2.144   1.843
 3525TIP3   OH210459   6.933   2.208   2.495
 3525TIP3    H110460   6.931   2.177   2.402
 3525TIP3    H210461   7.031   2.209   2.511
 3526TIP3   OH210462   8.597   2.558   2.602
 3526TIP3    H110463   8.672   2.495   2.595
 3526TIP3    H210464   8.627   2.631   2.545
 3527TIP3   OH210465   8.793   2.373   2.624
 3527TIP3    H110466   8.715   2.325   2.658
 3527TIP3    H210467   8.859   2.300   2.633
 3528TIP3   OH210468   8.307   1.846   1.639
 3528TIP3    H110469   8.352   1.760   1.656
 3528TIP3    H210470   8.367   1.883   1.570
 3529TIP3   OH210471   8.455   2.048   2.127
 3529TIP3    H110472   8.538   2.076   2.085
 3529TIP3    H210473   8.479   2.052   2.221
 3530TIP3   OH210474   8.535   2.170   2.376
 3530TIP3    H110475   8.454   2.203   2.420
 3530TIP3    H210476   8.564   2.249   2.327
 3531TIP3   OH210477   7.151   1.895   3.169
 3531TIP3    H110478   7.249   1.889   3.171
 3531TIP3    H210479   7.127   1.810   3.210
 3532TIP3   OH210480   8.417   1.599   1.692
 3532TIP3    H110481   8.456   1.592   1.781
 3532TIP3    H210482   8.352   1.526   1.698
 3533TIP3   OH210483   7.112   1.587   2.500
 3533TIP3    H110484   7.174   1.512   2.509
 3533TIP3    H210485   7.175   1.661   2.493
 3534TIP3   OH210486   6.915   1.861   2.572
 3534TIP3    H110487   6.964   1.854   2.488
 3534TIP3    H210488   6.944   1.947   2.605
 3535TIP3   OH210489   8.843   1.888   2.749
 3535TIP3    H110490   8.766   1.942   2.773
 3535TIP3    H210491   8.803   1.830   2.681
 3536TIP3   OH210492   6.899   1.368   2.077
 3536TIP3    H110493   6.804   1.361   2.099
 3536TIP3    H210494   6.897   1.424   1.996
 3537TIP3   OH210495   8.054   3.052   1.585
 3537TIP3    H110496   8.107   3.049   1.503
 3537TIP3    H210497   8.094   3.130   1.630
 3538TIP3   OH210498   7.119   1.446   2.888
 3538TIP3    H110499   7.068   1.439   2.970
 3538TIP3    H210500   7.053   1.483   2.827
 3539TIP3   OH210501   7.159   2.871   2.964
 3539TIP3    H110502   7.066   2.845   2.948
 3539TIP3    H210503   7.168   2.854   3.059
 3540TIP3   OH210504   7.337   2.903   2.511
 3540TIP3    H110505   7.288   2.978   2.473
 3540TIP3    H210506   7.423   2.918   2.467
 3541TIP3   OH210507   7.782   3.149   2.649
 3541TIP3    H110508   7.823   3.149   2.738
 3541TIP3    H210509   7.849   3.200   2.598
 3542TIP3   OH210510   7.963   3.300   2.508
 3542TIP3    H110511   8.037   3.249   2.471
 3542TIP3    H210512   8.011   3.358   2.570
 3543TIP3   OH210513   8.744   1.663   2.615
 3543TIP3    H110514   8.660   1.666   2.566
 3543TIP3    H210515   8.782   1.579   2.583
 3544TIP3   OH210516   7.013   3.161   2.536
 3544TIP3    H110517   6.924   3.194   2.512
 3544TIP3    H210518   7.023   3.199   2.624
 3545TIP3   OH210519   7.250   3.139   2.393
 3545TIP3    H110520   7.163   3.152   2.438
 3545TIP3    H210521   7.230   3.173   2.304
 3546TIP3   OH210522   7.678   3.170   2.185
 3546TIP3    H110523   7.604   3.190   2.124
 3546TIP3    H210524   7.689   3.256   2.230
 3547TIP3   OH210525   7.944   3.105   2.235
 3547TIP3    H110526   7.850   3.125   2.222
 3547TIP3    H210527   7.987   3.186   2.202
 3548TIP3   OH210528   8.152   3.302   2.157
 3548TIP3    H110529   8.136   3.386   2.110
 3548TIP3    H210530   8.177   3.242   2.083
 3549TIP3   OH210531   6.925   2.955   2.280
 3549TIP3    H110532   6.951   2.929   2.371
 3549TIP3    H210533   6.996   2.911   2.230
 3550TIP3   OH210534   7.118   2.826   2.137
 3550TIP3    H110535   7.133   2.743   2.187
 3550TIP3    H210536   7.209   2.863   2.133
 3551TIP3   OH210537   7.385   2.918   2.141
 3551TIP3    H110538   7.414   2.824   2.137
 3551TIP3    H210539   7.428   2.944   2.225
 3552TIP3   OH210540   7.958   1.576   2.225
 3552TIP3    H110541   7.917   1.506   2.279
 3552TIP3    H210542   8.031   1.529   2.182
 3553TIP3   OH210543   8.480   1.449   2.144
 3553TIP3    H110544   8.519   1.501   2.071
 3553TIP3    H210545   8.385   1.472   2.136
 3554TIP3   OH210546   8.584   1.553   1.913
 3554TIP3    H110547   8.659   1.522   1.859
 3554TIP3    H210548   8.597   1.650   1.906
 3555TIP3   OH210549   7.208   1.288   2.244
 3555TIP3    H110550   7.116   1.254   2.246
 3555TIP3    H210551   7.257   1.202   2.242
 3556TIP3   OH210552   6.996   1.154   1.887
 3556TIP3    H110553   7.025   1.214   1.816
 3556TIP3    H210554   6.967   1.217   1.956
 3557TIP3   OH210555   7.650   1.324   2.121
 3557TIP3    H110556   7.713   1.371   2.065
 3557TIP3    H210557   7.674   1.354   2.210
 3558TIP3   OH210558   8.201   1.468   2.100
 3558TIP3    H110559   8.191   1.439   2.008
 3558TIP3    H210560   8.184   1.385   2.152
 3559TIP3   OH210561   8.216   1.424   1.779
 3559TIP3    H110562   8.180   1.426   1.689
 3559TIP3    H210563   8.212   1.328   1.796
 3560TIP3   OH210564   6.713   2.727   1.671
 3560TIP3    H110565   6.628   2.694   1.638
 3560TIP3    H210566   6.702   2.822   1.652
 3561TIP3   OH210567   7.113   1.317   1.662
 3561TIP3    H110568   7.157   1.260   1.596
 3561TIP3    H210569   7.187   1.369   1.698
 3562TIP3   OH210570   7.629   1.486   1.759
 3562TIP3    H110571   7.692   1.452   1.826
 3562TIP3    H210572   7.643   1.582   1.777
 3563TIP3   OH210573   7.484   2.908   1.259
 3563TIP3    H110574   7.566   2.944   1.219
 3563TIP3    H210575   7.464   2.836   1.194
 3564TIP3   OH210576   8.199   3.030   1.350
 3564TIP3    H110577   8.190   2.934   1.334
 3564TIP3    H210578   8.156   3.067   1.269
 3565TIP3   OH210579   7.416   1.568   3.136
 3565TIP3    H110580   7.381   1.497   3.192
 3565TIP3    H210581   7.511   1.568   3.163
 3566TIP3   OH210582   7.665   1.565   3.255
 3566TIP3    H110583   7.750   1.540   3.214
 3566TIP3    H210584   7.653   1.493   3.321
 3567TIP3   OH210585   6.789   2.753   1.310
 3567TIP3    H110586   6.787   2.778   1.404
 3567TIP3    H210587   6.877   2.712   1.300
 3568TIP3   OH210588   8.488   1.625   3.043
 3568TIP3    H110589   8.511   1.595   3.134
 3568TIP3    H210590   8.576   1.624   3.000
 3569TIP3   OH210591   8.427   3.178   2.536
 3569TIP3    H110592   8.348   3.148   2.487
 3569TIP3    H210593   8.409   3.274   2.540
 3570TIP3   OH210594   8.652   2.063   1.574
 3570TIP3    H110595   8.584   2.132   1.574
 3570TIP3    H210596   8.606   1.994   1.522
 3571TIP3   OH210597   8.706   2.348   1.730
 3571TIP3    H110598   8.738   2.265   1.768
 3571TIP3    H210599   8.749   2.346   1.643
 3572TIP3   OH210600   8.560   2.586   1.312
 3572TIP3    H110601   8.546   2.599   1.218
 3572TIP3    H210602   8.595   2.673   1.338
 3573TIP3   OH210603   8.747   2.693   2.222
 3573TIP3    H110604   8.678   2.660   2.161
 3573TIP3    H210605   8.786   2.611   2.258
 3574TIP3   OH210606   8.612   2.901   1.870
 3574TIP3    H110607   8.709   2.904   1.861
 3574TIP3    H210608   8.597   2.982   1.921
 3575TIP3   OH210609   8.741   3.123   1.415
 3575TIP3    H110610   8.804   3.118   1.489
 3575TIP3    H210611   8.699   3.035   1.418
 3576TIP3   OH210612   8.894   2.918   2.241
 3576TIP3    H110613   8.930   2.895   2.328
 3576TIP3    H210614   8.830   2.845   2.228
 3577TIP3   OH210615   8.661   1.806   1.852
 3577TIP3    H110616   8.725   1.846   1.912
 3577TIP3    H210617   8.700   1.824   1.765
 3578TIP3   OH210618   8.852   2.490   2.372
 3578TIP3    H110619   8.875   2.462   2.462
 3578TIP3    H210620   8.785   2.424   2.347
 3579TIP3   OH210621   8.614   2.263   1.115
 3579TIP3    H110622   8.661   2.330   1.165
 3579TIP3    H210623   8.550   2.229   1.180
 3580TIP3   OH210624   8.789   3.092   2.017
 3580TIP3    H110625   8.833   3.022   2.069
 3580TIP3    H210626   8.822   3.171   2.062
 3581TIP3   OH210627   8.628   2.851   1.363
 3581TIP3    H110628   8.551   2.882   1.411
 3581TIP3    H210629   8.613   2.894   1.276
 3582TIP3   OH210630   8.784   3.391   2.433
 3582TIP3    H110631   8.875   3.385   2.469
 3582TIP3    H210632   8.762   3.296   2.429
 3583TIP3   OH210633   8.917   2.829   2.619
 3583TIP3    H110634   8.947   2.747   2.660
 3583TIP3    H210635   8.833   2.803   2.574
 3584TIP3   OH210636   8.490   2.597   0.996
 3584TIP3    H110637   8.586   2.586   1.008
 3584TIP3    H210638   8.468   2.508   0.959
 3585TIP3   OH210639   8.407   3.205   1.421
 3585TIP3    H110640   8.339   3.143   1.387
 3585TIP3    H210641   8.451   3.148   1.488
 3586TIP3   OH210642   8.534   3.054   1.616
 3586TIP3    H110643   8.530   2.983   1.681
 3586TIP3    H210644   8.592   3.118   1.662
 3587TIP3   OH210645   8.752   2.466   1.978
 3587TIP3    H110646   8.731   2.430   1.890
 3587TIP3    H210647   8.837   2.511   1.961
 3588TIP3   OH210648   8.931   2.140   2.634
 3588TIP3    H110649   9.022   2.175   2.646
 3588TIP3    H210650   8.930   2.065   2.696
 3589TIP3   OH210651   8.707   2.136   2.024
 3589TIP3    H110652   8.766   2.060   2.038
 3589TIP3    H210653   8.748   2.207   2.074
 3590TIP3   OH210654   8.949   3.136   2.471
 3590TIP3    H110655   8.866   3.101   2.435
 3590TIP3    H210656   8.954   3.095   2.558
 3591TIP3   OH210657   8.796   3.410   2.026
 3591TIP3    H110658   8.711   3.455   2.004
 3591TIP3    H210659   8.822   3.461   2.104
 3592TIP3   OH210660   9.047   3.392   1.891
 3592TIP3    H110661   8.955   3.400   1.922
 3592TIP3    H210662   9.041   3.426   1.800
 3593TIP3   OH210663   8.722   3.208   1.765
 3593TIP3    H110664   8.750   3.188   1.857
 3593TIP3    H210665   8.800   3.174   1.716
 3594TIP3   OH210666   8.931   3.100   1.611
 3594TIP3    H110667   8.957   3.006   1.616
 3594TIP3    H210668   9.019   3.143   1.622
 3595TIP3   OH210669   8.507   2.981   1.159
 3595TIP3    H110670   8.420   2.955   1.123
 3595TIP3    H210671   8.502   3.077   1.146
 3596TIP3   OH210672   8.598   3.013   0.809
 3596TIP3    H110673   8.571   3.048   0.896
 3596TIP3    H210674   8.667   2.950   0.834
 3597TIP3   OH210675   0.374   3.103   3.529
 3597TIP3    H110676   0.341   3.190   3.500
 3597TIP3    H210677   0.304   3.047   3.491
 3598TIP3   OH210678   0.346   3.084   3.889
 3598TIP3    H110679   0.382   3.054   3.974
 3598TIP3    H210680   0.315   3.001   3.849
 3599TIP3   OH210681  -0.355   2.981   4.252
 3599TIP3    H110682  -0.328   2.908   4.311
 3599TIP3    H210683  -0.275   3.035   4.253
 3600TIP3   OH210684   0.594   3.384   3.565
 3600TIP3    H110685   0.579   3.313   3.629
 3600TIP3    H210686   0.624   3.457   3.622
 3601TIP3   OH210687  -0.372   3.384   3.969
 3601TIP3    H110688  -0.385   3.288   3.977
 3601TIP3    H210689  -0.274   3.390   3.968
 3602TIP3   OH210690   0.238   3.839   3.583
 3602TIP3    H110691   0.287   3.771   3.531
 3602TIP3    H210692   0.245   3.804   3.673
 3603TIP3   OH210693   0.151   3.307   3.932
 3603TIP3    H110694   0.192   3.229   3.891
 3603TIP3    H210695   0.233   3.354   3.956
 3604TIP3   OH210696   1.166   2.627   3.928
 3604TIP3    H110697   1.192   2.712   3.969
 3604TIP3    H210698   1.200   2.640   3.837
 3605TIP3   OH210699   0.565   2.811   3.968
 3605TIP3    H110700   0.605   2.724   3.986
 3605TIP3    H210701   0.529   2.797   3.878
 3606TIP3   OH210702  -0.111   2.483   3.903
 3606TIP3    H110703  -0.124   2.535   3.822
 3606TIP3    H210704  -0.077   2.400   3.862
 3607TIP3   OH210705   0.598   2.575   3.577
 3607TIP3    H110706   0.677   2.558   3.634
 3607TIP3    H210707   0.641   2.615   3.499
 3608TIP3   OH210708  -0.470   2.655   4.038
 3608TIP3    H110709  -0.391   2.635   4.094
 3608TIP3    H210710  -0.428   2.670   3.953
 3609TIP3   OH210711  -0.019   2.869   3.828
 3609TIP3    H110712   0.077   2.858   3.846
 3609TIP3    H210713  -0.043   2.778   3.806
 3610TIP3   OH210714   1.239   2.836   4.099
 3610TIP3    H110715   1.155   2.882   4.077
 3610TIP3    H210716   1.246   2.858   4.193
 3611TIP3   OH210717  -0.113   2.445   4.360
 3611TIP3    H110718  -0.172   2.487   4.294
 3611TIP3    H210719  -0.156   2.472   4.444
 3612TIP3   OH210720   0.250   3.306   3.383
 3612TIP3    H110721   0.213   3.287   3.295
 3612TIP3    H210722   0.204   3.389   3.405
 3613TIP3   OH210723   0.004   3.225   4.158
 3613TIP3    H110724  -0.057   3.292   4.197
 3613TIP3    H210725   0.048   3.277   4.087
 3614TIP3   OH210726   0.820   2.564   3.729
 3614TIP3    H110727   0.804   2.514   3.810
 3614TIP3    H210728   0.862   2.645   3.762
 3615TIP3   OH210729  -0.224   2.580   4.140
 3615TIP3    H110730  -0.167   2.651   4.176
 3615TIP3    H210731  -0.168   2.547   4.068
 3616TIP3   OH210732  -0.166   3.419   4.253
 3616TIP3    H110733  -0.189   3.507   4.218
 3616TIP3    H210734  -0.244   3.405   4.312
 3617TIP3   OH210735   0.665   3.627   3.735
 3617TIP3    H110736   0.574   3.619   3.773
 3617TIP3    H210737   0.657   3.713   3.688
 3618TIP3   OH210738   0.955   2.537   4.097
 3618TIP3    H110739   0.867   2.560   4.063
 3618TIP3    H210740   1.014   2.564   4.024
 3619TIP3   OH210741   0.249   2.194   4.056
 3619TIP3    H110742   0.271   2.108   4.094
 3619TIP3    H210743   0.175   2.219   4.114
 3620TIP3   OH210744   0.365   3.672   3.407
 3620TIP3    H110745   0.415   3.590   3.386
 3620TIP3    H210746   0.427   3.738   3.367
 3621TIP3   OH210747   0.507   3.458   3.314
 3621TIP3    H110748   0.478   3.377   3.271
 3621TIP3    H210749   0.544   3.423   3.399
 3622TIP3   OH210750   0.892   3.539   4.078
 3622TIP3    H110751   0.880   3.462   4.018
 3622TIP3    H210752   0.874   3.614   4.017
 3623TIP3   OH210753   0.213   2.969   3.360
 3623TIP3    H110754   0.125   3.008   3.338
 3623TIP3    H210755   0.264   2.990   3.279
 3624TIP3   OH210756   1.087   3.179   3.925
 3624TIP3    H110757   1.003   3.230   3.928
 3624TIP3    H210758   1.116   3.200   3.833
 3625TIP3   OH210759   0.536   3.029   3.315
 3625TIP3    H110760   0.488   3.055   3.397
 3625TIP3    H210761   0.619   2.993   3.354
 3626TIP3   OH210762   0.765   3.056   4.217
 3626TIP3    H110763   0.761   3.140   4.266
 3626TIP3    H210764   0.678   3.058   4.171
 3627TIP3   OH210765  -0.224   3.022   3.729
 3627TIP3    H110766  -0.278   2.947   3.695
 3627TIP3    H210767  -0.145   2.974   3.761
 3628TIP3   OH210768  -0.103   3.425   3.869
 3628TIP3    H110769  -0.122   3.381   3.786
 3628TIP3    H210770  -0.014   3.391   3.890
 3629TIP3   OH210771  -0.105   2.989   4.073
 3629TIP3    H110772  -0.063   2.967   3.987
 3629TIP3    H210773  -0.060   3.072   4.098
 3630TIP3   OH210774   0.421   3.623   3.853
 3630TIP3    H110775   0.412   3.703   3.908
 3630TIP3    H210776   0.409   3.550   3.917
 3631TIP3   OH210777   0.037   3.541   4.402
 3631TIP3    H110778  -0.022   3.605   4.447
 3631TIP3    H210779  -0.028   3.489   4.351
 3632TIP3   OH210780   0.372   2.892   3.141
 3632TIP3    H110781   0.444   2.937   3.188
 3632TIP3    H210782   0.404   2.896   3.048
 3633TIP3   OH210783  -0.197   3.103   4.495
 3633TIP3    H110784  -0.196   3.192   4.535
 3633TIP3    H210785  -0.291   3.078   4.511
 3634TIP3   OH210786   0.109   3.560   3.401
 3634TIP3    H110787   0.193   3.605   3.420
 3634TIP3    H210788   0.051   3.633   3.375
 3635TIP3   OH210789  -0.164   3.710   4.488
 3635TIP3    H110790  -0.202   3.707   4.398
 3635TIP3    H210791  -0.237   3.672   4.543
 3636TIP3   OH210792   0.687   3.488   2.729
 3636TIP3    H110793   0.696   3.585   2.715
 3636TIP3    H210794   0.780   3.459   2.715
 3637TIP3   OH210795  -0.587   3.256   4.431
 3637TIP3    H110796  -0.644   3.216   4.363
 3637TIP3    H210797  -0.553   3.177   4.475
 3638TIP3   OH210798   1.130   3.885   4.124
 3638TIP3    H110799   1.127   3.788   4.137
 3638TIP3    H210800   1.046   3.911   4.169
 3639TIP3   OH210801   0.233   3.671   4.257
 3639TIP3    H110802   0.233   3.764   4.290
 3639TIP3    H210803   0.163   3.631   4.313
 3640TIP3   OH210804  -0.010   3.795   3.216
 3640TIP3    H110805  -0.042   3.789   3.124
 3640TIP3    H210806  -0.032   3.887   3.239
 3641TIP3   OH210807  -0.542   3.636   3.572
 3641TIP3    H110808  -0.502   3.622   3.660
 3641TIP3    H210809  -0.600   3.557   3.562
 3642TIP3   OH210810   0.198   3.695   2.853
 3642TIP3    H110811   0.261   3.631   2.813
 3642TIP3    H210812   0.239   3.710   2.941
 3643TIP3   OH210813   0.244   3.747   3.123
 3643TIP3    H110814   0.160   3.756   3.173
 3643TIP3    H210815   0.303   3.711   3.191
 3644TIP3   OH210816   1.018   3.015   4.398
 3644TIP3    H110817   0.937   3.028   4.345
 3644TIP3    H210818   1.034   2.920   4.385
 3645TIP3   OH210819  -0.377   3.429   4.420
 3645TIP3    H110820  -0.335   3.425   4.508
 3645TIP3    H210821  -0.450   3.363   4.430
 3646TIP3   OH210822   0.014   2.254   4.210
 3646TIP3    H110823  -0.065   2.216   4.170
 3646TIP3    H210824  -0.023   2.324   4.266
 3647TIP3   OH210825   0.791   2.793   4.322
 3647TIP3    H110826   0.738   2.789   4.404
 3647TIP3    H210827   0.764   2.878   4.283
 3648TIP3   OH210828   0.458   2.926   2.885
 3648TIP3    H110829   0.392   2.915   2.816
 3648TIP3    H210830   0.525   2.982   2.842
 3649TIP3   OH210831  -0.051   2.770   4.226
 3649TIP3    H110832  -0.099   2.789   4.309
 3649TIP3    H210833  -0.069   2.851   4.174
 3650TIP3   OH210834   0.312   2.746   3.482
 3650TIP3    H110835   0.271   2.824   3.438
 3650TIP3    H210836   0.379   2.721   3.414
 3651TIP3   OH210837   0.495   3.013   4.556
 3651TIP3    H110838   0.473   2.939   4.617
 3651TIP3    H210839   0.590   3.025   4.575
 3652TIP3   OH210840   0.471   2.773   3.714
 3652TIP3    H110841   0.410   2.799   3.642
 3652TIP3    H210842   0.508   2.692   3.673
 3653TIP3   OH210843  -0.234   2.793   4.433
 3653TIP3    H110844  -0.211   2.857   4.501
 3653TIP3    H210845  -0.241   2.710   4.483
 3654TIP3   OH210846   0.487   3.009   4.130
 3654TIP3    H110847   0.522   2.938   4.072
 3654TIP3    H210848   0.458   2.956   4.207
 3655TIP3   OH210849   0.177   2.491   3.814
 3655TIP3    H110850   0.114   2.508   3.885
 3655TIP3    H210851   0.258   2.468   3.864
 3656TIP3   OH210852   0.648   2.548   4.005
 3656TIP3    H110853   0.611   2.558   4.096
 3656TIP3    H210854   0.586   2.483   3.968
 3657TIP3   OH210855   0.819   4.234   4.222
 3657TIP3    H110856   0.816   4.259   4.128
 3657TIP3    H210857   0.895   4.286   4.254
 3658TIP3   OH210858  -0.216   3.340   4.643
 3658TIP3    H110859  -0.136   3.374   4.689
 3658TIP3    H210860  -0.283   3.354   4.712
 3659TIP3   OH210861   0.235   2.803   3.899
 3659TIP3    H110862   0.306   2.758   3.852
 3659TIP3    H210863   0.241   2.763   3.989
 3660TIP3   OH210864   0.220   2.710   4.166
 3660TIP3    H110865   0.131   2.727   4.201
 3660TIP3    H210866   0.277   2.754   4.232
 3661TIP3   OH210867  -0.030   3.076   3.311
 3661TIP3    H110868  -0.112   3.033   3.285
 3661TIP3    H210869  -0.056   3.121   3.395
 3662TIP3   OH210870   0.853   3.323   3.913
 3662TIP3    H110871   0.877   3.372   3.832
 3662TIP3    H210872   0.768   3.280   3.887
 3663TIP3   OH210873   0.351   3.403   4.281
 3663TIP3    H110874   0.378   3.384   4.371
 3663TIP3    H210875   0.315   3.494   4.288
 3664TIP3   OH210876   0.496   2.674   3.298
 3664TIP3    H110877   0.593   2.670   3.290
 3664TIP3    H210878   0.468   2.701   3.209
 3665TIP3   OH210879  -0.359   3.103   3.958
 3665TIP3    H110880  -0.312   3.081   3.875
 3665TIP3    H210881  -0.311   3.049   4.023
 3666TIP3   OH210882   0.105   3.254   3.153
 3666TIP3    H110883   0.046   3.330   3.132
 3666TIP3    H210884   0.045   3.195   3.203
 3667TIP3   OH210885  -0.448   3.032   4.576
 3667TIP3    H110886  -0.437   3.021   4.672
 3667TIP3    H210887  -0.539   2.998   4.560
 3668TIP3   OH210888   0.252   3.142   4.595
 3668TIP3    H110889   0.192   3.085   4.543
 3668TIP3    H210890   0.339   3.108   4.566
 3669TIP3   OH210891   0.513   3.662   4.177
 3669TIP3    H110892   0.416   3.663   4.189
 3669TIP3    H210893   0.541   3.715   4.254
 3670TIP3   OH210894   0.919   2.734   3.085
 3670TIP3    H110895   0.862   2.696   3.015
 3670TIP3    H210896   0.919   2.826   3.054
 3671TIP3   OH210897   1.142   3.594   4.166
 3671TIP3    H110898   1.044   3.589   4.158
 3671TIP3    H210899   1.168   3.564   4.076
 3672TIP3   OH210900   0.623   3.555   2.994
 3672TIP3    H110901   0.597   3.483   3.053
 3672TIP3    H210902   0.635   3.511   2.908
 3673TIP3   OH210903   0.620   3.184   3.833
 3673TIP3    H110904   0.526   3.160   3.843
 3673TIP3    H210905   0.653   3.105   3.786
 3674TIP3   OH210906  -0.255   3.415   3.573
 3674TIP3    H110907  -0.253   3.502   3.529
 3674TIP3    H210908  -0.348   3.404   3.593
 3675TIP3   OH210909  -0.116   3.185   3.536
 3675TIP3    H110910  -0.152   3.275   3.553
 3675TIP3    H210911  -0.156   3.134   3.610
 3676TIP3   OH210912   0.017   3.758   4.051
 3676TIP3    H110913   0.060   3.829   4.001
 3676TIP3    H210914   0.092   3.721   4.101
 3677TIP3   OH210915  -0.311   3.658   3.432
 3677TIP3    H110916  -0.401   3.662   3.472
 3677TIP3    H210917  -0.285   3.752   3.437
 3678TIP3   OH210918   0.404   3.391   4.012
 3678TIP3    H110919   0.395   3.387   4.110
 3678TIP3    H210920   0.483   3.337   3.998
 3679TIP3   OH210921   0.375   3.281   2.888
 3679TIP3    H110922   0.419   3.260   2.973
 3679TIP3    H210923   0.291   3.231   2.896
 3680TIP3   OH210924   0.653   3.924   4.062
 3680TIP3    H110925   0.573   3.868   4.054
 3680TIP3    H210926   0.638   3.989   3.990
 3681TIP3   OH210927   0.718   3.760   2.716
 3681TIP3    H110928   0.757   3.832   2.663
 3681TIP3    H210929   0.637   3.806   2.747
 3682TIP3   OH210930  -0.252   2.535   4.588
 3682TIP3    H110931  -0.346   2.538   4.611
 3682TIP3    H210932  -0.219   2.469   4.651
 3683TIP3   OH210933   0.538   3.220   3.113
 3683TIP3    H110934   0.528   3.154   3.185
 3683TIP3    H210935   0.635   3.216   3.099
 3684TIP3   OH210936  -0.514   3.640   4.204
 3684TIP3    H110937  -0.481   3.550   4.214
 3684TIP3    H210938  -0.508   3.673   4.294
 3685TIP3   OH210939  -0.313   3.298   3.238
 3685TIP3    H110940  -0.284   3.304   3.330
 3685TIP3    H210941  -0.323   3.392   3.215
 3686TIP3   OH210942   0.569   2.593   4.269
 3686TIP3    H110943   0.653   2.620   4.309
 3686TIP3    H210944   0.546   2.513   4.318
 3687TIP3   OH210945   0.541   2.379   3.400
 3687TIP3    H110946   0.449   2.399   3.378
 3687TIP3    H210947   0.558   2.445   3.470
 3688TIP3   OH210948  -0.057   3.466   3.077
 3688TIP3    H110949  -0.138   3.489   3.127
 3688TIP3    H210950  -0.010   3.551   3.079
 3689TIP3   OH210951   0.223   2.491   3.524
 3689TIP3    H110952   0.251   2.582   3.501
 3689TIP3    H210953   0.189   2.506   3.614
 3690TIP3   OH210954   0.415   2.847   4.337
 3690TIP3    H110955   0.437   2.898   4.417
 3690TIP3    H210956   0.469   2.767   4.347
 3691TIP3   OH210957   0.343   2.262   3.649
 3691TIP3    H110958   0.325   2.297   3.737
 3691TIP3    H210959   0.370   2.342   3.603
 3692TIP3   OH210960  -0.296   3.562   3.177
 3692TIP3    H110961  -0.314   3.638   3.118
 3692TIP3    H210962  -0.301   3.604   3.265
 3693TIP3   OH210963   1.057   2.748   4.316
 3693TIP3    H110964   0.959   2.749   4.325
 3693TIP3    H210965   1.063   2.700   4.232
 3694TIP3   OH210966   0.706   2.944   3.706
 3694TIP3    H110967   0.628   2.887   3.720
 3694TIP3    H210968   0.776   2.896   3.754
 3695TIP3   OH210969   0.673   3.898   3.655
 3695TIP3    H110970   0.630   3.944   3.580
 3695TIP3    H210971   0.767   3.916   3.634
 3696TIP3   OH210972   4.948   9.075   9.198
 3696TIP3    H110973   4.852   9.083   9.187
 3696TIP3    H210974   4.973   9.026   9.119
 3697TIP3   OH210975  -0.081   3.901   4.677
 3697TIP3    H110976   0.013   3.882   4.690
 3697TIP3    H210977  -0.102   3.836   4.606
 3698TIP3   OH210978   0.566   3.797   4.411
 3698TIP3    H110979   0.557   3.728   4.481
 3698TIP3    H210980   0.642   3.849   4.443
 3699TIP3   OH210981   0.354   3.515   2.724
 3699TIP3    H110982   0.371   3.438   2.780
 3699TIP3    H210983   0.426   3.511   2.659
 3700TIP3   OH210984  -0.407   3.315   4.844
 3700TIP3    H110985  -0.373   3.223   4.839
 3700TIP3    H210986  -0.502   3.297   4.826
 3701TIP3   OH210987   0.183   3.417   4.608
 3701TIP3    H110988   0.143   3.435   4.521
 3701TIP3    H210989   0.214   3.324   4.599
 3702TIP3   OH210990   0.676   3.427   4.216
 3702TIP3    H110991   0.751   3.471   4.171
 3702TIP3    H210992   0.606   3.493   4.201
 3703TIP3   OH210993  -0.316   3.045   4.834
 3703TIP3    H110994  -0.234   3.015   4.794
 3703TIP3    H210995  -0.285   3.084   4.919
 3704TIP3   OH210996   0.032   2.953   4.481
 3704TIP3    H110997  -0.045   3.014   4.478
 3704TIP3    H210998   0.083   2.984   4.402
 3705TIP3   OH210999   0.546   3.354   4.612
 3705TIP3    H111000   0.625   3.330   4.563
 3705TIP3    H211001   0.544   3.286   4.682
 3706TIP3   OH211002   0.685   3.010   2.722
 3706TIP3    H111003   0.674   3.005   2.626
 3706TIP3    H211004   0.654   3.103   2.734
 3707TIP3   OH211005   0.151   2.746   4.612
 3707TIP3    H111006   0.151   2.667   4.553
 3707TIP3    H211007   0.109   2.812   4.552
 3708TIP3   OH211008   0.141   2.554   4.420
 3708TIP3    H111009   0.194   2.542   4.340
 3708TIP3    H211010   0.062   2.501   4.400
 3709TIP3   OH211011   0.183   3.063   4.288
 3709TIP3    H111012   0.266   3.067   4.239
 3709TIP3    H211013   0.128   3.130   4.241
 3710TIP3   OH211014   0.767   3.029   4.668
 3710TIP3    H111015   0.813   2.944   4.667
 3710TIP3    H211016   0.834   3.089   4.632
 3711TIP3   OH211017   0.805   3.283   4.404
 3711TIP3    H111018   0.748   3.336   4.344
 3711TIP3    H211019   0.893   3.303   4.363
 3712TIP3   OH211020   0.029   2.853   4.838
 3712TIP3    H111021  -0.037   2.782   4.848
 3712TIP3    H211022   0.065   2.832   4.749
 3713TIP3   OH211023   0.413   2.793   4.695
 3713TIP3    H111024   0.396   2.783   4.790
 3713TIP3    H211025   0.324   2.769   4.661
 3714TIP3   OH211026   0.654   2.748   4.551
 3714TIP3    H111027   0.578   2.745   4.612
 3714TIP3    H211028   0.727   2.715   4.607
 3715TIP3   OH211029   0.885   2.690   4.702
 3715TIP3    H111030   0.898   2.594   4.717
 3715TIP3    H211031   0.881   2.725   4.793
 3716TIP3   OH211032  -0.134   2.637   4.890
 3716TIP3    H111033  -0.126   2.548   4.851
 3716TIP3    H211034  -0.095   2.621   4.979
 3717TIP3   OH211035   0.381   2.296   4.714
 3717TIP3    H111036   0.450   2.228   4.722
 3717TIP3    H211037   0.366   2.288   4.618
 3718TIP3   OH211038   0.440   2.503   4.897
 3718TIP3    H111039   0.425   2.439   4.824
 3718TIP3    H211040   0.368   2.567   4.884
 3719TIP3   OH211041  -0.325   3.771   2.990
 3719TIP3    H111042  -0.228   3.768   2.977
 3719TIP3    H211043  -0.352   3.804   2.902
 3720TIP3   OH211044   0.927   3.986   3.613
 3720TIP3    H111045   0.953   4.023   3.699
 3720TIP3    H211046   0.983   4.035   3.551
 3721TIP3   OH211047   0.954   4.010   3.895
 3721TIP3    H111048   0.912   3.922   3.889
 3721TIP3    H211049   1.030   3.988   3.951
 3722TIP3   OH211050   1.003   3.685   4.468
 3722TIP3    H111051   0.929   3.694   4.531
 3722TIP3    H211052   1.043   3.774   4.471
 3723TIP3   OH211053   0.818   3.199   3.087
 3723TIP3    H111054   0.885   3.264   3.058
 3723TIP3    H211055   0.861   3.161   3.167
 3724TIP3   OH211056   0.945   3.068   3.292
 3724TIP3    H111057   0.879   3.025   3.351
 3724TIP3    H211058   1.009   3.105   3.355
 3725TIP3   OH211059   1.000   3.458   3.723
 3725TIP3    H111060   1.053   3.393   3.674
 3725TIP3    H211061   0.995   3.533   3.660
 3726TIP3   OH211062   0.832   3.758   3.919
 3726TIP3    H111063   0.760   3.802   3.969
 3726TIP3    H211064   0.782   3.712   3.848
 3727TIP3   OH211065   0.880   2.976   2.937
 3727TIP3    H111066   0.811   2.975   2.868
 3727TIP3    H211067   0.851   3.052   2.992
 3728TIP3   OH211068   0.762   2.661   2.873
 3728TIP3    H111069   0.673   2.688   2.851
 3728TIP3    H211070   0.751   2.564   2.884
 3729TIP3   OH211071   0.761   2.922   3.437
 3729TIP3    H111072   0.772   2.826   3.428
 3729TIP3    H211073   0.747   2.934   3.534
 3730TIP3   OH211074  -0.607   3.027   4.147
 3730TIP3    H111075  -0.587   2.951   4.090
 3730TIP3    H211076  -0.522   3.031   4.196
 3731TIP3   OH211077   1.049   3.348   4.295
 3731TIP3    H111078   1.121   3.282   4.285
 3731TIP3    H211079   1.074   3.416   4.231
 3732TIP3   OH211080   1.234   3.153   4.311
 3732TIP3    H111081   1.159   3.103   4.350
 3732TIP3    H211082   1.306   3.088   4.327
 3733TIP3   OH211083   0.772   2.646   3.333
 3733TIP3    H111084   0.802   2.553   3.343
 3733TIP3    H211085   0.828   2.675   3.259
 3734TIP3   OH211086   0.917   2.812   3.829
 3734TIP3    H111087   1.002   2.839   3.787
 3734TIP3    H211088   0.932   2.849   3.917
 3735TIP3   OH211089   0.988   2.957   4.059
 3735TIP3    H111090   0.909   2.991   4.106
 3735TIP3    H211091   1.020   3.038   4.014
 3736TIP3   OH211092  -0.412   2.653   4.872
 3736TIP3    H111093  -0.325   2.686   4.846
 3736TIP3    H211094  -0.386   2.584   4.933
 3737TIP3   OH211095   1.440   2.550   4.615
 3737TIP3    H111096   1.498   2.483   4.571
 3737TIP3    H211097   1.409   2.603   4.539
 3738TIP3   OH211098   0.859   2.383   3.351
 3738TIP3    H111099   0.910   2.371   3.434
 3738TIP3    H211100   0.789   2.318   3.364
 3739TIP3   OH211101  -0.606   2.655   4.290
 3739TIP3    H111102  -0.571   2.653   4.199
 3739TIP3    H211103  -0.641   2.744   4.297
 3740TIP3   OH211104   1.308   2.687   4.421
 3740TIP3    H111105   1.221   2.728   4.436
 3740TIP3    H211106   1.281   2.614   4.361
 3741TIP3   OH211107   1.016   2.304   2.988
 3741TIP3    H111108   1.080   2.251   2.937
 3741TIP3    H211109   1.064   2.389   2.994
 3742TIP3   OH211110   0.508   3.855   3.268
 3742TIP3    H111111   0.560   3.844   3.186
 3742TIP3    H211112   0.559   3.925   3.313
 3743TIP3   OH211113  -0.436   2.246   4.594
 3743TIP3    H111114  -0.498   2.226   4.665
 3743TIP3    H211115  -0.494   2.281   4.526
 3744TIP3   OH211116  -0.359   3.622   4.658
 3744TIP3    H111117  -0.441   3.674   4.647
 3744TIP3    H211118  -0.357   3.615   4.755
 3745TIP3   OH211119  -0.203   3.689   4.204
 3745TIP3    H111120  -0.258   3.760   4.166
 3745TIP3    H211121  -0.119   3.708   4.157
 3746TIP3   OH211122   0.233   3.938   4.339
 3746TIP3    H111123   0.275   3.937   4.428
 3746TIP3    H211124   0.300   3.988   4.287
 3747TIP3   OH211125   0.412   4.089   4.198
 3747TIP3    H111126   0.484   4.039   4.156
 3747TIP3    H211127   0.464   4.146   4.260
 3748TIP3   OH211128   1.208   2.450   4.299
 3748TIP3    H111129   1.116   2.439   4.268
 3748TIP3    H211130   1.241   2.358   4.287
 3749TIP3   OH211131  -0.303   3.927   4.090
 3749TIP3    H111132  -0.389   3.936   4.132
 3749TIP3    H211133  -0.320   3.964   4.001
 3750TIP3   OH211134   0.128   3.956   3.883
 3750TIP3    H111135   0.066   3.979   3.812
 3750TIP3    H211136   0.142   4.043   3.926
 3751TIP3   OH211137   0.397   3.896   3.933
 3751TIP3    H111138   0.303   3.914   3.913
 3751TIP3    H211139   0.442   3.971   3.891
 3752TIP3   OH211140   0.602   4.088   3.847
 3752TIP3    H111141   0.589   4.173   3.800
 3752TIP3    H211142   0.629   4.029   3.774
 3753TIP3   OH211143  -0.577   3.763   3.959
 3753TIP3    H111144  -0.552   3.724   4.046
 3753TIP3    H211145  -0.520   3.708   3.902
 3754TIP3   OH211146  -0.418   3.600   3.810
 3754TIP3    H111147  -0.408   3.519   3.866
 3754TIP3    H211148  -0.328   3.636   3.813
 3755TIP3   OH211149  -0.159   3.710   3.832
 3755TIP3    H111150  -0.126   3.619   3.819
 3755TIP3    H211151  -0.113   3.730   3.916
 3756TIP3   OH211152   0.407   2.368   3.913
 3756TIP3    H111153   0.362   2.305   3.975
 3756TIP3    H211154   0.483   2.316   3.882
 3757TIP3   OH211155   0.927   2.246   3.832
 3757TIP3    H111156   0.957   2.289   3.749
 3757TIP3    H211157   0.831   2.258   3.828
 3758TIP3   OH211158   1.004   2.356   3.583
 3758TIP3    H111159   1.099   2.334   3.586
 3758TIP3    H211160   1.007   2.451   3.601
 3759TIP3   OH211161   0.649   2.253   3.805
 3759TIP3    H111162   0.650   2.221   3.714
 3759TIP3    H211163   0.636   2.169   3.855
 3760TIP3   OH211164  -0.057   3.723   2.946
 3760TIP3    H111165   0.036   3.728   2.914
 3760TIP3    H211166  -0.093   3.658   2.884
 3761TIP3   OH211167   0.655   3.823   3.037
 3761TIP3    H111168   0.647   3.725   3.023
 3761TIP3    H211169   0.611   3.857   2.956
 3762TIP3   OH211170  -0.136   2.360   4.829
 3762TIP3    H111171  -0.168   2.284   4.883
 3762TIP3    H211172  -0.041   2.357   4.851
 3763TIP3   OH211173   0.120   2.355   4.946
 3763TIP3    H111174   0.196   2.333   4.891
 3763TIP3    H211175   0.111   2.275   5.001
 3764TIP3   OH211176   0.950   2.424   4.737
 3764TIP3    H111177   0.968   2.385   4.825
 3764TIP3    H211178   1.036   2.413   4.691
 3765TIP3   OH211179   0.883   3.966   4.224
 3765TIP3    H111180   0.804   3.935   4.175
 3765TIP3    H211181   0.863   4.062   4.228
 3766TIP3   OH211182   2.149   3.340   2.989
 3766TIP3    H111183   2.120   3.431   2.968
 3766TIP3    H211184   2.073   3.289   2.957
 3767TIP3   OH211185   2.148   3.339   3.371
 3767TIP3    H111186   2.179   3.308   3.458
 3767TIP3    H211187   2.106   3.259   3.336
 3768TIP3   OH211188   1.447   3.235   3.737
 3768TIP3    H111189   1.478   3.166   3.798
 3768TIP3    H211190   1.527   3.288   3.727
 3769TIP3   OH211191   2.390   3.642   3.052
 3769TIP3    H111192   2.376   3.571   3.116
 3769TIP3    H211193   2.420   3.715   3.108
 3770TIP3   OH211194   1.419   3.644   3.463
 3770TIP3    H111195   1.410   3.546   3.464
 3770TIP3    H211196   1.516   3.652   3.455
 3771TIP3   OH211197   1.131   2.858   3.239
 3771TIP3    H111198   1.076   2.937   3.252
 3771TIP3    H211199   1.064   2.790   3.232
 3772TIP3   OH211200   1.184   3.134   3.419
 3772TIP3    H111201   1.232   3.057   3.456
 3772TIP3    H211202   1.240   3.158   3.344
 3773TIP3   OH211203   2.041   4.102   3.068
 3773TIP3    H111204   2.087   4.031   3.018
 3773TIP3    H211205   2.031   4.061   3.155
 3774TIP3   OH211206   1.946   3.564   3.420
 3774TIP3    H111207   1.983   3.488   3.374
 3774TIP3    H211208   2.030   3.609   3.443
 3775TIP3   OH211209   2.959   2.884   3.417
 3775TIP3    H111210   2.989   2.967   3.458
 3775TIP3    H211211   2.981   2.900   3.324
 3776TIP3   OH211212   2.359   3.066   3.452
 3776TIP3    H111213   2.401   2.980   3.471
 3776TIP3    H211214   2.327   3.051   3.361
 3777TIP3   OH211215   1.700   2.728   3.416
 3777TIP3    H111216   1.678   2.801   3.355
 3777TIP3    H211217   1.655   2.655   3.368
 3778TIP3   OH211218   2.390   2.818   3.040
 3778TIP3    H111219   2.463   2.801   3.104
 3778TIP3    H211220   2.442   2.850   2.964
 3779TIP3   OH211221   1.330   2.928   3.526
 3779TIP3    H111222   1.413   2.906   3.571
 3779TIP3    H211223   1.337   2.869   3.448
 3780TIP3   OH211224   1.770   3.125   3.318
 3780TIP3    H111225   1.864   3.099   3.330
 3780TIP3    H211226   1.730   3.041   3.285
 3781TIP3   OH211227   3.034   3.092   3.587
 3781TIP3    H111228   2.950   3.139   3.566
 3781TIP3    H211229   3.047   3.119   3.679
 3782TIP3   OH211230   1.694   2.710   3.853
 3782TIP3    H111231   1.634   2.743   3.783
 3782TIP3    H211232   1.640   2.727   3.933
 3783TIP3   OH211233   2.047   3.565   2.853
 3783TIP3    H111234   1.995   3.539   2.776
 3783TIP3    H211235   1.998   3.645   2.882
 3784TIP3   OH211236   1.801   3.484   3.647
 3784TIP3    H111237   1.737   3.550   3.684
 3784TIP3    H211238   1.841   3.534   3.573
 3785TIP3   OH211239   2.601   2.819   3.212
 3785TIP3    H111240   2.593   2.768   3.293
 3785TIP3    H211241   2.655   2.895   3.239
 3786TIP3   OH211242   1.566   2.822   3.635
 3786TIP3    H111243   1.628   2.894   3.658
 3786TIP3    H211244   1.614   2.782   3.559
 3787TIP3   OH211245   1.628   3.678   3.745
 3787TIP3    H111246   1.602   3.763   3.706
 3787TIP3    H211247   1.549   3.661   3.801
 3788TIP3   OH211248   1.022   3.368   2.981
 3788TIP3    H111249   0.981   3.396   2.897
 3788TIP3    H211250   1.052   3.454   3.017
 3789TIP3   OH211251   2.462   3.884   3.221
 3789TIP3    H111252   2.372   3.875   3.261
 3789TIP3    H211253   2.454   3.969   3.175
 3790TIP3   OH211254   2.752   2.785   3.584
 3790TIP3    H111255   2.664   2.812   3.552
 3790TIP3    H211256   2.811   2.816   3.513
 3791TIP3   OH211257   2.055   2.429   3.566
 3791TIP3    H111258   2.040   2.334   3.582
 3791TIP3    H211259   1.977   2.467   3.612
 3792TIP3   OH211260   2.166   3.928   2.894
 3792TIP3    H111261   2.216   3.846   2.874
 3792TIP3    H211262   2.227   3.995   2.855
 3793TIP3   OH211263   2.307   3.709   2.797
 3793TIP3    H111264   2.243   3.638   2.781
 3793TIP3    H211265   2.347   3.680   2.882
 3794TIP3   OH211266   2.687   3.797   3.564
 3794TIP3    H111267   2.676   3.719   3.505
 3794TIP3    H211268   2.671   3.871   3.502
 3795TIP3   OH211269   1.979   3.191   2.823
 3795TIP3    H111270   1.898   3.242   2.800
 3795TIP3    H211271   2.023   3.185   2.736
 3796TIP3   OH211272   1.939   2.972   2.537
 3796TIP3    H111273   2.006   3.022   2.585
 3796TIP3    H211274   1.995   2.906   2.492
 3797TIP3   OH211275   2.882   3.434   3.409
 3797TIP3    H111276   2.799   3.486   3.414
 3797TIP3    H211277   2.912   3.457   3.319
 3798TIP3   OH211278   2.327   3.273   2.793
 3798TIP3    H111279   2.272   3.297   2.871
 3798TIP3    H211280   2.410   3.246   2.838
 3799TIP3   OH211281   2.561   3.312   3.705
 3799TIP3    H111282   2.558   3.397   3.753
 3799TIP3    H211283   2.475   3.314   3.659
 3800TIP3   OH211284   1.559   3.271   3.209
 3800TIP3    H111285   1.517   3.213   3.142
 3800TIP3    H211286   1.635   3.216   3.238
 3801TIP3   OH211287   1.688   3.682   3.359
 3801TIP3    H111288   1.666   3.642   3.273
 3801TIP3    H211289   1.778   3.646   3.375
 3802TIP3   OH211290   1.697   3.240   3.566
 3802TIP3    H111291   1.727   3.219   3.475
 3802TIP3    H211292   1.739   3.327   3.583
 3803TIP3   OH211293   2.221   3.880   3.342
 3803TIP3    H111294   2.207   3.958   3.398
 3803TIP3    H211295   2.206   3.805   3.403
 3804TIP3   OH211296   1.833   3.798   3.889
 3804TIP3    H111297   1.772   3.860   3.934
 3804TIP3    H211298   1.768   3.745   3.838
 3805TIP3   OH211299   2.164   3.132   2.620
 3805TIP3    H111300   2.223   3.190   2.672
 3805TIP3    H211301   2.196   3.149   2.528
 3806TIP3   OH211302   1.588   3.354   3.991
 3806TIP3    H111303   1.591   3.441   4.034
 3806TIP3    H211304   1.493   3.334   3.998
 3807TIP3   OH211305   1.911   3.809   2.896
 3807TIP3    H111306   1.988   3.865   2.911
 3807TIP3    H211307   1.848   3.869   2.853
 3808TIP3   OH211308   1.627   3.967   3.976
 3808TIP3    H111309   1.593   3.966   3.884
 3808TIP3    H211310   1.548   3.944   4.028
 3809TIP3   OH211311   2.683   2.369   2.668
 3809TIP3    H111312   2.600   2.393   2.714
 3809TIP3    H211313   2.700   2.451   2.616
 3810TIP3   OH211314   1.426   3.114   3.014
 3810TIP3    H111315   1.359   3.158   2.958
 3810TIP3    H211316   1.385   3.028   3.030
 3811TIP3   OH211317   1.206   3.497   3.922
 3811TIP3    H111318   1.140   3.476   3.852
 3811TIP3    H211319   1.243   3.409   3.944
 3812TIP3   OH211320   1.059   3.689   3.557
 3812TIP3    H111321   1.155   3.686   3.545
 3812TIP3    H211322   1.048   3.771   3.607
 3813TIP3   OH211323   2.924   4.141   3.609
 3813TIP3    H111324   2.923   4.044   3.621
 3813TIP3    H211325   2.840   4.165   3.656
 3814TIP3   OH211326   2.031   3.926   3.746
 3814TIP3    H111327   2.029   4.019   3.778
 3814TIP3    H211328   1.958   3.887   3.799
 3815TIP3   OH211329   1.792   4.056   2.697
 3815TIP3    H111330   1.746   4.037   2.613
 3815TIP3    H211331   1.760   4.145   2.720
 3816TIP3   OH211332   1.229   3.905   3.080
 3816TIP3    H111333   1.276   3.896   3.166
 3816TIP3    H211334   1.170   3.829   3.084
 3817TIP3   OH211335   1.990   3.958   2.338
 3817TIP3    H111336   2.051   3.890   2.302
 3817TIP3    H211337   2.026   3.970   2.428
 3818TIP3   OH211338   2.043   4.001   2.609
 3818TIP3    H111339   1.953   4.013   2.648
 3818TIP3    H211340   2.092   3.965   2.685
 3819TIP3   OH211341   2.813   3.271   3.885
 3819TIP3    H111342   2.733   3.284   3.832
 3819TIP3    H211343   2.829   3.176   3.873
 3820TIP3   OH211344   1.411   3.680   3.910
 3820TIP3    H111345   1.460   3.662   3.993
 3820TIP3    H211346   1.336   3.616   3.917
 3821TIP3   OH211347   1.823   2.508   3.695
 3821TIP3    H111348   1.735   2.473   3.665
 3821TIP3    H211349   1.791   2.589   3.739
 3822TIP3   OH211350   2.344   2.620   3.889
 3822TIP3    H111351   2.412   2.590   3.953
 3822TIP3    H211352   2.260   2.599   3.935
 3823TIP3   OH211353   2.585   3.048   3.809
 3823TIP3    H111354   2.533   3.045   3.892
 3823TIP3    H211355   2.559   3.134   3.771
 3824TIP3   OH211356   2.257   3.172   2.366
 3824TIP3    H111357   2.213   3.138   2.285
 3824TIP3    H211358   2.270   3.264   2.344
 3825TIP3   OH211359   1.943   2.563   2.657
 3825TIP3    H111360   1.929   2.559   2.754
 3825TIP3    H211361   1.918   2.472   2.633
 3826TIP3   OH211362   1.744   3.019   3.714
 3826TIP3    H111363   1.691   3.039   3.794
 3826TIP3    H211364   1.728   3.100   3.660
 3827TIP3   OH211365   1.625   2.907   3.227
 3827TIP3    H111366   1.534   2.878   3.246
 3827TIP3    H211367   1.639   2.864   3.139
 3828TIP3   OH211368   2.117   2.992   2.957
 3828TIP3    H111369   2.065   3.062   2.912
 3828TIP3    H211370   2.172   2.958   2.883
 3829TIP3   OH211371   2.291   3.270   4.042
 3829TIP3    H111372   2.269   3.196   4.104
 3829TIP3    H211373   2.386   3.281   4.062
 3830TIP3   OH211374   2.274   3.020   3.193
 3830TIP3    H111375   2.213   3.047   3.122
 3830TIP3    H211376   2.309   2.939   3.151
 3831TIP3   OH211377   1.562   3.048   3.921
 3831TIP3    H111378   1.585   3.112   3.990
 3831TIP3    H211379   1.549   2.966   3.971
 3832TIP3   OH211380   1.593   2.512   2.629
 3832TIP3    H111381   1.603   2.506   2.727
 3832TIP3    H211382   1.529   2.586   2.624
 3833TIP3   OH211383   1.147   2.617   3.491
 3833TIP3    H111384   1.219   2.620   3.556
 3833TIP3    H211385   1.174   2.546   3.430
 3834TIP3   OH211386   1.132   2.556   3.014
 3834TIP3    H111387   1.186   2.586   2.939
 3834TIP3    H211388   1.075   2.634   3.030
 3835TIP3   OH211389   2.286   3.266   3.617
 3835TIP3    H111390   2.318   3.193   3.558
 3835TIP3    H211391   2.255   3.212   3.693
 3836TIP3   OH211392   1.954   2.727   3.288
 3836TIP3    H111393   1.871   2.726   3.339
 3836TIP3    H211394   2.020   2.725   3.359
 3837TIP3   OH211395   1.389   2.783   3.299
 3837TIP3    H111396   1.295   2.791   3.270
 3837TIP3    H211397   1.414   2.693   3.272
 3838TIP3   OH211398   1.660   2.782   2.986
 3838TIP3    H111399   1.753   2.799   2.963
 3838TIP3    H211400   1.611   2.804   2.903
 3839TIP3   OH211401   2.445   2.803   3.492
 3839TIP3    H111402   2.408   2.815   3.582
 3839TIP3    H211403   2.380   2.742   3.454
 3840TIP3   OH211404   1.500   2.815   2.767
 3840TIP3    H111405   1.424   2.775   2.723
 3840TIP3    H211406   1.550   2.851   2.691
 3841TIP3   OH211407   2.613   4.496   3.708
 3841TIP3    H111408   2.617   4.505   3.611
 3841TIP3    H211409   2.699   4.534   3.735
 3842TIP3   OH211410   1.573   3.602   4.131
 3842TIP3    H111411   1.652   3.633   4.179
 3842TIP3    H211412   1.507   3.601   4.203
 3843TIP3   OH211413   2.036   3.056   3.386
 3843TIP3    H111414   2.108   3.016   3.335
 3843TIP3    H211415   2.045   3.012   3.473
 3844TIP3   OH211416   1.572   2.563   3.242
 3844TIP3    H111417   1.546   2.482   3.291
 3844TIP3    H211418   1.608   2.524   3.161
 3845TIP3   OH211419   2.013   2.951   3.676
 3845TIP3    H111420   1.923   2.987   3.689
 3845TIP3    H211421   2.069   3.013   3.726
 3846TIP3   OH211422   1.749   3.343   2.771
 3846TIP3    H111423   1.677   3.278   2.759
 3846TIP3    H211424   1.730   3.376   2.862
 3847TIP3   OH211425   2.650   3.579   3.400
 3847TIP3    H111426   2.674   3.629   3.319
 3847TIP3    H211427   2.565   3.537   3.374
 3848TIP3   OH211428   2.208   2.651   2.649
 3848TIP3    H111429   2.114   2.632   2.629
 3848TIP3    H211430   2.213   2.748   2.651
 3849TIP3   OH211431   2.154   3.664   3.766
 3849TIP3    H111432   2.169   3.638   3.858
 3849TIP3    H211433   2.110   3.750   3.775
 3850TIP3   OH211434   2.276   2.907   2.743
 3850TIP3    H111435   2.374   2.906   2.752
 3850TIP3    H211436   2.261   2.983   2.684
 3851TIP3   OH211437   1.444   3.368   3.446
 3851TIP3    H111438   1.480   3.338   3.360
 3851TIP3    H211439   1.479   3.301   3.507
 3852TIP3   OH211440   1.896   3.493   2.594
 3852TIP3    H111441   1.847   3.579   2.598
 3852TIP3    H211442   1.839   3.438   2.653
 3853TIP3   OH211443   1.323   3.284   4.059
 3853TIP3    H111444   1.339   3.269   4.154
 3853TIP3    H211445   1.252   3.220   4.041
 3854TIP3   OH211446   2.047   3.399   4.080
 3854TIP3    H111447   1.986   3.341   4.032
 3854TIP3    H211448   2.134   3.364   4.050
 3855TIP3   OH211449   2.310   3.927   3.661
 3855TIP3    H111450   2.214   3.918   3.675
 3855TIP3    H211451   2.336   3.976   3.742
 3856TIP3   OH211452   2.716   2.984   2.572
 3856TIP3    H111453   2.655   2.937   2.510
 3856TIP3    H211454   2.725   3.069   2.525
 3857TIP3   OH211455   2.938   3.852   3.652
 3857TIP3    H111456   2.840   3.845   3.644
 3857TIP3    H211457   2.964   3.821   3.563
 3858TIP3   OH211458   2.437   3.805   2.484
 3858TIP3    H111459   2.395   3.757   2.557
 3858TIP3    H211460   2.396   3.767   2.406
 3859TIP3   OH211461   2.416   3.440   3.319
 3859TIP3    H111462   2.322   3.415   3.331
 3859TIP3    H211463   2.450   3.361   3.273
 3860TIP3   OH211464   1.543   3.669   3.072
 3860TIP3    H111465   1.542   3.750   3.017
 3860TIP3    H211466   1.449   3.652   3.081
 3861TIP3   OH211467   1.114   2.975   2.794
 3861TIP3    H111468   1.158   3.061   2.812
 3861TIP3    H211469   1.035   2.982   2.851
 3862TIP3   OH211470   1.682   3.435   3.016
 3862TIP3    H111471   1.646   3.524   3.034
 3862TIP3    H211472   1.645   3.384   3.090
 3863TIP3   OH211473   1.812   4.013   3.541
 3863TIP3    H111474   1.852   4.085   3.489
 3863TIP3    H211475   1.889   3.977   3.587
 3864TIP3   OH211476   1.463   3.907   2.925
 3864TIP3    H111477   1.377   3.916   2.969
 3864TIP3    H211478   1.495   4.000   2.926
 3865TIP3   OH211479   2.201   3.647   3.498
 3865TIP3    H111480   2.192   3.645   3.596
 3865TIP3    H211481   2.279   3.591   3.484
 3866TIP3   OH211482   2.183   3.534   2.375
 3866TIP3    H111483   2.229   3.514   2.459
 3866TIP3    H211484   2.091   3.517   2.400
 3867TIP3   OH211485   2.447   4.184   3.552
 3867TIP3    H111486   2.371   4.124   3.545
 3867TIP3    H211487   2.431   4.245   3.477
 3868TIP3   OH211488   2.516   4.015   2.205
 3868TIP3    H111489   2.541   4.081   2.138
 3868TIP3    H211490   2.433   4.057   2.236
 3869TIP3   OH211491   1.532   2.792   4.068
 3869TIP3    H111492   1.435   2.795   4.078
 3869TIP3    H211493   1.557   2.729   4.137
 3870TIP3   OH211494   2.337   3.461   2.589
 3870TIP3    H111495   2.324   3.404   2.668
 3870TIP3    H211496   2.434   3.472   2.591
 3871TIP3   OH211497   1.251   3.875   3.699
 3871TIP3    H111498   1.303   3.800   3.731
 3871TIP3    H211499   1.279   3.944   3.760
 3872TIP3   OH211500   1.545   3.519   2.382
 3872TIP3    H111501   1.551   3.427   2.351
 3872TIP3    H211502   1.522   3.507   2.476
 3873TIP3   OH211503   1.487   3.524   2.654
 3873TIP3    H111504   1.558   3.499   2.713
 3873TIP3    H211505   1.489   3.623   2.659
 3874TIP3   OH211506   1.223   3.222   2.859
 3874TIP3    H111507   1.156   3.268   2.915
 3874TIP3    H211508   1.236   3.290   2.790
 3875TIP3   OH211509   2.369   2.858   3.752
 3875TIP3    H111510   2.453   2.892   3.788
 3875TIP3    H211511   2.355   2.776   3.804
 3876TIP3   OH211512   2.245   2.606   2.916
 3876TIP3    H111513   2.234   2.622   2.820
 3876TIP3    H211514   2.286   2.690   2.946
 3877TIP3   OH211515   1.753   3.723   2.603
 3877TIP3    H111516   1.666   3.749   2.638
 3877TIP3    H211517   1.768   3.794   2.539
 3878TIP3   OH211518   1.941   2.787   3.016
 3878TIP3    H111519   2.007   2.858   2.999
 3878TIP3    H211520   1.946   2.780   3.114
 3879TIP3   OH211521   2.209   3.105   3.823
 3879TIP3    H111522   2.231   3.157   3.903
 3879TIP3    H211523   2.263   3.025   3.834
 3880TIP3   OH211524   2.087   2.512   3.122
 3880TIP3    H111525   2.078   2.592   3.178
 3880TIP3    H211526   2.146   2.548   3.051
 3881TIP3   OH211527   1.496   3.797   2.670
 3881TIP3    H111528   1.466   3.866   2.606
 3881TIP3    H211529   1.480   3.841   2.756
 3882TIP3   OH211530   1.620   2.518   2.919
 3882TIP3    H111531   1.616   2.609   2.953
 3882TIP3    H211532   1.717   2.502   2.923
 3883TIP3   OH211533   2.852   3.005   3.805
 3883TIP3    H111534   2.754   3.004   3.812
 3883TIP3    H211535   2.862   2.962   3.719
 3884TIP3   OH211536   2.501   3.200   3.192
 3884TIP3    H111537   2.425   3.139   3.203
 3884TIP3    H211538   2.572   3.152   3.240
 3885TIP3   OH211539   1.213   3.428   2.663
 3885TIP3    H111540   1.276   3.501   2.671
 3885TIP3    H211541   1.260   3.374   2.596
 3886TIP3   OH211542   1.164   2.705   2.774
 3886TIP3    H111543   1.160   2.802   2.789
 3886TIP3    H211544   1.070   2.682   2.765
 3887TIP3   OH211545   2.469   4.156   3.144
 3887TIP3    H111546   2.425   4.204   3.070
 3887TIP3    H211547   2.563   4.175   3.122
 3888TIP3   OH211548   1.567   2.434   3.672
 3888TIP3    H111549   1.497   2.407   3.610
 3888TIP3    H211550   1.552   2.369   3.743
 3889TIP3   OH211551   1.084   3.640   3.050
 3889TIP3    H111552   1.014   3.673   3.108
 3889TIP3    H211553   1.058   3.681   2.964
 3890TIP3   OH211554   1.241   4.183   4.121
 3890TIP3    H111555   1.327   4.182   4.168
 3890TIP3    H211556   1.219   4.089   4.119
 3891TIP3   OH211557   1.725   4.148   4.165
 3891TIP3    H111558   1.819   4.124   4.170
 3891TIP3    H211559   1.696   4.090   4.093
 3892TIP3   OH211560   1.705   3.724   2.295
 3892TIP3    H111561   1.647   3.653   2.332
 3892TIP3    H211562   1.777   3.670   2.260
 3893TIP3   OH211563   2.361   4.056   3.900
 3893TIP3    H111564   2.352   3.985   3.968
 3893TIP3    H211565   2.440   4.104   3.931
 3894TIP3   OH211566   2.138   3.762   2.213
 3894TIP3    H111567   2.175   3.684   2.258
 3894TIP3    H211568   2.188   3.766   2.129
 3895TIP3   OH211569   1.372   3.589   4.322
 3895TIP3    H111570   1.388   3.493   4.325
 3895TIP3    H211571   1.284   3.593   4.277
 3896TIP3   OH211572   1.352   3.242   2.518
 3896TIP3    H111573   1.410   3.210   2.590
 3896TIP3    H211574   1.417   3.246   2.444
 3897TIP3   OH211575   1.979   3.675   4.095
 3897TIP3    H111576   1.936   3.692   4.009
 3897TIP3    H211577   2.009   3.582   4.087
 3898TIP3   OH211578   1.868   3.441   2.323
 3898TIP3    H111579   1.862   3.453   2.420
 3898TIP3    H211580   1.863   3.343   2.317
 3899TIP3   OH211581   2.473   3.683   3.703
 3899TIP3    H111582   2.546   3.728   3.657
 3899TIP3    H211583   2.400   3.745   3.688
 3900TIP3   OH211584   1.490   3.325   4.305
 3900TIP3    H111585   1.564   3.269   4.281
 3900TIP3    H211586   1.517   3.358   4.393
 3901TIP3   OH211587   1.558   3.144   2.737
 3901TIP3    H111588   1.530   3.104   2.821
 3901TIP3    H211589   1.594   3.068   2.688
 3902TIP3   OH211590   1.828   3.211   3.969
 3902TIP3    H111591   1.748   3.268   3.968
 3902TIP3    H211592   1.875   3.243   3.889
 3903TIP3   OH211593   1.659   2.936   2.581
 3903TIP3    H111594   1.633   2.944   2.487
 3903TIP3    H211595   1.757   2.941   2.573
 3904TIP3   OH211596   2.344   3.612   4.101
 3904TIP3    H111597   2.421   3.585   4.049
 3904TIP3    H211598   2.339   3.543   4.169
 3905TIP3   OH211599   1.950   2.997   4.091
 3905TIP3    H111600   1.949   2.917   4.034
 3905TIP3    H211601   1.906   3.063   4.034
 3906TIP3   OH211602   1.952   2.784   3.899
 3906TIP3    H111603   1.979   2.824   3.815
 3906TIP3    H211604   1.858   2.760   3.881
 3907TIP3   OH211605   1.980   3.321   3.774
 3907TIP3    H111606   2.061   3.327   3.722
 3907TIP3    H211607   1.922   3.386   3.728
 3908TIP3   OH211608   2.563   3.286   4.155
 3908TIP3    H111609   2.610   3.201   4.157
 3908TIP3    H211610   2.630   3.344   4.116
 3909TIP3   OH211611   2.602   3.540   3.892
 3909TIP3    H111612   2.545   3.593   3.832
 3909TIP3    H211613   2.690   3.559   3.851
 3910TIP3   OH211614   1.829   3.108   4.324
 3910TIP3    H111615   1.760   3.040   4.337
 3910TIP3    H211616   1.861   3.085   4.234
 3911TIP3   OH211617   2.083   2.547   3.967
 3911TIP3    H111618   2.034   2.628   3.943
 3911TIP3    H211619   2.015   2.478   3.952
 3912TIP3   OH211620   2.209   3.051   4.182
 3912TIP3    H111621   2.194   3.038   4.277
 3912TIP3    H211622   2.120   3.027   4.148
 3913TIP3   OH211623   2.450   3.004   4.039
 3913TIP3    H111624   2.373   3.002   4.099
 3913TIP3    H211625   2.523   2.970   4.095
 3914TIP3   OH211626   2.681   2.943   4.189
 3914TIP3    H111627   2.692   2.846   4.205
 3914TIP3    H211628   2.676   2.979   4.280
 3915TIP3   OH211629   1.667   2.889   4.375
 3915TIP3    H111630   1.670   2.798   4.338
 3915TIP3    H211631   1.702   2.874   4.465
 3916TIP3   OH211632   2.179   2.556   4.224
 3916TIP3    H111633   2.245   2.485   4.217
 3916TIP3    H211634   2.138   2.552   4.135
 3917TIP3   OH211635   2.244   2.771   4.383
 3917TIP3    H111636   2.223   2.700   4.318
 3917TIP3    H211637   2.166   2.830   4.375
 3918TIP3   OH211638   1.464   3.999   2.483
 3918TIP3    H111639   1.560   3.996   2.463
 3918TIP3    H211640   1.433   4.048   2.405
 3919TIP3   OH211641   0.945   3.383   2.700
 3919TIP3    H111642   1.040   3.405   2.686
 3919TIP3    H211643   0.940   3.294   2.658
 3920TIP3   OH211644   0.861   3.994   3.110
 3920TIP3    H111645   0.792   3.935   3.074
 3920TIP3    H211646   0.903   3.935   3.177
 3921TIP3   OH211647   0.996   3.844   3.299
 3921TIP3    H111648   0.983   3.772   3.362
 3921TIP3    H211649   1.046   3.907   3.354
 3922TIP3   OH211650   2.722   4.247   3.100
 3922TIP3    H111651   2.755   4.283   3.183
 3922TIP3    H211652   2.784   4.283   3.035
 3923TIP3   OH211653   2.752   4.270   3.386
 3923TIP3    H111654   2.706   4.185   3.376
 3923TIP3    H211655   2.830   4.240   3.436
 3924TIP3   OH211656   2.798   3.943   3.954
 3924TIP3    H111657   2.725   3.952   4.019
 3924TIP3    H211658   2.839   4.031   3.959
 3925TIP3   OH211659   2.619   3.456   2.568
 3925TIP3    H111660   2.683   3.526   2.546
 3925TIP3    H211661   2.659   3.419   2.650
 3926TIP3   OH211662   2.739   3.325   2.776
 3926TIP3    H111663   2.675   3.281   2.837
 3926TIP3    H211664   2.806   3.360   2.837
 3927TIP3   OH211665   2.796   3.715   3.210
 3927TIP3    H111666   2.849   3.649   3.160
 3927TIP3    H211667   2.791   3.789   3.147
 3928TIP3   OH211668   2.628   4.017   3.405
 3928TIP3    H111669   2.554   4.056   3.455
 3928TIP3    H211670   2.580   3.969   3.333
 3929TIP3   OH211671   2.676   3.233   2.416
 3929TIP3    H111672   2.589   3.193   2.411
 3929TIP3    H211673   2.660   3.310   2.475
 3930TIP3   OH211674   2.543   2.889   2.374
 3930TIP3    H111675   2.512   2.918   2.287
 3930TIP3    H211676   2.512   2.796   2.373
 3931TIP3   OH211677   2.556   3.179   2.923
 3931TIP3    H111678   2.562   3.082   2.915
 3931TIP3    H211679   2.542   3.191   3.019
 3932TIP3   OH211680   1.182   3.252   3.672
 3932TIP3    H111681   1.180   3.221   3.579
 3932TIP3    H211682   1.279   3.255   3.688
 3933TIP3   OH211683   2.845   3.605   3.782
 3933TIP3    H111684   2.917   3.538   3.772
 3933TIP3    H211685   2.871   3.672   3.717
 3934TIP3   OH211686   3.030   3.409   3.799
 3934TIP3    H111687   2.955   3.358   3.837
 3934TIP3    H211688   3.102   3.345   3.813
 3935TIP3   OH211689   2.554   2.897   2.819
 3935TIP3    H111690   2.591   2.807   2.836
 3935TIP3    H211691   2.613   2.924   2.746
 3936TIP3   OH211692   2.714   3.071   3.314
 3936TIP3    H111693   2.800   3.096   3.273
 3936TIP3    H211694   2.728   3.107   3.404
 3937TIP3   OH211695   2.784   3.214   3.547
 3937TIP3    H111696   2.705   3.248   3.593
 3937TIP3    H211697   2.816   3.294   3.500
 3938TIP3   OH211698   1.400   2.941   4.352
 3938TIP3    H111699   1.497   2.933   4.348
 3938TIP3    H211700   1.376   2.854   4.388
 3939TIP3   OH211701   3.237   2.805   4.103
 3939TIP3    H111702   3.295   2.738   4.059
 3939TIP3    H211703   3.207   2.858   4.026
 3940TIP3   OH211704   2.658   2.648   2.860
 3940TIP3    H111705   2.708   2.629   2.942
 3940TIP3    H211706   2.599   2.569   2.855
 3941TIP3   OH211707   1.348   2.647   3.698
 3941TIP3    H111708   1.392   2.560   3.693
 3941TIP3    H211709   1.423   2.707   3.682
 3942TIP3   OH211710   1.160   2.909   3.750
 3942TIP3    H111711   1.209   2.890   3.667
 3942TIP3    H211712   1.197   2.995   3.773
 3943TIP3   OH211713   3.104   2.943   3.909
 3943TIP3    H111714   3.017   2.984   3.923
 3943TIP3    H211715   3.079   2.871   3.849
 3944TIP3   OH211716   2.770   2.574   2.509
 3944TIP3    H111717   2.780   2.510   2.436
 3944TIP3    H211718   2.820   2.651   2.477
 3945TIP3   OH211719   1.129   2.435   3.258
 3945TIP3    H111720   1.034   2.421   3.269
 3945TIP3    H211721   1.134   2.486   3.174
 3946TIP3   OH211722   2.311   4.112   2.759
 3946TIP3    H111723   2.354   4.097   2.672
 3946TIP3    H211724   2.362   4.186   2.793
 3947TIP3   OH211725   1.366   2.489   4.064
 3947TIP3    H111726   1.314   2.483   4.146
 3947TIP3    H211727   1.301   2.530   4.004
 3948TIP3   OH211728   1.408   3.916   4.142
 3948TIP3    H111729   1.316   3.890   4.123
 3948TIP3    H211730   1.414   3.898   4.237
 3949TIP3   OH211731   1.586   3.949   3.690
 3949TIP3    H111732   1.536   4.024   3.651
 3949TIP3    H211733   1.671   3.964   3.645
 3950TIP3   OH211734   2.031   4.193   3.827
 3950TIP3    H111735   2.073   4.193   3.916
 3950TIP3    H211736   2.097   4.244   3.775
 3951TIP3   OH211737   2.210   4.347   3.687
 3951TIP3    H111738   2.276   4.293   3.641
 3951TIP3    H211739   2.266   4.398   3.748
 3952TIP3   OH211740   3.004   2.706   3.786
 3952TIP3    H111741   2.913   2.698   3.751
 3952TIP3    H211742   3.036   2.613   3.775
 3953TIP3   OH211743   1.263   4.206   3.713
 3953TIP3    H111744   1.174   4.238   3.687
 3953TIP3    H211745   1.269   4.242   3.802
 3954TIP3   OH211746   1.499   4.186   3.571
 3954TIP3    H111747   1.413   4.198   3.615
 3954TIP3    H211748   1.479   4.217   3.481
 3955TIP3   OH211749   1.924   4.213   3.369
 3955TIP3    H111750   1.854   4.229   3.302
 3955TIP3    H211751   1.934   4.302   3.408
 3956TIP3   OH211752   2.192   4.156   3.423
 3956TIP3    H111753   2.098   4.169   3.401
 3956TIP3    H211754   2.234   4.226   3.371
 3957TIP3   OH211755   2.404   4.347   3.334
 3957TIP3    H111756   2.384   4.429   3.284
 3957TIP3    H211757   2.428   4.285   3.261
 3958TIP3   OH211758   1.173   4.000   3.457
 3958TIP3    H111759   1.199   3.973   3.548
 3958TIP3    H211760   1.245   3.956   3.406
 3959TIP3   OH211761   1.367   3.871   3.315
 3959TIP3    H111762   1.383   3.787   3.364
 3959TIP3    H211763   1.457   3.908   3.309
 3960TIP3   OH211764   1.633   3.966   3.317
 3960TIP3    H111765   1.664   3.875   3.303
 3960TIP3    H211766   1.677   3.986   3.402
 3961TIP3   OH211767   2.210   2.623   3.407
 3961TIP3    H111768   2.166   2.553   3.458
 3961TIP3    H211769   2.280   2.574   3.360
 3962TIP3   OH211770   2.732   2.505   3.312
 3962TIP3    H111771   2.769   2.555   3.236
 3962TIP3    H211772   2.636   2.521   3.302
 3963TIP3   OH211773   2.828   2.602   3.075
 3963TIP3    H111774   2.901   2.552   3.033
 3963TIP3    H211775   2.859   2.694   3.059
 3964TIP3   OH211776   1.510   2.338   3.368
 3964TIP3    H111777   1.427   2.334   3.419
 3964TIP3    H211778   1.539   2.245   3.373
 3965TIP3   OH211779   1.240   2.184   3.167
 3965TIP3    H111780   1.265   2.187   3.072
 3965TIP3    H211781   1.218   2.276   3.188
 3966TIP3   OH211782   1.912   2.358   3.300
 3966TIP3    H111783   1.966   2.413   3.242
 3966TIP3    H211784   1.916   2.405   3.383
 3967TIP3   OH211785   2.450   2.510   3.285
 3967TIP3    H111786   2.446   2.475   3.195
 3967TIP3    H211787   2.436   2.429   3.339
 3968TIP3   OH211788   2.481   2.432   2.850
 3968TIP3    H111789   2.392   2.472   2.847
 3968TIP3    H211790   2.462   2.348   2.896
 3969TIP3   OH211791   0.962   3.772   2.849
 3969TIP3    H111792   0.876   3.740   2.814
 3969TIP3    H211793   0.951   3.867   2.832
 3970TIP3   OH211794   1.373   2.455   2.826
 3970TIP3    H111795   1.352   2.362   2.852
 3970TIP3    H211796   1.457   2.469   2.872
 3971TIP3   OH211797   1.891   2.536   2.929
 3971TIP3    H111798   1.949   2.493   2.994
 3971TIP3    H211799   1.908   2.630   2.953
 3972TIP3   OH211800   1.732   3.960   2.433
 3972TIP3    H111801   1.820   3.984   2.395
 3972TIP3    H211802   1.709   3.886   2.371
 3973TIP3   OH211803   2.451   4.078   2.526
 3973TIP3    H111804   2.455   3.982   2.507
 3973TIP3    H211805   2.407   4.112   2.445
 3974TIP3   OH211806   1.664   2.615   4.316
 3974TIP3    H111807   1.631   2.541   4.370
 3974TIP3    H211808   1.759   2.613   4.340
 3975TIP3   OH211809   1.915   2.610   4.433
 3975TIP3    H111810   1.998   2.584   4.390
 3975TIP3    H211811   1.903   2.538   4.498
 3976TIP3   OH211812   1.037   3.797   2.487
 3976TIP3    H111813   1.039   3.823   2.580
 3976TIP3    H211814   1.125   3.755   2.475
 3977TIP3   OH211815   2.740   2.671   4.219
 3977TIP3    H111816   2.760   2.639   4.309
 3977TIP3    H211817   2.828   2.666   4.175
 3978TIP3   OH211818   2.677   4.224   3.713
 3978TIP3    H111819   2.600   4.190   3.662
 3978TIP3    H211820   2.654   4.319   3.716
 3979TIP3   OH211821   3.922   3.590   2.510
 3979TIP3    H111822   3.917   3.679   2.470
 3979TIP3    H211823   3.885   3.537   2.437
 3980TIP3   OH211824   3.942   3.604   2.860
 3980TIP3    H111825   3.970   3.556   2.940
 3980TIP3    H211826   3.908   3.534   2.803
 3981TIP3   OH211827   3.242   3.492   3.226
 3981TIP3    H111828   3.274   3.423   3.287
 3981TIP3    H211829   3.323   3.542   3.210
 3982TIP3   OH211830   4.191   3.903   2.538
 3982TIP3    H111831   4.170   3.828   2.595
 3982TIP3    H211832   4.216   3.972   2.602
 3983TIP3   OH211833   3.215   3.899   2.952
 3983TIP3    H111834   3.207   3.801   2.952
 3983TIP3    H211835   3.311   3.908   2.939
 3984TIP3   OH211836   2.921   3.104   2.732
 3984TIP3    H111837   2.871   3.186   2.747
 3984TIP3    H211838   2.851   3.045   2.702
 3985TIP3   OH211839   2.979   3.389   2.903
 3985TIP3    H111840   3.027   3.312   2.940
 3985TIP3    H211841   3.041   3.422   2.837
 3986TIP3   OH211842   3.838   4.361   2.555
 3986TIP3    H111843   3.882   4.290   2.505
 3986TIP3    H211844   3.826   4.321   2.641
 3987TIP3   OH211845   3.741   3.821   2.908
 3987TIP3    H111846   3.779   3.745   2.861
 3987TIP3    H211847   3.825   3.866   2.931
 3988TIP3   OH211848   4.757   3.140   2.905
 3988TIP3    H111849   4.785   3.224   2.947
 3988TIP3    H211850   4.772   3.160   2.811
 3989TIP3   OH211851   4.149   3.320   2.942
 3989TIP3    H111852   4.194   3.235   2.959
 3989TIP3    H211853   4.124   3.309   2.848
 3990TIP3   OH211854   3.493   2.982   2.905
 3990TIP3    H111855   3.473   3.055   2.842
 3990TIP3    H211856   3.445   2.908   2.860
 3991TIP3   OH211857   4.187   3.072   2.530
 3991TIP3    H111858   4.261   3.057   2.592
 3991TIP3    H211859   4.236   3.108   2.453
 3992TIP3   OH211860   3.126   3.184   3.011
 3992TIP3    H111861   3.209   3.164   3.058
 3992TIP3    H211862   3.139   3.128   2.931
 3993TIP3   OH211863   3.566   3.381   2.808
 3993TIP3    H111864   3.660   3.357   2.817
 3993TIP3    H211865   3.528   3.298   2.773
 3994TIP3   OH211866   4.830   3.349   3.075
 3994TIP3    H111867   4.747   3.396   3.053
 3994TIP3    H211868   4.842   3.377   3.167
 3995TIP3   OH211869   3.489   2.965   3.338
 3995TIP3    H111870   3.429   3.002   3.270
 3995TIP3    H211871   3.437   2.983   3.419
 3996TIP3   OH211872   3.847   3.822   2.344
 3996TIP3    H111873   3.801   3.791   2.265
 3996TIP3    H211874   3.794   3.899   2.369
 3997TIP3   OH211875   3.596   3.740   3.134
 3997TIP3    H111876   3.534   3.808   3.170
 3997TIP3    H211877   3.638   3.789   3.060
 3998TIP3   OH211878   4.400   3.070   2.701
 3998TIP3    H111879   4.381   3.035   2.789
 3998TIP3    H211880   4.449   3.152   2.721
 3999TIP3   OH211881   3.360   3.080   3.123
 3999TIP3    H111882   3.423   3.152   3.145
 3999TIP3    H211883   3.408   3.039   3.047
 4000TIP3   OH211884   3.424   3.935   3.233
 4000TIP3    H111885   3.398   4.019   3.190
 4000TIP3    H211886   3.344   3.920   3.288
 4001TIP3   OH211887   2.823   3.633   2.470
 4001TIP3    H111888   2.805   3.681   2.388
 4001TIP3    H211889   2.855   3.707   2.525
 4002TIP3   OH211890   4.260   4.141   2.711
 4002TIP3    H111891   4.170   4.132   2.749
 4002TIP3    H211892   4.250   4.225   2.662
 4003TIP3   OH211893   4.548   3.040   3.069
 4003TIP3    H111894   4.460   3.069   3.039
 4003TIP3    H211895   4.607   3.074   2.999
 4004TIP3   OH211896   3.847   2.684   3.054
 4004TIP3    H111897   3.831   2.589   3.070
 4004TIP3    H211898   3.769   2.723   3.100
 4005TIP3   OH211899   3.960   4.182   2.381
 4005TIP3    H111900   4.010   4.101   2.360
 4005TIP3    H211901   4.021   4.249   2.341
 4006TIP3   OH211902   4.103   3.964   2.285
 4006TIP3    H111903   4.042   3.890   2.272
 4006TIP3    H211904   4.147   3.938   2.369
 4007TIP3   OH211905   4.485   4.053   3.050
 4007TIP3    H111906   4.472   3.975   2.991
 4007TIP3    H211907   4.466   4.127   2.990
 4008TIP3   OH211908   3.785   3.446   2.299
 4008TIP3    H111909   3.712   3.502   2.267
 4008TIP3    H211910   3.859   3.468   2.236
 4009TIP3   OH211911   3.730   3.230   2.025
 4009TIP3    H111912   3.788   3.278   2.087
 4009TIP3    H211913   3.794   3.174   1.978
 4010TIP3   OH211914   4.679   3.691   2.897
 4010TIP3    H111915   4.595   3.742   2.901
 4010TIP3    H211916   4.708   3.715   2.806
 4011TIP3   OH211917   4.358   3.568   3.191
 4011TIP3    H111918   4.354   3.653   3.239
 4011TIP3    H211919   4.272   3.570   3.146
 4012TIP3   OH211920   3.354   3.527   2.699
 4012TIP3    H111921   3.313   3.470   2.631
 4012TIP3    H211922   3.432   3.474   2.727
 4013TIP3   OH211923   3.482   3.931   2.848
 4013TIP3    H111924   3.463   3.898   2.759
 4013TIP3    H211925   3.573   3.899   2.864
 4014TIP3   OH211926   3.488   3.499   3.052
 4014TIP3    H111927   3.522   3.474   2.963
 4014TIP3    H211928   3.534   3.584   3.070
 4015TIP3   OH211929   4.018   4.137   2.829
 4015TIP3    H111930   4.002   4.215   2.883
 4015TIP3    H211931   4.002   4.062   2.891
 4016TIP3   OH211932   3.629   4.055   3.376
 4016TIP3    H111933   3.568   4.118   3.421
 4016TIP3    H211934   3.565   4.002   3.325
 4017TIP3   OH211935   3.385   3.610   3.479
 4017TIP3    H111936   3.388   3.698   3.521
 4017TIP3    H211937   3.289   3.591   3.484
 4018TIP3   OH211938   3.703   4.071   2.385
 4018TIP3    H111939   3.786   4.120   2.397
 4018TIP3    H211940   3.647   4.136   2.340
 4019TIP3   OH211941   3.423   4.225   3.461
 4019TIP3    H111942   3.390   4.224   3.369
 4019TIP3    H211943   3.342   4.202   3.513
 4020TIP3   OH211944   4.479   2.627   2.156
 4020TIP3    H111945   4.398   2.650   2.204
 4020TIP3    H211946   4.495   2.710   2.105
 4021TIP3   OH211947   3.220   3.370   2.504
 4021TIP3    H111948   3.157   3.414   2.444
 4021TIP3    H211949   3.182   3.282   2.512
 4022TIP3   OH211950   4.276   3.996   1.700
 4022TIP3    H111951   4.286   4.092   1.688
 4022TIP3    H211952   4.369   3.965   1.688
 4023TIP3   OH211953   3.002   3.754   3.408
 4023TIP3    H111954   2.937   3.732   3.339
 4023TIP3    H211955   3.039   3.667   3.432
 4024TIP3   OH211956   2.857   3.944   3.044
 4024TIP3    H111957   2.952   3.938   3.029
 4024TIP3    H211958   2.850   4.026   3.096
 4025TIP3   OH211959   4.721   4.398   3.097
 4025TIP3    H111960   4.719   4.302   3.109
 4025TIP3    H211961   4.637   4.423   3.142
 4026TIP3   OH211962   3.829   4.183   3.234
 4026TIP3    H111963   3.826   4.276   3.265
 4026TIP3    H211964   3.756   4.143   3.286
 4027TIP3   OH211965   3.580   4.326   2.186
 4027TIP3    H111966   3.538   4.308   2.100
 4027TIP3    H211967   3.525   4.401   2.218
 4028TIP3   OH211968   3.026   4.162   2.567
 4028TIP3    H111969   3.074   4.151   2.652
 4028TIP3    H211970   2.963   4.089   2.573
 4029TIP3   OH211971   3.789   4.213   1.822
 4029TIP3    H111972   3.848   4.143   1.788
 4029TIP3    H211973   3.821   4.224   1.914
 4030TIP3   OH211974   3.833   4.264   2.093
 4030TIP3    H111975   3.747   4.282   2.135
 4030TIP3    H211976   3.883   4.223   2.166
 4031TIP3   OH211977   4.611   3.529   3.371
 4031TIP3    H111978   4.529   3.542   3.320
 4031TIP3    H211979   4.625   3.433   3.361
 4032TIP3   OH211980   3.206   3.938   3.399
 4032TIP3    H111981   3.257   3.918   3.480
 4032TIP3    H211982   3.133   3.874   3.405
 4033TIP3   OH211983   3.607   2.760   3.180
 4033TIP3    H111984   3.517   2.729   3.154
 4033TIP3    H211985   3.582   2.842   3.226
 4034TIP3   OH211986   4.141   2.874   3.376
 4034TIP3    H111987   4.209   2.846   3.441
 4034TIP3    H211988   4.057   2.854   3.422
 4035TIP3   OH211989   4.381   3.305   3.295
 4035TIP3    H111990   4.330   3.302   3.379
 4035TIP3    H211991   4.356   3.391   3.258
 4036TIP3   OH211992   3.981   3.471   1.806
 4036TIP3    H111993   4.013   3.416   1.734
 4036TIP3    H211994   4.052   3.469   1.872
 4037TIP3   OH211995   3.752   2.807   2.152
 4037TIP3    H111996   3.718   2.806   2.244
 4037TIP3    H211997   3.712   2.725   2.118
 4038TIP3   OH211998   3.538   3.276   3.199
 4038TIP3    H111999   3.488   3.297   3.280
 4038TIP3    H212000   3.522   3.357   3.146
 4039TIP3   OH212001   3.423   3.161   2.714
 4039TIP3    H112002   3.330   3.135   2.730
 4039TIP3    H212003   3.436   3.121   2.625
 4040TIP3   OH212004   3.912   3.244   2.434
 4040TIP3    H112005   3.860   3.318   2.395
 4040TIP3    H212006   3.974   3.228   2.360
 4041TIP3   OH212007   4.087   3.526   3.529
 4041TIP3    H112008   4.065   3.453   3.590
 4041TIP3    H212009   4.182   3.539   3.549
 4042TIP3   OH212010   4.070   3.279   2.680
 4042TIP3    H112011   4.013   3.317   2.610
 4042TIP3    H212012   4.098   3.197   2.634
 4043TIP3   OH212013   3.357   3.305   3.408
 4043TIP3    H112014   3.387   3.368   3.476
 4043TIP3    H212015   3.347   3.223   3.460
 4044TIP3   OH212016   3.407   2.781   2.119
 4044TIP3    H112017   3.398   2.779   2.216
 4044TIP3    H212018   3.329   2.833   2.093
 4045TIP3   OH212019   2.947   2.830   2.992
 4045TIP3    H112020   3.028   2.857   3.040
 4045TIP3    H212021   2.980   2.794   2.908
 4046TIP3   OH212022   2.934   2.812   2.512
 4046TIP3    H112023   2.972   2.852   2.431
 4046TIP3    H212024   2.867   2.880   2.534
 4047TIP3   OH212025   4.085   3.521   3.108
 4047TIP3    H112026   4.114   3.449   3.047
 4047TIP3    H212027   4.052   3.467   3.182
 4048TIP3   OH212028   3.750   2.977   2.775
 4048TIP3    H112029   3.667   2.980   2.827
 4048TIP3    H212030   3.817   2.988   2.845
 4049TIP3   OH212031   3.183   3.039   2.784
 4049TIP3    H112032   3.089   3.046   2.755
 4049TIP3    H212033   3.206   2.947   2.760
 4050TIP3   OH212034   3.454   3.036   2.471
 4050TIP3    H112035   3.548   3.052   2.450
 4050TIP3    H212036   3.407   3.059   2.387
 4051TIP3   OH212037   4.243   3.057   2.977
 4051TIP3    H112038   4.208   3.072   3.068
 4051TIP3    H212039   4.174   2.999   2.941
 4052TIP3   OH212040   3.294   3.070   2.249
 4052TIP3    H112041   3.225   3.024   2.199
 4052TIP3    H212042   3.347   3.108   2.176
 4053TIP3   OH212043   4.411   4.749   3.196
 4053TIP3    H112044   4.408   4.770   3.100
 4053TIP3    H212045   4.490   4.798   3.225
 4054TIP3   OH212046   3.368   3.859   3.618
 4054TIP3    H112047   3.448   3.889   3.665
 4054TIP3    H212048   3.304   3.857   3.692
 4055TIP3   OH212049   3.830   3.305   2.871
 4055TIP3    H112050   3.907   3.278   2.818
 4055TIP3    H212051   3.848   3.265   2.957
 4056TIP3   OH212052   3.357   2.800   2.752
 4056TIP3    H112053   3.321   2.721   2.797
 4056TIP3    H212054   3.401   2.761   2.675
 4057TIP3   OH212055   3.809   3.205   3.167
 4057TIP3    H112056   3.720   3.244   3.176
 4057TIP3    H212057   3.866   3.269   3.214
 4058TIP3   OH212058   3.547   3.601   2.255
 4058TIP3    H112059   3.476   3.534   2.245
 4058TIP3    H212060   3.531   3.632   2.348
 4059TIP3   OH212061   4.446   3.835   2.887
 4059TIP3    H112062   4.468   3.884   2.806
 4059TIP3    H212063   4.360   3.792   2.863
 4060TIP3   OH212064   4.005   2.911   2.120
 4060TIP3    H112065   3.908   2.900   2.126
 4060TIP3    H212066   4.018   3.007   2.139
 4061TIP3   OH212067   3.946   3.917   3.255
 4061TIP3    H112068   3.968   3.897   3.346
 4061TIP3    H212069   3.908   4.007   3.260
 4062TIP3   OH212070   4.078   3.158   2.212
 4062TIP3    H112071   4.172   3.158   2.238
 4062TIP3    H212072   4.070   3.250   2.178
 4063TIP3   OH212073   3.236   3.619   2.933
 4063TIP3    H112074   3.274   3.594   2.847
 4063TIP3    H212075   3.282   3.559   2.993
 4064TIP3   OH212076   3.687   3.750   2.073
 4064TIP3    H112077   3.640   3.836   2.082
 4064TIP3    H212078   3.637   3.694   2.136
 4065TIP3   OH212079   3.117   3.543   3.547
 4065TIP3    H112080   3.138   3.527   3.641
 4065TIP3    H212081   3.050   3.475   3.530
 4066TIP3   OH212082   3.844   3.656   3.567
 4066TIP3    H112083   3.785   3.598   3.515
 4066TIP3    H212084   3.932   3.622   3.538
 4067TIP3   OH212085   4.107   4.178   3.151
 4067TIP3    H112086   4.011   4.175   3.162
 4067TIP3    H212087   4.132   4.231   3.230
 4068TIP3   OH212088   4.520   3.249   2.056
 4068TIP3    H112089   4.458   3.205   1.994
 4068TIP3    H212090   4.511   3.340   2.020
 4069TIP3   OH212091   4.735   4.108   3.138
 4069TIP3    H112092   4.637   4.102   3.130
 4069TIP3    H212093   4.760   4.077   3.049
 4070TIP3   OH212094   4.222   4.069   1.968
 4070TIP3    H112095   4.198   4.001   2.032
 4070TIP3    H212096   4.228   4.019   1.884
 4071TIP3   OH212097   4.211   3.700   2.813
 4071TIP3    H112098   4.117   3.677   2.821
 4071TIP3    H212099   4.245   3.620   2.767
 4072TIP3   OH212100   3.340   3.925   2.563
 4072TIP3    H112101   3.344   4.005   2.506
 4072TIP3    H212102   3.245   3.909   2.565
 4073TIP3   OH212103   2.900   3.235   2.249
 4073TIP3    H112104   2.953   3.314   2.277
 4073TIP3    H212105   2.827   3.237   2.315
 4074TIP3   OH212106   3.474   3.690   2.501
 4074TIP3    H112107   3.442   3.780   2.520
 4074TIP3    H212108   3.440   3.641   2.578
 4075TIP3   OH212109   3.608   4.270   3.027
 4075TIP3    H112110   3.647   4.342   2.974
 4075TIP3    H212111   3.687   4.235   3.072
 4076TIP3   OH212112   3.261   4.158   2.413
 4076TIP3    H112113   3.174   4.171   2.455
 4076TIP3    H212114   3.298   4.247   2.413
 4077TIP3   OH212115   3.997   3.905   2.985
 4077TIP3    H112116   3.989   3.899   3.083
 4077TIP3    H212117   4.072   3.846   2.969
 4078TIP3   OH212118   3.974   3.794   1.873
 4078TIP3    H112119   4.020   3.737   1.936
 4078TIP3    H212120   3.883   3.770   1.894
 4079TIP3   OH212121   4.245   4.439   3.037
 4079TIP3    H112122   4.166   4.382   3.028
 4079TIP3    H212123   4.230   4.502   2.964
 4080TIP3   OH212124   4.311   4.271   1.688
 4080TIP3    H112125   4.346   4.345   1.635
 4080TIP3    H212126   4.231   4.315   1.723
 4081TIP3   OH212127   3.330   3.049   3.555
 4081TIP3    H112128   3.233   3.050   3.566
 4081TIP3    H212129   3.357   2.987   3.624
 4082TIP3   OH212130   3.045   4.133   3.189
 4082TIP3    H112131   3.097   4.055   3.213
 4082TIP3    H212132   3.084   4.200   3.246
 4083TIP3   OH212133   3.335   3.777   1.868
 4083TIP3    H112134   3.353   3.685   1.841
 4083TIP3    H212135   3.317   3.765   1.964
 4084TIP3   OH212136   3.283   3.781   2.141
 4084TIP3    H112137   3.359   3.755   2.196
 4084TIP3    H212138   3.286   3.879   2.147
 4085TIP3   OH212139   3.016   3.474   2.344
 4085TIP3    H112140   2.956   3.523   2.404
 4085TIP3    H212141   3.029   3.543   2.275
 4086TIP3   OH212142   4.168   3.112   3.237
 4086TIP3    H112143   4.248   3.148   3.277
 4086TIP3    H212144   4.153   3.031   3.290
 4087TIP3   OH212145   4.051   2.862   2.399
 4087TIP3    H112146   4.033   2.886   2.306
 4087TIP3    H212147   4.086   2.946   2.436
 4088TIP3   OH212148   3.546   3.980   2.090
 4088TIP3    H112149   3.459   4.007   2.123
 4088TIP3    H212150   3.566   4.055   2.032
 4089TIP3   OH212151   3.737   3.041   2.501
 4089TIP3    H112152   3.801   3.113   2.479
 4089TIP3    H212153   3.744   3.039   2.599
 4090TIP3   OH212154   4.004   3.360   3.312
 4090TIP3    H112155   4.027   3.414   3.390
 4090TIP3    H212156   4.060   3.281   3.323
 4091TIP3   OH212157   3.883   2.770   2.606
 4091TIP3    H112158   3.867   2.849   2.661
 4091TIP3    H212159   3.942   2.807   2.537
 4092TIP3   OH212160   3.289   4.053   2.155
 4092TIP3    H112161   3.261   4.123   2.092
 4092TIP3    H212162   3.274   4.098   2.241
 4093TIP3   OH212163   3.393   2.768   2.396
 4093TIP3    H112164   3.390   2.859   2.431
 4093TIP3    H212165   3.489   2.751   2.403
 4094TIP3   OH212166   4.647   3.261   3.292
 4094TIP3    H112167   4.549   3.259   3.300
 4094TIP3    H212168   4.657   3.224   3.203
 4095TIP3   OH212169   4.292   3.462   2.690
 4095TIP3    H112170   4.220   3.398   2.688
 4095TIP3    H212171   4.367   3.410   2.724
 4096TIP3   OH212172   3.008   3.683   2.157
 4096TIP3    H112173   3.072   3.756   2.162
 4096TIP3    H212174   3.051   3.631   2.085
 4097TIP3   OH212175   2.949   2.963   2.286
 4097TIP3    H112176   2.951   3.060   2.271
 4097TIP3    H212177   2.878   2.934   2.227
 4098TIP3   OH212178   4.266   4.413   2.631
 4098TIP3    H112179   4.223   4.460   2.556
 4098TIP3    H212180   4.360   4.429   2.608
 4099TIP3   OH212181   3.342   2.680   3.156
 4099TIP3    H112182   3.311   2.647   3.069
 4099TIP3    H212183   3.331   2.602   3.214
 4100TIP3   OH212184   2.879   3.896   2.539
 4100TIP3    H112185   2.804   3.930   2.590
 4100TIP3    H212186   2.860   3.937   2.452
 4101TIP3   OH212187   3.038   4.439   3.611
 4101TIP3    H112188   3.125   4.437   3.656
 4101TIP3    H212189   3.018   4.344   3.606
 4102TIP3   OH212190   3.518   4.405   3.652
 4102TIP3    H112191   3.612   4.385   3.659
 4102TIP3    H212192   3.492   4.346   3.579
 4103TIP3   OH212193   3.500   3.979   1.779
 4103TIP3    H112194   3.443   3.909   1.819
 4103TIP3    H212195   3.576   3.926   1.750
 4104TIP3   OH212196   4.155   4.314   3.389
 4104TIP3    H112197   4.148   4.242   3.456
 4104TIP3    H212198   4.235   4.362   3.418
 4105TIP3   OH212199   3.937   4.018   1.693
 4105TIP3    H112200   3.979   3.955   1.754
 4105TIP3    H212201   3.997   4.016   1.616
 4106TIP3   OH212202   3.167   3.846   3.809
 4106TIP3    H112203   3.184   3.750   3.813
 4106TIP3    H212204   3.080   3.849   3.764
 4107TIP3   OH212205   3.141   3.494   2.002
 4107TIP3    H112206   3.199   3.466   2.075
 4107TIP3    H212207   3.208   3.500   1.930
 4108TIP3   OH212208   3.774   3.931   3.583
 4108TIP3    H112209   3.734   3.949   3.495
 4108TIP3    H212210   3.805   3.838   3.574
 4109TIP3   OH212211   3.652   3.694   1.806
 4109TIP3    H112212   3.658   3.706   1.904
 4109TIP3    H212213   3.655   3.596   1.800
 4110TIP3   OH212214   4.269   3.941   3.191
 4110TIP3    H112215   4.343   3.985   3.144
 4110TIP3    H212216   4.197   4.004   3.174
 4111TIP3   OH212217   3.286   3.581   3.791
 4111TIP3    H112218   3.362   3.528   3.765
 4111TIP3    H212219   3.314   3.613   3.880
 4112TIP3   OH212220   3.350   3.401   2.222
 4112TIP3    H112221   3.331   3.358   2.306
 4112TIP3    H212222   3.390   3.328   2.170
 4113TIP3   OH212223   3.622   3.465   3.452
 4113TIP3    H112224   3.544   3.525   3.453
 4113TIP3    H212225   3.672   3.499   3.374
 4114TIP3   OH212226   3.454   3.194   2.065
 4114TIP3    H112227   3.429   3.199   1.970
 4114TIP3    H212228   3.552   3.200   2.058
 4115TIP3   OH212229   4.140   3.868   3.587
 4115TIP3    H112230   4.216   3.841   3.535
 4115TIP3    H212231   4.136   3.799   3.656
 4116TIP3   OH212232   4.292   3.525   1.716
 4116TIP3    H112233   4.252   3.480   1.639
 4116TIP3    H212234   4.248   3.613   1.707
 4117TIP3   OH212235   3.745   3.254   3.579
 4117TIP3    H112236   3.746   3.174   3.523
 4117TIP3    H212237   3.702   3.319   3.520
 4118TIP3   OH212238   3.747   3.040   3.388
 4118TIP3    H112239   3.776   3.082   3.304
 4118TIP3    H212240   3.654   3.017   3.368
 4119TIP3   OH212241   3.775   3.577   3.260
 4119TIP3    H112242   3.858   3.584   3.211
 4119TIP3    H212243   3.719   3.642   3.215
 4120TIP3   OH212244   4.357   3.543   3.641
 4120TIP3    H112245   4.405   3.459   3.648
 4120TIP3    H212246   4.425   3.601   3.604
 4121TIP3   OH212247   4.398   3.796   3.379
 4121TIP3    H112248   4.340   3.849   3.319
 4121TIP3    H212249   4.486   3.816   3.338
 4122TIP3   OH212250   3.623   3.365   3.810
 4122TIP3    H112251   3.555   3.296   3.822
 4122TIP3    H212252   3.657   3.342   3.722
 4123TIP3   OH212253   3.880   2.803   3.450
 4123TIP3    H112254   3.830   2.885   3.429
 4123TIP3    H212255   3.811   2.735   3.440
 4124TIP3   OH212256   4.006   3.308   3.669
 4124TIP3    H112257   3.993   3.294   3.764
 4124TIP3    H212258   3.916   3.283   3.637
 4125TIP3   OH212259   4.246   3.259   3.524
 4125TIP3    H112260   4.170   3.258   3.586
 4125TIP3    H212261   4.319   3.226   3.581
 4126TIP3   OH212262   4.477   3.198   3.675
 4126TIP3    H112263   4.488   3.102   3.693
 4126TIP3    H212264   4.471   3.236   3.765
 4127TIP3   OH212265   3.462   3.145   3.862
 4127TIP3    H112266   3.468   3.055   3.826
 4127TIP3    H212267   3.499   3.131   3.952
 4128TIP3   OH212268   3.960   2.819   3.714
 4128TIP3    H112269   4.035   2.756   3.710
 4128TIP3    H212270   3.927   2.810   3.622
 4129TIP3   OH212271   4.041   3.029   3.870
 4129TIP3    H112272   4.017   2.958   3.806
 4129TIP3    H212273   3.963   3.088   3.863
 4130TIP3   OH212274   3.258   4.251   1.965
 4130TIP3    H112275   3.355   4.251   1.952
 4130TIP3    H212276   3.232   4.304   1.887
 4131TIP3   OH212277   2.655   4.253   2.596
 4131TIP3    H112278   2.589   4.193   2.557
 4131TIP3    H212279   2.699   4.193   2.661
 4132TIP3   OH212280   2.792   4.102   2.783
 4132TIP3    H112281   2.779   4.029   2.845
 4132TIP3    H212282   2.844   4.163   2.837
 4133TIP3   OH212283   4.521   4.499   2.586
 4133TIP3    H112284   4.547   4.535   2.673
 4133TIP3    H212285   4.579   4.547   2.525
 4134TIP3   OH212286   4.549   4.524   2.869
 4134TIP3    H112287   4.502   4.438   2.862
 4134TIP3    H212288   4.623   4.497   2.925
 4135TIP3   OH212289   4.595   4.199   3.441
 4135TIP3    H112290   4.521   4.208   3.505
 4135TIP3    H212291   4.635   4.288   3.446
 4136TIP3   OH212292   4.427   3.713   2.046
 4136TIP3    H112293   4.502   3.774   2.037
 4136TIP3    H212294   4.441   3.675   2.134
 4137TIP3   OH212295   4.546   3.581   2.262
 4137TIP3    H112296   4.482   3.529   2.316
 4137TIP3    H212297   4.598   3.625   2.331
 4138TIP3   OH212298   4.595   3.973   2.700
 4138TIP3    H112299   4.644   3.906   2.648
 4138TIP3    H212300   4.584   4.045   2.635
 4139TIP3   OH212301   4.424   4.274   2.893
 4139TIP3    H112302   4.351   4.315   2.942
 4139TIP3    H212303   4.376   4.226   2.822
 4140TIP3   OH212304   4.478   3.483   1.909
 4140TIP3    H112305   4.407   3.489   1.841
 4140TIP3    H212306   4.451   3.560   1.964
 4141TIP3   OH212307   4.361   3.153   1.858
 4141TIP3    H112308   4.305   3.204   1.799
 4141TIP3    H212309   4.328   3.062   1.844
 4142TIP3   OH212310   4.396   3.424   2.421
 4142TIP3    H112311   4.349   3.344   2.394
 4142TIP3    H212312   4.342   3.458   2.495
 4143TIP3   OH212313   2.978   3.509   3.157
 4143TIP3    H112314   2.977   3.479   3.064
 4143TIP3    H212315   3.075   3.512   3.174
 4144TIP3   OH212316   4.641   3.861   3.269
 4144TIP3    H112317   4.714   3.795   3.258
 4144TIP3    H212318   4.665   3.929   3.204
 4145TIP3   OH212319   4.827   3.666   3.284
 4145TIP3    H112320   4.752   3.616   3.323
 4145TIP3    H212321   4.899   3.601   3.299
 4146TIP3   OH212322   4.293   2.887   1.845
 4146TIP3    H112323   4.363   2.863   1.909
 4146TIP3    H212324   4.215   2.837   1.875
 4147TIP3   OH212325   4.340   3.149   2.310
 4147TIP3    H112326   4.389   3.064   2.319
 4147TIP3    H212327   4.394   3.193   2.243
 4148TIP3   OH212328   4.510   3.321   2.801
 4148TIP3    H112329   4.595   3.349   2.758
 4148TIP3    H212330   4.523   3.362   2.888
 4149TIP3   OH212331   4.580   3.470   3.032
 4149TIP3    H112332   4.501   3.504   3.079
 4149TIP3    H212333   4.611   3.551   2.987
 4150TIP3   OH212334   3.195   3.197   3.835
 4150TIP3    H112335   3.293   3.190   3.834
 4150TIP3    H212336   3.172   3.110   3.874
 4151TIP3   OH212337   5.033   3.063   3.589
 4151TIP3    H112338   5.090   2.997   3.545
 4151TIP3    H212339   5.002   3.116   3.513
 4152TIP3   OH212340   4.463   2.901   2.340
 4152TIP3    H112341   4.506   2.887   2.427
 4152TIP3    H212342   4.398   2.827   2.340
 4153TIP3   OH212343   3.158   2.889   3.166
 4153TIP3    H112344   3.220   2.813   3.173
 4153TIP3    H212345   3.220   2.963   3.157
 4154TIP3   OH212346   2.960   3.163   3.237
 4154TIP3    H112347   3.008   3.154   3.152
 4154TIP3    H212348   2.991   3.249   3.266
 4155TIP3   OH212349   4.901   3.201   3.395
 4155TIP3    H112350   4.815   3.242   3.416
 4155TIP3    H212351   4.871   3.130   3.336
 4156TIP3   OH212352   4.539   2.835   1.980
 4156TIP3    H112353   4.578   2.767   1.922
 4156TIP3    H212354   4.602   2.909   1.971
 4157TIP3   OH212355   2.943   2.679   2.748
 4157TIP3    H112356   2.848   2.661   2.758
 4157TIP3    H212357   2.945   2.726   2.662
 4158TIP3   OH212358   4.110   4.361   2.246
 4158TIP3    H112359   4.156   4.351   2.160
 4158TIP3    H212360   4.154   4.439   2.282
 4159TIP3   OH212361   3.164   2.749   3.553
 4159TIP3    H112362   3.111   2.740   3.634
 4159TIP3    H212363   3.098   2.784   3.491
 4160TIP3   OH212364   3.202   4.178   3.629
 4160TIP3    H112365   3.112   4.146   3.610
 4160TIP3    H212366   3.213   4.152   3.721
 4161TIP3   OH212367   3.382   4.207   3.177
 4161TIP3    H112368   3.336   4.283   3.136
 4161TIP3    H212369   3.468   4.218   3.131
 4162TIP3   OH212370   3.825   4.451   3.315
 4162TIP3    H112371   3.869   4.451   3.403
 4162TIP3    H212372   3.891   4.500   3.262
 4163TIP3   OH212373   4.004   4.602   3.173
 4163TIP3    H112374   4.072   4.551   3.127
 4163TIP3    H212375   4.058   4.657   3.233
 4164TIP3   OH212376   4.801   2.966   3.272
 4164TIP3    H112377   4.710   2.962   3.238
 4164TIP3    H212378   4.829   2.872   3.260
 4165TIP3   OH212379   3.057   4.464   3.198
 4165TIP3    H112380   2.969   4.499   3.173
 4165TIP3    H212381   3.062   4.493   3.289
 4166TIP3   OH212382   3.296   4.441   3.058
 4166TIP3    H112383   3.208   4.455   3.099
 4166TIP3    H212384   3.279   4.472   2.967
 4167TIP3   OH212385   3.723   4.468   2.861
 4167TIP3    H112386   3.653   4.482   2.794
 4167TIP3    H212387   3.735   4.560   2.892
 4168TIP3   OH212388   3.991   4.411   2.911
 4168TIP3    H112389   3.896   4.424   2.890
 4168TIP3    H212390   4.031   4.482   2.858
 4169TIP3   OH212391   4.202   4.604   2.822
 4169TIP3    H112392   4.182   4.687   2.772
 4169TIP3    H212393   4.224   4.542   2.749
 4170TIP3   OH212394   2.967   4.255   2.945
 4170TIP3    H112395   2.996   4.230   3.036
 4170TIP3    H212396   3.039   4.213   2.893
 4171TIP3   OH212397   3.159   4.127   2.803
 4171TIP3    H112398   3.178   4.043   2.850
 4171TIP3    H212399   3.250   4.164   2.796
 4172TIP3   OH212400   3.421   4.214   2.805
 4172TIP3    H112401   3.459   4.125   2.796
 4172TIP3    H212402   3.470   4.246   2.883
 4173TIP3   OH212403   4.009   2.881   2.897
 4173TIP3    H112404   3.961   2.812   2.946
 4173TIP3    H212405   4.076   2.830   2.848
 4174TIP3   OH212406   4.529   2.753   2.799
 4174TIP3    H112407   4.567   2.808   2.727
 4174TIP3    H212408   4.435   2.777   2.795
 4175TIP3   OH212409   4.623   2.855   2.562
 4175TIP3    H112410   4.697   2.808   2.517
 4175TIP3    H212411   4.653   2.948   2.549
 4176TIP3   OH212412   3.254   2.588   2.909
 4176TIP3    H112413   3.161   2.557   2.908
 4176TIP3    H212414   3.302   2.502   2.903
 4177TIP3   OH212415   3.055   2.453   2.559
 4177TIP3    H112416   3.072   2.510   2.482
 4177TIP3    H212417   3.005   2.514   2.616
 4178TIP3   OH212418   3.700   2.617   2.788
 4178TIP3    H112419   3.755   2.670   2.729
 4178TIP3    H212420   3.716   2.659   2.874
 4179TIP3   OH212421   4.249   2.765   2.774
 4179TIP3    H112422   4.232   2.738   2.682
 4179TIP3    H212423   4.229   2.682   2.824
 4180TIP3   OH212424   4.274   2.690   2.335
 4180TIP3    H112425   4.189   2.738   2.346
 4180TIP3    H212426   4.254   2.605   2.379
 4181TIP3   OH212427   2.755   4.033   2.339
 4181TIP3    H112428   2.669   4.004   2.303
 4181TIP3    H212429   2.750   4.126   2.312
 4182TIP3   OH212430   3.157   2.617   2.317
 4182TIP3    H112431   3.206   2.554   2.260
 4182TIP3    H212432   3.230   2.670   2.355
 4183TIP3   OH212433   3.670   2.790   2.418
 4183TIP3    H112434   3.731   2.745   2.479
 4183TIP3    H212435   3.691   2.884   2.442
 4184TIP3   OH212436   3.528   4.215   1.918
 4184TIP3    H112437   3.616   4.240   1.883
 4184TIP3    H212438   3.508   4.140   1.857
 4185TIP3   OH212439   4.251   4.336   2.009
 4185TIP3    H112440   4.242   4.238   1.998
 4185TIP3    H212441   4.201   4.367   1.930
 4186TIP3   OH212442   3.461   2.870   3.801
 4186TIP3    H112443   3.428   2.797   3.856
 4186TIP3    H212444   3.556   2.869   3.826
 4187TIP3   OH212445   3.712   2.867   3.917
 4187TIP3    H112446   3.795   2.843   3.872
 4187TIP3    H212447   3.702   2.794   3.982
 4188TIP3   OH212448   2.829   4.044   1.975
 4188TIP3    H112449   2.829   4.087   2.061
 4188TIP3    H212450   2.922   4.012   1.966
 4189TIP3   OH212451   4.536   2.927   3.706
 4189TIP3    H112452   4.553   2.895   3.797
 4189TIP3    H212453   4.624   2.920   3.666
 4190TIP3   OH212454   4.474   4.479   3.199
 4190TIP3    H112455   4.396   4.447   3.149
 4190TIP3    H212456   4.453   4.575   3.201
 4191TIP3   OH212457   5.741   3.852   1.963
 4191TIP3    H112458   5.712   3.944   1.943
 4191TIP3    H212459   5.665   3.802   1.931
 4192TIP3   OH212460   5.742   3.851   2.344
 4192TIP3    H112461   5.772   3.822   2.432
 4192TIP3    H212462   5.698   3.772   2.311
 4193TIP3   OH212463   5.041   3.747   2.708
 4193TIP3    H112464   5.071   3.679   2.771
 4193TIP3    H212465   5.119   3.803   2.702
 4194TIP3   OH212466   5.985   4.154   2.026
 4194TIP3    H112467   5.967   4.085   2.091
 4194TIP3    H212468   6.012   4.228   2.082
 4195TIP3   OH212469   5.011   4.159   2.437
 4195TIP3    H112470   5.002   4.061   2.438
 4195TIP3    H212471   5.108   4.167   2.430
 4196TIP3   OH212472   4.719   3.362   2.221
 4196TIP3    H112473   4.668   3.444   2.237
 4196TIP3    H212474   4.649   3.307   2.183
 4197TIP3   OH212475   4.784   3.653   2.397
 4197TIP3    H112476   4.828   3.572   2.430
 4197TIP3    H212477   4.827   3.667   2.312
 4198TIP3   OH212478   5.634   4.617   2.043
 4198TIP3    H112479   5.679   4.545   1.994
 4198TIP3    H212480   5.623   4.578   2.130
 4199TIP3   OH212481   5.538   4.078   2.393
 4199TIP3    H112482   5.575   4.002   2.346
 4199TIP3    H212483   5.622   4.122   2.418
 4200TIP3   OH212484   6.552   3.397   2.391
 4200TIP3    H112485   6.581   3.480   2.434
 4200TIP3    H212486   6.573   3.416   2.298
 4201TIP3   OH212487   5.952   3.579   2.426
 4201TIP3    H112488   5.993   3.493   2.445
 4201TIP3    H212489   5.920   3.564   2.335
 4202TIP3   OH212490   5.290   3.238   2.390
 4202TIP3    H112491   5.268   3.311   2.329
 4202TIP3    H212492   5.242   3.165   2.347
 4203TIP3   OH212493   5.983   3.330   2.013
 4203TIP3    H112494   6.055   3.313   2.078
 4203TIP3    H212495   6.035   3.365   1.939
 4204TIP3   OH212496   4.921   3.438   2.499
 4204TIP3    H112497   5.005   3.419   2.545
 4204TIP3    H212498   4.933   3.383   2.419
 4205TIP3   OH212499   5.363   3.638   2.290
 4205TIP3    H112500   5.456   3.612   2.304
 4205TIP3    H212501   5.323   3.554   2.258
 4206TIP3   OH212502   6.625   3.605   2.561
 4206TIP3    H112503   6.541   3.652   2.541
 4206TIP3    H212504   6.639   3.632   2.653
 4207TIP3   OH212505   5.285   3.222   2.826
 4207TIP3    H112506   5.226   3.259   2.758
 4207TIP3    H212507   5.233   3.240   2.907
 4208TIP3   OH212508   5.636   4.075   1.831
 4208TIP3    H112509   5.588   4.051   1.750
 4208TIP3    H212510   5.589   4.158   1.857
 4209TIP3   OH212511   5.393   3.998   2.621
 4209TIP3    H112512   5.329   4.063   2.658
 4209TIP3    H212513   5.433   4.048   2.548
 4210TIP3   OH212514   6.194   3.331   2.185
 4210TIP3    H112515   6.180   3.284   2.268
 4210TIP3    H212516   6.246   3.409   2.213
 4211TIP3   OH212517   5.157   3.336   2.610
 4211TIP3    H112518   5.219   3.409   2.633
 4211TIP3    H212519   5.206   3.296   2.534
 4212TIP3   OH212520   5.220   4.191   2.719
 4212TIP3    H112521   5.193   4.276   2.679
 4212TIP3    H212522   5.141   4.174   2.775
 4213TIP3   OH212523   4.630   3.885   1.954
 4213TIP3    H112524   4.570   3.905   1.880
 4213TIP3    H212525   4.651   3.974   1.989
 4214TIP3   OH212526   6.055   4.397   2.194
 4214TIP3    H112527   5.965   4.387   2.234
 4214TIP3    H212528   6.045   4.483   2.149
 4215TIP3   OH212529   6.345   3.297   2.557
 4215TIP3    H112530   6.257   3.325   2.527
 4215TIP3    H212531   6.404   3.329   2.486
 4216TIP3   OH212532   5.643   2.942   2.540
 4216TIP3    H112533   5.627   2.847   2.555
 4216TIP3    H212534   5.565   2.980   2.586
 4217TIP3   OH212535   5.757   4.443   1.870
 4217TIP3    H112536   5.806   4.360   1.849
 4217TIP3    H212537   5.818   4.508   1.827
 4218TIP3   OH212538   5.900   4.228   1.774
 4218TIP3    H112539   5.854   4.151   1.740
 4218TIP3    H212540   5.936   4.193   1.858
 4219TIP3   OH212541   6.280   4.310   2.537
 4219TIP3    H112542   6.268   4.232   2.479
 4219TIP3    H212543   6.262   4.384   2.476
 4220TIP3   OH212544   5.572   3.703   1.795
 4220TIP3    H112545   5.491   3.754   1.775
 4220TIP3    H212546   5.616   3.700   1.708
 4221TIP3   OH212547   5.530   3.488   1.511
 4221TIP3    H112548   5.598   3.539   1.559
 4221TIP3    H212549   5.587   3.424   1.464
 4222TIP3   OH212550   6.475   3.947   2.382
 4222TIP3    H112551   6.392   3.998   2.388
 4222TIP3    H212552   6.504   3.971   2.292
 4223TIP3   OH212553   5.919   3.787   1.766
 4223TIP3    H112554   5.864   3.811   1.844
 4223TIP3    H212555   6.003   3.761   1.811
 4224TIP3   OH212556   6.154   3.825   2.678
 4224TIP3    H112557   6.151   3.909   2.728
 4224TIP3    H212558   6.067   3.828   2.633
 4225TIP3   OH212559   5.151   3.784   2.182
 4225TIP3    H112560   5.108   3.726   2.115
 4225TIP3    H212561   5.227   3.729   2.211
 4226TIP3   OH212562   5.282   4.197   2.331
 4226TIP3    H112563   5.258   4.154   2.247
 4226TIP3    H212564   5.371   4.161   2.348
 4227TIP3   OH212565   5.294   3.752   2.540
 4227TIP3    H112566   5.320   3.733   2.448
 4227TIP3    H212567   5.332   3.841   2.557
 4228TIP3   OH212568   5.814   4.392   2.315
 4228TIP3    H112569   5.799   4.472   2.369
 4228TIP3    H212570   5.798   4.319   2.378
 4229TIP3   OH212571   5.425   4.312   2.862
 4229TIP3    H112572   5.365   4.374   2.908
 4229TIP3    H212573   5.360   4.258   2.812
 4230TIP3   OH212574   5.760   3.643   1.593
 4230TIP3    H112575   5.818   3.704   1.644
 4230TIP3    H212576   5.786   3.666   1.500
 4231TIP3   OH212577   5.180   3.867   2.964
 4231TIP3    H112578   5.184   3.954   3.007
 4231TIP3    H212579   5.085   3.847   2.973
 4232TIP3   OH212580   5.504   4.322   1.868
 4232TIP3    H112581   5.581   4.378   1.885
 4232TIP3    H212582   5.441   4.383   1.828
 4233TIP3   OH212583   5.220   4.480   2.949
 4233TIP3    H112584   5.185   4.479   2.858
 4233TIP3    H212585   5.140   4.458   3.002
 4234TIP3   OH212586   6.275   2.884   1.641
 4234TIP3    H112587   6.194   2.905   1.691
 4234TIP3    H212588   6.288   2.968   1.592
 4235TIP3   OH212589   5.018   3.626   1.988
 4235TIP3    H112590   4.952   3.672   1.931
 4235TIP3    H212591   4.973   3.541   2.002
 4236TIP3   OH212592   6.073   4.252   1.187
 4236TIP3    H112593   6.082   4.349   1.176
 4236TIP3    H212594   6.166   4.223   1.176
 4237TIP3   OH212595   4.799   4.011   2.895
 4237TIP3    H112596   4.732   3.991   2.826
 4237TIP3    H212597   4.835   3.922   2.916
 4238TIP3   OH212598   4.652   4.203   2.528
 4238TIP3    H112599   4.748   4.199   2.519
 4238TIP3    H212600   4.640   4.284   2.581
 4239TIP3   OH212601   6.517   4.654   2.583
 4239TIP3    H112602   6.516   4.558   2.598
 4239TIP3    H212603   6.434   4.680   2.629
 4240TIP3   OH212604   5.623   4.440   2.719
 4240TIP3    H112605   5.622   4.533   2.751
 4240TIP3    H212606   5.551   4.400   2.773
 4241TIP3   OH212607   5.386   4.571   1.669
 4241TIP3    H112608   5.337   4.550   1.588
 4241TIP3    H212609   5.350   4.658   1.694
 4242TIP3   OH212610   4.823   4.419   2.054
 4242TIP3    H112611   4.867   4.409   2.141
 4242TIP3    H212612   4.767   4.339   2.053
 4243TIP3   OH212613   5.586   4.472   1.310
 4243TIP3    H112614   5.645   4.401   1.275
 4243TIP3    H212615   5.618   4.480   1.402
 4244TIP3   OH212616   5.636   4.518   1.580
 4244TIP3    H112617   5.547   4.529   1.620
 4244TIP3    H212618   5.684   4.476   1.653
 4245TIP3   OH212619   6.407   3.786   2.858
 4245TIP3    H112620   6.325   3.798   2.808
 4245TIP3    H212621   6.422   3.689   2.848
 4246TIP3   OH212622   5.003   4.194   2.885
 4246TIP3    H112623   5.053   4.175   2.967
 4246TIP3    H212624   4.929   4.130   2.891
 4247TIP3   OH212625   5.404   3.017   2.668
 4247TIP3    H112626   5.315   2.986   2.642
 4247TIP3    H212627   5.379   3.099   2.714
 4248TIP3   OH212628   5.936   3.132   2.862
 4248TIP3    H112629   6.004   3.104   2.927
 4248TIP3    H212630   5.852   3.112   2.909
 4249TIP3   OH212631   6.177   3.562   2.782
 4249TIP3    H112632   6.126   3.558   2.866
 4249TIP3    H212633   6.151   3.648   2.745
 4250TIP3   OH212634   5.837   3.691   1.338
 4250TIP3    H112635   5.802   3.665   1.251
 4250TIP3    H212636   5.917   3.740   1.312
 4251TIP3   OH212637   5.549   3.064   1.639
 4251TIP3    H112638   5.515   3.062   1.731
 4251TIP3    H212639   5.509   2.983   1.604
 4252TIP3   OH212640   5.336   3.530   2.688
 4252TIP3    H112641   5.284   3.552   2.768
 4252TIP3    H212642   5.322   3.611   2.634
 4253TIP3   OH212643   5.218   3.418   2.201
 4253TIP3    H112644   5.125   3.393   2.218
 4253TIP3    H212645   5.230   3.378   2.112
 4254TIP3   OH212646   5.710   3.505   1.929
 4254TIP3    H112647   5.656   3.576   1.887
 4254TIP3    H212648   5.763   3.473   1.854
 4255TIP3   OH212649   5.883   3.782   3.014
 4255TIP3    H112650   5.861   3.710   3.077
 4255TIP3    H212651   5.977   3.796   3.036
 4256TIP3   OH212652   5.866   3.533   2.167
 4256TIP3    H112653   5.805   3.562   2.096
 4256TIP3    H212654   5.899   3.451   2.124
 4257TIP3   OH212655   5.155   3.561   2.895
 4257TIP3    H112656   5.177   3.626   2.964
 4257TIP3    H212657   5.142   3.479   2.946
 4258TIP3   OH212658   5.205   3.039   1.605
 4258TIP3    H112659   5.194   3.037   1.702
 4258TIP3    H212660   5.126   3.091   1.579
 4259TIP3   OH212661   4.747   3.077   2.479
 4259TIP3    H112662   4.822   3.114   2.530
 4259TIP3    H212663   4.786   3.055   2.394
 4260TIP3   OH212664   4.721   3.066   1.995
 4260TIP3    H112665   4.765   3.105   1.916
 4260TIP3    H212666   4.658   3.138   2.016
 4261TIP3   OH212667   5.878   3.779   2.590
 4261TIP3    H112668   5.910   3.707   2.532
 4261TIP3    H212669   5.847   3.726   2.667
 4262TIP3   OH212670   5.546   3.239   2.262
 4262TIP3    H112671   5.463   3.239   2.312
 4262TIP3    H212672   5.612   3.240   2.333
 4263TIP3   OH212673   4.979   3.297   2.269
 4263TIP3    H112674   4.885   3.308   2.242
 4263TIP3    H212675   4.999   3.205   2.244
 4264TIP3   OH212676   5.250   3.292   1.959
 4264TIP3    H112677   5.343   3.309   1.935
 4264TIP3    H212678   5.200   3.314   1.876
 4265TIP3   OH212679   6.037   3.315   2.463
 4265TIP3    H112680   6.004   3.328   2.555
 4265TIP3    H212681   5.970   3.255   2.428
 4266TIP3   OH212682   5.093   3.324   1.739
 4266TIP3    H112683   5.018   3.282   1.693
 4266TIP3    H212684   5.143   3.360   1.662
 4267TIP3   OH212685   6.208   5.005   2.683
 4267TIP3    H112686   6.206   5.029   2.588
 4267TIP3    H212687   6.287   5.054   2.714
 4268TIP3   OH212688   5.165   4.115   3.104
 4268TIP3    H112689   5.244   4.145   3.153
 4268TIP3    H212690   5.100   4.113   3.177
 4269TIP3   OH212691   5.629   3.568   2.360
 4269TIP3    H112692   5.701   3.529   2.310
 4269TIP3    H212693   5.637   3.526   2.447
 4270TIP3   OH212694   5.155   3.056   2.238
 4270TIP3    H112695   5.118   2.977   2.284
 4270TIP3    H212696   5.198   3.017   2.161
 4271TIP3   OH212697   5.606   3.465   2.649
 4271TIP3    H112698   5.515   3.500   2.663
 4271TIP3    H212699   5.662   3.527   2.700
 4272TIP3   OH212700   5.343   3.856   1.745
 4272TIP3    H112701   5.271   3.790   1.733
 4272TIP3    H212702   5.323   3.890   1.836
 4273TIP3   OH212703   6.242   4.092   2.373
 4273TIP3    H112704   6.265   4.142   2.292
 4273TIP3    H212705   6.157   4.050   2.349
 4274TIP3   OH212706   5.800   3.167   1.607
 4274TIP3    H112707   5.704   3.150   1.615
 4274TIP3    H212708   5.808   3.262   1.631
 4275TIP3   OH212709   5.745   4.176   2.740
 4275TIP3    H112710   5.763   4.152   2.832
 4275TIP3    H212711   5.702   4.263   2.749
 4276TIP3   OH212712   5.869   3.416   1.711
 4276TIP3    H112713   5.966   3.423   1.725
 4276TIP3    H212714   5.850   3.495   1.658
 4277TIP3   OH212715   5.041   3.885   2.421
 4277TIP3    H112716   5.073   3.851   2.335
 4277TIP3    H212717   5.066   3.814   2.481
 4278TIP3   OH212718   5.487   4.006   1.566
 4278TIP3    H112719   5.439   4.092   1.571
 4278TIP3    H212720   5.432   3.951   1.626
 4279TIP3   OH212721   4.915   3.797   3.032
 4279TIP3    H112722   4.932   3.782   3.127
 4279TIP3    H212723   4.844   3.733   3.014
 4280TIP3   OH212724   5.640   3.913   3.053
 4280TIP3    H112725   5.579   3.854   3.005
 4280TIP3    H212726   5.727   3.878   3.024
 4281TIP3   OH212727   5.902   4.436   2.636
 4281TIP3    H112728   5.806   4.432   2.649
 4281TIP3    H212729   5.929   4.487   2.715
 4282TIP3   OH212730   6.312   3.506   1.545
 4282TIP3    H112731   6.250   3.461   1.483
 4282TIP3    H212732   6.308   3.595   1.505
 4283TIP3   OH212733   6.530   4.364   2.626
 4283TIP3    H112734   6.432   4.358   2.618
 4283TIP3    H212735   6.556   4.334   2.536
 4284TIP3   OH212736   6.016   4.325   1.455
 4284TIP3    H112737   5.984   4.258   1.518
 4284TIP3    H212738   6.022   4.275   1.371
 4285TIP3   OH212739   6.008   3.954   2.292
 4285TIP3    H112740   5.915   3.929   2.305
 4285TIP3    H212741   6.042   3.874   2.247
 4286TIP3   OH212742   5.135   4.182   2.044
 4286TIP3    H112743   5.132   4.263   1.991
 4286TIP3    H212744   5.041   4.163   2.055
 4287TIP3   OH212745   4.700   3.486   1.749
 4287TIP3    H112746   4.742   3.571   1.770
 4287TIP3    H212747   4.621   3.489   1.808
 4288TIP3   OH212748   5.275   3.949   1.990
 4288TIP3    H112749   5.238   4.038   2.008
 4288TIP3    H212750   5.237   3.897   2.063
 4289TIP3   OH212751   5.404   4.526   2.514
 4289TIP3    H112752   5.446   4.598   2.463
 4289TIP3    H212753   5.481   4.490   2.562
 4290TIP3   OH212754   5.055   4.420   1.897
 4290TIP3    H112755   4.969   4.428   1.943
 4290TIP3    H212756   5.085   4.514   1.900
 4291TIP3   OH212757   5.793   4.160   2.472
 4291TIP3    H112758   5.783   4.159   2.570
 4291TIP3    H212759   5.872   4.105   2.460
 4292TIP3   OH212760   5.767   4.054   1.354
 4292TIP3    H112761   5.819   4.028   1.433
 4292TIP3    H212762   5.679   4.026   1.381
 4293TIP3   OH212763   6.042   4.693   2.523
 4293TIP3    H112764   5.963   4.636   2.517
 4293TIP3    H212765   6.025   4.757   2.451
 4294TIP3   OH212766   6.107   4.528   1.175
 4294TIP3    H112767   6.138   4.601   1.119
 4294TIP3    H212768   6.027   4.570   1.212
 4295TIP3   OH212769   5.125   3.304   3.041
 4295TIP3    H112770   5.029   3.308   3.054
 4295TIP3    H212771   5.152   3.244   3.113
 4296TIP3   OH212772   5.927   3.986   1.569
 4296TIP3    H112773   5.916   3.921   1.642
 4296TIP3    H212774   6.025   3.983   1.559
 4297TIP3   OH212775   4.844   4.389   2.673
 4297TIP3    H112776   4.894   4.311   2.702
 4297TIP3    H212777   4.873   4.455   2.737
 4298TIP3   OH212778   5.135   4.033   1.354
 4298TIP3    H112779   5.146   3.940   1.326
 4298TIP3    H212780   5.115   4.022   1.449
 4299TIP3   OH212781   5.080   4.039   1.625
 4299TIP3    H112782   5.148   4.010   1.688
 4299TIP3    H212783   5.083   4.136   1.634
 4300TIP3   OH212784   4.819   3.732   1.828
 4300TIP3    H112785   4.753   3.776   1.887
 4300TIP3    H212786   4.828   3.801   1.760
 4301TIP3   OH212787   5.964   3.368   2.722
 4301TIP3    H112788   6.044   3.406   2.763
 4301TIP3    H212789   5.949   3.287   2.776
 4302TIP3   OH212790   5.844   3.118   1.888
 4302TIP3    H112791   5.829   3.141   1.794
 4302TIP3    H212792   5.882   3.202   1.923
 4303TIP3   OH212793   5.346   4.237   1.576
 4303TIP3    H112794   5.259   4.261   1.613
 4303TIP3    H212795   5.358   4.308   1.512
 4304TIP3   OH212796   5.535   3.298   1.990
 4304TIP3    H112797   5.598   3.371   1.973
 4304TIP3    H212798   5.538   3.292   2.087
 4305TIP3   OH212799   5.802   3.618   2.797
 4305TIP3    H112800   5.822   3.672   2.876
 4305TIP3    H212801   5.856   3.539   2.812
 4306TIP3   OH212802   5.677   3.026   2.093
 4306TIP3    H112803   5.666   3.104   2.150
 4306TIP3    H212804   5.737   3.061   2.024
 4307TIP3   OH212805   5.090   4.311   1.644
 4307TIP3    H112806   5.058   4.380   1.581
 4307TIP3    H212807   5.072   4.354   1.730
 4308TIP3   OH212808   5.188   3.024   1.883
 4308TIP3    H112809   5.185   3.115   1.917
 4308TIP3    H212810   5.285   3.007   1.890
 4309TIP3   OH212811   6.443   3.518   2.778
 4309TIP3    H112812   6.345   3.517   2.786
 4309TIP3    H212813   6.452   3.476   2.691
 4310TIP3   OH212814   6.094   3.712   2.166
 4310TIP3    H112815   6.017   3.653   2.178
 4310TIP3    H212816   6.164   3.665   2.214
 4311TIP3   OH212817   4.806   3.940   1.636
 4311TIP3    H112818   4.871   4.012   1.644
 4311TIP3    H212819   4.851   3.886   1.568
 4312TIP3   OH212820   4.750   3.216   1.767
 4312TIP3    H112821   4.749   3.314   1.766
 4312TIP3    H212822   4.661   3.196   1.735
 4313TIP3   OH212823   6.061   4.669   2.116
 4313TIP3    H112824   6.019   4.715   2.040
 4313TIP3    H212825   6.156   4.687   2.094
 4314TIP3   OH212826   5.140   2.936   2.643
 4314TIP3    H112827   5.107   2.905   2.556
 4314TIP3    H212828   5.127   2.858   2.700
 4315TIP3   OH212829   4.679   4.163   2.025
 4315TIP3    H112830   4.606   4.189   2.082
 4315TIP3    H212831   4.648   4.199   1.938
 4316TIP3   OH212832   4.832   4.697   3.096
 4316TIP3    H112833   4.919   4.694   3.141
 4316TIP3    H212834   4.810   4.602   3.093
 4317TIP3   OH212835   5.316   4.662   3.139
 4317TIP3    H112836   5.410   4.640   3.146
 4317TIP3    H212837   5.289   4.602   3.066
 4318TIP3   OH212838   5.297   4.237   1.268
 4318TIP3    H112839   5.240   4.166   1.306
 4318TIP3    H212840   5.371   4.183   1.235
 4319TIP3   OH212841   5.954   4.568   2.873
 4319TIP3    H112842   5.945   4.498   2.941
 4319TIP3    H212843   6.032   4.618   2.904
 4320TIP3   OH212844   5.734   4.278   1.180
 4320TIP3    H112845   5.774   4.211   1.238
 4320TIP3    H212846   5.791   4.275   1.101
 4321TIP3   OH212847   4.964   4.103   3.295
 4321TIP3    H112848   4.980   4.007   3.300
 4321TIP3    H212849   4.876   4.106   3.251
 4322TIP3   OH212850   4.942   3.755   1.487
 4322TIP3    H112851   4.994   3.721   1.561
 4322TIP3    H212852   5.010   3.759   1.416
 4323TIP3   OH212853   5.572   4.188   3.069
 4323TIP3    H112854   5.529   4.205   2.982
 4323TIP3    H212855   5.602   4.095   3.061
 4324TIP3   OH212856   5.455   3.954   1.296
 4324TIP3    H112857   5.453   3.965   1.393
 4324TIP3    H212858   5.452   3.856   1.290
 4325TIP3   OH212859   6.065   4.196   2.675
 4325TIP3    H112860   6.138   4.242   2.631
 4325TIP3    H212861   5.992   4.259   2.662
 4326TIP3   OH212862   5.083   3.839   3.278
 4326TIP3    H112863   5.157   3.781   3.256
 4326TIP3    H212864   5.109   3.871   3.367
 4327TIP3   OH212865   5.153   3.658   1.713
 4327TIP3    H112866   5.120   3.617   1.794
 4327TIP3    H212867   5.186   3.580   1.662
 4328TIP3   OH212868   5.420   3.724   2.941
 4328TIP3    H112869   5.340   3.781   2.942
 4328TIP3    H212870   5.468   3.757   2.862
 4329TIP3   OH212871   5.249   3.450   1.551
 4329TIP3    H112872   5.222   3.455   1.457
 4329TIP3    H212873   5.347   3.456   1.543
 4330TIP3   OH212874   5.935   4.124   3.073
 4330TIP3    H112875   6.015   4.099   3.025
 4330TIP3    H212876   5.931   4.057   3.144
 4331TIP3   OH212877   6.074   3.783   1.213
 4331TIP3    H112878   6.051   3.736   1.131
 4331TIP3    H212879   6.040   3.873   1.190
 4332TIP3   OH212880   5.542   3.510   3.064
 4332TIP3    H112881   5.541   3.431   3.008
 4332TIP3    H212882   5.498   3.577   3.007
 4333TIP3   OH212883   5.544   3.296   2.872
 4333TIP3    H112884   5.571   3.338   2.788
 4333TIP3    H212885   5.450   3.274   2.854
 4334TIP3   OH212886   5.572   3.833   2.746
 4334TIP3    H112887   5.654   3.842   2.696
 4334TIP3    H212888   5.514   3.898   2.701
 4335TIP3   OH212889   6.153   3.799   3.127
 4335TIP3    H112890   6.202   3.716   3.137
 4335TIP3    H212891   6.221   3.858   3.092
 4336TIP3   OH212892   6.195   4.052   2.863
 4336TIP3    H112893   6.136   4.105   2.804
 4336TIP3    H212894   6.282   4.072   2.823
 4337TIP3   OH212895   5.421   3.621   3.296
 4337TIP3    H112896   5.351   3.553   3.310
 4337TIP3    H212897   5.454   3.597   3.208
 4338TIP3   OH212898   5.676   3.060   2.939
 4338TIP3    H112899   5.627   3.142   2.917
 4338TIP3    H212900   5.607   2.992   2.928
 4339TIP3   OH212901   5.802   3.564   3.156
 4339TIP3    H112902   5.789   3.552   3.251
 4339TIP3    H212903   5.713   3.540   3.124
 4340TIP3   OH212904   6.041   3.513   3.010
 4340TIP3    H112905   5.966   3.515   3.072
 4340TIP3    H212906   6.115   3.483   3.067
 4341TIP3   OH212907   6.271   3.454   3.161
 4341TIP3    H112908   6.283   3.359   3.179
 4341TIP3    H212909   6.267   3.493   3.251
 4342TIP3   OH212910   5.259   3.402   3.348
 4342TIP3    H112911   5.264   3.311   3.313
 4342TIP3    H212912   5.294   3.389   3.438
 4343TIP3   OH212913   5.771   3.069   3.197
 4343TIP3    H112914   5.838   2.998   3.191
 4343TIP3    H212915   5.730   3.064   3.108
 4344TIP3   OH212916   5.836   3.284   3.357
 4344TIP3    H112917   5.814   3.214   3.292
 4344TIP3    H212918   5.759   3.343   3.350
 4345TIP3   OH212919   5.058   4.515   1.457
 4345TIP3    H112920   5.153   4.510   1.436
 4345TIP3    H212921   5.026   4.562   1.378
 4346TIP3   OH212922   4.535   3.898   1.666
 4346TIP3    H112923   4.631   3.917   1.658
 4346TIP3    H212924   4.530   3.808   1.629
 4347TIP3   OH212925   4.453   4.508   2.084
 4347TIP3    H112926   4.385   4.447   2.048
 4347TIP3    H212927   4.496   4.451   2.151
 4348TIP3   OH212928   4.587   4.360   2.273
 4348TIP3    H112929   4.572   4.286   2.333
 4348TIP3    H212930   4.638   4.420   2.331
 4349TIP3   OH212931   6.315   4.759   2.072
 4349TIP3    H112932   6.340   4.790   2.161
 4349TIP3    H212933   6.378   4.806   2.015
 4350TIP3   OH212934   6.345   4.779   2.353
 4350TIP3    H112935   6.300   4.692   2.350
 4350TIP3    H212936   6.418   4.756   2.412
 4351TIP3   OH212937   6.390   4.456   2.927
 4351TIP3    H112938   6.317   4.464   2.992
 4351TIP3    H212939   6.432   4.544   2.932
 4352TIP3   OH212940   6.208   3.969   1.548
 4352TIP3    H112941   6.276   4.033   1.521
 4352TIP3    H212942   6.249   3.929   1.628
 4353TIP3   OH212943   6.334   3.837   1.752
 4353TIP3    H112944   6.268   3.794   1.810
 4353TIP3    H212945   6.398   3.874   1.816
 4354TIP3   OH212946   6.389   4.229   2.184
 4354TIP3    H112947   6.442   4.163   2.134
 4354TIP3    H212948   6.380   4.301   2.119
 4355TIP3   OH212949   6.220   4.530   2.378
 4355TIP3    H112950   6.148   4.571   2.430
 4355TIP3    H212951   6.169   4.482   2.308
 4356TIP3   OH212952   6.273   3.744   1.398
 4356TIP3    H112953   6.201   3.746   1.330
 4356TIP3    H212954   6.244   3.820   1.453
 4357TIP3   OH212955   6.145   3.417   1.350
 4357TIP3    H112956   6.098   3.454   1.275
 4357TIP3    H212957   6.120   3.322   1.343
 4358TIP3   OH212958   6.149   3.693   1.897
 4358TIP3    H112959   6.155   3.596   1.891
 4358TIP3    H212960   6.135   3.706   1.994
 4359TIP3   OH212961   4.774   3.764   2.648
 4359TIP3    H112962   4.772   3.734   2.554
 4359TIP3    H212963   4.872   3.767   2.662
 4360TIP3   OH212964   6.438   4.118   2.754
 4360TIP3    H112965   6.510   4.052   2.745
 4360TIP3    H212966   6.464   4.187   2.692
 4361TIP3   OH212967   6.623   3.923   2.770
 4361TIP3    H112968   6.548   3.873   2.809
 4361TIP3    H212969   6.696   3.859   2.785
 4362TIP3   OH212970   6.087   3.152   1.338
 4362TIP3    H112971   6.160   3.119   1.394
 4362TIP3    H212972   6.012   3.093   1.361
 4363TIP3   OH212973   6.145   3.409   1.793
 4363TIP3    H112974   6.185   3.320   1.808
 4363TIP3    H212975   6.203   3.441   1.722
 4364TIP3   OH212976   6.306   3.582   2.288
 4364TIP3    H112977   6.392   3.608   2.247
 4364TIP3    H212978   6.319   3.619   2.377
 4365TIP3   OH212979   6.375   3.727   2.519
 4365TIP3    H112980   6.297   3.760   2.568
 4365TIP3    H212981   6.407   3.808   2.474
 4366TIP3   OH212982   4.992   3.453   3.320
 4366TIP3    H112983   5.090   3.446   3.321
 4366TIP3    H212984   4.968   3.367   3.360
 4367TIP3   OH212985   6.826   3.318   3.075
 4367TIP3    H112986   6.886   3.252   3.032
 4367TIP3    H212987   6.798   3.372   2.999
 4368TIP3   OH212988   6.254   3.159   1.830
 4368TIP3    H112989   6.301   3.143   1.914
 4368TIP3    H212990   6.193   3.083   1.828
 4369TIP3   OH212991   4.955   3.145   2.649
 4369TIP3    H112992   5.018   3.071   2.659
 4369TIP3    H212993   5.016   3.221   2.643
 4370TIP3   OH212994   4.758   3.417   2.726
 4370TIP3    H112995   4.803   3.411   2.639
 4370TIP3    H212996   4.781   3.507   2.753
 4371TIP3   OH212997   6.698   3.458   2.881
 4371TIP3    H112998   6.612   3.499   2.903
 4371TIP3    H212999   6.667   3.386   2.822
 4372TIP3   OH213000   6.335   3.093   1.464
 4372TIP3    H113001   6.373   3.021   1.409
 4372TIP3    H213002   6.402   3.163   1.456
 4373TIP3   OH213003   4.739   2.921   2.222
 4373TIP3    H113004   4.646   2.920   2.250
 4373TIP3    H213005   4.736   2.981   2.144
 4374TIP3   OH213006   5.900   4.625   1.729
 4374TIP3    H113007   5.952   4.612   1.647
 4374TIP3    H213008   5.952   4.692   1.776
 4375TIP3   OH213009   4.960   3.000   3.037
 4375TIP3    H113010   4.909   2.998   3.120
 4375TIP3    H213011   4.895   3.041   2.977
 4376TIP3   OH213012   4.999   4.432   3.116
 4376TIP3    H113013   4.908   4.403   3.097
 4376TIP3    H213014   5.008   4.409   3.209
 4377TIP3   OH213015   5.178   4.463   2.664
 4377TIP3    H113016   5.128   4.537   2.624
 4377TIP3    H213017   5.264   4.477   2.619
 4378TIP3   OH213018   5.623   4.707   2.800
 4378TIP3    H113019   5.665   4.707   2.889
 4378TIP3    H213020   5.688   4.758   2.749
 4379TIP3   OH213021   5.801   4.859   2.659
 4379TIP3    H113022   5.872   4.807   2.618
 4379TIP3    H213023   5.853   4.916   2.720
 4380TIP3   OH213024   6.596   3.220   2.759
 4380TIP3    H113025   6.505   3.215   2.725
 4380TIP3    H213026   6.627   3.128   2.748
 4381TIP3   OH213027   4.855   4.722   2.684
 4381TIP3    H113028   4.766   4.755   2.660
 4381TIP3    H213029   4.860   4.752   2.776
 4382TIP3   OH213030   5.092   4.699   2.544
 4382TIP3    H113031   5.005   4.711   2.589
 4382TIP3    H213032   5.071   4.730   2.454
 4383TIP3   OH213033   5.517   4.727   2.341
 4383TIP3    H113034   5.446   4.745   2.277
 4383TIP3    H213035   5.528   4.815   2.383
 4384TIP3   OH213036   5.785   4.666   2.393
 4384TIP3    H113037   5.691   4.682   2.374
 4384TIP3    H213038   5.827   4.743   2.351
 4385TIP3   OH213039   5.995   4.859   2.309
 4385TIP3    H113040   5.979   4.943   2.260
 4385TIP3    H213041   6.019   4.798   2.236
 4386TIP3   OH213042   4.767   4.515   2.432
 4386TIP3    H113043   4.793   4.487   2.522
 4386TIP3    H213044   4.837   4.469   2.380
 4387TIP3   OH213045   4.959   4.385   2.289
 4387TIP3    H113046   4.974   4.301   2.338
 4387TIP3    H213047   5.050   4.420   2.283
 4388TIP3   OH213048   5.227   4.480   2.290
 4388TIP3    H113049   5.257   4.387   2.278
 4388TIP3    H213050   5.270   4.500   2.375
 4389TIP3   OH213051   5.803   3.136   2.381
 4389TIP3    H113052   5.758   3.067   2.431
 4389TIP3    H213053   5.873   3.087   2.334
 4390TIP3   OH213054   6.325   3.015   2.284
 4390TIP3    H113055   6.361   3.068   2.209
 4390TIP3    H213056   6.229   3.033   2.277
 4391TIP3   OH213057   6.420   3.116   2.047
 4391TIP3    H113058   6.493   3.065   2.007
 4391TIP3    H213059   6.452   3.208   2.032
 4392TIP3   OH213060   5.051   2.845   2.395
 4392TIP3    H113061   4.958   2.814   2.393
 4392TIP3    H213062   5.098   2.759   2.389
 4393TIP3   OH213063   4.843   2.713   2.045
 4393TIP3    H113064   4.867   2.770   1.970
 4393TIP3    H213065   4.808   2.778   2.109
 4394TIP3   OH213066   5.496   2.874   2.275
 4394TIP3    H113067   5.552   2.925   2.215
 4394TIP3    H213068   5.513   2.916   2.360
 4395TIP3   OH213069   6.043   3.023   2.258
 4395TIP3    H113070   6.037   2.986   2.169
 4395TIP3    H213071   6.028   2.943   2.314
 4396TIP3   OH213072   6.070   2.946   1.821
 4396TIP3    H113073   5.984   2.989   1.833
 4396TIP3    H213074   6.055   2.861   1.867
 4397TIP3   OH213075   4.555   4.284   1.820
 4397TIP3    H113076   4.469   4.249   1.787
 4397TIP3    H213077   4.541   4.379   1.802
 4398TIP3   OH213078   4.953   2.870   1.807
 4398TIP3    H113079   5.002   2.810   1.748
 4398TIP3    H213080   5.025   2.926   1.843
 4399TIP3   OH213081   5.466   3.048   1.904
 4399TIP3    H113082   5.526   3.002   1.965
 4399TIP3    H213083   5.487   3.141   1.929
 4400TIP3   OH213084   5.326   4.473   1.403
 4400TIP3    H113085   5.414   4.496   1.367
 4400TIP3    H213086   5.303   4.398   1.344
 4401TIP3   OH213087   6.047   4.592   1.497
 4401TIP3    H113088   6.039   4.494   1.486
 4401TIP3    H213089   5.998   4.623   1.418
 4402TIP3   OH213090   5.257   3.125   3.285
 4402TIP3    H113091   5.222   3.055   3.343
 4402TIP3    H213092   5.352   3.125   3.313
 4403TIP3   OH213093   5.507   3.123   3.405
 4403TIP3    H113094   5.591   3.097   3.365
 4403TIP3    H213095   5.494   3.052   3.471
 4404TIP3   OH213096   4.630   4.314   1.460
 4404TIP3    H113097   4.625   4.333   1.555
 4404TIP3    H213098   4.718   4.270   1.452
 4405TIP3   OH213099   6.332   3.183   3.192
 4405TIP3    H113100   6.351   3.152   3.284
 4405TIP3    H213101   6.421   3.179   3.151
 4406TIP3   OH213102   6.271   4.736   2.684
 4406TIP3    H113103   6.192   4.704   2.636
 4406TIP3    H213104   6.251   4.832   2.689
 4407TIP3   OH213105   7.547   4.117   1.449
 4407TIP3    H113106   7.508   4.205   1.441
 4407TIP3    H213107   7.472   4.059   1.423
 4408TIP3   OH213108   7.533   4.108   1.832
 4408TIP3    H113109   7.567   4.080   1.919
 4408TIP3    H213110   7.496   4.025   1.798
 4409TIP3   OH213111   6.835   4.003   2.196
 4409TIP3    H113112   6.865   3.935   2.259
 4409TIP3    H213113   6.914   4.059   2.192
 4410TIP3   OH213114   7.774   4.412   1.515
 4410TIP3    H113115   7.768   4.340   1.579
 4410TIP3    H213116   7.806   4.486   1.569
 4411TIP3   OH213117   6.806   4.413   1.920
 4411TIP3    H113118   6.797   4.316   1.923
 4411TIP3    H213119   6.903   4.422   1.920
 4412TIP3   OH213120   6.514   3.617   1.706
 4412TIP3    H113121   6.464   3.700   1.722
 4412TIP3    H213122   6.443   3.562   1.668
 4413TIP3   OH213123   6.573   3.904   1.879
 4413TIP3    H113124   6.621   3.826   1.916
 4413TIP3    H213125   6.632   3.931   1.808
 4414TIP3   OH213126   7.427   4.871   1.528
 4414TIP3    H113127   7.476   4.799   1.483
 4414TIP3    H213128   7.422   4.838   1.618
 4415TIP3   OH213129   7.336   4.333   1.878
 4415TIP3    H113130   7.375   4.253   1.840
 4415TIP3    H213131   7.418   4.380   1.903
 4416TIP3   OH213132   8.349   3.664   1.879
 4416TIP3    H113133   8.373   3.755   1.902
 4416TIP3    H213134   8.368   3.664   1.784
 4417TIP3   OH213135   7.751   3.836   1.915
 4417TIP3    H113136   7.789   3.747   1.930
 4417TIP3    H213137   7.713   3.824   1.825
 4418TIP3   OH213138   7.071   3.497   1.886
 4418TIP3    H113139   7.063   3.567   1.818
 4418TIP3    H213140   7.029   3.423   1.837
 4419TIP3   OH213141   7.788   3.606   1.531
 4419TIP3    H113142   7.874   3.579   1.568
 4419TIP3    H213143   7.796   3.583   1.438
 4420TIP3   OH213144   6.718   3.697   1.984
 4420TIP3    H113145   6.800   3.677   2.033
 4420TIP3    H213146   6.732   3.641   1.905
 4421TIP3   OH213147   7.159   3.895   1.777
 4421TIP3    H113148   7.253   3.870   1.791
 4421TIP3    H213149   7.121   3.810   1.745
 4422TIP3   OH213150   8.423   3.895   2.064
 4422TIP3    H113151   8.337   3.928   2.031
 4422TIP3    H213152   8.391   3.848   2.144
 4423TIP3   OH213153   7.082   3.478   2.312
 4423TIP3    H113154   7.022   3.515   2.245
 4423TIP3    H213155   7.030   3.496   2.394
 4424TIP3   OH213156   7.401   4.319   1.269
 4424TIP3    H113157   7.322   4.291   1.316
 4424TIP3    H213158   7.401   4.413   1.295
 4425TIP3   OH213159   7.189   4.254   2.107
 4425TIP3    H113160   7.125   4.319   2.146
 4425TIP3    H213161   7.230   4.306   2.036
 4426TIP3   OH213162   8.015   3.578   1.679
 4426TIP3    H113163   7.975   3.544   1.759
 4426TIP3    H213164   8.051   3.664   1.707
 4427TIP3   OH213165   6.948   3.596   2.103
 4427TIP3    H113166   7.013   3.667   2.123
 4427TIP3    H213167   6.994   3.555   2.025
 4428TIP3   OH213168   7.015   4.447   2.204
 4428TIP3    H113169   6.990   4.534   2.168
 4428TIP3    H213170   6.937   4.431   2.261
 4429TIP3   OH213171   6.412   4.138   1.440
 4429TIP3    H113172   6.366   4.166   1.360
 4429TIP3    H213173   6.442   4.223   1.478
 4430TIP3   OH213174   7.849   4.652   1.679
 4430TIP3    H113175   7.760   4.644   1.720
 4430TIP3    H213176   7.842   4.740   1.636
 4431TIP3   OH213177   8.141   3.561   2.048
 4431TIP3    H113178   8.051   3.580   2.014
 4431TIP3    H213179   8.197   3.589   1.972
 4432TIP3   OH213180   7.437   3.195   2.028
 4432TIP3    H113181   7.419   3.101   2.043
 4432TIP3    H213182   7.359   3.235   2.073
 4433TIP3   OH213183   7.553   4.698   1.354
 4433TIP3    H113184   7.606   4.618   1.333
 4433TIP3    H213185   7.612   4.766   1.314
 4434TIP3   OH213186   7.693   4.481   1.263
 4434TIP3    H113187   7.660   4.398   1.227
 4434TIP3    H213188   7.735   4.451   1.347
 4435TIP3   OH213189   8.076   4.566   2.024
 4435TIP3    H113190   8.064   4.489   1.964
 4435TIP3    H213191   8.058   4.641   1.964
 4436TIP3   OH213192   7.369   3.971   1.282
 4436TIP3    H113193   7.283   4.007   1.254
 4436TIP3    H213194   7.410   3.943   1.198
 4437TIP3   OH213195   7.324   3.744   1.000
 4437TIP3    H113196   7.398   3.789   1.044
 4437TIP3    H213197   7.373   3.673   0.953
 4438TIP3   OH213198   8.274   4.210   1.875
 4438TIP3    H113199   8.188   4.258   1.877
 4438TIP3    H213200   8.302   4.228   1.783
 4439TIP3   OH213201   7.718   4.037   1.255
 4439TIP3    H113202   7.665   4.057   1.336
 4439TIP3    H213203   7.801   4.008   1.297
 4440TIP3   OH213204   7.951   4.082   2.164
 4440TIP3    H113205   7.946   4.165   2.214
 4440TIP3    H213206   7.864   4.084   2.119
 4441TIP3   OH213207   6.952   4.042   1.666
 4441TIP3    H113208   6.908   3.982   1.601
 4441TIP3    H213209   7.025   3.987   1.699
 4442TIP3   OH213210   7.080   4.454   1.817
 4442TIP3    H113211   7.057   4.406   1.737
 4442TIP3    H213212   7.169   4.419   1.837
 4443TIP3   OH213213   7.085   4.011   2.024
 4443TIP3    H113214   7.118   3.988   1.935
 4443TIP3    H213215   7.128   4.097   2.043
 4444TIP3   OH213216   7.608   4.648   1.800
 4444TIP3    H113217   7.596   4.729   1.854
 4444TIP3    H213218   7.594   4.576   1.865
 4445TIP3   OH213219   7.221   4.568   2.348
 4445TIP3    H113220   7.162   4.630   2.395
 4445TIP3    H213221   7.156   4.515   2.299
 4446TIP3   OH213222   7.541   3.924   1.075
 4446TIP3    H113223   7.613   3.958   1.133
 4446TIP3    H213224   7.581   3.936   0.985
 4447TIP3   OH213225   6.976   4.125   2.449
 4447TIP3    H113226   6.980   4.212   2.494
 4447TIP3    H213227   6.881   4.104   2.460
 4448TIP3   OH213228   7.304   4.576   1.352
 4448TIP3    H113229   7.379   4.634   1.374
 4448TIP3    H213230   7.237   4.640   1.322
 4449TIP3   OH213231   7.016   4.736   2.435
 4449TIP3    H113232   6.980   4.735   2.345
 4449TIP3    H213233   6.936   4.714   2.489
 4450TIP3   OH213234   8.069   3.142   1.131
 4450TIP3    H113235   7.987   3.164   1.178
 4450TIP3    H213236   8.085   3.225   1.080
 4451TIP3   OH213237   6.816   3.884   1.471
 4451TIP3    H113238   6.745   3.926   1.417
 4451TIP3    H213239   6.777   3.798   1.490
 4452TIP3   OH213240   7.866   4.508   0.676
 4452TIP3    H113241   7.877   4.604   0.661
 4452TIP3    H213242   7.959   4.477   0.664
 4453TIP3   OH213243   6.595   4.267   2.382
 4453TIP3    H113244   6.528   4.245   2.314
 4453TIP3    H213245   6.632   4.179   2.406
 4454TIP3   OH213246   6.449   4.461   2.012
 4454TIP3    H113247   6.545   4.454   2.007
 4454TIP3    H213248   6.437   4.539   2.069
 4455TIP3   OH213249   8.313   4.911   2.071
 4455TIP3    H113250   8.311   4.815   2.086
 4455TIP3    H213251   8.230   4.937   2.117
 4456TIP3   OH213252   7.419   4.697   2.205
 4456TIP3    H113253   7.418   4.790   2.238
 4456TIP3    H213254   7.348   4.657   2.260
 4457TIP3   OH213255   7.180   4.826   1.157
 4457TIP3    H113256   7.134   4.811   1.073
 4457TIP3    H213257   7.149   4.915   1.184
 4458TIP3   OH213258   6.618   4.676   1.541
 4458TIP3    H113259   6.665   4.666   1.627
 4458TIP3    H213260   6.561   4.597   1.544
 4459TIP3   OH213261   7.386   4.722   0.799
 4459TIP3    H113262   7.445   4.649   0.771
 4459TIP3    H213263   7.417   4.737   0.891
 4460TIP3   OH213264   7.431   4.773   1.068
 4460TIP3    H113265   7.343   4.784   1.111
 4460TIP3    H213266   7.485   4.741   1.142
 4461TIP3   OH213267   8.203   4.046   2.340
 4461TIP3    H113268   8.116   4.057   2.299
 4461TIP3    H213269   8.216   3.950   2.335
 4462TIP3   OH213270   6.800   4.450   2.370
 4462TIP3    H113271   6.849   4.433   2.453
 4462TIP3    H213272   6.725   4.386   2.378
 4463TIP3   OH213273   7.199   3.273   2.155
 4463TIP3    H113274   7.110   3.243   2.128
 4463TIP3    H213275   7.174   3.356   2.201
 4464TIP3   OH213276   7.733   3.387   2.348
 4464TIP3    H113277   7.800   3.362   2.414
 4464TIP3    H213278   7.649   3.369   2.394
 4465TIP3   OH213279   7.981   3.823   2.276
 4465TIP3    H113280   7.925   3.814   2.356
 4465TIP3    H213281   7.947   3.905   2.234
 4466TIP3   OH213282   7.631   3.968   0.825
 4466TIP3    H113283   7.596   3.930   0.741
 4466TIP3    H213284   7.721   3.995   0.796
 4467TIP3   OH213285   7.338   3.331   1.133
 4467TIP3    H113286   7.383   3.318   1.220
 4467TIP3    H213287   7.303   3.242   1.117
 4468TIP3   OH213288   7.131   3.789   2.174
 4468TIP3    H113289   7.080   3.810   2.255
 4468TIP3    H213290   7.115   3.870   2.120
 4469TIP3   OH213291   7.014   3.675   1.687
 4469TIP3    H113292   6.922   3.646   1.704
 4469TIP3    H213293   7.031   3.631   1.601
 4470TIP3   OH213294   7.529   3.794   1.425
 4470TIP3    H113295   7.460   3.842   1.375
 4470TIP3    H213296   7.557   3.725   1.363
 4471TIP3   OH213297   7.680   4.039   2.501
 4471TIP3    H113298   7.657   3.966   2.563
 4471TIP3    H213299   7.773   4.053   2.524
 4472TIP3   OH213300   7.657   3.800   1.662
 4472TIP3    H113301   7.601   3.819   1.584
 4472TIP3    H213302   7.700   3.719   1.624
 4473TIP3   OH213303   6.950   3.818   2.382
 4473TIP3    H113304   6.976   3.881   2.451
 4473TIP3    H213305   6.938   3.736   2.433
 4474TIP3   OH213306   6.996   3.292   1.089
 4474TIP3    H113307   6.992   3.293   1.187
 4474TIP3    H213308   6.918   3.345   1.066
 4475TIP3   OH213309   6.542   3.340   1.962
 4475TIP3    H113310   6.619   3.371   2.016
 4475TIP3    H213311   6.583   3.307   1.881
 4476TIP3   OH213312   6.516   3.321   1.482
 4476TIP3    H113313   6.562   3.359   1.404
 4476TIP3    H213314   6.454   3.394   1.502
 4477TIP3   OH213315   7.675   4.036   2.076
 4477TIP3    H113316   7.708   3.963   2.018
 4477TIP3    H213317   7.645   3.983   2.153
 4478TIP3   OH213318   7.323   3.480   1.769
 4478TIP3    H113319   7.250   3.493   1.831
 4478TIP3    H213320   7.401   3.502   1.820
 4479TIP3   OH213321   6.776   3.553   1.755
 4479TIP3    H113322   6.681   3.559   1.729
 4479TIP3    H213323   6.799   3.461   1.734
 4480TIP3   OH213324   7.052   3.546   1.443
 4480TIP3    H113325   7.143   3.559   1.412
 4480TIP3    H213326   6.999   3.569   1.364
 4481TIP3   OH213327   7.836   3.570   1.951
 4481TIP3    H113328   7.802   3.585   2.042
 4481TIP3    H213329   7.768   3.507   1.918
 4482TIP3   OH213330   6.888   3.585   1.227
 4482TIP3    H113331   6.814   3.539   1.182
 4482TIP3    H213332   6.938   3.617   1.149
 4483TIP3   OH213333   8.004   5.261   2.170
 4483TIP3    H113334   8.003   5.286   2.075
 4483TIP3    H213335   8.083   5.310   2.201
 4484TIP3   OH213336   6.961   4.372   2.591
 4484TIP3    H113337   7.041   4.402   2.639
 4484TIP3    H213338   6.896   4.370   2.664
 4485TIP3   OH213339   7.423   3.828   1.846
 4485TIP3    H113340   7.490   3.787   1.788
 4485TIP3    H213341   7.436   3.780   1.930
 4486TIP3   OH213342   6.945   3.314   1.725
 4486TIP3    H113343   6.912   3.234   1.771
 4486TIP3    H213344   7.008   3.276   1.662
 4487TIP3   OH213345   7.401   3.720   2.139
 4487TIP3    H113346   7.311   3.757   2.150
 4487TIP3    H213347   7.458   3.784   2.187
 4488TIP3   OH213348   7.141   4.114   1.225
 4488TIP3    H113349   7.068   4.050   1.211
 4488TIP3    H213350   7.119   4.148   1.314
 4489TIP3   OH213351   8.039   4.348   1.859
 4489TIP3    H113352   8.062   4.398   1.778
 4489TIP3    H213353   7.953   4.306   1.834
 4490TIP3   OH213354   7.583   3.448   1.057
 4490TIP3    H113355   7.508   3.408   1.105
 4490TIP3    H213356   7.616   3.510   1.125
 4491TIP3   OH213357   7.539   4.432   2.227
 4491TIP3    H113358   7.561   4.408   2.318
 4491TIP3    H213359   7.499   4.520   2.236
 4492TIP3   OH213360   7.672   3.674   1.198
 4492TIP3    H113361   7.766   3.673   1.223
 4492TIP3    H213362   7.667   3.747   1.135
 4493TIP3   OH213363   6.832   4.136   1.906
 4493TIP3    H113364   6.871   4.106   1.821
 4493TIP3    H213365   6.870   4.073   1.969
 4494TIP3   OH213366   6.712   4.055   2.520
 4494TIP3    H113367   6.731   4.041   2.614
 4494TIP3    H213368   6.642   3.989   2.504
 4495TIP3   OH213369   7.437   4.169   2.539
 4495TIP3    H113370   7.377   4.110   2.492
 4495TIP3    H213371   7.524   4.135   2.511
 4496TIP3   OH213372   7.698   4.691   2.122
 4496TIP3    H113373   7.601   4.689   2.136
 4496TIP3    H213374   7.726   4.742   2.201
 4497TIP3   OH213375   8.108   3.761   1.031
 4497TIP3    H113376   8.043   3.718   0.971
 4497TIP3    H213377   8.106   3.850   0.991
 4498TIP3   OH213378   8.325   4.614   2.115
 4498TIP3    H113379   8.227   4.614   2.105
 4498TIP3    H213380   8.352   4.587   2.024
 4499TIP3   OH213381   7.784   4.579   0.934
 4499TIP3    H113382   7.798   4.515   1.004
 4499TIP3    H213383   7.827   4.538   0.856
 4500TIP3   OH213384   7.804   4.211   1.776
 4500TIP3    H113385   7.711   4.185   1.792
 4500TIP3    H213386   7.838   4.130   1.733
 4501TIP3   OH213387   6.930   4.436   1.525
 4501TIP3    H113388   6.927   4.520   1.476
 4501TIP3    H213389   6.837   4.422   1.546
 4502TIP3   OH213390   6.495   3.743   1.236
 4502TIP3    H113391   6.539   3.827   1.258
 4502TIP3    H213392   6.417   3.747   1.296
 4503TIP3   OH213393   7.078   4.208   1.471
 4503TIP3    H113394   7.034   4.294   1.490
 4503TIP3    H213395   7.042   4.153   1.543
 4504TIP3   OH213396   7.201   4.782   2.000
 4504TIP3    H113397   7.243   4.855   1.951
 4504TIP3    H213398   7.276   4.747   2.050
 4505TIP3   OH213399   6.850   4.678   1.383
 4505TIP3    H113400   6.765   4.686   1.430
 4505TIP3    H213401   6.882   4.771   1.387
 4506TIP3   OH213402   7.589   4.416   1.959
 4506TIP3    H113403   7.578   4.416   2.057
 4506TIP3    H213404   7.669   4.363   1.948
 4507TIP3   OH213405   7.838   4.949   2.009
 4507TIP3    H113406   7.758   4.893   2.003
 4507TIP3    H213407   7.821   5.014   1.937
 4508TIP3   OH213408   7.897   4.778   0.680
 4508TIP3    H113409   7.925   4.809   0.592
 4508TIP3    H213410   7.826   4.841   0.705
 4509TIP3   OH213411   6.922   3.561   2.528
 4509TIP3    H113412   6.826   3.565   2.541
 4509TIP3    H213413   6.950   3.502   2.600
 4510TIP3   OH213414   7.684   4.230   1.068
 4510TIP3    H113415   7.704   4.164   1.138
 4510TIP3    H213416   7.775   4.242   1.035
 4511TIP3   OH213417   6.640   4.644   2.159
 4511TIP3    H113418   6.692   4.570   2.193
 4511TIP3    H213419   6.665   4.714   2.221
 4512TIP3   OH213420   6.966   4.269   0.844
 4512TIP3    H113421   6.941   4.179   0.818
 4512TIP3    H213422   6.930   4.274   0.936
 4513TIP3   OH213423   6.875   4.296   1.105
 4513TIP3    H113424   6.944   4.265   1.166
 4513TIP3    H213425   6.878   4.393   1.119
 4514TIP3   OH213426   6.610   3.989   1.317
 4514TIP3    H113427   6.543   4.031   1.375
 4514TIP3    H213428   6.622   4.060   1.251
 4515TIP3   OH213429   7.762   3.626   2.211
 4515TIP3    H113430   7.840   3.660   2.256
 4515TIP3    H213431   7.743   3.544   2.261
 4516TIP3   OH213432   7.143   4.486   1.050
 4516TIP3    H113433   7.058   4.508   1.094
 4516TIP3    H213434   7.162   4.570   1.006
 4517TIP3   OH213435   7.599   3.876   2.283
 4517TIP3    H113436   7.620   3.928   2.363
 4517TIP3    H213437   7.652   3.795   2.297
 4518TIP3   OH213438   6.885   4.567   1.130
 4518TIP3    H113439   6.855   4.637   1.069
 4518TIP3    H213440   6.869   4.609   1.218
 4519TIP3   OH213441   6.985   3.281   1.367
 4519TIP3    H113442   6.991   3.371   1.406
 4519TIP3    H213443   7.072   3.245   1.387
 4520TIP3   OH213444   8.242   3.769   2.238
 4520TIP3    H113445   8.148   3.783   2.265
 4520TIP3    H213446   8.227   3.701   2.170
 4521TIP3   OH213447   7.888   3.970   1.653
 4521TIP3    H113448   7.810   3.912   1.661
 4521TIP3    H213449   7.957   3.919   1.700
 4522TIP3   OH213450   6.602   4.197   1.122
 4522TIP3    H113451   6.667   4.269   1.134
 4522TIP3    H213452   6.650   4.143   1.056
 4523TIP3   OH213453   6.548   3.473   1.255
 4523TIP3    H113454   6.543   3.571   1.252
 4523TIP3    H213455   6.464   3.448   1.215
 4524TIP3   OH213456   7.858   4.923   1.602
 4524TIP3    H113457   7.816   4.970   1.527
 4524TIP3    H213458   7.952   4.943   1.582
 4525TIP3   OH213459   6.934   3.193   2.130
 4525TIP3    H113460   6.903   3.160   2.043
 4525TIP3    H213461   6.923   3.115   2.187
 4526TIP3   OH213462   6.473   4.413   1.509
 4526TIP3    H113463   6.404   4.442   1.570
 4526TIP3    H213464   6.443   4.453   1.425
 4527TIP3   OH213465   6.629   4.954   2.582
 4527TIP3    H113466   6.716   4.953   2.629
 4527TIP3    H213467   6.608   4.859   2.581
 4528TIP3   OH213468   7.111   4.919   2.625
 4528TIP3    H113469   7.205   4.899   2.634
 4528TIP3    H213470   7.086   4.859   2.552
 4529TIP3   OH213471   7.089   4.499   0.749
 4529TIP3    H113472   7.047   4.425   0.797
 4529TIP3    H213473   7.171   4.456   0.717
 4530TIP3   OH213474   7.752   4.823   2.358
 4530TIP3    H113475   7.742   4.754   2.428
 4530TIP3    H213476   7.828   4.875   2.390
 4531TIP3   OH213477   7.541   4.516   0.677
 4531TIP3    H113478   7.626   4.530   0.721
 4531TIP3    H213479   7.568   4.524   0.582
 4532TIP3   OH213480   6.760   4.360   2.782
 4532TIP3    H113481   6.776   4.264   2.788
 4532TIP3    H213482   6.673   4.362   2.738
 4533TIP3   OH213483   6.740   4.012   0.974
 4533TIP3    H113484   6.789   3.975   1.049
 4533TIP3    H213485   6.810   4.010   0.905
 4534TIP3   OH213486   7.368   4.445   2.555
 4534TIP3    H113487   7.326   4.461   2.469
 4534TIP3    H213488   7.399   4.352   2.548
 4535TIP3   OH213489   7.268   4.208   0.846
 4535TIP3    H113490   7.172   4.223   0.851
 4535TIP3    H213491   7.270   4.113   0.817
 4536TIP3   OH213492   7.861   4.452   2.161
 4536TIP3    H113493   7.934   4.499   2.118
 4536TIP3    H213494   7.788   4.517   2.150
 4537TIP3   OH213495   6.880   4.094   2.764
 4537TIP3    H113496   6.954   4.036   2.744
 4537TIP3    H213497   6.905   4.127   2.852
 4538TIP3   OH213498   6.948   3.916   1.197
 4538TIP3    H113499   6.918   3.878   1.281
 4538TIP3    H213500   6.982   3.837   1.150
 4539TIP3   OH213501   7.214   3.979   2.426
 4539TIP3    H113502   7.136   4.038   2.428
 4539TIP3    H213503   7.264   4.012   2.348
 4540TIP3   OH213504   7.045   3.709   1.038
 4540TIP3    H113505   7.020   3.708   0.943
 4540TIP3    H213506   7.142   3.710   1.031
 4541TIP3   OH213507   7.731   4.380   2.560
 4541TIP3    H113508   7.812   4.355   2.514
 4541TIP3    H213509   7.727   4.314   2.631
 4542TIP3   OH213510   7.869   4.033   0.699
 4542TIP3    H113511   7.847   3.984   0.618
 4542TIP3    H213512   7.837   4.123   0.675
 4543TIP3   OH213513   7.338   3.767   2.551
 4543TIP3    H113514   7.338   3.687   2.495
 4543TIP3    H213515   7.294   3.833   2.494
 4544TIP3   OH213516   7.341   3.552   2.360
 4544TIP3    H113517   7.368   3.594   2.276
 4544TIP3    H213518   7.247   3.530   2.341
 4545TIP3   OH213519   7.367   4.088   2.233
 4545TIP3    H113520   7.450   4.096   2.184
 4545TIP3    H213521   7.311   4.155   2.188
 4546TIP3   OH213522   7.947   4.055   2.612
 4546TIP3    H113523   7.997   3.973   2.628
 4546TIP3    H213524   8.017   4.115   2.581
 4547TIP3   OH213525   7.991   4.308   2.349
 4547TIP3    H113526   7.932   4.361   2.290
 4547TIP3    H213527   8.078   4.329   2.308
 4548TIP3   OH213528   7.215   3.878   2.782
 4548TIP3    H113529   7.147   3.810   2.797
 4548TIP3    H213530   7.250   3.852   2.694
 4549TIP3   OH213531   7.473   3.316   2.425
 4549TIP3    H113532   7.424   3.398   2.403
 4549TIP3    H213533   7.402   3.248   2.414
 4550TIP3   OH213534   7.599   3.821   2.642
 4550TIP3    H113535   7.587   3.808   2.738
 4550TIP3    H213536   7.509   3.796   2.612
 4551TIP3   OH213537   7.837   3.767   2.496
 4551TIP3    H113538   7.761   3.771   2.559
 4551TIP3    H213539   7.910   3.738   2.554
 4552TIP3   OH213540   8.068   3.710   2.646
 4552TIP3    H113541   8.080   3.615   2.666
 4552TIP3    H213542   8.062   3.750   2.736
 4553TIP3   OH213543   7.055   3.658   2.835
 4553TIP3    H113544   7.061   3.567   2.801
 4553TIP3    H213545   7.091   3.646   2.925
 4554TIP3   OH213546   7.567   3.327   2.683
 4554TIP3    H113547   7.634   3.255   2.678
 4554TIP3    H213548   7.527   3.320   2.594
 4555TIP3   OH213549   7.633   3.542   2.842
 4555TIP3    H113550   7.611   3.471   2.778
 4555TIP3    H213551   7.555   3.600   2.836
 4556TIP3   OH213552   6.853   4.766   0.939
 4556TIP3    H113553   6.949   4.763   0.926
 4556TIP3    H213554   6.828   4.823   0.864
 4557TIP3   OH213555   6.332   4.153   1.155
 4557TIP3    H113556   6.428   4.173   1.144
 4557TIP3    H213557   6.326   4.063   1.117
 4558TIP3   OH213558   6.249   4.766   1.572
 4558TIP3    H113559   6.181   4.704   1.537
 4558TIP3    H213560   6.292   4.708   1.639
 4559TIP3   OH213561   6.384   4.616   1.759
 4559TIP3    H113562   6.371   4.542   1.822
 4559TIP3    H213563   6.435   4.677   1.816
 4560TIP3   OH213564   8.110   5.017   1.559
 4560TIP3    H113565   8.138   5.049   1.647
 4560TIP3    H213566   8.174   5.059   1.500
 4561TIP3   OH213567   8.139   5.036   1.841
 4561TIP3    H113568   8.097   4.948   1.838
 4561TIP3    H213569   8.216   5.015   1.897
 4562TIP3   OH213570   8.187   4.712   2.414
 4562TIP3    H113571   8.114   4.721   2.479
 4562TIP3    H213572   8.228   4.800   2.419
 4563TIP3   OH213573   7.995   4.229   1.033
 4563TIP3    H113574   8.067   4.290   1.004
 4563TIP3    H213575   8.038   4.189   1.113
 4564TIP3   OH213576   8.127   4.095   1.237
 4564TIP3    H113577   8.064   4.049   1.297
 4564TIP3    H213578   8.194   4.131   1.299
 4565TIP3   OH213579   8.186   4.485   1.670
 4565TIP3    H113580   8.238   4.421   1.619
 4565TIP3    H213581   8.180   4.561   1.608
 4566TIP3   OH213582   8.015   4.784   1.865
 4566TIP3    H113583   7.945   4.828   1.917
 4566TIP3    H213584   7.965   4.738   1.795
 4567TIP3   OH213585   8.070   4.002   0.885
 4567TIP3    H113586   7.998   4.002   0.819
 4567TIP3    H213587   8.042   4.078   0.941
 4568TIP3   OH213588   7.934   3.677   0.840
 4568TIP3    H113589   7.903   3.706   0.753
 4568TIP3    H213590   7.911   3.582   0.836
 4569TIP3   OH213591   7.945   3.946   1.383
 4569TIP3    H113592   7.944   3.849   1.376
 4569TIP3    H213593   7.930   3.959   1.480
 4570TIP3   OH213594   6.570   4.023   2.131
 4570TIP3    H113595   6.569   3.992   2.038
 4570TIP3    H213596   6.668   4.024   2.148
 4571TIP3   OH213597   8.235   4.372   2.241
 4571TIP3    H113598   8.307   4.308   2.226
 4571TIP3    H213599   8.258   4.446   2.182
 4572TIP3   OH213600   8.421   4.171   2.243
 4572TIP3    H113601   8.340   4.127   2.279
 4572TIP3    H213602   8.488   4.128   2.300
 4573TIP3   OH213603   7.883   3.411   0.827
 4573TIP3    H113604   7.957   3.377   0.881
 4573TIP3    H213605   7.808   3.353   0.848
 4574TIP3   OH213606   7.942   3.666   1.268
 4574TIP3    H113607   7.980   3.578   1.291
 4574TIP3    H213608   8.004   3.695   1.200
 4575TIP3   OH213609   8.102   3.838   1.774
 4575TIP3    H113610   8.188   3.864   1.734
 4575TIP3    H213611   8.114   3.876   1.863
 4576TIP3   OH213612   8.172   3.985   2.002
 4576TIP3    H113613   8.094   4.014   2.054
 4576TIP3    H213614   8.201   4.068   1.960
 4577TIP3   OH213615   6.788   3.710   2.806
 4577TIP3    H113616   6.886   3.703   2.808
 4577TIP3    H213617   6.764   3.624   2.847
 4578TIP3   OH213618   8.617   3.570   2.561
 4578TIP3    H113619   8.680   3.505   2.522
 4578TIP3    H213620   8.597   3.628   2.485
 4579TIP3   OH213621   8.050   3.416   1.316
 4579TIP3    H113622   8.097   3.400   1.401
 4579TIP3    H213623   7.985   3.342   1.316
 4580TIP3   OH213624   6.749   3.401   2.136
 4580TIP3    H113625   6.812   3.327   2.146
 4580TIP3    H213626   6.811   3.477   2.132
 4581TIP3   OH213627   6.553   3.675   2.210
 4581TIP3    H113628   6.601   3.669   2.125
 4581TIP3    H213629   6.581   3.761   2.243
 4582TIP3   OH213630   8.493   3.716   2.365
 4582TIP3    H113631   8.407   3.750   2.397
 4582TIP3    H213632   8.463   3.641   2.310
 4583TIP3   OH213633   8.131   3.350   0.951
 4583TIP3    H113634   8.170   3.279   0.895
 4583TIP3    H213635   8.198   3.420   0.944
 4584TIP3   OH213636   6.536   3.180   1.711
 4584TIP3    H113637   6.442   3.175   1.737
 4584TIP3    H213638   6.532   3.238   1.632
 4585TIP3   OH213639   7.693   4.882   1.216
 4585TIP3    H113640   7.747   4.870   1.135
 4585TIP3    H213641   7.744   4.949   1.264
 4586TIP3   OH213642   6.756   3.258   2.525
 4586TIP3    H113643   6.706   3.254   2.607
 4586TIP3    H213644   6.690   3.297   2.464
 4587TIP3   OH213645   6.796   4.687   2.602
 4587TIP3    H113646   6.704   4.659   2.585
 4587TIP3    H213647   6.806   4.667   2.696
 4588TIP3   OH213648   6.974   4.718   2.149
 4588TIP3    H113649   6.925   4.794   2.110
 4588TIP3    H213650   7.060   4.732   2.105
 4589TIP3   OH213651   7.419   4.963   2.286
 4589TIP3    H113652   7.460   4.963   2.375
 4589TIP3    H213653   7.485   5.015   2.235
 4590TIP3   OH213654   7.598   5.115   2.145
 4590TIP3    H113655   7.670   5.064   2.106
 4590TIP3    H213656   7.649   5.173   2.207
 4591TIP3   OH213657   8.393   3.475   2.246
 4591TIP3    H113658   8.302   3.464   2.214
 4591TIP3    H213659   8.427   3.384   2.237
 4592TIP3   OH213660   6.650   4.977   2.172
 4592TIP3    H113661   6.561   5.010   2.150
 4592TIP3    H213662   6.660   5.012   2.261
 4593TIP3   OH213663   6.887   4.954   2.030
 4593TIP3    H113664   6.800   4.967   2.076
 4593TIP3    H213665   6.867   4.987   1.941
 4594TIP3   OH213666   7.313   4.984   1.827
 4594TIP3    H113667   7.242   5.004   1.763
 4594TIP3    H213668   7.325   5.071   1.871
 4595TIP3   OH213669   7.581   4.921   1.878
 4595TIP3    H113670   7.487   4.940   1.860
 4595TIP3    H213671   7.625   4.999   1.839
 4596TIP3   OH213672   7.788   5.114   1.795
 4596TIP3    H113673   7.774   5.199   1.748
 4596TIP3    H213674   7.815   5.054   1.722
 4597TIP3   OH213675   6.563   4.770   1.918
 4597TIP3    H113676   6.588   4.744   2.009
 4597TIP3    H213677   6.634   4.725   1.867
 4598TIP3   OH213678   6.756   4.640   1.774
 4598TIP3    H113679   6.770   4.557   1.824
 4598TIP3    H213680   6.847   4.677   1.771
 4599TIP3   OH213681   7.023   4.735   1.778
 4599TIP3    H113682   7.053   4.642   1.769
 4599TIP3    H213683   7.066   4.758   1.862
 4600TIP3   OH213684   7.612   3.398   1.888
 4600TIP3    H113685   7.556   3.328   1.926
 4600TIP3    H213686   7.629   3.365   1.799
 4601TIP3   OH213687   8.126   3.267   1.768
 4601TIP3    H113688   8.161   3.323   1.695
 4601TIP3    H213689   8.030   3.286   1.761
 4602TIP3   OH213690   8.216   3.370   1.532
 4602TIP3    H113691   8.291   3.322   1.491
 4602TIP3    H213692   8.247   3.463   1.519
 4603TIP3   OH213693   6.846   3.101   1.881
 4603TIP3    H113694   6.754   3.068   1.883
 4603TIP3    H213695   6.895   3.016   1.877
 4604TIP3   OH213696   6.635   2.970   1.530
 4604TIP3    H113697   6.662   3.028   1.457
 4604TIP3    H213698   6.605   3.035   1.597
 4605TIP3   OH213699   7.282   3.133   1.766
 4605TIP3    H113700   7.321   3.188   1.697
 4605TIP3    H213701   7.312   3.177   1.846
 4606TIP3   OH213702   7.856   3.274   1.738
 4606TIP3    H113703   7.805   3.269   1.656
 4606TIP3    H213704   7.823   3.198   1.789
 4607TIP3   OH213705   7.857   3.208   1.309
 4607TIP3    H113706   7.767   3.245   1.314
 4607TIP3    H213707   7.841   3.120   1.349
 4608TIP3   OH213708   6.351   4.540   1.306
 4608TIP3    H113709   6.265   4.508   1.274
 4608TIP3    H213710   6.340   4.635   1.288
 4609TIP3   OH213711   6.749   3.130   1.292
 4609TIP3    H113712   6.797   3.067   1.235
 4609TIP3    H213713   6.822   3.185   1.327
 4610TIP3   OH213714   7.123   4.732   0.892
 4610TIP3    H113715   7.211   4.754   0.855
 4610TIP3    H213716   7.100   4.657   0.832
 4611TIP3   OH213717   7.839   4.843   0.987
 4611TIP3    H113718   7.825   4.747   0.972
 4611TIP3    H213719   7.795   4.879   0.907
 4612TIP3   OH213720   7.054   3.382   2.772
 4612TIP3    H113721   7.019   3.312   2.829
 4612TIP3    H213722   7.148   3.382   2.800
 4613TIP3   OH213723   7.303   3.379   2.892
 4613TIP3    H113724   7.388   3.353   2.853
 4613TIP3    H213725   7.290   3.308   2.959
 4614TIP3   OH213726   6.426   4.578   0.947
 4614TIP3    H113727   6.415   4.599   1.041
 4614TIP3    H213728   6.513   4.533   0.944
 4615TIP3   OH213729   8.128   3.439   2.679
 4615TIP3    H113730   8.146   3.408   2.771
 4615TIP3    H213731   8.217   3.436   2.639
 4616TIP3   OH213732   8.067   4.993   2.171
 4616TIP3    H113733   7.988   4.961   2.123
 4616TIP3    H213734   8.048   5.088   2.175
 4617TIP3   OH213735   8.630   4.263   1.687
 4617TIP3    H113736   8.659   4.205   1.759
 4617TIP3    H213737   8.710   4.317   1.674
 4618TIP3   OH213738   8.593   4.669   1.415
 4618TIP3    H113739   8.592   4.571   1.415
 4618TIP3    H213740   8.688   4.684   1.399
 4619TIP3   OH213741   8.308   3.874   1.193
 4619TIP3    H113742   8.259   3.956   1.208
 4619TIP3    H213743   8.238   3.818   1.157
 4620TIP3   OH213744   8.367   4.160   1.365
 4620TIP3    H113745   8.416   4.083   1.401
 4620TIP3    H213746   8.427   4.191   1.296
 4621TIP3   OH213747   9.114   5.070   1.030
 4621TIP3    H113748   9.193   5.091   0.975
 4621TIP3    H213749   9.157   5.063   1.116
 4622TIP3   OH213750   9.079   4.605   1.361
 4622TIP3    H113751   9.091   4.547   1.284
 4622TIP3    H213752   9.173   4.610   1.390
 4623TIP3   OH213753   8.859   3.754   1.377
 4623TIP3    H113754   8.866   3.819   1.305
 4623TIP3    H213755   8.831   3.675   1.326
 4624TIP3   OH213756   8.512   3.954   1.471
 4624TIP3    H113757   8.594   3.934   1.520
 4624TIP3    H213758   8.527   3.899   1.391
 4625TIP3   OH213759   8.916   4.170   1.252
 4625TIP3    H113760   9.011   4.148   1.266
 4625TIP3    H213761   8.882   4.082   1.223
 4626TIP3   OH213762   8.870   3.735   1.806
 4626TIP3    H113763   8.811   3.766   1.735
 4626TIP3    H213764   8.814   3.743   1.885
 4627TIP3   OH213765   8.956   4.517   1.588
 4627TIP3    H113766   8.901   4.588   1.629
 4627TIP3    H213767   9.000   4.567   1.516
 4628TIP3   OH213768   8.738   3.850   1.593
 4628TIP3    H113769   8.804   3.922   1.610
 4628TIP3    H213770   8.782   3.808   1.515
 4629TIP3   OH213771   8.803   4.713   1.695
 4629TIP3    H113772   8.780   4.801   1.659
 4629TIP3    H213773   8.725   4.697   1.752
 4630TIP3   OH213774   8.204   4.395   0.933
 4630TIP3    H113775   8.166   4.419   0.846
 4630TIP3    H213776   8.238   4.481   0.965
 4631TIP3   OH213777   8.717   4.316   1.142
 4631TIP3    H113778   8.681   4.254   1.076
 4631TIP3    H213779   8.792   4.263   1.178
 4632TIP3   OH213780   8.840   4.722   1.296
 4632TIP3    H113781   8.828   4.681   1.209
 4632TIP3    H213782   8.928   4.686   1.324
 4633TIP3   OH213783   8.877   4.268   1.512
 4633TIP3    H113784   8.901   4.255   1.418
 4633TIP3    H213785   8.913   4.358   1.531
 4634TIP3   OH213786   9.014   4.832   1.833
 4634TIP3    H113787   8.954   4.890   1.883
 4634TIP3    H213788   8.950   4.775   1.786
 4635TIP3   OH213789   8.769   4.389   1.936
 4635TIP3    H113790   8.772   4.477   1.981
 4635TIP3    H213791   8.676   4.363   1.954
 4636TIP3   OH213792   9.079   4.861   0.853
 4636TIP3    H113793   9.107   4.916   0.929
 4636TIP3    H213794   9.005   4.912   0.822
 4637TIP3   OH213795   8.809   4.995   1.922
 4637TIP3    H113796   8.774   4.994   1.831
 4637TIP3    H213797   8.730   4.973   1.976
 4638TIP3   OH213798   8.610   4.134   0.958
 4638TIP3    H113799   8.541   4.179   0.905
 4638TIP3    H213800   8.568   4.050   0.977
 4639TIP3   OH213801   8.391   4.517   1.871
 4639TIP3    H113802   8.325   4.503   1.800
 4639TIP3    H213803   8.431   4.429   1.880
 4640TIP3   OH213804   8.246   4.715   1.503
 4640TIP3    H113805   8.342   4.709   1.491
 4640TIP3    H213806   8.238   4.796   1.557
 4641TIP3   OH213807   9.197   4.961   1.681
 4641TIP3    H113808   9.205   5.048   1.724
 4641TIP3    H213809   9.133   4.915   1.739
 4642TIP3   OH213810   8.414   4.933   1.028
 4642TIP3    H113811   8.463   4.923   1.112
 4642TIP3    H213812   8.358   4.854   1.031
 4643TIP3   OH213813   8.590   4.708   1.862
 4643TIP3    H113814   8.643   4.691   1.943
 4643TIP3    H213815   8.519   4.641   1.870
 4644TIP3   OH213816   8.981   3.524   1.656
 4644TIP3    H113817   8.893   3.499   1.624
 4644TIP3    H213818   8.963   3.611   1.695
 4645TIP3   OH213819   8.925   4.039   1.648
 4645TIP3    H113820   8.935   4.084   1.733
 4645TIP3    H213821   8.915   4.117   1.589
 4646TIP3   OH213822   8.808   3.930   1.171
 4646TIP3    H113823   8.719   3.899   1.197
 4646TIP3    H213824   8.813   3.896   1.079
 4647TIP3   OH213825   8.732   4.073   1.902
 4647TIP3    H113826   8.813   4.129   1.905
 4647TIP3    H213827   8.771   3.985   1.890
 4648TIP3   OH213828   8.772   3.567   0.578
 4648TIP3    H113829   8.752   3.545   0.670
 4648TIP3    H213830   8.691   3.611   0.548
 4649TIP3   OH213831   8.340   3.596   1.449
 4649TIP3    H113832   8.414   3.628   1.504
 4649TIP3    H213833   8.382   3.563   1.368
 4650TIP3   OH213834   8.312   3.577   0.970
 4650TIP3    H113835   8.356   3.617   0.891
 4650TIP3    H213836   8.250   3.649   0.992
 4651TIP3   OH213837   8.571   3.811   1.243
 4651TIP3    H113838   8.476   3.815   1.216
 4651TIP3    H213839   8.596   3.719   1.223
 4652TIP3   OH213840   8.817   3.833   0.913
 4652TIP3    H113841   8.891   3.851   0.854
 4652TIP3    H213842   8.743   3.840   0.848
 4653TIP3   OH213843   8.659   3.845   0.698
 4653TIP3    H113844   8.593   3.797   0.644
 4653TIP3    H213845   8.726   3.868   0.630
 4654TIP3   OH213846   8.756   4.629   2.080
 4654TIP3    H113847   8.838   4.656   2.126
 4654TIP3    H213848   8.693   4.634   2.154
 4655TIP3   OH213849   8.739   3.572   1.204
 4655TIP3    H113850   8.705   3.496   1.256
 4655TIP3    H213851   8.801   3.529   1.144
 4656TIP3   OH213852   8.883   4.397   0.710
 4656TIP3    H113853   8.840   4.309   0.714
 4656TIP3    H213854   8.911   4.411   0.802
 4657TIP3   OH213855   9.276   4.686   1.741
 4657TIP3    H113856   9.324   4.663   1.823
 4657TIP3    H213857   9.269   4.782   1.745
 4658TIP3   OH213858   8.623   4.392   1.396
 4658TIP3    H113859   8.654   4.369   1.306
 4658TIP3    H213860   8.669   4.327   1.451
 4659TIP3   OH213861   8.511   4.293   2.007
 4659TIP3    H113862   8.513   4.296   2.104
 4659TIP3    H213863   8.423   4.255   1.988
 4660TIP3   OH213864   9.193   4.384   2.037
 4660TIP3    H113865   9.141   4.357   1.959
 4660TIP3    H213866   9.256   4.310   2.044
 4661TIP3   OH213867   8.728   4.694   1.018
 4661TIP3    H113868   8.728   4.776   0.965
 4661TIP3    H213869   8.634   4.673   1.020
 4662TIP3   OH213870   8.290   4.000   0.719
 4662TIP3    H113871   8.338   4.083   0.742
 4662TIP3    H213872   8.215   4.005   0.783
 4663TIP3   OH213873   8.896   4.474   0.988
 4663TIP3    H113874   8.844   4.556   0.985
 4663TIP3    H213875   8.837   4.418   1.041
 4664TIP3   OH213876   8.996   5.035   1.487
 4664TIP3    H113877   9.036   5.109   1.436
 4664TIP3    H213878   9.072   5.004   1.540
 4665TIP3   OH213879   8.651   4.932   0.875
 4665TIP3    H113880   8.565   4.944   0.920
 4665TIP3    H213881   8.684   5.024   0.876
 4666TIP3   OH213882   8.710   3.814   2.036
 4666TIP3    H113883   8.625   3.769   2.026
 4666TIP3    H213884   8.753   3.756   2.103
 4667TIP3   OH213885   8.433   4.902   1.647
 4667TIP3    H113886   8.489   4.828   1.677
 4667TIP3    H213887   8.464   4.972   1.705
 4668TIP3   OH213888   8.635   4.545   0.672
 4668TIP3    H113889   8.724   4.506   0.672
 4668TIP3    H213890   8.653   4.638   0.649
 4669TIP3   OH213891   8.403   4.241   0.816
 4669TIP3    H113892   8.337   4.290   0.869
 4669TIP3    H213893   8.424   4.305   0.746
 4670TIP3   OH213894   8.610   4.818   0.623
 4670TIP3    H113895   8.673   4.877   0.576
 4670TIP3    H213896   8.620   4.853   0.714
 4671TIP3   OH213897   8.783   3.547   0.859
 4671TIP3    H113898   8.753   3.625   0.909
 4671TIP3    H213899   8.866   3.583   0.821
 4672TIP3   OH213900   8.378   4.478   0.616
 4672TIP3    H113901   8.455   4.527   0.653
 4672TIP3    H213902   8.427   4.403   0.575
 4673TIP3   OH213903   8.346   3.732   0.748
 4673TIP3    H113904   8.341   3.830   0.742
 4673TIP3    H213905   8.272   3.703   0.694
 4674TIP3   OH213906   8.714   3.451   1.619
 4674TIP3    H113907   8.693   3.416   1.530
 4674TIP3    H213908   8.715   3.370   1.674
 4675TIP3   OH213909   8.271   4.664   1.000
 4675TIP3    H113910   8.200   4.701   1.054
 4675TIP3    H213911   8.249   4.705   0.913
 4676TIP3   OH213912   8.426   5.211   2.069
 4676TIP3    H113913   8.513   5.211   2.116
 4676TIP3    H213914   8.407   5.116   2.067
 4677TIP3   OH213915   8.906   5.180   2.108
 4677TIP3    H113916   8.998   5.156   2.127
 4677TIP3    H213917   8.884   5.116   2.037
 4678TIP3   OH213918   8.555   4.622   2.269
 4678TIP3    H113919   8.567   4.528   2.291
 4678TIP3    H213920   8.467   4.621   2.225
 4679TIP3   OH213921   8.506   4.254   0.541
 4679TIP3    H113922   8.571   4.234   0.611
 4679TIP3    H213923   8.568   4.253   0.465
 4680TIP3   OH213924   9.149   4.699   2.046
 4680TIP3    H113925   9.127   4.716   1.953
 4680TIP3    H213926   9.175   4.605   2.045
 4681TIP3   OH213927   8.694   4.311   2.252
 4681TIP3    H113928   8.787   4.289   2.237
 4681TIP3    H213929   8.702   4.362   2.335
 4682TIP3   OH213930   8.734   4.161   0.689
 4682TIP3    H113931   8.716   4.119   0.774
 4682TIP3    H213932   8.769   4.088   0.635
 4683TIP3   OH213933   8.963   4.202   1.899
 4683TIP3    H113934   8.909   4.279   1.930
 4683TIP3    H213935   9.022   4.251   1.836
 4684TIP3   OH213936   8.848   3.948   0.528
 4684TIP3    H113937   8.824   3.946   0.434
 4684TIP3    H213938   8.939   3.982   0.525
 4685TIP3   OH213939   9.093   4.025   2.071
 4685TIP3    H113940   9.131   3.943   2.033
 4685TIP3    H213941   9.050   4.065   1.994
 4686TIP3   OH213942   9.118   3.843   1.856
 4686TIP3    H113943   9.171   3.815   1.780
 4686TIP3    H213944   9.038   3.787   1.846
 4687TIP3   OH213945   9.107   4.355   1.743
 4687TIP3    H113946   9.185   4.340   1.686
 4687TIP3    H213947   9.060   4.425   1.692
 4688TIP3   OH213948   8.954   4.170   2.255
 4688TIP3    H113949   8.926   4.088   2.300
 4688TIP3    H213950   9.013   4.131   2.187
 4689TIP3   OH213951   8.855   3.917   2.331
 4689TIP3    H113952   8.892   3.842   2.283
 4689TIP3    H213953   8.904   3.911   2.415
 4690TIP3   OH213954   8.121   4.401   0.663
 4690TIP3    H113955   8.210   4.438   0.645
 4690TIP3    H213956   8.124   4.318   0.612
 4691TIP3   OH213957   8.042   5.022   1.060
 4691TIP3    H113958   7.979   4.957   1.022
 4691TIP3    H213959   8.089   4.965   1.125
 4692TIP3   OH213960   8.179   4.873   1.246
 4692TIP3    H113961   8.170   4.799   1.308
 4692TIP3    H213962   8.232   4.934   1.300
 4693TIP3   OH213963   8.367   4.275   1.620
 4693TIP3    H113964   8.364   4.247   1.526
 4693TIP3    H213965   8.464   4.280   1.633
 4694TIP3   OH213966   8.593   3.972   2.316
 4694TIP3    H113967   8.689   3.957   2.336
 4694TIP3    H213968   8.557   3.886   2.346
 4695TIP3   OH213969   8.539   3.661   1.631
 4695TIP3    H113970   8.599   3.583   1.635
 4695TIP3    H213971   8.603   3.733   1.619
 4696TIP3   OH213972   8.353   3.934   1.703
 4696TIP3    H113973   8.397   3.919   1.617
 4696TIP3    H213974   8.377   4.025   1.719
 4697TIP3   OH213975   8.331   3.433   1.198
 4697TIP3    H113976   8.238   3.431   1.225
 4697TIP3    H213977   8.329   3.492   1.120
 4698TIP3   OH213978   8.551   3.536   2.015
 4698TIP3    H113979   8.502   3.515   2.096
 4698TIP3    H213980   8.479   3.561   1.955
 4699TIP3   OH213981   8.591   4.944   2.088
 4699TIP3    H113982   8.499   4.916   2.074
 4699TIP3    H213983   8.605   4.926   2.182
 4700TIP3   OH213984   8.768   4.978   1.635
 4700TIP3    H113985   8.723   5.056   1.595
 4700TIP3    H213986   8.855   4.988   1.592
 4701TIP3   OH213987   9.228   5.231   1.770
 4701TIP3    H113988   9.251   5.221   1.866
 4701TIP3    H213989   9.311   5.265   1.736
 4702TIP3   OH213990   8.446   5.231   1.659
 4702TIP3    H113991   8.357   5.266   1.637
 4702TIP3    H213992   8.457   5.269   1.747
 4703TIP3   OH213993   8.684   5.213   1.519
 4703TIP3    H113994   8.596   5.225   1.562
 4703TIP3    H213995   8.665   5.244   1.428
 4704TIP3   OH213996   9.090   5.241   1.315
 4704TIP3    H113997   9.023   5.257   1.245
 4704TIP3    H213998   9.102   5.331   1.351
 4705TIP3   OH213999   9.354   5.201   1.359
 4705TIP3    H114000   9.258   5.198   1.342
 4705TIP3    H214001   9.380   5.283   1.316
 4706TIP3   OH214002   8.357   5.025   1.404
 4706TIP3    H114003   8.384   5.000   1.495
 4706TIP3    H214004   8.429   4.982   1.354
 4707TIP3   OH214005   8.550   4.897   1.261
 4707TIP3    H114006   8.567   4.814   1.310
 4707TIP3    H214007   8.641   4.936   1.257
 4708TIP3   OH214008   8.812   4.997   1.265
 4708TIP3    H114009   8.838   4.903   1.254
 4708TIP3    H214010   8.861   5.018   1.346
 4709TIP3   OH214011   8.635   3.366   1.362
 4709TIP3    H114012   8.542   3.337   1.363
 4709TIP3    H214013   8.679   3.278   1.367
 4710TIP3   OH214014   8.430   3.226   1.013
 4710TIP3    H114015   8.457   3.287   0.941
 4710TIP3    H214016   8.400   3.288   1.082
 4711TIP3   OH214017   8.143   4.796   0.807
 4711TIP3    H114018   8.058   4.765   0.769
 4711TIP3    H214019   8.139   4.889   0.776
 4712TIP3   OH214020   8.541   3.387   0.789
 4712TIP3    H114021   8.580   3.324   0.725
 4712TIP3    H214022   8.619   3.434   0.823
 4713TIP3   OH214023   8.816   3.626   2.228
 4713TIP3    H114024   8.779   3.568   2.297
 4713TIP3    H214025   8.908   3.633   2.262
 4714TIP3   OH214026   9.048   3.637   2.364
 4714TIP3    H114027   9.145   3.652   2.359
 4714TIP3    H214028   9.047   3.569   2.435
 4715TIP3   OH214029   8.232   4.814   0.509
 4715TIP3    H114030   8.243   4.877   0.581
 4715TIP3    H214031   8.323   4.805   0.476
 4716TIP3   OH214032  -0.018   4.897   3.150
 4716TIP3    H114033  -0.042   4.988   3.124
 4716TIP3    H214034  -0.089   4.847   3.107
 4717TIP3   OH214035  -0.005   4.893   3.517
 4717TIP3    H114036   0.023   4.864   3.606
 4717TIP3    H214037  -0.043   4.812   3.479
 4718TIP3   OH214038   0.229   5.206   3.201
 4718TIP3    H114039   0.218   5.132   3.261
 4718TIP3    H214040   0.260   5.277   3.260
 4719TIP3   OH214041  -0.123   5.661   3.214
 4719TIP3    H114042  -0.077   5.585   3.172
 4719TIP3    H214043  -0.134   5.629   3.305
 4720TIP3   OH214044  -0.227   5.066   3.546
 4720TIP3    H114045  -0.146   5.018   3.521
 4720TIP3    H214046  -0.187   5.146   3.583
 4721TIP3   OH214047   0.806   4.438   3.572
 4721TIP3    H114048   0.831   4.525   3.609
 4721TIP3    H214049   0.807   4.457   3.477
 4722TIP3   OH214050   0.197   4.625   3.604
 4722TIP3    H114051   0.249   4.544   3.620
 4722TIP3    H214052   0.173   4.612   3.510
 4723TIP3   OH214053  -0.429   4.277   3.576
 4723TIP3    H114054  -0.465   4.357   3.532
 4723TIP3    H214055  -0.466   4.208   3.517
 4724TIP3   OH214056   0.237   4.382   3.189
 4724TIP3    H114057   0.310   4.357   3.250
 4724TIP3    H214058   0.281   4.457   3.142
 4725TIP3   OH214059  -0.387   4.690   3.485
 4725TIP3    H114060  -0.293   4.662   3.487
 4725TIP3    H214061  -0.429   4.615   3.440
 4726TIP3   OH214062   0.876   4.651   3.739
 4726TIP3    H114063   0.793   4.698   3.716
 4726TIP3    H214064   0.886   4.678   3.831
 4727TIP3   OH214065  -0.117   5.119   3.009
 4727TIP3    H114066  -0.158   5.096   2.925
 4727TIP3    H214067  -0.165   5.201   3.032
 4728TIP3   OH214068   0.442   4.363   3.369
 4728TIP3    H114069   0.441   4.342   3.463
 4728TIP3    H214070   0.483   4.452   3.371
 4729TIP3   OH214071   0.302   5.440   3.370
 4729TIP3    H114072   0.212   5.433   3.410
 4729TIP3    H214073   0.295   5.527   3.326
 4730TIP3   OH214074   0.593   4.341   3.732
 4730TIP3    H114075   0.506   4.372   3.701
 4730TIP3    H214076   0.653   4.375   3.662
 4731TIP3   OH214077  -0.113   3.979   3.712
 4731TIP3    H114078  -0.117   3.884   3.731
 4731TIP3    H214079  -0.181   4.014   3.772
 4732TIP3   OH214080   0.002   5.483   3.042
 4732TIP3    H114081   0.054   5.402   3.023
 4732TIP3    H214082   0.064   5.551   3.005
 4733TIP3   OH214083   0.149   5.271   2.946
 4733TIP3    H114084   0.107   5.189   2.916
 4733TIP3    H214085   0.186   5.243   3.032
 4734TIP3   OH214086   0.528   5.354   3.715
 4734TIP3    H114087   0.518   5.277   3.655
 4734TIP3    H214088   0.511   5.429   3.655
 4735TIP3   OH214089  -0.178   4.753   2.970
 4735TIP3    H114090  -0.257   4.801   2.940
 4735TIP3    H214091  -0.126   4.745   2.888
 4736TIP3   OH214092  -0.222   4.533   2.696
 4736TIP3    H114093  -0.153   4.583   2.742
 4736TIP3    H214094  -0.164   4.475   2.641
 4737TIP3   OH214095   0.725   4.995   3.561
 4737TIP3    H114096   0.641   5.045   3.565
 4737TIP3    H214097   0.753   5.015   3.470
 4738TIP3   OH214098   0.155   4.843   2.941
 4738TIP3    H114099   0.111   4.861   3.027
 4738TIP3    H214100   0.230   4.786   2.974
 4739TIP3   OH214101   0.401   4.870   3.857
 4739TIP3    H114102   0.400   4.952   3.908
 4739TIP3    H214103   0.317   4.877   3.808
 4740TIP3   OH214104  -0.458   4.787   3.728
 4740TIP3    H114105  -0.427   4.752   3.641
 4740TIP3    H214106  -0.402   4.865   3.740
 4741TIP3   OH214107   0.061   5.437   3.492
 4741TIP3    H114108   0.048   5.514   3.549
 4741TIP3    H214109   0.045   5.362   3.552
 4742TIP3   OH214110   0.006   4.690   2.772
 4742TIP3    H114111   0.066   4.748   2.824
 4742TIP3    H214112   0.033   4.714   2.680
 4743TIP3   OH214113  -0.255   5.374   3.048
 4743TIP3    H114114  -0.168   5.412   3.066
 4743TIP3    H214115  -0.298   5.446   2.999
 4744TIP3   OH214116   0.521   3.928   2.815
 4744TIP3    H114117   0.443   3.951   2.870
 4744TIP3    H214118   0.540   4.015   2.773
 4745TIP3   OH214119   0.768   5.699   3.761
 4745TIP3    H114120   0.765   5.602   3.776
 4745TIP3    H214121   0.685   5.726   3.805
 4746TIP3   OH214122  -0.106   5.470   3.908
 4746TIP3    H114123  -0.103   5.564   3.937
 4746TIP3    H214124  -0.201   5.457   3.895
 4747TIP3   OH214125  -0.342   5.593   2.870
 4747TIP3    H114126  -0.374   5.575   2.780
 4747TIP3    H214127  -0.363   5.687   2.881
 4748TIP3   OH214128  -0.168   5.519   2.492
 4748TIP3    H114129  -0.111   5.449   2.451
 4748TIP3    H214130  -0.124   5.529   2.579
 4749TIP3   OH214131  -0.099   5.557   2.756
 4749TIP3    H114132  -0.180   5.557   2.810
 4749TIP3    H214133  -0.035   5.524   2.821
 4750TIP3   OH214134   0.657   4.830   4.035
 4750TIP3    H114135   0.576   4.843   3.983
 4750TIP3    H214136   0.672   4.734   4.025
 4751TIP3   OH214137  -0.359   4.065   3.849
 4751TIP3    H114138  -0.427   4.029   3.790
 4751TIP3    H214139  -0.353   4.157   3.818
 4752TIP3   OH214140   0.188   4.175   4.038
 4752TIP3    H114141   0.258   4.150   4.101
 4752TIP3    H214142   0.105   4.155   4.087
 4753TIP3   OH214143   0.422   4.604   3.956
 4753TIP3    H114144   0.375   4.601   4.042
 4753TIP3    H214145   0.402   4.693   3.922
 4754TIP3   OH214146   0.080   4.743   2.517
 4754TIP3    H114147   0.049   4.708   2.431
 4754TIP3    H214148   0.169   4.775   2.494
 4755TIP3   OH214149  -0.200   4.114   2.808
 4755TIP3    H114150  -0.224   4.113   2.903
 4755TIP3    H214151  -0.257   4.045   2.775
 4756TIP3   OH214152  -0.437   4.558   3.873
 4756TIP3    H114153  -0.470   4.599   3.953
 4756TIP3    H214154  -0.442   4.634   3.811
 4757TIP3   OH214155  -0.539   4.451   3.383
 4757TIP3    H114156  -0.633   4.466   3.366
 4757TIP3    H214157  -0.513   4.408   3.299
 4758TIP3   OH214158  -0.053   4.538   3.091
 4758TIP3    H114159  -0.095   4.617   3.053
 4758TIP3    H214160   0.022   4.521   3.031
 4759TIP3   OH214161   0.135   4.826   4.189
 4759TIP3    H114162   0.114   4.753   4.252
 4759TIP3    H214163   0.229   4.840   4.211
 4760TIP3   OH214164   0.095   4.567   3.356
 4760TIP3    H114165   0.076   4.621   3.278
 4760TIP3    H214166   0.142   4.494   3.311
 4761TIP3   OH214167  -0.489   4.083   2.811
 4761TIP3    H114168  -0.511   4.064   2.904
 4761TIP3    H214169  -0.573   4.115   2.775
 4762TIP3   OH214170   0.115   4.822   3.766
 4762TIP3    H114171   0.153   4.752   3.708
 4762TIP3    H214172   0.096   4.769   3.846
 4763TIP3   OH214173  -0.192   4.284   3.432
 4763TIP3    H114174  -0.269   4.288   3.493
 4763TIP3    H214175  -0.117   4.285   3.494
 4764TIP3   OH214176  -0.499   4.333   3.133
 4764TIP3    H114177  -0.402   4.346   3.128
 4764TIP3    H214178  -0.530   4.369   3.048
 4765TIP3   OH214179   0.293   4.362   3.647
 4765TIP3    H114180   0.249   4.375   3.734
 4765TIP3    H214181   0.230   4.305   3.601
 4766TIP3   OH214182  -0.678   4.392   2.908
 4766TIP3    H114183  -0.701   4.310   2.862
 4766TIP3    H214184  -0.608   4.426   2.848
 4767TIP3   OH214185   0.460   6.048   3.859
 4767TIP3    H114186   0.459   6.076   3.766
 4767TIP3    H214187   0.537   6.098   3.894
 4768TIP3   OH214188  -0.122   4.609   3.529
 4768TIP3    H114189  -0.050   4.584   3.467
 4768TIP3    H214190  -0.093   4.566   3.610
 4769TIP3   OH214191  -0.562   4.104   3.413
 4769TIP3    H114192  -0.630   4.034   3.428
 4769TIP3    H214193  -0.521   4.070   3.332
 4770TIP3   OH214194  -0.146   4.500   3.842
 4770TIP3    H114195  -0.231   4.547   3.839
 4770TIP3    H214196  -0.084   4.566   3.879
 4771TIP3   OH214197  -0.407   4.896   2.903
 4771TIP3    H114198  -0.484   4.835   2.902
 4771TIP3    H214199  -0.416   4.935   2.994
 4772TIP3   OH214200   0.491   5.138   3.550
 4772TIP3    H114201   0.516   5.187   3.469
 4772TIP3    H214202   0.405   5.098   3.525
 4773TIP3   OH214203   0.056   4.213   2.783
 4773TIP3    H114204  -0.042   4.203   2.790
 4773TIP3    H214205   0.072   4.307   2.804
 4774TIP3   OH214206  -0.019   5.207   3.925
 4774TIP3    H114207   0.021   5.204   4.013
 4774TIP3    H214208  -0.049   5.301   3.921
 4775TIP3   OH214209   0.132   4.462   2.877
 4775TIP3    H114210   0.221   4.488   2.908
 4775TIP3    H214211   0.105   4.543   2.830
 4776TIP3   OH214212  -0.255   5.043   2.735
 4776TIP3    H114213  -0.301   5.130   2.745
 4776TIP3    H214214  -0.310   4.987   2.794
 4777TIP3   OH214215  -0.099   4.962   4.237
 4777TIP3    H114216  -0.154   4.890   4.200
 4777TIP3    H214217  -0.010   4.934   4.207
 4778TIP3   OH214218   0.156   5.475   3.814
 4778TIP3    H114219   0.060   5.470   3.831
 4778TIP3    H214220   0.184   5.528   3.891
 4779TIP3   OH214221   0.580   4.547   2.695
 4779TIP3    H114222   0.500   4.507   2.658
 4779TIP3    H214223   0.565   4.640   2.670
 4780TIP3   OH214224   0.779   5.407   3.804
 4780TIP3    H114225   0.681   5.403   3.796
 4780TIP3    H214226   0.804   5.377   3.714
 4781TIP3   OH214227   0.259   5.364   2.631
 4781TIP3    H114228   0.234   5.320   2.714
 4781TIP3    H214229   0.265   5.290   2.570
 4782TIP3   OH214230   0.256   4.998   3.473
 4782TIP3    H114231   0.161   4.975   3.482
 4782TIP3    H214232   0.291   4.917   3.433
 4783TIP3   OH214233  -0.436   4.994   3.151
 4783TIP3    H114234  -0.439   5.087   3.175
 4783TIP3    H214235  -0.466   4.952   3.232
 4784TIP3   OH214236   0.043   5.205   3.651
 4784TIP3    H114237   0.029   5.199   3.748
 4784TIP3    H214238   0.123   5.153   3.639
 4785TIP3   OH214239   0.023   5.098   2.526
 4785TIP3    H114240   0.073   5.072   2.606
 4785TIP3    H214241  -0.066   5.069   2.552
 4786TIP3   OH214242   0.292   5.735   3.699
 4786TIP3    H114243   0.211   5.680   3.693
 4786TIP3    H214244   0.275   5.801   3.628
 4787TIP3   OH214245   0.359   5.570   2.348
 4787TIP3    H114246   0.398   5.647   2.303
 4787TIP3    H214247   0.276   5.611   2.380
 4788TIP3   OH214248   0.178   5.030   2.744
 4788TIP3    H114249   0.162   4.966   2.817
 4788TIP3    H214250   0.275   5.026   2.740
 4789TIP3   OH214251  -0.561   5.049   2.558
 4789TIP3    H114252  -0.546   4.963   2.513
 4789TIP3    H214253  -0.564   5.022   2.650
 4790TIP3   OH214254   0.204   4.419   3.905
 4790TIP3    H114255   0.289   4.455   3.934
 4790TIP3    H214256   0.198   4.336   3.957
 4791TIP3   OH214257   0.094   4.170   3.067
 4791TIP3    H114258   0.086   4.193   2.973
 4791TIP3    H214259   0.141   4.250   3.102
 4792TIP3   OH214260  -0.399   5.269   2.760
 4792TIP3    H114261  -0.489   5.296   2.784
 4792TIP3    H214262  -0.382   5.324   2.681
 4793TIP3   OH214263  -0.228   4.346   3.167
 4793TIP3    H114264  -0.161   4.414   3.142
 4793TIP3    H214265  -0.209   4.336   3.263
 4794TIP3   OH214266   0.046   4.663   3.976
 4794TIP3    H114267   0.074   4.714   4.055
 4794TIP3    H214268   0.102   4.584   3.982
 4795TIP3   OH214269  -0.066   4.069   3.270
 4795TIP3    H114270  -0.072   4.144   3.333
 4795TIP3    H214271  -0.006   4.108   3.202
 4796TIP3   OH214272  -0.528   4.059   3.084
 4796TIP3    H114273  -0.533   4.152   3.111
 4796TIP3    H214274  -0.431   4.046   3.082
 4797TIP3   OH214275   0.691   4.563   3.954
 4797TIP3    H114276   0.593   4.559   3.962
 4797TIP3    H214277   0.702   4.525   3.865
 4798TIP3   OH214278   0.310   5.712   3.292
 4798TIP3    H114279   0.269   5.759   3.216
 4798TIP3    H214280   0.405   5.731   3.272
 4799TIP3   OH214281  -0.417   5.270   2.464
 4799TIP3    H114282  -0.467   5.192   2.495
 4799TIP3    H214283  -0.365   5.232   2.392
 4800TIP3   OH214284   0.204   5.612   4.047
 4800TIP3    H114285   0.199   5.541   4.115
 4800TIP3    H214286   0.282   5.663   4.076
 4801TIP3   OH214287  -0.028   5.323   2.366
 4801TIP3    H114288   0.010   5.251   2.420
 4801TIP3    H214289   0.024   5.324   2.283
 4802TIP3   OH214290  -0.161   5.236   4.238
 4802TIP3    H114291  -0.223   5.223   4.166
 4802TIP3    H214292  -0.130   5.145   4.253
 4803TIP3   OH214293  -0.281   4.989   2.467
 4803TIP3    H114294  -0.282   5.005   2.564
 4803TIP3    H214295  -0.284   4.891   2.465
 4804TIP3   OH214296   0.312   5.242   3.851
 4804TIP3    H114297   0.389   5.284   3.808
 4804TIP3    H214298   0.244   5.311   3.835
 4805TIP3   OH214299  -0.603   4.704   2.889
 4805TIP3    H114300  -0.618   4.651   2.968
 4805TIP3    H214301  -0.562   4.638   2.829
 4806TIP3   OH214302  -0.259   4.772   4.107
 4806TIP3    H114303  -0.344   4.819   4.107
 4806TIP3    H214304  -0.224   4.800   4.019
 4807TIP3   OH214305  -0.492   4.497   2.746
 4807TIP3    H114306  -0.519   4.501   2.652
 4807TIP3    H214307  -0.394   4.500   2.735
 4808TIP3   OH214308   0.182   5.161   4.250
 4808TIP3    H114309   0.263   5.142   4.202
 4808TIP3    H214310   0.186   5.096   4.323
 4809TIP3   OH214311   0.313   4.830   2.392
 4809TIP3    H114312   0.297   4.779   2.310
 4809TIP3    H214313   0.295   4.921   2.362
 4810TIP3   OH214314  -0.200   4.538   4.254
 4810TIP3    H114315  -0.208   4.464   4.192
 4810TIP3    H214316  -0.227   4.615   4.200
 4811TIP3   OH214317  -0.219   4.330   4.044
 4811TIP3    H114318  -0.175   4.378   3.971
 4811TIP3    H214319  -0.312   4.344   4.024
 4812TIP3   OH214320  -0.183   4.896   3.874
 4812TIP3    H114321  -0.092   4.874   3.848
 4812TIP3    H214322  -0.183   4.992   3.861
 4813TIP3   OH214323   0.397   4.846   4.298
 4813TIP3    H114324   0.444   4.768   4.331
 4813TIP3    H214325   0.470   4.901   4.265
 4814TIP3   OH214326   0.442   5.097   4.038
 4814TIP3    H114327   0.384   5.151   3.979
 4814TIP3    H214328   0.530   5.117   3.999
 4815TIP3   OH214329  -0.075   4.103   4.116
 4815TIP3    H114330  -0.126   4.183   4.092
 4815TIP3    H214331  -0.143   4.033   4.109
 4816TIP3   OH214332   0.054   4.610   4.335
 4816TIP3    H114333   0.045   4.601   4.432
 4816TIP3    H214334  -0.036   4.581   4.309
 4817TIP3   OH214335   0.289   4.557   4.186
 4817TIP3    H114336   0.217   4.560   4.251
 4817TIP3    H214337   0.365   4.528   4.241
 4818TIP3   OH214338   0.520   4.493   4.329
 4818TIP3    H114339   0.531   4.399   4.356
 4818TIP3    H214340   0.512   4.540   4.415
 4819TIP3   OH214341   0.018   4.114   4.374
 4819TIP3    H114342   0.087   4.045   4.370
 4819TIP3    H214343  -0.019   4.107   4.284
 4820TIP3   OH214344   0.085   4.328   4.534
 4820TIP3    H114345   0.063   4.258   4.469
 4820TIP3    H214346   0.010   4.390   4.524
 4821TIP3   OH214347   0.562   5.804   3.249
 4821TIP3    H114348   0.588   5.836   3.337
 4821TIP3    H214349   0.626   5.850   3.191
 4822TIP3   OH214350   0.591   5.823   3.529
 4822TIP3    H114351   0.550   5.733   3.528
 4822TIP3    H214352   0.667   5.805   3.587
 4823TIP3   OH214353   0.640   5.499   4.104
 4823TIP3    H114354   0.567   5.508   4.168
 4823TIP3    H214355   0.680   5.588   4.107
 4824TIP3   OH214356   0.457   5.015   2.727
 4824TIP3    H114357   0.531   5.076   2.707
 4824TIP3    H214358   0.491   4.972   2.809
 4825TIP3   OH214359   0.571   4.877   2.936
 4825TIP3    H114360   0.513   4.816   2.986
 4825TIP3    H214361   0.633   4.909   3.004
 4826TIP3   OH214362   0.637   5.273   3.360
 4826TIP3    H114363   0.690   5.207   3.311
 4826TIP3    H214364   0.630   5.346   3.296
 4827TIP3   OH214365   0.469   5.572   3.556
 4827TIP3    H114366   0.399   5.616   3.608
 4827TIP3    H214367   0.417   5.525   3.486
 4828TIP3   OH214368   0.522   4.795   2.571
 4828TIP3    H114369   0.444   4.792   2.512
 4828TIP3    H214370   0.494   4.864   2.635
 4829TIP3   OH214371   0.376   4.466   2.527
 4829TIP3    H114372   0.346   4.491   2.439
 4829TIP3    H214373   0.360   4.370   2.526
 4830TIP3   OH214374   0.686   5.162   3.931
 4830TIP3    H114375   0.758   5.097   3.922
 4830TIP3    H214376   0.712   5.232   3.870
 4831TIP3   OH214377   0.872   4.968   3.947
 4831TIP3    H114378   0.797   4.918   3.986
 4831TIP3    H214379   0.944   4.904   3.962
 4832TIP3   OH214380   0.338   4.197   2.511
 4832TIP3    H114381   0.415   4.170   2.566
 4832TIP3    H214382   0.267   4.137   2.541
 4833TIP3   OH214383   0.564   4.604   3.478
 4833TIP3    H114384   0.637   4.642   3.424
 4833TIP3    H214385   0.572   4.660   3.557
 4834TIP3   OH214386   0.627   4.775   3.699
 4834TIP3    H114387   0.547   4.808   3.744
 4834TIP3    H214388   0.659   4.855   3.652
 4835TIP3   OH214389   1.079   4.365   4.252
 4835TIP3    H114390   1.135   4.298   4.208
 4835TIP3    H214391   1.047   4.418   4.176
 4836TIP3   OH214392   0.527   4.177   2.991
 4836TIP3    H114393   0.551   4.192   3.084
 4836TIP3    H214394   0.447   4.122   3.000
 4837TIP3   OH214395   0.946   4.502   4.059
 4837TIP3    H114396   0.861   4.543   4.081
 4837TIP3    H214397   0.915   4.431   3.999
 4838TIP3   OH214398   0.583   4.140   2.635
 4838TIP3    H114399   0.626   4.067   2.586
 4838TIP3    H214400   0.652   4.209   2.636
 4839TIP3   OH214401   0.145   5.670   2.907
 4839TIP3    H114402   0.198   5.661   2.825
 4839TIP3    H214403   0.197   5.736   2.956
 4840TIP3   OH214404  -0.101   5.733   3.984
 4840TIP3    H114405  -0.074   5.753   4.076
 4840TIP3    H214406  -0.046   5.796   3.934
 4841TIP3   OH214407   0.050   5.910   3.831
 4841TIP3    H114408   0.120   5.852   3.796
 4841TIP3    H214409   0.103   5.962   3.897
 4842TIP3   OH214410   0.845   4.266   3.936
 4842TIP3    H114411   0.755   4.262   3.900
 4842TIP3    H214412   0.874   4.173   3.924
 4843TIP3   OH214413  -0.224   5.798   3.480
 4843TIP3    H114414  -0.320   5.809   3.474
 4843TIP3    H214415  -0.199   5.877   3.533
 4844TIP3   OH214416   0.034   5.715   3.570
 4844TIP3    H114417  -0.054   5.732   3.531
 4844TIP3    H214418   0.087   5.785   3.529
 4845TIP3   OH214419   0.235   5.899   3.484
 4845TIP3    H114420   0.227   5.985   3.438
 4845TIP3    H214421   0.267   5.841   3.412
 4846TIP3   OH214422   0.046   4.179   3.551
 4846TIP3    H114423   0.009   4.104   3.601
 4846TIP3    H214424   0.126   4.139   3.510
 4847TIP3   OH214425   0.569   4.058   3.461
 4847TIP3    H114426   0.611   4.110   3.388
 4847TIP3    H214427   0.477   4.090   3.457
 4848TIP3   OH214428   0.672   4.159   3.232
 4848TIP3    H114429   0.741   4.111   3.182
 4848TIP3    H214430   0.700   4.252   3.213
 4849TIP3   OH214431  -0.251   3.926   3.454
 4849TIP3    H114432  -0.198   3.975   3.389
 4849TIP3    H214433  -0.215   3.959   3.537
 4850TIP3   OH214434   0.277   4.068   3.442
 4850TIP3    H114435   0.293   4.038   3.351
 4850TIP3    H214436   0.268   3.983   3.490
 4851TIP3   OH214437   0.315   3.987   2.997
 4851TIP3    H114438   0.232   4.035   3.012
 4851TIP3    H214439   0.299   3.904   3.046
 4852TIP3   OH214440  -0.260   4.093   3.078
 4852TIP3    H114441  -0.198   4.054   3.142
 4852TIP3    H214442  -0.246   4.188   3.100
 4853TIP3   OH214443  -0.418   5.523   2.610
 4853TIP3    H114444  -0.329   5.526   2.568
 4853TIP3    H214445  -0.467   5.484   2.535
 4854TIP3   OH214446   0.291   5.635   2.674
 4854TIP3    H114447   0.285   5.539   2.657
 4854TIP3    H214448   0.249   5.671   2.593
 4855TIP3   OH214449  -0.249   4.139   4.566
 4855TIP3    H114450  -0.165   4.136   4.518
 4855TIP3    H214451  -0.229   4.084   4.643
 4856TIP3   OH214452   0.580   4.224   4.370
 4856TIP3    H114453   0.599   4.195   4.462
 4856TIP3    H214454   0.669   4.221   4.329
 4857TIP3   OH214455   0.523   5.781   3.858
 4857TIP3    H114456   0.442   5.750   3.812
 4857TIP3    H214457   0.503   5.876   3.864
 4858TIP3   OH214458   1.785   5.153   2.630
 4858TIP3    H114459   1.756   5.244   2.607
 4858TIP3    H214460   1.710   5.102   2.593
 4859TIP3   OH214461   1.786   5.154   3.007
 4859TIP3    H114462   1.815   5.121   3.094
 4859TIP3    H214463   1.744   5.076   2.968
 4860TIP3   OH214464   1.084   5.049   3.373
 4860TIP3    H114465   1.115   4.980   3.434
 4860TIP3    H214466   1.162   5.105   3.366
 4861TIP3   OH214467   2.030   5.455   2.689
 4861TIP3    H114468   2.012   5.385   2.754
 4861TIP3    H214469   2.056   5.530   2.745
 4862TIP3   OH214470   1.055   5.459   3.098
 4862TIP3    H114471   1.047   5.361   3.100
 4862TIP3    H214472   1.152   5.468   3.092
 4863TIP3   OH214473   0.762   4.666   2.889
 4863TIP3    H114474   0.706   4.744   2.901
 4863TIP3    H214475   0.694   4.600   2.869
 4864TIP3   OH214476   0.821   4.950   3.057
 4864TIP3    H114477   0.867   4.870   3.092
 4864TIP3    H214478   0.875   4.971   2.980
 4865TIP3   OH214479   1.677   5.918   2.706
 4865TIP3    H114480   1.722   5.846   2.657
 4865TIP3    H214481   1.669   5.879   2.794
 4866TIP3   OH214482   1.583   5.378   3.058
 4866TIP3    H114483   1.620   5.303   3.009
 4866TIP3    H214484   1.666   5.424   3.081
 4867TIP3   OH214485   2.594   4.693   3.057
 4867TIP3    H114486   2.622   4.777   3.098
 4867TIP3    H214487   2.619   4.708   2.964
 4868TIP3   OH214488   1.995   4.877   3.091
 4868TIP3    H114489   2.040   4.792   3.105
 4868TIP3    H214490   1.964   4.866   2.999
 4869TIP3   OH214491   1.335   4.540   3.054
 4869TIP3    H114492   1.313   4.612   2.992
 4869TIP3    H214493   1.287   4.466   3.011
 4870TIP3   OH214494   2.026   4.635   2.676
 4870TIP3    H114495   2.100   4.615   2.739
 4870TIP3    H214496   2.079   4.661   2.598
 4871TIP3   OH214497   0.967   4.742   3.161
 4871TIP3    H114498   1.049   4.720   3.209
 4871TIP3    H214499   0.977   4.685   3.082
 4872TIP3   OH214500   1.407   4.939   2.955
 4872TIP3    H114501   1.501   4.914   2.966
 4872TIP3    H214502   1.368   4.855   2.922
 4873TIP3   OH214503   2.670   4.900   3.233
 4873TIP3    H114504   2.584   4.943   3.216
 4873TIP3    H214505   2.700   4.945   3.314
 4874TIP3   OH214506   1.331   4.524   3.490
 4874TIP3    H114507   1.271   4.560   3.421
 4874TIP3    H214508   1.277   4.541   3.570
 4875TIP3   OH214509   1.676   5.373   2.499
 4875TIP3    H114510   1.636   5.354   2.413
 4875TIP3    H214511   1.632   5.458   2.522
 4876TIP3   OH214512   1.438   5.298   3.285
 4876TIP3    H114513   1.375   5.364   3.322
 4876TIP3    H214514   1.478   5.348   3.211
 4877TIP3   OH214515   2.233   4.635   2.852
 4877TIP3    H114516   2.243   4.575   2.926
 4877TIP3    H214517   2.294   4.708   2.875
 4878TIP3   OH214518   1.202   4.638   3.273
 4878TIP3    H114519   1.265   4.711   3.295
 4878TIP3    H214520   1.250   4.598   3.197
 4879TIP3   OH214521   1.265   5.492   3.382
 4879TIP3    H114522   1.240   5.578   3.343
 4879TIP3    H214523   1.186   5.476   3.437
 4880TIP3   OH214524   0.668   5.187   2.626
 4880TIP3    H114525   0.641   5.235   2.548
 4880TIP3    H214526   0.704   5.261   2.679
 4881TIP3   OH214527   2.101   5.698   2.859
 4881TIP3    H114528   2.011   5.689   2.898
 4881TIP3    H214529   2.091   5.783   2.812
 4882TIP3   OH214530   2.378   4.600   3.222
 4882TIP3    H114531   2.293   4.619   3.180
 4882TIP3    H214532   2.442   4.634   3.157
 4883TIP3   OH214533   1.689   4.241   3.206
 4883TIP3    H114534   1.671   4.146   3.219
 4883TIP3    H214535   1.610   4.280   3.250
 4884TIP3   OH214536   1.801   5.744   2.533
 4884TIP3    H114537   1.849   5.661   2.511
 4884TIP3    H214538   1.862   5.809   2.491
 4885TIP3   OH214539   1.942   5.529   2.438
 4885TIP3    H114540   1.910   5.449   2.394
 4885TIP3    H214541   1.979   5.493   2.522
 4886TIP3   OH214542   2.326   5.609   3.202
 4886TIP3    H114543   2.312   5.533   3.142
 4886TIP3    H214544   2.305   5.685   3.142
 4887TIP3   OH214545   1.618   5.006   2.459
 4887TIP3    H114546   1.537   5.057   2.435
 4887TIP3    H214547   1.664   5.001   2.373
 4888TIP3   OH214548   1.575   4.789   2.174
 4888TIP3    H114549   1.643   4.840   2.222
 4888TIP3    H214550   1.632   4.725   2.127
 4889TIP3   OH214551   2.522   5.252   3.052
 4889TIP3    H114552   2.436   5.300   3.054
 4889TIP3    H214553   2.549   5.271   2.959
 4890TIP3   OH214554   1.963   5.088   2.430
 4890TIP3    H114555   1.910   5.111   2.509
 4890TIP3    H214556   2.047   5.061   2.471
 4891TIP3   OH214557   2.201   5.126   3.335
 4891TIP3    H114558   2.196   5.209   3.385
 4891TIP3    H214559   2.111   5.123   3.296
 4892TIP3   OH214560   1.195   5.085   2.847
 4892TIP3    H114561   1.154   5.027   2.780
 4892TIP3    H214562   1.272   5.031   2.876
 4893TIP3   OH214563   1.325   5.496   2.996
 4893TIP3    H114564   1.304   5.456   2.910
 4893TIP3    H214565   1.415   5.461   3.013
 4894TIP3   OH214566   1.337   5.054   3.203
 4894TIP3    H114567   1.365   5.034   3.112
 4894TIP3    H214568   1.376   5.142   3.220
 4895TIP3   OH214569   1.859   5.694   2.978
 4895TIP3    H114570   1.843   5.774   3.030
 4895TIP3    H214571   1.842   5.621   3.042
 4896TIP3   OH214572   1.470   5.611   3.527
 4896TIP3    H114573   1.410   5.674   3.572
 4896TIP3    H214574   1.405   5.558   3.476
 4897TIP3   OH214575   1.802   4.946   2.255
 4897TIP3    H114576   1.863   5.004   2.307
 4897TIP3    H214577   1.828   4.969   2.163
 4898TIP3   OH214578   1.225   5.167   3.628
 4898TIP3    H114579   1.229   5.255   3.671
 4898TIP3    H214580   1.130   5.148   3.637
 4899TIP3   OH214581   1.547   5.625   2.533
 4899TIP3    H114582   1.626   5.679   2.548
 4899TIP3    H214583   1.486   5.687   2.490
 4900TIP3   OH214584   1.265   5.779   3.612
 4900TIP3    H114585   1.229   5.781   3.522
 4900TIP3    H214586   1.186   5.758   3.666
 4901TIP3   OH214587   2.319   4.175   2.308
 4901TIP3    H114588   2.236   4.205   2.350
 4901TIP3    H214589   2.347   4.259   2.263
 4902TIP3   OH214590   1.062   4.928   2.653
 4902TIP3    H114591   0.996   4.970   2.593
 4902TIP3    H214592   1.023   4.841   2.667
 4903TIP3   OH214593   2.119   5.553   1.853
 4903TIP3    H114594   2.128   5.650   1.838
 4903TIP3    H214595   2.211   5.523   1.840
 4904TIP3   OH214596   0.843   5.311   3.559
 4904TIP3    H114597   0.778   5.289   3.490
 4904TIP3    H214598   0.880   5.223   3.582
 4905TIP3   OH214599   0.697   5.505   3.190
 4905TIP3    H114600   0.793   5.498   3.182
 4905TIP3    H214601   0.688   5.584   3.246
 4906TIP3   OH214602   2.565   5.958   3.250
 4906TIP3    H114603   2.560   5.861   3.261
 4906TIP3    H214604   2.480   5.984   3.293
 4907TIP3   OH214605   1.669   5.739   3.384
 4907TIP3    H114606   1.668   5.833   3.414
 4907TIP3    H214607   1.596   5.701   3.437
 4908TIP3   OH214608   1.429   5.870   2.334
 4908TIP3    H114609   1.383   5.852   2.250
 4908TIP3    H214610   1.396   5.959   2.357
 4909TIP3   OH214611   0.865   5.720   2.719
 4909TIP3    H114612   0.917   5.712   2.802
 4909TIP3    H214613   0.804   5.645   2.729
 4910TIP3   OH214614   1.631   5.772   1.973
 4910TIP3    H114615   1.689   5.702   1.937
 4910TIP3    H214616   1.664   5.781   2.065
 4911TIP3   OH214617   1.680   5.820   2.244
 4911TIP3    H114618   1.591   5.830   2.285
 4911TIP3    H214619   1.730   5.779   2.316
 4912TIP3   OH214620   1.048   5.493   3.546
 4912TIP3    H114621   1.097   5.478   3.630
 4912TIP3    H214622   0.974   5.430   3.555
 4913TIP3   OH214623   1.449   4.318   3.331
 4913TIP3    H114624   1.360   4.286   3.304
 4913TIP3    H214625   1.422   4.400   3.377
 4914TIP3   OH214626   1.978   4.435   3.528
 4914TIP3    H114627   2.046   4.400   3.590
 4914TIP3    H214628   1.894   4.410   3.572
 4915TIP3   OH214629   1.876   4.996   2.000
 4915TIP3    H114630   1.846   4.966   1.912
 4915TIP3    H214631   1.962   5.036   1.977
 4916TIP3   OH214632   1.591   4.368   2.303
 4916TIP3    H114633   1.558   4.364   2.394
 4916TIP3    H214634   1.554   4.285   2.267
 4917TIP3   OH214635   1.382   4.833   3.352
 4917TIP3    H114636   1.328   4.853   3.431
 4917TIP3    H214637   1.366   4.914   3.297
 4918TIP3   OH214638   1.263   4.720   2.864
 4918TIP3    H114639   1.170   4.693   2.882
 4918TIP3    H214640   1.275   4.679   2.775
 4919TIP3   OH214641   1.754   4.805   2.592
 4919TIP3    H114642   1.702   4.876   2.548
 4919TIP3    H214643   1.811   4.774   2.519
 4920TIP3   OH214644   1.930   5.080   3.673
 4920TIP3    H114645   1.905   5.014   3.741
 4920TIP3    H214646   2.023   5.096   3.694
 4921TIP3   OH214647   1.911   4.835   2.831
 4921TIP3    H114648   1.851   4.863   2.759
 4921TIP3    H214649   1.947   4.755   2.787
 4922TIP3   OH214650   1.201   4.863   3.558
 4922TIP3    H114651   1.218   4.927   3.628
 4922TIP3    H214652   1.186   4.781   3.609
 4923TIP3   OH214653   1.248   4.340   2.269
 4923TIP3    H114654   1.239   4.337   2.366
 4923TIP3    H214655   1.169   4.391   2.244
 4924TIP3   OH214656   0.795   4.379   3.141
 4924TIP3    H114657   0.872   4.412   3.192
 4924TIP3    H214658   0.832   4.351   3.057
 4925TIP3   OH214659   0.771   4.360   2.655
 4925TIP3    H114660   0.819   4.400   2.579
 4925TIP3    H214661   0.708   4.432   2.675
 4926TIP3   OH214662   1.925   5.080   3.254
 4926TIP3    H114663   1.957   5.007   3.195
 4926TIP3    H214664   1.890   5.027   3.328
 4927TIP3   OH214665   1.592   4.540   2.926
 4927TIP3    H114666   1.508   4.539   2.976
 4927TIP3    H214667   1.657   4.542   2.997
 4928TIP3   OH214668   1.024   4.599   2.932
 4928TIP3    H114669   0.929   4.608   2.906
 4928TIP3    H214670   1.043   4.506   2.909
 4929TIP3   OH214671   1.294   4.595   2.622
 4929TIP3    H114672   1.388   4.608   2.599
 4929TIP3    H214673   1.247   4.616   2.538
 4930TIP3   OH214674   2.089   4.616   3.135
 4930TIP3    H114675   2.044   4.628   3.221
 4930TIP3    H214676   2.027   4.556   3.090
 4931TIP3   OH214677   1.135   4.628   2.401
 4931TIP3    H114678   1.063   4.583   2.353
 4931TIP3    H214679   1.187   4.663   2.325
 4932TIP3   OH214680   2.253   6.304   3.346
 4932TIP3    H114681   2.248   6.330   3.252
 4932TIP3    H214682   2.328   6.359   3.377
 4933TIP3   OH214683   1.210   5.415   3.768
 4933TIP3    H114684   1.289   5.448   3.816
 4933TIP3    H214685   1.144   5.416   3.840
 4934TIP3   OH214686   1.674   4.870   3.022
 4934TIP3    H114687   1.746   4.832   2.970
 4934TIP3    H214688   1.684   4.825   3.108
 4935TIP3   OH214689   1.200   4.357   2.903
 4935TIP3    H114690   1.162   4.278   2.948
 4935TIP3    H214691   1.243   4.317   2.826
 4936TIP3   OH214692   1.649   4.764   3.316
 4936TIP3    H114693   1.558   4.799   3.324
 4936TIP3    H214694   1.703   4.831   3.363
 4937TIP3   OH214695   1.386   5.158   2.407
 4937TIP3    H114696   1.313   5.092   2.396
 4937TIP3    H214697   1.368   5.191   2.498
 4938TIP3   OH214698   2.287   5.392   3.037
 4938TIP3    H114699   2.310   5.442   2.956
 4938TIP3    H214700   2.202   5.349   3.013
 4939TIP3   OH214701   1.846   4.469   2.272
 4939TIP3    H114702   1.749   4.454   2.278
 4939TIP3    H214703   1.857   4.563   2.295
 4940TIP3   OH214704   1.790   5.477   3.405
 4940TIP3    H114705   1.804   5.456   3.498
 4940TIP3    H214706   1.748   5.565   3.408
 4941TIP3   OH214707   1.917   4.718   2.374
 4941TIP3    H114708   2.014   4.721   2.387
 4941TIP3    H214709   1.901   4.795   2.317
 4942TIP3   OH214710   1.082   5.183   3.084
 4942TIP3    H114711   1.118   5.152   2.998
 4942TIP3    H214712   1.114   5.115   3.145
 4943TIP3   OH214713   1.531   5.307   2.228
 4943TIP3    H114714   1.484   5.393   2.233
 4943TIP3    H214715   1.477   5.252   2.288
 4944TIP3   OH214716   0.961   5.097   3.696
 4944TIP3    H114717   0.977   5.084   3.791
 4944TIP3    H214718   0.889   5.034   3.678
 4945TIP3   OH214719   1.684   5.212   3.718
 4945TIP3    H114720   1.620   5.156   3.671
 4945TIP3    H214721   1.769   5.179   3.681
 4946TIP3   OH214722   1.948   5.733   3.301
 4946TIP3    H114723   1.851   5.732   3.312
 4946TIP3    H214724   1.975   5.786   3.379
 4947TIP3   OH214725   2.353   4.809   2.233
 4947TIP3    H114726   2.339   4.727   2.182
 4947TIP3    H214727   2.329   4.876   2.166
 4948TIP3   OH214728   2.576   5.664   3.289
 4948TIP3    H114729   2.478   5.661   3.280
 4948TIP3    H214730   2.601   5.634   3.199
 4949TIP3   OH214731   2.059   5.626   2.118
 4949TIP3    H114732   2.031   5.555   2.178
 4949TIP3    H214733   2.069   5.579   2.033
 4950TIP3   OH214734   2.054   5.254   2.958
 4950TIP3    H114735   1.960   5.230   2.969
 4950TIP3    H214736   2.086   5.175   2.911
 4951TIP3   OH214737   1.181   5.483   2.709
 4951TIP3    H114738   1.182   5.564   2.654
 4951TIP3    H214739   1.086   5.468   2.718
 4952TIP3   OH214740   0.741   4.791   2.409
 4952TIP3    H114741   0.791   4.871   2.434
 4952TIP3    H214742   0.667   4.793   2.474
 4953TIP3   OH214743   1.318   5.248   2.653
 4953TIP3    H114744   1.284   5.338   2.670
 4953TIP3    H214745   1.281   5.198   2.728
 4954TIP3   OH214746   1.449   5.827   3.177
 4954TIP3    H114747   1.489   5.900   3.126
 4954TIP3    H214748   1.526   5.793   3.225
 4955TIP3   OH214749   1.100   5.722   2.561
 4955TIP3    H114750   1.014   5.731   2.606
 4955TIP3    H214751   1.133   5.814   2.563
 4956TIP3   OH214752   1.837   5.461   3.136
 4956TIP3    H114753   1.829   5.459   3.234
 4956TIP3    H214754   1.915   5.405   3.122
 4957TIP3   OH214755   1.813   5.355   2.019
 4957TIP3    H114756   1.866   5.329   2.098
 4957TIP3    H214757   1.725   5.326   2.048
 4958TIP3   OH214758   2.087   5.994   3.185
 4958TIP3    H114759   2.006   5.939   3.177
 4958TIP3    H214760   2.072   6.060   3.114
 4959TIP3   OH214761   2.152   5.829   1.838
 4959TIP3    H114762   2.188   5.901   1.785
 4959TIP3    H214763   2.071   5.873   1.873
 4960TIP3   OH214764   1.169   4.606   3.705
 4960TIP3    H114765   1.072   4.610   3.716
 4960TIP3    H214766   1.194   4.544   3.776
 4961TIP3   OH214767   1.972   5.291   2.238
 4961TIP3    H114768   1.961   5.222   2.306
 4961TIP3    H214769   2.069   5.286   2.224
 4962TIP3   OH214770   0.886   5.688   3.336
 4962TIP3    H114771   0.942   5.616   3.370
 4962TIP3    H214772   0.912   5.761   3.395
 4963TIP3   OH214773   1.180   5.333   2.019
 4963TIP3    H114774   1.195   5.240   1.992
 4963TIP3    H214775   1.158   5.322   2.113
 4964TIP3   OH214776   1.123   5.338   2.290
 4964TIP3    H114777   1.196   5.312   2.348
 4964TIP3    H214778   1.125   5.436   2.298
 4965TIP3   OH214779   0.858   5.032   2.494
 4965TIP3    H114780   0.798   5.078   2.556
 4965TIP3    H214781   0.870   5.102   2.426
 4966TIP3   OH214782   2.003   4.673   3.398
 4966TIP3    H114783   2.074   4.693   3.458
 4966TIP3    H214784   1.975   4.586   3.433
 4967TIP3   OH214785   1.886   4.421   2.552
 4967TIP3    H114786   1.875   4.442   2.457
 4967TIP3    H214787   1.929   4.503   2.585
 4968TIP3   OH214788   1.389   5.537   2.240
 4968TIP3    H114789   1.302   5.563   2.275
 4968TIP3    H214790   1.405   5.609   2.177
 4969TIP3   OH214791   1.577   4.600   2.653
 4969TIP3    H114792   1.642   4.671   2.634
 4969TIP3    H214793   1.583   4.595   2.751
 4970TIP3   OH214794   1.840   4.920   3.458
 4970TIP3    H114795   1.864   4.974   3.535
 4970TIP3    H214796   1.896   4.841   3.465
 4971TIP3   OH214797   1.722   4.328   2.757
 4971TIP3    H114798   1.709   4.408   2.811
 4971TIP3    H214799   1.782   4.363   2.687
 4972TIP3   OH214800   1.132   5.611   2.306
 4972TIP3    H114801   1.103   5.681   2.243
 4972TIP3    H214802   1.117   5.656   2.392
 4973TIP3   OH214803   1.233   4.326   2.546
 4973TIP3    H114804   1.231   4.416   2.582
 4973TIP3    H214805   1.329   4.308   2.553
 4974TIP3   OH214806   2.138   5.013   2.831
 4974TIP3    H114807   2.062   4.952   2.838
 4974TIP3    H214808   2.209   4.963   2.878
 4975TIP3   OH214809   0.842   5.240   2.301
 4975TIP3    H114810   0.899   5.318   2.306
 4975TIP3    H214811   0.891   5.188   2.234
 4976TIP3   OH214812   0.800   4.520   2.428
 4976TIP3    H114813   0.794   4.617   2.428
 4976TIP3    H214814   0.710   4.494   2.405
 4977TIP3   OH214815   2.107   5.969   2.780
 4977TIP3    H114816   2.063   6.015   2.705
 4977TIP3    H214817   2.201   5.987   2.757
 4978TIP3   OH214818   1.186   4.237   3.306
 4978TIP3    H114819   1.152   4.205   3.219
 4978TIP3    H214820   1.172   4.159   3.363
 4979TIP3   OH214821   0.722   5.452   2.690
 4979TIP3    H114822   0.652   5.487   2.747
 4979TIP3    H214823   0.698   5.493   2.604
 4980TIP3   OH214824   0.879   5.997   3.756
 4980TIP3    H114825   0.965   5.998   3.804
 4980TIP3    H214826   0.859   5.902   3.757
 4981TIP3   OH214827   1.360   5.961   3.805
 4981TIP3    H114828   1.455   5.946   3.809
 4981TIP3    H214829   1.334   5.903   3.731
 4982TIP3   OH214830   1.342   5.538   1.932
 4982TIP3    H114831   1.285   5.467   1.969
 4982TIP3    H214832   1.416   5.486   1.898
 4983TIP3   OH214833   2.001   5.868   3.535
 4983TIP3    H114834   1.992   5.800   3.605
 4983TIP3    H214835   2.076   5.921   3.567
 4984TIP3   OH214836   1.778   5.579   1.843
 4984TIP3    H114837   1.820   5.513   1.902
 4984TIP3    H214838   1.835   5.577   1.764
 4985TIP3   OH214839   1.009   5.404   3.959
 4985TIP3    H114840   1.025   5.307   3.962
 4985TIP3    H214841   0.921   5.407   3.915
 4986TIP3   OH214842   0.984   5.053   2.152
 4986TIP3    H114843   1.039   5.022   2.226
 4986TIP3    H214844   1.052   5.058   2.082
 4987TIP3   OH214845   1.618   5.489   3.731
 4987TIP3    H114846   1.573   5.508   3.647
 4987TIP3    H214847   1.645   5.396   3.722
 4988TIP3   OH214848   1.496   5.253   1.958
 4988TIP3    H114849   1.498   5.266   2.055
 4988TIP3    H214850   1.496   5.155   1.954
 4989TIP3   OH214851   2.110   5.497   3.343
 4989TIP3    H114852   2.182   5.543   3.296
 4989TIP3    H214853   2.036   5.559   3.329
 4990TIP3   OH214854   1.127   5.139   3.942
 4990TIP3    H114855   1.201   5.081   3.921
 4990TIP3    H214856   1.154   5.173   4.030
 4991TIP3   OH214857   1.192   4.959   2.374
 4991TIP3    H114858   1.168   4.915   2.457
 4991TIP3    H214859   1.230   4.884   2.322
 4992TIP3   OH214860   1.467   5.027   3.607
 4992TIP3    H114861   1.385   5.081   3.607
 4992TIP3    H214862   1.512   5.059   3.525
 4993TIP3   OH214863   1.295   4.753   2.215
 4993TIP3    H114864   1.269   4.756   2.120
 4993TIP3    H214865   1.393   4.756   2.208
 4994TIP3   OH214866   1.977   5.426   3.737
 4994TIP3    H114867   2.055   5.402   3.686
 4994TIP3    H214868   1.976   5.359   3.809
 4995TIP3   OH214869   2.112   5.085   1.877
 4995TIP3    H114870   2.093   5.036   1.795
 4995TIP3    H214871   2.079   5.174   1.852
 4996TIP3   OH214872   1.593   4.813   3.725
 4996TIP3    H114873   1.586   4.732   3.670
 4996TIP3    H214874   1.545   4.879   3.670
 4997TIP3   OH214875   1.589   4.597   3.536
 4997TIP3    H114876   1.615   4.640   3.452
 4997TIP3    H214877   1.495   4.574   3.519
 4998TIP3   OH214878   1.618   5.137   3.410
 4998TIP3    H114879   1.698   5.145   3.357
 4998TIP3    H214880   1.558   5.201   3.366
 4999TIP3   OH214881   2.226   5.078   3.772
 4999TIP3    H114882   2.250   5.041   3.859
 4999TIP3    H214883   2.258   5.170   3.777
 5000TIP3   OH214884   2.240   5.353   3.528
 5000TIP3    H114885   2.179   5.404   3.470
 5000TIP3    H214886   2.325   5.375   3.484
 5001TIP3   OH214887   1.468   4.921   3.960
 5001TIP3    H114888   1.397   4.855   3.974
 5001TIP3    H214889   1.498   4.899   3.870
 5002TIP3   OH214890   1.721   4.361   3.603
 5002TIP3    H114891   1.671   4.442   3.579
 5002TIP3    H214892   1.653   4.292   3.591
 5003TIP3   OH214893   1.852   4.863   3.815
 5003TIP3    H114894   1.833   4.850   3.910
 5003TIP3    H214895   1.762   4.841   3.780
 5004TIP3   OH214896   2.093   4.801   3.668
 5004TIP3    H114897   2.002   4.822   3.699
 5004TIP3    H214898   2.124   4.752   3.746
 5005TIP3   OH214899   2.332   4.752   3.812
 5005TIP3    H114900   2.340   4.657   3.837
 5005TIP3    H214901   2.312   4.794   3.898
 5006TIP3   OH214902   1.304   4.703   4.011
 5006TIP3    H114903   1.307   4.612   3.977
 5006TIP3    H214904   1.338   4.690   4.101
 5007TIP3   OH214905   1.818   4.373   3.860
 5007TIP3    H114906   1.882   4.300   3.854
 5007TIP3    H214907   1.775   4.366   3.772
 5008TIP3   OH214908   1.886   4.590   4.015
 5008TIP3    H114909   1.861   4.516   3.954
 5008TIP3    H214910   1.805   4.646   4.012
 5009TIP3   OH214911   1.100   5.811   2.118
 5009TIP3    H114912   1.195   5.812   2.097
 5009TIP3    H214913   1.066   5.858   2.039
 5010TIP3   OH214914   0.497   5.807   2.750
 5010TIP3    H114915   0.430   5.746   2.713
 5010TIP3    H214916   0.541   5.749   2.816
 5011TIP3   OH214917   0.634   5.657   2.935
 5011TIP3    H114918   0.623   5.586   3.001
 5011TIP3    H214919   0.684   5.721   2.989
 5012TIP3   OH214920   2.362   6.056   2.736
 5012TIP3    H114921   2.385   6.094   2.823
 5012TIP3    H214922   2.418   6.107   2.676
 5013TIP3   OH214923   2.387   6.081   3.018
 5013TIP3    H114924   2.344   5.993   3.013
 5013TIP3    H214925   2.463   6.059   3.074
 5014TIP3   OH214926   2.438   5.755   3.594
 5014TIP3    H114927   2.362   5.765   3.655
 5014TIP3    H214928   2.477   5.845   3.595
 5015TIP3   OH214929   2.249   5.273   2.213
 5015TIP3    H114930   2.319   5.334   2.182
 5015TIP3    H214931   2.293   5.232   2.290
 5016TIP3   OH214932   2.379   5.143   2.416
 5016TIP3    H114933   2.312   5.095   2.470
 5016TIP3    H214934   2.439   5.177   2.484
 5017TIP3   OH214935   2.437   5.531   2.851
 5017TIP3    H114936   2.483   5.465   2.796
 5017TIP3    H214937   2.427   5.605   2.788
 5018TIP3   OH214938   2.265   5.829   3.044
 5018TIP3    H114939   2.193   5.874   3.093
 5018TIP3    H214940   2.215   5.783   2.973
 5019TIP3   OH214941   2.315   5.050   2.058
 5019TIP3    H114942   2.243   5.049   1.992
 5019TIP3    H214943   2.285   5.123   2.115
 5020TIP3   OH214944   2.168   4.727   2.017
 5020TIP3    H114945   2.148   4.750   1.926
 5020TIP3    H214946   2.163   4.630   2.014
 5021TIP3   OH214947   2.194   4.996   2.558
 5021TIP3    H114948   2.200   4.900   2.542
 5021TIP3    H214949   2.180   5.001   2.655
 5022TIP3   OH214950   0.818   5.068   3.308
 5022TIP3    H114951   0.816   5.036   3.215
 5022TIP3    H214952   0.916   5.069   3.324
 5023TIP3   OH214953   2.480   5.421   3.418
 5023TIP3    H114954   2.556   5.359   3.410
 5023TIP3    H214955   2.501   5.490   3.353
 5024TIP3   OH214956   2.656   5.219   3.451
 5024TIP3    H114957   2.588   5.151   3.449
 5024TIP3    H214958   2.737   5.164   3.460
 5025TIP3   OH214959   2.148   4.452   1.998
 5025TIP3    H114960   2.227   4.443   2.057
 5025TIP3    H214961   2.083   4.396   2.042
 5026TIP3   OH214962   2.190   4.721   2.453
 5026TIP3    H114963   2.224   4.630   2.475
 5026TIP3    H214964   2.250   4.744   2.380
 5027TIP3   OH214965   2.354   4.888   2.955
 5027TIP3    H114966   2.439   4.913   2.914
 5027TIP3    H214967   2.368   4.922   3.045
 5028TIP3   OH214968   2.428   5.033   3.200
 5028TIP3    H114969   2.344   5.065   3.239
 5028TIP3    H214970   2.454   5.110   3.144
 5029TIP3   OH214971   1.037   4.756   3.986
 5029TIP3    H114972   1.135   4.748   3.985
 5029TIP3    H214973   1.012   4.669   4.024
 5030TIP3   OH214974   2.865   4.614   3.733
 5030TIP3    H114975   2.928   4.545   3.701
 5030TIP3    H214976   2.860   4.672   3.655
 5031TIP3   OH214977   2.258   4.472   2.536
 5031TIP3    H114978   2.334   4.445   2.591
 5031TIP3    H214979   2.227   4.387   2.501
 5032TIP3   OH214980   1.002   4.446   3.311
 5032TIP3    H114981   1.064   4.371   3.321
 5032TIP3    H214982   1.063   4.521   3.306
 5033TIP3   OH214983   0.803   4.721   3.390
 5033TIP3    H114984   0.845   4.709   3.303
 5033TIP3    H214985   0.832   4.810   3.413
 5034TIP3   OH214986   2.742   4.764   3.535
 5034TIP3    H114987   2.674   4.772   3.604
 5034TIP3    H214988   2.711   4.688   3.483
 5035TIP3   OH214989   0.786   4.222   2.887
 5035TIP3    H114990   0.693   4.214   2.917
 5035TIP3    H214991   0.778   4.281   2.810
 5036TIP3   OH214992   1.945   5.926   2.394
 5036TIP3    H114993   1.995   5.912   2.310
 5036TIP3    H214994   1.997   5.995   2.437
 5037TIP3   OH214995   1.007   4.301   3.703
 5037TIP3    H114996   0.954   4.299   3.784
 5037TIP3    H214997   0.943   4.342   3.641
 5038TIP3   OH214998   1.046   5.727   3.778
 5038TIP3    H114999   0.953   5.703   3.761
 5038TIP3    H215000   1.052   5.715   3.874
 5039TIP3   OH215001   1.223   5.763   3.326
 5039TIP3    H115002   1.174   5.838   3.287
 5039TIP3    H215003   1.308   5.778   3.281
 5040TIP3   OH215004   1.667   6.006   3.463
 5040TIP3    H115005   1.708   6.009   3.552
 5040TIP3    H215006   1.732   6.058   3.411
 5041TIP3   OH215007   1.846   6.159   3.323
 5041TIP3    H115008   1.917   6.110   3.280
 5041TIP3    H215009   1.897   6.217   3.384
 5042TIP3   OH215010   2.637   4.519   3.428
 5042TIP3    H115011   2.551   4.507   3.385
 5042TIP3    H215012   2.676   4.429   3.415
 5043TIP3   OH215013   0.898   6.019   3.351
 5043TIP3    H115014   0.809   6.053   3.327
 5043TIP3    H215015   0.911   6.062   3.436
 5044TIP3   OH215016   1.135   5.998   3.208
 5044TIP3    H115017   1.048   6.011   3.252
 5044TIP3    H215018   1.116   6.032   3.118
 5045TIP3   OH215019   1.561   6.027   3.005
 5045TIP3    H115020   1.492   6.047   2.939
 5045TIP3    H215021   1.573   6.115   3.047
 5046TIP3   OH215022   1.830   5.967   3.057
 5046TIP3    H115023   1.735   5.984   3.038
 5046TIP3    H215024   1.872   6.043   3.014
 5047TIP3   OH215025   2.039   6.159   2.972
 5047TIP3    H115026   2.023   6.244   2.925
 5047TIP3    H215027   2.063   6.099   2.898
 5048TIP3   OH215028   0.810   5.814   3.093
 5048TIP3    H115029   0.836   5.788   3.184
 5048TIP3    H215030   0.882   5.770   3.043
 5049TIP3   OH215031   1.004   5.685   2.951
 5049TIP3    H115032   1.020   5.602   3.000
 5049TIP3    H215033   1.095   5.722   2.946
 5050TIP3   OH215034   1.269   5.780   2.955
 5050TIP3    H115035   1.301   5.689   2.942
 5050TIP3    H215036   1.314   5.802   3.038
 5051TIP3   OH215037   1.850   4.439   3.049
 5051TIP3    H115038   1.803   4.367   3.096
 5051TIP3    H215039   1.916   4.391   2.997
 5052TIP3   OH215040   2.368   4.325   2.957
 5052TIP3    H115041   2.407   4.369   2.877
 5052TIP3    H215042   2.272   4.335   2.941
 5053TIP3   OH215043   2.467   4.411   2.718
 5053TIP3    H115044   2.538   4.361   2.672
 5053TIP3    H215045   2.498   4.503   2.698
 5054TIP3   OH215046   1.095   4.146   3.058
 5054TIP3    H115047   1.002   4.115   3.059
 5054TIP3    H215048   1.142   4.060   3.054
 5055TIP3   OH215049   0.879   4.016   2.707
 5055TIP3    H115050   0.909   4.075   2.634
 5055TIP3    H215051   0.851   4.081   2.774
 5056TIP3   OH215052   1.540   4.175   2.938
 5056TIP3    H115053   1.597   4.226   2.878
 5056TIP3    H215054   1.557   4.219   3.022
 5057TIP3   OH215055   2.088   4.325   2.923
 5057TIP3    H115056   2.082   4.294   2.832
 5057TIP3    H215057   2.072   4.243   2.974
 5058TIP3   OH215058   2.110   4.239   2.480
 5058TIP3    H115059   2.027   4.288   2.494
 5058TIP3    H215060   2.093   4.156   2.528
 5059TIP3   OH215061   0.593   5.582   2.492
 5059TIP3    H115062   0.508   5.557   2.450
 5059TIP3    H215063   0.593   5.677   2.472
 5060TIP3   OH215064   0.998   4.174   2.468
 5060TIP3    H115065   1.047   4.111   2.411
 5060TIP3    H215066   1.072   4.228   2.504
 5061TIP3   OH215067   1.510   4.349   2.569
 5061TIP3    H115068   1.571   4.302   2.627
 5061TIP3    H215069   1.533   4.442   2.593
 5062TIP3   OH215070   1.371   5.775   2.069
 5062TIP3    H115071   1.459   5.798   2.031
 5062TIP3    H215072   1.347   5.701   2.009
 5063TIP3   OH215073   2.090   5.893   2.161
 5063TIP3    H115074   2.081   5.795   2.149
 5063TIP3    H215075   2.043   5.925   2.080
 5064TIP3   OH215076   1.302   4.428   3.951
 5064TIP3    H115077   1.267   4.356   4.006
 5064TIP3    H215078   1.397   4.427   3.978
 5065TIP3   OH215079   1.553   4.424   4.070
 5065TIP3    H115080   1.636   4.394   4.029
 5065TIP3    H215081   1.537   4.354   4.136
 5066TIP3   OH215082   0.662   5.577   2.136
 5066TIP3    H115083   0.674   5.641   2.206
 5066TIP3    H215084   0.755   5.562   2.105
 5067TIP3   OH215085   2.378   4.488   3.857
 5067TIP3    H115086   2.394   4.454   3.948
 5067TIP3    H215087   2.467   4.479   3.816
 5068TIP3   OH215088   2.316   6.036   3.348
 5068TIP3    H115089   2.237   6.005   3.298
 5068TIP3    H215090   2.297   6.132   3.351
 5069TIP3   OH215091   3.582   5.413   2.116
 5069TIP3    H115092   3.550   5.502   2.090
 5069TIP3    H215093   3.509   5.358   2.081
 5070TIP3   OH215094   3.582   5.411   2.496
 5070TIP3    H115095   3.607   5.372   2.581
 5070TIP3    H215096   3.545   5.334   2.450
 5071TIP3   OH215097   2.883   5.304   2.858
 5071TIP3    H115098   2.918   5.241   2.924
 5071TIP3    H215099   2.958   5.363   2.844
 5072TIP3   OH215100   3.825   5.712   2.175
 5072TIP3    H115101   3.808   5.640   2.237
 5072TIP3    H215102   3.854   5.784   2.234
 5073TIP3   OH215103   2.856   5.717   2.590
 5073TIP3    H115104   2.848   5.619   2.591
 5073TIP3    H215105   2.952   5.725   2.573
 5074TIP3   OH215106   2.557   4.919   2.375
 5074TIP3    H115107   2.501   4.999   2.383
 5074TIP3    H215108   2.494   4.862   2.327
 5075TIP3   OH215109   2.624   5.209   2.545
 5075TIP3    H115110   2.667   5.126   2.577
 5075TIP3    H215111   2.664   5.220   2.458
 5076TIP3   OH215112   3.475   6.175   2.193
 5076TIP3    H115113   3.519   6.104   2.143
 5076TIP3    H215114   3.463   6.133   2.280
 5077TIP3   OH215115   3.379   5.629   2.537
 5077TIP3    H115116   3.418   5.552   2.493
 5077TIP3    H215117   3.461   5.676   2.561
 5078TIP3   OH215118   4.395   4.955   2.542
 5078TIP3    H115119   4.423   5.039   2.582
 5078TIP3    H215120   4.412   4.971   2.448
 5079TIP3   OH215121   3.793   5.137   2.577
 5079TIP3    H115122   3.832   5.050   2.594
 5079TIP3    H215123   3.758   5.124   2.487
 5080TIP3   OH215124   3.106   4.798   2.555
 5080TIP3    H115125   3.121   4.862   2.483
 5080TIP3    H215126   3.078   4.720   2.502
 5081TIP3   OH215127   3.821   4.891   2.170
 5081TIP3    H115128   3.897   4.872   2.230
 5081TIP3    H215129   3.869   4.915   2.089
 5082TIP3   OH215130   2.762   4.996   2.648
 5082TIP3    H115131   2.845   4.975   2.694
 5082TIP3    H215132   2.774   4.942   2.567
 5083TIP3   OH215133   3.199   5.192   2.454
 5083TIP3    H115134   3.294   5.169   2.457
 5083TIP3    H215135   3.161   5.111   2.414
 5084TIP3   OH215136   4.469   5.165   2.710
 5084TIP3    H115137   4.385   5.210   2.688
 5084TIP3    H215138   4.474   5.183   2.805
 5085TIP3   OH215139   3.127   4.786   2.979
 5085TIP3    H115140   3.066   4.815   2.909
 5085TIP3    H215141   3.072   4.800   3.058
 5086TIP3   OH215142   3.474   5.632   1.984
 5086TIP3    H115143   3.430   5.608   1.901
 5086TIP3    H215144   3.428   5.715   2.007
 5087TIP3   OH215145   4.037   4.889   2.333
 5087TIP3    H115146   4.025   4.832   2.410
 5087TIP3    H215147   4.088   4.964   2.369
 5088TIP3   OH215148   2.995   4.904   2.770
 5088TIP3    H115149   3.068   4.968   2.782
 5088TIP3    H215150   3.030   4.857   2.689
 5089TIP3   OH215151   3.072   5.738   2.877
 5089TIP3    H115152   3.045   5.812   2.820
 5089TIP3    H215153   2.988   5.726   2.927
 5090TIP3   OH215154   2.455   5.439   2.104
 5090TIP3    H115155   2.413   5.464   2.020
 5090TIP3    H215156   2.485   5.525   2.139
 5091TIP3   OH215157   3.897   5.955   2.347
 5091TIP3    H115158   3.806   5.947   2.384
 5091TIP3    H215159   3.888   6.040   2.298
 5092TIP3   OH215160   4.184   4.861   2.710
 5092TIP3    H115161   4.095   4.879   2.675
 5092TIP3    H215162   4.242   4.887   2.636
 5093TIP3   OH215163   3.495   4.503   2.709
 5093TIP3    H115164   3.470   4.412   2.688
 5093TIP3    H215165   3.408   4.540   2.733
 5094TIP3   OH215166   3.597   6.001   2.020
 5094TIP3    H115167   3.646   5.918   1.999
 5094TIP3    H215168   3.658   6.066   1.978
 5095TIP3   OH215169   3.739   5.787   1.924
 5095TIP3    H115170   3.700   5.708   1.885
 5095TIP3    H215171   3.775   5.751   2.008
 5096TIP3   OH215172   4.120   5.865   2.689
 5096TIP3    H115173   4.110   5.789   2.628
 5096TIP3    H215174   4.103   5.941   2.629
 5097TIP3   OH215175   3.415   5.266   1.946
 5097TIP3    H115176   3.332   5.312   1.923
 5097TIP3    H215177   3.458   5.257   1.859
 5098TIP3   OH215178   3.370   5.048   1.659
 5098TIP3    H115179   3.438   5.095   1.709
 5098TIP3    H215180   3.426   4.982   1.612
 5099TIP3   OH215181   4.316   5.507   2.534
 5099TIP3    H115182   4.232   5.557   2.538
 5099TIP3    H215183   4.345   5.528   2.443
 5100TIP3   OH215184   3.760   5.346   1.917
 5100TIP3    H115185   3.705   5.368   1.996
 5100TIP3    H215186   3.843   5.317   1.961
 5101TIP3   OH215187   4.000   5.383   2.829
 5101TIP3    H115188   3.992   5.467   2.877
 5101TIP3    H215189   3.911   5.380   2.785
 5102TIP3   OH215190   2.991   5.341   2.335
 5102TIP3    H115191   2.946   5.285   2.268
 5102TIP3    H215192   3.065   5.284   2.362
 5103TIP3   OH215193   3.120   5.750   2.484
 5103TIP3    H115194   3.102   5.714   2.396
 5103TIP3    H215195   3.208   5.713   2.503
 5104TIP3   OH215196   3.149   5.323   2.690
 5104TIP3    H115197   3.163   5.274   2.606
 5104TIP3    H215198   3.158   5.414   2.659
 5105TIP3   OH215199   3.655   5.950   2.466
 5105TIP3    H115200   3.637   6.032   2.515
 5105TIP3    H215201   3.636   5.880   2.531
 5106TIP3   OH215202   3.267   5.849   3.023
 5106TIP3    H115203   3.217   5.919   3.070
 5106TIP3    H215204   3.194   5.815   2.966
 5107TIP3   OH215205   3.601   5.202   1.743
 5107TIP3    H115206   3.659   5.262   1.795
 5107TIP3    H215207   3.627   5.225   1.651
 5108TIP3   OH215208   3.020   5.428   3.118
 5108TIP3    H115209   3.018   5.515   3.164
 5108TIP3    H215210   2.924   5.407   3.120
 5109TIP3   OH215211   3.343   5.882   2.021
 5109TIP3    H115212   3.422   5.936   2.034
 5109TIP3    H215213   3.282   5.942   1.976
 5110TIP3   OH215214   3.066   6.032   3.100
 5110TIP3    H115215   3.032   6.034   3.008
 5110TIP3    H215216   2.985   6.011   3.151
 5111TIP3   OH215217   4.117   4.441   1.789
 5111TIP3    H115218   4.036   4.459   1.843
 5111TIP3    H215219   4.127   4.527   1.743
 5112TIP3   OH215220   2.854   5.188   2.146
 5112TIP3    H115221   2.789   5.228   2.085
 5112TIP3    H215222   2.826   5.096   2.147
 5113TIP3   OH215223   3.915   5.810   1.339
 5113TIP3    H115224   3.923   5.907   1.325
 5113TIP3    H215225   4.007   5.780   1.327
 5114TIP3   OH215226   2.639   5.568   3.045
 5114TIP3    H115227   2.571   5.552   2.977
 5114TIP3    H215228   2.674   5.478   3.061
 5115TIP3   OH215229   2.493   5.760   2.682
 5115TIP3    H115230   2.589   5.759   2.670
 5115TIP3    H215231   2.479   5.843   2.730
 5116TIP3   OH215232   4.358   6.212   2.734
 5116TIP3    H115233   4.357   6.116   2.747
 5116TIP3    H215234   4.275   6.237   2.780
 5117TIP3   OH215235   3.463   5.995   2.870
 5117TIP3    H115236   3.463   6.089   2.899
 5117TIP3    H215237   3.393   5.958   2.927
 5118TIP3   OH215238   3.226   6.128   1.820
 5118TIP3    H115239   3.179   6.108   1.738
 5118TIP3    H215240   3.192   6.216   1.844
 5119TIP3   OH215241   2.663   5.977   2.204
 5119TIP3    H115242   2.709   5.967   2.290
 5119TIP3    H215243   2.607   5.897   2.205
 5120TIP3   OH215244   3.426   6.029   1.460
 5120TIP3    H115245   3.485   5.959   1.424
 5120TIP3    H215246   3.460   6.038   1.552
 5121TIP3   OH215247   3.477   6.077   1.730
 5121TIP3    H115248   3.388   6.087   1.771
 5121TIP3    H215249   3.526   6.033   1.802
 5122TIP3   OH215250   4.246   5.343   3.007
 5122TIP3    H115251   4.166   5.354   2.953
 5122TIP3    H215252   4.263   5.248   2.997
 5123TIP3   OH215253   2.847   5.747   3.031
 5123TIP3    H115254   2.891   5.736   3.117
 5123TIP3    H215255   2.770   5.687   3.038
 5124TIP3   OH215256   3.241   4.569   2.821
 5124TIP3    H115257   3.151   4.541   2.793
 5124TIP3    H215258   3.220   4.659   2.852
 5125TIP3   OH215259   3.777   4.697   3.014
 5125TIP3    H115260   3.845   4.661   3.075
 5125TIP3    H215261   3.693   4.669   3.056
 5126TIP3   OH215262   4.021   5.120   2.934
 5126TIP3    H115263   3.968   5.116   3.017
 5126TIP3    H215264   3.993   5.204   2.894
 5127TIP3   OH215265   3.677   5.250   1.487
 5127TIP3    H115266   3.642   5.223   1.400
 5127TIP3    H215267   3.759   5.296   1.461
 5128TIP3   OH215268   3.393   4.628   1.791
 5128TIP3    H115269   3.367   4.633   1.884
 5128TIP3    H215270   3.350   4.544   1.764
 5129TIP3   OH215271   3.188   5.107   2.852
 5129TIP3    H115272   3.115   5.112   2.918
 5129TIP3    H215273   3.167   5.181   2.791
 5130TIP3   OH215274   3.060   4.980   2.351
 5130TIP3    H115275   2.970   4.947   2.371
 5130TIP3    H215276   3.076   4.935   2.265
 5131TIP3   OH215277   3.565   5.075   2.083
 5131TIP3    H115278   3.502   5.136   2.039
 5131TIP3    H215279   3.609   5.034   2.006
 5132TIP3   OH215280   3.728   5.343   3.165
 5132TIP3    H115281   3.700   5.270   3.225
 5132TIP3    H215282   3.822   5.351   3.187
 5133TIP3   OH215283   3.709   5.095   2.317
 5133TIP3    H115284   3.649   5.117   2.242
 5133TIP3    H215285   3.744   5.012   2.280
 5134TIP3   OH215286   3.005   5.124   3.054
 5134TIP3    H115287   2.990   5.183   3.129
 5134TIP3    H215288   2.990   5.036   3.094
 5135TIP3   OH215289   3.046   4.597   1.755
 5135TIP3    H115290   3.039   4.596   1.853
 5135TIP3    H215291   2.967   4.649   1.731
 5136TIP3   OH215292   2.592   4.635   2.636
 5136TIP3    H115293   2.665   4.673   2.687
 5136TIP3    H215294   2.620   4.645   2.545
 5137TIP3   OH215295   3.734   5.338   2.746
 5137TIP3    H115296   3.759   5.265   2.685
 5137TIP3    H215297   3.687   5.288   2.816
 5138TIP3   OH215298   2.820   4.853   2.422
 5138TIP3    H115299   2.727   4.859   2.389
 5138TIP3    H215300   2.849   4.766   2.392
 5139TIP3   OH215301   3.087   4.849   2.113
 5139TIP3    H115302   3.184   4.858   2.101
 5139TIP3    H215303   3.049   4.873   2.026
 5140TIP3   OH215304   3.877   4.873   2.622
 5140TIP3    H115305   3.833   4.886   2.709
 5140TIP3    H215306   3.817   4.805   2.584
 5141TIP3   OH215307   2.926   4.892   1.888
 5141TIP3    H115308   2.853   4.844   1.845
 5141TIP3    H215309   2.978   4.920   1.810
 5142TIP3   OH215310   4.049   6.562   2.833
 5142TIP3    H115311   4.046   6.587   2.738
 5142TIP3    H215312   4.127   6.612   2.864
 5143TIP3   OH215313   3.007   5.669   3.258
 5143TIP3    H115314   3.083   5.703   3.308
 5143TIP3    H215315   2.938   5.673   3.326
 5144TIP3   OH215316   3.470   5.126   2.513
 5144TIP3    H115317   3.532   5.082   2.454
 5144TIP3    H215318   3.478   5.072   2.594
 5145TIP3   OH215319   2.999   4.618   2.380
 5145TIP3    H115320   2.969   4.533   2.417
 5145TIP3    H215321   3.079   4.593   2.331
 5146TIP3   OH215322   3.447   5.018   2.803
 5146TIP3    H115323   3.358   5.057   2.813
 5146TIP3    H215324   3.506   5.082   2.848
 5147TIP3   OH215325   3.181   5.416   1.894
 5147TIP3    H115326   3.111   5.348   1.883
 5147TIP3    H215327   3.163   5.448   1.986
 5148TIP3   OH215328   4.082   5.650   2.524
 5148TIP3    H115329   4.106   5.699   2.442
 5148TIP3    H215330   3.998   5.606   2.497
 5149TIP3   OH215331   3.634   4.741   1.730
 5149TIP3    H115332   3.543   4.715   1.755
 5149TIP3    H215333   3.648   4.826   1.776
 5150TIP3   OH215334   3.539   5.715   2.943
 5150TIP3    H115335   3.628   5.718   2.982
 5150TIP3    H215336   3.531   5.805   2.907
 5151TIP3   OH215337   3.709   4.972   1.860
 5151TIP3    H115338   3.805   4.977   1.878
 5151TIP3    H215339   3.692   5.053   1.808
 5152TIP3   OH215340   2.888   5.442   2.573
 5152TIP3    H115341   2.915   5.413   2.483
 5152TIP3    H215342   2.895   5.361   2.624
 5153TIP3   OH215343   3.328   5.564   1.716
 5153TIP3    H115344   3.280   5.650   1.722
 5153TIP3    H215345   3.273   5.508   1.775
 5154TIP3   OH215346   2.761   5.349   3.180
 5154TIP3    H115347   2.776   5.339   3.275
 5154TIP3    H215348   2.683   5.293   3.163
 5155TIP3   OH215349   3.738   5.977   2.800
 5155TIP3    H115350   3.642   5.991   2.804
 5155TIP3    H215351   3.768   6.037   2.871
 5156TIP3   OH215352   4.155   5.063   1.695
 5156TIP3    H115353   4.092   5.018   1.633
 5156TIP3    H215354   4.150   5.153   1.655
 5157TIP3   OH215355   4.371   5.922   2.776
 5157TIP3    H115356   4.273   5.915   2.768
 5157TIP3    H215357   4.397   5.891   2.686
 5158TIP3   OH215358   3.855   5.882   1.605
 5158TIP3    H115359   3.826   5.812   1.665
 5158TIP3    H215360   3.865   5.836   1.520
 5159TIP3   OH215361   3.846   5.512   2.444
 5159TIP3    H115362   3.754   5.482   2.457
 5159TIP3    H215363   3.884   5.433   2.399
 5160TIP3   OH215364   2.976   5.741   2.199
 5160TIP3    H115365   2.976   5.821   2.143
 5160TIP3    H215366   2.882   5.721   2.202
 5161TIP3   OH215367   2.538   5.048   1.899
 5161TIP3    H115368   2.584   5.131   1.923
 5161TIP3    H215369   2.461   5.051   1.961
 5162TIP3   OH215370   3.115   5.506   2.141
 5162TIP3    H115371   3.080   5.595   2.160
 5162TIP3    H215372   3.077   5.454   2.214
 5163TIP3   OH215373   3.245   6.085   2.664
 5163TIP3    H115374   3.283   6.158   2.611
 5163TIP3    H215375   3.324   6.052   2.709
 5164TIP3   OH215376   2.896   5.978   2.048
 5164TIP3    H115377   2.810   5.987   2.093
 5164TIP3    H215378   2.927   6.071   2.050
 5165TIP3   OH215379   3.636   5.714   2.626
 5165TIP3    H115380   3.653   5.696   2.719
 5165TIP3    H215381   3.707   5.665   2.583
 5166TIP3   OH215382   3.608   5.612   1.505
 5166TIP3    H115383   3.661   5.586   1.585
 5166TIP3    H215384   3.520   5.583   1.533
 5167TIP3   OH215385   3.880   6.251   2.671
 5167TIP3    H115386   3.797   6.201   2.657
 5167TIP3    H215387   3.872   6.319   2.601
 5168TIP3   OH215388   3.948   6.085   1.325
 5168TIP3    H115389   3.984   6.157   1.272
 5168TIP3    H215390   3.868   6.130   1.359
 5169TIP3   OH215391   2.963   4.865   3.193
 5169TIP3    H115392   2.866   4.855   3.200
 5169TIP3    H215393   2.993   4.801   3.260
 5170TIP3   OH215394   3.768   5.546   1.723
 5170TIP3    H115395   3.757   5.479   1.793
 5170TIP3    H215396   3.865   5.542   1.710
 5171TIP3   OH215397   2.685   5.947   2.822
 5171TIP3    H115398   2.738   5.873   2.853
 5171TIP3    H215399   2.711   6.017   2.883
 5172TIP3   OH215400   2.974   5.591   1.505
 5172TIP3    H115401   2.987   5.498   1.476
 5172TIP3    H215402   2.954   5.578   1.600
 5173TIP3   OH215403   2.919   5.596   1.777
 5173TIP3    H115404   2.991   5.566   1.834
 5173TIP3    H215405   2.925   5.694   1.786
 5174TIP3   OH215406   2.657   5.292   1.982
 5174TIP3    H115407   2.589   5.335   2.038
 5174TIP3    H215408   2.669   5.361   1.913
 5175TIP3   OH215409   3.793   4.942   2.886
 5175TIP3    H115410   3.885   4.964   2.909
 5175TIP3    H215411   3.781   4.855   2.930
 5176TIP3   OH215412   3.723   4.673   2.012
 5176TIP3    H115413   3.677   4.709   1.935
 5176TIP3    H215414   3.717   4.744   2.077
 5177TIP3   OH215415   3.187   5.795   1.728
 5177TIP3    H115416   3.099   5.820   1.763
 5177TIP3    H215417   3.200   5.865   1.662
 5178TIP3   OH215418   3.361   4.866   2.127
 5178TIP3    H115419   3.442   4.917   2.139
 5178TIP3    H215420   3.379   4.782   2.175
 5179TIP3   OH215421   3.631   5.178   2.949
 5179TIP3    H115422   3.667   5.229   3.025
 5179TIP3    H215423   3.690   5.100   2.947
 5180TIP3   OH215424   2.930   5.869   1.794
 5180TIP3    H115425   2.899   5.938   1.731
 5180TIP3    H215426   2.913   5.912   1.880
 5181TIP3   OH215427   3.038   4.584   2.032
 5181TIP3    H115428   3.036   4.673   2.072
 5181TIP3    H215429   3.119   4.549   2.073
 5182TIP3   OH215430   4.287   5.076   2.925
 5182TIP3    H115431   4.189   5.077   2.937
 5182TIP3    H215432   4.292   5.027   2.842
 5183TIP3   OH215433   3.934   5.272   2.318
 5183TIP3    H115434   3.857   5.212   2.325
 5183TIP3    H215435   4.004   5.221   2.364
 5184TIP3   OH215436   2.647   5.499   1.786
 5184TIP3    H115437   2.715   5.568   1.794
 5184TIP3    H215438   2.691   5.442   1.719
 5185TIP3   OH215439   2.593   4.778   1.870
 5185TIP3    H115440   2.582   4.870   1.898
 5185TIP3    H215441   2.543   4.729   1.936
 5186TIP3   OH215442   3.902   6.227   2.267
 5186TIP3    H115443   3.859   6.273   2.192
 5186TIP3    H215444   3.997   6.245   2.245
 5187TIP3   OH215445   2.973   4.497   2.796
 5187TIP3    H115446   2.946   4.464   2.707
 5187TIP3    H215447   2.965   4.416   2.850
 5188TIP3   OH215448   2.520   5.716   2.174
 5188TIP3    H115449   2.446   5.744   2.231
 5188TIP3    H215450   2.492   5.754   2.088
 5189TIP3   OH215451   2.674   6.254   3.245
 5189TIP3    H115452   2.760   6.254   3.293
 5189TIP3    H215453   2.652   6.160   3.245
 5190TIP3   OH215454   3.156   6.217   3.292
 5190TIP3    H115455   3.251   6.201   3.295
 5190TIP3    H215456   3.130   6.160   3.217
 5191TIP3   OH215457   3.138   5.794   1.419
 5191TIP3    H115458   3.081   5.723   1.456
 5191TIP3    H215459   3.212   5.741   1.386
 5192TIP3   OH215460   3.795   6.124   3.026
 5192TIP3    H115461   3.788   6.055   3.095
 5192TIP3    H215462   3.872   6.177   3.055
 5193TIP3   OH215463   3.574   5.836   1.330
 5193TIP3    H115464   3.616   5.770   1.388
 5193TIP3    H215465   3.631   5.833   1.250
 5194TIP3   OH215466   2.805   5.660   3.444
 5194TIP3    H115467   2.815   5.564   3.453
 5194TIP3    H215468   2.717   5.666   3.401
 5195TIP3   OH215469   2.782   5.314   1.638
 5195TIP3    H115470   2.834   5.275   1.711
 5195TIP3    H215471   2.850   5.317   1.568
 5196TIP3   OH215472   3.293   5.511   1.446
 5196TIP3    H115473   3.294   5.522   1.543
 5196TIP3    H215474   3.293   5.413   1.440
 5197TIP3   OH215475   3.901   5.759   2.826
 5197TIP3    H115476   3.982   5.790   2.781
 5197TIP3    H215477   3.842   5.836   2.809
 5198TIP3   OH215478   2.921   5.383   3.431
 5198TIP3    H115479   3.002   5.336   3.410
 5198TIP3    H215480   2.945   5.425   3.517
 5199TIP3   OH215481   2.994   5.214   1.863
 5199TIP3    H115482   2.964   5.169   1.943
 5199TIP3    H215483   3.028   5.139   1.810
 5200TIP3   OH215484   3.272   5.367   3.034
 5200TIP3    H115485   3.184   5.375   3.079
 5200TIP3    H215486   3.262   5.280   2.992
 5201TIP3   OH215487   3.090   5.011   1.700
 5201TIP3    H115488   3.064   5.012   1.606
 5201TIP3    H215489   3.188   5.014   1.693
 5202TIP3   OH215490   3.777   5.683   3.220
 5202TIP3    H115491   3.858   5.657   3.173
 5202TIP3    H215492   3.770   5.612   3.286
 5203TIP3   OH215493   3.914   5.340   1.364
 5203TIP3    H115494   3.892   5.294   1.281
 5203TIP3    H215495   3.880   5.430   1.341
 5204TIP3   OH215496   3.377   5.065   3.215
 5204TIP3    H115497   3.384   4.977   3.171
 5204TIP3    H215498   3.365   5.122   3.139
 5205TIP3   OH215499   3.386   4.857   3.027
 5205TIP3    H115500   3.416   4.891   2.940
 5205TIP3    H215501   3.293   4.831   3.006
 5206TIP3   OH215502   3.996   5.359   3.280
 5206TIP3    H115503   4.037   5.271   3.283
 5206TIP3    H215504   4.066   5.412   3.241
 5207TIP3   OH215505   4.033   5.615   3.014
 5207TIP3    H115506   3.977   5.668   2.953
 5207TIP3    H215507   4.121   5.631   2.974
 5208TIP3   OH215508   3.256   5.182   3.438
 5208TIP3    H115509   3.189   5.114   3.459
 5208TIP3    H215510   3.294   5.145   3.356
 5209TIP3   OH215511   3.518   4.620   3.092
 5209TIP3    H115512   3.468   4.700   3.066
 5209TIP3    H215513   3.453   4.549   3.074
 5210TIP3   OH215514   3.639   5.129   3.309
 5210TIP3    H115515   3.633   5.108   3.404
 5210TIP3    H215516   3.551   5.097   3.279
 5211TIP3   OH215517   3.887   5.082   3.166
 5211TIP3    H115518   3.810   5.073   3.225
 5211TIP3    H215519   3.959   5.043   3.219
 5212TIP3   OH215520   4.116   5.013   3.313
 5212TIP3    H115521   4.126   4.917   3.329
 5212TIP3    H215522   4.110   5.050   3.404
 5213TIP3   OH215523   3.099   4.963   3.500
 5213TIP3    H115524   3.103   4.872   3.463
 5213TIP3    H215525   3.137   4.947   3.589
 5214TIP3   OH215526   3.610   4.628   3.350
 5214TIP3    H115527   3.678   4.557   3.343
 5214TIP3    H215528   3.572   4.623   3.260
 5215TIP3   OH215529   3.678   4.843   3.505
 5215TIP3    H115530   3.658   4.770   3.443
 5215TIP3    H215531   3.598   4.899   3.498
 5216TIP3   OH215532   2.899   6.073   1.607
 5216TIP3    H115533   2.994   6.067   1.587
 5216TIP3    H215534   2.867   6.121   1.528
 5217TIP3   OH215535   2.378   5.453   1.823
 5217TIP3    H115536   2.473   5.474   1.808
 5217TIP3    H215537   2.372   5.364   1.782
 5218TIP3   OH215538   2.293   6.066   2.235
 5218TIP3    H115539   2.226   6.004   2.199
 5218TIP3    H215540   2.337   6.008   2.301
 5219TIP3   OH215541   2.428   5.918   2.423
 5219TIP3    H115542   2.414   5.844   2.484
 5219TIP3    H215543   2.479   5.978   2.479
 5220TIP3   OH215544   4.156   6.316   2.223
 5220TIP3    H115545   4.183   6.351   2.309
 5220TIP3    H215546   4.217   6.360   2.162
 5221TIP3   OH215547   4.184   6.338   2.506
 5221TIP3    H115548   4.142   6.250   2.499
 5221TIP3    H215549   4.261   6.315   2.561
 5222TIP3   OH215550   4.231   6.013   3.079
 5222TIP3    H115551   4.158   6.022   3.143
 5222TIP3    H215552   4.272   6.102   3.082
 5223TIP3   OH215553   4.048   5.527   1.698
 5223TIP3    H115554   4.116   5.590   1.669
 5223TIP3    H215555   4.090   5.487   1.777
 5224TIP3   OH215556   4.175   5.394   1.902
 5224TIP3    H115557   4.108   5.350   1.960
 5224TIP3    H215558   4.237   5.432   1.967
 5225TIP3   OH215559   4.230   5.786   2.335
 5225TIP3    H115560   4.282   5.720   2.285
 5225TIP3    H215561   4.223   5.860   2.271
 5226TIP3   OH215562   4.062   6.086   2.531
 5226TIP3    H115563   3.989   6.130   2.579
 5226TIP3    H215564   4.014   6.039   2.459
 5227TIP3   OH215565   4.114   5.303   1.548
 5227TIP3    H115566   4.042   5.304   1.480
 5227TIP3    H215567   4.085   5.378   1.603
 5228TIP3   OH215568   3.986   4.974   1.501
 5228TIP3    H115569   3.939   5.011   1.425
 5228TIP3    H215570   3.961   4.880   1.494
 5229TIP3   OH215571   3.990   5.250   2.048
 5229TIP3    H115572   3.993   5.153   2.040
 5229TIP3    H215573   3.975   5.262   2.144
 5230TIP3   OH215574   2.615   5.317   2.798
 5230TIP3    H115575   2.611   5.289   2.704
 5230TIP3    H215576   2.712   5.321   2.812
 5231TIP3   OH215577   4.278   5.676   2.906
 5231TIP3    H115578   4.349   5.609   2.897
 5231TIP3    H215579   4.305   5.743   2.842
 5232TIP3   OH215580   4.463   5.481   2.924
 5232TIP3    H115581   4.388   5.430   2.960
 5232TIP3    H215582   4.536   5.417   2.938
 5233TIP3   OH215583   3.929   4.708   1.487
 5233TIP3    H115584   4.001   4.677   1.545
 5233TIP3    H215585   3.853   4.652   1.511
 5234TIP3   OH215586   3.985   4.967   1.942
 5234TIP3    H115587   4.023   4.877   1.959
 5234TIP3    H215588   4.044   4.997   1.871
 5235TIP3   OH215589   4.148   5.141   2.439
 5235TIP3    H115590   4.233   5.167   2.398
 5235TIP3    H215591   4.162   5.176   2.528
 5236TIP3   OH215592   4.219   5.285   2.670
 5236TIP3    H115593   4.140   5.318   2.717
 5236TIP3    H215594   4.250   5.366   2.624
 5237TIP3   OH215595   2.831   5.014   3.468
 5237TIP3    H115596   2.929   5.009   3.468
 5237TIP3    H215597   2.809   4.924   3.499
 5238TIP3   OH215598   4.669   4.878   3.226
 5238TIP3    H115599   4.727   4.811   3.184
 5238TIP3    H215600   4.639   4.930   3.149
 5239TIP3   OH215601   4.095   4.717   1.979
 5239TIP3    H115602   4.140   4.700   2.065
 5239TIP3    H215603   4.032   4.642   1.976
 5240TIP3   OH215604   2.794   4.708   2.812
 5240TIP3    H115605   2.854   4.630   2.812
 5240TIP3    H215606   2.859   4.780   2.799
 5241TIP3   OH215607   2.600   4.979   2.877
 5241TIP3    H115608   2.646   4.962   2.792
 5241TIP3    H215609   2.625   5.071   2.892
 5242TIP3   OH215610   4.538   5.015   3.030
 5242TIP3    H115611   4.450   5.055   3.046
 5242TIP3    H215612   4.512   4.942   2.972
 5243TIP3   OH215613   4.176   4.652   1.613
 5243TIP3    H115614   4.214   4.579   1.560
 5243TIP3    H215615   4.244   4.721   1.605
 5244TIP3   OH215616   3.741   6.183   1.881
 5244TIP3    H115617   3.790   6.168   1.797
 5244TIP3    H215618   3.795   6.251   1.923
 5245TIP3   OH215619   2.802   4.567   3.193
 5245TIP3    H115620   2.745   4.559   3.271
 5245TIP3    H215621   2.737   4.599   3.127
 5246TIP3   OH215622   2.844   5.979   3.266
 5246TIP3    H115623   2.750   5.960   3.247
 5246TIP3    H215624   2.845   5.974   3.363
 5247TIP3   OH215625   3.022   6.019   2.815
 5247TIP3    H115626   2.969   6.091   2.776
 5247TIP3    H215627   3.106   6.035   2.767
 5248TIP3   OH215628   3.465   6.261   2.948
 5248TIP3    H115629   3.505   6.267   3.037
 5248TIP3    H215630   3.528   6.315   2.896
 5249TIP3   OH215631   3.642   6.416   2.811
 5249TIP3    H115632   3.714   6.368   2.766
 5249TIP3    H215633   3.694   6.473   2.872
 5250TIP3   OH215634   4.437   4.777   2.910
 5250TIP3    H115635   4.346   4.769   2.875
 5250TIP3    H215636   4.469   4.685   2.899
 5251TIP3   OH215637   2.696   6.277   2.838
 5251TIP3    H115638   2.607   6.308   2.811
 5251TIP3    H215639   2.703   6.317   2.925
 5252TIP3   OH215640   2.932   6.255   2.695
 5252TIP3    H115641   2.845   6.268   2.739
 5252TIP3    H215642   2.912   6.288   2.605
 5253TIP3   OH215643   3.357   6.283   2.493
 5253TIP3    H115644   3.288   6.302   2.426
 5253TIP3    H215645   3.369   6.372   2.533
 5254TIP3   OH215646   3.626   6.222   2.546
 5254TIP3    H115647   3.532   6.240   2.526
 5254TIP3    H215648   3.669   6.296   2.501
 5255TIP3   OH215649   3.836   6.416   2.459
 5255TIP3    H115650   3.819   6.501   2.411
 5255TIP3    H215651   3.860   6.356   2.385
 5256TIP3   OH215652   2.607   6.072   2.581
 5256TIP3    H115653   2.632   6.045   2.672
 5256TIP3    H215654   2.678   6.027   2.530
 5257TIP3   OH215655   2.800   5.942   2.439
 5257TIP3    H115656   2.817   5.859   2.488
 5257TIP3    H215657   2.890   5.979   2.432
 5258TIP3   OH215658   3.066   6.037   2.440
 5258TIP3    H115659   3.098   5.946   2.425
 5258TIP3    H215660   3.109   6.057   2.525
 5259TIP3   OH215661   3.671   4.697   2.552
 5259TIP3    H115662   3.599   4.645   2.592
 5259TIP3    H215663   3.671   4.660   2.462
 5260TIP3   OH215664   4.176   4.580   2.439
 5260TIP3    H115665   4.206   4.628   2.359
 5260TIP3    H215666   4.078   4.583   2.427
 5261TIP3   OH215667   4.261   4.674   2.197
 5261TIP3    H115668   4.334   4.623   2.156
 5261TIP3    H215669   4.292   4.766   2.181
 5262TIP3   OH215670   2.892   4.401   2.550
 5262TIP3    H115671   2.800   4.367   2.549
 5262TIP3    H215672   2.941   4.317   2.541
 5263TIP3   OH215673   2.683   4.275   2.187
 5263TIP3    H115674   2.713   4.330   2.114
 5263TIP3    H215675   2.599   4.322   2.208
 5264TIP3   OH215676   3.908   4.575   2.398
 5264TIP3    H115677   3.863   4.550   2.317
 5264TIP3    H215678   3.875   4.507   2.461
 5265TIP3   OH215679   3.921   4.498   1.969
 5265TIP3    H115680   3.841   4.555   1.983
 5265TIP3    H215681   3.892   4.417   2.016
 5266TIP3   OH215682   2.395   5.843   1.972
 5266TIP3    H115683   2.310   5.809   1.939
 5266TIP3    H215684   2.383   5.937   1.953
 5267TIP3   OH215685   2.799   4.429   1.952
 5267TIP3    H115686   2.850   4.372   1.893
 5267TIP3    H215687   2.867   4.487   1.990
 5268TIP3   OH215688   3.166   6.031   1.554
 5268TIP3    H115689   3.255   6.053   1.518
 5268TIP3    H215690   3.144   5.956   1.494
 5269TIP3   OH215691   3.886   6.149   1.648
 5269TIP3    H115692   3.878   6.052   1.636
 5269TIP3    H215693   3.840   6.181   1.567
 5270TIP3   OH215694   3.097   4.686   3.443
 5270TIP3    H115695   3.066   4.609   3.494
 5270TIP3    H215696   3.192   4.685   3.465
 5271TIP3   OH215697   3.349   4.682   3.555
 5271TIP3    H115698   3.432   4.655   3.512
 5271TIP3    H215699   3.338   4.611   3.621
 5272TIP3   OH215700   2.471   5.870   1.610
 5272TIP3    H115701   2.469   5.893   1.704
 5272TIP3    H215702   2.559   5.827   1.600
 5273TIP3   OH215703   4.173   4.742   3.343
 5273TIP3    H115704   4.192   4.710   3.434
 5273TIP3    H215705   4.261   4.736   3.301
 5274TIP3   OH215706   4.111   6.293   2.835
 5274TIP3    H115707   4.033   6.262   2.785
 5274TIP3    H215708   4.092   6.390   2.838
 5275TIP3   OH215709   5.377   5.670   1.595
 5275TIP3    H115710   5.346   5.761   1.577
 5275TIP3    H215711   5.300   5.618   1.568
 5276TIP3   OH215712   5.376   5.665   1.982
 5276TIP3    H115713   5.410   5.638   2.069
 5276TIP3    H215714   5.335   5.584   1.950
 5277TIP3   OH215715   4.676   5.562   2.348
 5277TIP3    H115716   4.707   5.493   2.409
 5277TIP3    H215717   4.756   5.616   2.338
 5278TIP3   OH215718   5.623   5.965   1.663
 5278TIP3    H115719   5.606   5.898   1.731
 5278TIP3    H215720   5.649   6.042   1.717
 5279TIP3   OH215721   4.648   5.972   2.073
 5279TIP3    H115722   4.639   5.874   2.075
 5279TIP3    H215723   4.745   5.980   2.066
 5280TIP3   OH215724   4.356   5.177   1.857
 5280TIP3    H115725   4.303   5.258   1.871
 5280TIP3    H215726   4.287   5.119   1.821
 5281TIP3   OH215727   4.415   5.463   2.031
 5281TIP3    H115728   4.462   5.384   2.066
 5281TIP3    H215729   4.469   5.486   1.955
 5282TIP3   OH215730   5.270   6.430   1.679
 5282TIP3    H115731   5.317   6.358   1.631
 5282TIP3    H215732   5.262   6.393   1.767
 5283TIP3   OH215733   5.175   5.892   2.030
 5283TIP3    H115734   5.213   5.815   1.985
 5283TIP3    H215735   5.259   5.937   2.055
 5284TIP3   OH215736   6.190   5.212   2.029
 5284TIP3    H115737   6.218   5.294   2.073
 5284TIP3    H215738   6.207   5.234   1.936
 5285TIP3   OH215739   5.586   5.392   2.065
 5285TIP3    H115740   5.629   5.306   2.083
 5285TIP3    H215741   5.559   5.381   1.972
 5286TIP3   OH215742   4.927   5.053   2.027
 5286TIP3    H115743   4.905   5.125   1.965
 5286TIP3    H215744   4.879   4.978   1.984
 5287TIP3   OH215745   5.622   5.145   1.650
 5287TIP3    H115746   5.695   5.127   1.714
 5287TIP3    H215747   5.672   5.186   1.578
 5288TIP3   OH215748   4.560   5.255   2.135
 5288TIP3    H115749   4.642   5.233   2.182
 5288TIP3    H215750   4.571   5.198   2.056
 5289TIP3   OH215751   5.000   5.452   1.928
 5289TIP3    H115752   5.093   5.426   1.941
 5289TIP3    H215753   4.960   5.368   1.896
 5290TIP3   OH215754   6.262   5.420   2.197
 5290TIP3    H115755   6.178   5.467   2.178
 5290TIP3    H215756   6.275   5.444   2.290
 5291TIP3   OH215757   4.923   5.037   2.463
 5291TIP3    H115758   4.862   5.072   2.395
 5291TIP3    H215759   4.871   5.054   2.544
 5292TIP3   OH215760   5.276   5.894   1.464
 5292TIP3    H115761   5.225   5.868   1.386
 5292TIP3    H215762   5.227   5.974   1.492
 5293TIP3   OH215763   5.030   5.812   2.258
 5293TIP3    H115764   4.967   5.877   2.295
 5293TIP3    H215765   5.070   5.862   2.185
 5294TIP3   OH215766   5.833   5.144   1.823
 5294TIP3    H115767   5.816   5.099   1.906
 5294TIP3    H215768   5.881   5.224   1.852
 5295TIP3   OH215769   4.794   5.151   2.246
 5295TIP3    H115770   4.857   5.223   2.269
 5295TIP3    H215771   4.842   5.110   2.171
 5296TIP3   OH215772   4.857   6.005   2.356
 5296TIP3    H115773   4.831   6.091   2.316
 5296TIP3    H215774   4.778   5.989   2.412
 5297TIP3   OH215775   4.252   5.695   1.591
 5297TIP3    H115776   4.209   5.721   1.507
 5297TIP3    H215777   4.282   5.781   1.627
 5298TIP3   OH215778   5.691   6.211   1.829
 5298TIP3    H115779   5.602   6.202   1.870
 5298TIP3    H215780   5.683   6.298   1.785
 5299TIP3   OH215781   5.981   5.113   2.195
 5299TIP3    H115782   5.893   5.140   2.164
 5299TIP3    H215783   6.040   5.144   2.122
 5300TIP3   OH215784   5.280   4.755   2.178
 5300TIP3    H115785   5.265   4.660   2.194
 5300TIP3    H215786   5.201   4.793   2.223
 5301TIP3   OH215787   5.396   6.256   1.506
 5301TIP3    H115788   5.446   6.174   1.485
 5301TIP3    H215789   5.455   6.323   1.465
 5302TIP3   OH215790   5.540   6.038   1.411
 5302TIP3    H115791   5.479   5.968   1.386
 5302TIP3    H215792   5.573   6.005   1.497
 5303TIP3   OH215793   5.917   6.124   2.175
 5303TIP3    H115794   5.905   6.046   2.116
 5303TIP3    H215795   5.899   6.198   2.114
 5304TIP3   OH215796   5.208   5.517   1.431
 5304TIP3    H115797   5.127   5.568   1.411
 5304TIP3    H215798   5.251   5.513   1.343
 5305TIP3   OH215799   5.169   5.301   1.148
 5305TIP3    H115800   5.236   5.352   1.196
 5305TIP3    H215801   5.226   5.238   1.100
 5306TIP3   OH215802   6.112   5.761   2.018
 5306TIP3    H115803   6.029   5.812   2.025
 5306TIP3    H215804   6.140   5.784   1.927
 5307TIP3   OH215805   5.562   5.601   1.412
 5307TIP3    H115806   5.494   5.636   1.475
 5307TIP3    H215807   5.617   5.553   1.476
 5308TIP3   OH215808   5.791   5.640   2.315
 5308TIP3    H115809   5.787   5.724   2.365
 5308TIP3    H215810   5.704   5.642   2.270
 5309TIP3   OH215811   4.788   5.599   1.820
 5309TIP3    H115812   4.746   5.541   1.753
 5309TIP3    H215813   4.864   5.544   1.849
 5310TIP3   OH215814   4.918   6.010   1.969
 5310TIP3    H115815   4.896   5.968   1.884
 5310TIP3    H215816   5.008   5.975   1.986
 5311TIP3   OH215817   4.926   5.568   2.176
 5311TIP3    H115818   4.957   5.547   2.086
 5311TIP3    H215819   4.968   5.655   2.194
 5312TIP3   OH215820   5.451   6.207   1.952
 5312TIP3    H115821   5.437   6.287   2.005
 5312TIP3    H215822   5.435   6.134   2.015
 5313TIP3   OH215823   5.062   6.126   2.499
 5313TIP3    H115824   5.002   6.188   2.545
 5313TIP3    H215825   4.997   6.072   2.449
 5314TIP3   OH215826   5.400   5.460   1.230
 5314TIP3    H115827   5.458   5.521   1.278
 5314TIP3    H215828   5.423   5.482   1.136
 5315TIP3   OH215829   4.817   5.682   2.601
 5315TIP3    H115830   4.821   5.769   2.645
 5315TIP3    H215831   4.722   5.662   2.609
 5316TIP3   OH215832   5.140   6.136   1.506
 5316TIP3    H115833   5.217   6.193   1.523
 5316TIP3    H215834   5.078   6.197   1.464
 5317TIP3   OH215835   4.857   6.294   2.586
 5317TIP3    H115836   4.822   6.294   2.494
 5317TIP3    H215837   4.777   6.272   2.638
 5318TIP3   OH215838   5.912   4.698   1.279
 5318TIP3    H115839   5.830   4.718   1.329
 5318TIP3    H215840   5.926   4.781   1.230
 5319TIP3   OH215841   4.654   5.441   1.626
 5319TIP3    H115842   4.588   5.485   1.569
 5319TIP3    H215843   4.614   5.354   1.638
 5320TIP3   OH215844   5.710   6.066   0.828
 5320TIP3    H115845   5.718   6.163   0.814
 5320TIP3    H215846   5.803   6.038   0.816
 5321TIP3   OH215847   4.435   5.825   2.532
 5321TIP3    H115848   4.370   5.803   2.463
 5321TIP3    H215849   4.472   5.737   2.555
 5322TIP3   OH215850   4.289   6.017   2.167
 5322TIP3    H115851   4.385   6.011   2.155
 5322TIP3    H215852   4.280   6.098   2.219
 5323TIP3   OH215853   6.155   6.469   2.222
 5323TIP3    H115854   6.153   6.372   2.236
 5323TIP3    H215855   6.071   6.495   2.267
 5324TIP3   OH215856   5.260   6.254   2.356
 5324TIP3    H115857   5.259   6.347   2.388
 5324TIP3    H215858   5.188   6.215   2.410
 5325TIP3   OH215859   5.022   6.384   1.307
 5325TIP3    H115860   4.975   6.365   1.224
 5325TIP3    H215861   4.989   6.472   1.331
 5326TIP3   OH215862   4.459   6.233   1.691
 5326TIP3    H115863   4.505   6.223   1.777
 5326TIP3    H215864   4.403   6.154   1.692
 5327TIP3   OH215865   5.221   6.285   0.949
 5327TIP3    H115866   5.281   6.216   0.911
 5327TIP3    H215867   5.257   6.294   1.040
 5328TIP3   OH215868   5.273   6.332   1.219
 5328TIP3    H115869   5.184   6.343   1.258
 5328TIP3    H215870   5.322   6.293   1.293
 5329TIP3   OH215871   6.044   5.600   2.495
 5329TIP3    H115872   5.962   5.612   2.445
 5329TIP3    H215873   6.059   5.504   2.485
 5330TIP3   OH215874   4.640   6.008   2.521
 5330TIP3    H115875   4.690   5.990   2.604
 5330TIP3    H215876   4.566   5.944   2.528
 5331TIP3   OH215877   5.040   4.831   2.304
 5331TIP3    H115878   4.951   4.800   2.277
 5331TIP3    H215879   5.014   4.913   2.351
 5332TIP3   OH215880   5.573   4.947   2.500
 5332TIP3    H115881   5.641   4.918   2.564
 5332TIP3    H215882   5.489   4.926   2.546
 5333TIP3   OH215883   5.815   5.377   2.419
 5333TIP3    H115884   5.763   5.372   2.503
 5333TIP3    H215885   5.788   5.463   2.382
 5334TIP3   OH215886   5.473   5.510   0.976
 5334TIP3    H115887   5.439   5.479   0.890
 5334TIP3    H215888   5.557   5.550   0.947
 5335TIP3   OH215889   5.187   4.879   1.276
 5335TIP3    H115890   5.152   4.876   1.367
 5335TIP3    H215891   5.146   4.797   1.241
 5336TIP3   OH215892   4.973   5.346   2.325
 5336TIP3    H115893   4.921   5.366   2.405
 5336TIP3    H215894   4.957   5.427   2.271
 5337TIP3   OH215895   4.855   5.233   1.838
 5337TIP3    H115896   4.762   5.206   1.855
 5337TIP3    H215897   4.868   5.192   1.749
 5338TIP3   OH215898   5.348   5.321   1.566
 5338TIP3    H115899   5.294   5.390   1.523
 5338TIP3    H215900   5.399   5.286   1.490
 5339TIP3   OH215901   5.521   5.597   2.652
 5339TIP3    H115902   5.498   5.524   2.714
 5339TIP3    H215903   5.615   5.610   2.674
 5340TIP3   OH215904   5.504   5.347   1.803
 5340TIP3    H115905   5.441   5.373   1.733
 5340TIP3    H215906   5.538   5.265   1.762
 5341TIP3   OH215907   4.791   5.375   2.532
 5341TIP3    H115908   4.817   5.438   2.601
 5341TIP3    H215909   4.778   5.293   2.583
 5342TIP3   OH215910   4.842   4.854   1.242
 5342TIP3    H115911   4.832   4.850   1.339
 5342TIP3    H215912   4.762   4.904   1.217
 5343TIP3   OH215913   4.383   4.900   2.112
 5343TIP3    H115914   4.462   4.928   2.164
 5343TIP3    H215915   4.421   4.863   2.031
 5344TIP3   OH215916   4.358   4.879   1.632
 5344TIP3    H115917   4.402   4.917   1.554
 5344TIP3    H215918   4.295   4.951   1.653
 5345TIP3   OH215919   5.515   5.594   2.227
 5345TIP3    H115920   5.547   5.521   2.169
 5345TIP3    H215921   5.484   5.541   2.304
 5346TIP3   OH215922   5.184   5.056   1.899
 5346TIP3    H115923   5.100   5.053   1.950
 5346TIP3    H215924   5.250   5.054   1.970
 5347TIP3   OH215925   4.617   5.111   1.907
 5347TIP3    H115926   4.523   5.119   1.880
 5347TIP3    H215927   4.638   5.018   1.885
 5348TIP3   OH215928   4.887   5.108   1.596
 5348TIP3    H115929   4.980   5.122   1.571
 5348TIP3    H215930   4.838   5.129   1.513
 5349TIP3   OH215931   5.675   5.129   2.100
 5349TIP3    H115932   5.641   5.143   2.191
 5349TIP3    H215933   5.607   5.068   2.065
 5350TIP3   OH215934   4.729   5.141   1.375
 5350TIP3    H115935   4.656   5.096   1.330
 5350TIP3    H215936   4.779   5.176   1.299
 5351TIP3   OH215937   5.845   6.819   2.320
 5351TIP3    H115938   5.843   6.843   2.225
 5351TIP3    H215939   5.924   6.868   2.351
 5352TIP3   OH215940   4.802   5.930   2.741
 5352TIP3    H115941   4.881   5.960   2.789
 5352TIP3    H215942   4.737   5.929   2.815
 5353TIP3   OH215943   5.266   5.383   1.997
 5353TIP3    H115944   5.339   5.343   1.948
 5353TIP3    H215945   5.273   5.341   2.084
 5354TIP3   OH215946   4.791   4.869   1.876
 5354TIP3    H115947   4.753   4.792   1.923
 5354TIP3    H215948   4.836   4.828   1.801
 5355TIP3   OH215949   5.243   5.280   2.285
 5355TIP3    H115950   5.152   5.315   2.300
 5355TIP3    H215951   5.299   5.341   2.336
 5356TIP3   OH215952   4.979   5.670   1.382
 5356TIP3    H115953   4.907   5.605   1.370
 5356TIP3    H215954   4.960   5.704   1.473
 5357TIP3   OH215955   5.879   5.906   2.011
 5357TIP3    H115956   5.902   5.956   1.929
 5357TIP3    H215957   5.794   5.864   1.986
 5358TIP3   OH215958   5.438   4.980   1.247
 5358TIP3    H115959   5.341   4.962   1.252
 5358TIP3    H215960   5.443   5.076   1.267
 5359TIP3   OH215961   5.380   5.990   2.378
 5359TIP3    H115962   5.401   5.967   2.469
 5359TIP3    H215963   5.340   6.078   2.385
 5360TIP3   OH215964   5.504   5.231   1.349
 5360TIP3    H115965   5.601   5.232   1.360
 5360TIP3    H215966   5.487   5.308   1.292
 5361TIP3   OH215967   4.674   5.696   2.057
 5361TIP3    H115968   4.710   5.665   1.971
 5361TIP3    H215969   4.709   5.629   2.118
 5362TIP3   OH215970   5.125   5.820   1.205
 5362TIP3    H115971   5.077   5.906   1.209
 5362TIP3    H215972   5.069   5.765   1.264
 5363TIP3   OH215973   4.552   5.613   2.670
 5363TIP3    H115974   4.570   5.597   2.765
 5363TIP3    H215975   4.482   5.547   2.652
 5364TIP3   OH215976   5.277   5.727   2.691
 5364TIP3    H115977   5.217   5.668   2.642
 5364TIP3    H215978   5.364   5.692   2.662
 5365TIP3   OH215979   5.539   6.248   2.274
 5365TIP3    H115980   5.443   6.246   2.287
 5365TIP3    H215981   5.567   6.300   2.352
 5366TIP3   OH215982   5.950   5.329   1.181
 5366TIP3    H115983   5.886   5.268   1.138
 5366TIP3    H215984   5.943   5.397   1.110
 5367TIP3   OH215985   6.167   6.178   2.264
 5367TIP3    H115986   6.070   6.173   2.256
 5367TIP3    H215987   6.193   6.148   2.174
 5368TIP3   OH215988   5.659   6.137   1.095
 5368TIP3    H115989   5.610   6.073   1.149
 5368TIP3    H215990   5.661   6.095   1.007
 5369TIP3   OH215991   5.643   5.772   1.930
 5369TIP3    H115992   5.550   5.745   1.943
 5369TIP3    H215993   5.679   5.691   1.888
 5370TIP3   OH215994   4.772   5.996   1.682
 5370TIP3    H115995   4.771   6.078   1.628
 5370TIP3    H215996   4.678   5.979   1.691
 5371TIP3   OH215997   4.336   5.301   1.386
 5371TIP3    H115998   4.381   5.385   1.407
 5371TIP3    H215999   4.259   5.305   1.446
 5372TIP3   OH216000   4.912   5.763   1.627
 5372TIP3    H116001   4.876   5.852   1.645
 5372TIP3    H216002   4.874   5.712   1.701
 5373TIP3   OH216003   5.041   6.340   2.151
 5373TIP3    H116004   5.082   6.413   2.100
 5373TIP3    H216005   5.118   6.305   2.199
 5374TIP3   OH216006   4.692   6.235   1.535
 5374TIP3    H116007   4.606   6.244   1.580
 5374TIP3    H216008   4.724   6.328   1.537
 5375TIP3   OH216009   5.430   5.974   2.109
 5375TIP3    H116010   5.420   5.972   2.207
 5375TIP3    H216011   5.510   5.920   2.097
 5376TIP3   OH216012   5.403   5.868   0.991
 5376TIP3    H116013   5.452   5.839   1.071
 5376TIP3    H216014   5.313   5.841   1.013
 5377TIP3   OH216015   5.679   6.507   2.159
 5377TIP3    H116016   5.599   6.451   2.152
 5377TIP3    H216017   5.663   6.572   2.087
 5378TIP3   OH216018   5.743   6.339   0.816
 5378TIP3    H116019   5.759   6.398   0.740
 5378TIP3    H216020   5.666   6.387   0.855
 5379TIP3   OH216021   4.762   5.120   2.678
 5379TIP3    H116022   4.665   5.123   2.689
 5379TIP3    H216023   4.788   5.057   2.748
 5380TIP3   OH216024   5.562   5.795   1.208
 5380TIP3    H116025   5.552   5.735   1.284
 5380TIP3    H216026   5.657   5.791   1.192
 5381TIP3   OH216027   4.480   6.203   2.310
 5381TIP3    H116028   4.532   6.127   2.340
 5381TIP3    H216029   4.511   6.272   2.371
 5382TIP3   OH216030   4.772   5.847   0.992
 5382TIP3    H116031   4.783   5.754   0.963
 5382TIP3    H216032   4.751   5.835   1.087
 5383TIP3   OH216033   4.716   5.853   1.264
 5383TIP3    H116034   4.786   5.826   1.324
 5383TIP3    H216035   4.720   5.951   1.271
 5384TIP3   OH216036   4.452   5.547   1.468
 5384TIP3    H116037   4.385   5.590   1.524
 5384TIP3    H216038   4.464   5.616   1.400
 5385TIP3   OH216039   5.601   5.183   2.359
 5385TIP3    H116040   5.681   5.219   2.401
 5385TIP3    H216041   5.586   5.102   2.413
 5386TIP3   OH216042   5.482   4.933   1.525
 5386TIP3    H116043   5.466   4.955   1.432
 5386TIP3    H216044   5.520   5.017   1.560
 5387TIP3   OH216045   4.983   6.051   1.214
 5387TIP3    H116046   4.895   6.076   1.249
 5387TIP3    H216047   4.997   6.122   1.150
 5388TIP3   OH216048   5.172   5.113   1.627
 5388TIP3    H116049   5.236   5.186   1.611
 5388TIP3    H216050   5.175   5.106   1.725
 5389TIP3   OH216051   5.439   5.433   2.434
 5389TIP3    H116052   5.460   5.486   2.514
 5389TIP3    H216053   5.493   5.353   2.447
 5390TIP3   OH216054   5.314   4.841   1.731
 5390TIP3    H116055   5.305   4.920   1.787
 5390TIP3    H216056   5.375   4.876   1.661
 5391TIP3   OH216057   4.726   6.125   1.281
 5391TIP3    H116058   4.696   6.194   1.218
 5391TIP3    H216059   4.709   6.169   1.367
 5392TIP3   OH216060   4.826   4.839   1.519
 5392TIP3    H116061   4.823   4.929   1.556
 5392TIP3    H216062   4.922   4.821   1.526
 5393TIP3   OH216063   6.080   5.332   2.414
 5393TIP3    H116064   5.983   5.332   2.424
 5393TIP3    H216065   6.088   5.287   2.329
 5394TIP3   OH216066   5.727   5.535   1.813
 5394TIP3    H116067   5.656   5.470   1.809
 5394TIP3    H216068   5.802   5.482   1.847
 5395TIP3   OH216069   4.443   5.755   1.273
 5395TIP3    H116070   4.508   5.827   1.281
 5395TIP3    H216071   4.488   5.700   1.206
 5396TIP3   OH216072   4.388   5.031   1.406
 5396TIP3    H116073   4.385   5.129   1.403
 5396TIP3    H216074   4.304   5.007   1.365
 5397TIP3   OH216075   5.699   6.482   1.753
 5397TIP3    H116076   5.656   6.529   1.678
 5397TIP3    H216077   5.793   6.501   1.732
 5398TIP3   OH216078   4.776   4.751   2.279
 5398TIP3    H116079   4.744   4.717   2.193
 5398TIP3    H216080   4.765   4.673   2.337
 5399TIP3   OH216081   4.315   5.972   1.661
 5399TIP3    H116082   4.243   6.000   1.718
 5399TIP3    H216083   4.288   6.011   1.575
 5400TIP3   OH216084   4.470   6.511   2.732
 5400TIP3    H116085   4.557   6.510   2.779
 5400TIP3    H216086   4.450   6.416   2.730
 5401TIP3   OH216087   4.952   6.476   2.777
 5401TIP3    H116088   5.047   6.457   2.783
 5401TIP3    H216089   4.926   6.417   2.703
 5402TIP3   OH216090   4.934   6.051   0.905
 5402TIP3    H116091   4.877   5.980   0.942
 5402TIP3    H216092   5.009   5.998   0.872
 5403TIP3   OH216093   5.591   6.382   2.510
 5403TIP3    H116094   5.583   6.312   2.579
 5403TIP3    H216095   5.669   6.433   2.541
 5404TIP3   OH216096   5.369   6.093   0.817
 5404TIP3    H116097   5.413   6.026   0.872
 5404TIP3    H216098   5.424   6.096   0.737
 5405TIP3   OH216099   4.600   5.917   2.933
 5405TIP3    H116100   4.618   5.821   2.936
 5405TIP3    H216101   4.513   5.920   2.888
 5406TIP3   OH216102   4.578   5.569   1.125
 5406TIP3    H116103   4.632   5.535   1.198
 5406TIP3    H216104   4.645   5.573   1.054
 5407TIP3   OH216105   5.208   6.002   2.706
 5407TIP3    H116106   5.167   6.019   2.619
 5407TIP3    H216107   5.239   5.909   2.698
 5408TIP3   OH216108   5.092   5.768   0.934
 5408TIP3    H116109   5.091   5.779   1.031
 5408TIP3    H216110   5.090   5.670   0.927
 5409TIP3   OH216111   5.702   6.010   2.313
 5409TIP3    H116112   5.776   6.056   2.269
 5409TIP3    H216113   5.630   6.075   2.299
 5410TIP3   OH216114   4.720   5.653   2.915
 5410TIP3    H116115   4.794   5.597   2.891
 5410TIP3    H216116   4.747   5.685   3.003
 5411TIP3   OH216117   4.789   5.472   1.349
 5411TIP3    H116118   4.758   5.429   1.431
 5411TIP3    H216119   4.823   5.395   1.298
 5412TIP3   OH216120   5.056   5.538   2.578
 5412TIP3    H116121   4.977   5.596   2.578
 5412TIP3    H216122   5.105   5.571   2.499
 5413TIP3   OH216123   4.887   5.266   1.188
 5413TIP3    H116124   4.860   5.269   1.094
 5413TIP3    H216125   4.984   5.270   1.180
 5414TIP3   OH216126   5.573   5.939   2.711
 5414TIP3    H116127   5.651   5.913   2.661
 5414TIP3    H216128   5.569   5.871   2.780
 5415TIP3   OH216129   5.708   5.599   0.862
 5415TIP3    H116130   5.713   5.544   0.782
 5415TIP3    H216131   5.672   5.682   0.825
 5416TIP3   OH216132   5.179   5.325   2.702
 5416TIP3    H116133   5.178   5.245   2.646
 5416TIP3    H216134   5.135   5.391   2.644
 5417TIP3   OH216135   5.181   5.112   2.510
 5417TIP3    H116136   5.208   5.152   2.425
 5417TIP3    H216137   5.088   5.088   2.492
 5418TIP3   OH216138   5.209   5.647   2.384
 5418TIP3    H116139   5.291   5.655   2.334
 5418TIP3    H216140   5.151   5.713   2.339
 5419TIP3   OH216141   5.790   5.613   2.764
 5419TIP3    H116142   5.838   5.530   2.774
 5419TIP3    H216143   5.859   5.671   2.728
 5420TIP3   OH216144   5.831   5.867   2.501
 5420TIP3    H116145   5.773   5.920   2.441
 5420TIP3    H216146   5.919   5.887   2.460
 5421TIP3   OH216147   5.057   5.436   2.934
 5421TIP3    H116148   4.989   5.367   2.947
 5421TIP3    H216149   5.091   5.413   2.846
 5422TIP3   OH216150   5.313   4.875   2.576
 5422TIP3    H116151   5.263   4.956   2.554
 5422TIP3    H216152   5.244   4.806   2.565
 5423TIP3   OH216153   5.439   5.379   2.793
 5423TIP3    H116154   5.426   5.365   2.888
 5423TIP3    H216155   5.350   5.354   2.761
 5424TIP3   OH216156   5.679   5.329   2.648
 5424TIP3    H116157   5.603   5.329   2.710
 5424TIP3    H216158   5.752   5.297   2.705
 5425TIP3   OH216159   5.910   5.269   2.798
 5425TIP3    H116160   5.921   5.173   2.816
 5425TIP3    H216161   5.904   5.307   2.888
 5426TIP3   OH216162   4.897   5.217   2.986
 5426TIP3    H116163   4.900   5.126   2.950
 5426TIP3    H216164   4.933   5.202   3.075
 5427TIP3   OH216165   5.408   4.885   2.834
 5427TIP3    H116166   5.475   4.813   2.828
 5427TIP3    H216167   5.368   4.878   2.745
 5428TIP3   OH216168   5.474   5.099   2.993
 5428TIP3    H116169   5.453   5.028   2.929
 5428TIP3    H216170   5.396   5.158   2.986
 5429TIP3   OH216171   4.694   6.327   1.094
 5429TIP3    H116172   4.790   6.323   1.074
 5429TIP3    H216173   4.664   6.377   1.015
 5430TIP3   OH216174   4.174   5.709   1.310
 5430TIP3    H116175   4.269   5.731   1.295
 5430TIP3    H216176   4.168   5.621   1.268
 5431TIP3   OH216177   4.089   6.322   1.722
 5431TIP3    H116178   4.022   6.260   1.686
 5431TIP3    H216179   4.133   6.264   1.788
 5432TIP3   OH216180   4.224   6.174   1.910
 5432TIP3    H116181   4.212   6.100   1.971
 5432TIP3    H216182   4.276   6.234   1.966
 5433TIP3   OH216183   5.953   6.570   1.710
 5433TIP3    H116184   5.977   6.606   1.797
 5433TIP3    H216185   6.011   6.620   1.650
 5434TIP3   OH216186   5.980   6.594   1.992
 5434TIP3    H116187   5.937   6.506   1.988
 5434TIP3    H216188   6.056   6.573   2.048
 5435TIP3   OH216189   6.028   6.270   2.565
 5435TIP3    H116190   5.954   6.279   2.629
 5435TIP3    H216191   6.069   6.359   2.569
 5436TIP3   OH216192   5.871   5.788   1.223
 5436TIP3    H116193   5.923   5.846   1.162
 5436TIP3    H216194   5.850   5.850   1.293
 5437TIP3   OH216195   6.027   6.043   1.821
 5437TIP3    H116196   6.078   5.979   1.768
 5437TIP3    H216197   6.019   6.119   1.761
 5438TIP3   OH216198   5.856   6.343   2.016
 5438TIP3    H116199   5.786   6.386   2.067
 5438TIP3    H216200   5.806   6.296   1.946
 5439TIP3   OH216201   5.889   5.561   1.065
 5439TIP3    H116202   5.837   5.545   0.983
 5439TIP3    H216203   5.861   5.653   1.082
 5440TIP3   OH216204   5.779   5.234   0.997
 5440TIP3    H116205   5.760   5.267   0.908
 5440TIP3    H216206   5.750   5.140   0.986
 5441TIP3   OH216207   4.411   5.580   2.282
 5441TIP3    H116208   4.409   5.549   2.189
 5441TIP3    H216209   4.508   5.582   2.298
 5442TIP3   OH216210   6.075   5.932   2.392
 5442TIP3    H116211   6.147   5.866   2.382
 5442TIP3    H216212   6.101   6.002   2.330
 5443TIP3   OH216213   6.260   5.737   2.407
 5443TIP3    H116214   6.185   5.687   2.446
 5443TIP3    H216215   6.332   5.673   2.422
 5444TIP3   OH216216   5.724   4.967   0.982
 5444TIP3    H116217   5.795   4.930   1.037
 5444TIP3    H216218   5.648   4.909   0.998
 5445TIP3   OH216219   5.779   5.216   1.415
 5445TIP3    H116220   5.817   5.130   1.443
 5445TIP3    H216221   5.843   5.242   1.348
 5446TIP3   OH216222   5.944   5.394   1.923
 5446TIP3    H116223   6.030   5.422   1.884
 5446TIP3    H216224   5.954   5.432   2.013
 5447TIP3   OH216225   6.012   5.541   2.156
 5447TIP3    H116226   5.934   5.574   2.204
 5447TIP3    H216227   6.043   5.622   2.111
 5448TIP3   OH216228   4.630   5.270   2.963
 5448TIP3    H116229   4.728   5.261   2.960
 5448TIP3    H216230   4.605   5.183   2.998
 5449TIP3   OH216231   6.464   5.133   2.713
 5449TIP3    H116232   6.523   5.067   2.670
 5449TIP3    H216233   6.435   5.187   2.636
 5450TIP3   OH216234   5.891   4.972   1.467
 5450TIP3    H116235   5.936   4.957   1.553
 5450TIP3    H216236   5.828   4.897   1.466
 5451TIP3   OH216237   4.591   4.959   2.287
 5451TIP3    H116238   4.653   4.884   2.296
 5451TIP3    H216239   4.654   5.033   2.280
 5452TIP3   OH216240   4.395   5.234   2.361
 5452TIP3    H116241   4.441   5.224   2.276
 5452TIP3    H216242   4.425   5.321   2.389
 5453TIP3   OH216243   6.335   5.272   2.517
 5453TIP3    H116244   6.248   5.313   2.538
 5453TIP3    H216245   6.305   5.199   2.459
 5454TIP3   OH216246   5.977   4.906   1.104
 5454TIP3    H116247   6.015   4.835   1.048
 5454TIP3    H216248   6.038   4.980   1.088
 5455TIP3   OH216249   4.377   4.742   1.865
 5455TIP3    H116250   4.283   4.733   1.889
 5455TIP3    H216251   4.372   4.797   1.784
 5456TIP3   OH216252   5.538   6.439   1.368
 5456TIP3    H116253   5.587   6.427   1.284
 5456TIP3    H216254   5.589   6.509   1.411
 5457TIP3   OH216255   4.598   4.819   2.677
 5457TIP3    H116256   4.545   4.811   2.758
 5457TIP3    H216257   4.532   4.856   2.615
 5458TIP3   OH216258   4.637   6.245   2.752
 5458TIP3    H116259   4.545   6.217   2.734
 5458TIP3    H216260   4.645   6.225   2.846
 5459TIP3   OH216261   4.815   6.277   2.300
 5459TIP3    H116262   4.766   6.352   2.260
 5459TIP3    H216263   4.901   6.291   2.255
 5460TIP3   OH216264   5.259   6.521   2.437
 5460TIP3    H116265   5.302   6.522   2.526
 5460TIP3    H216266   5.325   6.572   2.385
 5461TIP3   OH216267   5.439   6.673   2.297
 5461TIP3    H116268   5.510   6.622   2.254
 5461TIP3    H216269   5.490   6.730   2.357
 5462TIP3   OH216270   6.234   5.034   2.396
 5462TIP3    H116271   6.143   5.027   2.363
 5462TIP3    H216272   6.265   4.941   2.385
 5463TIP3   OH216273   4.491   6.534   2.323
 5463TIP3    H116274   4.402   6.568   2.298
 5463TIP3    H216275   4.499   6.569   2.412
 5464TIP3   OH216276   4.728   6.513   2.181
 5464TIP3    H116277   4.641   6.525   2.225
 5464TIP3    H216278   4.708   6.544   2.091
 5465TIP3   OH216279   5.154   6.541   1.979
 5465TIP3    H116280   5.084   6.560   1.913
 5465TIP3    H216281   5.166   6.629   2.020
 5466TIP3   OH216282   5.422   6.480   2.030
 5466TIP3    H116283   5.328   6.497   2.011
 5466TIP3    H216284   5.465   6.556   1.988
 5467TIP3   OH216285   5.630   6.672   1.945
 5467TIP3    H116286   5.615   6.757   1.898
 5467TIP3    H216287   5.655   6.612   1.872
 5468TIP3   OH216288   4.402   6.328   2.069
 5468TIP3    H116289   4.429   6.301   2.159
 5468TIP3    H216290   4.474   6.284   2.017
 5469TIP3   OH216291   4.596   6.199   1.926
 5469TIP3    H116292   4.612   6.115   1.975
 5469TIP3    H216293   4.687   6.235   1.920
 5470TIP3   OH216294   4.863   6.294   1.928
 5470TIP3    H116295   4.894   6.202   1.915
 5470TIP3    H216296   4.907   6.314   2.012
 5471TIP3   OH216297   5.440   4.950   2.018
 5471TIP3    H116298   5.394   4.881   2.069
 5471TIP3    H216299   5.509   4.900   1.971
 5472TIP3   OH216300   5.963   4.829   1.918
 5472TIP3    H116301   5.997   4.885   1.844
 5472TIP3    H216302   5.867   4.847   1.913
 5473TIP3   OH216303   6.060   4.938   1.683
 5473TIP3    H116304   6.133   4.886   1.643
 5473TIP3    H216305   6.091   5.029   1.668
 5474TIP3   OH216306   4.687   4.659   2.032
 5474TIP3    H116307   4.594   4.626   2.033
 5474TIP3    H216308   4.735   4.573   2.028
 5475TIP3   OH216309   4.476   4.529   1.680
 5475TIP3    H116310   4.502   4.587   1.607
 5475TIP3    H216311   4.445   4.593   1.747
 5476TIP3   OH216312   5.132   4.690   1.911
 5476TIP3    H116313   5.190   4.741   1.853
 5476TIP3    H216314   5.150   4.729   1.997
 5477TIP3   OH216315   5.681   4.837   1.895
 5477TIP3    H116316   5.673   4.799   1.807
 5477TIP3    H216317   5.666   4.758   1.952
 5478TIP3   OH216318   5.708   4.760   1.458
 5478TIP3    H116319   5.621   4.803   1.470
 5478TIP3    H216320   5.693   4.675   1.505
 5479TIP3   OH216321   4.191   6.099   1.459
 5479TIP3    H116322   4.106   6.066   1.425
 5479TIP3    H216323   4.180   6.194   1.439
 5480TIP3   OH216324   4.590   4.689   1.441
 5480TIP3    H116325   4.638   4.624   1.386
 5480TIP3    H216326   4.664   4.741   1.478
 5481TIP3   OH216327   5.103   4.864   1.541
 5481TIP3    H116328   5.161   4.815   1.602
 5481TIP3    H216329   5.126   4.956   1.567
 5482TIP3   OH216330   4.962   6.288   1.042
 5482TIP3    H116331   5.050   6.311   1.005
 5482TIP3    H216332   4.940   6.213   0.981
 5483TIP3   OH216333   5.682   6.407   1.136
 5483TIP3    H116334   5.677   6.309   1.122
 5483TIP3    H216335   5.636   6.439   1.055
 5484TIP3   OH216336   4.894   4.942   2.926
 5484TIP3    H116337   4.860   4.869   2.980
 5484TIP3    H216338   4.989   4.941   2.952
 5485TIP3   OH216339   5.145   4.938   3.043
 5485TIP3    H116340   5.228   4.911   3.002
 5485TIP3    H216341   5.131   4.867   3.109
 5486TIP3   OH216342   4.267   6.125   1.097
 5486TIP3    H116343   4.266   6.150   1.191
 5486TIP3    H216344   4.355   6.083   1.087
 5487TIP3   OH216345   5.969   4.998   2.830
 5487TIP3    H116346   5.988   4.967   2.921
 5487TIP3    H216347   6.058   4.993   2.788
 5488TIP3   OH216348   5.908   6.550   2.321
 5488TIP3    H116349   5.829   6.519   2.273
 5488TIP3    H216350   5.889   6.646   2.325
 5489TIP3   OH216351   7.172   5.922   1.091
 5489TIP3    H116352   7.145   6.014   1.069
 5489TIP3    H216353   7.098   5.873   1.053
 5490TIP3   OH216354   7.173   5.923   1.469
 5490TIP3    H116355   7.205   5.894   1.557
 5490TIP3    H216356   7.132   5.842   1.435
 5491TIP3   OH216357   6.472   5.817   1.836
 5491TIP3    H116358   6.502   5.749   1.899
 5491TIP3    H216359   6.549   5.876   1.833
 5492TIP3   OH216360   7.418   6.224   1.151
 5492TIP3    H116361   7.402   6.155   1.217
 5492TIP3    H216362   7.446   6.299   1.206
 5493TIP3   OH216363   6.443   6.224   1.557
 5493TIP3    H116364   6.434   6.127   1.561
 5493TIP3    H216365   6.540   6.233   1.552
 5494TIP3   OH216366   6.201   5.680   1.462
 5494TIP3    H116367   6.249   5.625   1.527
 5494TIP3    H216368   6.267   5.749   1.444
 5495TIP3   OH216369   7.064   6.688   1.167
 5495TIP3    H116370   7.110   6.616   1.120
 5495TIP3    H216371   7.058   6.652   1.256
 5496TIP3   OH216372   6.972   6.148   1.518
 5496TIP3    H116373   7.011   6.072   1.471
 5496TIP3    H216374   7.055   6.194   1.542
 5497TIP3   OH216375   7.984   5.469   1.515
 5497TIP3    H116376   8.014   5.551   1.559
 5497TIP3    H216377   8.007   5.488   1.422
 5498TIP3   OH216378   7.383   5.650   1.550
 5498TIP3    H116379   7.426   5.565   1.570
 5498TIP3    H216380   7.353   5.634   1.458
 5499TIP3   OH216381   6.723   5.310   1.517
 5499TIP3    H116382   6.703   5.382   1.453
 5499TIP3    H216383   6.677   5.235   1.473
 5500TIP3   OH216384   7.416   5.400   1.139
 5500TIP3    H116385   7.489   5.385   1.203
 5500TIP3    H216386   7.467   5.436   1.064
 5501TIP3   OH216387   6.358   5.511   1.617
 5501TIP3    H116388   6.438   5.494   1.671
 5501TIP3    H216389   6.376   5.453   1.541
 5502TIP3   OH216390   6.797   5.708   1.415
 5502TIP3    H116391   6.891   5.684   1.428
 5502TIP3    H216392   6.758   5.624   1.383
 5503TIP3   OH216393   8.058   5.675   1.686
 5503TIP3    H116394   7.975   5.723   1.666
 5503TIP3    H216395   8.074   5.704   1.777
 5504TIP3   OH216396   6.719   5.292   1.949
 5504TIP3    H116397   6.658   5.330   1.883
 5504TIP3    H216398   6.668   5.309   2.031
 5505TIP3   OH216399   7.061   6.140   0.962
 5505TIP3    H116400   7.029   6.125   0.872
 5505TIP3    H216401   7.019   6.226   0.983
 5506TIP3   OH216402   6.825   6.068   1.744
 5506TIP3    H116403   6.763   6.134   1.782
 5506TIP3    H216404   6.868   6.118   1.672
 5507TIP3   OH216405   7.627   5.402   1.310
 5507TIP3    H116406   7.614   5.358   1.395
 5507TIP3    H216407   7.680   5.480   1.335
 5508TIP3   OH216408   6.589   5.409   1.735
 5508TIP3    H116409   6.651   5.481   1.759
 5508TIP3    H216410   6.640   5.368   1.661
 5509TIP3   OH216411   6.652   6.262   1.841
 5509TIP3    H116412   6.628   6.349   1.803
 5509TIP3    H216413   6.574   6.246   1.898
 5510TIP3   OH216414   6.041   5.954   1.079
 5510TIP3    H116415   6.006   5.979   0.990
 5510TIP3    H216416   6.073   6.041   1.111
 5511TIP3   OH216417   7.488   6.467   1.319
 5511TIP3    H116418   7.398   6.458   1.358
 5511TIP3    H216419   7.479   6.554   1.273
 5512TIP3   OH216420   7.778   5.367   1.680
 5512TIP3    H116421   7.691   5.398   1.650
 5512TIP3    H216422   7.838   5.401   1.610
 5513TIP3   OH216423   7.074   5.011   1.663
 5513TIP3    H116424   7.061   4.916   1.682
 5513TIP3    H216425   6.997   5.050   1.710
 5514TIP3   OH216426   7.184   6.513   0.993
 5514TIP3    H116427   7.235   6.431   0.973
 5514TIP3    H216428   7.245   6.579   0.953
 5515TIP3   OH216429   7.330   6.303   0.900
 5515TIP3    H116430   7.320   6.226   0.843
 5515TIP3    H216431   7.364   6.263   0.983
 5516TIP3   OH216432   7.713   6.381   1.662
 5516TIP3    H116433   7.702   6.303   1.602
 5516TIP3    H216434   7.696   6.455   1.600
 5517TIP3   OH216435   7.006   5.775   0.918
 5517TIP3    H116436   6.923   5.825   0.902
 5517TIP3    H216437   7.042   5.769   0.828
 5518TIP3   OH216438   6.970   5.553   0.662
 5518TIP3    H116439   7.053   5.595   0.689
 5518TIP3    H216440   7.001   5.488   0.597
 5519TIP3   OH216441   7.908   6.017   1.506
 5519TIP3    H116442   7.825   6.069   1.511
 5519TIP3    H216443   7.938   6.041   1.415
 5520TIP3   OH216444   7.351   5.852   0.897
 5520TIP3    H116445   7.298   5.879   0.975
 5520TIP3    H216446   7.437   5.832   0.938
 5521TIP3   OH216447   7.587   5.896   1.803
 5521TIP3    H116448   7.584   5.979   1.853
 5521TIP3    H216449   7.501   5.901   1.757
 5522TIP3   OH216450   6.584   5.854   1.309
 5522TIP3    H116451   6.541   5.796   1.243
 5522TIP3    H216452   6.661   5.801   1.336
 5523TIP3   OH216453   6.713   6.263   1.457
 5523TIP3    H116454   6.695   6.226   1.369
 5523TIP3    H216455   6.804   6.231   1.475
 5524TIP3   OH216456   6.717   5.828   1.659
 5524TIP3    H116457   6.754   5.804   1.571
 5524TIP3    H216458   6.763   5.912   1.680
 5525TIP3   OH216459   7.246   6.463   1.438
 5525TIP3    H116460   7.232   6.544   1.491
 5525TIP3    H216461   7.231   6.391   1.502
 5526TIP3   OH216462   6.859   6.382   1.986
 5526TIP3    H116463   6.799   6.444   2.032
 5526TIP3    H216464   6.793   6.329   1.936
 5527TIP3   OH216465   7.207   5.718   0.711
 5527TIP3    H116466   7.256   5.770   0.779
 5527TIP3    H216467   7.228   5.769   0.631
 5528TIP3   OH216468   6.612   5.939   2.086
 5528TIP3    H116469   6.617   6.026   2.130
 5528TIP3    H216470   6.517   5.919   2.098
 5529TIP3   OH216471   6.932   6.391   0.997
 5529TIP3    H116472   7.010   6.446   1.016
 5529TIP3    H216473   6.866   6.455   0.968
 5530TIP3   OH216474   6.653   6.550   2.072
 5530TIP3    H116475   6.617   6.551   1.981
 5530TIP3    H216476   6.574   6.528   2.126
 5531TIP3   OH216477   7.698   4.945   0.772
 5531TIP3    H116478   7.620   4.967   0.826
 5531TIP3    H216479   7.711   5.030   0.724
 5532TIP3   OH216480   6.445   5.694   1.116
 5532TIP3    H116481   6.386   5.749   1.060
 5532TIP3    H216482   6.408   5.606   1.101
 5533TIP3   OH216483   6.232   6.081   2.020
 5533TIP3    H116484   6.164   6.059   1.953
 5533TIP3    H216485   6.268   5.993   2.044
 5534TIP3   OH216486   6.086   6.273   1.653
 5534TIP3    H116487   6.183   6.273   1.645
 5534TIP3    H216488   6.071   6.353   1.705
 5535TIP3   OH216489   7.950   6.726   1.706
 5535TIP3    H116490   7.949   6.629   1.720
 5535TIP3    H216491   7.867   6.751   1.753
 5536TIP3   OH216492   7.057   6.511   1.843
 5536TIP3    H116493   7.056   6.603   1.875
 5536TIP3    H216494   6.985   6.471   1.897
 5537TIP3   OH216495   6.791   6.647   0.804
 5537TIP3    H116496   6.783   6.644   0.707
 5537TIP3    H216497   6.779   6.741   0.823
 5538TIP3   OH216498   6.255   6.490   1.178
 5538TIP3    H116499   6.303   6.480   1.263
 5538TIP3    H216500   6.192   6.417   1.184
 5539TIP3   OH216501   7.044   6.556   0.746
 5539TIP3    H116502   6.954   6.572   0.781
 5539TIP3    H216503   7.089   6.517   0.822
 5540TIP3   OH216504   7.840   5.856   1.982
 5540TIP3    H116505   7.759   5.868   1.932
 5540TIP3    H216506   7.856   5.760   1.972
 5541TIP3   OH216507   6.437   6.263   2.007
 5541TIP3    H116508   6.486   6.248   2.090
 5541TIP3    H216509   6.362   6.200   2.015
 5542TIP3   OH216510   6.836   5.088   1.791
 5542TIP3    H116511   6.746   5.057   1.766
 5542TIP3    H216512   6.811   5.170   1.839
 5543TIP3   OH216513   7.370   5.202   1.986
 5543TIP3    H116514   7.439   5.175   2.051
 5543TIP3    H216515   7.287   5.183   2.033
 5544TIP3   OH216516   7.608   5.632   1.904
 5544TIP3    H116517   7.559   5.628   1.989
 5544TIP3    H216518   7.585   5.720   1.869
 5545TIP3   OH216519   6.980   5.135   0.763
 5545TIP3    H116520   6.947   5.133   0.855
 5545TIP3    H216521   6.939   5.053   0.729
 5546TIP3   OH216522   6.767   5.605   1.809
 5546TIP3    H116523   6.718   5.626   1.892
 5546TIP3    H216524   6.750   5.686   1.756
 5547TIP3   OH216525   6.650   5.487   1.325
 5547TIP3    H116526   6.555   5.470   1.334
 5547TIP3    H216527   6.667   5.448   1.236
 5548TIP3   OH216528   7.141   5.574   1.052
 5548TIP3    H116529   7.090   5.646   1.010
 5548TIP3    H216530   7.196   5.544   0.978
 5549TIP3   OH216531   7.317   5.853   2.138
 5549TIP3    H116532   7.295   5.780   2.200
 5549TIP3    H216533   7.410   5.868   2.160
 5550TIP3   OH216534   7.299   5.603   1.292
 5550TIP3    H116535   7.239   5.634   1.220
 5550TIP3    H216536   7.332   5.522   1.248
 5551TIP3   OH216537   6.587   5.632   2.019
 5551TIP3    H116538   6.614   5.695   2.087
 5551TIP3    H216539   6.575   5.550   2.071
 5552TIP3   OH216540   6.634   5.101   0.732
 5552TIP3    H116541   6.623   5.108   0.829
 5552TIP3    H216542   6.560   5.159   0.702
 5553TIP3   OH216543   6.182   5.168   1.587
 5553TIP3    H116544   6.258   5.187   1.646
 5553TIP3    H216545   6.220   5.111   1.518
 5554TIP3   OH216546   6.155   5.145   1.123
 5554TIP3    H116547   6.187   5.177   1.036
 5554TIP3    H216548   6.089   5.215   1.142
 5555TIP3   OH216549   7.308   5.850   1.714
 5555TIP3    H116550   7.342   5.778   1.656
 5555TIP3    H216551   7.280   5.797   1.791
 5556TIP3   OH216552   6.979   5.310   1.386
 5556TIP3    H116553   6.898   5.310   1.441
 5556TIP3    H216554   7.049   5.310   1.453
 5557TIP3   OH216555   6.407   5.351   1.391
 5557TIP3    H116556   6.322   5.312   1.368
 5557TIP3    H216557   6.466   5.273   1.378
 5558TIP3   OH216558   6.685   5.363   1.084
 5558TIP3    H116559   6.777   5.380   1.060
 5558TIP3    H216560   6.635   5.386   1.002
 5559TIP3   OH216561   7.471   5.387   1.586
 5559TIP3    H116562   7.438   5.400   1.678
 5559TIP3    H216563   7.404   5.327   1.551
 5560TIP3   OH216564   6.522   5.397   0.871
 5560TIP3    H116565   6.456   5.352   0.815
 5560TIP3    H216566   6.579   5.436   0.801
 5561TIP3   OH216567   7.640   7.074   1.806
 5561TIP3    H116568   7.637   7.099   1.712
 5561TIP3    H216569   7.714   7.129   1.839
 5562TIP3   OH216570   6.599   6.185   2.228
 5562TIP3    H116571   6.678   6.216   2.276
 5562TIP3    H216572   6.534   6.186   2.301
 5563TIP3   OH216573   7.061   5.638   1.482
 5563TIP3    H116574   7.136   5.602   1.432
 5563TIP3    H216575   7.072   5.597   1.570
 5564TIP3   OH216576   6.580   5.132   1.363
 5564TIP3    H116577   6.548   5.052   1.409
 5564TIP3    H216578   6.631   5.094   1.290
 5565TIP3   OH216579   7.038   5.536   1.774
 5565TIP3    H116580   6.949   5.574   1.787
 5565TIP3    H216581   7.096   5.597   1.824
 5566TIP3   OH216582   6.769   5.922   0.873
 5566TIP3    H116583   6.696   5.857   0.862
 5566TIP3    H216584   6.751   5.956   0.964
 5567TIP3   OH216585   7.676   6.163   1.497
 5567TIP3    H116586   7.700   6.213   1.416
 5567TIP3    H216587   7.591   6.122   1.472
 5568TIP3   OH216588   7.233   5.235   0.739
 5568TIP3    H116589   7.135   5.222   0.742
 5568TIP3    H216590   7.242   5.332   0.751
 5569TIP3   OH216591   7.174   6.245   1.865
 5569TIP3    H116592   7.199   6.225   1.956
 5569TIP3    H216593   7.136   6.334   1.872
 5570TIP3   OH216594   7.302   5.488   0.835
 5570TIP3    H116595   7.398   5.494   0.854
 5570TIP3    H216596   7.286   5.566   0.778
 5571TIP3   OH216597   6.456   5.933   1.544
 5571TIP3    H116598   6.500   5.914   1.458
 5571TIP3    H216599   6.514   5.886   1.606
 5572TIP3   OH216600   6.924   6.079   0.715
 5572TIP3    H116601   6.873   6.164   0.716
 5572TIP3    H216602   6.867   6.023   0.772
 5573TIP3   OH216603   6.349   5.869   2.157
 5573TIP3    H116604   6.369   5.856   2.252
 5573TIP3    H216605   6.279   5.802   2.142
 5574TIP3   OH216606   7.074   5.984   2.177
 5574TIP3    H116607   7.015   5.924   2.128
 5574TIP3    H216608   7.162   5.950   2.149
 5575TIP3   OH216609   7.335   6.504   1.761
 5575TIP3    H116610   7.239   6.503   1.773
 5575TIP3    H216611   7.363   6.556   1.839
 5576TIP3   OH216612   7.705   5.593   0.712
 5576TIP3    H116613   7.738   5.524   0.652
 5576TIP3    H216614   7.706   5.671   0.655
 5577TIP3   OH216615   7.964   6.436   1.750
 5577TIP3    H116616   7.866   6.430   1.742
 5577TIP3    H216617   7.989   6.405   1.660
 5578TIP3   OH216618   7.441   6.025   1.417
 5578TIP3    H116619   7.348   6.001   1.429
 5578TIP3    H216620   7.475   5.946   1.371
 5579TIP3   OH216621   6.568   6.253   1.169
 5579TIP3    H116622   6.569   6.334   1.115
 5579TIP3    H216623   6.474   6.239   1.179
 5580TIP3   OH216624   6.159   5.556   0.932
 5580TIP3    H116625   6.191   5.646   0.910
 5580TIP3    H216626   6.079   5.548   0.878
 5581TIP3   OH216627   6.705   6.018   1.116
 5581TIP3    H116628   6.671   6.108   1.132
 5581TIP3    H216629   6.668   5.969   1.192
 5582TIP3   OH216630   6.838   6.596   1.638
 5582TIP3    H116631   6.878   6.670   1.588
 5582TIP3    H216632   6.914   6.562   1.686
 5583TIP3   OH216633   6.488   6.491   1.022
 5583TIP3    H116634   6.402   6.500   1.067
 5583TIP3    H216635   6.519   6.584   1.025
 5584TIP3   OH216636   7.226   6.231   1.597
 5584TIP3    H116637   7.216   6.229   1.695
 5584TIP3    H216638   7.306   6.178   1.584
 5585TIP3   OH216639   7.134   6.184   0.539
 5585TIP3    H116640   7.185   6.157   0.618
 5585TIP3    H216641   7.051   6.137   0.552
 5586TIP3   OH216642   7.475   6.764   1.647
 5586TIP3    H116643   7.395   6.708   1.640
 5586TIP3    H216644   7.459   6.829   1.575
 5587TIP3   OH216645   6.560   5.375   2.165
 5587TIP3    H116646   6.464   5.379   2.179
 5587TIP3    H216647   6.588   5.316   2.237
 5588TIP3   OH216648   7.338   6.074   0.725
 5588TIP3    H116649   7.340   5.997   0.785
 5588TIP3    H216650   7.431   6.075   0.695
 5589TIP3   OH216651   6.277   6.458   1.796
 5589TIP3    H116652   6.330   6.386   1.833
 5589TIP3    H216653   6.302   6.532   1.854
 5590TIP3   OH216654   6.523   6.070   0.484
 5590TIP3    H116655   6.558   5.980   0.470
 5590TIP3    H216656   6.528   6.077   0.582
 5591TIP3   OH216657   6.513   6.108   0.756
 5591TIP3    H116658   6.586   6.079   0.812
 5591TIP3    H216659   6.519   6.206   0.764
 5592TIP3   OH216660   6.258   5.824   0.958
 5592TIP3    H116661   6.187   5.864   1.012
 5592TIP3    H216662   6.267   5.893   0.888
 5593TIP3   OH216663   7.397   5.438   1.845
 5593TIP3    H116664   7.476   5.478   1.886
 5593TIP3    H216665   7.383   5.358   1.900
 5594TIP3   OH216666   7.279   5.188   1.013
 5594TIP3    H116667   7.263   5.212   0.920
 5594TIP3    H216668   7.316   5.272   1.049
 5595TIP3   OH216669   6.776   6.301   0.695
 5595TIP3    H116670   6.692   6.339   0.728
 5595TIP3    H216671   6.794   6.355   0.617
 5596TIP3   OH216672   6.967   5.369   1.113
 5596TIP3    H116673   7.030   5.441   1.095
 5596TIP3    H216674   6.972   5.362   1.211
 5597TIP3   OH216675   7.236   5.688   1.922
 5597TIP3    H116676   7.256   5.743   2.000
 5597TIP3    H216677   7.290   5.610   1.936
 5598TIP3   OH216678   7.111   5.096   1.216
 5598TIP3    H116679   7.104   5.172   1.276
 5598TIP3    H216680   7.171   5.132   1.147
 5599TIP3   OH216681   6.523   6.378   0.772
 5599TIP3    H116682   6.498   6.448   0.708
 5599TIP3    H216683   6.507   6.423   0.858
 5600TIP3   OH216684   6.621   5.097   1.009
 5600TIP3    H116685   6.619   5.189   1.042
 5600TIP3    H216686   6.717   5.080   1.016
 5601TIP3   OH216687   7.875   5.589   1.903
 5601TIP3    H116688   7.777   5.587   1.910
 5601TIP3    H216689   7.888   5.550   1.816
 5602TIP3   OH216690   7.526   5.784   1.291
 5602TIP3    H116691   7.451   5.724   1.303
 5602TIP3    H216692   7.598   5.737   1.338
 5603TIP3   OH216693   6.237   6.026   0.763
 5603TIP3    H116694   6.309   6.090   0.773
 5603TIP3    H216695   6.280   5.963   0.701
 5604TIP3   OH216696   6.170   5.285   0.887
 5604TIP3    H116697   6.188   5.380   0.903
 5604TIP3    H216698   6.107   5.293   0.814
 5605TIP3   OH216699   7.494   6.738   1.240
 5605TIP3    H116700   7.449   6.785   1.167
 5605TIP3    H216701   7.587   6.760   1.219
 5606TIP3   OH216702   6.572   5.007   1.767
 5606TIP3    H116703   6.540   4.972   1.681
 5606TIP3    H216704   6.562   4.929   1.825
 5607TIP3   OH216705   6.106   6.218   1.146
 5607TIP3    H116706   6.039   6.255   1.205
 5607TIP3    H216707   6.083   6.264   1.062
 5608TIP3   OH216708   6.267   6.768   2.220
 5608TIP3    H116709   6.353   6.768   2.267
 5608TIP3    H216710   6.247   6.673   2.218
 5609TIP3   OH216711   6.747   6.731   2.265
 5609TIP3    H116712   6.842   6.716   2.271
 5609TIP3    H216713   6.723   6.673   2.191
 5610TIP3   OH216714   7.389   6.638   1.996
 5610TIP3    H116715   7.379   6.568   2.065
 5610TIP3    H216716   7.465   6.689   2.028
 5611TIP3   OH216717   6.397   6.174   2.420
 5611TIP3    H116718   6.414   6.078   2.424
 5611TIP3    H216719   6.310   6.177   2.375
 5612TIP3   OH216720   6.372   5.825   0.642
 5612TIP3    H116721   6.425   5.790   0.716
 5612TIP3    H216722   6.440   5.822   0.571
 5613TIP3   OH216723   7.005   6.259   2.193
 5613TIP3    H116724   6.964   6.277   2.106
 5613TIP3    H216725   7.036   6.167   2.184
 5614TIP3   OH216726   6.893   6.022   0.449
 5614TIP3    H116727   6.892   6.039   0.545
 5614TIP3    H216728   6.929   5.932   0.446
 5615TIP3   OH216729   7.498   6.267   1.799
 5615TIP3    H116730   7.572   6.312   1.755
 5615TIP3    H216731   7.427   6.333   1.785
 5616TIP3   OH216732   6.517   5.908   2.401
 5616TIP3    H116733   6.592   5.852   2.379
 5616TIP3    H216734   6.542   5.941   2.489
 5617TIP3   OH216735   6.576   5.727   0.837
 5617TIP3    H116736   6.553   5.681   0.919
 5617TIP3    H216737   6.621   5.656   0.786
 5618TIP3   OH216738   6.851   5.792   2.061
 5618TIP3    H116739   6.774   5.852   2.064
 5618TIP3    H216740   6.901   5.826   1.984
 5619TIP3   OH216741   6.694   5.521   0.701
 5619TIP3    H116742   6.665   5.510   0.607
 5619TIP3    H216743   6.791   5.528   0.689
 5620TIP3   OH216744   7.368   6.194   2.197
 5620TIP3    H116745   7.448   6.170   2.150
 5620TIP3    H216746   7.365   6.128   2.268
 5621TIP3   OH216747   6.975   5.581   2.189
 5621TIP3    H116748   6.975   5.501   2.133
 5621TIP3    H216749   6.931   5.647   2.131
 5622TIP3   OH216750   6.977   5.367   1.996
 5622TIP3    H116751   7.005   5.409   1.913
 5622TIP3    H216752   6.884   5.344   1.978
 5623TIP3   OH216753   7.004   5.902   1.868
 5623TIP3    H116754   7.088   5.913   1.823
 5623TIP3    H216755   6.948   5.969   1.824
 5624TIP3   OH216756   7.586   5.870   2.250
 5624TIP3    H116757   7.635   5.787   2.263
 5624TIP3    H216758   7.655   5.928   2.216
 5625TIP3   OH216759   7.628   6.123   1.986
 5625TIP3    H116760   7.570   6.176   1.927
 5625TIP3    H216761   7.715   6.143   1.946
 5626TIP3   OH216762   6.852   5.693   2.419
 5626TIP3    H116763   6.784   5.624   2.434
 5626TIP3    H216764   6.887   5.667   2.332
 5627TIP3   OH216765   7.110   5.130   2.062
 5627TIP3    H116766   7.060   5.212   2.041
 5627TIP3    H216767   7.040   5.062   2.052
 5628TIP3   OH216768   7.236   5.636   2.280
 5628TIP3    H116769   7.225   5.623   2.376
 5628TIP3    H216770   7.146   5.611   2.250
 5629TIP3   OH216771   7.474   5.583   2.134
 5629TIP3    H116772   7.399   5.586   2.196
 5629TIP3    H216773   7.548   5.554   2.191
 5630TIP3   OH216774   7.704   5.525   2.284
 5630TIP3    H116775   7.716   5.429   2.303
 5630TIP3    H216776   7.699   5.564   2.374
 5631TIP3   OH216777   6.692   5.473   2.472
 5631TIP3    H116778   6.698   5.381   2.438
 5631TIP3    H216779   6.729   5.461   2.562
 5632TIP3   OH216780   7.204   5.141   2.320
 5632TIP3    H116781   7.271   5.070   2.315
 5632TIP3    H216782   7.164   5.134   2.231
 5633TIP3   OH216783   7.270   5.356   2.479
 5633TIP3    H116784   7.248   5.285   2.415
 5633TIP3    H216785   7.192   5.414   2.473
 5634TIP3   OH216786   6.492   6.569   0.578
 5634TIP3    H116787   6.541   6.645   0.544
 5634TIP3    H216788   6.404   6.586   0.540
 5635TIP3   OH216789   5.971   5.963   0.804
 5635TIP3    H116790   6.063   5.990   0.783
 5635TIP3    H216791   5.965   5.876   0.759
 5636TIP3   OH216792   5.886   6.579   1.210
 5636TIP3    H116793   5.819   6.518   1.172
 5636TIP3    H216794   5.929   6.520   1.275
 5637TIP3   OH216795   6.024   6.428   1.395
 5637TIP3    H116796   6.008   6.357   1.460
 5637TIP3    H216797   6.073   6.491   1.449
 5638TIP3   OH216798   7.742   6.841   1.198
 5638TIP3    H116799   7.772   6.864   1.287
 5638TIP3    H216800   7.815   6.869   1.142
 5639TIP3   OH216801   7.780   6.850   1.478
 5639TIP3    H116802   7.733   6.764   1.474
 5639TIP3    H216803   7.853   6.825   1.536
 5640TIP3   OH216804   7.823   6.526   2.051
 5640TIP3    H116805   7.750   6.535   2.116
 5640TIP3    H216806   7.865   6.615   2.056
 5641TIP3   OH216807   7.611   6.053   0.684
 5641TIP3    H116808   7.679   6.110   0.644
 5641TIP3    H216809   7.666   5.997   0.742
 5642TIP3   OH216810   7.769   5.909   0.869
 5642TIP3    H116811   7.702   5.868   0.928
 5642TIP3    H216812   7.833   5.947   0.932
 5643TIP3   OH216813   7.823   6.300   1.307
 5643TIP3    H116814   7.875   6.234   1.258
 5643TIP3    H216815   7.815   6.372   1.243
 5644TIP3   OH216816   7.653   6.601   1.502
 5644TIP3    H116817   7.581   6.642   1.554
 5644TIP3    H216818   7.603   6.553   1.432
 5645TIP3   OH216819   7.584   5.767   1.022
 5645TIP3    H116820   7.590   5.670   1.015
 5645TIP3    H216821   7.569   5.780   1.118
 5646TIP3   OH216822   6.210   5.833   1.764
 5646TIP3    H116823   6.215   5.818   1.669
 5646TIP3    H216824   6.306   5.835   1.787
 5647TIP3   OH216825   7.871   6.189   1.878
 5647TIP3    H116826   7.943   6.123   1.869
 5647TIP3    H216827   7.898   6.258   1.815
 5648TIP3   OH216828   8.056   5.994   1.895
 5648TIP3    H116829   7.981   5.944   1.934
 5648TIP3    H216830   8.129   5.930   1.909
 5649TIP3   OH216831   7.511   5.234   0.490
 5649TIP3    H116832   7.587   5.197   0.540
 5649TIP3    H216833   7.437   5.177   0.518
 5650TIP3   OH216834   7.572   5.482   0.924
 5650TIP3    H116835   7.621   5.397   0.931
 5650TIP3    H216836   7.622   5.526   0.851
 5651TIP3   OH216837   7.739   5.653   1.411
 5651TIP3    H116838   7.825   5.679   1.370
 5651TIP3    H216839   7.753   5.691   1.500
 5652TIP3   OH216840   7.808   5.798   1.643
 5652TIP3    H116841   7.730   5.832   1.691
 5652TIP3    H216842   7.841   5.878   1.598
 5653TIP3   OH216843   6.426   5.524   2.444
 5653TIP3    H116844   6.523   5.517   2.445
 5653TIP3    H216845   6.401   5.439   2.484
 5654TIP3   OH216846   8.259   5.389   2.199
 5654TIP3    H116847   8.319   5.324   2.158
 5654TIP3    H216848   8.231   5.443   2.123
 5655TIP3   OH216849   7.691   5.231   0.949
 5655TIP3    H116850   7.736   5.217   1.035
 5655TIP3    H216851   7.627   5.157   0.951
 5656TIP3   OH216852   6.386   5.213   1.768
 5656TIP3    H116853   6.449   5.139   1.783
 5656TIP3    H216854   6.448   5.289   1.767
 5657TIP3   OH216855   6.191   5.489   1.846
 5657TIP3    H116856   6.241   5.486   1.763
 5657TIP3    H216857   6.217   5.575   1.882
 5658TIP3   OH216858   8.131   5.529   2.004
 5658TIP3    H116859   8.045   5.569   2.026
 5658TIP3    H216860   8.101   5.457   1.946
 5659TIP3   OH216861   7.747   5.159   0.612
 5659TIP3    H116862   7.823   5.125   0.560
 5659TIP3    H216863   7.769   5.254   0.615
 5660TIP3   OH216864   6.173   4.999   1.352
 5660TIP3    H116865   6.079   4.988   1.375
 5660TIP3    H216866   6.168   5.054   1.272
 5661TIP3   OH216867   7.333   6.697   0.861
 5661TIP3    H116868   7.377   6.668   0.781
 5661TIP3    H216869   7.391   6.768   0.893
 5662TIP3   OH216870   6.393   5.073   2.162
 5662TIP3    H116871   6.343   5.067   2.245
 5662TIP3    H216872   6.326   5.112   2.102
 5663TIP3   OH216873   6.433   6.499   2.238
 5663TIP3    H116874   6.340   6.473   2.222
 5663TIP3    H216875   6.442   6.484   2.333
 5664TIP3   OH216876   6.611   6.532   1.786
 5664TIP3    H116877   6.563   6.608   1.747
 5664TIP3    H216878   6.697   6.547   1.741
 5665TIP3   OH216879   7.056   6.777   1.923
 5665TIP3    H116880   7.097   6.779   2.012
 5665TIP3    H216881   7.121   6.828   1.872
 5666TIP3   OH216882   7.235   6.928   1.783
 5666TIP3    H116883   7.308   6.878   1.743
 5666TIP3    H216884   7.285   6.986   1.845
 5667TIP3   OH216885   8.030   5.291   1.883
 5667TIP3    H116886   7.939   5.285   1.850
 5667TIP3    H216887   8.061   5.199   1.872
 5668TIP3   OH216888   6.287   6.788   1.811
 5668TIP3    H116889   6.198   6.822   1.787
 5668TIP3    H216890   6.299   6.831   1.897
 5669TIP3   OH216891   6.523   6.767   1.667
 5669TIP3    H116892   6.436   6.780   1.712
 5669TIP3    H216893   6.504   6.802   1.578
 5670TIP3   OH216894   6.950   6.797   1.464
 5670TIP3    H116895   6.879   6.818   1.401
 5670TIP3    H216896   6.962   6.883   1.509
 5671TIP3   OH216897   7.218   6.737   1.516
 5671TIP3    H116898   7.124   6.753   1.498
 5671TIP3    H216899   7.260   6.815   1.477
 5672TIP3   OH216900   7.429   6.930   1.433
 5672TIP3    H116901   7.412   7.014   1.386
 5672TIP3    H216902   7.452   6.870   1.359
 5673TIP3   OH216903   6.199   6.584   1.554
 5673TIP3    H116904   6.225   6.558   1.645
 5673TIP3    H216905   6.271   6.540   1.504
 5674TIP3   OH216906   6.393   6.455   1.412
 5674TIP3    H116907   6.409   6.371   1.461
 5674TIP3    H216908   6.483   6.492   1.407
 5675TIP3   OH216909   6.659   6.550   1.415
 5675TIP3    H116910   6.691   6.459   1.404
 5675TIP3    H216911   6.702   6.573   1.499
 5676TIP3   OH216912   7.233   5.206   1.500
 5676TIP3    H116913   7.191   5.136   1.554
 5676TIP3    H216914   7.307   5.159   1.459
 5677TIP3   OH216915   7.757   5.083   1.405
 5677TIP3    H116916   7.794   5.137   1.332
 5677TIP3    H216917   7.662   5.106   1.402
 5678TIP3   OH216918   7.851   5.188   1.171
 5678TIP3    H116919   7.925   5.135   1.133
 5678TIP3    H216920   7.886   5.279   1.157
 5679TIP3   OH216921   6.483   4.915   1.517
 5679TIP3    H116922   6.391   4.881   1.520
 5679TIP3    H216923   6.533   4.831   1.514
 5680TIP3   OH216924   6.277   4.784   1.167
 5680TIP3    H116925   6.300   4.841   1.092
 5680TIP3    H216926   6.242   4.847   1.232
 5681TIP3   OH216927   6.927   4.947   1.399
 5681TIP3    H116928   6.984   4.998   1.340
 5681TIP3    H216929   6.950   4.985   1.486
 5682TIP3   OH216930   7.472   5.095   1.384
 5682TIP3    H116931   7.471   5.059   1.295
 5682TIP3    H216932   7.459   5.013   1.439
 5683TIP3   OH216933   7.500   5.018   0.949
 5683TIP3    H116934   7.415   5.065   0.963
 5683TIP3    H216935   7.483   4.934   0.996
 5684TIP3   OH216936   5.987   6.359   0.948
 5684TIP3    H116937   5.902   6.328   0.913
 5684TIP3    H216938   5.981   6.452   0.921
 5685TIP3   OH216939   6.388   4.941   0.933
 5685TIP3    H116940   6.449   4.887   0.882
 5685TIP3    H216941   6.449   5.005   0.974
 5686TIP3   OH216942   6.899   5.118   1.029
 5686TIP3    H116943   6.960   5.074   1.091
 5686TIP3    H216944   6.919   5.212   1.052
 5687TIP3   OH216945   6.691   5.197   2.409
 5687TIP3    H116946   6.656   5.126   2.466
 5687TIP3    H216947   6.785   5.196   2.437
 5688TIP3   OH216948   6.940   5.193   2.529
 5688TIP3    H116949   7.025   5.167   2.490
 5688TIP3    H216950   6.927   5.123   2.596
 5689TIP3   OH216951   6.058   6.378   0.586
 5689TIP3    H116952   6.034   6.422   0.670
 5689TIP3    H216953   6.148   6.347   0.603
 5690TIP3   OH216954   7.765   5.254   2.316
 5690TIP3    H116955   7.784   5.223   2.408
 5690TIP3    H216956   7.854   5.249   2.275
 5691TIP3   OH216957   7.704   6.806   1.808
 5691TIP3    H116958   7.625   6.774   1.760
 5691TIP3    H216959   7.683   6.902   1.813
 5692TIP3   OH216960   8.932   6.168   0.968
 5692TIP3    H116961   8.993   6.174   1.044
 5692TIP3    H216962   8.914   6.072   0.967
 5693TIP3   OH216963   8.267   6.076   1.325
 5693TIP3    H116964   8.299   6.008   1.387
 5693TIP3    H216965   8.350   6.120   1.302
 5694TIP3   OH216966   8.234   6.478   1.058
 5694TIP3    H116967   8.227   6.380   1.053
 5694TIP3    H216968   8.330   6.488   1.065
 5695TIP3   OH216969   7.934   5.678   0.835
 5695TIP3    H116970   7.907   5.771   0.845
 5695TIP3    H216971   7.849   5.640   0.809
 5696TIP3   OH216972   8.013   5.976   0.998
 5696TIP3    H116973   8.058   5.897   1.037
 5696TIP3    H216974   8.080   6.007   0.936
 5697TIP3   OH216975   8.758   6.403   1.004
 5697TIP3    H116976   8.795   6.316   0.980
 5697TIP3    H216977   8.843   6.448   1.027
 5698TIP3   OH216978   9.190   5.930   1.041
 5698TIP3    H116979   9.195   5.834   1.058
 5698TIP3    H216980   9.167   5.931   0.948
 5699TIP3   OH216981   8.503   5.557   1.016
 5699TIP3    H116982   8.483   5.638   0.962
 5699TIP3    H216983   8.459   5.489   0.961
 5700TIP3   OH216984   8.150   5.763   1.103
 5700TIP3    H116985   8.234   5.749   1.151
 5700TIP3    H216986   8.166   5.709   1.023
 5701TIP3   OH216987   8.611   5.975   0.924
 5701TIP3    H116988   8.705   5.951   0.925
 5701TIP3    H216989   8.573   5.897   0.879
 5702TIP3   OH216990   8.515   5.551   1.437
 5702TIP3    H116991   8.455   5.588   1.370
 5702TIP3    H216992   8.463   5.568   1.518
 5703TIP3   OH216993   8.624   6.326   1.234
 5703TIP3    H116994   8.561   6.391   1.271
 5703TIP3    H216995   8.668   6.377   1.163
 5704TIP3   OH216996   8.380   5.668   1.228
 5704TIP3    H116997   8.445   5.740   1.247
 5704TIP3    H216998   8.427   5.623   1.153
 5705TIP3   OH216999   8.448   6.519   1.327
 5705TIP3    H117000   8.422   6.607   1.293
 5705TIP3    H217001   8.371   6.501   1.385
 5706TIP3   OH217002   8.869   5.271   1.152
 5706TIP3    H117003   8.856   5.175   1.159
 5706TIP3    H217004   8.787   5.305   1.194
 5707TIP3   OH217005   8.344   6.056   0.828
 5707TIP3    H117006   8.337   6.120   0.754
 5707TIP3    H217007   8.439   6.037   0.832
 5708TIP3   OH217008   8.522   6.527   0.926
 5708TIP3    H117009   8.479   6.448   0.892
 5708TIP3    H217010   8.608   6.490   0.957
 5709TIP3   OH217011   8.510   6.084   1.158
 5709TIP3    H117012   8.545   6.054   1.071
 5709TIP3    H217013   8.559   6.168   1.173
 5710TIP3   OH217014   8.653   6.638   1.475
 5710TIP3    H117015   8.593   6.701   1.520
 5710TIP3    H217016   8.588   6.585   1.425
 5711TIP3   OH217017   8.411   6.194   1.577
 5711TIP3    H117018   8.414   6.282   1.621
 5711TIP3    H217019   8.316   6.175   1.580
 5712TIP3   OH217020   8.448   6.808   1.559
 5712TIP3    H117021   8.413   6.808   1.468
 5712TIP3    H217022   8.368   6.786   1.612
 5713TIP3   OH217023   8.029   6.339   1.506
 5713TIP3    H117024   7.963   6.316   1.437
 5713TIP3    H217025   8.066   6.251   1.530
 5714TIP3   OH217026   7.883   6.530   1.140
 5714TIP3    H117027   7.978   6.520   1.123
 5714TIP3    H217028   7.882   6.607   1.200
 5715TIP3   OH217029   8.848   6.767   1.330
 5715TIP3    H117030   8.850   6.859   1.364
 5715TIP3    H217031   8.779   6.727   1.387
 5716TIP3   OH217032   8.234   6.521   1.496
 5716TIP3    H117033   8.283   6.502   1.578
 5716TIP3    H217034   8.159   6.458   1.502
 5717TIP3   OH217035   8.630   5.341   1.281
 5717TIP3    H117036   8.541   5.313   1.253
 5717TIP3    H217037   8.608   5.427   1.322
 5718TIP3   OH217038   9.155   5.463   1.478
 5718TIP3    H117039   9.205   5.434   1.554
 5718TIP3    H217040   9.063   5.442   1.507
 5719TIP3   OH217041   8.566   5.859   1.300
 5719TIP3    H117042   8.515   5.880   1.381
 5719TIP3    H217043   8.549   5.940   1.246
 5720TIP3   OH217044   8.426   5.756   0.859
 5720TIP3    H117045   8.342   5.712   0.837
 5720TIP3    H217046   8.470   5.770   0.772
 5721TIP3   OH217047   9.116   6.112   1.627
 5721TIP3    H117048   9.091   6.039   1.688
 5721TIP3    H217049   9.211   6.120   1.645
 5722TIP3   OH217050   8.383   5.889   1.506
 5722TIP3    H117051   8.411   5.953   1.574
 5722TIP3    H217052   8.373   5.807   1.558
 5723TIP3   OH217053   7.978   5.409   1.085
 5723TIP3    H117054   8.049   5.444   1.143
 5723TIP3    H217055   8.027   5.376   1.009
 5724TIP3   OH217056   8.100   5.465   0.588
 5724TIP3    H117057   8.131   5.558   0.579
 5724TIP3    H217058   8.004   5.474   0.591
 5725TIP3   OH217059   9.075   6.115   1.201
 5725TIP3    H117060   9.131   6.057   1.145
 5725TIP3    H217061   9.064   6.055   1.278
 5726TIP3   OH217062   8.766   5.490   0.942
 5726TIP3    H117063   8.680   5.529   0.967
 5726TIP3    H217064   8.820   5.567   0.922
 5727TIP3   OH217065   8.193   5.608   0.864
 5727TIP3    H117066   8.094   5.613   0.857
 5727TIP3    H217067   8.211   5.513   0.852
 5728TIP3   OH217068   9.169   5.661   1.075
 5728TIP3    H117069   9.176   5.664   1.172
 5728TIP3    H217070   9.130   5.574   1.057
 5729TIP3   OH217071   8.394   6.443   1.715
 5729TIP3    H117072   8.474   6.473   1.763
 5729TIP3    H217073   8.330   6.441   1.788
 5730TIP3   OH217074   8.876   5.890   0.967
 5730TIP3    H117075   8.915   5.822   0.911
 5730TIP3    H217076   8.884   5.850   1.056
 5731TIP3   OH217077   8.384   5.379   0.844
 5731TIP3    H117078   8.351   5.300   0.892
 5731TIP3    H217079   8.465   5.346   0.803
 5732TIP3   OH217080   8.836   5.793   1.262
 5732TIP3    H117081   8.746   5.828   1.273
 5732TIP3    H217082   8.891   5.857   1.311
 5733TIP3   OH217083   8.970   6.504   1.353
 5733TIP3    H117084   8.985   6.485   1.446
 5733TIP3    H217085   8.934   6.595   1.355
 5734TIP3   OH217086   8.263   6.204   1.039
 5734TIP3    H117087   8.284   6.159   0.954
 5734TIP3    H217088   8.305   6.142   1.100
 5735TIP3   OH217089   8.143   6.127   1.644
 5735TIP3    H117090   8.164   6.113   1.739
 5735TIP3    H217091   8.075   6.059   1.628
 5736TIP3   OH217092   8.869   6.240   1.663
 5736TIP3    H117093   8.808   6.182   1.614
 5736TIP3    H217094   8.956   6.205   1.633
 5737TIP3   OH217095   9.136   6.773   1.245
 5737TIP3    H117096   9.041   6.760   1.246
 5737TIP3    H217097   9.151   6.819   1.329
 5738TIP3   OH217098   8.633   6.848   1.132
 5738TIP3    H117099   8.669   6.932   1.100
 5738TIP3    H217100   8.710   6.809   1.176
 5739TIP3   OH217101   9.007   6.472   1.081
 5739TIP3    H117102   9.007   6.483   1.178
 5739TIP3    H217103   9.100   6.456   1.063
 5740TIP3   OH217104   8.356   5.632   1.653
 5740TIP3    H117105   8.259   5.635   1.666
 5740TIP3    H217106   8.384   5.572   1.724
 5741TIP3   OH217107   8.068   6.719   1.288
 5741TIP3    H117108   8.121   6.640   1.306
 5741TIP3    H217109   8.104   6.780   1.353
 5742TIP3   OH217110   9.216   5.701   1.358
 5742TIP3    H117111   9.252   5.744   1.438
 5742TIP3    H217112   9.185   5.616   1.396
 5743TIP3   OH217113   9.031   5.943   1.411
 5743TIP3    H117114   9.050   6.000   1.487
 5743TIP3    H217115   9.094   5.870   1.424
 5744TIP3   OH217116   8.364   5.265   1.255
 5744TIP3    H117117   8.336   5.230   1.167
 5744TIP3    H217118   8.356   5.185   1.312
 5745TIP3   OH217119   8.063   7.024   1.705
 5745TIP3    H117120   8.149   7.020   1.751
 5745TIP3    H217121   8.038   6.930   1.703
 5746TIP3   OH217122   8.544   6.989   1.751
 5746TIP3    H117123   8.638   6.969   1.757
 5746TIP3    H217124   8.518   6.931   1.677
 5747TIP3   OH217125   9.183   6.894   1.491
 5747TIP3    H117126   9.160   6.820   1.553
 5747TIP3    H217127   9.266   6.924   1.528
 5748TIP3   OH217128   8.193   6.431   1.906
 5748TIP3    H117129   8.210   6.335   1.911
 5748TIP3    H217130   8.106   6.433   1.862
 5749TIP3   OH217131   8.801   6.515   1.679
 5749TIP3    H117132   8.759   6.533   1.593
 5749TIP3    H217133   8.830   6.422   1.671
 5750TIP3   OH217134   8.312   6.166   1.888
 5750TIP3    H117135   8.387   6.110   1.865
 5750TIP3    H217136   8.339   6.198   1.977
 5751TIP3   OH217137   8.649   6.051   1.550
 5751TIP3    H117138   8.570   6.109   1.551
 5751TIP3    H217139   8.698   6.084   1.471
 5752TIP3   OH217140   9.163   6.454   1.692
 5752TIP3    H117141   9.228   6.419   1.631
 5752TIP3    H217142   9.156   6.383   1.759
 5753TIP3   OH217143   8.772   5.839   1.675
 5753TIP3    H117144   8.771   5.759   1.619
 5753TIP3    H217145   8.728   5.905   1.617
 5754TIP3   OH217146   8.773   5.625   1.483
 5754TIP3    H117147   8.800   5.667   1.399
 5754TIP3    H217148   8.680   5.601   1.465
 5755TIP3   OH217149   8.805   6.160   1.356
 5755TIP3    H117150   8.887   6.165   1.305
 5755TIP3    H217151   8.749   6.226   1.311
 5756TIP3   OH217152   9.392   6.131   1.733
 5756TIP3    H117153   9.421   6.045   1.766
 5756TIP3    H217154   9.476   6.177   1.723
 5757TIP3   OH217155   8.649   5.949   1.907
 5757TIP3    H117156   8.581   5.881   1.921
 5757TIP3    H217157   8.684   5.924   1.819
 5758TIP3   OH217158   8.903   5.388   1.547
 5758TIP3    H117159   8.851   5.469   1.526
 5758TIP3    H217160   8.835   5.318   1.535
 5759TIP3   OH217161   9.033   5.893   1.764
 5759TIP3    H117162   9.022   5.878   1.859
 5759TIP3    H217163   8.943   5.868   1.734
 5760TIP3   OH217164   9.262   5.815   1.612
 5760TIP3    H117165   9.186   5.834   1.671
 5760TIP3    H217166   9.333   5.797   1.677
 5761TIP3   OH217167   9.475   5.761   1.793
 5761TIP3    H117168   9.528   5.692   1.834
 5761TIP3    H217169   9.473   5.828   1.864
 5762TIP3   OH217170   8.488   5.730   1.959
 5762TIP3    H117171   8.494   5.639   1.925
 5762TIP3    H217172   8.525   5.717   2.049
 5763TIP3   OH217173   9.002   5.400   1.803
 5763TIP3    H117174   9.068   5.328   1.799
 5763TIP3    H217175   8.959   5.391   1.716
 5764TIP3   OH217176   9.069   5.615   1.963
 5764TIP3    H117177   9.045   5.543   1.901
 5764TIP3    H217178   8.989   5.673   1.959
 5765TIP3   OH217179   7.807   6.692   0.906
 5765TIP3    H117180   7.798   6.616   0.966
 5765TIP3    H217181   7.858   6.753   0.962
 5766TIP3   OH217182   8.003   6.093   1.254
 5766TIP3    H117183   8.004   6.063   1.161
 5766TIP3    H217184   8.100   6.096   1.273
 5767TIP3   OH217185   8.221   5.781   1.929
 5767TIP3    H117186   8.319   5.774   1.931
 5767TIP3    H217187   8.197   5.695   1.970
 5768TIP3   OH217188   8.181   5.473   1.260
 5768TIP3    H117189   8.244   5.399   1.270
 5768TIP3    H217190   8.242   5.549   1.256
 5769TIP3   OH217191   7.986   5.746   1.333
 5769TIP3    H117192   8.035   5.740   1.248
 5769TIP3    H217193   8.014   5.832   1.366
 5770TIP3   OH217194   7.963   5.249   0.822
 5770TIP3    H117195   7.874   5.248   0.859
 5770TIP3    H217196   7.960   5.322   0.758
 5771TIP3   OH217197   8.189   5.330   1.649
 5771TIP3    H117198   8.138   5.325   1.732
 5771TIP3    H217199   8.123   5.368   1.588
 5772TIP3   OH217200   8.228   6.761   1.727
 5772TIP3    H117201   8.137   6.731   1.708
 5772TIP3    H217202   8.238   6.736   1.820
 5773TIP3   OH217203   8.403   6.790   1.275
 5773TIP3    H117204   8.355   6.864   1.231
 5773TIP3    H217205   8.490   6.803   1.232
 5774TIP3   OH217206   8.848   7.032   1.415
 5774TIP3    H117207   8.894   7.040   1.502
 5774TIP3    H217208   8.912   7.079   1.356
 5775TIP3   OH217209   9.020   7.172   1.257
 5775TIP3    H117210   9.104   7.150   1.215
 5775TIP3    H217211   9.052   7.228   1.332
 5776TIP3   OH217212   8.084   7.049   1.296
 5776TIP3    H117213   7.996   7.084   1.273
 5776TIP3    H217214   8.087   7.071   1.390
 5777TIP3   OH217215   8.316   7.032   1.150
 5777TIP3    H117216   8.233   7.046   1.200
 5777TIP3    H217217   8.285   7.038   1.059
 5778TIP3   OH217218   7.984   6.855   1.058
 5778TIP3    H117219   8.015   6.827   1.147
 5778TIP3    H217220   8.053   6.810   1.004
 5779TIP3   OH217221   8.177   6.722   0.926
 5779TIP3    H117222   8.194   6.634   0.964
 5779TIP3    H217223   8.268   6.759   0.921
 5780TIP3   OH217224   8.438   6.798   0.928
 5780TIP3    H117225   8.474   6.708   0.919
 5780TIP3    H217226   8.500   6.837   0.991
 5781TIP3   OH217227   9.059   5.420   0.982
 5781TIP3    H117228   8.983   5.388   1.035
 5781TIP3    H217229   9.065   5.348   0.917
 5782TIP3   OH217230   8.280   5.171   1.004
 5782TIP3    H117231   8.188   5.136   1.006
 5782TIP3    H217232   8.330   5.087   1.001
 5783TIP3   OH217233   8.093   5.037   0.688
 5783TIP3    H117234   8.052   5.063   0.604
 5783TIP3    H217235   8.057   5.105   0.749
 5784TIP3   OH217236   8.714   5.206   0.891
 5784TIP3    H117237   8.751   5.268   0.826
 5784TIP3    H217238   8.740   5.252   0.972
 5785TIP3   OH217239   8.487   5.453   1.896
 5785TIP3    H117240   8.453   5.382   1.953
 5785TIP3    H217241   8.582   5.453   1.924
 5786TIP3   OH217242   8.736   5.449   2.016
 5786TIP3    H117243   8.822   5.423   1.979
 5786TIP3    H217244   8.723   5.379   2.083
 5787TIP3   OH217245  -0.063   7.004   2.841
 5787TIP3    H117246  -0.017   6.954   2.909
 5787TIP3    H217247  -0.038   7.094   2.856
 5788TIP3   OH217248   0.437   6.258   3.204
 5788TIP3    H117249   0.467   6.340   3.248
 5788TIP3    H217250   0.460   6.276   3.111
 5789TIP3   OH217251  -0.088   6.435   3.232
 5789TIP3    H117252  -0.056   6.346   3.254
 5789TIP3    H217253  -0.116   6.422   3.141
 5790TIP3   OH217254  -0.135   6.189   2.828
 5790TIP3    H117255  -0.061   6.171   2.891
 5790TIP3    H217256  -0.083   6.221   2.752
 5791TIP3   OH217257   0.515   6.462   3.374
 5791TIP3    H117258   0.431   6.510   3.355
 5791TIP3    H217259   0.533   6.493   3.465
 5792TIP3   OH217260   0.078   6.190   2.998
 5792TIP3    H117261   0.058   6.154   3.086
 5792TIP3    H217262   0.137   6.265   3.020
 5793TIP3   OH217263   0.237   6.151   3.370
 5793TIP3    H117264   0.154   6.197   3.350
 5793TIP3    H217265   0.296   6.185   3.299
 5794TIP3   OH217266   0.180   7.175   3.359
 5794TIP3    H117267   0.148   7.092   3.319
 5794TIP3    H217268   0.156   7.240   3.290
 5795TIP3   OH217269   0.379   6.792   3.193
 5795TIP3    H117270   0.295   6.843   3.202
 5795TIP3    H217271   0.406   6.822   3.104
 5796TIP3   OH217272  -0.204   6.581   2.561
 5796TIP3    H117273  -0.255   6.640   2.620
 5796TIP3    H217274  -0.115   6.589   2.601
 5797TIP3   OH217275   0.061   6.701   3.473
 5797TIP3    H117276   0.054   6.771   3.541
 5797TIP3    H217277  -0.029   6.700   3.437
 5798TIP3   OH217278   0.162   5.741   2.453
 5798TIP3    H117279   0.080   5.764   2.503
 5798TIP3    H217280   0.177   5.825   2.403
 5799TIP3   OH217281   0.416   7.504   3.393
 5799TIP3    H117282   0.417   7.409   3.412
 5799TIP3    H217283   0.322   7.526   3.412
 5800TIP3   OH217284   0.298   6.645   3.662
 5800TIP3    H117285   0.211   6.649   3.620
 5800TIP3    H217286   0.310   6.549   3.673
 5801TIP3   OH217287  -0.161   5.980   3.679
 5801TIP3    H117288  -0.082   5.952   3.731
 5801TIP3    H217289  -0.231   5.936   3.729
 5802TIP3   OH217290   0.084   6.423   3.568
 5802TIP3    H117291   0.052   6.420   3.661
 5802TIP3    H217292   0.033   6.498   3.534
 5803TIP3   OH217293  -0.234   6.395   2.989
 5803TIP3    H117294  -0.313   6.418   2.937
 5803TIP3    H217295  -0.207   6.313   2.942
 5804TIP3   OH217296  -0.064   6.161   3.252
 5804TIP3    H117297  -0.069   6.166   3.351
 5804TIP3    H217298  -0.139   6.103   3.234
 5805TIP3   OH217299   0.155   6.940   3.191
 5805TIP3    H117300   0.176   6.995   3.112
 5805TIP3    H217301   0.057   6.941   3.191
 5806TIP3   OH217302  -0.359   6.034   2.423
 5806TIP3    H117303  -0.431   6.091   2.393
 5806TIP3    H217304  -0.289   6.103   2.432
 5807TIP3   OH217305  -0.216   6.261   2.487
 5807TIP3    H117306  -0.129   6.269   2.530
 5807TIP3    H217307  -0.246   6.352   2.488
 5808TIP3   OH217308   0.201   6.364   2.365
 5808TIP3    H117309   0.136   6.318   2.308
 5808TIP3    H217310   0.196   6.452   2.321
 5809TIP3   OH217311   0.427   7.225   3.442
 5809TIP3    H117312   0.329   7.217   3.435
 5809TIP3    H217313   0.452   7.193   3.352
 5810TIP3   OH217314  -0.109   6.820   3.081
 5810TIP3    H117315  -0.174   6.776   3.136
 5810TIP3    H217316  -0.063   6.743   3.041
 5811TIP3   OH217317  -0.074   6.193   3.518
 5811TIP3    H117318  -0.017   6.265   3.553
 5811TIP3    H217319  -0.076   6.128   3.591
 5812TIP3   OH217320  -0.259   5.964   2.690
 5812TIP3    H117321  -0.294   6.000   2.607
 5812TIP3    H217322  -0.236   6.044   2.740
 5813TIP3   OH217323   0.344   6.368   3.592
 5813TIP3    H117324   0.247   6.378   3.587
 5813TIP3    H217325   0.363   6.337   3.502
 5814TIP3   OH217326  -0.017   6.578   2.979
 5814TIP3    H117327  -0.090   6.514   2.980
 5814TIP3    H217328   0.054   6.530   3.027
 5815TIP3   OH217329   0.022   7.480   2.929
 5815TIP3    H117330  -0.060   7.496   2.881
 5815TIP3    H217331   0.068   7.565   2.917
 5816TIP3   OH217332   0.067   6.656   3.910
 5816TIP3    H117333   0.090   6.583   3.968
 5816TIP3    H217334   0.127   6.725   3.939
 5817TIP3   OH217335   0.083   6.913   3.654
 5817TIP3    H117336   0.035   6.974   3.598
 5817TIP3    H217337   0.176   6.927   3.623
 5818TIP3   OH217338  -0.024   6.392   3.807
 5818TIP3    H117339  -0.102   6.367   3.859
 5818TIP3    H217340   0.049   6.365   3.868
 5819TIP3   OH217341   0.158   6.302   3.981
 5819TIP3    H117342   0.172   6.208   4.006
 5819TIP3    H217343   0.145   6.346   4.068
 5820TIP3   OH217344   0.199   7.713   2.888
 5820TIP3    H117345   0.241   7.679   2.968
 5820TIP3    H217346   0.247   7.672   2.816
 5821TIP3   OH217347   0.228   7.628   3.152
 5821TIP3    H117348   0.195   7.538   3.170
 5821TIP3    H217349   0.303   7.631   3.212
 5822TIP3   OH217350   0.260   7.332   3.726
 5822TIP3    H117351   0.230   7.313   3.815
 5822TIP3    H217352   0.315   7.412   3.738
 5823TIP3   OH217353   0.129   6.815   2.362
 5823TIP3    H117354   0.205   6.875   2.362
 5823TIP3    H217355   0.141   6.771   2.449
 5824TIP3   OH217356   0.227   6.687   2.578
 5824TIP3    H117357   0.161   6.646   2.638
 5824TIP3    H217358   0.292   6.726   2.640
 5825TIP3   OH217359   0.259   7.086   2.984
 5825TIP3    H117360   0.322   7.022   2.947
 5825TIP3    H217361   0.275   7.165   2.929
 5826TIP3   OH217362   0.083   7.370   3.180
 5826TIP3    H117363   0.023   7.431   3.223
 5826TIP3    H217364   0.068   7.390   3.086
 5827TIP3   OH217365   0.145   6.593   2.212
 5827TIP3    H117366   0.069   6.601   2.153
 5827TIP3    H217367   0.133   6.673   2.268
 5828TIP3   OH217368   0.020   6.268   2.188
 5828TIP3    H117369  -0.051   6.314   2.143
 5828TIP3    H217370   0.000   6.175   2.166
 5829TIP3   OH217371   0.039   6.548   2.714
 5829TIP3    H117372   0.044   6.451   2.708
 5829TIP3    H217373   0.025   6.563   2.810
 5830TIP3   OH217374   0.329   6.979   3.567
 5830TIP3    H117375   0.399   6.909   3.560
 5830TIP3    H217376   0.358   7.042   3.500
 5831TIP3   OH217377   0.512   6.785   3.586
 5831TIP3    H117378   0.437   6.731   3.619
 5831TIP3    H217379   0.585   6.721   3.600
 5832TIP3   OH217380  -0.013   5.994   2.136
 5832TIP3    H117381   0.054   5.978   2.206
 5832TIP3    H217382  -0.094   5.952   2.174
 5833TIP3   OH217383   0.034   6.269   2.614
 5833TIP3    H117384   0.076   6.181   2.626
 5833TIP3    H217385   0.091   6.304   2.542
 5834TIP3   OH217386   0.192   6.441   3.095
 5834TIP3    H117387   0.279   6.467   3.057
 5834TIP3    H217388   0.204   6.477   3.185
 5835TIP3   OH217389   0.267   6.579   3.327
 5835TIP3    H117390   0.193   6.618   3.378
 5835TIP3    H217391   0.303   6.659   3.283
 5836TIP3   OH217392   0.717   6.173   3.891
 5836TIP3    H117393   0.774   6.109   3.844
 5836TIP3    H217394   0.686   6.230   3.818
 5837TIP3   OH217395   0.140   6.019   2.643
 5837TIP3    H117396   0.189   6.002   2.727
 5837TIP3    H217397   0.080   5.941   2.642
 5838TIP3   OH217398   0.591   6.314   3.699
 5838TIP3    H117399   0.505   6.356   3.719
 5838TIP3    H217400   0.561   6.245   3.638
 5839TIP3   OH217401   0.222   5.953   2.279
 5839TIP3    H117402   0.266   5.883   2.227
 5839TIP3    H217403   0.288   6.025   2.276
 5840TIP3   OH217404   0.485   6.079   3.571
 5840TIP3    H117405   0.393   6.075   3.540
 5840TIP3    H217406   0.513   5.985   3.560
 5841TIP3   OH217407  -0.267   5.964   3.213
 5841TIP3    H117408  -0.276   5.881   3.262
 5841TIP3    H217409  -0.192   5.941   3.154
 5842TIP3   OH217410   0.213   5.871   3.095
 5842TIP3    H117411   0.251   5.925   3.022
 5842TIP3    H217412   0.119   5.897   3.090
 5843TIP3   OH217413   0.305   5.974   2.860
 5843TIP3    H117414   0.379   5.923   2.820
 5843TIP3    H217415   0.339   6.066   2.846
 5844TIP3   OH217416  -0.063   5.873   3.061
 5844TIP3    H117417  -0.054   5.836   2.972
 5844TIP3    H217418  -0.078   5.791   3.115
 5845TIP3   OH217419  -0.041   5.804   2.634
 5845TIP3    H117420  -0.125   5.852   2.650
 5845TIP3    H217421  -0.058   5.720   2.680
 5846TIP3   OH217422   0.215   6.035   4.006
 5846TIP3    H117423   0.233   6.014   4.101
 5846TIP3    H217424   0.306   6.033   3.970
 5847TIP3   OH217425   0.160   7.586   3.436
 5847TIP3    H117426   0.087   7.540   3.479
 5847TIP3    H217427   0.164   7.665   3.492
 5848TIP3   OH217428   1.422   6.968   2.263
 5848TIP3    H117429   1.394   7.060   2.243
 5848TIP3    H217430   1.344   6.919   2.232
 5849TIP3   OH217431   1.429   6.965   2.642
 5849TIP3    H117432   1.454   6.938   2.732
 5849TIP3    H217433   1.380   6.887   2.611
 5850TIP3   OH217434   0.717   6.864   3.015
 5850TIP3    H117435   0.751   6.795   3.076
 5850TIP3    H217436   0.797   6.916   3.001
 5851TIP3   OH217437   1.667   7.267   2.326
 5851TIP3    H117438   1.648   7.201   2.394
 5851TIP3    H217439   1.692   7.345   2.379
 5852TIP3   OH217440   0.689   7.264   2.745
 5852TIP3    H117441   0.682   7.167   2.743
 5852TIP3    H217442   0.785   7.273   2.727
 5853TIP3   OH217443   0.402   6.471   2.523
 5853TIP3    H117444   0.354   6.554   2.542
 5853TIP3    H217445   0.331   6.420   2.480
 5854TIP3   OH217446   0.461   6.765   2.698
 5854TIP3    H117447   0.512   6.687   2.731
 5854TIP3    H217448   0.521   6.799   2.630
 5855TIP3   OH217449   1.327   7.740   2.346
 5855TIP3    H117450   1.372   7.667   2.300
 5855TIP3    H217451   1.286   7.696   2.421
 5856TIP3   OH217452   1.223   7.191   2.699
 5856TIP3    H117453   1.260   7.119   2.645
 5856TIP3    H217454   1.308   7.235   2.723
 5857TIP3   OH217455   2.236   6.513   2.692
 5857TIP3    H117456   2.263   6.596   2.735
 5857TIP3    H217457   2.253   6.533   2.599
 5858TIP3   OH217458   1.633   6.694   2.727
 5858TIP3    H117459   1.675   6.608   2.746
 5858TIP3    H217460   1.602   6.679   2.636
 5859TIP3   OH217461   0.971   6.353   2.692
 5859TIP3    H117462   0.951   6.426   2.630
 5859TIP3    H217463   0.922   6.280   2.647
 5860TIP3   OH217464   1.665   6.445   2.314
 5860TIP3    H117465   1.737   6.429   2.379
 5860TIP3    H217466   1.716   6.481   2.239
 5861TIP3   OH217467   0.605   6.555   2.799
 5861TIP3    H117468   0.688   6.536   2.846
 5861TIP3    H217469   0.618   6.500   2.719
 5862TIP3   OH217470   1.045   6.753   2.593
 5862TIP3    H117471   1.139   6.728   2.605
 5862TIP3    H217472   1.006   6.670   2.559
 5863TIP3   OH217473   2.307   6.722   2.862
 5863TIP3    H117474   2.224   6.769   2.841
 5863TIP3    H217475   2.321   6.750   2.953
 5864TIP3   OH217476   0.967   6.337   3.125
 5864TIP3    H117477   0.907   6.374   3.058
 5864TIP3    H217478   0.915   6.354   3.207
 5865TIP3   OH217479   1.317   7.191   2.130
 5865TIP3    H117480   1.272   7.169   2.047
 5865TIP3    H217481   1.274   7.276   2.152
 5866TIP3   OH217482   1.073   7.112   2.921
 5866TIP3    H117483   1.012   7.180   2.957
 5866TIP3    H217484   1.114   7.159   2.846
 5867TIP3   OH217485   1.876   6.446   2.486
 5867TIP3    H117486   1.861   6.401   2.570
 5867TIP3    H217487   1.927   6.525   2.514
 5868TIP3   OH217488   0.838   6.452   2.910
 5868TIP3    H117489   0.900   6.525   2.933
 5868TIP3    H217490   0.887   6.412   2.835
 5869TIP3   OH217491   0.902   7.307   3.021
 5869TIP3    H117492   0.877   7.389   2.975
 5869TIP3    H217493   0.822   7.294   3.076
 5870TIP3   OH217494   0.335   7.004   2.267
 5870TIP3    H117495   0.343   7.036   2.176
 5870TIP3    H217496   0.350   7.088   2.315
 5871TIP3   OH217497   1.738   7.512   2.494
 5871TIP3    H117498   1.650   7.503   2.536
 5871TIP3    H217499   1.727   7.598   2.449
 5872TIP3   OH217500   2.027   6.412   2.858
 5872TIP3    H117501   1.939   6.441   2.828
 5872TIP3    H217502   2.085   6.445   2.786
 5873TIP3   OH217503   1.324   6.056   2.841
 5873TIP3    H117504   1.309   5.961   2.857
 5873TIP3    H217505   1.246   6.095   2.887
 5874TIP3   OH217506   1.447   7.559   2.177
 5874TIP3    H117507   1.493   7.476   2.152
 5874TIP3    H217508   1.505   7.625   2.132
 5875TIP3   OH217509   1.583   7.342   2.074
 5875TIP3    H117510   1.535   7.266   2.039
 5875TIP3    H217511   1.618   7.307   2.158
 5876TIP3   OH217512   1.962   7.426   2.838
 5876TIP3    H117513   1.949   7.348   2.779
 5876TIP3    H217514   1.943   7.500   2.777
 5877TIP3   OH217515   1.253   6.817   2.096
 5877TIP3    H117516   1.172   6.869   2.077
 5877TIP3    H217517   1.298   6.819   2.010
 5878TIP3   OH217518   1.213   6.603   1.813
 5878TIP3    H117519   1.279   6.654   1.863
 5878TIP3    H217520   1.271   6.540   1.766
 5879TIP3   OH217521   2.158   7.062   2.683
 5879TIP3    H117522   2.074   7.113   2.689
 5879TIP3    H217523   2.186   7.087   2.593
 5880TIP3   OH217524   1.601   6.900   2.068
 5880TIP3    H117525   1.545   6.926   2.145
 5880TIP3    H217526   1.685   6.876   2.113
 5881TIP3   OH217527   1.836   6.940   2.979
 5881TIP3    H117528   1.834   7.023   3.030
 5881TIP3    H217529   1.749   6.945   2.934
 5882TIP3   OH217530   0.831   6.898   2.486
 5882TIP3    H117531   0.791   6.841   2.418
 5882TIP3    H217532   0.909   6.847   2.514
 5883TIP3   OH217533   0.944   7.276   2.647
 5883TIP3    H117534   0.938   7.277   2.551
 5883TIP3    H217535   1.041   7.271   2.661
 5884TIP3   OH217536   0.965   6.872   2.839
 5884TIP3    H117537   0.999   6.850   2.749
 5884TIP3    H217538   1.010   6.957   2.858
 5885TIP3   OH217539   1.501   7.507   2.618
 5885TIP3    H117540   1.480   7.587   2.668
 5885TIP3    H217541   1.481   7.435   2.681
 5886TIP3   OH217542   1.109   7.426   3.163
 5886TIP3    H117543   1.049   7.490   3.207
 5886TIP3    H217544   1.044   7.374   3.112
 5887TIP3   OH217545   1.443   6.757   1.894
 5887TIP3    H117546   1.500   6.819   1.945
 5887TIP3    H217547   1.469   6.781   1.801
 5888TIP3   OH217548   0.863   6.983   3.265
 5888TIP3    H117549   0.868   7.070   3.309
 5888TIP3    H217550   0.767   6.964   3.274
 5889TIP3   OH217551   1.187   7.436   2.164
 5889TIP3    H117552   1.257   7.496   2.193
 5889TIP3    H217553   1.107   7.490   2.171
 5890TIP3   OH217554   0.903   7.597   3.246
 5890TIP3    H117555   0.869   7.596   3.154
 5890TIP3    H217556   0.822   7.575   3.298
 5891TIP3   OH217557   1.957   6.000   1.942
 5891TIP3    H117558   1.875   6.020   1.992
 5891TIP3    H217559   1.970   6.083   1.892
 5892TIP3   OH217560   0.703   6.737   2.292
 5892TIP3    H117561   0.642   6.785   2.231
 5892TIP3    H217562   0.659   6.652   2.297
 5893TIP3   OH217563   1.754   7.366   1.492
 5893TIP3    H117564   1.758   7.461   1.471
 5893TIP3    H217565   1.847   7.339   1.478
 5894TIP3   OH217566   0.481   7.125   3.197
 5894TIP3    H117567   0.422   7.098   3.125
 5894TIP3    H217568   0.521   7.040   3.225
 5895TIP3   OH217569   0.346   7.318   2.841
 5895TIP3    H117570   0.432   7.295   2.803
 5895TIP3    H217571   0.371   7.392   2.899
 5896TIP3   OH217572   2.200   7.771   2.882
 5896TIP3    H117573   2.198   7.675   2.899
 5896TIP3    H217574   2.118   7.798   2.930
 5897TIP3   OH217575   1.311   7.555   3.023
 5897TIP3    H117576   1.306   7.648   3.054
 5897TIP3    H217577   1.236   7.515   3.072
 5898TIP3   OH217578   1.063   7.692   1.976
 5898TIP3    H117579   1.045   7.682   1.881
 5898TIP3    H217580   1.035   7.783   1.996
 5899TIP3   OH217581   0.498   7.506   2.364
 5899TIP3    H117582   0.581   7.536   2.404
 5899TIP3    H217583   0.470   7.439   2.428
 5900TIP3   OH217584   1.319   7.616   1.618
 5900TIP3    H117585   1.359   7.547   1.560
 5900TIP3    H217586   1.352   7.592   1.706
 5901TIP3   OH217587   1.321   7.634   1.899
 5901TIP3    H117588   1.230   7.642   1.934
 5901TIP3    H217589   1.364   7.585   1.971
 5902TIP3   OH217590   2.091   6.901   3.159
 5902TIP3    H117591   2.008   6.917   3.112
 5902TIP3    H217592   2.103   6.804   3.147
 5903TIP3   OH217593   0.684   7.311   3.188
 5903TIP3    H117594   0.737   7.290   3.267
 5903TIP3    H217595   0.612   7.245   3.193
 5904TIP3   OH217596   1.085   6.132   2.969
 5904TIP3    H117597   0.995   6.102   2.942
 5904TIP3    H217598   1.061   6.215   3.015
 5905TIP3   OH217599   1.618   6.247   3.163
 5905TIP3    H117600   1.685   6.221   3.228
 5905TIP3    H217601   1.534   6.228   3.209
 5906TIP3   OH217602   1.860   6.678   3.083
 5906TIP3    H117603   1.808   6.674   3.167
 5906TIP3    H217604   1.834   6.765   3.046
 5907TIP3   OH217605   1.516   6.802   1.636
 5907TIP3    H117606   1.486   6.777   1.547
 5907TIP3    H217607   1.592   6.859   1.616
 5908TIP3   OH217608   1.233   6.177   1.941
 5908TIP3    H117609   1.195   6.176   2.030
 5908TIP3    H217610   1.187   6.099   1.903
 5909TIP3   OH217611   1.016   6.648   2.986
 5909TIP3    H117612   0.967   6.671   3.068
 5909TIP3    H217613   1.000   6.729   2.933
 5910TIP3   OH217614   0.902   6.533   2.501
 5910TIP3    H117615   0.808   6.509   2.518
 5910TIP3    H217616   0.914   6.494   2.412
 5911TIP3   OH217617   1.391   6.619   2.229
 5911TIP3    H117618   1.338   6.691   2.187
 5911TIP3    H217619   1.445   6.589   2.154
 5912TIP3   OH217620   1.565   6.896   3.313
 5912TIP3    H117621   1.543   6.825   3.377
 5912TIP3    H217622   1.657   6.915   3.337
 5913TIP3   OH217623   1.548   6.648   2.469
 5913TIP3    H117624   1.487   6.680   2.398
 5913TIP3    H217625   1.580   6.567   2.424
 5914TIP3   OH217626   0.834   6.677   3.196
 5914TIP3    H117627   0.867   6.739   3.263
 5914TIP3    H217628   0.825   6.595   3.248
 5915TIP3   OH217629   0.899   6.172   1.909
 5915TIP3    H117630   0.883   6.161   2.004
 5915TIP3    H217631   0.810   6.196   1.877
 5916TIP3   OH217632   0.429   6.197   2.777
 5916TIP3    H117633   0.503   6.232   2.832
 5916TIP3    H217634   0.473   6.170   2.695
 5917TIP3   OH217635   0.400   6.177   2.298
 5917TIP3    H117636   0.444   6.215   2.218
 5917TIP3    H217637   0.342   6.252   2.320
 5918TIP3   OH217638   1.559   6.894   2.891
 5918TIP3    H117639   1.592   6.822   2.833
 5918TIP3    H217640   1.529   6.841   2.968
 5919TIP3   OH217641   1.228   6.354   2.563
 5919TIP3    H117642   1.145   6.354   2.614
 5919TIP3    H217643   1.295   6.357   2.633
 5920TIP3   OH217644   0.663   6.411   2.572
 5920TIP3    H117645   0.569   6.419   2.544
 5920TIP3    H217646   0.687   6.321   2.546
 5921TIP3   OH217647   0.931   6.407   2.258
 5921TIP3    H117648   1.024   6.423   2.235
 5921TIP3    H217649   0.883   6.430   2.175
 5922TIP3   OH217650   1.720   6.430   2.763
 5922TIP3    H117651   1.688   6.444   2.855
 5922TIP3    H217652   1.652   6.370   2.728
 5923TIP3   OH217653   0.771   6.442   2.039
 5923TIP3    H117654   0.701   6.397   1.989
 5923TIP3    H217655   0.826   6.475   1.964
 5924TIP3   OH217656   1.888   8.122   2.983
 5924TIP3    H117657   1.888   8.142   2.888
 5924TIP3    H217658   1.969   8.167   3.014
 5925TIP3   OH217659   0.845   7.232   3.405
 5925TIP3    H117660   0.927   7.260   3.450
 5925TIP3    H217661   0.785   7.228   3.482
 5926TIP3   OH217662   1.310   6.683   2.659
 5926TIP3    H117663   1.385   6.646   2.609
 5926TIP3    H217664   1.321   6.641   2.747
 5927TIP3   OH217665   0.833   6.173   2.538
 5927TIP3    H117666   0.801   6.092   2.583
 5927TIP3    H217667   0.881   6.136   2.462
 5928TIP3   OH217668   1.287   6.580   2.952
 5928TIP3    H117669   1.198   6.618   2.964
 5928TIP3    H217670   1.344   6.642   3.001
 5929TIP3   OH217671   1.026   6.967   2.048
 5929TIP3    H117672   0.951   6.906   2.035
 5929TIP3    H217673   1.006   7.003   2.137
 5930TIP3   OH217674   1.925   7.206   2.674
 5930TIP3    H117675   1.947   7.257   2.593
 5930TIP3    H217676   1.839   7.165   2.650
 5931TIP3   OH217677   1.482   6.284   1.905
 5931TIP3    H117678   1.386   6.264   1.915
 5931TIP3    H217679   1.490   6.378   1.931
 5932TIP3   OH217680   1.424   7.290   3.043
 5932TIP3    H117681   1.450   7.271   3.134
 5932TIP3    H217682   1.386   7.379   3.048
 5933TIP3   OH217683   1.551   6.531   2.011
 5933TIP3    H117684   1.647   6.539   2.026
 5933TIP3    H217685   1.531   6.612   1.959
 5934TIP3   OH217686   0.709   6.986   2.721
 5934TIP3    H117687   0.751   6.967   2.634
 5934TIP3    H217688   0.762   6.931   2.780
 5935TIP3   OH217689   1.171   7.117   1.872
 5935TIP3    H117690   1.122   7.203   1.879
 5935TIP3    H217691   1.116   7.061   1.931
 5936TIP3   OH217692   0.596   6.919   3.337
 5936TIP3    H117693   0.619   6.902   3.430
 5936TIP3    H217694   0.534   6.846   3.318
 5937TIP3   OH217695   1.323   7.028   3.353
 5937TIP3    H117696   1.264   6.969   3.303
 5937TIP3    H217697   1.411   6.995   3.325
 5938TIP3   OH217698   1.586   7.549   2.940
 5938TIP3    H117699   1.489   7.548   2.952
 5938TIP3    H217700   1.613   7.601   3.018
 5939TIP3   OH217701   1.995   6.622   1.846
 5939TIP3    H117702   1.933   6.577   1.784
 5939TIP3    H217703   1.990   6.711   1.806
 5940TIP3   OH217704   2.212   7.478   2.927
 5940TIP3    H117705   2.114   7.475   2.920
 5940TIP3    H217706   2.237   7.449   2.837
 5941TIP3   OH217707   1.703   7.440   1.758
 5941TIP3    H117708   1.666   7.373   1.817
 5941TIP3    H217709   1.708   7.394   1.672
 5942TIP3   OH217710   1.691   7.069   2.593
 5942TIP3    H117711   1.597   7.045   2.607
 5942TIP3    H217712   1.723   6.990   2.547
 5943TIP3   OH217713   0.824   7.295   2.341
 5943TIP3    H117714   0.862   7.386   2.339
 5943TIP3    H217715   0.730   7.316   2.340
 5944TIP3   OH217716   0.394   6.596   2.087
 5944TIP3    H117717   0.435   6.684   2.098
 5944TIP3    H217718   0.310   6.606   2.137
 5945TIP3   OH217719   0.955   7.061   2.290
 5945TIP3    H117720   0.918   7.151   2.303
 5945TIP3    H217721   0.918   7.015   2.367
 5946TIP3   OH217722   1.092   7.640   2.841
 5946TIP3    H117723   1.115   7.698   2.766
 5946TIP3    H217724   1.179   7.611   2.871
 5947TIP3   OH217725   1.476   7.274   2.774
 5947TIP3    H117726   1.466   7.273   2.872
 5947TIP3    H217727   1.557   7.223   2.763
 5948TIP3   OH217728   1.453   7.157   1.654
 5948TIP3    H117729   1.498   7.136   1.738
 5948TIP3    H217730   1.361   7.140   1.676
 5949TIP3   OH217731   1.722   7.809   2.823
 5949TIP3    H117732   1.643   7.753   2.816
 5949TIP3    H217733   1.706   7.874   2.751
 5950TIP3   OH217734   1.789   7.643   1.470
 5950TIP3    H117735   1.825   7.718   1.419
 5950TIP3    H217736   1.709   7.687   1.508
 5951TIP3   OH217737   0.809   6.419   3.341
 5951TIP3    H117738   0.713   6.425   3.357
 5951TIP3    H217739   0.838   6.364   3.415
 5952TIP3   OH217740   1.609   7.099   1.874
 5952TIP3    H117741   1.600   7.035   1.947
 5952TIP3    H217742   1.706   7.099   1.862
 5953TIP3   OH217743   0.515   7.500   2.979
 5953TIP3    H117744   0.577   7.428   3.000
 5953TIP3    H217745   0.556   7.573   3.027
 5954TIP3   OH217746   0.784   7.146   1.653
 5954TIP3    H117747   0.828   7.063   1.628
 5954TIP3    H217748   0.784   7.140   1.751
 5955TIP3   OH217749   0.783   7.162   1.924
 5955TIP3    H117750   0.841   7.135   1.996
 5955TIP3    H217751   0.779   7.259   1.937
 5956TIP3   OH217752   0.507   6.839   2.135
 5956TIP3    H117753   0.454   6.888   2.199
 5956TIP3    H217754   0.520   6.910   2.068
 5957TIP3   OH217755   1.648   6.482   3.021
 5957TIP3    H117756   1.724   6.522   3.065
 5957TIP3    H217757   1.631   6.402   3.076
 5958TIP3   OH217758   1.527   6.234   2.188
 5958TIP3    H117759   1.511   6.257   2.095
 5958TIP3    H217760   1.564   6.317   2.224
 5959TIP3   OH217761   1.028   7.344   1.900
 5959TIP3    H117762   0.948   7.386   1.935
 5959TIP3    H217763   1.057   7.409   1.835
 5960TIP3   OH217764   1.216   6.414   2.290
 5960TIP3    H117765   1.279   6.487   2.273
 5960TIP3    H217766   1.220   6.408   2.388
 5961TIP3   OH217767   1.483   6.733   3.098
 5961TIP3    H117768   1.503   6.789   3.176
 5961TIP3    H217769   1.539   6.655   3.115
 5962TIP3   OH217770   1.359   6.141   2.393
 5962TIP3    H117771   1.348   6.220   2.450
 5962TIP3    H217772   1.420   6.177   2.324
 5963TIP3   OH217773   0.762   7.440   1.952
 5963TIP3    H117774   0.762   7.512   1.886
 5963TIP3    H217775   0.752   7.488   2.035
 5964TIP3   OH217776   0.868   6.139   2.186
 5964TIP3    H117777   0.868   6.232   2.218
 5964TIP3    H217778   0.964   6.120   2.190
 5965TIP3   OH217779   2.125   6.631   3.078
 5965TIP3    H117780   2.027   6.631   3.088
 5965TIP3    H217781   2.133   6.595   2.989
 5966TIP3   OH217782   1.776   6.827   2.466
 5966TIP3    H117783   1.699   6.769   2.479
 5966TIP3    H217784   1.846   6.779   2.515
 5967TIP3   OH217785   0.514   7.064   1.986
 5967TIP3    H117786   0.528   7.157   1.969
 5967TIP3    H217787   0.560   7.025   1.909
 5968TIP3   OH217788   0.437   6.328   2.076
 5968TIP3    H117789   0.441   6.426   2.082
 5968TIP3    H217790   0.368   6.314   2.011
 5969TIP3   OH217791   1.744   7.785   2.418
 5969TIP3    H117792   1.699   7.832   2.344
 5969TIP3    H217793   1.837   7.803   2.395
 5970TIP3   OH217794   0.820   6.053   2.944
 5970TIP3    H117795   0.789   6.020   2.857
 5970TIP3    H217796   0.809   5.974   3.001
 5971TIP3   OH217797   0.339   7.268   2.323
 5971TIP3    H117798   0.293   7.335   2.377
 5971TIP3    H217799   0.383   7.323   2.257
 5972TIP3   OH217800   0.513   7.808   3.404
 5972TIP3    H117801   0.602   7.812   3.445
 5972TIP3    H217802   0.503   7.712   3.393
 5973TIP3   OH217803   0.993   7.778   3.439
 5973TIP3    H117804   1.088   7.759   3.449
 5973TIP3    H217805   0.971   7.718   3.365
 5974TIP3   OH217806   0.978   7.357   1.607
 5974TIP3    H117807   0.914   7.284   1.623
 5974TIP3    H217808   1.023   7.320   1.530
 5975TIP3   OH217809   1.637   7.685   3.175
 5975TIP3    H117810   1.626   7.614   3.242
 5975TIP3    H217811   1.717   7.731   3.206
 5976TIP3   OH217812   1.426   7.402   1.486
 5976TIP3    H117813   1.479   7.333   1.528
 5976TIP3    H217814   1.465   7.409   1.397
 5977TIP3   OH217815   0.648   7.219   3.602
 5977TIP3    H117816   0.670   7.123   3.605
 5977TIP3    H217817   0.565   7.218   3.549
 5978TIP3   OH217818   0.644   6.881   1.817
 5978TIP3    H117819   0.706   6.844   1.883
 5978TIP3    H217820   0.701   6.882   1.737
 5979TIP3   OH217821   1.251   7.303   3.371
 5979TIP3    H117822   1.213   7.322   3.283
 5979TIP3    H217823   1.284   7.211   3.361
 5980TIP3   OH217824   1.146   7.066   1.601
 5980TIP3    H117825   1.145   7.078   1.697
 5980TIP3    H217826   1.131   6.970   1.593
 5981TIP3   OH217827   1.746   7.311   2.974
 5981TIP3    H117828   1.820   7.358   2.932
 5981TIP3    H217829   1.675   7.377   2.963
 5982TIP3   OH217830   0.766   6.957   3.577
 5982TIP3    H117831   0.835   6.891   3.561
 5982TIP3    H217832   0.789   6.985   3.668
 5983TIP3   OH217833   0.832   6.772   2.011
 5983TIP3    H117834   0.803   6.730   2.094
 5983TIP3    H217835   0.868   6.695   1.962
 5984TIP3   OH217836   1.098   6.834   3.236
 5984TIP3    H117837   1.023   6.896   3.241
 5984TIP3    H217838   1.150   6.870   3.160
 5985TIP3   OH217839   0.933   6.565   1.854
 5985TIP3    H117840   0.906   6.568   1.760
 5985TIP3    H217841   1.031   6.571   1.846
 5986TIP3   OH217842   1.614   7.238   3.372
 5986TIP3    H117843   1.699   7.220   3.329
 5986TIP3    H217844   1.614   7.174   3.446
 5987TIP3   OH217845   1.757   6.896   1.513
 5987TIP3    H117846   1.733   6.852   1.430
 5987TIP3    H217847   1.724   6.987   1.492
 5988TIP3   OH217848   1.225   6.625   3.363
 5988TIP3    H117849   1.224   6.545   3.307
 5988TIP3    H217850   1.180   6.692   3.306
 5989TIP3   OH217851   1.226   6.410   3.172
 5989TIP3    H117852   1.253   6.454   3.089
 5989TIP3    H217853   1.132   6.389   3.154
 5990TIP3   OH217854   1.253   6.947   3.046
 5990TIP3    H117855   1.337   6.960   3.000
 5990TIP3    H217856   1.196   7.014   3.002
 5991TIP3   OH217857   1.834   6.915   3.427
 5991TIP3    H117858   1.887   6.835   3.435
 5991TIP3    H217859   1.899   6.980   3.397
 5992TIP3   OH217860   1.876   7.165   3.159
 5992TIP3    H117861   1.817   7.219   3.102
 5992TIP3    H217862   1.963   7.187   3.119
 5993TIP3   OH217863   1.107   6.737   3.594
 5993TIP3    H117864   1.033   6.676   3.613
 5993TIP3    H217865   1.137   6.706   3.506
 5994TIP3   OH217866   1.358   6.175   3.240
 5994TIP3    H117867   1.309   6.257   3.217
 5994TIP3    H217868   1.288   6.107   3.229
 5995TIP3   OH217869   1.485   6.679   3.456
 5995TIP3    H117870   1.471   6.668   3.552
 5995TIP3    H217871   1.395   6.655   3.425
 5996TIP3   OH217872   1.722   6.625   3.310
 5996TIP3    H117873   1.647   6.631   3.372
 5996TIP3    H217874   1.795   6.598   3.368
 5997TIP3   OH217875   1.957   6.571   3.462
 5997TIP3    H117876   1.965   6.475   3.481
 5997TIP3    H217877   1.948   6.610   3.552
 5998TIP3   OH217878   0.939   6.518   3.647
 5998TIP3    H117879   0.947   6.425   3.616
 5998TIP3    H217880   0.973   6.509   3.738
 5999TIP3   OH217881   1.453   6.184   3.498
 5999TIP3    H117882   1.519   6.113   3.490
 5999TIP3    H217883   1.412   6.180   3.409
 6000TIP3   OH217884   1.518   6.400   3.657
 6000TIP3    H117885   1.496   6.330   3.592
 6000TIP3    H217886   1.441   6.460   3.651
 6001TIP3   OH217887   0.290   7.456   2.564
 6001TIP3    H117888   0.259   7.402   2.637
 6001TIP3    H217889   0.337   7.528   2.611
 6002TIP3   OH217890   1.998   7.873   2.373
 6002TIP3    H117891   2.024   7.904   2.461
 6002TIP3    H217892   2.059   7.921   2.315
 6003TIP3   OH217893   2.028   7.895   2.654
 6003TIP3    H117894   1.980   7.809   2.650
 6003TIP3    H217895   2.099   7.870   2.716
 6004TIP3   OH217896   2.071   7.568   3.231
 6004TIP3    H117897   2.003   7.577   3.300
 6004TIP3    H217898   2.111   7.658   3.231
 6005TIP3   OH217899   1.889   7.082   1.848
 6005TIP3    H117900   1.955   7.149   1.820
 6005TIP3    H217901   1.933   7.045   1.927
 6006TIP3   OH217902   2.018   6.951   2.052
 6006TIP3    H117903   1.950   6.909   2.110
 6006TIP3    H217904   2.079   6.991   2.117
 6007TIP3   OH217905   2.073   7.345   2.486
 6007TIP3    H117906   2.123   7.280   2.434
 6007TIP3    H217907   2.061   7.418   2.423
 6008TIP3   OH217908   1.901   7.646   2.678
 6008TIP3    H117909   1.830   7.687   2.731
 6008TIP3    H217910   1.851   7.599   2.609
 6009TIP3   OH217911   1.955   6.859   1.698
 6009TIP3    H117912   1.884   6.862   1.630
 6009TIP3    H217913   1.927   6.935   1.753
 6010TIP3   OH217914   1.828   6.531   1.652
 6010TIP3    H117915   1.781   6.573   1.579
 6010TIP3    H217916   1.802   6.437   1.641
 6011TIP3   OH217917   1.832   6.809   2.198
 6011TIP3    H117918   1.837   6.712   2.192
 6011TIP3    H217919   1.817   6.823   2.294
 6012TIP3   OH217920   0.455   6.893   2.945
 6012TIP3    H117921   0.454   6.857   2.853
 6012TIP3    H217922   0.552   6.891   2.962
 6013TIP3   OH217923   2.118   7.232   3.052
 6013TIP3    H117924   2.192   7.169   3.044
 6013TIP3    H217925   2.146   7.305   2.993
 6014TIP3   OH217926   2.305   7.038   3.067
 6014TIP3    H117927   2.230   6.991   3.109
 6014TIP3    H217928   2.377   6.974   3.084
 6015TIP3   OH217929   1.769   6.265   1.636
 6015TIP3    H117930   1.842   6.235   1.694
 6015TIP3    H217931   1.694   6.209   1.661
 6016TIP3   OH217932   1.827   6.525   2.094
 6016TIP3    H117933   1.867   6.436   2.109
 6016TIP3    H217934   1.885   6.558   2.023
 6017TIP3   OH217935   1.989   6.696   2.589
 6017TIP3    H117936   2.074   6.723   2.548
 6017TIP3    H217937   2.001   6.736   2.678
 6018TIP3   OH217938   2.057   6.842   2.820
 6018TIP3    H117939   1.979   6.876   2.869
 6018TIP3    H217940   2.089   6.924   2.775
 6019TIP3   OH217941   0.672   6.566   3.613
 6019TIP3    H117942   0.770   6.566   3.620
 6019TIP3    H217943   0.652   6.484   3.661
 6020TIP3   OH217944   2.514   6.436   3.377
 6020TIP3    H117945   2.569   6.370   3.331
 6020TIP3    H217946   2.479   6.489   3.301
 6021TIP3   OH217947   1.936   6.274   2.130
 6021TIP3    H117948   1.983   6.258   2.215
 6021TIP3    H217949   1.875   6.198   2.129
 6022TIP3   OH217950   0.635   6.261   2.952
 6022TIP3    H117951   0.697   6.187   2.961
 6022TIP3    H217952   0.696   6.336   2.944
 6023TIP3   OH217953   0.438   6.533   3.022
 6023TIP3    H117954   0.489   6.531   2.938
 6023TIP3    H217955   0.470   6.615   3.062
 6024TIP3   OH217956   2.379   6.572   3.185
 6024TIP3    H117957   2.295   6.615   3.208
 6024TIP3    H217958   2.346   6.503   3.124
 6025TIP3   OH217959   2.017   6.209   1.764
 6025TIP3    H117960   2.056   6.137   1.710
 6025TIP3    H217961   2.083   6.280   1.757
 6026TIP3   OH217962   0.421   6.033   2.524
 6026TIP3    H117963   0.328   6.034   2.551
 6026TIP3    H217964   0.420   6.093   2.446
 6027TIP3   OH217965   1.586   7.740   2.033
 6027TIP3    H117966   1.633   7.725   1.948
 6027TIP3    H217967   1.640   7.810   2.073
 6028TIP3   OH217968   0.641   6.115   3.337
 6028TIP3    H117969   0.592   6.112   3.421
 6028TIP3    H217970   0.575   6.156   3.278
 6029TIP3   OH217971   0.685   7.554   3.417
 6029TIP3    H117972   0.597   7.518   3.397
 6029TIP3    H217973   0.700   7.523   3.507
 6030TIP3   OH217974   0.856   7.579   2.964
 6030TIP3    H117975   0.816   7.657   2.920
 6030TIP3    H217976   0.945   7.587   2.923
 6031TIP3   OH217977   1.304   7.823   3.103
 6031TIP3    H117978   1.348   7.822   3.190
 6031TIP3    H217979   1.370   7.874   3.050
 6032TIP3   OH217980   1.482   7.976   2.960
 6032TIP3    H117981   1.551   7.922   2.917
 6032TIP3    H217982   1.537   8.030   3.021
 6033TIP3   OH217983   2.278   6.337   3.059
 6033TIP3    H117984   2.187   6.334   3.025
 6033TIP3    H217985   2.306   6.244   3.047
 6034TIP3   OH217986   0.527   7.828   2.987
 6034TIP3    H117987   0.447   7.874   2.957
 6034TIP3    H217988   0.544   7.872   3.071
 6035TIP3   OH217989   0.773   7.816   2.848
 6035TIP3    H117990   0.684   7.828   2.887
 6035TIP3    H217991   0.760   7.845   2.756
 6036TIP3   OH217992   1.203   7.840   2.644
 6036TIP3    H117993   1.128   7.850   2.583
 6036TIP3    H217994   1.210   7.931   2.681
 6037TIP3   OH217995   1.469   7.781   2.697
 6037TIP3    H117996   1.373   7.794   2.677
 6037TIP3    H217997   1.508   7.853   2.645
 6038TIP3   OH217998   1.681   7.978   2.609
 6038TIP3    H117999   1.661   8.059   2.559
 6038TIP3    H218000   1.702   7.914   2.537
 6039TIP3   OH218001   0.455   7.622   2.725
 6039TIP3    H118002   0.483   7.603   2.817
 6039TIP3    H218003   0.530   7.580   2.676
 6040TIP3   OH218004   0.662   7.498   2.593
 6040TIP3    H118005   0.682   7.415   2.642
 6040TIP3    H218006   0.748   7.519   2.551
 6041TIP3   OH218007   1.486   6.252   2.682
 6041TIP3    H118008   1.440   6.183   2.732
 6041TIP3    H218009   1.555   6.202   2.635
 6042TIP3   OH218010   2.007   6.131   2.585
 6042TIP3    H118011   2.043   6.183   2.510
 6042TIP3    H218012   1.912   6.149   2.578
 6043TIP3   OH218013   2.101   6.231   2.348
 6043TIP3    H118014   2.175   6.180   2.307
 6043TIP3    H218015   2.133   6.323   2.334
 6044TIP3   OH218016   0.732   5.960   2.695
 6044TIP3    H118017   0.640   5.927   2.697
 6044TIP3    H218018   0.781   5.875   2.691
 6045TIP3   OH218019   0.514   5.828   2.338
 6045TIP3    H118020   0.549   5.886   2.268
 6045TIP3    H218021   0.488   5.893   2.407
 6046TIP3   OH218022   1.176   5.990   2.577
 6046TIP3    H118023   1.232   6.040   2.515
 6046TIP3    H218024   1.198   6.032   2.661
 6047TIP3   OH218025   1.725   6.138   2.559
 6047TIP3    H118026   1.719   6.102   2.470
 6047TIP3    H218027   1.710   6.058   2.614
 6048TIP3   OH218028   1.752   6.062   2.122
 6048TIP3    H118029   1.666   6.105   2.134
 6048TIP3    H218030   1.736   5.977   2.168
 6049TIP3   OH218031   0.640   5.981   2.115
 6049TIP3    H118032   0.692   5.936   2.047
 6049TIP3    H218033   0.707   6.043   2.151
 6050TIP3   OH218034   1.146   6.164   2.206
 6050TIP3    H118035   1.208   6.117   2.265
 6050TIP3    H218036   1.168   6.257   2.230
 6051TIP3   OH218037   1.067   7.596   1.709
 6051TIP3    H118038   1.155   7.619   1.672
 6051TIP3    H218039   1.049   7.513   1.659
 6052TIP3   OH218040   1.730   7.708   1.800
 6052TIP3    H118041   1.723   7.610   1.787
 6052TIP3    H218042   1.682   7.739   1.720
 6053TIP3   OH218043   0.940   6.239   3.583
 6053TIP3    H118044   0.904   6.171   3.643
 6053TIP3    H218045   1.034   6.240   3.612
 6054TIP3   OH218046   1.189   6.236   3.704
 6054TIP3    H118047   1.274   6.211   3.666
 6054TIP3    H218048   1.175   6.166   3.771
 6055TIP3   OH218049   2.014   6.298   3.493
 6055TIP3    H118050   2.032   6.268   3.585
 6055TIP3    H218051   2.102   6.294   3.452
 6056TIP3   OH218052   1.955   7.854   2.978
 6056TIP3    H118053   1.874   7.819   2.935
 6056TIP3    H218054   1.930   7.947   2.990
 6057TIP3   OH218055   3.219   7.224   1.751
 6057TIP3    H118056   3.190   7.315   1.730
 6057TIP3    H218057   3.143   7.174   1.718
 6058TIP3   OH218058   3.221   7.224   2.131
 6058TIP3    H118059   3.249   7.193   2.219
 6058TIP3    H218060   3.176   7.145   2.096
 6059TIP3   OH218061   2.519   7.118   2.494
 6059TIP3    H118062   2.549   7.051   2.558
 6059TIP3    H218063   2.594   7.179   2.494
 6060TIP3   OH218064   3.463   7.525   1.814
 6060TIP3    H118065   3.445   7.457   1.879
 6060TIP3    H218066   3.489   7.601   1.869
 6061TIP3   OH218067   2.489   7.530   2.222
 6061TIP3    H118068   2.480   7.432   2.225
 6061TIP3    H218069   2.586   7.538   2.217
 6062TIP3   OH218070   2.197   6.733   2.007
 6062TIP3    H118071   2.147   6.815   2.023
 6062TIP3    H218072   2.126   6.678   1.968
 6063TIP3   OH218073   2.256   7.020   2.180
 6063TIP3    H118074   2.304   6.943   2.216
 6063TIP3    H218075   2.312   7.047   2.106
 6064TIP3   OH218076   3.111   7.989   1.830
 6064TIP3    H118077   3.157   7.917   1.782
 6064TIP3    H218078   3.100   7.951   1.917
 6065TIP3   OH218079   3.016   7.450   2.181
 6065TIP3    H118080   3.054   7.374   2.133
 6065TIP3    H218081   3.100   7.495   2.205
 6066TIP3   OH218082   4.031   6.769   2.179
 6066TIP3    H118083   4.059   6.853   2.220
 6066TIP3    H218084   4.051   6.786   2.085
 6067TIP3   OH218085   3.430   6.951   2.213
 6067TIP3    H118086   3.471   6.865   2.232
 6067TIP3    H218087   3.398   6.936   2.122
 6068TIP3   OH218088   2.768   6.610   2.178
 6068TIP3    H118089   2.746   6.683   2.116
 6068TIP3    H218090   2.720   6.537   2.134
 6069TIP3   OH218091   3.461   6.702   1.801
 6069TIP3    H118092   3.533   6.686   1.865
 6069TIP3    H218093   3.513   6.737   1.726
 6070TIP3   OH218094   2.400   6.812   2.285
 6070TIP3    H118095   2.483   6.792   2.333
 6070TIP3    H218096   2.413   6.756   2.206
 6071TIP3   OH218097   2.841   7.010   2.076
 6071TIP3    H118098   2.935   6.984   2.091
 6071TIP3    H218099   2.802   6.926   2.045
 6072TIP3   OH218100   4.104   6.979   2.348
 6072TIP3    H118101   4.021   7.025   2.326
 6072TIP3    H218102   4.112   7.000   2.442
 6073TIP3   OH218103   2.764   6.594   2.613
 6073TIP3    H118104   2.704   6.631   2.545
 6073TIP3    H218105   2.711   6.612   2.694
 6074TIP3   OH218106   3.112   7.446   1.620
 6074TIP3    H118107   3.067   7.425   1.537
 6074TIP3    H218108   3.067   7.529   1.645
 6075TIP3   OH218109   2.871   7.369   2.409
 6075TIP3    H118110   2.807   7.435   2.446
 6075TIP3    H218111   2.911   7.420   2.335
 6076TIP3   OH218112   3.672   6.704   1.972
 6076TIP3    H118113   3.660   6.655   2.055
 6076TIP3    H218114   3.724   6.781   2.001
 6077TIP3   OH218115   2.635   6.709   2.397
 6077TIP3    H118116   2.697   6.781   2.420
 6077TIP3    H218117   2.684   6.668   2.322
 6078TIP3   OH218118   2.698   7.563   2.506
 6078TIP3    H118119   2.672   7.649   2.467
 6078TIP3    H218120   2.619   7.546   2.562
 6079TIP3   OH218121   2.093   7.253   1.741
 6079TIP3    H118122   2.049   7.279   1.658
 6079TIP3    H218123   2.122   7.339   1.777
 6080TIP3   OH218124   3.534   7.769   1.982
 6080TIP3    H118125   3.444   7.760   2.022
 6080TIP3    H218126   3.524   7.855   1.936
 6081TIP3   OH218127   3.823   6.671   2.346
 6081TIP3    H118128   3.735   6.696   2.314
 6081TIP3    H218129   3.881   6.701   2.273
 6082TIP3   OH218130   3.121   6.313   2.329
 6082TIP3    H118131   3.105   6.218   2.343
 6082TIP3    H218132   3.043   6.351   2.374
 6083TIP3   OH218133   3.236   7.815   1.657
 6083TIP3    H118134   3.284   7.732   1.636
 6083TIP3    H218135   3.296   7.880   1.615
 6084TIP3   OH218136   3.377   7.600   1.562
 6084TIP3    H118137   3.336   7.522   1.524
 6084TIP3    H218138   3.413   7.565   1.646
 6085TIP3   OH218139   3.761   7.681   2.326
 6085TIP3    H118140   3.747   7.604   2.267
 6085TIP3    H218141   3.741   7.756   2.265
 6086TIP3   OH218142   3.050   7.076   1.583
 6086TIP3    H118143   2.969   7.127   1.562
 6086TIP3    H218144   3.094   7.073   1.496
 6087TIP3   OH218145   3.008   6.860   1.298
 6087TIP3    H118146   3.076   6.911   1.346
 6087TIP3    H218147   3.065   6.796   1.251
 6088TIP3   OH218148   3.954   7.321   2.171
 6088TIP3    H118149   3.870   7.371   2.175
 6088TIP3    H218150   3.983   7.343   2.080
 6089TIP3   OH218151   3.397   7.158   1.554
 6089TIP3    H118152   3.342   7.183   1.632
 6089TIP3    H218153   3.481   7.133   1.598
 6090TIP3   OH218154   3.632   7.198   2.465
 6090TIP3    H118155   3.627   7.282   2.514
 6090TIP3    H218156   3.545   7.199   2.420
 6091TIP3   OH218157   2.629   7.156   1.970
 6091TIP3    H118158   2.587   7.098   1.903
 6091TIP3    H218159   2.706   7.102   1.999
 6092TIP3   OH218160   2.760   7.568   2.119
 6092TIP3    H118161   2.737   7.527   2.034
 6092TIP3    H218162   2.849   7.533   2.136
 6093TIP3   OH218163   2.772   7.125   2.326
 6093TIP3    H118164   2.800   7.106   2.234
 6093TIP3    H218165   2.810   7.213   2.344
 6094TIP3   OH218166   3.293   7.765   2.102
 6094TIP3    H118167   3.277   7.844   2.156
 6094TIP3    H218168   3.276   7.692   2.165
 6095TIP3   OH218169   2.903   7.683   2.650
 6095TIP3    H118170   2.843   7.745   2.695
 6095TIP3    H218171   2.838   7.630   2.599
 6096TIP3   OH218172   3.238   7.015   1.380
 6096TIP3    H118173   3.296   7.076   1.431
 6096TIP3    H218174   3.264   7.039   1.287
 6097TIP3   OH218175   2.657   7.239   2.750
 6097TIP3    H118176   2.662   7.326   2.794
 6097TIP3    H218177   2.562   7.219   2.762
 6098TIP3   OH218178   2.982   7.694   1.656
 6098TIP3    H118179   3.059   7.750   1.672
 6098TIP3    H218180   2.919   7.756   1.616
 6099TIP3   OH218181   2.698   7.852   2.737
 6099TIP3    H118182   2.662   7.851   2.646
 6099TIP3    H218183   2.618   7.829   2.791
 6100TIP3   OH218184   3.753   6.257   1.429
 6100TIP3    H118185   3.672   6.277   1.479
 6100TIP3    H218186   3.766   6.340   1.379
 6101TIP3   OH218187   2.496   6.999   1.775
 6101TIP3    H118188   2.429   7.044   1.719
 6101TIP3    H218189   2.453   6.913   1.788
 6102TIP3   OH218190   3.552   7.624   0.976
 6102TIP3    H118191   3.560   7.721   0.962
 6102TIP3    H218192   3.645   7.595   0.964
 6103TIP3   OH218193   2.277   7.382   2.682
 6103TIP3    H118194   2.209   7.362   2.615
 6103TIP3    H218195   2.313   7.294   2.704
 6104TIP3   OH218196   2.130   7.576   2.315
 6104TIP3    H118197   2.226   7.573   2.308
 6104TIP3    H218198   2.116   7.655   2.369
 6105TIP3   OH218199   3.998   8.029   2.373
 6105TIP3    H118200   3.993   7.932   2.383
 6105TIP3    H218201   3.913   8.054   2.417
 6106TIP3   OH218202   3.102   7.811   2.507
 6106TIP3    H118203   3.100   7.904   2.539
 6106TIP3    H218204   3.029   7.772   2.560
 6107TIP3   OH218205   2.863   7.942   1.457
 6107TIP3    H118206   2.814   7.924   1.375
 6107TIP3    H218207   2.829   8.030   1.483
 6108TIP3   OH218208   2.300   7.791   1.841
 6108TIP3    H118209   2.346   7.781   1.927
 6108TIP3    H218210   2.243   7.713   1.842
 6109TIP3   OH218211   3.063   7.843   1.097
 6109TIP3    H118212   3.122   7.773   1.061
 6109TIP3    H218213   3.097   7.852   1.189
 6110TIP3   OH218214   3.114   7.891   1.367
 6110TIP3    H118215   3.025   7.901   1.408
 6110TIP3    H218216   3.163   7.849   1.440
 6111TIP3   OH218217   3.886   7.159   2.644
 6111TIP3    H118218   3.803   7.172   2.595
 6111TIP3    H218219   3.900   7.063   2.634
 6112TIP3   OH218220   2.482   7.565   2.671
 6112TIP3    H118221   2.530   7.549   2.754
 6112TIP3    H218222   2.407   7.502   2.679
 6113TIP3   OH218223   2.882   6.389   2.456
 6113TIP3    H118224   2.793   6.358   2.428
 6113TIP3    H218225   2.856   6.471   2.501
 6114TIP3   OH218226   3.414   6.504   2.650
 6114TIP3    H118227   3.481   6.477   2.715
 6114TIP3    H218228   3.329   6.485   2.695
 6115TIP3   OH218229   3.657   6.935   2.571
 6115TIP3    H118230   3.604   6.930   2.654
 6115TIP3    H218231   3.629   7.020   2.533
 6116TIP3   OH218232   3.314   7.062   1.125
 6116TIP3    H118233   3.280   7.037   1.037
 6116TIP3    H218234   3.395   7.111   1.099
 6117TIP3   OH218235   3.027   6.437   1.427
 6117TIP3    H118236   2.993   6.434   1.518
 6117TIP3    H218237   2.987   6.355   1.392
 6118TIP3   OH218238   2.814   6.903   2.475
 6118TIP3    H118239   2.761   6.924   2.555
 6118TIP3    H218240   2.799   6.984   2.421
 6119TIP3   OH218241   2.697   6.790   1.988
 6119TIP3    H118242   2.604   6.765   2.006
 6119TIP3    H218243   2.709   6.750   1.899
 6120TIP3   OH218244   3.188   6.877   1.716
 6120TIP3    H118245   3.135   6.948   1.674
 6120TIP3    H218246   3.241   6.845   1.641
 6121TIP3   OH218247   3.362   7.154   2.802
 6121TIP3    H118248   3.338   7.082   2.864
 6121TIP3    H218249   3.455   7.168   2.824
 6122TIP3   OH218250   3.345   6.905   1.955
 6122TIP3    H118251   3.284   6.935   1.884
 6122TIP3    H218252   3.378   6.824   1.911
 6123TIP3   OH218253   2.634   6.933   2.682
 6123TIP3    H118254   2.650   6.999   2.751
 6123TIP3    H218255   2.620   6.852   2.734
 6124TIP3   OH218256   2.682   6.411   1.393
 6124TIP3    H118257   2.672   6.408   1.490
 6124TIP3    H218258   2.603   6.463   1.368
 6125TIP3   OH218259   2.224   6.455   2.264
 6125TIP3    H118260   2.300   6.486   2.316
 6125TIP3    H218261   2.264   6.423   2.182
 6126TIP3   OH218262   2.198   6.437   1.782
 6126TIP3    H118263   2.243   6.475   1.704
 6126TIP3    H218264   2.136   6.510   1.803
 6127TIP3   OH218265   3.358   7.151   2.378
 6127TIP3    H118266   3.389   7.078   2.319
 6127TIP3    H218267   3.326   7.098   2.454
 6128TIP3   OH218268   3.025   6.612   2.050
 6128TIP3    H118269   2.941   6.611   2.100
 6128TIP3    H218270   3.090   6.613   2.121
 6129TIP3   OH218271   2.458   6.669   2.057
 6129TIP3    H118272   2.363   6.677   2.030
 6129TIP3    H218273   2.479   6.577   2.034
 6130TIP3   OH218274   2.728   6.665   1.746
 6130TIP3    H118275   2.821   6.680   1.722
 6130TIP3    H218276   2.679   6.687   1.663
 6131TIP3   OH218277   3.516   6.687   2.251
 6131TIP3    H118278   3.482   6.700   2.342
 6131TIP3    H218279   3.449   6.627   2.215
 6132TIP3   OH218280   2.570   6.697   1.525
 6132TIP3    H118281   2.497   6.654   1.479
 6132TIP3    H218282   2.621   6.733   1.450
 6133TIP3   OH218283   3.687   8.376   2.470
 6133TIP3    H118284   3.683   8.400   2.375
 6133TIP3    H218285   3.763   8.427   2.500
 6134TIP3   OH218286   2.644   7.486   2.891
 6134TIP3    H118287   2.722   7.518   2.941
 6134TIP3    H218288   2.578   7.484   2.962
 6135TIP3   OH218289   3.107   6.941   2.147
 6135TIP3    H118290   3.179   6.901   2.097
 6135TIP3    H218291   3.115   6.898   2.234
 6136TIP3   OH218292   2.632   6.428   2.026
 6136TIP3    H118293   2.595   6.349   2.072
 6136TIP3    H218294   2.677   6.388   1.950
 6137TIP3   OH218295   3.083   6.837   2.437
 6137TIP3    H118296   2.993   6.872   2.450
 6137TIP3    H218297   3.139   6.900   2.487
 6138TIP3   OH218298   2.821   7.228   1.532
 6138TIP3    H118299   2.749   7.163   1.521
 6138TIP3    H218300   2.802   7.262   1.623
 6139TIP3   OH218301   3.720   7.464   2.161
 6139TIP3    H118302   3.743   7.514   2.080
 6139TIP3    H218303   3.635   7.422   2.137
 6140TIP3   OH218304   3.278   6.540   1.394
 6140TIP3    H118305   3.182   6.522   1.402
 6140TIP3    H218306   3.286   6.635   1.418
 6141TIP3   OH218307   3.225   7.549   2.528
 6141TIP3    H118308   3.238   7.524   2.620
 6141TIP3    H218309   3.180   7.636   2.535
 6142TIP3   OH218310   3.347   6.788   1.498
 6142TIP3    H118311   3.444   6.795   1.513
 6142TIP3    H218312   3.328   6.868   1.445
 6143TIP3   OH218313   2.515   7.253   2.208
 6143TIP3    H118314   2.551   7.222   2.123
 6143TIP3    H218315   2.549   7.186   2.270
 6144TIP3   OH218316   2.965   7.378   1.353
 6144TIP3    H118317   2.917   7.464   1.358
 6144TIP3    H218318   2.910   7.323   1.413
 6145TIP3   OH218319   2.395   7.167   2.818
 6145TIP3    H118320   2.410   7.156   2.914
 6145TIP3    H218321   2.322   7.105   2.803
 6146TIP3   OH218322   3.118   7.285   2.840
 6146TIP3    H118323   3.056   7.226   2.794
 6146TIP3    H218324   3.204   7.250   2.810
 6147TIP3   OH218325   3.381   7.807   2.423
 6147TIP3    H118326   3.285   7.803   2.436
 6147TIP3    H218327   3.408   7.858   2.503
 6148TIP3   OH218328   3.791   6.879   1.333
 6148TIP3    H118329   3.728   6.834   1.271
 6148TIP3    H218330   3.787   6.968   1.292
 6149TIP3   OH218331   4.011   7.739   2.413
 6149TIP3    H118332   3.913   7.732   2.406
 6149TIP3    H218333   4.036   7.706   2.323
 6150TIP3   OH218334   3.492   7.697   1.242
 6150TIP3    H118335   3.464   7.627   1.303
 6150TIP3    H218336   3.502   7.650   1.157
 6151TIP3   OH218337   3.487   7.326   2.081
 6151TIP3    H118338   3.393   7.301   2.093
 6151TIP3    H218339   3.520   7.246   2.034
 6152TIP3   OH218340   2.613   7.554   1.831
 6152TIP3    H118341   2.611   7.636   1.778
 6152TIP3    H218342   2.519   7.537   1.843
 6153TIP3   OH218343   2.177   6.858   1.536
 6153TIP3    H118344   2.222   6.943   1.556
 6153TIP3    H218345   2.100   6.863   1.596
 6154TIP3   OH218346   2.752   7.320   1.777
 6154TIP3    H118347   2.716   7.409   1.794
 6154TIP3    H218348   2.715   7.270   1.851
 6155TIP3   OH218349   2.882   7.898   2.301
 6155TIP3    H118350   2.923   7.971   2.250
 6155TIP3    H218351   2.959   7.864   2.349
 6156TIP3   OH218352   2.533   7.793   1.685
 6156TIP3    H118353   2.447   7.801   1.731
 6156TIP3    H218354   2.564   7.886   1.687
 6157TIP3   OH218355   3.271   7.532   2.260
 6157TIP3    H118356   3.262   7.531   2.358
 6157TIP3    H218357   3.350   7.477   2.247
 6158TIP3   OH218358   3.245   7.425   1.142
 6158TIP3    H118359   3.297   7.400   1.222
 6158TIP3    H218360   3.156   7.398   1.170
 6159TIP3   OH218361   3.520   8.066   2.310
 6159TIP3    H118362   3.441   8.009   2.304
 6159TIP3    H218363   3.504   8.130   2.238
 6160TIP3   OH218364   3.585   7.900   0.962
 6160TIP3    H118365   3.624   7.972   0.911
 6160TIP3    H218366   3.505   7.945   0.995
 6161TIP3   OH218367   2.603   6.676   2.829
 6161TIP3    H118368   2.507   6.682   2.842
 6161TIP3    H218369   2.629   6.616   2.901
 6162TIP3   OH218370   3.405   7.358   1.359
 6162TIP3    H118371   3.395   7.293   1.430
 6162TIP3    H218372   3.503   7.356   1.347
 6163TIP3   OH218373   2.323   7.761   2.459
 6163TIP3    H118374   2.373   7.684   2.492
 6163TIP3    H218375   2.346   7.828   2.524
 6164TIP3   OH218376   2.612   7.406   1.142
 6164TIP3    H118377   2.624   7.313   1.113
 6164TIP3    H218378   2.593   7.394   1.237
 6165TIP3   OH218379   2.558   7.411   1.413
 6165TIP3    H118380   2.627   7.383   1.475
 6165TIP3    H218381   2.561   7.509   1.421
 6166TIP3   OH218382   2.293   7.105   1.618
 6166TIP3    H118383   2.226   7.148   1.675
 6166TIP3    H218384   2.305   7.174   1.550
 6167TIP3   OH218385   3.442   6.741   2.510
 6167TIP3    H118386   3.522   6.777   2.552
 6167TIP3    H218387   3.426   6.660   2.563
 6168TIP3   OH218388   3.322   6.491   1.675
 6168TIP3    H118389   3.307   6.514   1.581
 6168TIP3    H218390   3.360   6.574   1.710
 6169TIP3   OH218391   2.824   7.609   1.363
 6169TIP3    H118392   2.736   7.634   1.400
 6169TIP3    H218393   2.838   7.681   1.301
 6170TIP3   OH218394   3.013   6.671   1.777
 6170TIP3    H118395   3.076   6.744   1.760
 6170TIP3    H218396   3.016   6.665   1.875
 6171TIP3   OH218397   3.280   6.990   2.584
 6171TIP3    H118398   3.299   7.044   2.663
 6171TIP3    H218399   3.334   6.911   2.599
 6172TIP3   OH218400   3.155   6.399   1.881
 6172TIP3    H118401   3.144   6.478   1.937
 6172TIP3    H218402   3.216   6.434   1.811
 6173TIP3   OH218403   2.567   7.683   1.431
 6173TIP3    H118404   2.536   7.752   1.369
 6173TIP3    H218405   2.550   7.726   1.518
 6174TIP3   OH218406   2.666   6.397   1.669
 6174TIP3    H118407   2.664   6.487   1.705
 6174TIP3    H218408   2.762   6.379   1.677
 6175TIP3   OH218409   3.922   6.890   2.564
 6175TIP3    H118410   3.824   6.891   2.574
 6175TIP3    H218411   3.929   6.846   2.478
 6176TIP3   OH218412   3.572   7.084   1.954
 6176TIP3    H118413   3.495   7.025   1.965
 6176TIP3    H218414   3.642   7.036   2.002
 6177TIP3   OH218415   2.284   7.312   1.424
 6177TIP3    H118416   2.349   7.385   1.432
 6177TIP3    H218417   2.330   7.258   1.356
 6178TIP3   OH218418   2.228   6.589   1.556
 6178TIP3    H118419   2.228   6.687   1.553
 6178TIP3    H218420   2.144   6.567   1.516
 6179TIP3   OH218421   3.540   8.041   1.904
 6179TIP3    H118422   3.497   8.087   1.829
 6179TIP3    H218423   3.634   8.059   1.882
 6180TIP3   OH218424   2.618   6.309   2.429
 6180TIP3    H118425   2.585   6.276   2.343
 6180TIP3    H218426   2.605   6.230   2.487
 6181TIP3   OH218427   2.155   7.529   1.810
 6181TIP3    H118428   2.085   7.557   1.870
 6181TIP3    H218429   2.125   7.569   1.726
 6182TIP3   OH218430   2.311   8.069   2.882
 6182TIP3    H118431   2.396   8.067   2.929
 6182TIP3    H218432   2.286   7.975   2.883
 6183TIP3   OH218433   2.795   8.033   2.926
 6183TIP3    H118434   2.889   8.012   2.932
 6183TIP3    H218435   2.766   7.974   2.854
 6184TIP3   OH218436   2.775   7.609   1.055
 6184TIP3    H118437   2.718   7.538   1.093
 6184TIP3    H218438   2.850   7.556   1.024
 6185TIP3   OH218439   3.433   7.940   2.659
 6185TIP3    H118440   3.424   7.870   2.728
 6185TIP3    H218441   3.509   7.992   2.693
 6186TIP3   OH218442   3.211   7.650   0.967
 6186TIP3    H118443   3.254   7.585   1.026
 6186TIP3    H218444   3.268   7.648   0.887
 6187TIP3   OH218445   2.444   7.476   3.081
 6187TIP3    H118446   2.456   7.380   3.090
 6187TIP3    H218447   2.354   7.480   3.041
 6188TIP3   OH218448   2.420   7.127   1.275
 6188TIP3    H118449   2.474   7.094   1.348
 6188TIP3    H218450   2.487   7.131   1.204
 6189TIP3   OH218451   3.052   7.561   2.855
 6189TIP3    H118452   3.006   7.578   2.770
 6189TIP3    H218453   3.079   7.467   2.847
 6190TIP3   OH218454   2.931   7.326   1.083
 6190TIP3    H118455   2.932   7.337   1.180
 6190TIP3    H218456   2.929   7.228   1.077
 6191TIP3   OH218457   3.544   7.567   2.464
 6191TIP3    H118458   3.616   7.615   2.418
 6191TIP3    H218459   3.470   7.629   2.451
 6192TIP3   OH218460   2.562   7.209   3.065
 6192TIP3    H118461   2.636   7.150   3.047
 6192TIP3    H218462   2.587   7.244   3.154
 6193TIP3   OH218463   2.630   7.030   1.500
 6193TIP3    H118464   2.599   6.988   1.582
 6193TIP3    H218465   2.664   6.953   1.449
 6194TIP3   OH218466   2.899   7.097   2.729
 6194TIP3    H118467   2.818   7.153   2.730
 6194TIP3    H218468   2.946   7.130   2.649
 6195TIP3   OH218469   2.727   6.823   1.339
 6195TIP3    H118470   2.701   6.827   1.244
 6195TIP3    H218471   2.825   6.828   1.331
 6196TIP3   OH218472   3.414   7.497   2.862
 6196TIP3    H118473   3.491   7.469   2.811
 6196TIP3    H218474   3.409   7.429   2.931
 6197TIP3   OH218475   3.550   7.154   1.002
 6197TIP3    H118476   3.528   7.108   0.918
 6197TIP3    H218477   3.518   7.244   0.979
 6198TIP3   OH218478   3.022   6.883   2.851
 6198TIP3    H118479   3.019   6.803   2.794
 6198TIP3    H218480   2.977   6.950   2.794
 6199TIP3   OH218481   3.023   6.667   2.659
 6199TIP3    H118482   3.049   6.710   2.575
 6199TIP3    H218483   2.928   6.645   2.642
 6200TIP3   OH218484   3.050   7.206   2.533
 6200TIP3    H118485   3.132   7.215   2.482
 6200TIP3    H218486   2.991   7.271   2.489
 6201TIP3   OH218487   3.631   7.171   2.914
 6201TIP3    H118488   3.680   7.088   2.924
 6201TIP3    H218489   3.699   7.230   2.879
 6202TIP3   OH218490   3.673   7.425   2.653
 6202TIP3    H118491   3.614   7.477   2.593
 6202TIP3    H218492   3.760   7.444   2.611
 6203TIP3   OH218493   2.901   6.992   3.084
 6203TIP3    H118494   2.830   6.926   3.098
 6203TIP3    H218495   2.932   6.969   2.995
 6204TIP3   OH218496   3.154   6.432   2.727
 6204TIP3    H118497   3.105   6.514   2.704
 6204TIP3    H218498   3.085   6.364   2.715
 6205TIP3   OH218499   3.281   6.936   2.943
 6205TIP3    H118500   3.266   6.924   3.038
 6205TIP3    H218501   3.191   6.912   2.910
 6206TIP3   OH218502   3.519   6.885   2.798
 6206TIP3    H118503   3.443   6.888   2.859
 6206TIP3    H218504   3.592   6.855   2.856
 6207TIP3   OH218505   3.752   6.827   2.949
 6207TIP3    H118506   3.762   6.731   2.967
 6207TIP3    H218507   3.746   6.866   3.038
 6208TIP3   OH218508   2.737   6.774   3.135
 6208TIP3    H118509   2.741   6.683   3.101
 6208TIP3    H218510   2.771   6.762   3.226
 6209TIP3   OH218511   3.249   6.440   2.985
 6209TIP3    H118512   3.315   6.369   2.976
 6209TIP3    H218513   3.208   6.437   2.896
 6210TIP3   OH218514   3.314   6.656   3.144
 6210TIP3    H118515   3.292   6.586   3.079
 6210TIP3    H218516   3.237   6.716   3.138
 6211TIP3   OH218517   2.536   7.888   1.245
 6211TIP3    H118518   2.631   7.882   1.224
 6211TIP3    H218519   2.504   7.935   1.166
 6212TIP3   OH218520   2.016   7.267   1.460
 6212TIP3    H118521   2.110   7.288   1.446
 6212TIP3    H218522   2.008   7.179   1.418
 6213TIP3   OH218523   1.930   7.882   1.872
 6213TIP3    H118524   1.863   7.820   1.836
 6213TIP3    H218525   1.975   7.824   1.938
 6214TIP3   OH218526   2.066   7.733   2.059
 6214TIP3    H118527   2.050   7.659   2.120
 6214TIP3    H218528   2.116   7.793   2.117
 6215TIP3   OH218529   3.794   8.129   1.860
 6215TIP3    H118530   3.819   8.166   1.946
 6215TIP3    H218531   3.852   8.176   1.799
 6216TIP3   OH218532   3.821   8.153   2.142
 6216TIP3    H118533   3.776   8.066   2.136
 6216TIP3    H218534   3.897   8.129   2.197
 6217TIP3   OH218535   3.870   7.827   2.716
 6217TIP3    H118536   3.795   7.835   2.779
 6217TIP3    H218537   3.908   7.917   2.718
 6218TIP3   OH218538   3.685   7.341   1.335
 6218TIP3    H118539   3.752   7.405   1.306
 6218TIP3    H218540   3.729   7.302   1.414
 6219TIP3   OH218541   3.813   7.208   1.539
 6219TIP3    H118542   3.746   7.166   1.597
 6219TIP3    H218543   3.876   7.247   1.603
 6220TIP3   OH218544   3.869   7.602   1.973
 6220TIP3    H118545   3.919   7.536   1.921
 6220TIP3    H218546   3.860   7.675   1.910
 6221TIP3   OH218547   3.698   7.901   2.167
 6221TIP3    H118548   3.626   7.944   2.217
 6221TIP3    H218549   3.649   7.854   2.096
 6222TIP3   OH218550   3.751   7.116   1.185
 6222TIP3    H118551   3.679   7.119   1.117
 6222TIP3    H218552   3.722   7.192   1.240
 6223TIP3   OH218553   3.623   6.789   1.139
 6223TIP3    H118554   3.578   6.828   1.063
 6223TIP3    H218555   3.597   6.695   1.130
 6224TIP3   OH218556   3.627   7.065   1.685
 6224TIP3    H118557   3.633   6.969   1.678
 6224TIP3    H218558   3.612   7.079   1.781
 6225TIP3   OH218559   2.253   7.136   2.433
 6225TIP3    H118560   2.250   7.106   2.339
 6225TIP3    H218561   2.350   7.138   2.448
 6226TIP3   OH218562   3.916   7.489   2.543
 6226TIP3    H118563   3.989   7.424   2.532
 6226TIP3    H218564   3.937   7.556   2.475
 6227TIP3   OH218565   4.104   7.296   2.560
 6227TIP3    H118566   4.027   7.248   2.597
 6227TIP3    H218567   4.174   7.230   2.574
 6228TIP3   OH218568   3.565   6.523   1.125
 6228TIP3    H118569   3.638   6.492   1.181
 6228TIP3    H218570   3.491   6.465   1.148
 6229TIP3   OH218571   3.623   6.782   1.580
 6229TIP3    H118572   3.663   6.693   1.596
 6229TIP3    H218573   3.681   6.814   1.509
 6230TIP3   OH218574   3.785   6.954   2.075
 6230TIP3    H118575   3.871   6.980   2.035
 6230TIP3    H218576   3.798   6.992   2.165
 6231TIP3   OH218577   3.854   7.100   2.307
 6231TIP3    H118578   3.775   7.133   2.355
 6231TIP3    H218579   3.885   7.181   2.262
 6232TIP3   OH218580   2.469   6.824   3.105
 6232TIP3    H118581   2.567   6.818   3.108
 6232TIP3    H218582   2.445   6.739   3.148
 6233TIP3   OH218583   4.305   6.691   2.863
 6233TIP3    H118584   4.364   6.625   2.820
 6233TIP3    H218585   4.276   6.745   2.786
 6234TIP3   OH218586   3.732   6.531   1.618
 6234TIP3    H118587   3.779   6.515   1.702
 6234TIP3    H218588   3.671   6.455   1.616
 6235TIP3   OH218589   2.432   6.517   2.436
 6235TIP3    H118590   2.495   6.442   2.446
 6235TIP3    H218591   2.494   6.592   2.431
 6236TIP3   OH218592   2.235   6.790   2.512
 6236TIP3    H118593   2.284   6.786   2.427
 6236TIP3    H218594   2.258   6.878   2.543
 6237TIP3   OH218595   4.176   6.831   2.668
 6237TIP3    H118596   4.089   6.871   2.687
 6237TIP3    H218597   4.147   6.758   2.609
 6238TIP3   OH218598   3.813   6.466   1.251
 6238TIP3    H118599   3.852   6.394   1.197
 6238TIP3    H218600   3.880   6.536   1.243
 6239TIP3   OH218601   2.218   6.296   2.012
 6239TIP3    H118602   2.124   6.291   2.038
 6239TIP3    H218603   2.214   6.354   1.933
 6240TIP3   OH218604   3.378   7.998   1.517
 6240TIP3    H118605   3.428   7.984   1.434
 6240TIP3    H218606   3.430   8.066   1.561
 6241TIP3   OH218607   2.438   6.372   2.825
 6241TIP3    H118608   2.387   6.370   2.908
 6241TIP3    H218609   2.373   6.413   2.765
 6242TIP3   OH218610   2.478   7.801   2.905
 6242TIP3    H118611   2.386   7.776   2.885
 6242TIP3    H218612   2.483   7.782   3.000
 6243TIP3   OH218613   2.657   7.834   2.451
 6243TIP3    H118614   2.606   7.908   2.412
 6243TIP3    H218615   2.742   7.849   2.405
 6244TIP3   OH218616   3.101   8.077   2.587
 6244TIP3    H118617   3.142   8.080   2.676
 6244TIP3    H218618   3.166   8.130   2.536
 6245TIP3   OH218619   3.279   8.231   2.447
 6245TIP3    H118620   3.349   8.180   2.404
 6245TIP3    H218621   3.331   8.288   2.508
 6246TIP3   OH218622   4.074   6.593   2.547
 6246TIP3    H118623   3.984   6.587   2.511
 6246TIP3    H218624   4.105   6.500   2.535
 6247TIP3   OH218625   2.333   8.094   2.472
 6247TIP3    H118626   2.244   8.127   2.449
 6247TIP3    H218627   2.339   8.123   2.563
 6248TIP3   OH218628   2.570   8.070   2.331
 6248TIP3    H118629   2.483   8.083   2.376
 6248TIP3    H218630   2.549   8.103   2.241
 6249TIP3   OH218631   2.995   8.099   2.129
 6249TIP3    H118632   2.925   8.117   2.064
 6249TIP3    H218633   3.006   8.187   2.170
 6250TIP3   OH218634   3.263   8.039   2.181
 6250TIP3    H118635   3.169   8.055   2.162
 6250TIP3    H218636   3.305   8.114   2.137
 6251TIP3   OH218637   3.473   8.231   2.096
 6251TIP3    H118638   3.457   8.315   2.048
 6251TIP3    H218639   3.497   8.170   2.023
 6252TIP3   OH218640   2.245   7.887   2.219
 6252TIP3    H118641   2.271   7.859   2.309
 6252TIP3    H218642   2.316   7.841   2.168
 6253TIP3   OH218643   2.437   7.756   2.075
 6253TIP3    H118644   2.452   7.673   2.125
 6253TIP3    H218645   2.528   7.793   2.071
 6254TIP3   OH218646   2.704   7.851   2.077
 6254TIP3    H118647   2.735   7.760   2.066
 6254TIP3    H218648   2.747   7.873   2.162
 6255TIP3   OH218649   3.282   6.509   2.170
 6255TIP3    H118650   3.236   6.439   2.219
 6255TIP3    H218651   3.350   6.459   2.121
 6256TIP3   OH218652   3.803   6.390   2.073
 6256TIP3    H118653   3.839   6.440   1.997
 6256TIP3    H218654   3.707   6.405   2.064
 6257TIP3   OH218655   3.897   6.487   1.835
 6257TIP3    H118656   3.970   6.436   1.794
 6257TIP3    H218657   3.930   6.579   1.820
 6258TIP3   OH218658   2.528   6.217   2.182
 6258TIP3    H118659   2.435   6.184   2.183
 6258TIP3    H218660   2.576   6.131   2.178
 6259TIP3   OH218661   2.316   6.086   1.831
 6259TIP3    H118662   2.344   6.144   1.757
 6259TIP3    H218663   2.286   6.151   1.897
 6260TIP3   OH218664   2.973   6.247   2.062
 6260TIP3    H118665   3.031   6.298   2.002
 6260TIP3    H218666   2.990   6.289   2.147
 6261TIP3   OH218667   3.522   6.395   2.045
 6261TIP3    H118668   3.515   6.358   1.956
 6261TIP3    H218669   3.507   6.315   2.101
 6262TIP3   OH218670   3.548   6.318   1.609
 6262TIP3    H118671   3.461   6.361   1.620
 6262TIP3    H218672   3.533   6.233   1.655
 6263TIP3   OH218673   2.032   7.656   1.608
 6263TIP3    H118674   1.946   7.622   1.575
 6263TIP3    H218675   2.022   7.749   1.584
 6264TIP3   OH218676   2.431   6.246   1.593
 6264TIP3    H118677   2.480   6.182   1.536
 6264TIP3    H218678   2.504   6.299   1.629
 6265TIP3   OH218679   2.944   6.421   1.691
 6265TIP3    H118680   3.003   6.373   1.752
 6265TIP3    H218681   2.966   6.513   1.717
 6266TIP3   OH218682   2.803   7.846   1.190
 6266TIP3    H118683   2.892   7.868   1.155
 6266TIP3    H218684   2.781   7.770   1.131
 6267TIP3   OH218685   3.523   7.964   1.284
 6267TIP3    H118686   3.515   7.866   1.272
 6267TIP3    H218687   3.477   7.996   1.204
 6268TIP3   OH218688   2.736   6.498   3.073
 6268TIP3    H118689   2.700   6.428   3.130
 6268TIP3    H218690   2.830   6.498   3.101
 6269TIP3   OH218691   2.985   6.494   3.193
 6269TIP3    H118692   3.069   6.469   3.153
 6269TIP3    H218693   2.972   6.423   3.259
 6270TIP3   OH218694   2.111   7.687   1.251
 6270TIP3    H118695   2.105   7.707   1.346
 6270TIP3    H218696   2.199   7.643   1.243
 6271TIP3   OH218697   3.810   6.555   2.980
 6271TIP3    H118698   3.829   6.525   3.071
 6271TIP3    H218699   3.899   6.551   2.939
 6272TIP3   OH218700   3.750   8.107   2.472
 6272TIP3    H118701   3.671   8.075   2.423
 6272TIP3    H218702   3.729   8.203   2.476
 6273TIP3   OH218703   5.015   7.481   1.238
 6273TIP3    H118704   4.986   7.572   1.216
 6273TIP3    H218705   4.939   7.431   1.203
 6274TIP3   OH218706   5.015   7.481   1.619
 6274TIP3    H118707   5.045   7.450   1.706
 6274TIP3    H218708   4.973   7.401   1.583
 6275TIP3   OH218709   4.314   7.377   1.985
 6275TIP3    H118710   4.345   7.308   2.047
 6275TIP3    H218711   4.394   7.428   1.972
 6276TIP3   OH218712   5.258   7.784   1.299
 6276TIP3    H118713   5.242   7.714   1.364
 6276TIP3    H218714   5.287   7.858   1.355
 6277TIP3   OH218715   4.287   7.786   1.712
 6277TIP3    H118716   4.277   7.688   1.713
 6277TIP3    H218717   4.383   7.794   1.700
 6278TIP3   OH218718   3.992   6.989   1.495
 6278TIP3    H118719   3.942   7.072   1.509
 6278TIP3    H218720   3.922   6.934   1.455
 6279TIP3   OH218721   4.052   7.277   1.667
 6279TIP3    H118722   4.100   7.199   1.702
 6279TIP3    H218723   4.108   7.303   1.593
 6280TIP3   OH218724   4.909   8.245   1.317
 6280TIP3    H118725   4.953   8.174   1.267
 6280TIP3    H218726   4.898   8.205   1.404
 6281TIP3   OH218727   4.812   7.706   1.669
 6281TIP3    H118728   4.850   7.630   1.621
 6281TIP3    H218729   4.896   7.751   1.692
 6282TIP3   OH218730   5.826   7.026   1.665
 6282TIP3    H118731   5.855   7.109   1.708
 6282TIP3    H218732   5.847   7.045   1.572
 6283TIP3   OH218733   5.225   7.208   1.700
 6283TIP3    H118734   5.267   7.122   1.720
 6283TIP3    H218735   5.194   7.193   1.609
 6284TIP3   OH218736   4.563   6.867   1.665
 6284TIP3    H118737   4.543   6.939   1.602
 6284TIP3    H218738   4.516   6.793   1.621
 6285TIP3   OH218739   5.257   6.960   1.288
 6285TIP3    H118740   5.331   6.943   1.352
 6285TIP3    H218741   5.308   6.994   1.212
 6286TIP3   OH218742   4.197   7.069   1.772
 6286TIP3    H118743   4.279   7.048   1.819
 6286TIP3    H218744   4.209   7.013   1.692
 6287TIP3   OH218745   4.637   7.266   1.567
 6287TIP3    H118746   4.731   7.241   1.578
 6287TIP3    H218747   4.598   7.183   1.533
 6288TIP3   OH218748   5.899   7.233   1.836
 6288TIP3    H118749   5.816   7.281   1.817
 6288TIP3    H218750   5.917   7.264   1.926
 6289TIP3   OH218751   4.560   6.851   2.100
 6289TIP3    H118752   4.500   6.887   2.032
 6289TIP3    H218753   4.507   6.869   2.181
 6290TIP3   OH218754   4.909   7.704   1.106
 6290TIP3    H118755   4.864   7.682   1.023
 6290TIP3    H218756   4.863   7.786   1.132
 6291TIP3   OH218757   4.667   7.626   1.895
 6291TIP3    H118758   4.604   7.693   1.931
 6291TIP3    H218759   4.708   7.675   1.821
 6292TIP3   OH218760   5.468   6.960   1.460
 6292TIP3    H118761   5.457   6.913   1.543
 6292TIP3    H218762   5.521   7.037   1.487
 6293TIP3   OH218763   4.431   6.965   1.884
 6293TIP3    H118764   4.494   7.037   1.906
 6293TIP3    H218765   4.479   6.924   1.808
 6294TIP3   OH218766   4.495   7.821   1.995
 6294TIP3    H118767   4.469   7.904   1.952
 6294TIP3    H218768   4.414   7.804   2.048
 6295TIP3   OH218769   3.889   7.510   1.228
 6295TIP3    H118770   3.847   7.536   1.144
 6295TIP3    H218771   3.919   7.595   1.264
 6296TIP3   OH218772   5.328   8.026   1.469
 6296TIP3    H118773   5.238   8.017   1.508
 6296TIP3    H218774   5.320   8.111   1.423
 6297TIP3   OH218775   5.619   6.925   1.831
 6297TIP3    H118776   5.531   6.954   1.800
 6297TIP3    H218777   5.678   6.958   1.760
 6298TIP3   OH218778   4.917   6.569   1.814
 6298TIP3    H118779   4.902   6.474   1.830
 6298TIP3    H218780   4.839   6.607   1.860
 6299TIP3   OH218781   5.030   8.072   1.141
 6299TIP3    H118782   5.080   7.989   1.122
 6299TIP3    H218783   5.093   8.137   1.101
 6300TIP3   OH218784   5.175   7.857   1.046
 6300TIP3    H118785   5.129   7.779   1.012
 6300TIP3    H218786   5.211   7.823   1.131
 6301TIP3   OH218787   5.553   7.938   1.812
 6301TIP3    H118788   5.543   7.861   1.752
 6301TIP3    H218789   5.537   8.013   1.751
 6302TIP3   OH218790   4.845   7.333   1.071
 6302TIP3    H118791   4.765   7.384   1.048
 6302TIP3    H218792   4.891   7.327   0.986
 6303TIP3   OH218793   4.803   7.117   0.786
 6303TIP3    H118794   4.872   7.167   0.834
 6303TIP3    H218795   4.861   7.053   0.738
 6304TIP3   OH218796   5.749   7.574   1.656
 6304TIP3    H118797   5.666   7.627   1.661
 6304TIP3    H218798   5.779   7.599   1.566
 6305TIP3   OH218799   5.194   7.416   1.041
 6305TIP3    H118800   5.139   7.440   1.119
 6305TIP3    H218801   5.277   7.389   1.086
 6306TIP3   OH218802   5.428   7.454   1.953
 6306TIP3    H118803   5.425   7.538   2.002
 6306TIP3    H218804   5.342   7.457   1.907
 6307TIP3   OH218805   4.424   7.413   1.458
 6307TIP3    H118806   4.382   7.355   1.391
 6307TIP3    H218807   4.501   7.359   1.486
 6308TIP3   OH218808   4.553   7.821   1.608
 6308TIP3    H118809   4.533   7.785   1.520
 6308TIP3    H218810   4.644   7.787   1.623
 6309TIP3   OH218811   4.562   7.383   1.814
 6309TIP3    H118812   4.593   7.360   1.724
 6309TIP3    H218813   4.605   7.469   1.831
 6310TIP3   OH218814   5.087   8.022   1.589
 6310TIP3    H118815   5.073   8.101   1.643
 6310TIP3    H218816   5.072   7.948   1.652
 6311TIP3   OH218817   4.700   7.940   2.139
 6311TIP3    H118818   4.637   8.004   2.180
 6311TIP3    H218819   4.638   7.886   2.086
 6312TIP3   OH218820   5.030   7.272   0.873
 6312TIP3    H118821   5.091   7.332   0.921
 6312TIP3    H218822   5.053   7.295   0.779
 6313TIP3   OH218823   4.454   7.494   2.238
 6313TIP3    H118824   4.456   7.582   2.280
 6313TIP3    H218825   4.359   7.474   2.244
 6314TIP3   OH218826   4.776   7.952   1.149
 6314TIP3    H118827   4.854   8.009   1.160
 6314TIP3    H218828   4.716   8.006   1.096
 6315TIP3   OH218829   4.494   8.108   2.222
 6315TIP3    H118830   4.461   8.110   2.130
 6315TIP3    H218831   4.414   8.082   2.272
 6316TIP3   OH218832   5.550   6.512   0.917
 6316TIP3    H118833   5.468   6.535   0.964
 6316TIP3    H218834   5.566   6.594   0.864
 6317TIP3   OH218835   4.290   7.256   1.265
 6317TIP3    H118836   4.226   7.301   1.206
 6317TIP3    H218837   4.250   7.169   1.273
 6318TIP3   OH218838   4.073   7.640   2.169
 6318TIP3    H118839   4.005   7.620   2.101
 6318TIP3    H218840   4.108   7.551   2.190
 6319TIP3   OH218841   3.926   7.831   1.804
 6319TIP3    H118842   4.022   7.828   1.793
 6319TIP3    H218843   3.914   7.913   1.855
 6320TIP3   OH218844   5.791   8.283   1.858
 6320TIP3    H118845   5.790   8.187   1.871
 6320TIP3    H218846   5.708   8.308   1.904
 6321TIP3   OH218847   4.899   8.068   1.995
 6321TIP3    H118848   4.897   8.161   2.025
 6321TIP3    H218849   4.825   8.029   2.047
 6322TIP3   OH218850   4.659   8.198   0.942
 6322TIP3    H118851   4.615   8.177   0.858
 6322TIP3    H218852   4.625   8.286   0.963
 6323TIP3   OH218853   4.095   8.048   1.329
 6323TIP3    H118854   4.143   8.038   1.414
 6323TIP3    H218855   4.039   7.969   1.331
 6324TIP3   OH218856   4.854   8.096   0.603
 6324TIP3    H118857   4.912   8.034   0.559
 6324TIP3    H218858   4.892   8.103   0.693
 6325TIP3   OH218859   4.914   8.146   0.866
 6325TIP3    H118860   4.821   8.155   0.899
 6325TIP3    H218861   4.956   8.103   0.942
 6326TIP3   OH218862   5.680   7.413   2.133
 6326TIP3    H118863   5.600   7.425   2.080
 6326TIP3    H218864   5.696   7.317   2.123
 6327TIP3   OH218865   4.275   7.825   2.158
 6327TIP3    H118866   4.326   7.803   2.239
 6327TIP3    H218867   4.202   7.759   2.162
 6328TIP3   OH218868   4.677   6.645   1.942
 6328TIP3    H118869   4.588   6.614   1.915
 6328TIP3    H218870   4.652   6.728   1.988
 6329TIP3   OH218871   5.211   6.761   2.137
 6329TIP3    H118872   5.279   6.733   2.201
 6329TIP3    H218873   5.127   6.740   2.183
 6330TIP3   OH218874   5.450   7.189   2.054
 6330TIP3    H118875   5.400   7.187   2.139
 6330TIP3    H218876   5.426   7.277   2.019
 6331TIP3   OH218877   5.100   7.324   0.621
 6331TIP3    H118878   5.066   7.293   0.535
 6331TIP3    H218879   5.187   7.362   0.595
 6332TIP3   OH218880   4.818   6.695   0.912
 6332TIP3    H118881   4.787   6.691   1.005
 6332TIP3    H218882   4.781   6.611   0.879
 6333TIP3   OH218883   4.610   7.161   1.962
 6333TIP3    H118884   4.557   7.181   2.042
 6333TIP3    H218885   4.594   7.241   1.908
 6334TIP3   OH218886   4.493   7.047   1.475
 6334TIP3    H118887   4.400   7.021   1.492
 6334TIP3    H218888   4.506   7.007   1.386
 6335TIP3   OH218889   4.984   7.133   1.203
 6335TIP3    H118890   4.931   7.204   1.160
 6335TIP3    H218891   5.038   7.101   1.128
 6336TIP3   OH218892   5.158   7.413   2.291
 6336TIP3    H118893   5.136   7.338   2.351
 6336TIP3    H218894   5.253   7.424   2.310
 6337TIP3   OH218895   5.140   7.162   1.441
 6337TIP3    H118896   5.080   7.191   1.370
 6337TIP3    H218897   5.174   7.081   1.399
 6338TIP3   OH218898   4.429   7.190   2.169
 6338TIP3    H118899   4.454   7.253   2.238
 6338TIP3    H218900   4.416   7.107   2.220
 6339TIP3   OH218901   4.475   6.665   0.881
 6339TIP3    H118902   4.467   6.664   0.978
 6339TIP3    H218903   4.398   6.719   0.856
 6340TIP3   OH218904   4.020   6.712   1.751
 6340TIP3    H118905   4.097   6.743   1.803
 6340TIP3    H218906   4.059   6.680   1.669
 6341TIP3   OH218907   3.994   6.693   1.270
 6341TIP3    H118908   4.039   6.731   1.191
 6341TIP3    H218909   3.932   6.766   1.290
 6342TIP3   OH218910   5.151   7.407   1.865
 6342TIP3    H118911   5.184   7.336   1.806
 6342TIP3    H218912   5.121   7.354   1.941
 6343TIP3   OH218913   4.821   6.869   1.537
 6343TIP3    H118914   4.738   6.867   1.588
 6343TIP3    H218915   4.888   6.868   1.607
 6344TIP3   OH218916   4.254   6.925   1.545
 6344TIP3    H118917   4.159   6.933   1.517
 6344TIP3    H218918   4.276   6.833   1.521
 6345TIP3   OH218919   4.524   6.922   1.233
 6345TIP3    H118920   4.617   6.936   1.210
 6345TIP3    H218921   4.476   6.944   1.149
 6346TIP3   OH218922   5.312   6.945   1.739
 6346TIP3    H118923   5.276   6.957   1.830
 6346TIP3    H218924   5.246   6.884   1.702
 6347TIP3   OH218925   4.365   6.954   1.012
 6347TIP3    H118926   4.294   6.910   0.963
 6347TIP3    H218927   4.418   6.991   0.938
 6348TIP3   OH218928   5.482   8.634   1.957
 6348TIP3    H118929   5.480   8.656   1.862
 6348TIP3    H218930   5.562   8.681   1.987
 6349TIP3   OH218931   4.438   7.743   2.375
 6349TIP3    H118932   4.516   7.770   2.425
 6349TIP3    H218933   4.371   7.739   2.446
 6350TIP3   OH218934   4.903   7.197   1.633
 6350TIP3    H118935   4.975   7.159   1.582
 6350TIP3    H218936   4.913   7.153   1.720
 6351TIP3   OH218937   4.427   6.685   1.512
 6351TIP3    H118938   4.392   6.606   1.558
 6351TIP3    H218939   4.474   6.646   1.437
 6352TIP3   OH218940   4.880   7.092   1.925
 6352TIP3    H118941   4.790   7.129   1.937
 6352TIP3    H218942   4.936   7.155   1.974
 6353TIP3   OH218943   4.616   7.486   1.018
 6353TIP3    H118944   4.544   7.420   1.006
 6353TIP3    H218945   4.597   7.519   1.110
 6354TIP3   OH218946   5.516   7.721   1.648
 6354TIP3    H118947   5.541   7.771   1.566
 6354TIP3    H218948   5.432   7.679   1.622
 6355TIP3   OH218949   5.074   6.791   0.889
 6355TIP3    H118950   4.976   6.778   0.889
 6355TIP3    H218951   5.083   6.888   0.901
 6356TIP3   OH218952   5.014   7.802   2.014
 6356TIP3    H118953   5.041   7.782   2.105
 6356TIP3    H218954   4.979   7.892   2.021
 6357TIP3   OH218955   5.144   7.045   0.987
 6357TIP3    H118956   5.240   7.051   0.998
 6357TIP3    H218957   5.123   7.123   0.931
 6358TIP3   OH218958   4.310   7.509   1.694
 6358TIP3    H118959   4.346   7.480   1.608
 6358TIP3    H218960   4.348   7.443   1.754
 6359TIP3   OH218961   4.763   7.635   0.841
 6359TIP3    H118962   4.718   7.723   0.849
 6359TIP3    H218963   4.707   7.581   0.900
 6360TIP3   OH218964   4.188   7.426   2.306
 6360TIP3    H118965   4.203   7.408   2.401
 6360TIP3    H218966   4.117   7.361   2.285
 6361TIP3   OH218967   4.914   7.541   2.329
 6361TIP3    H118968   4.854   7.484   2.278
 6361TIP3    H218969   5.001   7.507   2.300
 6362TIP3   OH218970   5.177   8.062   1.913
 6362TIP3    H118971   5.080   8.061   1.924
 6362TIP3    H218972   5.204   8.115   1.990
 6363TIP3   OH218973   5.584   7.131   0.821
 6363TIP3    H118974   5.524   7.089   0.755
 6363TIP3    H218975   5.582   7.222   0.783
 6364TIP3   OH218976   5.804   7.993   1.901
 6364TIP3    H118977   5.706   7.987   1.892
 6364TIP3    H218978   5.830   7.963   1.811
 6365TIP3   OH218979   5.297   7.947   0.722
 6365TIP3    H118980   5.258   7.898   0.797
 6365TIP3    H218981   5.287   7.884   0.650
 6366TIP3   OH218982   5.282   7.583   1.568
 6366TIP3    H118983   5.188   7.557   1.579
 6366TIP3    H218984   5.316   7.503   1.521
 6367TIP3   OH218985   4.410   7.812   1.322
 6367TIP3    H118986   4.411   7.892   1.266
 6367TIP3    H218987   4.316   7.793   1.326
 6368TIP3   OH218988   3.973   7.115   1.022
 6368TIP3    H118989   4.019   7.199   1.042
 6368TIP3    H218990   3.896   7.120   1.083
 6369TIP3   OH218991   4.548   7.577   1.264
 6369TIP3    H118992   4.514   7.666   1.282
 6369TIP3    H218993   4.510   7.527   1.339
 6370TIP3   OH218994   4.678   8.155   1.789
 6370TIP3    H118995   4.718   8.228   1.736
 6370TIP3    H218996   4.757   8.120   1.833
 6371TIP3   OH218997   4.330   8.049   1.172
 6371TIP3    H118998   4.244   8.058   1.217
 6371TIP3    H218999   4.362   8.141   1.174
 6372TIP3   OH219000   5.067   7.789   1.746
 6372TIP3    H119001   5.058   7.785   1.844
 6372TIP3    H219002   5.146   7.735   1.732
 6373TIP3   OH219003   5.017   7.684   0.651
 6373TIP3    H119004   5.072   7.654   0.727
 6373TIP3    H219005   4.929   7.655   0.680
 6374TIP3   OH219006   5.314   8.323   1.798
 6374TIP3    H119007   5.235   8.267   1.788
 6374TIP3    H219008   5.301   8.388   1.725
 6375TIP3   OH219009   4.399   6.934   2.316
 6375TIP3    H119010   4.302   6.937   2.327
 6375TIP3    H219011   4.426   6.872   2.386
 6376TIP3   OH219012   5.200   7.615   0.848
 6376TIP3    H119013   5.190   7.549   0.918
 6376TIP3    H219014   5.297   7.613   0.834
 6377TIP3   OH219015   4.117   8.018   1.946
 6377TIP3    H119016   4.169   7.942   1.978
 6377TIP3    H219017   4.148   8.088   2.004
 6378TIP3   OH219018   4.404   7.662   0.629
 6378TIP3    H119019   4.422   7.572   0.598
 6378TIP3    H219020   4.385   7.648   0.724
 6379TIP3   OH219021   4.352   7.667   0.904
 6379TIP3    H119022   4.427   7.642   0.960
 6379TIP3    H219023   4.357   7.765   0.907
 6380TIP3   OH219024   4.089   7.360   1.105
 6380TIP3    H119025   4.022   7.406   1.161
 6380TIP3    H219026   4.103   7.429   1.037
 6381TIP3   OH219027   5.236   6.999   1.998
 6381TIP3    H119028   5.318   7.035   2.035
 6381TIP3    H219029   5.223   6.917   2.051
 6382TIP3   OH219030   5.117   6.747   1.164
 6382TIP3    H119031   5.102   6.767   1.069
 6382TIP3    H219032   5.155   6.832   1.196
 6383TIP3   OH219033   4.624   7.866   0.860
 6383TIP3    H119034   4.537   7.900   0.888
 6383TIP3    H219035   4.624   7.889   0.766
 6384TIP3   OH219036   4.807   6.928   1.264
 6384TIP3    H119037   4.872   6.999   1.245
 6384TIP3    H219038   4.812   6.921   1.362
 6385TIP3   OH219039   5.076   7.246   2.072
 6385TIP3    H119040   5.098   7.298   2.152
 6385TIP3    H219041   5.131   7.167   2.083
 6386TIP3   OH219042   4.951   6.655   1.368
 6386TIP3    H119043   4.941   6.734   1.424
 6386TIP3    H219044   5.012   6.690   1.298
 6387TIP3   OH219045   4.363   7.940   0.916
 6387TIP3    H119046   4.333   8.010   0.853
 6387TIP3    H219047   4.347   7.984   1.002
 6388TIP3   OH219048   4.462   6.653   1.157
 6388TIP3    H119049   4.460   6.745   1.192
 6388TIP3    H219050   4.558   6.635   1.164
 6389TIP3   OH219051   5.717   7.147   2.054
 6389TIP3    H119052   5.619   7.144   2.060
 6389TIP3    H219053   5.729   7.109   1.966
 6390TIP3   OH219054   5.367   7.341   1.441
 6390TIP3    H119055   5.292   7.281   1.451
 6390TIP3    H219056   5.439   7.294   1.488
 6391TIP3   OH219057   4.080   7.569   0.910
 6391TIP3    H119058   4.146   7.639   0.918
 6391TIP3    H219059   4.125   7.514   0.842
 6392TIP3   OH219060   4.024   6.845   1.044
 6392TIP3    H119061   4.024   6.943   1.040
 6392TIP3    H219062   3.941   6.823   1.000
 6393TIP3   OH219063   5.335   8.298   1.391
 6393TIP3    H119064   5.292   8.344   1.315
 6393TIP3    H219065   5.429   8.316   1.370
 6394TIP3   OH219066   4.412   6.566   1.917
 6394TIP3    H119067   4.381   6.532   1.830
 6394TIP3    H219068   4.401   6.487   1.974
 6395TIP3   OH219069   3.952   7.784   1.298
 6395TIP3    H119070   3.879   7.814   1.354
 6395TIP3    H219071   3.926   7.824   1.212
 6396TIP3   OH219072   4.107   8.326   2.368
 6396TIP3    H119073   4.193   8.325   2.417
 6396TIP3    H219074   4.083   8.232   2.368
 6397TIP3   OH219075   4.588   8.284   2.421
 6397TIP3    H119076   4.685   8.279   2.417
 6397TIP3    H219077   4.563   8.231   2.342
 6398TIP3   OH219078   4.590   7.861   0.579
 6398TIP3    H119079   4.522   7.791   0.589
 6398TIP3    H219080   4.617   7.845   0.487
 6399TIP3   OH219081   5.226   8.198   2.150
 6399TIP3    H119082   5.219   8.127   2.217
 6399TIP3    H219083   5.305   8.247   2.178
 6400TIP3   OH219084   4.240   7.729   2.569
 6400TIP3    H119085   4.255   7.633   2.569
 6400TIP3    H219086   4.152   7.734   2.524
 6401TIP3   OH219087   4.216   7.383   0.761
 6401TIP3    H119088   4.271   7.350   0.833
 6401TIP3    H219089   4.284   7.392   0.691
 6402TIP3   OH219090   4.831   7.813   2.351
 6402TIP3    H119091   4.798   7.835   2.262
 6402TIP3    H219092   4.869   7.724   2.338
 6403TIP3   OH219093   4.726   7.570   0.572
 6403TIP3    H119094   4.722   7.588   0.668
 6403TIP3    H219095   4.724   7.472   0.571
 6404TIP3   OH219096   5.338   7.826   1.951
 6404TIP3    H119097   5.414   7.869   1.905
 6404TIP3    H219098   5.269   7.892   1.934
 6405TIP3   OH219099   4.358   7.470   2.546
 6405TIP3    H119100   4.426   7.406   2.523
 6405TIP3    H219101   4.380   7.490   2.640
 6406TIP3   OH219102   4.425   7.286   0.986
 6406TIP3    H119103   4.397   7.242   1.068
 6406TIP3    H219104   4.461   7.211   0.934
 6407TIP3   OH219105   4.694   7.353   2.215
 6407TIP3    H119106   4.614   7.409   2.214
 6407TIP3    H219107   4.743   7.385   2.136
 6408TIP3   OH219108   4.524   7.079   0.827
 6408TIP3    H119109   4.498   7.084   0.733
 6408TIP3    H219110   4.622   7.084   0.819
 6409TIP3   OH219111   5.210   7.754   2.349
 6409TIP3    H119112   5.287   7.729   2.297
 6409TIP3    H219113   5.208   7.684   2.417
 6410TIP3   OH219114   5.341   7.422   0.528
 6410TIP3    H119115   5.375   7.400   0.439
 6410TIP3    H219116   5.313   7.515   0.515
 6411TIP3   OH219117   4.815   7.139   2.340
 6411TIP3    H119118   4.816   7.059   2.284
 6411TIP3    H219119   4.772   7.205   2.282
 6412TIP3   OH219120   4.818   6.926   2.148
 6412TIP3    H119121   4.846   6.966   2.064
 6412TIP3    H219122   4.725   6.903   2.129
 6413TIP3   OH219123   4.846   7.463   2.021
 6413TIP3    H119124   4.929   7.469   1.972
 6413TIP3    H219125   4.789   7.528   1.976
 6414TIP3   OH219126   5.427   7.429   2.401
 6414TIP3    H119127   5.475   7.345   2.411
 6414TIP3    H219128   5.496   7.486   2.365
 6415TIP3   OH219129   5.468   7.682   2.138
 6415TIP3    H119130   5.411   7.735   2.078
 6415TIP3    H219131   5.556   7.701   2.098
 6416TIP3   OH219132   4.694   7.252   2.571
 6416TIP3    H119133   4.626   7.183   2.585
 6416TIP3    H219134   4.728   7.227   2.483
 6417TIP3   OH219135   4.950   6.689   2.214
 6417TIP3    H119136   4.901   6.771   2.191
 6417TIP3    H219137   4.881   6.621   2.202
 6418TIP3   OH219138   5.076   7.194   2.430
 6418TIP3    H119139   5.064   7.179   2.525
 6418TIP3    H219140   4.986   7.169   2.398
 6419TIP3   OH219141   5.316   7.145   2.285
 6419TIP3    H119142   5.241   7.144   2.348
 6419TIP3    H219143   5.390   7.113   2.341
 6420TIP3   OH219144   5.544   7.083   2.436
 6420TIP3    H119145   5.557   6.987   2.454
 6420TIP3    H219146   5.541   7.121   2.526
 6421TIP3   OH219147   4.535   7.031   2.622
 6421TIP3    H119148   4.539   6.940   2.587
 6421TIP3    H219149   4.571   7.017   2.712
 6422TIP3   OH219150   5.045   6.699   2.471
 6422TIP3    H119151   5.112   6.628   2.465
 6422TIP3    H219152   5.005   6.693   2.382
 6423TIP3   OH219153   5.111   6.913   2.630
 6423TIP3    H119154   5.089   6.842   2.566
 6423TIP3    H219155   5.033   6.972   2.623
 6424TIP3   OH219156   4.329   8.146   0.728
 6424TIP3    H119157   4.424   8.142   0.708
 6424TIP3    H219158   4.295   8.180   0.644
 6425TIP3   OH219159   3.811   7.524   0.947
 6425TIP3    H119160   3.906   7.546   0.933
 6425TIP3    H219161   3.806   7.435   0.906
 6426TIP3   OH219162   3.726   8.137   1.359
 6426TIP3    H119163   3.659   8.075   1.323
 6426TIP3    H219164   3.770   8.079   1.425
 6427TIP3   OH219165   3.861   7.988   1.546
 6427TIP3    H119166   3.848   7.915   1.608
 6427TIP3    H219167   3.913   8.049   1.602
 6428TIP3   OH219168   5.587   8.390   1.348
 6428TIP3    H119169   5.619   8.423   1.433
 6428TIP3    H219170   5.652   8.427   1.286
 6429TIP3   OH219171   5.618   8.410   1.631
 6429TIP3    H119172   5.574   8.322   1.624
 6429TIP3    H219173   5.695   8.385   1.685
 6430TIP3   OH219174   5.664   8.085   2.202
 6430TIP3    H119175   5.592   8.094   2.267
 6430TIP3    H219176   5.706   8.173   2.206
 6431TIP3   OH219177   5.482   7.600   0.829
 6431TIP3    H119178   5.559   7.654   0.806
 6431TIP3    H219179   5.515   7.556   0.910
 6432TIP3   OH219180   5.607   7.465   1.027
 6432TIP3    H119181   5.543   7.421   1.087
 6432TIP3    H219182   5.674   7.501   1.089
 6433TIP3   OH219183   5.662   7.857   1.457
 6433TIP3    H119184   5.716   7.792   1.408
 6433TIP3    H219185   5.658   7.932   1.395
 6434TIP3   OH219186   5.494   8.158   1.653
 6434TIP3    H119187   5.422   8.200   1.703
 6434TIP3    H219188   5.445   8.110   1.582
 6435TIP3   OH219189   5.550   7.370   0.691
 6435TIP3    H119190   5.470   7.367   0.632
 6435TIP3    H219191   5.526   7.448   0.744
 6436TIP3   OH219192   5.418   7.054   0.616
 6436TIP3    H119193   5.362   7.070   0.538
 6436TIP3    H219194   5.395   6.960   0.632
 6437TIP3   OH219195   5.423   7.321   1.172
 6437TIP3    H119196   5.429   7.225   1.164
 6437TIP3    H219197   5.409   7.334   1.268
 6438TIP3   OH219198   4.049   7.392   1.920
 6438TIP3    H119199   4.046   7.363   1.826
 6438TIP3    H219200   4.146   7.396   1.935
 6439TIP3   OH219201   5.711   7.747   2.029
 6439TIP3    H119202   5.784   7.681   2.020
 6439TIP3    H219203   5.738   7.815   1.966
 6440TIP3   OH219204   5.896   7.551   2.047
 6440TIP3    H119205   5.822   7.500   2.085
 6440TIP3    H219206   5.969   7.488   2.060
 6441TIP3   OH219207   5.348   6.796   0.643
 6441TIP3    H119208   5.427   6.745   0.665
 6441TIP3    H219209   5.276   6.730   0.645
 6442TIP3   OH219210   5.421   7.039   1.067
 6442TIP3    H119211   5.460   6.950   1.083
 6442TIP3    H219212   5.478   7.069   0.994
 6443TIP3   OH219213   5.580   7.212   1.562
 6443TIP3    H119214   5.666   7.237   1.521
 6443TIP3    H219215   5.594   7.249   1.651
 6444TIP3   OH219216   5.650   7.356   1.794
 6444TIP3    H119217   5.571   7.390   1.841
 6444TIP3    H219218   5.682   7.436   1.748
 6445TIP3   OH219219   4.268   7.084   2.599
 6445TIP3    H119220   4.366   7.074   2.596
 6445TIP3    H219221   4.242   6.997   2.635
 6446TIP3   OH219222   6.101   6.946   2.350
 6446TIP3    H119223   6.160   6.881   2.307
 6446TIP3    H219224   6.072   7.001   2.274
 6447TIP3   OH219225   5.527   6.789   1.106
 6447TIP3    H119226   5.575   6.771   1.189
 6447TIP3    H219227   5.466   6.712   1.102
 6448TIP3   OH219228   4.228   6.774   1.925
 6448TIP3    H119229   4.290   6.699   1.934
 6448TIP3    H219230   4.290   6.848   1.918
 6449TIP3   OH219231   4.031   7.048   1.998
 6449TIP3    H119232   4.079   7.040   1.913
 6449TIP3    H219233   4.059   7.136   2.027
 6450TIP3   OH219234   5.971   7.086   2.156
 6450TIP3    H119235   5.885   7.127   2.176
 6450TIP3    H219236   5.942   7.014   2.097
 6451TIP3   OH219237   5.618   6.717   0.741
 6451TIP3    H119238   5.660   6.649   0.685
 6451TIP3    H219239   5.676   6.793   0.726
 6452TIP3   OH219240   4.014   6.554   1.500
 6452TIP3    H119241   3.920   6.548   1.524
 6452TIP3    H219242   4.011   6.611   1.420
 6453TIP3   OH219243   5.180   8.253   1.006
 6453TIP3    H119244   5.228   8.241   0.922
 6453TIP3    H219245   5.230   8.323   1.050
 6454TIP3   OH219246   4.235   6.632   2.313
 6454TIP3    H119247   4.182   6.627   2.395
 6454TIP3    H219248   4.169   6.670   2.252
 6455TIP3   OH219249   4.275   8.047   2.394
 6455TIP3    H119250   4.191   8.022   2.351
 6455TIP3    H219251   4.243   8.066   2.483
 6456TIP3   OH219252   4.453   8.093   1.939
 6456TIP3    H119253   4.403   8.167   1.898
 6456TIP3    H219254   4.538   8.107   1.893
 6457TIP3   OH219255   4.897   8.335   2.074
 6457TIP3    H119256   4.939   8.338   2.162
 6457TIP3    H219257   4.962   8.386   2.021
 6458TIP3   OH219258   5.075   8.487   1.934
 6458TIP3    H119259   5.146   8.437   1.890
 6458TIP3    H219260   5.128   8.544   1.994
 6459TIP3   OH219261   5.870   6.849   2.033
 6459TIP3    H119262   5.780   6.844   1.999
 6459TIP3    H219263   5.901   6.757   2.022
 6460TIP3   OH219264   4.128   8.347   1.962
 6460TIP3    H119265   4.040   8.379   1.935
 6460TIP3    H219266   4.135   8.389   2.049
 6461TIP3   OH219267   4.365   8.326   1.818
 6461TIP3    H119268   4.278   8.339   1.862
 6461TIP3    H219269   4.346   8.359   1.728
 6462TIP3   OH219270   4.790   8.355   1.617
 6462TIP3    H119271   4.721   8.373   1.550
 6462TIP3    H219272   4.802   8.443   1.657
 6463TIP3   OH219273   5.059   8.295   1.670
 6463TIP3    H119274   4.965   8.311   1.648
 6463TIP3    H219275   5.102   8.369   1.623
 6464TIP3   OH219276   5.268   8.488   1.582
 6464TIP3    H119277   5.252   8.572   1.534
 6464TIP3    H219278   5.293   8.427   1.509
 6465TIP3   OH219279   4.039   8.142   1.705
 6465TIP3    H119280   4.065   8.115   1.795
 6465TIP3    H219281   4.111   8.098   1.654
 6466TIP3   OH219282   4.233   8.013   1.563
 6466TIP3    H119283   4.250   7.929   1.612
 6466TIP3    H219284   4.323   8.050   1.556
 6467TIP3   OH219285   4.499   8.108   1.565
 6467TIP3    H119286   4.531   8.018   1.550
 6467TIP3    H219287   4.543   8.129   1.649
 6468TIP3   OH219288   5.077   6.765   1.655
 6468TIP3    H119289   5.032   6.695   1.706
 6468TIP3    H219290   5.147   6.717   1.608
 6469TIP3   OH219291   5.599   6.644   1.559
 6469TIP3    H119292   5.635   6.696   1.484
 6469TIP3    H219293   5.504   6.662   1.551
 6470TIP3   OH219294   5.694   6.744   1.322
 6470TIP3    H119295   5.767   6.694   1.281
 6470TIP3    H219296   5.725   6.836   1.307
 6471TIP3   OH219297   4.324   6.473   1.669
 6471TIP3    H119298   4.231   6.441   1.670
 6471TIP3    H219299   4.372   6.388   1.665
 6472TIP3   OH219300   4.113   6.343   1.317
 6472TIP3    H119301   4.141   6.400   1.244
 6472TIP3    H219302   4.083   6.408   1.383
 6473TIP3   OH219303   4.769   6.504   1.549
 6473TIP3    H119304   4.826   6.554   1.489
 6473TIP3    H219305   4.790   6.544   1.634
 6474TIP3   OH219306   5.316   6.652   1.533
 6474TIP3    H119307   5.310   6.617   1.443
 6474TIP3    H219308   5.302   6.571   1.587
 6475TIP3   OH219309   5.345   6.575   1.096
 6475TIP3    H119310   5.258   6.618   1.105
 6475TIP3    H219311   5.328   6.490   1.142
 6476TIP3   OH219312   3.828   7.914   1.097
 6476TIP3    H119313   3.743   7.880   1.063
 6476TIP3    H219314   3.817   8.008   1.078
 6477TIP3   OH219315   4.228   6.502   1.080
 6477TIP3    H119316   4.276   6.439   1.023
 6477TIP3    H219317   4.301   6.556   1.116
 6478TIP3   OH219318   4.740   6.677   1.179
 6478TIP3    H119319   4.800   6.630   1.239
 6478TIP3    H219320   4.762   6.770   1.203
 6479TIP3   OH219321   4.593   8.118   0.671
 6479TIP3    H119322   4.685   8.135   0.640
 6479TIP3    H219323   4.579   8.032   0.625
 6480TIP3   OH219324   5.322   8.217   0.769
 6480TIP3    H119325   5.311   8.120   0.756
 6480TIP3    H219326   5.274   8.253   0.691
 6481TIP3   OH219327   4.531   6.756   2.561
 6481TIP3    H119328   4.497   6.684   2.617
 6481TIP3    H219329   4.626   6.755   2.588
 6482TIP3   OH219330   4.781   6.752   2.680
 6482TIP3    H119331   4.866   6.725   2.639
 6482TIP3    H219332   4.769   6.681   2.746
 6483TIP3   OH219333   3.904   7.935   0.736
 6483TIP3    H119334   3.907   7.962   0.829
 6483TIP3    H219335   3.993   7.895   0.723
 6484TIP3   OH219336   5.606   6.812   2.467
 6484TIP3    H119337   5.625   6.781   2.558
 6484TIP3    H219338   5.695   6.808   2.425
 6485TIP3   OH219339   5.544   8.365   1.960
 6485TIP3    H119340   5.466   8.333   1.910
 6485TIP3    H219341   5.525   8.461   1.963
 6486TIP3   OH219342   6.804   7.731   1.111
 6486TIP3    H119343   6.846   7.702   1.193
 6486TIP3    H219344   6.764   7.648   1.080
 6487TIP3   OH219345   6.109   7.633   1.473
 6487TIP3    H119346   6.140   7.565   1.536
 6487TIP3    H219347   6.189   7.687   1.464
 6488TIP3   OH219348   6.080   8.041   1.200
 6488TIP3    H119349   6.072   7.943   1.199
 6488TIP3    H219350   6.177   8.050   1.190
 6489TIP3   OH219351   5.789   7.246   0.979
 6489TIP3    H119352   5.738   7.328   0.995
 6489TIP3    H219353   5.718   7.190   0.943
 6490TIP3   OH219354   5.846   7.532   1.152
 6490TIP3    H119355   5.894   7.455   1.189
 6490TIP3    H219356   5.911   7.568   1.090
 6491TIP3   OH219357   6.613   7.962   1.151
 6491TIP3    H119358   6.653   7.880   1.117
 6491TIP3    H219359   6.695   8.008   1.176
 6492TIP3   OH219360   7.624   7.278   1.158
 6492TIP3    H119361   7.649   7.360   1.205
 6492TIP3    H219362   7.651   7.298   1.067
 6493TIP3   OH219363   7.026   7.462   1.188
 6493TIP3    H119364   7.064   7.374   1.205
 6493TIP3    H219365   6.993   7.455   1.097
 6494TIP3   OH219366   6.360   7.123   1.153
 6494TIP3    H119367   6.339   7.196   1.090
 6494TIP3    H219368   6.311   7.050   1.109
 6495TIP3   OH219369   7.002   7.195   0.840
 6495TIP3    H119370   7.061   7.172   0.914
 6495TIP3    H219371   7.071   7.195   0.769
 6496TIP3   OH219372   5.992   7.326   1.258
 6496TIP3    H119373   6.075   7.307   1.306
 6496TIP3    H219374   6.005   7.269   1.179
 6497TIP3   OH219375   6.434   7.522   1.050
 6497TIP3    H119376   6.527   7.496   1.067
 6497TIP3    H219377   6.395   7.437   1.019
 6498TIP3   OH219378   7.690   7.492   1.317
 6498TIP3    H119379   7.605   7.539   1.302
 6498TIP3    H219380   7.698   7.505   1.413
 6499TIP3   OH219381   6.355   7.106   1.586
 6499TIP3    H119382   6.295   7.145   1.519
 6499TIP3    H219383   6.304   7.125   1.667
 6500TIP3   OH219384   6.463   7.882   1.381
 6500TIP3    H119385   6.400   7.946   1.420
 6500TIP3    H219386   6.504   7.935   1.310
 6501TIP3   OH219387   7.280   7.221   0.967
 6501TIP3    H119388   7.249   7.185   1.051
 6501TIP3    H219389   7.313   7.309   0.994
 6502TIP3   OH219390   6.226   7.222   1.370
 6502TIP3    H119391   6.287   7.295   1.394
 6502TIP3    H219392   6.276   7.182   1.296
 6503TIP3   OH219393   6.289   8.077   1.481
 6503TIP3    H119394   6.264   8.162   1.440
 6503TIP3    H219395   6.210   8.062   1.537
 6504TIP3   OH219396   5.684   7.766   0.719
 6504TIP3    H119397   5.603   7.792   0.673
 6504TIP3    H219398   5.696   7.839   0.783
 6505TIP3   OH219399   7.136   8.297   0.964
 6505TIP3    H119400   7.050   8.269   1.002
 6505TIP3    H219401   7.107   8.330   0.878
 6506TIP3   OH219402   7.413   7.186   1.322
 6506TIP3    H119403   7.324   7.209   1.291
 6506TIP3    H219404   7.469   7.214   1.247
 6507TIP3   OH219405   6.712   6.826   1.300
 6507TIP3    H119406   6.698   6.731   1.319
 6507TIP3    H219407   6.636   6.865   1.347
 6508TIP3   OH219408   7.355   8.200   1.296
 6508TIP3    H119409   7.340   8.122   1.239
 6508TIP3    H219410   7.337   8.274   1.235
 6509TIP3   OH219411   7.539   7.831   1.149
 6509TIP3    H119412   7.461   7.891   1.156
 6509TIP3    H219413   7.548   7.825   1.054
 6510TIP3   OH219414   6.224   7.670   0.945
 6510TIP3    H119415   6.180   7.611   0.880
 6510TIP3    H219416   6.300   7.617   0.974
 6511TIP3   OH219417   6.349   8.081   1.096
 6511TIP3    H119418   6.322   8.049   1.008
 6511TIP3    H219419   6.437   8.040   1.108
 6512TIP3   OH219420   6.356   7.642   1.298
 6512TIP3    H119421   6.391   7.621   1.209
 6512TIP3    H219422   6.401   7.726   1.320
 6513TIP3   OH219423   6.888   8.268   1.068
 6513TIP3    H119424   6.873   8.348   1.121
 6513TIP3    H219425   6.874   8.196   1.133
 6514TIP3   OH219426   6.496   8.199   1.621
 6514TIP3    H119427   6.435   8.260   1.668
 6514TIP3    H219428   6.431   8.145   1.572
 6515TIP3   OH219429   6.250   7.754   1.724
 6515TIP3    H119430   6.254   7.841   1.768
 6515TIP3    H219431   6.155   7.734   1.733
 6516TIP3   OH219432   6.289   8.367   1.710
 6516TIP3    H119433   6.255   8.365   1.618
 6516TIP3    H219434   6.209   8.344   1.762
 6517TIP3   OH219435   6.084   7.506   0.768
 6517TIP3    H119436   6.027   7.550   0.702
 6517TIP3    H219437   6.030   7.430   0.793
 6518TIP3   OH219438   5.868   7.896   1.656
 6518TIP3    H119439   5.804   7.874   1.587
 6518TIP3    H219440   5.906   7.809   1.681
 6519TIP3   OH219441   5.724   8.086   1.292
 6519TIP3    H119442   5.819   8.081   1.278
 6519TIP3    H219443   5.716   8.167   1.344
 6520TIP3   OH219444   7.580   8.541   1.341
 6520TIP3    H119445   7.585   8.444   1.355
 6520TIP3    H219446   7.497   8.562   1.389
 6521TIP3   OH219447   6.689   8.332   1.478
 6521TIP3    H119448   6.689   8.423   1.514
 6521TIP3    H219449   6.619   8.290   1.532
 6522TIP3   OH219450   5.883   8.295   0.815
 6522TIP3    H119451   5.950   8.297   0.886
 6522TIP3    H219452   5.831   8.218   0.844
 6523TIP3   OH219453   7.480   7.674   1.624
 6523TIP3    H119454   7.389   7.695   1.599
 6523TIP3    H219455   7.483   7.578   1.607
 6524TIP3   OH219456   6.073   8.080   1.647
 6524TIP3    H119457   6.123   8.061   1.728
 6524TIP3    H219458   5.999   8.016   1.653
 6525TIP3   OH219459   6.474   6.902   1.429
 6525TIP3    H119460   6.384   6.872   1.403
 6525TIP3    H219461   6.450   6.984   1.475
 6526TIP3   OH219462   7.005   7.014   1.623
 6526TIP3    H119463   7.074   6.991   1.689
 6526TIP3    H219464   6.921   6.997   1.671
 6527TIP3   OH219465   7.246   7.485   1.546
 6527TIP3    H119466   7.202   7.456   1.628
 6527TIP3    H219467   7.176   7.542   1.508
 6528TIP3   OH219468   6.402   7.418   1.445
 6528TIP3    H119469   6.357   7.442   1.529
 6528TIP3    H219470   6.388   7.499   1.393
 6529TIP3   OH219471   6.289   7.299   0.959
 6529TIP3    H119472   6.196   7.277   0.980
 6529TIP3    H219473   6.296   7.260   0.869
 6530TIP3   OH219474   6.952   7.696   1.830
 6530TIP3    H119475   6.937   7.602   1.851
 6530TIP3    H219476   7.005   7.692   1.749
 6531TIP3   OH219477   6.923   7.444   0.932
 6531TIP3    H119478   6.899   7.492   0.852
 6531TIP3    H219479   6.943   7.355   0.896
 6532TIP3   OH219480   6.222   7.448   1.657
 6532TIP3    H119481   6.260   7.510   1.721
 6532TIP3    H219482   6.214   7.366   1.710
 6533TIP3   OH219483   5.815   6.970   1.239
 6533TIP3    H119484   5.894   6.999   1.289
 6533TIP3    H219485   5.851   6.936   1.156
 6534TIP3   OH219486   5.793   6.955   0.759
 6534TIP3    H119487   5.838   6.991   0.679
 6534TIP3    H219488   5.729   7.026   0.777
 6535TIP3   OH219489   6.616   7.116   1.030
 6535TIP3    H119490   6.534   7.120   1.083
 6535TIP3    H219491   6.684   7.128   1.098
 6536TIP3   OH219492   6.050   7.182   1.029
 6536TIP3    H119493   5.955   7.190   1.003
 6536TIP3    H219494   6.070   7.089   1.008
 6537TIP3   OH219495   6.320   7.180   0.707
 6537TIP3    H119496   6.417   7.190   0.718
 6537TIP3    H219497   6.301   7.239   0.632
 6538TIP3   OH219498   7.114   7.194   1.219
 6538TIP3    H119499   7.087   7.212   1.312
 6538TIP3    H219500   7.039   7.139   1.190
 6539TIP3   OH219501   7.272   8.888   1.445
 6539TIP3    H119502   7.276   8.909   1.349
 6539TIP3    H219503   7.346   8.940   1.479
 6540TIP3   OH219504   6.235   8.001   1.866
 6540TIP3    H119505   6.315   8.030   1.913
 6540TIP3    H219506   6.171   8.000   1.940
 6541TIP3   OH219507   6.695   7.450   1.119
 6541TIP3    H119508   6.778   7.429   1.073
 6541TIP3    H219509   6.711   7.417   1.209
 6542TIP3   OH219510   6.225   6.941   0.999
 6542TIP3    H119511   6.185   6.864   1.046
 6542TIP3    H219512   6.276   6.897   0.930
 6543TIP3   OH219513   6.673   7.348   1.413
 6543TIP3    H119514   6.585   7.388   1.425
 6543TIP3    H219515   6.729   7.401   1.474
 6544TIP3   OH219516   7.314   7.986   1.117
 6544TIP3    H119517   7.278   8.032   1.040
 6544TIP3    H219518   7.237   7.927   1.135
 6545TIP3   OH219519   6.812   8.067   1.492
 6545TIP3    H119520   6.842   8.021   1.572
 6545TIP3    H219521   6.770   8.148   1.526
 6546TIP3   OH219522   6.101   7.759   1.181
 6546TIP3    H119523   6.141   7.736   1.095
 6546TIP3    H219524   6.150   7.702   1.242
 6547TIP3   OH219525   5.984   7.686   1.795
 6547TIP3    H119526   6.006   7.671   1.889
 6547TIP3    H219527   5.917   7.617   1.779
 6548TIP3   OH219528   6.704   7.802   1.812
 6548TIP3    H119529   6.657   7.738   1.757
 6548TIP3    H219530   6.796   7.770   1.803
 6549TIP3   OH219531   6.970   8.340   1.387
 6549TIP3    H119532   6.877   8.319   1.404
 6549TIP3    H219533   6.997   8.379   1.473
 6550TIP3   OH219534   7.602   8.252   1.392
 6550TIP3    H119535   7.504   8.248   1.387
 6550TIP3    H219536   7.624   8.222   1.301
 6551TIP3   OH219537   7.089   7.838   1.074
 6551TIP3    H119538   6.994   7.818   1.080
 6551TIP3    H219539   7.120   7.762   1.021
 6552TIP3   OH219540   6.222   8.077   0.824
 6552TIP3    H119541   6.230   8.168   0.789
 6552TIP3    H219542   6.147   8.045   0.769
 6553TIP3   OH219543   5.758   7.368   0.512
 6553TIP3    H119544   5.797   7.453   0.542
 6553TIP3    H219545   5.678   7.365   0.568
 6554TIP3   OH219546   6.366   7.843   0.771
 6554TIP3    H119547   6.320   7.929   0.782
 6554TIP3    H219548   6.314   7.787   0.832
 6555TIP3   OH219549   6.474   8.410   1.275
 6555TIP3    H119550   6.516   8.483   1.225
 6555TIP3    H219551   6.551   8.375   1.324
 6556TIP3   OH219552   6.870   8.041   1.231
 6556TIP3    H119553   6.850   8.045   1.328
 6556TIP3    H219554   6.946   7.981   1.232
 6557TIP3   OH219555   7.111   8.581   1.287
 6557TIP3    H119556   7.038   8.516   1.284
 6557TIP3    H219557   7.089   8.640   1.212
 6558TIP3   OH219558   6.197   7.189   1.802
 6558TIP3    H119559   6.101   7.193   1.816
 6558TIP3    H219560   6.225   7.130   1.875
 6559TIP3   OH219561   5.912   8.275   1.435
 6559TIP3    H119562   5.965   8.198   1.462
 6559TIP3    H219563   5.946   8.342   1.495
 6560TIP3   OH219564   5.878   7.596   0.603
 6560TIP3    H119565   5.817   7.653   0.654
 6560TIP3    H219566   5.918   7.660   0.541
 6561TIP3   OH219567   7.045   7.245   1.478
 6561TIP3    H119568   7.099   7.295   1.541
 6561TIP3    H219569   7.017   7.168   1.532
 6562TIP3   OH219570   6.586   7.190   0.765
 6562TIP3    H119571   6.660   7.244   0.734
 6562TIP3    H219572   6.602   7.183   0.861
 6563TIP3   OH219573   6.839   7.470   1.589
 6563TIP3    H119574   6.870   7.561   1.571
 6563TIP3    H219575   6.918   7.422   1.562
 6564TIP3   OH219576   6.764   6.931   0.856
 6564TIP3    H119577   6.733   6.992   0.926
 6564TIP3    H219578   6.848   6.973   0.833
 6565TIP3   OH219579   6.252   6.905   0.657
 6565TIP3    H119580   6.244   6.997   0.688
 6565TIP3    H219581   6.342   6.883   0.689
 6566TIP3   OH219582   7.508   7.400   1.534
 6566TIP3    H119583   7.412   7.414   1.546
 6566TIP3    H219584   7.507   7.349   1.452
 6567TIP3   OH219585   7.167   7.609   0.945
 6567TIP3    H119586   7.089   7.551   0.942
 6567TIP3    H219587   7.237   7.548   0.974
 6568TIP3   OH219588   5.823   7.103   0.519
 6568TIP3    H119589   5.796   7.197   0.514
 6568TIP3    H219590   5.752   7.060   0.469
 6569TIP3   OH219591   6.209   6.822   1.404
 6569TIP3    H119592   6.177   6.789   1.317
 6569TIP3    H219593   6.198   6.744   1.461
 6570TIP3   OH219594   5.728   8.049   0.827
 6570TIP3    H119595   5.653   8.107   0.844
 6570TIP3    H219596   5.741   8.054   0.731
 6571TIP3   OH219597   5.904   8.582   1.857
 6571TIP3    H119598   5.990   8.581   1.903
 6571TIP3    H219599   5.883   8.487   1.854
 6572TIP3   OH219600   6.386   8.547   1.900
 6572TIP3    H119601   6.480   8.524   1.907
 6572TIP3    H219602   6.359   8.488   1.826
 6573TIP3   OH219603   7.025   8.453   1.633
 6573TIP3    H119604   7.014   8.382   1.701
 6573TIP3    H219605   7.102   8.502   1.667
 6574TIP3   OH219606   6.034   7.988   2.057
 6574TIP3    H119607   6.051   7.892   2.061
 6574TIP3    H219608   5.947   7.990   2.012
 6575TIP3   OH219609   6.641   8.075   1.830
 6575TIP3    H119610   6.601   8.091   1.742
 6575TIP3    H219611   6.671   7.982   1.823
 6576TIP3   OH219612   7.141   8.082   1.439
 6576TIP3    H119613   7.209   8.141   1.402
 6576TIP3    H219614   7.060   8.132   1.422
 6577TIP3   OH219615   6.153   7.722   2.038
 6577TIP3    H119616   6.230   7.670   2.013
 6577TIP3    H219617   6.180   7.755   2.127
 6578TIP3   OH219618   6.484   7.602   1.694
 6578TIP3    H119619   6.412   7.668   1.697
 6578TIP3    H219620   6.540   7.635   1.620
 6579TIP3   OH219621   7.012   8.012   1.833
 6579TIP3    H119622   7.074   7.975   1.769
 6579TIP3    H219623   6.995   7.935   1.890
 6580TIP3   OH219624   6.609   7.394   1.829
 6580TIP3    H119625   6.618   7.317   1.770
 6580TIP3    H219626   6.573   7.462   1.768
 6581TIP3   OH219627   6.615   7.177   1.633
 6581TIP3    H119628   6.643   7.225   1.552
 6581TIP3    H219629   6.521   7.159   1.614
 6582TIP3   OH219630   6.648   7.710   1.508
 6582TIP3    H119631   6.742   7.727   1.490
 6582TIP3    H219632   6.603   7.778   1.456
 6583TIP3   OH219633   7.249   7.694   1.913
 6583TIP3    H119634   7.279   7.605   1.889
 6583TIP3    H219635   7.289   7.750   1.845
 6584TIP3   OH219636   7.271   7.937   1.641
 6584TIP3    H119637   7.201   7.952   1.574
 6584TIP3    H219638   7.349   7.962   1.587
 6585TIP3   OH219639   6.489   7.507   2.058
 6585TIP3    H119640   6.420   7.439   2.071
 6585TIP3    H219641   6.524   7.483   1.970
 6586TIP3   OH219642   6.746   6.944   1.701
 6586TIP3    H119643   6.698   7.027   1.678
 6586TIP3    H219644   6.676   6.877   1.689
 6587TIP3   OH219645   6.881   7.439   1.912
 6587TIP3    H119646   6.859   7.433   2.007
 6587TIP3    H219647   6.793   7.420   1.873
 6588TIP3   OH219648   7.117   7.389   1.764
 6588TIP3    H119649   7.034   7.401   1.816
 6588TIP3    H219650   7.181   7.365   1.833
 6589TIP3   OH219651   7.357   7.343   1.926
 6589TIP3    H119652   7.358   7.247   1.944
 6589TIP3    H219653   7.343   7.381   2.015
 6590TIP3   OH219654   6.327   7.288   2.110
 6590TIP3    H119655   6.337   7.198   2.074
 6590TIP3    H219656   6.364   7.275   2.200
 6591TIP3   OH219657   6.840   6.954   1.958
 6591TIP3    H119658   6.908   6.883   1.951
 6591TIP3    H219659   6.800   6.949   1.869
 6592TIP3   OH219660   6.905   7.168   2.119
 6592TIP3    H119661   6.884   7.099   2.053
 6592TIP3    H219662   6.830   7.230   2.110
 6593TIP3   OH219663   5.515   8.399   0.847
 6593TIP3    H119664   5.452   8.333   0.811
 6593TIP3    H219665   5.560   8.345   0.916
 6594TIP3   OH219666   5.648   8.254   1.038
 6594TIP3    H119667   5.647   8.174   1.092
 6594TIP3    H219668   5.706   8.312   1.091
 6595TIP3   OH219669   7.427   8.666   1.120
 6595TIP3    H119670   7.378   8.582   1.111
 6595TIP3    H219671   7.501   8.635   1.174
 6596TIP3   OH219672   7.462   8.341   1.689
 6596TIP3    H119673   7.388   8.347   1.752
 6596TIP3    H219674   7.502   8.430   1.696
 6597TIP3   OH219675   7.293   8.423   1.143
 6597TIP3    H119676   7.224   8.461   1.201
 6597TIP3    H219677   7.240   8.377   1.074
 6598TIP3   OH219678   5.845   7.651   1.406
 6598TIP3    H119679   5.844   7.622   1.312
 6598TIP3    H219680   5.942   7.654   1.422
 6599TIP3   OH219681   7.510   8.004   1.513
 6599TIP3    H119682   7.581   7.938   1.503
 6599TIP3    H219683   7.537   8.075   1.452
 6600TIP3   OH219684   7.693   7.807   1.526
 6600TIP3    H119685   7.618   7.761   1.569
 6600TIP3    H219686   7.765   7.745   1.549
 6601TIP3   OH219687   7.385   7.465   1.047
 6601TIP3    H119688   7.462   7.504   1.001
 6601TIP3    H219689   7.394   7.505   1.136
 6602TIP3   OH219690   7.441   7.608   1.278
 6602TIP3    H119691   7.357   7.631   1.322
 6602TIP3    H219692   7.471   7.696   1.246
 6603TIP3   OH219693   6.060   7.337   2.079
 6603TIP3    H119694   6.158   7.332   2.081
 6603TIP3    H219695   6.038   7.252   2.121
 6604TIP3   OH219696   7.904   7.210   1.835
 6604TIP3    H119697   7.959   7.140   1.794
 6604TIP3    H219698   7.870   7.257   1.756
 6605TIP3   OH219699   6.024   7.030   1.411
 6605TIP3    H119700   6.087   6.956   1.421
 6605TIP3    H219701   6.086   7.105   1.404
 6606TIP3   OH219702   5.827   7.304   1.484
 6606TIP3    H119703   5.875   7.298   1.400
 6606TIP3    H219704   5.856   7.390   1.517
 6607TIP3   OH219705   7.766   7.343   1.640
 6607TIP3    H119706   7.681   7.383   1.667
 6607TIP3    H219707   7.734   7.272   1.582
 6608TIP3   OH219708   5.810   6.816   0.991
 6608TIP3    H119709   5.715   6.805   1.009
 6608TIP3    H219710   5.809   6.868   0.908
 6609TIP3   OH219711   6.030   6.886   1.798
 6609TIP3    H119712   5.979   6.883   1.881
 6609TIP3    H219713   5.964   6.926   1.738
 6610TIP3   OH219714   6.069   8.318   1.877
 6610TIP3    H119715   5.978   8.288   1.858
 6610TIP3    H219716   6.080   8.295   1.970
 6611TIP3   OH219717   6.247   8.349   1.425
 6611TIP3    H119718   6.201   8.425   1.384
 6611TIP3    H219719   6.334   8.360   1.380
 6612TIP3   OH219720   6.693   8.596   1.563
 6612TIP3    H119721   6.736   8.594   1.651
 6612TIP3    H219722   6.760   8.644   1.511
 6613TIP3   OH219723   6.876   8.743   1.418
 6613TIP3    H119724   6.948   8.686   1.387
 6613TIP3    H219725   6.924   8.801   1.480
 6614TIP3   OH219726   7.667   7.105   1.520
 6614TIP3    H119727   7.576   7.099   1.488
 6614TIP3    H219728   7.697   7.012   1.510
 6615TIP3   OH219729   5.924   8.605   1.446
 6615TIP3    H119730   5.836   8.640   1.422
 6615TIP3    H219731   5.932   8.638   1.536
 6616TIP3   OH219732   6.163   8.583   1.305
 6616TIP3    H119733   6.075   8.597   1.348
 6616TIP3    H219734   6.144   8.616   1.214
 6617TIP3   OH219735   6.593   8.613   1.103
 6617TIP3    H119736   6.516   8.623   1.042
 6617TIP3    H219737   6.597   8.702   1.143
 6618TIP3   OH219738   6.858   8.552   1.143
 6618TIP3    H119739   6.761   8.558   1.129
 6618TIP3    H219740   6.885   8.642   1.125
 6619TIP3   OH219741   7.066   8.755   1.064
 6619TIP3    H119742   7.025   8.831   1.021
 6619TIP3    H219743   7.093   8.699   0.990
 6620TIP3   OH219744   5.834   8.397   1.194
 6620TIP3    H119745   5.863   8.371   1.284
 6620TIP3    H219746   5.906   8.355   1.141
 6621TIP3   OH219747   6.029   8.273   1.049
 6621TIP3    H119748   6.045   8.186   1.092
 6621TIP3    H219749   6.121   8.307   1.043
 6622TIP3   OH219750   6.295   8.364   1.051
 6622TIP3    H119751   6.325   8.272   1.037
 6622TIP3    H219752   6.339   8.383   1.135
 6623TIP3   OH219753   6.874   7.016   1.135
 6623TIP3    H119754   6.830   6.948   1.189
 6623TIP3    H219755   6.950   6.967   1.098
 6624TIP3   OH219756   7.390   6.906   1.054
 6624TIP3    H119757   7.427   6.948   0.974
 6624TIP3    H219758   7.295   6.923   1.044
 6625TIP3   OH219759   7.512   6.967   0.811
 6625TIP3    H119760   7.605   6.942   0.820
 6625TIP3    H219761   7.522   7.064   0.804
 6626TIP3   OH219762   6.121   6.731   1.155
 6626TIP3    H119763   6.028   6.699   1.154
 6626TIP3    H219764   6.169   6.645   1.150
 6627TIP3   OH219765   5.927   6.599   0.807
 6627TIP3    H119766   5.945   6.656   0.729
 6627TIP3    H219767   5.882   6.661   0.866
 6628TIP3   OH219768   6.559   6.760   1.043
 6628TIP3    H119769   6.619   6.809   0.987
 6628TIP3    H219770   6.577   6.798   1.130
 6629TIP3   OH219771   7.107   6.906   1.015
 6629TIP3    H119772   7.122   6.864   0.929
 6629TIP3    H219773   7.095   6.827   1.073
 6630TIP3   OH219774   6.020   6.756   0.586
 6630TIP3    H119775   6.060   6.699   0.517
 6630TIP3    H219776   6.096   6.812   0.610
 6631TIP3   OH219777   6.514   6.917   0.728
 6631TIP3    H119778   6.593   6.888   0.775
 6631TIP3    H219779   6.531   7.013   0.726
 6632TIP3   OH219780   6.328   7.008   2.045
 6632TIP3    H119781   6.293   6.939   2.104
 6632TIP3    H219782   6.422   7.010   2.073
 6633TIP3   OH219783   6.576   7.008   2.166
 6633TIP3    H119784   6.662   6.986   2.126
 6633TIP3    H219785   6.566   6.936   2.231
 6634TIP3   OH219786   7.401   7.067   1.954
 6634TIP3    H119787   7.419   7.037   2.046
 6634TIP3    H219788   7.490   7.062   1.913
 6635TIP3   OH219789   7.339   8.620   1.449
 6635TIP3    H119790   7.261   8.588   1.400
 6635TIP3    H219791   7.320   8.716   1.450
 6636TIP3   OH219792   8.149   7.372   1.084
 6636TIP3    H119793   8.083   7.388   1.016
 6636TIP3    H219794   8.098   7.393   1.164
 6637TIP3   OH219795   8.051   7.997   1.222
 6637TIP3    H119796   8.051   8.087   1.262
 6637TIP3    H219797   7.955   7.983   1.211
 6638TIP3   OH219798   7.660   8.148   1.148
 6638TIP3    H119799   7.625   8.118   1.063
 6638TIP3    H219800   7.701   8.066   1.184
 6639TIP3   OH219801   7.881   8.313   1.137
 6639TIP3    H119802   7.916   8.280   1.221
 6639TIP3    H219803   7.797   8.265   1.130
 6640TIP3   OH219804   8.804   7.278   1.100
 6640TIP3    H119805   8.872   7.247   1.162
 6640TIP3    H219806   8.721   7.249   1.140
 6641TIP3   OH219807   7.989   7.687   1.152
 6641TIP3    H119808   8.033   7.766   1.185
 6641TIP3    H219809   8.013   7.618   1.216
 6642TIP3   OH219810   8.030   8.236   1.359
 6642TIP3    H119811   8.087   8.314   1.362
 6642TIP3    H219812   7.970   8.250   1.435
 6643TIP3   OH219813   7.778   7.943   1.282
 6643TIP3    H119814   7.802   7.930   1.376
 6643TIP3    H219815   7.713   7.872   1.271
 6644TIP3   OH219816   7.997   7.446   1.310
 6644TIP3    H119817   7.899   7.450   1.305
 6644TIP3    H219818   8.011   7.367   1.364
 6645TIP3   OH219819   7.977   7.084   0.889
 6645TIP3    H119820   7.978   7.038   0.803
 6645TIP3    H219821   7.984   7.009   0.951
 6646TIP3   OH219822   7.676   8.818   1.390
 6646TIP3    H119823   7.771   8.805   1.373
 6646TIP3    H219824   7.644   8.730   1.363
 6647TIP3   OH219825   7.830   8.243   1.549
 6647TIP3    H119826   7.842   8.146   1.551
 6647TIP3    H219827   7.742   8.249   1.505
 6648TIP3   OH219828   7.944   7.980   1.529
 6648TIP3    H119829   8.024   7.950   1.484
 6648TIP3    H219830   7.976   8.007   1.618
 6649TIP3   OH219831   8.277   7.855   1.185
 6649TIP3    H119832   8.202   7.916   1.203
 6649TIP3    H219833   8.280   7.857   1.088
 6650TIP3   OH219834   8.394   7.649   1.320
 6650TIP3    H119835   8.402   7.571   1.262
 6650TIP3    H219836   8.359   7.717   1.258
 6651TIP3   OH219837   8.407   7.441   1.122
 6651TIP3    H119838   8.434   7.466   1.032
 6651TIP3    H219839   8.315   7.411   1.107
 6652TIP3   OH219840   8.264   7.765   1.539
 6652TIP3    H119841   8.215   7.680   1.529
 6652TIP3    H219842   8.314   7.763   1.454
 6653TIP3   OH219843   8.540   7.200   1.188
 6653TIP3    H119844   8.497   7.285   1.166
 6653TIP3    H219845   8.467   7.137   1.174
 6654TIP3   OH219846   8.635   7.756   1.435
 6654TIP3    H119847   8.628   7.703   1.516
 6654TIP3    H219848   8.563   7.718   1.381
 6655TIP3   OH219849   8.125   7.546   1.608
 6655TIP3    H119850   8.119   7.468   1.549
 6655TIP3    H219851   8.170   7.504   1.685
 6656TIP3   OH219852   8.633   7.208   1.446
 6656TIP3    H119853   8.703   7.140   1.440
 6656TIP3    H219854   8.598   7.205   1.354
 6657TIP3   OH219855   8.695   7.417   1.608
 6657TIP3    H119856   8.680   7.348   1.539
 6657TIP3    H219857   8.617   7.474   1.596
 6658TIP3   OH219858   7.856   7.596   1.578
 6658TIP3    H119859   7.951   7.578   1.567
 6658TIP3    H219860   7.824   7.510   1.610
 6659TIP3   OH219861   7.857   7.324   0.943
 6659TIP3    H119862   7.905   7.238   0.951
 6659TIP3    H219863   7.903   7.363   0.868
 6660TIP3   OH219864   7.648   7.566   0.950
 6660TIP3    H119865   7.718   7.501   0.960
 6660TIP3    H219866   7.680   7.639   1.005
 6661TIP3   OH219867   7.831   7.153   1.292
 6661TIP3    H119868   7.778   7.138   1.372
 6661TIP3    H219869   7.762   7.183   1.230
 6662TIP3   OH219870   7.855   8.581   1.421
 6662TIP3    H119871   7.793   8.556   1.351
 6662TIP3    H219872   7.825   8.527   1.495
 6663TIP3   OH219873   8.120   7.270   1.538
 6663TIP3    H119874   8.088   7.195   1.591
 6663TIP3    H219875   8.215   7.269   1.563
 6664TIP3   OH219876   8.370   7.274   1.659
 6664TIP3    H119877   8.453   7.249   1.615
 6664TIP3    H219878   8.360   7.201   1.724
 6665TIP3   OH219879   9.138   7.304   1.463
 6665TIP3    H119880   9.191   7.303   1.545
 6665TIP3    H219881   9.204   7.329   1.396
 6666TIP3   OH219882   0.350   7.991   3.538
 6666TIP3    H119883   0.408   7.926   3.493
 6666TIP3    H219884   0.317   8.042   3.462
 6667TIP3   OH219885   0.220   8.129   3.331
 6667TIP3    H119886   0.128   8.156   3.343
 6667TIP3    H219887   0.210   8.051   3.273
 6668TIP3   OH219888   0.125   7.891   3.202
 6668TIP3    H119889   0.030   7.884   3.182
 6668TIP3    H219890   0.152   7.797   3.196
 6669TIP3   OH219891   1.871   8.326   2.327
 6669TIP3    H119892   1.903   8.408   2.368
 6669TIP3    H219893   1.892   8.343   2.233
 6670TIP3   OH219894   1.281   8.517   2.362
 6670TIP3    H119895   1.317   8.428   2.381
 6670TIP3    H219896   1.229   8.498   2.282
 6671TIP3   OH219897   1.301   8.250   1.949
 6671TIP3    H119898   1.368   8.236   2.020
 6671TIP3    H219899   1.360   8.286   1.880
 6672TIP3   OH219900   1.957   8.530   2.499
 6672TIP3    H119901   1.877   8.575   2.467
 6672TIP3    H219902   1.955   8.552   2.593
 6673TIP3   OH219903   0.607   8.148   2.770
 6673TIP3    H119904   0.554   8.180   2.695
 6673TIP3    H219905   0.551   8.174   2.846
 6674TIP3   OH219906   1.508   8.262   2.121
 6674TIP3    H119907   1.507   8.204   2.198
 6674TIP3    H219908   1.559   8.339   2.152
 6675TIP3   OH219909   0.489   8.245   2.547
 6675TIP3    H119910   0.530   8.332   2.563
 6675TIP3    H219911   0.503   8.238   2.452
 6676TIP3   OH219912   1.662   8.234   2.497
 6676TIP3    H119913   1.574   8.254   2.462
 6676TIP3    H219914   1.721   8.262   2.424
 6677TIP3   OH219915   0.982   7.874   2.481
 6677TIP3    H119916   0.962   7.786   2.440
 6677TIP3    H219917   0.893   7.898   2.512
 6678TIP3   OH219918   1.499   8.753   2.601
 6678TIP3    H119919   1.510   8.837   2.555
 6678TIP3    H219920   1.408   8.727   2.571
 6679TIP3   OH219921   1.602   7.816   1.582
 6679TIP3    H119922   1.511   7.824   1.618
 6679TIP3    H219923   1.609   7.895   1.526
 6680TIP3   OH219924   1.719   8.717   2.790
 6680TIP3    H119925   1.639   8.709   2.736
 6680TIP3    H219926   1.747   8.623   2.792
 6681TIP3   OH219927   0.719   7.945   2.611
 6681TIP3    H119928   0.634   7.916   2.576
 6681TIP3    H219929   0.693   8.026   2.658
 6682TIP3   OH219930   1.255   8.069   2.801
 6682TIP3    H119931   1.323   8.033   2.862
 6682TIP3    H219932   1.172   8.041   2.844
 6683TIP3   OH219933   1.500   8.481   2.726
 6683TIP3    H119934   1.448   8.476   2.809
 6683TIP3    H219935   1.466   8.560   2.684
 6684TIP3   OH219936   0.643   8.470   2.596
 6684TIP3    H119937   0.602   8.487   2.683
 6684TIP3    H219938   0.620   8.548   2.543
 6685TIP3   OH219939   1.205   8.708   2.957
 6685TIP3    H119940   1.189   8.629   3.013
 6685TIP3    H219941   1.300   8.720   2.970
 6686TIP3   OH219942   1.193   8.454   2.101
 6686TIP3    H119943   1.096   8.454   2.092
 6686TIP3    H219944   1.216   8.363   2.074
 6687TIP3   OH219945   0.466   8.492   2.851
 6687TIP3    H119946   0.481   8.527   2.939
 6687TIP3    H219947   0.448   8.399   2.872
 6688TIP3   OH219948   1.241   8.702   2.553
 6688TIP3    H119949   1.249   8.635   2.480
 6688TIP3    H219950   1.173   8.656   2.607
 6689TIP3   OH219951   0.896   8.204   2.218
 6689TIP3    H119952   0.816   8.151   2.203
 6689TIP3    H219953   0.945   8.153   2.285
 6690TIP3   OH219954   1.350   8.248   2.408
 6690TIP3    H119955   1.309   8.257   2.496
 6690TIP3    H219956   1.291   8.181   2.369
 6691TIP3   OH219957   0.965   8.496   2.282
 6691TIP3    H119958   0.962   8.401   2.263
 6691TIP3    H219959   0.948   8.497   2.377
 6692TIP3   OH219960   0.920   8.386   2.593
 6692TIP3    H119961   0.831   8.426   2.587
 6692TIP3    H219962   0.975   8.455   2.635
 6693TIP3   OH219963   0.939   8.715   3.049
 6693TIP3    H119964   0.903   8.802   3.026
 6693TIP3    H219965   1.010   8.703   2.984
 6694TIP3   OH219966   0.451   8.236   2.986
 6694TIP3    H119967   0.357   8.218   2.999
 6694TIP3    H219968   0.489   8.170   3.047
 6695TIP3   OH219969   1.273   8.312   2.673
 6695TIP3    H119970   1.365   8.330   2.697
 6695TIP3    H219971   1.258   8.225   2.718
 6696TIP3   OH219972   1.132   8.082   1.807
 6696TIP3    H119973   1.149   8.099   1.714
 6696TIP3    H219974   1.197   8.140   1.853
 6697TIP3   OH219975   1.112   8.544   2.732
 6697TIP3    H119976   1.146   8.583   2.814
 6697TIP3    H219977   1.161   8.459   2.727
 6698TIP3   OH219978   1.014   7.968   2.037
 6698TIP3    H119979   0.984   8.048   2.083
 6698TIP3    H219980   1.052   8.007   1.955
 6699TIP3   OH219981   1.767   8.451   2.714
 6699TIP3    H119982   1.670   8.445   2.727
 6699TIP3    H219983   1.775   8.401   2.632
 6700TIP3   OH219984   1.407   8.630   2.081
 6700TIP3    H119985   1.339   8.568   2.112
 6700TIP3    H219986   1.484   8.603   2.134
 6701TIP3   OH219987   0.448   7.859   2.579
 6701TIP3    H119988   0.448   7.808   2.497
 6701TIP3    H219989   0.449   7.786   2.645
 6702TIP3   OH219990   0.425   8.757   3.188
 6702TIP3    H119991   0.458   8.671   3.214
 6702TIP3    H219992   0.421   8.808   3.272
 6703TIP3   OH219993   0.749   8.585   2.830
 6703TIP3    H119994   0.669   8.634   2.855
 6703TIP3    H219995   0.757   8.601   2.736
 6704TIP3   OH219996   0.862   8.419   3.015
 6704TIP3    H119997   0.870   8.337   2.962
 6704TIP3    H219998   0.825   8.479   2.947
 6705TIP3   OH219999   0.865   8.224   2.815
 6705TIP3    H120000   0.893   8.266   2.730
 6705TIP3    H220001   0.772   8.199   2.795
 6706TIP3   OH220002   1.484   8.736   3.060
 6706TIP3    H120003   1.498   8.643   3.082
 6706TIP3    H220004   1.572   8.760   3.028
 6707TIP3   OH220005   0.719   8.561   3.227
 6707TIP3    H120006   0.668   8.478   3.236
 6707TIP3    H220007   0.771   8.542   3.146
 6708TIP3   OH220008   0.999   7.990   2.879
 6708TIP3    H120009   0.947   8.070   2.854
 6708TIP3    H220010   0.934   7.919   2.863
 6709TIP3   OH220011   1.123   8.485   3.094
 6709TIP3    H120012   1.112   8.474   3.190
 6709TIP3    H220013   1.031   8.465   3.066
 6710TIP3   OH220014   1.367   8.456   2.959
 6710TIP3    H120015   1.288   8.436   3.013
 6710TIP3    H220016   1.439   8.414   3.010
 6711TIP3   OH220017   1.595   8.385   3.101
 6711TIP3    H120018   1.607   8.289   3.118
 6711TIP3    H220019   1.589   8.422   3.192
 6712TIP3   OH220020   0.583   8.331   3.288
 6712TIP3    H120021   0.585   8.241   3.250
 6712TIP3    H220022   0.620   8.314   3.377
 6713TIP3   OH220023   1.088   8.000   3.137
 6713TIP3    H120024   1.156   7.929   3.131
 6713TIP3    H220025   1.050   7.994   3.047
 6714TIP3   OH220026   1.157   8.216   3.292
 6714TIP3    H120027   1.137   8.143   3.229
 6714TIP3    H220028   1.078   8.273   3.285
 6715TIP3   OH220029   1.477   8.620   1.818
 6715TIP3    H120030   1.490   8.524   1.815
 6715TIP3    H220031   1.459   8.635   1.914
 6716TIP3   OH220032   1.928   8.877   2.722
 6716TIP3    H120033   1.855   8.817   2.746
 6716TIP3    H220034   2.004   8.816   2.725
 6717TIP3   OH220035   1.463   8.339   1.748
 6717TIP3    H120036   1.509   8.255   1.772
 6717TIP3    H220037   1.466   8.325   1.651
 6718TIP3   OH220038   1.624   8.511   2.214
 6718TIP3    H120039   1.709   8.540   2.174
 6718TIP3    H220040   1.640   8.545   2.304
 6719TIP3   OH220041   1.704   8.638   2.447
 6719TIP3    H120042   1.628   8.668   2.500
 6719TIP3    H220043   1.754   8.722   2.434
 6720TIP3   OH220044   0.319   8.397   3.279
 6720TIP3    H120045   0.414   8.378   3.268
 6720TIP3    H220046   0.285   8.309   3.298
 6721TIP3   OH220047   2.145   8.248   3.013
 6721TIP3    H120048   2.204   8.182   2.971
 6721TIP3    H220049   2.119   8.303   2.936
 6722TIP3   OH220050   1.569   8.088   1.777
 6722TIP3    H120051   1.618   8.069   1.860
 6722TIP3    H220052   1.510   8.009   1.773
 6723TIP3   OH220053   7.816   4.307  10.123
 6723TIP3    H120054   7.870   4.228  10.139
 6723TIP3    H220055   7.884   4.377  10.123
 6724TIP3   OH220056   2.018   8.390   2.815
 6724TIP3    H120057   1.929   8.425   2.830
 6724TIP3    H220058   1.996   8.314   2.758
 6725TIP3   OH220059   1.677   8.018   1.399
 6725TIP3    H120060   1.704   7.949   1.334
 6725TIP3    H220061   1.740   8.090   1.380
 6726TIP3   OH220062   0.285   7.989   2.994
 6726TIP3    H120063   0.229   7.953   3.064
 6726TIP3    H220064   0.243   7.953   2.915
 6727TIP3   OH220065   1.916   8.149   2.697
 6727TIP3    H120066   1.824   8.138   2.665
 6727TIP3    H220067   1.949   8.057   2.687
 6728TIP3   OH220068   1.129   8.066   2.332
 6728TIP3    H120069   1.082   7.997   2.384
 6728TIP3    H220070   1.176   8.013   2.267
 6729TIP3   OH220071   1.647   7.952   2.225
 6729TIP3    H120072   1.682   8.001   2.147
 6729TIP3    H220073   1.550   7.959   2.213
 6730TIP3   OH220074   1.743   8.051   1.988
 6730TIP3    H120075   1.815   7.999   1.946
 6730TIP3    H220076   1.773   8.142   1.970
 6731TIP3   OH220077   0.802   7.858   2.218
 6731TIP3    H120078   0.876   7.868   2.157
 6731TIP3    H220079   0.822   7.772   2.261
 6732TIP3   OH220080   1.373   7.954   2.189
 6732TIP3    H120081   1.351   7.910   2.106
 6732TIP3    H220082   1.357   7.881   2.253
 6733TIP3   OH220083   1.389   7.877   1.768
 6733TIP3    H120084   1.295   7.893   1.754
 6733TIP3    H220085   1.384   7.789   1.812
 6734TIP3   OH220086   0.577   8.055   3.223
 6734TIP3    H120087   0.544   7.986   3.282
 6734TIP3    H220088   0.672   8.056   3.250
 6735TIP3   OH220089   0.826   8.053   3.343
 6735TIP3    H120090   0.910   8.030   3.299
 6735TIP3    H220091   0.819   7.981   3.408
 6736TIP3   OH220092   1.651   8.115   3.132
 6736TIP3    H120093   1.670   8.080   3.223
 6736TIP3    H220094   1.740   8.107   3.090
 6737TIP3   OH220095   1.816   8.548   1.644
 6737TIP3    H120096   1.792   8.630   1.688
 6737TIP3    H220097   1.764   8.484   1.694
 6738TIP3   OH220098   3.667   8.582   1.815
 6738TIP3    H120099   3.697   8.665   1.856
 6738TIP3    H220100   3.686   8.600   1.721
 6739TIP3   OH220101   3.066   8.768   1.843
 6739TIP3    H120102   3.107   8.682   1.866
 6739TIP3    H220103   3.028   8.745   1.756
 6740TIP3   OH220104   2.406   8.423   1.815
 6740TIP3    H120105   2.386   8.498   1.754
 6740TIP3    H220106   2.357   8.351   1.770
 6741TIP3   OH220107   3.099   8.512   1.439
 6741TIP3    H120108   3.172   8.497   1.503
 6741TIP3    H220109   3.149   8.549   1.364
 6742TIP3   OH220110   2.027   8.609   1.928
 6742TIP3    H120111   2.113   8.601   1.973
 6742TIP3    H220112   2.048   8.571   1.841
 6743TIP3   OH220113   2.492   8.828   1.704
 6743TIP3    H120114   2.577   8.788   1.731
 6743TIP3    H220115   2.440   8.751   1.674
 6744TIP3   OH220116   3.752   8.785   1.988
 6744TIP3    H120117   3.673   8.833   1.955
 6744TIP3    H220118   3.757   8.821   2.078
 6745TIP3   OH220119   2.401   8.409   2.251
 6745TIP3    H120120   2.339   8.441   2.182
 6745TIP3    H220121   2.348   8.426   2.332
 6746TIP3   OH220122   3.309   8.519   1.609
 6746TIP3    H120123   3.301   8.472   1.692
 6746TIP3    H220124   3.358   8.600   1.636
 6747TIP3   OH220125   2.271   8.517   2.033
 6747TIP3    H120126   2.330   8.593   2.051
 6747TIP3    H220127   2.319   8.475   1.959
 6748TIP3   OH220128   3.460   8.484   1.982
 6748TIP3    H120129   3.373   8.512   1.950
 6748TIP3    H220130   3.519   8.517   1.911
 6749TIP3   OH220131   2.758   8.127   1.965
 6749TIP3    H120132   2.742   8.032   1.982
 6749TIP3    H220133   2.680   8.166   2.011
 6750TIP3   OH220134   2.637   8.685   0.988
 6750TIP3    H120135   2.730   8.707   1.003
 6750TIP3    H220136   2.638   8.641   0.901
 6751TIP3   OH220137   3.296   9.013   2.089
 6751TIP3    H120138   3.308   9.094   2.037
 6751TIP3    H220139   3.204   8.988   2.062
 6752TIP3   OH220140   3.390   8.071   1.065
 6752TIP3    H120141   3.309   8.091   1.116
 6752TIP3    H220142   3.403   8.155   1.016
 6753TIP3   OH220143   3.518   8.974   2.276
 6753TIP3    H120144   3.437   8.971   2.222
 6753TIP3    H220145   3.542   8.879   2.278
 6754TIP3   OH220146   2.519   8.203   2.092
 6754TIP3    H120147   2.429   8.172   2.066
 6754TIP3    H220148   2.494   8.286   2.138
 6755TIP3   OH220149   3.051   8.320   2.286
 6755TIP3    H120150   3.118   8.291   2.351
 6755TIP3    H220151   2.967   8.299   2.331
 6756TIP3   OH220152   3.294   8.737   2.210
 6756TIP3    H120153   3.244   8.733   2.295
 6756TIP3    H220154   3.264   8.820   2.172
 6757TIP3   OH220155   2.663   8.253   1.061
 6757TIP3    H120156   2.633   8.251   1.154
 6757TIP3    H220157   2.625   8.168   1.031
 6758TIP3   OH220158   2.440   8.726   2.096
 6758TIP3    H120159   2.385   8.735   2.176
 6758TIP3    H220160   2.418   8.805   2.045
 6759TIP3   OH220161   2.333   8.606   1.630
 6759TIP3    H120162   2.240   8.580   1.642
 6759TIP3    H220163   2.352   8.567   1.542
 6760TIP3   OH220164   2.834   8.693   1.354
 6760TIP3    H120165   2.753   8.743   1.330
 6760TIP3    H220166   2.875   8.676   1.267
 6761TIP3   OH220167   3.002   8.959   2.434
 6761TIP3    H120168   2.985   8.886   2.497
 6761TIP3    H220169   3.094   8.982   2.457
 6762TIP3   OH220170   2.970   8.705   1.594
 6762TIP3    H120171   2.911   8.723   1.518
 6762TIP3    H220172   3.015   8.627   1.556
 6763TIP3   OH220173   2.287   8.739   2.336
 6763TIP3    H120174   2.248   8.793   2.406
 6763TIP3    H220175   2.258   8.650   2.364
 6764TIP3   OH220176   2.309   8.222   1.018
 6764TIP3    H120177   2.310   8.225   1.116
 6764TIP3    H220178   2.214   8.205   1.001
 6765TIP3   OH220179   1.858   8.282   1.893
 6765TIP3    H120180   1.936   8.303   1.949
 6765TIP3    H220181   1.895   8.233   1.818
 6766TIP3   OH220182   1.827   8.264   1.412
 6766TIP3    H120183   1.879   8.294   1.336
 6766TIP3    H220184   1.782   8.345   1.438
 6767TIP3   OH220185   3.041   8.952   2.038
 6767TIP3    H120186   3.043   8.886   1.964
 6767TIP3    H220187   2.969   8.914   2.092
 6768TIP3   OH220188   2.661   8.419   1.685
 6768TIP3    H120189   2.578   8.423   1.736
 6768TIP3    H220190   2.726   8.436   1.755
 6769TIP3   OH220191   2.091   8.485   1.686
 6769TIP3    H120192   1.998   8.480   1.657
 6769TIP3    H220193   2.123   8.394   1.674
 6770TIP3   OH220194   2.380   8.472   1.399
 6770TIP3    H120195   2.471   8.496   1.375
 6770TIP3    H220196   2.328   8.508   1.322
 6771TIP3   OH220197   3.150   8.504   1.890
 6771TIP3    H120198   3.114   8.516   1.981
 6771TIP3    H220199   3.085   8.441   1.853
 6772TIP3   OH220200   2.231   8.521   1.183
 6772TIP3    H120201   2.193   8.444   1.140
 6772TIP3    H220202   2.272   8.566   1.106
 6773TIP3   OH220203   2.738   8.731   1.778
 6773TIP3    H120204   2.823   8.716   1.733
 6773TIP3    H220205   2.759   8.717   1.871
 6774TIP3   OH220206   2.263   8.245   1.664
 6774TIP3    H120207   2.229   8.165   1.711
 6774TIP3    H220208   2.318   8.205   1.595
 6775TIP3   OH220209   2.717   8.643   2.081
 6775TIP3    H120210   2.630   8.686   2.074
 6775TIP3    H220211   2.772   8.712   2.124
 6776TIP3   OH220212   2.913   8.364   1.032
 6776TIP3    H120213   2.817   8.343   1.041
 6776TIP3    H220214   2.917   8.460   1.051
 6777TIP3   OH220215   2.983   8.625   1.118
 6777TIP3    H120216   3.074   8.608   1.151
 6777TIP3    H220217   2.996   8.709   1.071
 6778TIP3   OH220218   2.746   8.977   2.547
 6778TIP3    H120219   2.670   9.028   2.513
 6778TIP3    H220220   2.796   8.960   2.467
 6779TIP3   OH220221   3.425   8.685   0.974
 6779TIP3    H120222   3.362   8.647   0.909
 6779TIP3    H220223   3.424   8.777   0.946
 6780TIP3   OH220224   2.237   8.486   2.465
 6780TIP3    H120225   2.140   8.488   2.478
 6780TIP3    H220226   2.265   8.427   2.536
 6781TIP3   OH220227   3.074   8.560   2.151
 6781TIP3    H120228   3.160   8.590   2.186
 6781TIP3    H220229   3.060   8.477   2.201
 6782TIP3   OH220230   2.960   8.304   1.311
 6782TIP3    H120231   2.945   8.330   1.218
 6782TIP3    H220232   2.999   8.386   1.349
 6783TIP3   OH220233   2.660   8.483   1.415
 6783TIP3    H120234   2.725   8.555   1.402
 6783TIP3    H220235   2.658   8.477   1.513
 6784TIP3   OH220236   2.906   8.798   2.219
 6784TIP3    H120237   2.939   8.848   2.297
 6784TIP3    H220238   2.960   8.717   2.221
 6785TIP3   OH220239   2.792   8.212   1.518
 6785TIP3    H120240   2.778   8.291   1.575
 6785TIP3    H220241   2.852   8.249   1.450
 6786TIP3   OH220242   2.306   8.217   1.299
 6786TIP3    H120243   2.311   8.304   1.344
 6786TIP3    H220244   2.400   8.191   1.308
 6787TIP3   OH220245   3.563   8.706   2.206
 6787TIP3    H120246   3.465   8.699   2.214
 6787TIP3    H220247   3.574   8.670   2.117
 6788TIP3   OH220248   3.197   8.883   1.571
 6788TIP3    H120249   3.130   8.822   1.605
 6788TIP3    H220250   3.274   8.862   1.628
 6789TIP3   OH220251   2.255   8.123   2.067
 6789TIP3    H120252   2.223   8.089   1.981
 6789TIP3    H220253   2.244   8.045   2.125
 6790TIP3   OH220254   2.233   9.008   2.675
 6790TIP3    H120255   2.284   8.932   2.706
 6790TIP3    H220256   2.222   9.063   2.756
 6791TIP3   OH220257   2.550   8.863   2.316
 6791TIP3    H120258   2.454   8.856   2.331
 6791TIP3    H220259   2.557   8.857   2.220
 6792TIP3   OH220260   2.368   8.614   0.969
 6792TIP3    H120261   2.367   8.629   0.873
 6792TIP3    H220262   2.459   8.641   0.993
 6793TIP3   OH220263   2.659   8.680   2.498
 6793TIP3    H120264   2.663   8.597   2.446
 6793TIP3    H220265   2.626   8.742   2.430
 6794TIP3   OH220266   2.661   8.478   2.300
 6794TIP3    H120267   2.687   8.524   2.217
 6794TIP3    H220268   2.566   8.457   2.281
 6795TIP3   OH220269   3.278   8.994   2.546
 6795TIP3    H120270   3.295   8.902   2.569
 6795TIP3    H220271   3.365   9.024   2.518
 6796TIP3   OH220272   2.520   8.813   2.717
 6796TIP3    H120273   2.463   8.733   2.726
 6796TIP3    H220274   2.568   8.793   2.634
 6797TIP3   OH220275   2.793   8.244   2.363
 6797TIP3    H120276   2.743   8.326   2.341
 6797TIP3    H220277   2.723   8.176   2.352
 6798TIP3   OH220278   2.923   8.738   2.580
 6798TIP3    H120279   2.908   8.733   2.676
 6798TIP3    H220280   2.831   8.722   2.551
 6799TIP3   OH220281   3.162   8.702   2.442
 6799TIP3    H120282   3.082   8.694   2.499
 6799TIP3    H220283   3.232   8.666   2.499
 6800TIP3   OH220284   3.393   8.643   2.590
 6800TIP3    H120285   3.402   8.547   2.607
 6800TIP3    H220286   3.385   8.681   2.679
 6801TIP3   OH220287   2.370   8.588   2.773
 6801TIP3    H120288   2.375   8.497   2.738
 6801TIP3    H220289   2.409   8.575   2.862
 6802TIP3   OH220290   2.887   8.257   2.621
 6802TIP3    H120291   2.953   8.184   2.615
 6802TIP3    H220292   2.846   8.251   2.532
 6803TIP3   OH220293   2.953   8.472   2.780
 6803TIP3    H120294   2.931   8.401   2.716
 6803TIP3    H220295   2.875   8.530   2.774
 6804TIP3   OH220296   3.260   8.609   0.771
 6804TIP3    H120297   3.217   8.621   0.685
 6804TIP3    H220298   3.238   8.514   0.784
 6805TIP3   OH220299   3.293   8.860   1.319
 6805TIP3    H120300   3.293   8.764   1.331
 6805TIP3    H220301   3.269   8.888   1.410
 6806TIP3   OH220302   3.730   9.135   2.217
 6806TIP3    H120303   3.652   9.077   2.235
 6806TIP3    H220304   3.801   9.068   2.215
 6807TIP3   OH220305   3.199   8.346   0.776
 6807TIP3    H120306   3.277   8.307   0.820
 6807TIP3    H220307   3.130   8.278   0.788
 6808TIP3   OH220308   3.249   8.584   1.215
 6808TIP3    H120309   3.293   8.496   1.228
 6808TIP3    H220310   3.311   8.623   1.151
 6809TIP3   OH220311   3.419   8.765   1.701
 6809TIP3    H120312   3.503   8.794   1.659
 6809TIP3    H220313   3.436   8.801   1.790
 6810TIP3   OH220314   3.497   8.893   1.934
 6810TIP3    H120315   3.421   8.924   1.986
 6810TIP3    H220316   3.547   8.978   1.922
 6811TIP3   OH220317   2.103   8.654   2.754
 6811TIP3    H120318   2.200   8.641   2.748
 6811TIP3    H220319   2.077   8.566   2.788
 6812TIP3   OH220320   3.943   8.505   2.499
 6812TIP3    H120321   4.001   8.440   2.455
 6812TIP3    H220322   3.913   8.561   2.424
 6813TIP3   OH220323   3.371   8.342   1.254
 6813TIP3    H120324   3.418   8.328   1.338
 6813TIP3    H220325   3.309   8.266   1.254
 6814TIP3   OH220326   2.065   8.325   2.075
 6814TIP3    H120327   2.131   8.254   2.085
 6814TIP3    H220328   2.123   8.403   2.066
 6815TIP3   OH220329   1.872   8.613   2.154
 6815TIP3    H120330   1.918   8.603   2.068
 6815TIP3    H220331   1.895   8.705   2.176
 6816TIP3   OH220332   3.814   8.645   2.305
 6816TIP3    H120333   3.725   8.684   2.320
 6816TIP3    H220334   3.788   8.572   2.246
 6817TIP3   OH220335   3.450   8.280   0.885
 6817TIP3    H120336   3.489   8.207   0.834
 6817TIP3    H220337   3.519   8.348   0.880
 6818TIP3   OH220338   1.850   8.125   1.651
 6818TIP3    H120339   1.757   8.107   1.673
 6818TIP3    H220340   1.842   8.172   1.565
 6819TIP3   OH220341   2.076   8.191   2.463
 6819TIP3    H120342   2.023   8.182   2.544
 6819TIP3    H220343   2.009   8.227   2.402
 6820TIP3   OH220344   3.711   8.408   2.184
 6820TIP3    H120345   3.620   8.402   2.149
 6820TIP3    H220346   3.741   8.315   2.172
 6821TIP3   OH220347   2.924   8.324   1.809
 6821TIP3    H120348   2.873   8.256   1.856
 6821TIP3    H220349   2.989   8.271   1.759
 6822TIP3   OH220350   3.441   8.203   1.709
 6822TIP3    H120351   3.476   8.255   1.634
 6822TIP3    H220352   3.345   8.219   1.702
 6823TIP3   OH220353   3.535   8.302   1.472
 6823TIP3    H120354   3.608   8.251   1.432
 6823TIP3    H220355   3.567   8.394   1.457
 6824TIP3   OH220356   2.165   8.031   1.818
 6824TIP3    H120357   2.073   7.997   1.820
 6824TIP3    H220358   2.214   7.946   1.815
 6825TIP3   OH220359   1.963   7.894   1.469
 6825TIP3    H120360   1.987   7.953   1.396
 6825TIP3    H220361   1.917   7.955   1.530
 6826TIP3   OH220362   2.608   8.063   1.698
 6826TIP3    H120363   2.668   8.113   1.641
 6826TIP3    H220364   2.626   8.102   1.785
 6827TIP3   OH220365   3.160   8.209   1.682
 6827TIP3    H120366   3.152   8.172   1.594
 6827TIP3    H220367   3.144   8.130   1.738
 6828TIP3   OH220368   3.185   8.132   1.246
 6828TIP3    H120369   3.099   8.175   1.259
 6828TIP3    H220370   3.171   8.047   1.292
 6829TIP3   OH220371   2.070   8.063   1.242
 6829TIP3    H120372   2.112   7.997   1.183
 6829TIP3    H220373   2.148   8.110   1.277
 6830TIP3   OH220374   2.584   8.235   1.327
 6830TIP3    H120375   2.641   8.188   1.390
 6830TIP3    H220376   2.604   8.327   1.353
 6831TIP3   OH220377   2.372   8.313   2.713
 6831TIP3    H120378   2.338   8.240   2.768
 6831TIP3    H220379   2.466   8.313   2.739
 6832TIP3   OH220380   2.622   8.310   2.830
 6832TIP3    H120381   2.706   8.282   2.791
 6832TIP3    H220382   2.608   8.240   2.897
 6833TIP3   OH220383   3.447   8.370   2.617
 6833TIP3    H120384   3.465   8.339   2.708
 6833TIP3    H220385   3.536   8.364   2.576
 6834TIP3   OH220386   3.631   8.816   1.130
 6834TIP3    H120387   3.592   8.891   1.177
 6834TIP3    H220388   3.554   8.758   1.116
 6835TIP3   OH220389   5.462   8.839   1.302
 6835TIP3    H120390   5.494   8.921   1.344
 6835TIP3    H220391   5.483   8.856   1.208
 6836TIP3   OH220392   4.861   9.024   1.331
 6836TIP3    H120393   4.903   8.938   1.353
 6836TIP3    H220394   4.824   9.003   1.243
 6837TIP3   OH220395   4.202   8.680   1.301
 6837TIP3    H120396   4.182   8.754   1.240
 6837TIP3    H220397   4.153   8.608   1.256
 6838TIP3   OH220398   4.894   8.769   0.924
 6838TIP3    H120399   4.968   8.753   0.987
 6838TIP3    H220400   4.945   8.810   0.851
 6839TIP3   OH220401   3.823   8.863   1.419
 6839TIP3    H120402   3.912   8.863   1.458
 6839TIP3    H220403   3.841   8.829   1.330
 6840TIP3   OH220404   4.295   9.086   1.172
 6840TIP3    H120405   4.374   9.048   1.213
 6840TIP3    H220406   4.238   9.008   1.156
 6841TIP3   OH220407   5.548   9.043   1.473
 6841TIP3    H120408   5.468   9.089   1.441
 6841TIP3    H220409   5.548   9.068   1.566
 6842TIP3   OH220410   4.197   8.666   1.739
 6842TIP3    H120411   4.137   8.698   1.669
 6842TIP3    H220412   4.143   8.684   1.819
 6843TIP3   OH220413   5.103   8.775   1.097
 6843TIP3    H120414   5.098   8.726   1.179
 6843TIP3    H220415   5.153   8.855   1.123
 6844TIP3   OH220416   4.070   8.773   1.522
 6844TIP3    H120417   4.127   8.852   1.535
 6844TIP3    H220418   4.117   8.733   1.445
 6845TIP3   OH220419   5.256   8.743   1.470
 6845TIP3    H120420   5.168   8.768   1.437
 6845TIP3    H220421   5.315   8.773   1.398
 6846TIP3   OH220422   4.555   8.384   1.452
 6846TIP3    H120423   4.538   8.289   1.466
 6846TIP3    H220424   4.477   8.423   1.498
 6847TIP3   OH220425   5.094   9.266   1.574
 6847TIP3    H120426   5.100   9.352   1.531
 6847TIP3    H220427   5.003   9.239   1.548
 6848TIP3   OH220428   5.183   8.340   0.562
 6848TIP3    H120429   5.098   8.339   0.611
 6848TIP3    H220430   5.189   8.434   0.540
 6849TIP3   OH220431   5.314   9.232   1.762
 6849TIP3    H120432   5.232   9.226   1.709
 6849TIP3    H220433   5.340   9.138   1.765
 6850TIP3   OH220434   4.316   8.459   1.580
 6850TIP3    H120435   4.226   8.429   1.553
 6850TIP3    H220436   4.291   8.543   1.624
 6851TIP3   OH220437   4.848   8.577   1.773
 6851TIP3    H120438   4.915   8.547   1.837
 6851TIP3    H220439   4.763   8.555   1.818
 6852TIP3   OH220440   5.091   8.993   1.698
 6852TIP3    H120441   5.040   8.988   1.782
 6852TIP3    H220442   5.058   9.075   1.658
 6853TIP3   OH220443   4.483   8.493   0.547
 6853TIP3    H120444   4.442   8.503   0.635
 6853TIP3    H220445   4.435   8.416   0.513
 6854TIP3   OH220446   4.236   8.988   1.586
 6854TIP3    H120447   4.178   8.990   1.665
 6854TIP3    H220448   4.191   9.052   1.528
 6855TIP3   OH220449   4.133   8.861   1.114
 6855TIP3    H120450   4.039   8.837   1.129
 6855TIP3    H220451   4.145   8.824   1.023
 6856TIP3   OH220452   4.627   8.952   0.837
 6856TIP3    H120453   4.543   9.001   0.821
 6856TIP3    H220454   4.665   8.949   0.749
 6857TIP3   OH220455   4.800   9.215   1.919
 6857TIP3    H120456   4.781   9.143   1.982
 6857TIP3    H220457   4.891   9.239   1.945
 6858TIP3   OH220458   4.769   8.963   1.078
 6858TIP3    H120459   4.708   8.980   1.003
 6858TIP3    H220460   4.814   8.885   1.040
 6859TIP3   OH220461   4.088   8.998   1.827
 6859TIP3    H120462   4.036   9.052   1.887
 6859TIP3    H220463   4.059   8.909   1.853
 6860TIP3   OH220464   4.105   8.479   0.518
 6860TIP3    H120465   4.122   8.480   0.614
 6860TIP3    H220466   4.016   8.516   0.517
 6861TIP3   OH220467   3.657   8.527   1.384
 6861TIP3    H120468   3.730   8.560   1.441
 6861TIP3    H220469   3.703   8.492   1.307
 6862TIP3   OH220470   3.632   8.504   0.901
 6862TIP3    H120471   3.686   8.543   0.830
 6862TIP3    H220472   3.574   8.579   0.925
 6863TIP3   OH220473   4.839   9.209   1.527
 6863TIP3    H120474   4.839   9.145   1.452
 6863TIP3    H220475   4.764   9.172   1.579
 6864TIP3   OH220476   4.458   8.676   1.172
 6864TIP3    H120477   4.374   8.680   1.221
 6864TIP3    H220478   4.522   8.693   1.243
 6865TIP3   OH220479   3.892   8.744   1.176
 6865TIP3    H120480   3.797   8.749   1.151
 6865TIP3    H220481   3.915   8.652   1.157
 6866TIP3   OH220482   4.161   8.735   0.870
 6866TIP3    H120483   4.254   8.754   0.849
 6866TIP3    H220484   4.114   8.763   0.788
 6867TIP3   OH220485   4.947   8.761   1.378
 6867TIP3    H120486   4.909   8.772   1.468
 6867TIP3    H220487   4.883   8.698   1.340
 6868TIP3   OH220488   4.002   8.753   0.639
 6868TIP3    H120489   3.913   8.726   0.610
 6868TIP3    H220490   4.036   8.797   0.560
 6869TIP3   OH220491   4.534   8.987   1.265
 6869TIP3    H120492   4.618   8.971   1.221
 6869TIP3    H220493   4.555   8.976   1.359
 6870TIP3   OH220494   4.062   8.500   1.150
 6870TIP3    H120495   4.029   8.420   1.195
 6870TIP3    H220496   4.110   8.463   1.075
 6871TIP3   OH220497   4.511   8.900   1.570
 6871TIP3    H120498   4.425   8.944   1.560
 6871TIP3    H220499   4.567   8.969   1.610
 6872TIP3   OH220500   4.543   9.234   2.033
 6872TIP3    H120501   4.465   9.283   2.000
 6872TIP3    H220502   4.590   9.216   1.951
 6873TIP3   OH220503   4.032   8.742   1.951
 6873TIP3    H120504   3.935   8.745   1.965
 6873TIP3    H220505   4.060   8.684   2.024
 6874TIP3   OH220506   4.870   8.817   1.639
 6874TIP3    H120507   4.956   8.846   1.673
 6874TIP3    H220508   4.855   8.734   1.688
 6875TIP3   OH220509   4.752   8.571   0.790
 6875TIP3    H120510   4.719   8.609   0.707
 6875TIP3    H220511   4.798   8.648   0.831
 6876TIP3   OH220512   4.448   8.742   0.902
 6876TIP3    H120513   4.517   8.809   0.887
 6876TIP3    H220514   4.449   8.734   1.000
 6877TIP3   OH220515   4.702   9.055   1.706
 6877TIP3    H120516   4.736   9.104   1.783
 6877TIP3    H220517   4.756   8.974   1.706
 6878TIP3   OH220518   4.590   8.471   1.002
 6878TIP3    H120519   4.575   8.549   1.059
 6878TIP3    H220520   4.649   8.509   0.933
 6879TIP3   OH220521   4.101   8.468   0.796
 6879TIP3    H120522   4.100   8.560   0.829
 6879TIP3    H220523   4.197   8.448   0.806
 6880TIP3   OH220524   5.359   8.964   1.689
 6880TIP3    H120525   5.261   8.959   1.701
 6880TIP3    H220526   5.368   8.918   1.605
 6881TIP3   OH220527   4.991   9.142   1.069
 6881TIP3    H120528   4.922   9.078   1.091
 6881TIP3    H220529   5.066   9.113   1.124
 6882TIP3   OH220530   3.666   8.674   0.669
 6882TIP3    H120531   3.654   8.768   0.689
 6882TIP3    H220532   3.577   8.639   0.657
 6883TIP3   OH220533   4.052   8.380   1.553
 6883TIP3    H120534   4.019   8.347   1.467
 6883TIP3    H220535   4.039   8.301   1.610
 6884TIP3   OH220536   4.032   9.266   2.160
 6884TIP3    H120537   4.076   9.188   2.195
 6884TIP3    H220538   4.016   9.321   2.239
 6885TIP3   OH220539   4.344   9.119   1.802
 6885TIP3    H120540   4.251   9.099   1.822
 6885TIP3    H220541   4.347   9.101   1.707
 6886TIP3   OH220542   4.456   8.937   1.983
 6886TIP3    H120543   4.459   8.855   1.930
 6886TIP3    H220544   4.424   9.001   1.916
 6887TIP3   OH220545   4.457   8.734   1.786
 6887TIP3    H120546   4.483   8.781   1.704
 6887TIP3    H220547   4.362   8.714   1.768
 6888TIP3   OH220548   5.074   9.251   2.033
 6888TIP3    H120549   5.090   9.158   2.056
 6888TIP3    H220550   5.162   9.279   2.007
 6889TIP3   OH220551   4.321   9.067   2.205
 6889TIP3    H120552   4.260   8.991   2.213
 6889TIP3    H220553   4.365   9.047   2.120
 6890TIP3   OH220554   4.589   8.502   1.852
 6890TIP3    H120555   4.540   8.583   1.828
 6890TIP3    H220556   4.520   8.434   1.839
 6891TIP3   OH220557   4.719   8.995   2.067
 6891TIP3    H120558   4.704   8.992   2.163
 6891TIP3    H220559   4.627   8.978   2.037
 6892TIP3   OH220560   4.957   8.957   1.928
 6892TIP3    H120561   4.878   8.951   1.986
 6892TIP3    H220562   5.028   8.922   1.986
 6893TIP3   OH220563   5.188   8.899   2.076
 6893TIP3    H120564   5.198   8.803   2.094
 6893TIP3    H220565   5.181   8.937   2.166
 6894TIP3   OH220566   4.165   8.845   2.259
 6894TIP3    H120567   4.172   8.754   2.224
 6894TIP3    H220568   4.203   8.832   2.349
 6895TIP3   OH220569   4.680   8.510   2.110
 6895TIP3    H120570   4.749   8.441   2.101
 6895TIP3    H220571   4.641   8.507   2.021
 6896TIP3   OH220572   4.747   8.727   2.269
 6896TIP3    H120573   4.725   8.658   2.203
 6896TIP3    H220574   4.670   8.788   2.262
 6897TIP3   OH220575   5.114   9.119   0.828
 6897TIP3    H120576   5.110   9.022   0.825
 6897TIP3    H220577   5.080   9.138   0.918
 6898TIP3   OH220578   5.525   9.388   1.692
 6898TIP3    H120579   5.449   9.333   1.717
 6898TIP3    H220580   5.597   9.323   1.697
 6899TIP3   OH220581   5.070   8.857   0.732
 6899TIP3    H120582   5.103   8.764   0.741
 6899TIP3    H220583   5.104   8.879   0.645
 6900TIP3   OH220584   5.216   9.023   1.189
 6900TIP3    H120585   5.299   9.051   1.145
 6900TIP3    H220586   5.234   9.059   1.278
 6901TIP3   OH220587   5.297   9.153   1.419
 6901TIP3    H120588   5.221   9.184   1.472
 6901TIP3    H220589   5.345   9.237   1.404
 6902TIP3   OH220590   3.897   8.907   2.235
 6902TIP3    H120591   3.995   8.897   2.232
 6902TIP3    H220592   3.873   8.821   2.274
 6903TIP3   OH220593   5.736   8.761   1.986
 6903TIP3    H120594   5.796   8.695   1.945
 6903TIP3    H220595   5.711   8.816   1.909
 6904TIP3   OH220596   5.146   8.598   0.748
 6904TIP3    H120597   5.207   8.585   0.824
 6904TIP3    H220598   5.090   8.518   0.754
 6905TIP3   OH220599   3.861   8.583   1.564
 6905TIP3    H120600   3.929   8.513   1.571
 6905TIP3    H220601   3.917   8.662   1.552
 6906TIP3   OH220602   3.668   8.867   1.643
 6906TIP3    H120603   3.715   8.857   1.558
 6906TIP3    H220604   3.685   8.959   1.663
 6907TIP3   OH220605   5.611   8.904   1.789
 6907TIP3    H120606   5.521   8.940   1.805
 6907TIP3    H220607   5.588   8.829   1.732
 6908TIP3   OH220608   3.651   8.364   1.133
 6908TIP3    H120609   3.558   8.361   1.162
 6908TIP3    H220610   3.646   8.422   1.054
 6909TIP3   OH220611   3.872   8.445   1.950
 6909TIP3    H120612   3.819   8.441   2.031
 6909TIP3    H220613   3.807   8.484   1.887
 6910TIP3   OH220614   5.507   8.663   1.671
 6910TIP3    H120615   5.417   8.654   1.636
 6910TIP3    H220616   5.540   8.571   1.660
 6911TIP3   OH220617   4.721   8.581   1.297
 6911TIP3    H120618   4.670   8.512   1.343
 6911TIP3    H220619   4.785   8.529   1.245
 6912TIP3   OH220620   5.236   8.461   1.196
 6912TIP3    H120621   5.271   8.513   1.121
 6912TIP3    H220622   5.140   8.476   1.188
 6913TIP3   OH220623   5.327   8.564   0.959
 6913TIP3    H120624   5.400   8.511   0.920
 6913TIP3    H220625   5.360   8.655   0.942
 6914TIP3   OH220626   3.961   8.287   1.306
 6914TIP3    H120627   3.868   8.254   1.308
 6914TIP3    H220628   4.010   8.202   1.302
 6915TIP3   OH220629   3.747   8.157   0.954
 6915TIP3    H120630   3.778   8.214   0.882
 6915TIP3    H220631   3.720   8.222   1.021
 6916TIP3   OH220632   4.405   8.318   1.187
 6916TIP3    H120633   4.462   8.367   1.126
 6916TIP3    H220634   4.424   8.361   1.271
 6917TIP3   OH220635   4.955   8.465   1.168
 6917TIP3    H120636   4.948   8.429   1.080
 6917TIP3    H220637   4.940   8.386   1.224
 6918TIP3   OH220638   4.975   8.384   0.739
 6918TIP3    H120639   4.887   8.425   0.742
 6918TIP3    H220640   4.958   8.299   0.785
 6919TIP3   OH220641   3.866   8.318   0.722
 6919TIP3    H120642   3.910   8.252   0.664
 6919TIP3    H220643   3.942   8.368   0.756
 6920TIP3   OH220644   4.376   8.492   0.814
 6920TIP3    H120645   4.437   8.444   0.872
 6920TIP3    H220646   4.399   8.584   0.841
 6921TIP3   OH220647   4.168   8.568   2.197
 6921TIP3    H120648   4.133   8.498   2.254
 6921TIP3    H220649   4.262   8.569   2.224
 6922TIP3   OH220650   4.417   8.564   2.317
 6922TIP3    H120651   4.502   8.544   2.274
 6922TIP3    H220652   4.409   8.490   2.380
 6923TIP3   OH220653   5.243   8.627   2.104
 6923TIP3    H120654   5.263   8.595   2.195
 6923TIP3    H220655   5.332   8.622   2.062
 6924TIP3   OH220656   5.619   9.123   0.886
 6924TIP3    H120657   5.703   9.116   0.935
 6924TIP3    H220658   5.637   9.064   0.812
 6925TIP3   OH220659   5.991   8.925   1.222
 6925TIP3    H120660   5.931   8.952   1.150
 6925TIP3    H220661   5.936   8.942   1.301
 6926TIP3   OH220662   5.864   9.028   0.994
 6926TIP3    H120663   5.925   9.100   1.021
 6926TIP3    H220664   5.898   9.016   0.902
 6927TIP3   OH220665   6.359   8.624   0.960
 6927TIP3    H120666   6.325   8.536   0.983
 6927TIP3    H220667   6.281   8.680   0.973
 6928TIP3   OH220668   6.107   8.714   1.067
 6928TIP3    H120669   6.015   8.685   1.046
 6928TIP3    H220670   6.088   8.799   1.109
 6929TIP3   OH220671   6.645   8.838   1.258
 6929TIP3    H120672   6.711   8.806   1.323
 6929TIP3    H220673   6.560   8.816   1.301
 6930TIP3   OH220674   6.900   9.267   1.186
 6930TIP3    H120675   6.851   9.253   1.270
 6930TIP3    H220676   6.839   9.324   1.138
 6931TIP3   OH220677   6.023   9.237   1.063
 6931TIP3    H120678   5.982   9.250   1.150
 6931TIP3    H220679   6.037   9.327   1.029
 6932TIP3   OH220680   6.597   9.481   1.413
 6932TIP3    H120681   6.573   9.405   1.470
 6932TIP3    H220682   6.693   9.485   1.427
 6933TIP3   OH220683   5.875   9.262   1.314
 6933TIP3    H120684   5.844   9.303   1.396
 6933TIP3    H220685   5.846   9.170   1.331
 6934TIP3   OH220686   5.463   8.783   0.871
 6934TIP3    H120687   5.529   8.815   0.937
 6934TIP3    H220688   5.518   8.741   0.804
 6935TIP3   OH220689   6.306   9.149   1.078
 6935TIP3    H120690   6.230   9.193   1.038
 6935TIP3    H220691   6.367   9.222   1.098
 6936TIP3   OH220692   6.335   9.492   1.522
 6936TIP3    H120693   6.259   9.542   1.487
 6936TIP3    H220694   6.380   9.466   1.442
 6937TIP3   OH220695   5.828   9.002   1.437
 6937TIP3    H120696   5.731   9.003   1.451
 6937TIP3    H220697   5.858   8.943   1.508
 6938TIP3   OH220698   6.659   9.095   1.146
 6938TIP3    H120699   6.755   9.098   1.157
 6938TIP3    H220700   6.639   9.004   1.174
 6939TIP3   OH220701   6.500   9.316   1.194
 6939TIP3    H120702   6.543   9.355   1.271
 6939TIP3    H220703   6.551   9.233   1.181
 6940TIP3   OH220704   7.169   9.198   1.154
 6940TIP3    H120705   7.078   9.223   1.177
 6940TIP3    H220706   7.177   9.228   1.063
 6941TIP3   OH220707   5.842   8.637   1.046
 6941TIP3    H120708   5.811   8.604   0.959
 6941TIP3    H220709   5.834   8.557   1.102
 6942TIP3   OH220710   5.831   9.525   1.645
 6942TIP3    H120711   5.867   9.442   1.679
 6942TIP3    H220712   5.812   9.577   1.726
 6943TIP3   OH220713   6.141   9.372   1.291
 6943TIP3    H120714   6.045   9.365   1.295
 6943TIP3    H220715   6.162   9.379   1.196
 6944TIP3   OH220716   6.252   9.193   1.472
 6944TIP3    H120717   6.257   9.108   1.423
 6944TIP3    H220718   6.218   9.252   1.402
 6945TIP3   OH220719   6.249   8.985   1.285
 6945TIP3    H120720   6.278   9.037   1.207
 6945TIP3    H220721   6.156   8.966   1.261
 6946TIP3   OH220722   6.881   9.508   1.529
 6946TIP3    H120723   6.887   9.412   1.541
 6946TIP3    H220724   6.965   9.525   1.485
 6947TIP3   OH220725   6.115   9.325   1.691
 6947TIP3    H120726   6.056   9.247   1.700
 6947TIP3    H220727   6.162   9.303   1.607
 6948TIP3   OH220728   6.389   8.756   1.336
 6948TIP3    H120729   6.337   8.838   1.317
 6948TIP3    H220730   6.320   8.688   1.324
 6949TIP3   OH220731   6.513   9.256   1.551
 6949TIP3    H120732   6.498   9.247   1.647
 6949TIP3    H220733   6.422   9.236   1.521
 6950TIP3   OH220734   6.761   9.231   1.417
 6950TIP3    H120735   6.679   9.209   1.466
 6950TIP3    H220736   6.829   9.186   1.471
 6951TIP3   OH220737   6.975   9.152   1.567
 6951TIP3    H120738   6.990   9.056   1.582
 6951TIP3    H220739   6.979   9.189   1.657
 6952TIP3   OH220740   5.963   9.102   1.747
 6952TIP3    H120741   5.969   9.011   1.711
 6952TIP3    H220742   6.001   9.088   1.835
 6953TIP3   OH220743   6.478   8.771   1.596
 6953TIP3    H120744   6.545   8.700   1.590
 6953TIP3    H220745   6.439   8.765   1.506
 6954TIP3   OH220746   6.547   8.986   1.752
 6954TIP3    H120747   6.524   8.914   1.689
 6954TIP3    H220748   6.468   9.044   1.746
 6955TIP3   OH220749   5.696   9.167   1.726
 6955TIP3    H120750   5.793   9.153   1.721
 6955TIP3    H220751   5.670   9.080   1.761
 6956TIP3   OH220752   7.516   9.025   1.454
 6956TIP3    H120753   7.569   8.943   1.444
 6956TIP3    H220754   7.480   9.035   1.365
 6957TIP3   OH220755   5.660   8.844   1.053
 6957TIP3    H120756   5.720   8.767   1.060
 6957TIP3    H220757   5.724   8.915   1.037
 6958TIP3   OH220758   5.466   9.124   1.124
 6958TIP3    H120759   5.510   9.117   1.036
 6958TIP3    H220760   5.486   9.215   1.148
 6959TIP3   OH220761   5.668   8.706   1.438
 6959TIP3    H120762   5.615   8.698   1.519
 6959TIP3    H220763   5.602   8.740   1.376
 6960TIP3   OH220764   7.322   8.915   1.174
 6960TIP3    H120765   7.233   8.917   1.137
 6960TIP3    H220766   7.353   8.826   1.146
 6961TIP3   OH220767   5.752   8.541   0.808
 6961TIP3    H120768   5.662   8.505   0.796
 6961TIP3    H220769   5.805   8.461   0.790
 6962TIP3   OH220770   5.964   8.827   1.686
 6962TIP3    H120771   5.931   8.754   1.742
 6962TIP3    H220772   6.059   8.826   1.712
 6963TIP3   OH220773   6.215   8.823   1.803
 6963TIP3    H120774   6.298   8.796   1.762
 6963TIP3    H220775   6.203   8.752   1.870
 6964TIP3   OH220776   7.038   8.883   1.592
 6964TIP3    H120777   7.058   8.851   1.682
 6964TIP3    H220778   7.126   8.876   1.548
 6965TIP3   OH220779   1.775   0.222   6.066
 6965TIP3    H120780   1.850   0.173   6.102
 6965TIP3    H220781   1.790   0.310   6.108
 6966TIP3   OH220782   1.398   0.650   6.081
 6966TIP3    H120783   1.441   0.577   6.031
 6966TIP3    H220784   1.426   0.633   6.172
 6967TIP3   OH220785   1.815   0.445   6.235
 6967TIP3    H120786   1.734   0.452   6.288
 6967TIP3    H220787   1.822   0.536   6.198
 6968TIP3   OH220788   1.534   0.486   5.904
 6968TIP3    H120789   1.577   0.402   5.881
 6968TIP3    H220790   1.599   0.551   5.869
 6969TIP3   OH220791   1.644   0.246   5.816
 6969TIP3    H120792   1.682   0.187   5.748
 6969TIP3    H220793   1.709   0.239   5.889
 6970TIP3   OH220794   2.076   0.357   6.581
 6970TIP3    H120795   2.043   0.278   6.536
 6970TIP3    H220796   2.050   0.429   6.521
 6971TIP3   OH220797   2.278   0.009   6.429
 6971TIP3    H120798   2.182   0.022   6.438
 6971TIP3    H220799   2.290   0.019   6.333
 6972TIP3   OH220800   1.858   0.300   5.234
 6972TIP3    H120801   1.867   0.396   5.215
 6972TIP3    H220802   1.950   0.269   5.222
 6973TIP3   OH220803   2.297   0.700   6.627
 6973TIP3    H120804   2.299   0.603   6.641
 6973TIP3    H220805   2.215   0.724   6.674
 6974TIP3   OH220806   1.164   0.621   5.707
 6974TIP3    H120807   1.129   0.614   5.618
 6974TIP3    H220808   1.136   0.711   5.735
 6975TIP3   OH220809   1.369   0.515   5.359
 6975TIP3    H120810   1.430   0.450   5.318
 6975TIP3    H220811   1.407   0.524   5.448
 6976TIP3   OH220812   1.422   0.573   5.629
 6976TIP3    H120813   1.334   0.576   5.673
 6976TIP3    H220814   1.483   0.570   5.705
 6977TIP3   OH220815   1.988   1.051   6.726
 6977TIP3    H120816   1.987   1.076   6.631
 6977TIP3    H220817   2.067   1.098   6.758
 6978TIP3   OH220818   2.016   0.135   6.414
 6978TIP3    H120819   2.067   0.183   6.344
 6978TIP3    H220820   1.926   0.149   6.386
 6979TIP3   OH220821   2.321   0.417   6.668
 6979TIP3    H120822   2.223   0.407   6.664
 6979TIP3    H220823   2.344   0.383   6.578
 6980TIP3   OH220824   1.796   0.367   5.496
 6980TIP3    H120825   1.770   0.284   5.539
 6980TIP3    H220826   1.807   0.337   5.404
 6981TIP3   OH220827   1.575   0.112   5.393
 6981TIP3    H120828   1.604   0.074   5.478
 6981TIP3    H220829   1.477   0.102   5.400
 6982TIP3   OH220830   1.829   0.736   6.561
 6982TIP3    H120831   1.742   0.692   6.551
 6982TIP3    H220832   1.819   0.809   6.497
 6983TIP3   OH220833   1.889   0.574   5.218
 6983TIP3    H120834   1.925   0.645   5.163
 6983TIP3    H220835   1.808   0.619   5.250
 6984TIP3   OH220836   1.720   0.036   5.645
 6984TIP3    H120837   1.712  -0.056   5.677
 6984TIP3    H220838   1.813   0.034   5.615
 6985TIP3   OH220839   1.843   0.707   6.155
 6985TIP3    H120840   1.802   0.756   6.081
 6985TIP3    H220841   1.938   0.730   6.138
 6986TIP3   OH220842   1.745   0.616   6.919
 6986TIP3    H120843   1.779   0.534   6.955
 6986TIP3    H220844   1.821   0.675   6.932
 6987TIP3   OH220845   1.530   0.337   5.229
 6987TIP3    H120846   1.568   0.264   5.282
 6987TIP3    H220847   1.580   0.330   5.146
 6988TIP3   OH220848   1.891  -0.164   5.240
 6988TIP3    H120849   1.861  -0.213   5.161
 6988TIP3    H220850   1.845  -0.078   5.224
 6989TIP3   OH220851   2.092   0.808   6.117
 6989TIP3    H120852   2.123   0.840   6.204
 6989TIP3    H220853   2.157   0.847   6.057
 6990TIP3   OH220854   2.124   0.826   6.399
 6990TIP3    H120855   2.086   0.735   6.395
 6990TIP3    H220856   2.203   0.808   6.452
 6991TIP3   OH220857   2.185   0.500   6.961
 6991TIP3    H120858   2.115   0.503   7.029
 6991TIP3    H220859   2.223   0.589   6.968
 6992TIP3   OH220860   1.987   0.019   5.596
 6992TIP3    H120861   2.057   0.079   5.561
 6992TIP3    H220862   2.035  -0.024   5.670
 6993TIP3   OH220863   2.116  -0.109   5.803
 6993TIP3    H120864   2.053  -0.102   5.876
 6993TIP3    H220865   2.199  -0.076   5.844
 6994TIP3   OH220866   2.157   0.267   6.220
 6994TIP3    H120867   2.222   0.205   6.180
 6994TIP3    H220868   2.169   0.346   6.163
 6995TIP3   OH220869   2.003   0.573   6.421
 6995TIP3    H120870   1.936   0.620   6.475
 6995TIP3    H220871   1.949   0.529   6.353
 6996TIP3   OH220872   2.057  -0.206   5.443
 6996TIP3    H120873   1.994  -0.195   5.368
 6996TIP3    H220874   2.026  -0.134   5.501
 6997TIP3   OH220875   2.226   0.169   6.801
 6997TIP3    H120876   2.288   0.093   6.791
 6997TIP3    H220877   2.249   0.227   6.727
 6998TIP3   OH220878   2.393  -0.047   6.820
 6998TIP3    H120879   2.341  -0.127   6.836
 6998TIP3    H220880   2.484  -0.076   6.835
 6999TIP3   OH220881   1.679   0.668   5.771
 6999TIP3    H120882   1.732   0.660   5.688
 6999TIP3    H220883   1.727   0.738   5.818
 7000TIP3   OH220884   1.578   0.922   6.684
 7000TIP3    H120885   1.638   0.848   6.672
 7000TIP3    H220886   1.624   0.971   6.755
 7001TIP3   OH220887   1.338   0.786   6.369
 7001TIP3    H120888   1.243   0.783   6.345
 7001TIP3    H220889   1.340   0.868   6.421
 7002TIP3   OH220890   1.586   0.706   6.428
 7002TIP3    H120891   1.495   0.736   6.404
 7002TIP3    H220892   1.638   0.783   6.398
 7003TIP3   OH220893   1.773   0.903   6.349
 7003TIP3    H120894   1.758   0.990   6.305
 7003TIP3    H220895   1.803   0.848   6.274
 7004TIP3   OH220896   1.109   0.494   5.435
 7004TIP3    H120897   1.203   0.516   5.417
 7004TIP3    H220898   1.099   0.423   5.369
 7005TIP3   OH220899   1.824   0.636   5.540
 7005TIP3    H120900   1.817   0.539   5.526
 7005TIP3    H220901   1.782   0.670   5.459
 7006TIP3   OH220902   2.052   0.782   6.731
 7006TIP3    H120903   1.975   0.748   6.682
 7006TIP3    H220904   2.032   0.878   6.732
 7007TIP3   OH220905   3.349   0.120   5.466
 7007TIP3    H120906   3.331   0.216   5.462
 7007TIP3    H220907   3.259   0.087   5.449
 7008TIP3   OH220908   3.313   0.148   5.874
 7008TIP3    H120909   3.351   0.128   5.962
 7008TIP3    H220910   3.274   0.062   5.851
 7009TIP3   OH220911   2.612   0.054   6.239
 7009TIP3    H120912   2.644  -0.014   6.302
 7009TIP3    H220913   2.694   0.103   6.225
 7010TIP3   OH220914   3.559   0.455   5.558
 7010TIP3    H120915   3.552   0.388   5.627
 7010TIP3    H220916   3.590   0.533   5.609
 7011TIP3   OH220917   2.585   0.456   5.962
 7011TIP3    H120918   2.578   0.359   5.963
 7011TIP3    H220919   2.681   0.467   5.969
 7012TIP3   OH220920   2.284  -0.350   5.757
 7012TIP3    H120921   2.248  -0.262   5.772
 7012TIP3    H220922   2.215  -0.390   5.704
 7013TIP3   OH220923   2.359  -0.055   5.913
 7013TIP3    H120924   2.406  -0.131   5.957
 7013TIP3    H220925   2.429  -0.022   5.855
 7014TIP3   OH220926   3.159   0.884   5.556
 7014TIP3    H120927   3.223   0.823   5.512
 7014TIP3    H220928   3.198   0.892   5.645
 7015TIP3   OH220929   3.116   0.380   5.922
 7015TIP3    H120930   3.155   0.300   5.881
 7015TIP3    H220931   3.200   0.425   5.946
 7016TIP3   OH220932   3.535  -0.109   5.955
 7016TIP3    H120933   3.560  -0.197   5.986
 7016TIP3    H220934   3.500  -0.127   5.866
 7017TIP3   OH220935   2.504  -0.258   6.027
 7017TIP3    H120936   2.585  -0.282   6.078
 7017TIP3    H220937   2.521  -0.313   5.948
 7018TIP3   OH220938   2.941  -0.058   5.827
 7018TIP3    H120939   3.033  -0.090   5.827
 7018TIP3    H220940   2.894  -0.138   5.793
 7019TIP3   OH220941   4.180  -0.116   6.107
 7019TIP3    H120942   4.113  -0.047   6.090
 7019TIP3    H220943   4.222  -0.086   6.190
 7020TIP3   OH220944   3.222   0.354   5.358
 7020TIP3    H120945   3.170   0.337   5.279
 7020TIP3    H220946   3.200   0.446   5.378
 7021TIP3   OH220947   2.971   0.300   6.151
 7021TIP3    H120948   2.907   0.364   6.190
 7021TIP3    H220949   3.012   0.352   6.080
 7022TIP3   OH220950   2.747  -0.351   6.116
 7022TIP3    H120951   2.811  -0.286   6.148
 7022TIP3    H220952   2.798  -0.396   6.047
 7023TIP3   OH220953   2.796   0.492   6.246
 7023TIP3    H120954   2.773   0.581   6.213
 7023TIP3    H220955   2.718   0.476   6.303
 7024TIP3   OH220956   2.188   0.183   5.485
 7024TIP3    H120957   2.152   0.209   5.398
 7024TIP3    H220958   2.222   0.268   5.519
 7025TIP3   OH220959   3.630   0.693   5.719
 7025TIP3    H120960   3.541   0.690   5.762
 7025TIP3    H220961   3.627   0.782   5.677
 7026TIP3   OH220962   3.326   0.748   5.392
 7026TIP3    H120963   3.376   0.665   5.374
 7026TIP3    H220964   3.390   0.812   5.352
 7027TIP3   OH220965   3.468   0.532   5.309
 7027TIP3    H120966   3.447   0.450   5.262
 7027TIP3    H220967   3.509   0.498   5.392
 7028TIP3   OH220968   3.858   0.610   6.070
 7028TIP3    H120969   3.846   0.535   6.008
 7028TIP3    H220970   3.838   0.686   6.012
 7029TIP3   OH220971   3.177   0.002   5.271
 7029TIP3    H120972   3.092   0.021   5.314
 7029TIP3    H220973   3.158   0.031   5.181
 7030TIP3   OH220974   3.096  -0.209   5.039
 7030TIP3    H120975   3.152  -0.194   5.116
 7030TIP3    H220976   3.151  -0.273   4.989
 7031TIP3   OH220977   4.053   0.248   5.915
 7031TIP3    H120978   3.969   0.299   5.919
 7031TIP3    H220979   4.082   0.269   5.824
 7032TIP3   OH220980   3.726   0.134   6.201
 7032TIP3    H120981   3.724   0.219   6.249
 7032TIP3    H220982   3.642   0.140   6.151
 7033TIP3   OH220983   2.733   0.089   5.712
 7033TIP3    H120984   2.687   0.030   5.648
 7033TIP3    H220985   2.806   0.030   5.744
 7034TIP3   OH220986   2.865   0.499   5.860
 7034TIP3    H120987   2.842   0.445   5.783
 7034TIP3    H220988   2.955   0.466   5.881
 7035TIP3   OH220989   2.862   0.055   6.070
 7035TIP3    H120990   2.895   0.026   5.982
 7035TIP3    H220991   2.910   0.139   6.086
 7036TIP3   OH220992   3.390   0.698   5.842
 7036TIP3    H120993   3.365   0.781   5.887
 7036TIP3    H220994   3.374   0.629   5.909
 7037TIP3   OH220995   3.002   0.613   6.392
 7037TIP3    H120996   2.942   0.676   6.438
 7037TIP3    H220997   2.937   0.560   6.342
 7038TIP3   OH220998   2.752   0.182   6.486
 7038TIP3    H120999   2.756   0.265   6.538
 7038TIP3    H221000   2.659   0.156   6.501
 7039TIP3   OH221001   2.797   0.782   6.478
 7039TIP3    H121002   2.763   0.783   6.387
 7039TIP3    H221003   2.717   0.761   6.531
 7040TIP3   OH221004   2.591  -0.061   5.523
 7040TIP3    H121005   2.520  -0.034   5.462
 7040TIP3    H221006   2.581  -0.157   5.528
 7041TIP3   OH221007   3.652   0.554   4.720
 7041TIP3    H121008   3.661   0.651   4.705
 7041TIP3    H221009   3.745   0.524   4.707
 7042TIP3   OH221010   2.378   0.312   6.424
 7042TIP3    H121011   2.315   0.283   6.356
 7042TIP3    H221012   2.417   0.227   6.453
 7043TIP3   OH221013   2.230   0.502   6.064
 7043TIP3    H121014   2.325   0.494   6.048
 7043TIP3    H221015   2.228   0.583   6.117
 7044TIP3   OH221016   4.096   0.959   6.120
 7044TIP3    H121017   4.089   0.862   6.128
 7044TIP3    H221018   4.011   0.986   6.161
 7045TIP3   OH221019   3.201   0.743   6.248
 7045TIP3    H121020   3.200   0.836   6.280
 7045TIP3    H221021   3.129   0.704   6.304
 7046TIP3   OH221022   2.951   0.877   5.231
 7046TIP3    H121023   2.919   0.841   5.146
 7046TIP3    H221024   2.928   0.972   5.221
 7047TIP3   OH221025   2.403   0.719   5.582
 7047TIP3    H121026   2.449   0.711   5.669
 7047TIP3    H221027   2.346   0.640   5.585
 7048TIP3   OH221028   3.163   0.772   4.840
 7048TIP3    H121029   3.222   0.703   4.803
 7048TIP3    H221030   3.199   0.782   4.931
 7049TIP3   OH221031   3.207   0.823   5.114
 7049TIP3    H121032   3.125   0.823   5.166
 7049TIP3    H221033   3.272   0.793   5.181
 7050TIP3   OH221034   3.988   0.085   6.400
 7050TIP3    H121035   3.911   0.112   6.348
 7050TIP3    H221036   3.999  -0.008   6.375
 7051TIP3   OH221037   2.581   0.496   6.414
 7051TIP3    H121038   2.632   0.479   6.495
 7051TIP3    H221039   2.508   0.431   6.421
 7052TIP3   OH221040   3.660  -0.048   6.408
 7052TIP3    H121041   3.690  -0.136   6.385
 7052TIP3    H221042   3.671   0.002   6.325
 7053TIP3   OH221043   3.415  -0.013   4.865
 7053TIP3    H121044   3.380  -0.036   4.778
 7053TIP3    H221045   3.495   0.038   4.842
 7054TIP3   OH221046   2.920  -0.165   6.224
 7054TIP3    H121047   2.858  -0.144   6.298
 7054TIP3    H221048   2.903  -0.088   6.165
 7055TIP3   OH221049   2.781  -0.252   5.726
 7055TIP3    H121050   2.708  -0.307   5.759
 7055TIP3    H221051   2.811  -0.305   5.648
 7056TIP3   OH221052   3.466   0.139   6.507
 7056TIP3    H121053   3.452   0.086   6.589
 7056TIP3    H221054   3.561   0.123   6.494
 7057TIP3   OH221055   3.456  -0.157   5.673
 7057TIP3    H121056   3.360  -0.148   5.658
 7057TIP3    H221057   3.458  -0.254   5.672
 7058TIP3   OH221058   2.729  -0.125   6.419
 7058TIP3    H121059   2.760  -0.077   6.498
 7058TIP3    H221060   2.702  -0.210   6.456
 7059TIP3   OH221061   3.453   0.084   6.124
 7059TIP3    H121062   3.485   0.013   6.064
 7059TIP3    H221063   3.422   0.032   6.200
 7060TIP3   OH221064   2.554  -0.403   5.799
 7060TIP3    H121065   2.460  -0.391   5.773
 7060TIP3    H221066   2.571  -0.495   5.776
 7061TIP3   OH221067   2.843  -0.395   5.503
 7061TIP3    H121068   2.939  -0.384   5.488
 7061TIP3    H221069   2.805  -0.398   5.414
 7062TIP3   OH221070   2.652  -0.356   5.265
 7062TIP3    H121071   2.597  -0.411   5.206
 7062TIP3    H221072   2.717  -0.324   5.200
 7063TIP3   OH221073   2.744   0.419   6.634
 7063TIP3    H121074   2.824   0.448   6.682
 7063TIP3    H221075   2.679   0.419   6.708
 7064TIP3   OH221076   3.218  -0.137   5.887
 7064TIP3    H121077   3.214  -0.212   5.827
 7064TIP3    H221078   3.219  -0.181   5.973
 7065TIP3   OH221079   3.185  -0.244   6.207
 7065TIP3    H121080   3.096  -0.204   6.204
 7065TIP3    H221081   3.239  -0.176   6.253
 7066TIP3   OH221082   2.922   0.157   5.276
 7066TIP3    H121083   2.851   0.089   5.266
 7066TIP3    H221084   2.903   0.189   5.368
 7067TIP3   OH221085   3.821   0.393   5.903
 7067TIP3    H121086   3.845   0.444   5.823
 7067TIP3    H221087   3.735   0.353   5.877
 7068TIP3   OH221088   3.316   0.475   6.270
 7068TIP3    H121089   3.340   0.454   6.361
 7068TIP3    H221090   3.283   0.567   6.276
 7069TIP3   OH221091   2.611   0.178   5.946
 7069TIP3    H121092   2.653   0.150   5.862
 7069TIP3    H221093   2.655   0.118   6.009
 7070TIP3   OH221094   3.064   0.307   5.099
 7070TIP3    H121095   3.017   0.393   5.106
 7070TIP3    H221096   3.009   0.251   5.159
 7071TIP3   OH221097   2.497   0.108   6.566
 7071TIP3    H121098   2.516   0.086   6.659
 7071TIP3    H221099   2.425   0.046   6.542
 7072TIP3   OH221100   3.212   0.219   6.581
 7072TIP3    H121101   3.147   0.161   6.537
 7072TIP3    H221102   3.295   0.196   6.536
 7073TIP3   OH221103   3.479   0.726   6.171
 7073TIP3    H121104   3.383   0.735   6.179
 7073TIP3    H221105   3.508   0.785   6.244
 7074TIP3   OH221106   3.883  -0.195   5.079
 7074TIP3    H121107   3.830  -0.244   5.013
 7074TIP3    H221108   3.884  -0.107   5.035
 7075TIP3   OH221109   4.109   0.664   6.157
 7075TIP3    H121110   4.011   0.660   6.147
 7075TIP3    H221111   4.136   0.636   6.066
 7076TIP3   OH221112   3.586   0.628   4.982
 7076TIP3    H121113   3.566   0.555   5.042
 7076TIP3    H221114   3.602   0.583   4.897
 7077TIP3   OH221115   3.585   0.257   5.821
 7077TIP3    H121116   3.493   0.230   5.834
 7077TIP3    H221117   3.621   0.176   5.778
 7078TIP3   OH221118   2.709   0.482   5.567
 7078TIP3    H121119   2.698   0.566   5.519
 7078TIP3    H221120   2.618   0.462   5.592
 7079TIP3   OH221121   2.271  -0.214   5.272
 7079TIP3    H121122   2.323  -0.133   5.293
 7079TIP3    H221123   2.200  -0.209   5.340
 7080TIP3   OH221124   2.856   0.252   5.521
 7080TIP3    H121125   2.811   0.338   5.539
 7080TIP3    H221126   2.821   0.197   5.593
 7081TIP3   OH221127   2.981   0.830   6.050
 7081TIP3    H121128   3.009   0.920   6.028
 7081TIP3    H221129   3.061   0.793   6.090
 7082TIP3   OH221130   2.637   0.725   5.433
 7082TIP3    H121131   2.550   0.729   5.478
 7082TIP3    H221132   2.661   0.820   5.431
 7083TIP3   OH221133   3.368   0.460   6.002
 7083TIP3    H121134   3.359   0.461   6.100
 7083TIP3    H221135   3.452   0.413   5.991
 7084TIP3   OH221136   3.344   0.356   4.883
 7084TIP3    H121137   3.397   0.332   4.963
 7084TIP3    H221138   3.256   0.325   4.911
 7085TIP3   OH221139   3.628   0.988   6.047
 7085TIP3    H121140   3.540   0.947   6.047
 7085TIP3    H221141   3.615   1.062   5.984
 7086TIP3   OH221142   3.684   0.829   4.705
 7086TIP3    H121143   3.720   0.901   4.650
 7086TIP3    H221144   3.605   0.875   4.740
 7087TIP3   OH221145   3.509   0.303   5.102
 7087TIP3    H121146   3.495   0.238   5.172
 7087TIP3    H221147   3.605   0.292   5.085
 7088TIP3   OH221148   2.417   0.689   6.206
 7088TIP3    H121149   2.473   0.618   6.240
 7088TIP3    H221150   2.450   0.765   6.256
 7089TIP3   OH221151   2.711   0.335   4.885
 7089TIP3    H121152   2.725   0.243   4.855
 7089TIP3    H221153   2.690   0.322   4.979
 7090TIP3   OH221154   2.655   0.341   5.157
 7090TIP3    H121155   2.724   0.309   5.217
 7090TIP3    H221156   2.662   0.438   5.167
 7091TIP3   OH221157   2.386   0.030   5.357
 7091TIP3    H121158   2.323   0.076   5.416
 7091TIP3    H221159   2.404   0.101   5.292
 7092TIP3   OH221160   2.928   0.542   5.116
 7092TIP3    H121161   2.838   0.567   5.144
 7092TIP3    H221162   2.941   0.602   5.042
 7093TIP3   OH221163   3.376  -0.078   6.343
 7093TIP3    H121164   3.393  -0.008   6.409
 7093TIP3    H221165   3.455  -0.133   6.353
 7094TIP3   OH221166   2.669   0.614   5.174
 7094TIP3    H121167   2.638   0.681   5.108
 7094TIP3    H221168   2.649   0.659   5.258
 7095TIP3   OH221169   3.672   0.023   5.694
 7095TIP3    H121170   3.604  -0.047   5.702
 7095TIP3    H221171   3.748  -0.018   5.742
 7096TIP3   OH221172   2.384   0.245   5.164
 7096TIP3    H121173   2.452   0.314   5.172
 7096TIP3    H221174   2.428   0.187   5.099
 7097TIP3   OH221175   2.303  -0.504   5.288
 7097TIP3    H121176   2.358  -0.424   5.286
 7097TIP3    H221177   2.222  -0.468   5.324
 7098TIP3   OH221178   3.643   0.957   5.633
 7098TIP3    H121179   3.599   1.006   5.561
 7098TIP3    H221180   3.736   0.984   5.618
 7099TIP3   OH221181   2.255   0.458   5.553
 7099TIP3    H121182   2.184   0.490   5.610
 7099TIP3    H221183   2.229   0.498   5.467
 7100TIP3   OH221184   2.411   0.999   6.627
 7100TIP3    H121185   2.498   0.999   6.672
 7100TIP3    H221186   2.393   0.903   6.623
 7101TIP3   OH221187   2.891   0.964   6.671
 7101TIP3    H121188   2.986   0.948   6.677
 7101TIP3    H221189   2.868   0.905   6.597
 7102TIP3   OH221190   2.876   0.540   4.803
 7102TIP3    H121191   2.819   0.466   4.835
 7102TIP3    H221192   2.950   0.490   4.765
 7103TIP3   OH221193   3.532   0.868   6.403
 7103TIP3    H121194   3.525   0.800   6.474
 7103TIP3    H221195   3.606   0.924   6.432
 7104TIP3   OH221196   3.310   0.581   4.708
 7104TIP3    H121197   3.356   0.518   4.766
 7104TIP3    H221198   3.366   0.580   4.628
 7105TIP3   OH221199   2.547   0.409   6.825
 7105TIP3    H121200   2.557   0.313   6.839
 7105TIP3    H221201   2.459   0.412   6.780
 7106TIP3   OH221202   2.518   0.056   5.019
 7106TIP3    H121203   2.572   0.019   5.091
 7106TIP3    H221204   2.586   0.061   4.948
 7107TIP3   OH221205   3.150   0.492   6.600
 7107TIP3    H121206   3.108   0.507   6.513
 7107TIP3    H221207   3.178   0.398   6.593
 7108TIP3   OH221208   3.029   0.257   4.827
 7108TIP3    H121209   3.030   0.267   4.925
 7108TIP3    H221210   3.031   0.159   4.820
 7109TIP3   OH221211   3.643   0.497   6.207
 7109TIP3    H121212   3.716   0.542   6.162
 7109TIP3    H221213   3.572   0.564   6.195
 7110TIP3   OH221214   2.656   0.123   6.812
 7110TIP3    H121215   2.739   0.080   6.787
 7110TIP3    H221216   2.682   0.161   6.899
 7111TIP3   OH221217   2.730  -0.039   5.243
 7111TIP3    H121218   2.703  -0.084   5.324
 7111TIP3    H221219   2.763  -0.113   5.189
 7112TIP3   OH221220   3.001   0.070   6.456
 7112TIP3    H121221   2.914   0.116   6.450
 7112TIP3    H221222   3.044   0.094   6.371
 7113TIP3   OH221223   2.823  -0.242   5.081
 7113TIP3    H121224   2.799  -0.244   4.986
 7113TIP3    H221225   2.921  -0.240   5.073
 7114TIP3   OH221226   3.520   0.432   6.610
 7114TIP3    H121227   3.582   0.391   6.549
 7114TIP3    H221228   3.507   0.361   6.676
 7115TIP3   OH221229   3.651   0.084   4.743
 7115TIP3    H121230   3.631   0.039   4.659
 7115TIP3    H221231   3.618   0.175   4.721
 7116TIP3   OH221232   3.013  -0.156   6.592
 7116TIP3    H121233   3.096  -0.204   6.569
 7116TIP3    H221234   3.017  -0.077   6.535
 7117TIP3   OH221235   3.167   0.141   6.252
 7117TIP3    H121236   3.247   0.155   6.202
 7117TIP3    H221237   3.106   0.209   6.215
 7118TIP3   OH221238   3.742   0.108   6.672
 7118TIP3    H121239   3.766   0.014   6.669
 7118TIP3    H221240   3.806   0.148   6.612
 7119TIP3   OH221241   3.774   0.355   6.396
 7119TIP3    H121242   3.715   0.409   6.338
 7119TIP3    H221243   3.861   0.378   6.356
 7120TIP3   OH221244   2.964  -0.048   6.839
 7120TIP3    H121245   2.896  -0.118   6.843
 7120TIP3    H221246   3.004  -0.073   6.754
 7121TIP3   OH221247   3.421  -0.031   6.709
 7121TIP3    H121248   3.403  -0.044   6.803
 7121TIP3    H221249   3.474  -0.110   6.687
 7122TIP3   OH221250   2.636   0.815   4.987
 7122TIP3    H121251   2.732   0.814   4.969
 7122TIP3    H221252   2.605   0.864   4.908
 7123TIP3   OH221253   2.116   0.198   5.205
 7123TIP3    H121254   2.211   0.221   5.188
 7123TIP3    H221255   2.110   0.110   5.163
 7124TIP3   OH221256   2.029   0.809   5.616
 7124TIP3    H121257   1.963   0.747   5.579
 7124TIP3    H221258   2.074   0.752   5.682
 7125TIP3   OH221259   2.165   0.660   5.803
 7125TIP3    H121260   2.158   0.587   5.867
 7125TIP3    H221261   2.219   0.723   5.855
 7126TIP3   OH221262   3.890   1.063   5.596
 7126TIP3    H121263   3.918   1.079   5.689
 7126TIP3    H221264   3.955   1.114   5.547
 7127TIP3   OH221265   3.949   1.063   5.861
 7127TIP3    H121266   3.892   0.985   5.875
 7127TIP3    H221267   3.997   1.065   5.945
 7128TIP3   OH221268   3.972   0.758   6.460
 7128TIP3    H121269   3.894   0.767   6.517
 7128TIP3    H221270   4.010   0.848   6.462
 7129TIP3   OH221271   3.784   0.271   5.078
 7129TIP3    H121272   3.851   0.336   5.047
 7129TIP3    H221273   3.830   0.233   5.156
 7130TIP3   OH221274   3.909   0.138   5.284
 7130TIP3    H121275   3.845   0.102   5.348
 7130TIP3    H221276   3.980   0.174   5.340
 7131TIP3   OH221277   3.967   0.530   5.714
 7131TIP3    H121278   4.020   0.466   5.663
 7131TIP3    H221279   3.960   0.605   5.652
 7132TIP3   OH221280   3.799   0.826   5.909
 7132TIP3    H121281   3.731   0.878   5.958
 7132TIP3    H221282   3.746   0.783   5.839
 7133TIP3   OH221283   3.849   0.044   4.928
 7133TIP3    H121284   3.779   0.051   4.859
 7133TIP3    H221285   3.824   0.120   4.984
 7134TIP3   OH221286   3.732  -0.288   4.872
 7134TIP3    H121287   3.683  -0.218   4.827
 7134TIP3    H221288   3.689  -0.367   4.839
 7135TIP3   OH221289   3.693  -0.015   5.429
 7135TIP3    H121290   3.744  -0.097   5.429
 7135TIP3    H221291   3.697   0.011   5.524
 7136TIP3   OH221292   2.350   0.080   6.164
 7136TIP3    H121293   2.354   0.043   6.074
 7136TIP3    H221294   2.446   0.078   6.188
 7137TIP3   OH221295   4.020   0.415   6.286
 7137TIP3    H121296   4.093   0.350   6.271
 7137TIP3    H221297   4.040   0.484   6.221
 7138TIP3   OH221298   4.207   0.213   6.298
 7138TIP3    H121299   4.136   0.163   6.344
 7138TIP3    H221300   4.286   0.166   6.328
 7139TIP3   OH221301   3.681  -0.268   5.284
 7139TIP3    H121302   3.728  -0.317   5.356
 7139TIP3    H221303   3.753  -0.254   5.220
 7140TIP3   OH221304   3.889  -0.076   5.821
 7140TIP3    H121305   3.979  -0.070   5.782
 7140TIP3    H221306   3.909  -0.067   5.915
 7141TIP3   OH221307   3.954   0.039   6.071
 7141TIP3    H121308   3.870   0.081   6.099
 7141TIP3    H221309   3.990   0.109   6.011
 7142TIP3   OH221310   2.342  -0.281   6.252
 7142TIP3    H121311   2.394  -0.282   6.169
 7142TIP3    H221312   2.367  -0.196   6.291
 7143TIP3   OH221313   3.469   0.928   5.253
 7143TIP3    H121314   3.529   0.919   5.177
 7143TIP3    H221315   3.517   0.991   5.310
 7144TIP3   OH221316   2.576   0.734   6.644
 7144TIP3    H121317   2.485   0.704   6.628
 7144TIP3    H221318   2.588   0.712   6.737
 7145TIP3   OH221319   2.756   0.758   6.194
 7145TIP3    H121320   2.705   0.829   6.148
 7145TIP3    H221321   2.842   0.775   6.151
 7146TIP3   OH221322   3.198   1.009   6.332
 7146TIP3    H121323   3.242   1.014   6.419
 7146TIP3    H221324   3.266   1.052   6.275
 7147TIP3   OH221325   3.400   1.134   6.199
 7147TIP3    H121326   3.473   1.127   6.137
 7147TIP3    H221327   3.428   1.213   6.249
 7148TIP3   OH221328   2.427   1.019   6.221
 7148TIP3    H121329   2.340   1.056   6.197
 7148TIP3    H221330   2.444   1.064   6.304
 7149TIP3   OH221331   2.648   0.965   6.059
 7149TIP3    H121332   2.570   0.998   6.108
 7149TIP3    H221333   2.654   1.028   5.984
 7150TIP3   OH221334   3.335   0.981   5.909
 7150TIP3    H121335   3.264   1.047   5.922
 7150TIP3    H221336   3.406   1.039   5.876
 7151TIP3   OH221337   3.550   1.144   5.838
 7151TIP3    H121338   3.553   1.238   5.813
 7151TIP3    H221339   3.589   1.102   5.760
 7152TIP3   OH221340   2.341   0.813   5.960
 7152TIP3    H121341   2.370   0.792   6.052
 7152TIP3    H221342   2.417   0.773   5.911
 7153TIP3   OH221343   2.538   0.686   5.816
 7153TIP3    H121344   2.553   0.603   5.867
 7153TIP3    H221345   2.630   0.722   5.812
 7154TIP3   OH221346   2.809   0.766   5.817
 7154TIP3    H121347   2.838   0.673   5.823
 7154TIP3    H221348   2.845   0.800   5.901
 7155TIP3   OH221349   2.131   0.589   5.353
 7155TIP3    H121350   2.047   0.555   5.317
 7155TIP3    H221351   2.121   0.683   5.331
 7156TIP3   OH221352   2.907   0.776   4.944
 7156TIP3    H121353   2.994   0.800   4.905
 7156TIP3    H221354   2.883   0.704   4.881
 7157TIP3   OH221355   3.623   0.895   5.027
 7157TIP3    H121356   3.613   0.797   5.015
 7157TIP3    H221357   3.578   0.927   4.946
 7158TIP3   OH221358   2.207   0.612   4.990
 7158TIP3    H121359   2.208   0.639   5.083
 7158TIP3    H221360   2.296   0.570   4.979
 7159TIP3   OH221361   3.846   1.053   6.210
 7159TIP3    H121362   3.768   1.017   6.164
 7159TIP3    H221363   3.831   1.149   6.189
 7160TIP3   OH221364   5.115   0.411   4.981
 7160TIP3    H121365   5.087   0.502   4.960
 7160TIP3    H221366   5.039   0.361   4.946
 7161TIP3   OH221367   5.115   0.411   5.361
 7161TIP3    H121368   5.145   0.380   5.448
 7161TIP3    H221369   5.071   0.331   5.327
 7162TIP3   OH221370   4.412   0.309   5.727
 7162TIP3    H121371   4.449   0.242   5.788
 7162TIP3    H221372   4.491   0.363   5.711
 7163TIP3   OH221373   5.358   0.713   5.043
 7163TIP3    H121374   5.342   0.643   5.107
 7163TIP3    H221375   5.386   0.787   5.099
 7164TIP3   OH221376   4.385   0.715   5.451
 7164TIP3    H121377   4.377   0.617   5.453
 7164TIP3    H221378   4.482   0.724   5.445
 7165TIP3   OH221379   4.083  -0.094   5.244
 7165TIP3    H121380   4.039  -0.009   5.256
 7165TIP3    H221381   4.018  -0.141   5.188
 7166TIP3   OH221382   4.151   0.201   5.405
 7166TIP3    H121383   4.201   0.125   5.444
 7166TIP3    H221384   4.214   0.234   5.340
 7167TIP3   OH221385   5.007   1.175   5.060
 7167TIP3    H121386   5.052   1.104   5.010
 7167TIP3    H221387   4.999   1.137   5.148
 7168TIP3   OH221388   4.912   0.636   5.412
 7168TIP3    H121389   4.949   0.559   5.364
 7168TIP3    H221390   4.996   0.681   5.434
 7169TIP3   OH221391   5.326   0.146   5.444
 7169TIP3    H121392   5.359   0.060   5.470
 7169TIP3    H221393   5.295   0.130   5.353
 7170TIP3   OH221394   4.299  -0.004   5.514
 7170TIP3    H121395   4.378  -0.028   5.566
 7170TIP3    H221396   4.315  -0.058   5.434
 7171TIP3   OH221397   4.737   0.198   5.315
 7171TIP3    H121398   4.829   0.166   5.326
 7171TIP3    H221399   4.692   0.117   5.283
 7172TIP3   OH221400   5.973   0.138   5.598
 7172TIP3    H121401   5.910   0.209   5.575
 7172TIP3    H221402   6.020   0.174   5.675
 7173TIP3   OH221403   5.008   0.633   4.850
 7173TIP3    H121404   4.963   0.609   4.768
 7173TIP3    H221405   4.962   0.716   4.874
 7174TIP3   OH221406   4.767   0.556   5.639
 7174TIP3    H121407   4.704   0.622   5.676
 7174TIP3    H221408   4.807   0.606   5.565
 7175TIP3   OH221409   4.539  -0.097   5.613
 7175TIP3    H121410   4.604  -0.028   5.634
 7175TIP3    H221411   4.575  -0.137   5.534
 7176TIP3   OH221412   4.594   0.749   5.735
 7176TIP3    H121413   4.568   0.836   5.696
 7176TIP3    H221414   4.514   0.734   5.791
 7177TIP3   OH221415   3.985   0.440   4.971
 7177TIP3    H121416   3.948   0.468   4.885
 7177TIP3    H221417   4.018   0.525   5.007
 7178TIP3   OH221418   5.428   0.956   5.211
 7178TIP3    H121419   5.338   0.947   5.251
 7178TIP3    H221420   5.420   1.042   5.166
 7179TIP3   OH221421   5.130   1.002   4.885
 7179TIP3    H121422   5.179   0.919   4.865
 7179TIP3    H221423   5.191   1.067   4.844
 7180TIP3   OH221424   5.273   0.788   4.791
 7180TIP3    H121425   5.233   0.708   4.753
 7180TIP3    H221426   5.309   0.752   4.875
 7181TIP3   OH221427   5.654   0.868   5.554
 7181TIP3    H121428   5.642   0.791   5.494
 7181TIP3    H221429   5.636   0.943   5.494
 7182TIP3   OH221430   4.947   0.264   4.812
 7182TIP3    H121431   4.865   0.312   4.790
 7182TIP3    H221432   4.989   0.255   4.725
 7183TIP3   OH221433   4.899   0.053   4.532
 7183TIP3    H121434   4.976   0.096   4.571
 7183TIP3    H221435   4.943  -0.020   4.483
 7184TIP3   OH221436   5.849   0.504   5.402
 7184TIP3    H121437   5.765   0.555   5.406
 7184TIP3    H221438   5.878   0.526   5.311
 7185TIP3   OH221439   5.294   0.346   4.783
 7185TIP3    H121440   5.239   0.370   4.861
 7185TIP3    H221441   5.377   0.318   4.826
 7186TIP3   OH221442   5.524   0.389   5.690
 7186TIP3    H121443   5.522   0.474   5.739
 7186TIP3    H221444   5.439   0.397   5.641
 7187TIP3   OH221445   4.527   0.344   5.201
 7187TIP3    H121446   4.482   0.286   5.135
 7187TIP3    H221447   4.601   0.286   5.230
 7188TIP3   OH221448   4.655   0.754   5.348
 7188TIP3    H121449   4.634   0.712   5.264
 7188TIP3    H221450   4.745   0.719   5.367
 7189TIP3   OH221451   4.662   0.310   5.559
 7189TIP3    H121452   4.692   0.285   5.469
 7189TIP3    H221453   4.707   0.396   5.574
 7190TIP3   OH221454   5.187   0.952   5.331
 7190TIP3    H121455   5.173   1.031   5.385
 7190TIP3    H221456   5.172   0.878   5.394
 7191TIP3   OH221457   4.799   0.871   5.877
 7191TIP3    H121458   4.739   0.933   5.924
 7191TIP3    H221459   4.734   0.817   5.828
 7192TIP3   OH221460   5.137   0.193   4.612
 7192TIP3    H121461   5.196   0.253   4.663
 7192TIP3    H221462   5.162   0.218   4.520
 7193TIP3   OH221463   4.545   0.438   5.975
 7193TIP3    H121464   4.550   0.521   6.027
 7193TIP3    H221465   4.452   0.413   5.987
 7194TIP3   OH221466   4.876   0.882   4.885
 7194TIP3    H121467   4.956   0.936   4.901
 7194TIP3    H221468   4.815   0.946   4.846
 7195TIP3   OH221469   4.594   1.039   5.965
 7195TIP3    H121470   4.560   1.038   5.873
 7195TIP3    H221471   4.513   1.016   6.017
 7196TIP3   OH221472   4.387   0.193   5.010
 7196TIP3    H121473   4.318   0.226   4.948
 7196TIP3    H221474   4.369   0.099   5.015
 7197TIP3   OH221475   5.448   0.811   4.206
 7197TIP3    H121476   5.457   0.908   4.191
 7197TIP3    H221477   5.540   0.781   4.193
 7198TIP3   OH221478   4.172   0.570   5.912
 7198TIP3    H121479   4.106   0.549   5.842
 7198TIP3    H221480   4.209   0.482   5.933
 7199TIP3   OH221481   4.026   0.761   5.546
 7199TIP3    H121482   4.122   0.760   5.538
 7199TIP3    H221483   4.012   0.841   5.599
 7200TIP3   OH221484   5.892   1.213   5.600
 7200TIP3    H121485   5.889   1.117   5.615
 7200TIP3    H221486   5.808   1.240   5.646
 7201TIP3   OH221487   4.997   0.999   5.735
 7201TIP3    H121488   4.996   1.092   5.768
 7201TIP3    H221489   4.926   0.959   5.789
 7202TIP3   OH221490   4.758   1.129   4.687
 7202TIP3    H121491   4.711   1.111   4.603
 7202TIP3    H221492   4.725   1.217   4.711
 7203TIP3   OH221493   4.195   0.978   5.072
 7203TIP3    H121494   4.244   0.968   5.156
 7203TIP3    H221495   4.138   0.900   5.076
 7204TIP3   OH221496   4.958   1.029   4.326
 7204TIP3    H121497   5.018   0.960   4.290
 7204TIP3    H221498   4.993   1.039   4.418
 7205TIP3   OH221499   5.009   1.078   4.596
 7205TIP3    H121500   4.921   1.087   4.639
 7205TIP3    H221501   5.060   1.036   4.668
 7206TIP3   OH221502   5.785   0.339   5.891
 7206TIP3    H121503   5.711   0.374   5.839
 7206TIP3    H221504   5.802   0.254   5.848
 7207TIP3   OH221505   4.377   0.753   5.901
 7207TIP3    H121506   4.427   0.735   5.983
 7207TIP3    H221507   4.303   0.689   5.908
 7208TIP3   OH221508   5.452   0.207   5.889
 7208TIP3    H121509   5.495   0.124   5.868
 7208TIP3    H221510   5.470   0.263   5.812
 7209TIP3   OH221511   5.213   0.247   4.356
 7209TIP3    H121512   5.175   0.224   4.269
 7209TIP3    H221513   5.291   0.299   4.329
 7210TIP3   OH221514   4.716   0.088   5.708
 7210TIP3    H121515   4.658   0.111   5.784
 7210TIP3    H221516   4.703   0.168   5.652
 7211TIP3   OH221517   4.578   0.001   5.212
 7211TIP3    H121518   4.502  -0.052   5.242
 7211TIP3    H221519   4.602  -0.045   5.128
 7212TIP3   OH221520   5.090   0.068   4.943
 7212TIP3    H121521   5.036   0.139   4.902
 7212TIP3    H221522   5.135   0.030   4.865
 7213TIP3   OH221523   5.258   0.395   5.994
 7213TIP3    H121524   5.251   0.345   6.079
 7213TIP3    H221525   5.354   0.387   5.980
 7214TIP3   OH221526   5.245   0.093   5.182
 7214TIP3    H121527   5.186   0.123   5.111
 7214TIP3    H221528   5.276   0.010   5.144
 7215TIP3   OH221529   4.531   0.129   5.907
 7215TIP3    H121530   4.551   0.184   5.984
 7215TIP3    H221531   4.487   0.052   5.946
 7216TIP3   OH221532   5.251   0.342   5.614
 7216TIP3    H121533   5.280   0.270   5.552
 7216TIP3    H221534   5.220   0.289   5.690
 7217TIP3   OH221535   4.348  -0.148   5.286
 7217TIP3    H121536   4.254  -0.131   5.262
 7217TIP3    H221537   4.355  -0.243   5.270
 7218TIP3   OH221538   4.639  -0.124   4.973
 7218TIP3    H121539   4.722  -0.154   4.934
 7218TIP3    H221540   4.576  -0.134   4.898
 7219TIP3   OH221541   4.458  -0.110   4.756
 7219TIP3    H121542   4.399  -0.161   4.697
 7219TIP3    H221543   4.518  -0.072   4.689
 7220TIP3   OH221544   5.582   1.564   5.700
 7220TIP3    H121545   5.580   1.588   5.605
 7220TIP3    H221546   5.661   1.612   5.731
 7221TIP3   OH221547   4.538   0.675   6.123
 7221TIP3    H121548   4.619   0.703   6.169
 7221TIP3    H221549   4.474   0.676   6.198
 7222TIP3   OH221550   5.006   0.131   5.382
 7222TIP3    H121551   5.065   0.078   5.327
 7222TIP3    H221552   5.001   0.077   5.463
 7223TIP3   OH221553   4.984   0.012   5.688
 7223TIP3    H121554   4.895   0.053   5.690
 7223TIP3    H221555   5.037   0.075   5.740
 7224TIP3   OH221556   4.715   0.416   4.760
 7224TIP3    H121557   4.644   0.348   4.750
 7224TIP3    H221558   4.697   0.448   4.851
 7225TIP3   OH221559   5.617   0.650   5.390
 7225TIP3    H121560   5.641   0.700   5.309
 7225TIP3    H221561   5.532   0.608   5.365
 7226TIP3   OH221562   5.118   0.734   5.757
 7226TIP3    H121563   5.140   0.710   5.848
 7226TIP3    H221564   5.077   0.822   5.766
 7227TIP3   OH221565   5.233  -0.050   4.723
 7227TIP3    H121566   5.331  -0.039   4.732
 7227TIP3    H221567   5.210   0.025   4.666
 7228TIP3   OH221568   4.408   0.435   5.436
 7228TIP3    H121569   4.447   0.409   5.349
 7228TIP3    H221570   4.450   0.371   5.495
 7229TIP3   OH221571   4.861   0.565   4.582
 7229TIP3    H121572   4.813   0.650   4.588
 7229TIP3    H221573   4.807   0.508   4.642
 7230TIP3   OH221574   4.288   0.357   6.050
 7230TIP3    H121575   4.309   0.341   6.144
 7230TIP3    H221576   4.217   0.292   6.034
 7231TIP3   OH221577   5.006   0.476   6.068
 7231TIP3    H121578   4.946   0.414   6.025
 7231TIP3    H221579   5.092   0.453   6.026
 7232TIP3   OH221580   5.276   0.993   5.653
 7232TIP3    H121581   5.180   0.991   5.666
 7232TIP3    H221582   5.304   1.045   5.732
 7233TIP3   OH221583   5.687   0.062   4.561
 7233TIP3    H121584   5.629   0.013   4.498
 7233TIP3    H221585   5.683   0.151   4.519
 7234TIP3   OH221586   5.904   0.920   5.644
 7234TIP3    H121587   5.806   0.917   5.634
 7234TIP3    H221588   5.930   0.892   5.554
 7235TIP3   OH221589   5.386   0.884   4.471
 7235TIP3    H121590   5.360   0.814   4.532
 7235TIP3    H221591   5.398   0.837   4.387
 7236TIP3   OH221592   5.382   0.512   5.312
 7236TIP3    H121593   5.288   0.487   5.322
 7236TIP3    H221594   5.416   0.433   5.264
 7237TIP3   OH221595   4.509   0.741   5.062
 7237TIP3    H121596   4.509   0.822   5.008
 7237TIP3    H221597   4.415   0.724   5.072
 7238TIP3   OH221598   4.074   0.040   4.767
 7238TIP3    H121599   4.122   0.124   4.785
 7238TIP3    H221600   3.998   0.049   4.827
 7239TIP3   OH221601   4.648   0.507   5.006
 7239TIP3    H121602   4.612   0.595   5.026
 7239TIP3    H221603   4.613   0.454   5.080
 7240TIP3   OH221604   4.778   1.085   5.530
 7240TIP3    H121605   4.820   1.157   5.480
 7240TIP3    H221606   4.855   1.049   5.579
 7241TIP3   OH221607   4.428   0.980   4.913
 7241TIP3    H121608   4.343   0.988   4.960
 7241TIP3    H221609   4.460   1.073   4.916
 7242TIP3   OH221610   5.167   0.719   5.488
 7242TIP3    H121611   5.157   0.718   5.586
 7242TIP3    H221612   5.246   0.664   5.476
 7243TIP3   OH221613   5.140   0.613   4.372
 7243TIP3    H121614   5.194   0.588   4.451
 7243TIP3    H221615   5.053   0.584   4.401
 7244TIP3   OH221616   5.415   1.252   5.540
 7244TIP3    H121617   5.336   1.196   5.533
 7244TIP3    H221618   5.399   1.317   5.467
 7245TIP3   OH221619   5.481   1.087   4.192
 7245TIP3    H121620   5.519   1.160   4.141
 7245TIP3    H221621   5.401   1.131   4.225
 7246TIP3   OH221622   5.302   0.546   4.588
 7246TIP3    H121623   5.290   0.480   4.658
 7246TIP3    H221624   5.399   0.542   4.576
 7247TIP3   OH221625   4.221   0.946   5.684
 7247TIP3    H121626   4.274   0.874   5.721
 7247TIP3    H221627   4.233   1.015   5.750
 7248TIP3   OH221628   4.504   0.593   4.372
 7248TIP3    H121629   4.520   0.502   4.342
 7248TIP3    H221630   4.487   0.579   4.467
 7249TIP3   OH221631   4.451   0.597   4.645
 7249TIP3    H121632   4.523   0.567   4.701
 7249TIP3    H221633   4.458   0.695   4.653
 7250TIP3   OH221634   4.184   0.288   4.845
 7250TIP3    H121635   4.120   0.335   4.903
 7250TIP3    H221636   4.202   0.358   4.779
 7251TIP3   OH221637   4.718   0.794   4.592
 7251TIP3    H121638   4.631   0.821   4.629
 7251TIP3    H221639   4.735   0.869   4.533
 7252TIP3   OH221640   4.934  -0.151   5.007
 7252TIP3    H121641   4.973  -0.063   4.987
 7252TIP3    H221642   4.884  -0.133   5.088
 7253TIP3   OH221643   5.172   0.174   5.833
 7253TIP3    H121644   5.179   0.247   5.896
 7253TIP3    H221645   5.259   0.132   5.845
 7254TIP3   OH221646   4.462   0.871   4.660
 7254TIP3    H121647   4.432   0.940   4.598
 7254TIP3    H221648   4.446   0.913   4.747
 7255TIP3   OH221649   5.467   0.276   5.182
 7255TIP3    H121650   5.395   0.211   5.195
 7255TIP3    H221651   5.542   0.233   5.230
 7256TIP3   OH221652   4.180   0.501   4.651
 7256TIP3    H121653   4.250   0.568   4.662
 7256TIP3    H221654   4.224   0.443   4.586
 7257TIP3   OH221655   4.098  -0.252   4.775
 7257TIP3    H121656   4.148  -0.169   4.775
 7257TIP3    H221657   4.012  -0.222   4.807
 7258TIP3   OH221658   5.436   1.227   5.132
 7258TIP3    H121659   5.393   1.274   5.057
 7258TIP3    H221660   5.530   1.246   5.112
 7259TIP3   OH221661   4.050   0.712   5.039
 7259TIP3    H121662   3.981   0.745   5.098
 7259TIP3    H221663   4.024   0.753   4.954
 7260TIP3   OH221664   4.208   1.248   6.108
 7260TIP3    H121665   4.295   1.245   6.153
 7260TIP3    H221666   4.184   1.154   6.106
 7261TIP3   OH221667   4.689   1.219   6.156
 7261TIP3    H121668   4.783   1.200   6.164
 7261TIP3    H221669   4.665   1.159   6.082
 7262TIP3   OH221670   4.670   0.795   4.283
 7262TIP3    H121671   4.614   0.724   4.323
 7262TIP3    H221672   4.746   0.742   4.255
 7263TIP3   OH221673   5.329   1.126   5.889
 7263TIP3    H121674   5.319   1.057   5.958
 7263TIP3    H221675   5.406   1.177   5.921
 7264TIP3   OH221676   5.107   0.836   4.196
 7264TIP3    H121677   5.149   0.772   4.256
 7264TIP3    H221678   5.165   0.835   4.118
 7265TIP3   OH221679   4.337   0.662   6.315
 7265TIP3    H121680   4.355   0.566   6.317
 7265TIP3    H221681   4.251   0.664   6.267
 7266TIP3   OH221682   4.314   0.314   4.506
 7266TIP3    H121683   4.369   0.276   4.578
 7266TIP3    H221684   4.382   0.317   4.435
 7267TIP3   OH221685   4.944   0.748   6.087
 7267TIP3    H121686   4.904   0.763   5.999
 7267TIP3    H221687   4.974   0.655   6.081
 7268TIP3   OH221688   4.823   0.514   4.313
 7268TIP3    H121689   4.827   0.525   4.410
 7268TIP3    H221690   4.826   0.416   4.307
 7269TIP3   OH221691   5.439   0.755   5.693
 7269TIP3    H121692   5.512   0.801   5.648
 7269TIP3    H221693   5.366   0.818   5.680
 7270TIP3   OH221694   4.457   0.392   6.295
 7270TIP3    H121695   4.534   0.338   6.272
 7270TIP3    H221696   4.484   0.423   6.385
 7271TIP3   OH221697   4.523   0.217   4.729
 7271TIP3    H121698   4.501   0.171   4.811
 7271TIP3    H221699   4.560   0.143   4.675
 7272TIP3   OH221700   4.789   0.319   5.936
 7272TIP3    H121701   4.706   0.373   5.934
 7272TIP3    H221702   4.837   0.350   5.857
 7273TIP3   OH221703   4.622   0.013   4.569
 7273TIP3    H121704   4.597   0.012   4.475
 7273TIP3    H221705   4.719   0.015   4.563
 7274TIP3   OH221706   5.311   0.689   6.095
 7274TIP3    H121707   5.386   0.656   6.045
 7274TIP3    H221708   5.303   0.621   6.164
 7275TIP3   OH221709   5.447   0.341   4.231
 7275TIP3    H121710   5.427   0.297   4.146
 7275TIP3    H221711   5.415   0.431   4.209
 7276TIP3   OH221712   4.865   0.120   6.092
 7276TIP3    H121713   4.878   0.043   6.032
 7276TIP3    H221714   4.831   0.187   6.031
 7277TIP3   OH221715   4.964   0.398   5.741
 7277TIP3    H121716   5.044   0.412   5.689
 7277TIP3    H221717   4.902   0.465   5.702
 7278TIP3   OH221718   5.532   0.371   6.153
 7278TIP3    H121719   5.568   0.283   6.141
 7278TIP3    H221720   5.598   0.429   6.113
 7279TIP3   OH221721   5.572   0.608   5.875
 7279TIP3    H121722   5.511   0.663   5.820
 7279TIP3    H221723   5.658   0.633   5.836
 7280TIP3   OH221724   4.762   0.214   6.327
 7280TIP3    H121725   4.696   0.141   6.328
 7280TIP3    H221726   4.811   0.189   6.246
 7281TIP3   OH221727   5.233   0.232   6.203
 7281TIP3    H121728   5.187   0.211   6.286
 7281TIP3    H221729   5.260   0.144   6.172
 7282TIP3   OH221730   4.431   1.074   4.473
 7282TIP3    H121731   4.527   1.066   4.455
 7282TIP3    H221732   4.404   1.125   4.395
 7283TIP3   OH221733   3.911   0.453   4.689
 7283TIP3    H121734   4.006   0.476   4.674
 7283TIP3    H221735   3.906   0.364   4.649
 7284TIP3   OH221736   3.826   1.067   5.103
 7284TIP3    H121737   3.759   1.005   5.067
 7284TIP3    H221738   3.871   1.009   5.169
 7285TIP3   OH221739   3.962   0.918   5.289
 7285TIP3    H121740   3.950   0.845   5.353
 7285TIP3    H221741   4.011   0.981   5.345
 7286TIP3   OH221742   5.689   1.318   5.089
 7286TIP3    H121743   5.715   1.351   5.177
 7286TIP3    H221744   5.752   1.363   5.031
 7287TIP3   OH221745   5.718   1.338   5.371
 7287TIP3    H121746   5.674   1.251   5.367
 7287TIP3    H221747   5.793   1.317   5.428
 7288TIP3   OH221748   5.765   1.013   5.946
 7288TIP3    H121749   5.691   1.024   6.009
 7288TIP3    H221750   5.806   1.102   5.948
 7289TIP3   OH221751   5.582   0.526   4.564
 7289TIP3    H121752   5.649   0.591   4.535
 7289TIP3    H221753   5.624   0.488   4.643
 7290TIP3   OH221754   5.710   0.393   4.767
 7290TIP3    H121755   5.643   0.352   4.827
 7290TIP3    H221756   5.773   0.432   4.831
 7291TIP3   OH221757   5.764   0.787   5.201
 7291TIP3    H121758   5.815   0.722   5.150
 7291TIP3    H221759   5.755   0.861   5.137
 7292TIP3   OH221760   5.594   1.088   5.396
 7292TIP3    H121761   5.522   1.130   5.447
 7292TIP3    H221762   5.544   1.041   5.326
 7293TIP3   OH221763   5.645   0.299   4.414
 7293TIP3    H121764   5.575   0.309   4.345
 7293TIP3    H221765   5.620   0.375   4.471
 7294TIP3   OH221766   5.528  -0.032   4.359
 7294TIP3    H121767   5.484   0.042   4.315
 7294TIP3    H221768   5.481  -0.107   4.322
 7295TIP3   OH221769   5.524   0.254   4.916
 7295TIP3    H121770   5.530   0.157   4.915
 7295TIP3    H221771   5.508   0.272   5.012
 7296TIP3   OH221772   4.148   0.322   5.661
 7296TIP3    H121773   4.148   0.293   5.567
 7296TIP3    H221774   4.245   0.327   5.678
 7297TIP3   OH221775   5.817   0.671   5.771
 7297TIP3    H121776   5.889   0.607   5.755
 7297TIP3    H221777   5.839   0.744   5.709
 7298TIP3   OH221778   6.001   0.467   5.779
 7298TIP3    H121779   5.934   0.420   5.833
 7298TIP3    H221780   6.083   0.431   5.816
 7299TIP3   OH221781   5.504  -0.030   4.761
 7299TIP3    H121782   5.552  -0.066   4.839
 7299TIP3    H221783   5.577   0.003   4.705
 7300TIP3   OH221784   5.685   0.175   5.310
 7300TIP3    H121785   5.774   0.184   5.269
 7300TIP3    H221786   5.706   0.196   5.402
 7301TIP3   OH221787   5.749   0.296   5.556
 7301TIP3    H121788   5.665   0.337   5.586
 7301TIP3    H221789   5.785   0.367   5.499
 7302TIP3   OH221790   4.143  -0.017   5.741
 7302TIP3    H121791   4.189  -0.030   5.656
 7302TIP3    H221792   4.169   0.073   5.763
 7303TIP3   OH221793   5.272   1.185   4.746
 7303TIP3    H121794   5.324   1.171   4.664
 7303TIP3    H221795   5.327   1.251   4.792
 7304TIP3   OH221796   4.374   0.989   6.132
 7304TIP3    H121797   4.282   0.962   6.114
 7304TIP3    H221798   4.383   0.967   6.225
 7305TIP3   OH221799   4.553   1.021   5.680
 7305TIP3    H121800   4.502   1.095   5.641
 7305TIP3    H221801   4.638   1.036   5.635
 7306TIP3   OH221802   4.996   1.266   5.817
 7306TIP3    H121803   5.038   1.266   5.905
 7306TIP3    H221804   5.062   1.317   5.765
 7307TIP3   OH221805   5.176   1.418   5.676
 7307TIP3    H121806   5.247   1.366   5.635
 7307TIP3    H221807   5.227   1.475   5.737
 7308TIP3   OH221808   4.226   1.282   5.700
 7308TIP3    H121809   4.136   1.314   5.680
 7308TIP3    H221810   4.233   1.308   5.792
 7309TIP3   OH221811   4.464   1.258   5.561
 7309TIP3    H121812   4.378   1.271   5.606
 7309TIP3    H221813   4.444   1.289   5.471
 7310TIP3   OH221814   4.891   1.286   5.358
 7310TIP3    H121815   4.821   1.305   5.293
 7310TIP3    H221816   4.903   1.373   5.401
 7311TIP3   OH221817   5.159   1.225   5.410
 7311TIP3    H121818   5.065   1.242   5.390
 7311TIP3    H221819   5.202   1.301   5.368
 7312TIP3   OH221820   5.367   1.417   5.325
 7312TIP3    H121821   5.353   1.502   5.277
 7312TIP3    H221822   5.393   1.357   5.252
 7313TIP3   OH221823   4.141   1.073   5.446
 7313TIP3    H121824   4.167   1.046   5.537
 7313TIP3    H221825   4.212   1.028   5.396
 7314TIP3   OH221826   4.334   0.942   5.304
 7314TIP3    H121827   4.349   0.859   5.354
 7314TIP3    H221828   4.425   0.979   5.300
 7315TIP3   OH221829   4.600   1.038   5.307
 7315TIP3    H121830   4.631   0.946   5.295
 7315TIP3    H221831   4.644   1.059   5.392
 7316TIP3   OH221832   3.928   0.844   4.839
 7316TIP3    H121833   3.842   0.812   4.805
 7316TIP3    H221834   3.918   0.939   4.820
 7317TIP3   OH221835   4.699   1.032   4.420
 7317TIP3    H121836   4.788   1.054   4.385
 7317TIP3    H221837   4.678   0.956   4.361
 7318TIP3   OH221838   5.419   1.151   4.514
 7318TIP3    H121839   5.411   1.053   4.502
 7318TIP3    H221840   5.373   1.182   4.433
 7319TIP3   OH221841   4.004   0.873   4.478
 7319TIP3    H121842   4.001   0.896   4.572
 7319TIP3    H221843   4.092   0.830   4.469
 7320TIP3   OH221844   5.645   1.295   5.700
 7320TIP3    H121845   5.566   1.264   5.652
 7320TIP3    H221846   5.625   1.391   5.705
 7321TIP3   OH221847   6.912   0.668   4.467
 7321TIP3    H121848   6.883   0.760   4.446
 7321TIP3    H221849   6.835   0.618   4.434
 7322TIP3   OH221850   6.912   0.666   4.847
 7322TIP3    H121851   6.942   0.637   4.935
 7322TIP3    H221852   6.867   0.587   4.814
 7323TIP3   OH221853   6.209   0.565   5.213
 7323TIP3    H121854   6.245   0.499   5.275
 7323TIP3    H221855   6.287   0.621   5.200
 7324TIP3   OH221856   7.156   0.969   4.529
 7324TIP3    H121857   7.136   0.900   4.594
 7324TIP3    H221858   7.181   1.044   4.585
 7325TIP3   OH221859   6.181   0.972   4.938
 7325TIP3    H121860   6.173   0.874   4.940
 7325TIP3    H221861   6.277   0.981   4.933
 7326TIP3   OH221862   5.881   0.164   4.730
 7326TIP3    H121863   5.834   0.248   4.746
 7326TIP3    H221864   5.818   0.119   4.671
 7327TIP3   OH221865   5.949   0.460   4.896
 7327TIP3    H121866   5.999   0.383   4.932
 7327TIP3    H221867   6.008   0.489   4.825
 7328TIP3   OH221868   6.803   1.432   4.546
 7328TIP3    H121869   6.849   1.360   4.498
 7328TIP3    H221870   6.794   1.395   4.634
 7329TIP3   OH221871   6.708   0.893   4.898
 7329TIP3    H121872   6.745   0.816   4.850
 7329TIP3    H221873   6.792   0.937   4.921
 7330TIP3   OH221874   7.124   0.403   4.930
 7330TIP3    H121875   7.154   0.316   4.959
 7330TIP3    H221876   7.091   0.386   4.840
 7331TIP3   OH221877   6.094   0.252   5.002
 7331TIP3    H121878   6.174   0.227   5.053
 7331TIP3    H221879   6.111   0.198   4.922
 7332TIP3   OH221880   6.534   0.455   4.800
 7332TIP3    H121881   6.625   0.422   4.813
 7332TIP3    H221882   6.488   0.373   4.769
 7333TIP3   OH221883   7.770   0.396   5.083
 7333TIP3    H121884   7.706   0.467   5.063
 7333TIP3    H221885   7.815   0.429   5.162
 7334TIP3   OH221886   6.807   0.891   4.335
 7334TIP3    H121887   6.759   0.866   4.255
 7334TIP3    H221888   6.760   0.974   4.360
 7335TIP3   OH221889   6.563   0.812   5.126
 7335TIP3    H121890   6.500   0.878   5.164
 7335TIP3    H221891   6.603   0.863   5.052
 7336TIP3   OH221892   6.335   0.158   5.100
 7336TIP3    H121893   6.399   0.229   5.123
 7336TIP3    H221894   6.373   0.121   5.019
 7337TIP3   OH221895   6.390   1.006   5.221
 7337TIP3    H121896   6.364   1.092   5.183
 7337TIP3    H221897   6.311   0.990   5.278
 7338TIP3   OH221898   5.784   0.697   4.458
 7338TIP3    H121899   5.743   0.724   4.373
 7338TIP3    H221900   5.816   0.782   4.494
 7339TIP3   OH221901   7.225   1.212   4.697
 7339TIP3    H121902   7.136   1.203   4.738
 7339TIP3    H221903   7.216   1.299   4.652
 7340TIP3   OH221904   6.928   1.258   4.373
 7340TIP3    H121905   6.977   1.176   4.352
 7340TIP3    H221906   6.988   1.324   4.331
 7341TIP3   OH221907   7.071   1.043   4.277
 7341TIP3    H121908   7.022   0.966   4.245
 7341TIP3    H221909   7.107   1.008   4.362
 7342TIP3   OH221910   7.450   1.124   5.041
 7342TIP3    H121911   7.437   1.048   4.981
 7342TIP3    H221912   7.431   1.200   4.981
 7343TIP3   OH221913   6.743   0.520   4.299
 7343TIP3    H121914   6.660   0.568   4.278
 7343TIP3    H221915   6.783   0.512   4.211
 7344TIP3   OH221916   6.694   0.310   4.019
 7344TIP3    H121917   6.772   0.352   4.058
 7344TIP3    H221918   6.737   0.236   3.970
 7345TIP3   OH221919   7.645   0.761   4.889
 7345TIP3    H121920   7.561   0.812   4.894
 7345TIP3    H221921   7.672   0.784   4.797
 7346TIP3   OH221922   7.090   0.603   4.270
 7346TIP3    H121923   7.034   0.627   4.347
 7346TIP3    H221924   7.173   0.575   4.315
 7347TIP3   OH221925   7.320   0.646   5.177
 7347TIP3    H121926   7.318   0.730   5.227
 7347TIP3    H221927   7.235   0.653   5.128
 7348TIP3   OH221928   6.323   0.600   4.687
 7348TIP3    H121929   6.278   0.543   4.621
 7348TIP3    H221930   6.397   0.543   4.716
 7349TIP3   OH221931   6.451   1.012   4.835
 7349TIP3    H121932   6.429   0.969   4.751
 7349TIP3    H221933   6.541   0.976   4.853
 7350TIP3   OH221934   6.461   0.566   5.046
 7350TIP3    H121935   6.490   0.542   4.955
 7350TIP3    H221936   6.503   0.653   5.061
 7351TIP3   OH221937   6.985   1.207   4.818
 7351TIP3    H121938   6.970   1.288   4.871
 7351TIP3    H221939   6.968   1.135   4.882
 7352TIP3   OH221940   6.596   1.127   5.364
 7352TIP3    H121941   6.536   1.189   5.411
 7352TIP3    H221942   6.530   1.073   5.315
 7353TIP3   OH221943   6.935   0.448   4.099
 7353TIP3    H121944   6.992   0.509   4.151
 7353TIP3    H221945   6.960   0.473   4.007
 7354TIP3   OH221946   6.342   0.694   5.461
 7354TIP3    H121947   6.347   0.777   5.512
 7354TIP3    H221948   6.249   0.670   5.475
 7355TIP3   OH221949   6.673   1.138   4.372
 7355TIP3    H121950   6.751   1.193   4.389
 7355TIP3    H221951   6.611   1.200   4.332
 7356TIP3   OH221952   6.390   1.294   5.452
 7356TIP3    H121953   6.354   1.294   5.361
 7356TIP3    H221954   6.311   1.273   5.506
 7357TIP3   OH221955   6.185   0.449   4.494
 7357TIP3    H121956   6.116   0.484   4.435
 7357TIP3    H221957   6.162   0.356   4.502
 7358TIP3   OH221958   7.243   1.067   3.691
 7358TIP3    H121959   7.251   1.164   3.678
 7358TIP3    H221960   7.336   1.039   3.680
 7359TIP3   OH221961   5.968   0.826   5.399
 7359TIP3    H121962   5.902   0.805   5.329
 7359TIP3    H221963   6.006   0.739   5.420
 7360TIP3   OH221964   5.823   1.019   5.031
 7360TIP3    H121965   5.919   1.013   5.022
 7360TIP3    H221966   5.813   1.098   5.086
 7361TIP3   OH221967   7.688   1.470   5.088
 7361TIP3    H121968   7.685   1.374   5.103
 7361TIP3    H221969   7.605   1.497   5.133
 7362TIP3   OH221970   6.793   1.256   5.222
 7362TIP3    H121971   6.792   1.348   5.254
 7362TIP3    H221972   6.722   1.216   5.276
 7363TIP3   OH221973   6.555   1.386   4.173
 7363TIP3    H121974   6.507   1.366   4.090
 7363TIP3    H221975   6.521   1.474   4.197
 7364TIP3   OH221976   5.992   1.234   4.558
 7364TIP3    H121977   6.039   1.225   4.644
 7364TIP3    H221978   5.937   1.154   4.560
 7365TIP3   OH221979   6.755   1.287   3.814
 7365TIP3    H121980   6.814   1.217   3.778
 7365TIP3    H221981   6.789   1.296   3.905
 7366TIP3   OH221982   6.806   1.334   4.084
 7366TIP3    H121983   6.717   1.344   4.125
 7366TIP3    H221984   6.855   1.293   4.157
 7367TIP3   OH221985   7.582   0.597   5.377
 7367TIP3    H121986   7.506   0.631   5.327
 7367TIP3    H221987   7.597   0.510   5.338
 7368TIP3   OH221988   6.174   1.009   5.387
 7368TIP3    H121989   6.223   0.993   5.470
 7368TIP3    H221990   6.099   0.945   5.395
 7369TIP3   OH221991   7.248   0.463   5.376
 7369TIP3    H121992   7.290   0.379   5.355
 7369TIP3    H221993   7.265   0.518   5.298
 7370TIP3   OH221994   7.011   0.500   3.842
 7370TIP3    H121995   6.971   0.479   3.755
 7370TIP3    H221996   7.084   0.559   3.816
 7371TIP3   OH221997   6.512   0.344   5.196
 7371TIP3    H121998   6.454   0.367   5.271
 7371TIP3    H221999   6.500   0.423   5.139
 7372TIP3   OH222000   6.375   0.257   4.699
 7372TIP3    H122001   6.298   0.204   4.729
 7372TIP3    H222002   6.398   0.211   4.615
 7373TIP3   OH222003   6.886   0.325   4.430
 7373TIP3    H122004   6.832   0.396   4.389
 7373TIP3    H222005   6.930   0.287   4.351
 7374TIP3   OH222006   7.055   0.651   5.480
 7374TIP3    H122007   7.045   0.602   5.564
 7374TIP3    H222008   7.150   0.644   5.468
 7375TIP3   OH222009   7.042   0.350   4.669
 7375TIP3    H122010   6.982   0.380   4.598
 7375TIP3    H222011   7.071   0.266   4.631
 7376TIP3   OH222012   6.328   0.386   5.395
 7376TIP3    H122013   6.347   0.442   5.471
 7376TIP3    H222014   6.285   0.309   5.434
 7377TIP3   OH222015   7.049   0.598   5.100
 7377TIP3    H122016   7.077   0.526   5.039
 7377TIP3    H222017   7.016   0.546   5.176
 7378TIP3   OH222018   6.145   0.109   4.772
 7378TIP3    H122019   6.051   0.128   4.749
 7378TIP3    H222020   6.149   0.014   4.755
 7379TIP3   OH222021   6.435   0.130   4.460
 7379TIP3    H122022   6.518   0.103   4.419
 7379TIP3    H222023   6.371   0.123   4.386
 7380TIP3   OH222024   6.256   0.145   4.244
 7380TIP3    H122025   6.195   0.096   4.185
 7380TIP3    H222026   6.315   0.183   4.176
 7381TIP3   OH222027   7.379   1.820   5.186
 7381TIP3    H122028   7.376   1.845   5.093
 7381TIP3    H222029   7.456   1.870   5.219
 7382TIP3   OH222030   6.335   0.931   5.609
 7382TIP3    H122031   6.415   0.961   5.656
 7382TIP3    H222032   6.271   0.932   5.683
 7383TIP3   OH222033   6.803   0.388   4.870
 7383TIP3    H122034   6.859   0.332   4.815
 7383TIP3    H222035   6.797   0.335   4.952
 7384TIP3   OH222036   6.780   0.271   5.172
 7384TIP3    H122037   6.691   0.310   5.176
 7384TIP3    H222038   6.833   0.333   5.226
 7385TIP3   OH222039   6.512   0.672   4.248
 7385TIP3    H122040   6.441   0.605   4.237
 7385TIP3    H222041   6.493   0.705   4.339
 7386TIP3   OH222042   7.413   0.905   4.877
 7386TIP3    H122043   7.435   0.956   4.797
 7386TIP3    H222044   7.327   0.864   4.852
 7387TIP3   OH222045   6.916   0.992   5.244
 7387TIP3    H122046   6.934   0.967   5.335
 7387TIP3    H222047   6.873   1.079   5.253
 7388TIP3   OH222048   7.030   0.204   4.208
 7388TIP3    H122049   7.127   0.218   4.217
 7388TIP3    H222050   7.005   0.281   4.153
 7389TIP3   OH222051   6.207   0.694   4.923
 7389TIP3    H122052   6.244   0.666   4.837
 7389TIP3    H222053   6.243   0.628   4.983
 7390TIP3   OH222054   6.657   0.821   4.070
 7390TIP3    H122055   6.609   0.907   4.075
 7390TIP3    H222056   6.603   0.765   4.129
 7391TIP3   OH222057   6.085   0.614   5.536
 7391TIP3    H122058   6.107   0.599   5.630
 7391TIP3    H222059   6.013   0.549   5.522
 7392TIP3   OH222060   6.803   0.733   5.554
 7392TIP3    H122061   6.741   0.671   5.512
 7392TIP3    H222062   6.888   0.709   5.511
 7393TIP3   OH222063   7.073   1.249   5.139
 7393TIP3    H122064   6.976   1.247   5.153
 7393TIP3    H222065   7.101   1.301   5.218
 7394TIP3   OH222066   7.485   0.319   4.048
 7394TIP3    H122067   7.428   0.270   3.985
 7394TIP3    H222068   7.479   0.408   4.006
 7395TIP3   OH222069   7.700   1.175   5.131
 7395TIP3    H122070   7.602   1.173   5.122
 7395TIP3    H222071   7.726   1.148   5.040
 7396TIP3   OH222072   7.186   1.140   3.959
 7396TIP3    H122073   7.154   1.072   4.020
 7396TIP3    H222074   7.194   1.092   3.874
 7397TIP3   OH222075   7.179   0.768   4.798
 7397TIP3    H122076   7.085   0.744   4.809
 7397TIP3    H222077   7.212   0.689   4.751
 7398TIP3   OH222078   6.305   0.998   4.548
 7398TIP3    H122079   6.304   1.079   4.494
 7398TIP3    H222080   6.211   0.979   4.558
 7399TIP3   OH222081   5.872   0.297   4.255
 7399TIP3    H122082   5.918   0.381   4.272
 7399TIP3    H222083   5.794   0.305   4.314
 7400TIP3   OH222084   6.446   0.764   4.493
 7400TIP3    H122085   6.408   0.852   4.512
 7400TIP3    H222086   6.409   0.711   4.566
 7401TIP3   OH222087   6.574   1.341   5.017
 7401TIP3    H122088   6.616   1.414   4.967
 7401TIP3    H222089   6.651   1.306   5.067
 7402TIP3   OH222090   6.224   1.237   4.400
 7402TIP3    H122091   6.139   1.245   4.447
 7402TIP3    H222092   6.256   1.330   4.403
 7403TIP3   OH222093   6.963   0.975   4.975
 7403TIP3    H122094   6.953   0.975   5.073
 7403TIP3    H222095   7.042   0.921   4.964
 7404TIP3   OH222096   6.937   0.868   3.858
 7404TIP3    H122097   6.989   0.843   3.938
 7404TIP3    H222098   6.848   0.841   3.886
 7405TIP3   OH222099   7.212   1.508   5.025
 7405TIP3    H122100   7.132   1.452   5.019
 7405TIP3    H222101   7.196   1.573   4.954
 7406TIP3   OH222102   7.277   1.343   3.679
 7406TIP3    H122103   7.314   1.415   3.625
 7406TIP3    H222104   7.197   1.388   3.713
 7407TIP3   OH222105   7.098   0.800   4.072
 7407TIP3    H122106   7.086   0.736   4.145
 7407TIP3    H222107   7.195   0.798   4.063
 7408TIP3   OH222108   6.013   1.204   5.176
 7408TIP3    H122109   6.066   1.129   5.208
 7408TIP3    H222110   6.041   1.273   5.237
 7409TIP3   OH222111   6.303   0.849   3.858
 7409TIP3    H122112   6.316   0.756   3.829
 7409TIP3    H222113   6.284   0.836   3.953
 7410TIP3   OH222114   6.248   0.854   4.131
 7410TIP3    H122115   6.319   0.825   4.189
 7410TIP3    H222116   6.254   0.952   4.139
 7411TIP3   OH222117   5.981   0.546   4.332
 7411TIP3    H122118   5.917   0.591   4.390
 7411TIP3    H222119   5.997   0.616   4.266
 7412TIP3   OH222120   6.515   1.052   4.080
 7412TIP3    H122121   6.428   1.077   4.116
 7412TIP3    H222122   6.530   1.123   4.016
 7413TIP3   OH222123   6.731   0.106   4.495
 7413TIP3    H122124   6.769   0.194   4.475
 7413TIP3    H222125   6.678   0.123   4.574
 7414TIP3   OH222126   6.968   0.430   5.319
 7414TIP3    H122127   6.975   0.505   5.382
 7414TIP3    H222128   7.055   0.389   5.332
 7415TIP3   OH222129   6.259   1.127   4.147
 7415TIP3    H122130   6.228   1.196   4.085
 7415TIP3    H222131   6.242   1.170   4.234
 7416TIP3   OH222132   7.263   0.532   4.667
 7416TIP3    H122133   7.191   0.469   4.681
 7416TIP3    H222134   7.337   0.489   4.716
 7417TIP3   OH222135   5.976   0.757   4.139
 7417TIP3    H122136   6.044   0.826   4.148
 7417TIP3    H222137   6.021   0.700   4.072
 7418TIP3   OH222138   5.892   0.005   4.261
 7418TIP3    H122139   5.940   0.089   4.260
 7418TIP3    H222140   5.808   0.033   4.298
 7419TIP3   OH222141   7.232   1.483   4.619
 7419TIP3    H122142   7.189   1.530   4.544
 7419TIP3    H222143   7.326   1.502   4.598
 7420TIP3   OH222144   5.848   0.973   4.527
 7420TIP3    H122145   5.777   1.002   4.585
 7420TIP3    H222146   5.821   1.012   4.441
 7421TIP3   OH222147   6.004   1.513   5.598
 7421TIP3    H122148   6.090   1.513   5.646
 7421TIP3    H222149   5.983   1.418   5.598
 7422TIP3   OH222150   6.485   1.478   5.642
 7422TIP3    H122151   6.579   1.459   5.651
 7422TIP3    H222152   6.460   1.417   5.569
 7423TIP3   OH222153   6.467   1.052   3.771
 7423TIP3    H122154   6.410   0.981   3.809
 7423TIP3    H222155   6.542   0.999   3.739
 7424TIP3   OH222156   7.127   1.382   5.374
 7424TIP3    H122157   7.116   1.314   5.444
 7424TIP3    H222158   7.202   1.434   5.408
 7425TIP3   OH222159   6.903   1.094   3.683
 7425TIP3    H122160   6.946   1.028   3.741
 7425TIP3    H222161   6.959   1.092   3.603
 7426TIP3   OH222162   6.134   0.918   5.799
 7426TIP3    H122163   6.150   0.822   5.806
 7426TIP3    H222164   6.047   0.921   5.755
 7427TIP3   OH222165   6.111   0.570   3.992
 7427TIP3    H122166   6.165   0.534   4.065
 7427TIP3    H222167   6.179   0.574   3.921
 7428TIP3   OH222168   6.743   1.005   5.572
 7428TIP3    H122169   6.700   1.020   5.486
 7428TIP3    H222170   6.771   0.912   5.567
 7429TIP3   OH222171   6.622   0.771   3.800
 7429TIP3    H122172   6.623   0.782   3.897
 7429TIP3    H222173   6.623   0.673   3.794
 7430TIP3   OH222174   7.236   1.010   5.179
 7430TIP3    H122175   7.307   1.059   5.135
 7430TIP3    H222176   7.162   1.073   5.168
 7431TIP3   OH222177   6.251   0.645   5.784
 7431TIP3    H122178   6.330   0.594   5.762
 7431TIP3    H222179   6.277   0.680   5.872
 7432TIP3   OH222180   6.321   0.474   4.216
 7432TIP3    H122181   6.295   0.430   4.298
 7432TIP3    H222182   6.356   0.398   4.163
 7433TIP3   OH222183   6.586   0.576   5.423
 7433TIP3    H122184   6.503   0.629   5.422
 7433TIP3    H222185   6.634   0.607   5.343
 7434TIP3   OH222186   6.417   0.269   4.056
 7434TIP3    H122187   6.392   0.269   3.961
 7434TIP3    H222188   6.515   0.272   4.049
 7435TIP3   OH222189   7.108   0.945   5.582
 7435TIP3    H122190   7.182   0.912   5.531
 7435TIP3    H222191   7.098   0.877   5.651
 7436TIP3   OH222192   7.246   0.597   3.715
 7436TIP3    H122193   7.221   0.553   3.632
 7436TIP3    H222194   7.213   0.688   3.696
 7437TIP3   OH222195   6.657   0.374   5.578
 7437TIP3    H122196   6.678   0.300   5.518
 7437TIP3    H222197   6.624   0.442   5.517
 7438TIP3   OH222198   6.760   0.655   5.227
 7438TIP3    H122199   6.840   0.670   5.174
 7438TIP3    H222200   6.698   0.721   5.190
 7439TIP3   OH222201   7.327   0.628   5.639
 7439TIP3    H122202   7.363   0.539   5.629
 7439TIP3    H222203   7.395   0.684   5.599
 7440TIP3   OH222204   7.368   0.864   5.362
 7440TIP3    H122205   7.307   0.919   5.307
 7440TIP3    H222206   7.454   0.890   5.323
 7441TIP3   OH222207   6.557   0.470   5.813
 7441TIP3    H122208   6.492   0.397   5.817
 7441TIP3    H222209   6.605   0.444   5.732
 7442TIP3   OH222210   7.026   0.488   5.688
 7442TIP3    H122211   6.985   0.469   5.774
 7442TIP3    H222212   7.056   0.401   5.660
 7443TIP3   OH222213   6.228   1.331   3.960
 7443TIP3    H122214   6.323   1.325   3.940
 7443TIP3    H222215   6.198   1.379   3.881
 7444TIP3   OH222216   5.707   0.710   4.175
 7444TIP3    H122217   5.802   0.732   4.161
 7444TIP3    H222218   5.701   0.621   4.135
 7445TIP3   OH222219   5.622   1.324   4.589
 7445TIP3    H122220   5.555   1.262   4.553
 7445TIP3    H222221   5.666   1.266   4.655
 7446TIP3   OH222222   5.757   1.175   4.777
 7446TIP3    H122223   5.746   1.101   4.838
 7446TIP3    H222224   5.809   1.236   4.832
 7447TIP3   OH222225   7.487   1.571   4.576
 7447TIP3    H122226   7.510   1.606   4.664
 7447TIP3    H222227   7.545   1.623   4.518
 7448TIP3   OH222228   7.514   1.595   4.857
 7448TIP3    H122229   7.470   1.507   4.854
 7448TIP3    H222230   7.588   1.574   4.916
 7449TIP3   OH222231   7.562   1.270   5.432
 7449TIP3    H122232   7.488   1.280   5.496
 7449TIP3    H222233   7.602   1.359   5.435
 7450TIP3   OH222234   7.379   0.782   4.050
 7450TIP3    H122235   7.445   0.848   4.024
 7450TIP3    H222236   7.421   0.745   4.131
 7451TIP3   OH222237   7.506   0.650   4.256
 7451TIP3    H122238   7.437   0.608   4.312
 7451TIP3    H222239   7.564   0.691   4.323
 7452TIP3   OH222240   7.560   1.045   4.689
 7452TIP3    H122241   7.610   0.980   4.637
 7452TIP3    H222242   7.550   1.119   4.626
 7453TIP3   OH222243   7.390   1.344   4.883
 7453TIP3    H122244   7.319   1.388   4.934
 7453TIP3    H222245   7.339   1.298   4.813
 7454TIP3   OH222246   7.442   0.556   3.900
 7454TIP3    H122247   7.372   0.565   3.831
 7454TIP3    H222248   7.416   0.632   3.957
 7455TIP3   OH222249   7.327   0.226   3.844
 7455TIP3    H122250   7.277   0.298   3.803
 7455TIP3    H222251   7.278   0.149   3.815
 7456TIP3   OH222252   7.322   0.510   4.403
 7456TIP3    H122253   7.324   0.413   4.403
 7456TIP3    H222254   7.305   0.529   4.498
 7457TIP3   OH222255   5.944   0.578   5.149
 7457TIP3    H122256   5.943   0.549   5.056
 7457TIP3    H222257   6.041   0.583   5.165
 7458TIP3   OH222258   7.613   0.928   5.257
 7458TIP3    H122259   7.686   0.864   5.242
 7458TIP3    H222260   7.635   1.001   5.197
 7459TIP3   OH222261   7.798   0.724   5.265
 7459TIP3    H122262   7.730   0.678   5.318
 7459TIP3    H222263   7.879   0.687   5.302
 7460TIP3   OH222264   7.301   0.227   4.248
 7460TIP3    H122265   7.347   0.190   4.326
 7460TIP3    H222266   7.375   0.260   4.194
 7461TIP3   OH222267   7.481   0.432   4.796
 7461TIP3    H122268   7.570   0.440   4.756
 7461TIP3    H222269   7.501   0.451   4.889
 7462TIP3   OH222270   7.545   0.552   5.043
 7462TIP3    H122271   7.461   0.593   5.074
 7462TIP3    H222272   7.580   0.624   4.986
 7463TIP3   OH222273   5.939   0.238   5.230
 7463TIP3    H122274   5.984   0.227   5.143
 7463TIP3    H222275   5.961   0.330   5.249
 7464TIP3   OH222276   7.069   1.441   4.233
 7464TIP3    H122277   7.121   1.428   4.150
 7464TIP3    H222278   7.121   1.509   4.279
 7465TIP3   OH222279   6.170   1.245   5.618
 7465TIP3    H122280   6.077   1.218   5.602
 7465TIP3    H222281   6.180   1.228   5.713
 7466TIP3   OH222282   6.347   1.277   5.166
 7466TIP3    H122283   6.299   1.353   5.127
 7466TIP3    H222284   6.434   1.291   5.122
 7467TIP3   OH222285   6.792   1.522   5.303
 7467TIP3    H122286   6.834   1.522   5.392
 7467TIP3    H222287   6.859   1.574   5.252
 7468TIP3   OH222288   6.972   1.674   5.162
 7468TIP3    H122289   7.044   1.623   5.122
 7468TIP3    H222290   7.023   1.732   5.224
 7469TIP3   OH222291   6.024   1.535   5.189
 7469TIP3    H122292   5.935   1.569   5.166
 7469TIP3    H222293   6.035   1.572   5.277
 7470TIP3   OH222294   6.261   1.514   5.048
 7470TIP3    H122295   6.174   1.526   5.092
 7470TIP3    H222296   6.241   1.546   4.958
 7471TIP3   OH222297   6.687   1.542   4.845
 7471TIP3    H122298   6.617   1.562   4.780
 7471TIP3    H222299   6.699   1.629   4.888
 7472TIP3   OH222300   6.955   1.481   4.896
 7472TIP3    H122301   6.861   1.498   4.877
 7472TIP3    H222302   6.998   1.558   4.856
 7473TIP3   OH222303   7.163   1.674   4.812
 7473TIP3    H122304   7.149   1.758   4.765
 7473TIP3    H222305   7.188   1.613   4.739
 7474TIP3   OH222306   5.936   1.329   4.935
 7474TIP3    H122307   5.962   1.303   5.025
 7474TIP3    H222308   6.008   1.284   4.884
 7475TIP3   OH222309   6.129   1.200   4.792
 7475TIP3    H122310   6.145   1.116   4.841
 7475TIP3    H222311   6.220   1.236   4.787
 7476TIP3   OH222312   6.396   1.295   4.794
 7476TIP3    H122313   6.427   1.203   4.782
 7476TIP3    H222314   6.440   1.316   4.879
 7477TIP3   OH222315   5.724   1.100   4.325
 7477TIP3    H122316   5.639   1.066   4.291
 7477TIP3    H222317   5.712   1.195   4.307
 7478TIP3   OH222318   6.495   1.289   3.907
 7478TIP3    H122319   6.584   1.311   3.871
 7478TIP3    H222320   6.473   1.214   3.847
 7479TIP3   OH222321   7.216   1.408   4.001
 7479TIP3    H122322   7.208   1.310   3.989
 7479TIP3    H222323   7.169   1.439   3.921
 7480TIP3   OH222324   5.800   1.128   3.964
 7480TIP3    H122325   5.800   1.149   4.059
 7480TIP3    H222326   5.888   1.085   3.952
 7481TIP3   OH222327   7.442   1.551   5.186
 7481TIP3    H122328   7.362   1.520   5.139
 7481TIP3    H222329   7.422   1.647   5.192
 7482TIP3   OH222330   8.706   0.921   3.948
 7482TIP3    H122331   8.683   1.015   3.939
 7482TIP3    H222332   8.628   0.879   3.907
 7483TIP3   OH222333   8.687   0.916   4.340
 7483TIP3    H122334   8.730   0.903   4.426
 7483TIP3    H222335   8.658   0.825   4.319
 7484TIP3   OH222336   8.010   0.828   4.691
 7484TIP3    H122337   8.034   0.755   4.752
 7484TIP3    H222338   8.080   0.890   4.715
 7485TIP3   OH222339   8.947   1.222   4.018
 7485TIP3    H122340   8.946   1.157   4.090
 7485TIP3    H222341   8.976   1.302   4.068
 7486TIP3   OH222342   7.975   1.228   4.425
 7486TIP3    H122343   7.965   1.132   4.430
 7486TIP3    H222344   8.072   1.237   4.421
 7487TIP3   OH222345   7.680   0.426   4.214
 7487TIP3    H122346   7.626   0.506   4.233
 7487TIP3    H222347   7.617   0.376   4.158
 7488TIP3   OH222348   7.745   0.717   4.387
 7488TIP3    H122349   7.792   0.640   4.424
 7488TIP3    H222350   7.791   0.730   4.303
 7489TIP3   OH222351   8.598   1.684   4.032
 7489TIP3    H122352   8.642   1.609   3.987
 7489TIP3    H222353   8.596   1.654   4.124
 7490TIP3   OH222354   8.508   1.143   4.379
 7490TIP3    H122355   8.557   1.064   4.347
 7490TIP3    H222356   8.586   1.198   4.401
 7491TIP3   OH222357   8.921   0.669   4.411
 7491TIP3    H122358   8.946   0.586   4.454
 7491TIP3    H222359   8.894   0.641   4.322
 7492TIP3   OH222360   7.889   0.510   4.486
 7492TIP3    H122361   7.969   0.486   4.538
 7492TIP3    H222362   7.903   0.452   4.409
 7493TIP3   OH222363   8.328   0.725   4.259
 7493TIP3    H122364   8.420   0.700   4.282
 7493TIP3    H222365   8.287   0.636   4.254
 7494TIP3   OH222366   8.598   1.148   3.815
 7494TIP3    H122367   8.559   1.135   3.727
 7494TIP3    H222368   8.552   1.229   3.845
 7495TIP3   OH222369   8.355   1.068   4.610
 7495TIP3    H122370   8.294   1.134   4.651
 7495TIP3    H222371   8.400   1.122   4.543
 7496TIP3   OH222372   8.126   0.424   4.583
 7496TIP3    H122373   8.197   0.486   4.610
 7496TIP3    H222374   8.170   0.365   4.521
 7497TIP3   OH222375   8.184   1.262   4.706
 7497TIP3    H122376   8.161   1.350   4.670
 7497TIP3    H222377   8.106   1.247   4.763
 7498TIP3   OH222378   7.583   0.952   3.943
 7498TIP3    H122379   7.538   0.978   3.861
 7498TIP3    H222380   7.611   1.039   3.979
 7499TIP3   OH222381   9.008   1.453   4.173
 7499TIP3    H122382   8.918   1.454   4.212
 7499TIP3    H222383   9.014   1.542   4.135
 7500TIP3   OH222384   8.718   1.500   3.860
 7500TIP3    H122385   8.779   1.427   3.838
 7500TIP3    H222386   8.772   1.577   3.830
 7501TIP3   OH222387   8.872   1.284   3.761
 7501TIP3    H122388   8.801   1.219   3.752
 7501TIP3    H222389   8.909   1.260   3.849
 7502TIP3   OH222390   8.532   0.781   3.783
 7502TIP3    H122391   8.454   0.826   3.744
 7502TIP3    H222392   8.587   0.766   3.704
 7503TIP3   OH222393   8.493   0.567   3.504
 7503TIP3    H122394   8.572   0.610   3.543
 7503TIP3    H222395   8.533   0.491   3.459
 7504TIP3   OH222396   8.899   0.852   3.770
 7504TIP3    H122397   8.832   0.879   3.837
 7504TIP3    H222398   8.980   0.858   3.824
 7505TIP3   OH222399   9.126   0.906   4.651
 7505TIP3    H122400   9.117   0.978   4.715
 7505TIP3    H222401   9.041   0.908   4.606
 7506TIP3   OH222402   8.249   1.263   4.323
 7506TIP3    H122403   8.234   1.236   4.231
 7506TIP3    H222404   8.339   1.229   4.340
 7507TIP3   OH222405   8.261   0.827   4.518
 7507TIP3    H122406   8.312   0.809   4.437
 7507TIP3    H222407   8.301   0.910   4.551
 7508TIP3   OH222408   8.771   1.467   4.302
 7508TIP3    H122409   8.762   1.547   4.356
 7508TIP3    H222410   8.761   1.395   4.367
 7509TIP3   OH222411   8.391   1.382   4.852
 7509TIP3    H122412   8.332   1.445   4.899
 7509TIP3    H222413   8.324   1.330   4.803
 7510TIP3   OH222414   8.723   0.712   3.594
 7510TIP3    H122415   8.793   0.760   3.643
 7510TIP3    H222416   8.752   0.727   3.501
 7511TIP3   OH222417   8.135   0.953   4.939
 7511TIP3    H122418   8.144   1.034   4.994
 7511TIP3    H222419   8.045   0.925   4.965
 7512TIP3   OH222420   8.464   1.392   3.861
 7512TIP3    H122421   8.547   1.441   3.874
 7512TIP3    H222422   8.407   1.459   3.821
 7513TIP3   OH222423   8.186   1.550   4.939
 7513TIP3    H122424   8.150   1.552   4.849
 7513TIP3    H222425   8.107   1.529   4.993
 7514TIP3   OH222426   7.985   0.726   3.992
 7514TIP3    H122427   7.915   0.756   3.930
 7514TIP3    H222428   7.965   0.632   4.000
 7515TIP3   OH222429   7.765   1.082   4.885
 7515TIP3    H122430   7.696   1.062   4.818
 7515TIP3    H222431   7.800   0.994   4.907
 7516TIP3   OH222432   7.619   1.276   4.518
 7516TIP3    H122433   7.715   1.277   4.513
 7516TIP3    H222434   7.601   1.355   4.571
 7517TIP3   OH222435   8.588   1.512   4.708
 7517TIP3    H122436   8.588   1.605   4.741
 7517TIP3    H222437   8.518   1.472   4.764
 7518TIP3   OH222438   8.350   1.640   3.662
 7518TIP3    H122439   8.305   1.624   3.577
 7518TIP3    H222440   8.319   1.729   3.687
 7519TIP3   OH222441   7.788   1.491   4.044
 7519TIP3    H122442   7.836   1.482   4.130
 7519TIP3    H222443   7.726   1.416   4.050
 7520TIP3   OH222444   8.553   1.543   3.301
 7520TIP3    H122445   8.614   1.474   3.268
 7520TIP3    H222446   8.585   1.555   3.393
 7521TIP3   OH222447   8.601   1.591   3.572
 7521TIP3    H122448   8.512   1.600   3.614
 7521TIP3    H222449   8.654   1.560   3.646
 7522TIP3   OH222450   7.970   1.264   4.873
 7522TIP3    H122451   8.019   1.250   4.957
 7522TIP3    H222452   7.896   1.201   4.882
 7523TIP3   OH222453   8.801   0.753   3.330
 7523TIP3    H122454   8.776   0.733   3.238
 7523TIP3    H222455   8.847   0.837   3.319
 7524TIP3   OH222456   8.304   0.606   4.681
 7524TIP3    H122457   8.247   0.627   4.758
 7524TIP3    H222458   8.288   0.686   4.625
 7525TIP3   OH222459   8.152   0.537   4.169
 7525TIP3    H122460   8.094   0.473   4.214
 7525TIP3    H222461   8.189   0.478   4.099
 7526TIP3   OH222462   8.676   0.584   3.907
 7526TIP3    H122463   8.614   0.656   3.882
 7526TIP3    H222464   8.729   0.580   3.827
 7527TIP3   OH222465   8.864   0.889   4.956
 7527TIP3    H122466   8.845   0.847   5.042
 7527TIP3    H222467   8.956   0.916   4.971
 7528TIP3   OH222468   8.815   0.594   4.166
 7528TIP3    H122469   8.776   0.636   4.088
 7528TIP3    H222470   8.858   0.518   4.126
 7529TIP3   OH222471   8.119   0.644   4.880
 7529TIP3    H122472   8.144   0.696   4.958
 7529TIP3    H222473   8.082   0.563   4.919
 7530TIP3   OH222474   8.823   0.857   4.577
 7530TIP3    H122475   8.865   0.788   4.521
 7530TIP3    H222476   8.821   0.812   4.663
 7531TIP3   OH222477   7.943   0.366   4.257
 7531TIP3    H122478   7.849   0.384   4.234
 7531TIP3    H222479   7.946   0.270   4.249
 7532TIP3   OH222480   8.235   0.402   3.945
 7532TIP3    H122481   8.315   0.359   3.913
 7532TIP3    H222482   8.171   0.383   3.873
 7533TIP3   OH222483   8.050   0.411   3.730
 7533TIP3    H122484   7.990   0.356   3.675
 7533TIP3    H222485   8.110   0.441   3.660
 7534TIP3   OH222486   9.166   2.083   4.670
 7534TIP3    H122487   9.168   2.099   4.574
 7534TIP3    H222488   9.236   2.143   4.700
 7535TIP3   OH222489   8.132   1.186   5.095
 7535TIP3    H122490   8.212   1.217   5.143
 7535TIP3    H222491   8.067   1.188   5.169
 7536TIP3   OH222492   8.588   0.647   4.347
 7536TIP3    H122493   8.661   0.605   4.297
 7536TIP3    H222494   8.590   0.595   4.429
 7537TIP3   OH222495   8.569   0.527   4.660
 7537TIP3    H122496   8.484   0.573   4.663
 7537TIP3    H222497   8.627   0.586   4.711
 7538TIP3   OH222498   8.304   0.930   3.721
 7538TIP3    H122499   8.236   0.859   3.711
 7538TIP3    H222500   8.288   0.961   3.811
 7539TIP3   OH222501   8.708   1.244   4.733
 7539TIP3    H122502   8.732   1.227   4.825
 7539TIP3    H222503   8.672   1.334   4.736
 7540TIP3   OH222504   8.004   0.936   4.426
 7540TIP3    H122505   8.093   0.906   4.407
 7540TIP3    H222506   7.992   0.897   4.514
 7541TIP3   OH222507   8.460   1.083   3.556
 7541TIP3    H122508   8.410   1.168   3.558
 7541TIP3    H222509   8.402   1.026   3.609
 7542TIP3   OH222510   7.883   0.868   5.022
 7542TIP3    H122511   7.904   0.855   5.116
 7542TIP3    H222512   7.810   0.805   5.009
 7543TIP3   OH222513   8.606   0.987   5.038
 7543TIP3    H122514   8.540   0.926   5.000
 7543TIP3    H222515   8.687   0.962   4.990
 7544TIP3   OH222516   8.865   1.497   4.632
 7544TIP3    H122517   8.768   1.505   4.642
 7544TIP3    H222518   8.896   1.555   4.704
 7545TIP3   OH222519   8.994   1.362   3.420
 7545TIP3    H122520   8.969   1.352   3.512
 7545TIP3    H222521   8.916   1.332   3.374
 7546TIP3   OH222522   8.941   1.037   4.276
 7546TIP3    H122523   8.859   0.986   4.285
 7546TIP3    H222524   9.009   0.969   4.271
 7547TIP3   OH222525   8.097   1.229   4.040
 7547TIP3    H122526   8.117   1.306   3.986
 7547TIP3    H222527   8.001   1.237   4.048
 7548TIP3   OH222528   7.668   0.555   3.741
 7548TIP3    H122529   7.712   0.640   3.759
 7548TIP3    H222530   7.590   0.561   3.799
 7549TIP3   OH222531   8.371   1.598   4.503
 7549TIP3    H122532   8.412   1.671   4.453
 7549TIP3    H222533   8.448   1.564   4.553
 7550TIP3   OH222534   8.023   1.490   3.888
 7550TIP3    H122535   7.937   1.499   3.935
 7550TIP3    H222536   8.056   1.582   3.892
 7551TIP3   OH222537   8.756   1.233   4.459
 7551TIP3    H122538   8.755   1.227   4.557
 7551TIP3    H222539   8.836   1.184   4.436
 7552TIP3   OH222540   8.726   1.128   3.350
 7552TIP3    H122541   8.782   1.095   3.424
 7552TIP3    H222542   8.638   1.104   3.381
 7553TIP3   OH222543   8.997   1.763   4.513
 7553TIP3    H122544   8.914   1.713   4.496
 7553TIP3    H222545   8.992   1.829   4.441
 7554TIP3   OH222546   8.893   1.041   3.556
 7554TIP3    H122547   8.889   0.979   3.631
 7554TIP3    H222548   8.973   1.091   3.578
 7555TIP3   OH222549   7.811   1.459   4.663
 7555TIP3    H122550   7.863   1.388   4.703
 7555TIP3    H222551   7.833   1.533   4.720
 7556TIP3   OH222552   8.103   1.104   3.344
 7556TIP3    H122553   8.112   1.012   3.315
 7556TIP3    H222554   8.079   1.093   3.438
 7557TIP3   OH222555   8.045   1.112   3.616
 7557TIP3    H122556   8.123   1.093   3.670
 7557TIP3    H222557   8.043   1.210   3.619
 7558TIP3   OH222558   7.784   0.806   3.822
 7558TIP3    H122559   7.715   0.849   3.877
 7558TIP3    H222560   7.792   0.874   3.752
 7559TIP3   OH222561   8.310   1.306   3.567
 7559TIP3    H122562   8.223   1.335   3.601
 7559TIP3    H222563   8.329   1.379   3.506
 7560TIP3   OH222564   8.526   0.361   3.978
 7560TIP3    H122565   8.567   0.448   3.962
 7560TIP3    H222566   8.486   0.372   4.065
 7561TIP3   OH222567   8.754   0.675   4.812
 7561TIP3    H122568   8.791   0.746   4.869
 7561TIP3    H222569   8.833   0.624   4.787
 7562TIP3   OH222570   8.054   1.382   3.634
 7562TIP3    H122571   8.024   1.452   3.571
 7562TIP3    H222572   8.038   1.426   3.720
 7563TIP3   OH222573   7.771   1.011   3.628
 7563TIP3    H122574   7.831   1.087   3.634
 7563TIP3    H222575   7.818   0.959   3.558
 7564TIP3   OH222576   7.688   0.263   3.746
 7564TIP3    H122577   7.731   0.350   3.746
 7564TIP3    H222578   7.605   0.285   3.790
 7565TIP3   OH222579   9.045   1.741   4.116
 7565TIP3    H122580   9.010   1.795   4.042
 7565TIP3    H222581   9.122   1.697   4.076
 7566TIP3   OH222582   7.642   1.222   4.013
 7566TIP3    H122583   7.576   1.255   4.074
 7566TIP3    H222584   7.614   1.266   3.930
 7567TIP3   OH222585   7.800   1.770   5.085
 7567TIP3    H122586   7.886   1.770   5.133
 7567TIP3    H222587   7.779   1.675   5.085
 7568TIP3   OH222588   8.281   1.734   5.130
 7568TIP3    H122589   8.376   1.716   5.138
 7568TIP3    H222590   8.257   1.674   5.056
 7569TIP3   OH222591   8.264   1.310   3.258
 7569TIP3    H122592   8.208   1.237   3.294
 7569TIP3    H222593   8.338   1.259   3.221
 7570TIP3   OH222594   8.921   1.639   4.863
 7570TIP3    H122595   8.911   1.569   4.932
 7570TIP3    H222596   8.995   1.692   4.898
 7571TIP3   OH222597   8.702   1.347   3.181
 7571TIP3    H122598   8.733   1.263   3.221
 7571TIP3    H222599   8.740   1.345   3.091
 7572TIP3   OH222600   7.931   1.175   5.285
 7572TIP3    H122601   7.946   1.080   5.294
 7572TIP3    H222602   7.843   1.178   5.242
 7573TIP3   OH222603   7.905   0.828   3.475
 7573TIP3    H122604   7.957   0.787   3.546
 7573TIP3    H222605   7.973   0.832   3.404
 7574TIP3   OH222606   8.539   1.261   5.060
 7574TIP3    H122607   8.497   1.277   4.973
 7574TIP3    H222608   8.570   1.168   5.053
 7575TIP3   OH222609   8.419   1.025   3.286
 7575TIP3    H122610   8.421   1.038   3.383
 7575TIP3    H222611   8.417   0.927   3.281
 7576TIP3   OH222612   9.036   1.274   4.662
 7576TIP3    H122613   9.087   1.311   4.589
 7576TIP3    H222614   8.959   1.333   4.661
 7577TIP3   OH222615   8.049   0.901   5.269
 7577TIP3    H122616   8.127   0.847   5.251
 7577TIP3    H222617   8.073   0.937   5.357
 7578TIP3   OH222618   8.130   0.721   3.717
 7578TIP3    H122619   8.081   0.660   3.775
 7578TIP3    H222620   8.163   0.657   3.650
 7579TIP3   OH222621   8.384   0.836   4.911
 7579TIP3    H122622   8.301   0.888   4.908
 7579TIP3    H222623   8.433   0.865   4.831
 7580TIP3   OH222624   8.214   0.531   3.541
 7580TIP3    H122625   8.189   0.526   3.446
 7580TIP3    H222626   8.312   0.530   3.533
 7581TIP3   OH222627   8.899   1.197   5.065
 7581TIP3    H122628   8.982   1.175   5.023
 7581TIP3    H222629   8.896   1.135   5.140
 7582TIP3   OH222630   8.439   0.626   5.063
 7582TIP3    H122631   8.480   0.557   5.006
 7582TIP3    H222632   8.417   0.696   5.000
 7583TIP3   OH222633   8.553   0.907   4.709
 7583TIP3    H122634   8.638   0.918   4.664
 7583TIP3    H222635   8.499   0.979   4.672
 7584TIP3   OH222636   9.120   0.879   5.114
 7584TIP3    H122637   9.166   0.795   5.111
 7584TIP3    H222638   9.190   0.943   5.095
 7585TIP3   OH222639   9.178   1.135   4.847
 7585TIP3    H122640   9.113   1.186   4.792
 7585TIP3    H222641   9.258   1.148   4.793
 7586TIP3   OH222642   8.353   0.726   5.299
 7586TIP3    H122643   8.288   0.654   5.306
 7586TIP3    H222644   8.397   0.698   5.216
 7587TIP3   OH222645   8.817   0.745   5.174
 7587TIP3    H122646   8.781   0.729   5.263
 7587TIP3    H222647   8.851   0.657   5.151
 7588TIP3   OH222648   8.023   1.582   3.445
 7588TIP3    H122649   8.119   1.581   3.427
 7588TIP3    H222650   7.993   1.633   3.368
 7589TIP3   OH222651   7.503   0.966   3.664
 7589TIP3    H122652   7.597   0.988   3.649
 7589TIP3    H222653   7.496   0.878   3.621
 7590TIP3   OH222654   7.419   1.579   4.076
 7590TIP3    H122655   7.351   1.518   4.039
 7590TIP3    H222656   7.463   1.521   4.142
 7591TIP3   OH222657   7.556   1.429   4.261
 7591TIP3    H122658   7.540   1.359   4.326
 7591TIP3    H222659   7.606   1.492   4.317
 7592TIP3   OH222660   9.162   1.548   4.399
 7592TIP3    H122661   9.097   1.615   4.426
 7592TIP3    H222662   9.119   1.507   4.321
 7593TIP3   OH222663   7.741   0.834   4.637
 7593TIP3    H122664   7.738   0.805   4.543
 7593TIP3    H222665   7.838   0.838   4.653
 7594TIP3   OH222666   7.735   0.494   4.716
 7594TIP3    H122667   7.780   0.484   4.630
 7594TIP3    H222668   7.757   0.585   4.738
 7595TIP3   OH222669   8.840   1.712   3.750
 7595TIP3    H122670   8.879   1.684   3.663
 7595TIP3    H222671   8.909   1.769   3.786
 7596TIP3   OH222672   7.967   1.499   5.104
 7596TIP3    H122673   7.873   1.475   5.090
 7596TIP3    H222674   7.976   1.485   5.199
 7597TIP3   OH222675   8.145   1.532   4.651
 7597TIP3    H122676   8.096   1.608   4.614
 7597TIP3    H222677   8.231   1.548   4.607
 7598TIP3   OH222678   8.589   1.778   4.790
 7598TIP3    H122679   8.630   1.780   4.879
 7598TIP3    H222680   8.655   1.829   4.738
 7599TIP3   OH222681   8.768   1.929   4.649
 7599TIP3    H122682   8.840   1.881   4.606
 7599TIP3    H222683   8.819   1.987   4.710
 7600TIP3   OH222684   7.820   1.789   4.678
 7600TIP3    H122685   7.731   1.823   4.654
 7600TIP3    H222686   7.832   1.831   4.764
 7601TIP3   OH222687   8.056   1.768   4.534
 7601TIP3    H122688   7.970   1.781   4.579
 7601TIP3    H222689   8.037   1.803   4.445
 7602TIP3   OH222690   8.482   1.799   4.332
 7602TIP3    H122691   8.413   1.820   4.266
 7602TIP3    H222692   8.496   1.886   4.375
 7603TIP3   OH222693   8.749   1.735   4.383
 7603TIP3    H122694   8.657   1.757   4.363
 7603TIP3    H222695   8.797   1.810   4.343
 7604TIP3   OH222696   8.947   1.923   4.301
 7604TIP3    H122697   8.935   2.010   4.259
 7604TIP3    H222698   8.986   1.870   4.228
 7605TIP3   OH222699   7.732   1.586   4.420
 7605TIP3    H122700   7.758   1.560   4.511
 7605TIP3    H222701   7.804   1.541   4.370
 7606TIP3   OH222702   7.926   1.456   4.277
 7606TIP3    H122703   7.941   1.373   4.328
 7606TIP3    H222704   8.016   1.495   4.275
 7607TIP3   OH222705   8.190   1.553   4.284
 7607TIP3    H122706   8.226   1.463   4.274
 7607TIP3    H222707   8.233   1.579   4.367
 7608TIP3   OH222708   7.521   1.357   3.813
 7608TIP3    H122709   7.435   1.324   3.779
 7608TIP3    H222710   7.510   1.452   3.794
 7609TIP3   OH222711   8.293   1.545   3.396
 7609TIP3    H122712   8.380   1.569   3.359
 7609TIP3    H222713   8.270   1.471   3.336
 7610TIP3   OH222714   8.931   1.625   3.514
 7610TIP3    H122715   8.987   1.554   3.477
 7610TIP3    H222716   8.918   1.681   3.435
 7611TIP3   OH222717   7.595   1.382   3.450
 7611TIP3    H122718   7.595   1.410   3.543
 7611TIP3    H222719   7.684   1.341   3.441
 7612TIP3   OH222720   9.205   1.813   4.689
 7612TIP3    H122721   9.141   1.774   4.626
 7612TIP3    H222722   9.183   1.908   4.679
 7613TIP3   OH222723   1.161   1.710   5.645
 7613TIP3    H122724   1.131   1.801   5.628
 7613TIP3    H222725   1.084   1.660   5.612
 7614TIP3   OH222726   1.155   1.713   6.026
 7614TIP3    H122727   1.190   1.686   6.113
 7614TIP3    H222728   1.116   1.630   5.994
 7615TIP3   OH222729   0.502   1.646   6.401
 7615TIP3    H122730   0.530   1.566   6.448
 7615TIP3    H222731   0.585   1.679   6.364
 7616TIP3   OH222732   1.400   2.015   5.707
 7616TIP3    H122733   1.390   1.945   5.773
 7616TIP3    H222734   1.432   2.089   5.762
 7617TIP3   OH222735   0.427   2.013   6.112
 7617TIP3    H122736   0.420   1.916   6.117
 7617TIP3    H222737   0.524   2.024   6.112
 7618TIP3   OH222738   1.038   2.468   5.717
 7618TIP3    H122739   1.095   2.401   5.675
 7618TIP3    H222740   1.047   2.446   5.811
 7619TIP3   OH222741   0.957   1.937   6.074
 7619TIP3    H122742   0.996   1.860   6.030
 7619TIP3    H222743   1.040   1.983   6.099
 7620TIP3   OH222744   1.969   1.258   6.071
 7620TIP3    H122745   1.998   1.340   6.115
 7620TIP3    H222746   1.993   1.276   5.978
 7621TIP3   OH222747   1.371   1.440   6.105
 7621TIP3    H122748   1.413   1.354   6.125
 7621TIP3    H222749   1.338   1.424   6.015
 7622TIP3   OH222750   1.403   1.189   5.694
 7622TIP3    H122751   1.476   1.174   5.759
 7622TIP3    H222752   1.454   1.225   5.619
 7623TIP3   OH222753   0.795   1.508   5.970
 7623TIP3    H122754   0.888   1.481   5.987
 7623TIP3    H222755   0.756   1.422   5.943
 7624TIP3   OH222756   2.042   1.463   6.243
 7624TIP3    H122757   1.959   1.512   6.224
 7624TIP3    H222758   2.064   1.497   6.332
 7625TIP3   OH222759   1.045   1.928   5.517
 7625TIP3    H122760   1.017   1.903   5.428
 7625TIP3    H222761   1.012   2.019   5.524
 7626TIP3   OH222762   0.812   1.858   6.302
 7626TIP3    H122763   0.751   1.925   6.339
 7626TIP3    H222764   0.858   1.908   6.231
 7627TIP3   OH222765   1.613   1.190   5.867
 7627TIP3    H122766   1.600   1.150   5.954
 7627TIP3    H222767   1.666   1.269   5.890
 7628TIP3   OH222768   0.634   2.050   6.400
 7628TIP3    H122769   0.611   2.138   6.363
 7628TIP3    H222770   0.552   2.030   6.450
 7629TIP3   OH222771   0.076   1.755   5.620
 7629TIP3    H122772  -0.002   1.771   5.566
 7629TIP3    H222773   0.065   1.818   5.692
 7630TIP3   OH222774   1.471   2.256   5.874
 7630TIP3    H122775   1.381   2.248   5.913
 7630TIP3    H222776   1.464   2.343   5.830
 7631TIP3   OH222777   1.763   1.154   6.234
 7631TIP3    H122778   1.677   1.189   6.206
 7631TIP3    H222779   1.824   1.190   6.166
 7632TIP3   OH222780   1.180   2.300   5.555
 7632TIP3    H122781   1.230   2.218   5.530
 7632TIP3    H222782   1.238   2.367   5.513
 7633TIP3   OH222783   1.311   2.085   5.456
 7633TIP3    H122784   1.298   2.003   5.405
 7633TIP3    H222785   1.349   2.051   5.540
 7634TIP3   OH222786   1.698   2.170   6.218
 7634TIP3    H122787   1.687   2.092   6.159
 7634TIP3    H222788   1.681   2.244   6.157
 7635TIP3   OH222789   0.990   1.566   5.474
 7635TIP3    H122790   0.909   1.615   5.450
 7635TIP3    H222791   1.036   1.558   5.389
 7636TIP3   OH222792   0.949   1.344   5.199
 7636TIP3    H122793   1.019   1.398   5.240
 7636TIP3    H222794   1.005   1.283   5.145
 7637TIP3   OH222795   1.893   1.805   6.062
 7637TIP3    H122796   1.811   1.858   6.068
 7637TIP3    H222797   1.924   1.830   5.972
 7638TIP3   OH222798   1.338   1.646   5.446
 7638TIP3    H122799   1.284   1.669   5.525
 7638TIP3    H222800   1.422   1.620   5.489
 7639TIP3   OH222801   1.573   1.685   6.360
 7639TIP3    H122802   1.571   1.768   6.411
 7639TIP3    H222803   1.486   1.690   6.314
 7640TIP3   OH222804   0.583   1.660   5.874
 7640TIP3    H122805   0.539   1.605   5.805
 7640TIP3    H222806   0.657   1.602   5.901
 7641TIP3   OH222807   0.702   2.057   6.010
 7641TIP3    H122808   0.681   2.004   5.932
 7641TIP3    H222809   0.792   2.023   6.032
 7642TIP3   OH222810   0.700   1.631   6.195
 7642TIP3    H122811   0.739   1.599   6.111
 7642TIP3    H222812   0.755   1.709   6.216
 7643TIP3   OH222813   1.228   2.252   5.993
 7643TIP3    H122814   1.218   2.333   6.046
 7643TIP3    H222815   1.216   2.180   6.058
 7644TIP3   OH222816   0.844   2.170   6.541
 7644TIP3    H122817   0.786   2.234   6.588
 7644TIP3    H222818   0.778   2.118   6.492
 7645TIP3   OH222819   1.177   1.504   5.273
 7645TIP3    H122820   1.237   1.563   5.324
 7645TIP3    H222821   1.203   1.526   5.180
 7646TIP3   OH222822   0.592   1.740   6.651
 7646TIP3    H122823   0.591   1.829   6.691
 7646TIP3    H222824   0.516   1.744   6.590
 7647TIP3   OH222825   0.916   2.225   5.527
 7647TIP3    H122826   1.009   2.243   5.551
 7647TIP3    H222827   0.870   2.244   5.608
 7648TIP3   OH222828   0.637   2.335   6.629
 7648TIP3    H122829   0.602   2.342   6.538
 7648TIP3    H222830   0.557   2.315   6.682
 7649TIP3   OH222831   1.695   0.746   5.322
 7649TIP3    H122832   1.613   0.768   5.370
 7649TIP3    H222833   1.710   0.828   5.270
 7650TIP3   OH222834   0.475   1.517   5.666
 7650TIP3    H122835   0.402   1.563   5.620
 7650TIP3    H222836   0.433   1.431   5.681
 7651TIP3   OH222837   1.493   2.113   4.873
 7651TIP3    H122838   1.501   2.209   4.854
 7651TIP3    H222839   1.586   2.083   4.858
 7652TIP3   OH222840   0.060   2.064   6.215
 7652TIP3    H122841   0.150   2.035   6.196
 7652TIP3    H222842   0.079   2.144   6.267
 7653TIP3   OH222843   1.937   2.514   6.263
 7653TIP3    H122844   1.935   2.418   6.279
 7653TIP3    H222845   1.854   2.540   6.309
 7654TIP3   OH222846   1.041   2.301   6.398
 7654TIP3    H122847   1.041   2.394   6.431
 7654TIP3    H222848   0.971   2.261   6.454
 7655TIP3   OH222849   0.246   2.278   5.733
 7655TIP3    H122850   0.290   2.270   5.820
 7655TIP3    H222851   0.187   2.200   5.735
 7656TIP3   OH222852   1.006   2.329   4.994
 7656TIP3    H122853   1.062   2.259   4.953
 7656TIP3    H222854   1.045   2.336   5.083
 7657TIP3   OH222855   1.053   2.376   5.274
 7657TIP3    H122856   0.993   2.337   5.339
 7657TIP3    H222857   1.138   2.355   5.314
 7658TIP3   OH222858   1.826   1.645   6.539
 7658TIP3    H122859   1.745   1.658   6.488
 7658TIP3    H222860   1.841   1.549   6.529
 7659TIP3   OH222861   0.413   2.032   6.567
 7659TIP3    H122862   0.472   2.041   6.645
 7659TIP3    H222863   0.335   1.992   6.608
 7660TIP3   OH222864   1.347   0.986   6.557
 7660TIP3    H122865   1.433   0.964   6.599
 7660TIP3    H222866   1.291   0.995   6.635
 7661TIP3   OH222867   1.592   1.419   6.457
 7661TIP3    H122868   1.544   1.416   6.543
 7661TIP3    H222869   1.570   1.508   6.424
 7662TIP3   OH222870   1.256   1.552   5.019
 7662TIP3    H122871   1.219   1.527   4.932
 7662TIP3    H222872   1.338   1.597   4.991
 7663TIP3   OH222873   0.957   0.931   5.327
 7663TIP3    H122874   0.923   0.937   5.419
 7663TIP3    H222875   0.943   0.837   5.309
 7664TIP3   OH222876   0.804   1.438   6.359
 7664TIP3    H122877   0.724   1.399   6.397
 7664TIP3    H222878   0.766   1.500   6.293
 7665TIP3   OH222879   0.675   1.279   5.889
 7665TIP3    H122880   0.587   1.244   5.912
 7665TIP3    H222881   0.680   1.248   5.797
 7666TIP3   OH222882   1.133   1.370   5.608
 7666TIP3    H122883   1.079   1.440   5.565
 7666TIP3    H222884   1.185   1.337   5.532
 7667TIP3   OH222885   1.303   1.645   6.694
 7667TIP3    H122886   1.286   1.571   6.757
 7667TIP3    H222887   1.397   1.663   6.714
 7668TIP3   OH222888   1.286   1.392   5.847
 7668TIP3    H122889   1.226   1.423   5.776
 7668TIP3    H222890   1.319   1.311   5.804
 7669TIP3   OH222891   1.295   1.640   6.268
 7669TIP3    H122892   1.328   1.568   6.210
 7669TIP3    H222893   1.268   1.587   6.346
 7670TIP3   OH222894   0.974   1.113   5.936
 7670TIP3    H122895   0.885   1.119   5.974
 7670TIP3    H222896   1.030   1.112   6.015
 7671TIP3   OH222897   0.669   1.181   5.636
 7671TIP3    H122898   0.763   1.176   5.614
 7671TIP3    H222899   0.624   1.168   5.550
 7672TIP3   OH222900   1.456   1.176   6.143
 7672TIP3    H122901   1.426   1.189   6.235
 7672TIP3    H222902   1.387   1.114   6.112
 7673TIP3   OH222903   0.516   1.155   5.402
 7673TIP3    H122904   0.433   1.150   5.353
 7673TIP3    H222905   0.571   1.207   5.339
 7674TIP3   OH222906   1.627   2.865   6.363
 7674TIP3    H122907   1.625   2.890   6.269
 7674TIP3    H222908   1.704   2.914   6.396
 7675TIP3   OH222909   0.592   1.986   6.782
 7675TIP3    H122910   0.679   2.022   6.804
 7675TIP3    H222911   0.558   1.977   6.873
 7676TIP3   OH222912   1.053   1.432   6.042
 7676TIP3    H122913   1.122   1.388   5.991
 7676TIP3    H222914   1.058   1.389   6.129
 7677TIP3   OH222915   1.037   1.318   6.307
 7677TIP3    H122916   0.955   1.363   6.337
 7677TIP3    H222917   1.101   1.355   6.370
 7678TIP3   OH222918   0.756   1.721   5.422
 7678TIP3    H122919   0.687   1.652   5.411
 7678TIP3    H222920   0.741   1.750   5.515
 7679TIP3   OH222921   1.661   1.952   6.053
 7679TIP3    H122922   1.686   2.002   5.972
 7679TIP3    H222923   1.576   1.911   6.028
 7680TIP3   OH222924   1.215   1.027   5.290
 7680TIP3    H122925   1.117   1.017   5.294
 7680TIP3    H222926   1.229   1.122   5.307
 7681TIP3   OH222927   1.157   2.033   6.421
 7681TIP3    H122928   1.189   2.014   6.510
 7681TIP3    H222929   1.123   2.124   6.429
 7682TIP3   OH222930   1.289   1.275   5.389
 7682TIP3    H122931   1.385   1.282   5.404
 7682TIP3    H222932   1.270   1.355   5.335
 7683TIP3   OH222933   0.449   1.737   6.105
 7683TIP3    H122934   0.482   1.711   6.017
 7683TIP3    H222935   0.517   1.696   6.162
 7684TIP3   OH222936   0.904   1.874   5.252
 7684TIP3    H122937   0.865   1.962   5.270
 7684TIP3    H222938   0.848   1.815   5.307
 7685TIP3   OH222939   1.061   1.772   6.729
 7685TIP3    H122940   1.009   1.723   6.663
 7685TIP3    H222941   1.151   1.741   6.707
 7686TIP3   OH222942   1.319   2.292   6.317
 7686TIP3    H122943   1.223   2.294   6.330
 7686TIP3    H222944   1.349   2.344   6.395
 7687TIP3   OH222945   1.730   1.367   5.226
 7687TIP3    H122946   1.668   1.322   5.164
 7687TIP3    H222947   1.727   1.456   5.185
 7688TIP3   OH222948   1.949   2.223   6.307
 7688TIP3    H122949   1.851   2.218   6.299
 7688TIP3    H222950   1.974   2.194   6.217
 7689TIP3   OH222951   1.427   2.185   5.134
 7689TIP3    H122952   1.408   2.109   5.191
 7689TIP3    H222953   1.443   2.143   5.047
 7690TIP3   OH222954   1.426   1.815   5.971
 7690TIP3    H122955   1.333   1.790   5.985
 7690TIP3    H222956   1.460   1.735   5.927
 7691TIP3   OH222957   0.551   2.043   5.719
 7691TIP3    H122958   0.542   2.128   5.673
 7691TIP3    H222959   0.459   2.022   5.740
 7692TIP3   OH222960   0.694   1.811   5.668
 7692TIP3    H122961   0.653   1.897   5.688
 7692TIP3    H222962   0.665   1.758   5.744
 7693TIP3   OH222963   0.823   2.385   6.194
 7693TIP3    H122964   0.864   2.459   6.145
 7693TIP3    H222965   0.899   2.351   6.244
 7694TIP3   OH222966   0.471   2.285   5.574
 7694TIP3    H122967   0.387   2.291   5.625
 7694TIP3    H222968   0.504   2.377   5.585
 7695TIP3   OH222969   1.211   2.020   6.152
 7695TIP3    H122970   1.201   2.018   6.250
 7695TIP3    H222971   1.291   1.968   6.140
 7696TIP3   OH222972   1.187   1.914   5.036
 7696TIP3    H122973   1.238   1.889   5.116
 7696TIP3    H222974   1.099   1.881   5.058
 7697TIP3   OH222975   1.460   2.553   6.203
 7697TIP3    H122976   1.380   2.497   6.195
 7697TIP3    H222977   1.445   2.618   6.131
 7698TIP3   OH222978   1.525   2.387   4.855
 7698TIP3    H122979   1.561   2.457   4.798
 7698TIP3    H222980   1.446   2.434   4.888
 7699TIP3   OH222981   1.346   1.853   5.260
 7699TIP3    H122982   1.337   1.781   5.325
 7699TIP3    H222983   1.442   1.846   5.241
 7700TIP3   OH222984   0.255   2.241   6.354
 7700TIP3    H122985   0.319   2.177   6.389
 7700TIP3    H222986   0.275   2.319   6.408
 7701TIP3   OH222987   0.549   1.899   5.039
 7701TIP3    H122988   0.564   1.813   4.995
 7701TIP3    H222989   0.526   1.871   5.130
 7702TIP3   OH222990   0.497   1.897   5.315
 7702TIP3    H122991   0.565   1.863   5.375
 7702TIP3    H222992   0.501   1.994   5.330
 7703TIP3   OH222993   0.248   1.577   5.515
 7703TIP3    H122994   0.187   1.632   5.570
 7703TIP3    H222995   0.262   1.639   5.442
 7704TIP3   OH222996   1.385   1.220   6.402
 7704TIP3    H122997   1.461   1.266   6.442
 7704TIP3    H222998   1.369   1.145   6.462
 7705TIP3   OH222999   1.269   0.980   5.563
 7705TIP3    H123000   1.250   1.004   5.471
 7705TIP3    H223001   1.304   1.064   5.600
 7706TIP3   OH223002   0.767   2.123   5.257
 7706TIP3    H123003   0.675   2.096   5.267
 7706TIP3    H223004   0.780   2.114   5.160
 7707TIP3   OH223005   0.955   1.171   5.671
 7707TIP3    H123006   1.019   1.243   5.654
 7707TIP3    H223007   0.960   1.164   5.769
 7708TIP3   OH223008   1.228   1.479   6.476
 7708TIP3    H123009   1.238   1.534   6.556
 7708TIP3    H223010   1.280   1.401   6.499
 7709TIP3   OH223011   1.102   0.886   5.764
 7709TIP3    H123012   1.079   0.961   5.823
 7709TIP3    H223013   1.164   0.929   5.700
 7710TIP3   OH223014   0.502   2.175   5.324
 7710TIP3    H123015   0.450   2.226   5.258
 7710TIP3    H223016   0.466   2.208   5.410
 7711TIP3   OH223017   1.860   1.378   6.461
 7711TIP3    H123018   1.762   1.375   6.464
 7711TIP3    H223019   1.876   1.344   6.372
 7712TIP3   OH223020   1.512   1.573   5.847
 7712TIP3    H123021   1.436   1.513   5.859
 7712TIP3    H223022   1.584   1.526   5.895
 7713TIP3   OH223023   0.219   1.802   5.310
 7713TIP3    H123024   0.288   1.869   5.322
 7713TIP3    H223025   0.264   1.744   5.245
 7714TIP3   OH223026   1.480   2.527   5.795
 7714TIP3    H123027   1.438   2.575   5.720
 7714TIP3    H223028   1.575   2.546   5.775
 7715TIP3   OH223029   0.100   2.035   5.723
 7715TIP3    H123030   0.013   2.060   5.755
 7715TIP3    H223031   0.088   2.048   5.627
 7716TIP3   OH223032   0.271   2.566   6.754
 7716TIP3    H123033   0.346   2.572   6.816
 7716TIP3    H223034   0.236   2.478   6.775
 7717TIP3   OH223035   0.731   2.523   6.820
 7717TIP3    H123036   0.826   2.509   6.831
 7717TIP3    H223037   0.712   2.462   6.746
 7718TIP3   OH223038   0.738   2.094   4.985
 7718TIP3    H123039   0.667   2.024   4.987
 7718TIP3    H223040   0.799   2.055   4.920
 7719TIP3   OH223041   1.375   2.426   6.551
 7719TIP3    H123042   1.365   2.357   6.622
 7719TIP3    H223043   1.451   2.478   6.583
 7720TIP3   OH223044   1.153   2.141   4.860
 7720TIP3    H123045   1.201   2.076   4.915
 7720TIP3    H223046   1.204   2.140   4.776
 7721TIP3   OH223047   0.365   1.616   5.173
 7721TIP3    H123048   0.422   1.581   5.244
 7721TIP3    H223049   0.430   1.617   5.099
 7722TIP3   OH223050   0.990   2.047   6.749
 7722TIP3    H123051   0.954   2.066   6.660
 7722TIP3    H223052   1.023   1.955   6.739
 7723TIP3   OH223053   0.873   1.811   4.980
 7723TIP3    H123054   0.873   1.822   5.076
 7723TIP3    H223055   0.873   1.713   4.972
 7724TIP3   OH223056   1.482   2.057   6.355
 7724TIP3    H123057   1.558   2.101   6.311
 7724TIP3    H223058   1.413   2.125   6.341
 7725TIP3   OH223059   0.567   1.520   5.385
 7725TIP3    H123060   0.550   1.486   5.475
 7725TIP3    H223061   0.605   1.443   5.340
 7726TIP3   OH223062   0.819   1.580   6.623
 7726TIP3    H123063   0.754   1.654   6.624
 7726TIP3    H223064   0.874   1.601   6.544
 7727TIP3   OH223065   0.669   1.309   5.232
 7727TIP3    H123066   0.643   1.316   5.137
 7727TIP3    H223067   0.766   1.316   5.224
 7728TIP3   OH223068   1.352   1.983   6.752
 7728TIP3    H123069   1.435   1.962   6.707
 7728TIP3    H223070   1.352   1.919   6.826
 7729TIP3   OH223071   1.491   1.642   4.896
 7729TIP3    H123072   1.470   1.596   4.812
 7729TIP3    H223073   1.459   1.732   4.872
 7730TIP3   OH223074   0.995   1.389   6.729
 7730TIP3    H123075   0.938   1.314   6.706
 7730TIP3    H223076   0.935   1.461   6.702
 7731TIP3   OH223077   0.989   1.699   6.444
 7731TIP3    H123078   1.069   1.691   6.390
 7731TIP3    H223079   0.935   1.761   6.391
 7732TIP3   OH223080   1.572   1.658   6.805
 7732TIP3    H123081   1.623   1.577   6.820
 7732TIP3    H223082   1.640   1.719   6.773
 7733TIP3   OH223083   1.613   1.911   6.541
 7733TIP3    H123084   1.555   1.965   6.482
 7733TIP3    H223085   1.701   1.932   6.501
 7734TIP3   OH223086   1.242   1.426   6.841
 7734TIP3    H123087   1.232   1.427   6.938
 7734TIP3    H223088   1.150   1.410   6.809
 7735TIP3   OH223089   1.461   1.367   6.686
 7735TIP3    H123090   1.389   1.379   6.751
 7735TIP3    H223091   1.537   1.342   6.743
 7736TIP3   OH223092   1.686   1.313   6.840
 7736TIP3    H123093   1.700   1.218   6.860
 7736TIP3    H223094   1.683   1.354   6.929
 7737TIP3   OH223095   0.490   2.385   5.144
 7737TIP3    H123096   0.568   2.387   5.085
 7737TIP3    H223097   0.427   2.424   5.080
 7738TIP3   OH223098  -0.044   1.723   5.363
 7738TIP3    H123099   0.044   1.766   5.354
 7738TIP3    H223100  -0.025   1.635   5.325
 7739TIP3   OH223101  -0.120   2.363   5.753
 7739TIP3    H123102  -0.207   2.324   5.746
 7739TIP3    H223103  -0.082   2.315   5.830
 7740TIP3   OH223104  -0.005   2.229   5.959
 7740TIP3    H123105   0.001   2.151   6.015
 7740TIP3    H223106   0.052   2.291   6.010
 7741TIP3   OH223107   1.733   2.619   5.753
 7741TIP3    H123108   1.759   2.652   5.841
 7741TIP3    H223109   1.795   2.665   5.694
 7742TIP3   OH223110   1.763   2.639   6.034
 7742TIP3    H123111   1.720   2.551   6.030
 7742TIP3    H223112   1.837   2.618   6.093
 7743TIP3   OH223113   1.808   2.316   6.607
 7743TIP3    H123114   1.736   2.325   6.672
 7743TIP3    H223115   1.850   2.404   6.612
 7744TIP3   OH223116   1.624   1.830   5.228
 7744TIP3    H123117   1.692   1.893   5.198
 7744TIP3    H223118   1.668   1.791   5.306
 7745TIP3   OH223119   1.753   1.697   5.431
 7745TIP3    H123120   1.688   1.655   5.491
 7745TIP3    H223121   1.819   1.734   5.494
 7746TIP3   OH223122   1.806   2.088   5.862
 7746TIP3    H123123   1.860   2.023   5.814
 7746TIP3    H223124   1.801   2.162   5.799
 7747TIP3   OH223125   1.639   2.389   6.058
 7747TIP3    H123126   1.568   2.431   6.110
 7747TIP3    H223127   1.588   2.341   5.989
 7748TIP3   OH223128   1.691   1.604   5.079
 7748TIP3    H123129   1.620   1.606   5.010
 7748TIP3    H223130   1.663   1.681   5.133
 7749TIP3   OH223131   1.562   1.278   5.033
 7749TIP3    H123132   1.520   1.317   4.955
 7749TIP3    H223133   1.536   1.184   5.023
 7750TIP3   OH223134   1.566   1.554   5.578
 7750TIP3    H123135   1.575   1.457   5.571
 7750TIP3    H223136   1.553   1.567   5.674
 7751TIP3   OH223137   1.856   1.978   6.434
 7751TIP3    H123138   1.929   1.912   6.425
 7751TIP3    H223139   1.884   2.048   6.373
 7752TIP3   OH223140   2.041   1.783   6.451
 7752TIP3    H123141   1.967   1.733   6.491
 7752TIP3    H223142   2.114   1.719   6.465
 7753TIP3   OH223143   1.505   1.013   5.020
 7753TIP3    H123144   1.580   0.979   5.073
 7753TIP3    H223145   1.432   0.952   5.040
 7754TIP3   OH223146   1.563   1.270   5.473
 7754TIP3    H123147   1.604   1.181   5.488
 7754TIP3    H223148   1.621   1.303   5.402
 7755TIP3   OH223149   1.724   1.443   5.967
 7755TIP3    H123150   1.810   1.469   5.927
 7755TIP3    H223151   1.738   1.480   6.056
 7756TIP3   OH223152   1.793   1.587   6.200
 7756TIP3    H123153   1.716   1.622   6.248
 7756TIP3    H223154   1.826   1.667   6.154
 7757TIP3   OH223155   2.243   1.176   6.756
 7757TIP3    H123156   2.304   1.111   6.714
 7757TIP3    H223157   2.217   1.232   6.680
 7758TIP3   OH223158   1.673   1.021   5.511
 7758TIP3    H123159   1.722   1.004   5.594
 7758TIP3    H223160   1.613   0.943   5.509
 7759TIP3   OH223161   2.116   1.318   6.562
 7759TIP3    H123162   2.030   1.358   6.582
 7759TIP3    H223163   2.088   1.246   6.503
 7760TIP3   OH223164   1.754   0.953   5.144
 7760TIP3    H123165   1.793   0.882   5.089
 7760TIP3    H223166   1.820   1.024   5.137
 7761TIP3   OH223167   1.315   2.483   5.408
 7761TIP3    H123168   1.370   2.474   5.327
 7761TIP3    H223169   1.365   2.551   5.457
 7762TIP3   OH223170   0.411   2.270   6.796
 7762TIP3    H123171   0.323   2.231   6.790
 7762TIP3    H223172   0.423   2.282   6.891
 7763TIP3   OH223173   0.595   2.321   6.341
 7763TIP3    H123174   0.548   2.398   6.303
 7763TIP3    H223175   0.682   2.335   6.298
 7764TIP3   OH223176   1.041   2.567   6.479
 7764TIP3    H123177   1.082   2.567   6.568
 7764TIP3    H223178   1.107   2.618   6.428
 7765TIP3   OH223179   1.221   2.718   6.339
 7765TIP3    H123180   1.295   2.668   6.300
 7765TIP3    H223181   1.271   2.776   6.401
 7766TIP3   OH223182   2.015   1.081   6.440
 7766TIP3    H123183   1.925   1.074   6.406
 7766TIP3    H223184   2.047   0.988   6.428
 7767TIP3   OH223185   0.272   2.575   6.369
 7767TIP3    H123186   0.182   2.609   6.348
 7767TIP3    H223187   0.285   2.615   6.455
 7768TIP3   OH223188   0.507   2.555   6.223
 7768TIP3    H123189   0.421   2.569   6.269
 7768TIP3    H223190   0.488   2.592   6.135
 7769TIP3   OH223191   0.936   2.587   6.020
 7769TIP3    H123192   0.865   2.609   5.956
 7769TIP3    H223193   0.949   2.674   6.065
 7770TIP3   OH223194   1.204   2.525   6.071
 7770TIP3    H123195   1.110   2.545   6.054
 7770TIP3    H223196   1.248   2.603   6.034
 7771TIP3   OH223197   1.410   2.717   5.989
 7771TIP3    H123198   1.397   2.802   5.942
 7771TIP3    H223199   1.437   2.658   5.915
 7772TIP3   OH223200   0.182   2.367   6.107
 7772TIP3    H123201   0.204   2.351   6.200
 7772TIP3    H223202   0.259   2.324   6.063
 7773TIP3   OH223203   0.381   2.242   5.967
 7773TIP3    H123204   0.396   2.159   6.017
 7773TIP3    H223205   0.471   2.280   5.964
 7774TIP3   OH223206   0.646   2.335   5.970
 7774TIP3    H123207   0.676   2.242   5.967
 7774TIP3    H223208   0.689   2.363   6.053
 7775TIP3   OH223209   1.229   0.991   6.059
 7775TIP3    H123210   1.185   0.906   6.071
 7775TIP3    H223211   1.305   0.965   6.004
 7776TIP3   OH223212   1.742   0.869   5.962
 7776TIP3    H123213   1.782   0.924   5.891
 7776TIP3    H223214   1.649   0.897   5.958
 7777TIP3   OH223215   1.838   0.974   5.728
 7777TIP3    H123216   1.912   0.924   5.687
 7777TIP3    H223217   1.871   1.066   5.714
 7778TIP3   OH223218   1.457   0.881   5.940
 7778TIP3    H123219   1.453   0.849   5.849
 7778TIP3    H223220   1.442   0.799   5.992
 7779TIP3   OH223221   1.488   0.809   5.499
 7779TIP3    H123222   1.404   0.856   5.512
 7779TIP3    H223223   1.469   0.723   5.541
 7780TIP3   OH223224  -0.041   2.144   5.509
 7780TIP3    H123225  -0.093   2.101   5.440
 7780TIP3    H223226  -0.051   2.238   5.483
 7781TIP3   OH223227   0.878   0.925   5.589
 7781TIP3    H123228   0.934   0.879   5.653
 7781TIP3    H223229   0.900   1.018   5.614
 7782TIP3   OH223230   0.750   2.351   5.078
 7782TIP3    H123231   0.841   2.371   5.046
 7782TIP3    H223232   0.736   2.268   5.027
 7783TIP3   OH223233   1.462   2.451   5.178
 7783TIP3    H123234   1.454   2.354   5.164
 7783TIP3    H223235   1.419   2.485   5.096
 7784TIP3   OH223236   0.050   2.162   5.141
 7784TIP3    H123237   0.052   2.208   5.225
 7784TIP3    H223238   0.140   2.123   5.134
 7785TIP3   OH223239   1.748   1.042   6.873
 7785TIP3    H123240   1.771   1.012   6.964
 7785TIP3    H223241   1.835   1.038   6.829
 7786TIP3   OH223242   1.691   2.596   6.363
 7786TIP3    H123243   1.611   2.565   6.316
 7786TIP3    H223244   1.671   2.692   6.369
 7787TIP3   OH223245   2.957   1.973   5.130
 7787TIP3    H123246   2.923   2.062   5.106
 7787TIP3    H223247   2.882   1.918   5.098
 7788TIP3   OH223248   2.954   1.969   5.515
 7788TIP3    H123249   2.986   1.937   5.601
 7788TIP3    H223250   2.914   1.889   5.478
 7789TIP3   OH223251   2.253   1.863   5.879
 7789TIP3    H123252   2.283   1.795   5.942
 7789TIP3    H223253   2.333   1.916   5.869
 7790TIP3   OH223254   3.207   2.276   5.195
 7790TIP3    H123255   3.188   2.194   5.244
 7790TIP3    H223256   3.219   2.339   5.268
 7791TIP3   OH223257   2.225   2.273   5.602
 7791TIP3    H123258   2.216   2.175   5.604
 7791TIP3    H223259   2.322   2.281   5.598
 7792TIP3   OH223260   1.931   1.475   5.387
 7792TIP3    H123261   1.884   1.559   5.402
 7792TIP3    H223262   1.861   1.422   5.346
 7793TIP3   OH223263   1.991   1.763   5.559
 7793TIP3    H123264   2.040   1.686   5.596
 7793TIP3    H223265   2.051   1.794   5.490
 7794TIP3   OH223266   2.846   2.734   5.209
 7794TIP3    H123267   2.895   2.661   5.164
 7794TIP3    H223268   2.831   2.698   5.297
 7795TIP3   OH223269   2.754   2.195   5.559
 7795TIP3    H123270   2.789   2.115   5.517
 7795TIP3    H223271   2.839   2.238   5.583
 7796TIP3   OH223272   3.768   1.517   5.561
 7796TIP3    H123273   3.796   1.598   5.609
 7796TIP3    H223274   3.790   1.540   5.469
 7797TIP3   OH223275   3.168   1.701   5.592
 7797TIP3    H123276   3.195   1.612   5.623
 7797TIP3    H223277   3.137   1.680   5.502
 7798TIP3   OH223278   2.501   1.356   5.559
 7798TIP3    H123279   2.483   1.429   5.496
 7798TIP3    H223280   2.454   1.283   5.513
 7799TIP3   OH223281   3.200   1.444   5.182
 7799TIP3    H123282   3.272   1.429   5.249
 7799TIP3    H223283   3.253   1.480   5.108
 7800TIP3   OH223284   2.137   1.557   5.665
 7800TIP3    H123285   2.220   1.538   5.713
 7800TIP3    H223286   2.151   1.502   5.585
 7801TIP3   OH223287   2.578   1.755   5.459
 7801TIP3    H123288   2.672   1.731   5.472
 7801TIP3    H223289   2.540   1.671   5.427
 7802TIP3   OH223290   3.838   1.722   5.732
 7802TIP3    H123291   3.750   1.764   5.717
 7802TIP3    H223292   3.843   1.726   5.829
 7803TIP3   OH223293   2.500   1.332   5.993
 7803TIP3    H123294   2.442   1.371   5.925
 7803TIP3    H223295   2.450   1.354   6.074
 7804TIP3   OH223296   2.851   2.196   5.000
 7804TIP3    H123297   2.809   2.167   4.918
 7804TIP3    H223298   2.801   2.277   5.021
 7805TIP3   OH223299   2.609   2.114   5.787
 7805TIP3    H123300   2.545   2.178   5.825
 7805TIP3    H223301   2.647   2.165   5.713
 7806TIP3   OH223302   3.405   1.446   5.364
 7806TIP3    H123303   3.410   1.406   5.452
 7806TIP3    H223304   3.461   1.525   5.378
 7807TIP3   OH223305   2.369   1.452   5.778
 7807TIP3    H123306   2.432   1.524   5.802
 7807TIP3    H223307   2.419   1.412   5.703
 7808TIP3   OH223308   2.435   2.307   5.885
 7808TIP3    H123309   2.408   2.394   5.847
 7808TIP3    H223310   2.357   2.290   5.941
 7809TIP3   OH223311   1.828   1.997   5.121
 7809TIP3    H123312   1.789   2.023   5.035
 7809TIP3    H223313   1.859   2.083   5.156
 7810TIP3   OH223314   3.268   2.517   5.344
 7810TIP3    H123315   3.187   2.499   5.396
 7810TIP3    H223316   3.255   2.611   5.323
 7811TIP3   OH223317   3.546   1.386   5.681
 7811TIP3    H123318   3.493   1.454   5.724
 7811TIP3    H223319   3.620   1.436   5.642
 7812TIP3   OH223320   2.838   1.027   5.678
 7812TIP3    H123321   2.860   0.967   5.751
 7812TIP3    H223322   2.796   1.098   5.732
 7813TIP3   OH223323   2.982   2.562   5.044
 7813TIP3    H123324   3.017   2.474   5.018
 7813TIP3    H223325   3.044   2.621   4.996
 7814TIP3   OH223326   3.124   2.351   4.947
 7814TIP3    H123327   3.090   2.278   4.893
 7814TIP3    H223328   3.149   2.303   5.029
 7815TIP3   OH223329   3.495   2.428   5.706
 7815TIP3    H123330   3.483   2.347   5.651
 7815TIP3    H223331   3.477   2.499   5.640
 7816TIP3   OH223332   2.788   1.823   4.962
 7816TIP3    H123333   2.707   1.872   4.939
 7816TIP3    H223334   2.833   1.816   4.876
 7817TIP3   OH223335   2.747   1.602   4.678
 7817TIP3    H123336   2.814   1.655   4.725
 7817TIP3    H223337   2.805   1.540   4.630
 7818TIP3   OH223338   3.690   2.069   5.552
 7818TIP3    H123339   3.605   2.117   5.557
 7818TIP3    H223340   3.716   2.085   5.459
 7819TIP3   OH223341   3.135   1.904   4.932
 7819TIP3    H123342   3.080   1.926   5.011
 7819TIP3    H223343   3.218   1.876   4.976
 7820TIP3   OH223344   3.368   1.957   5.831
 7820TIP3    H123345   3.358   2.033   5.891
 7820TIP3    H223346   3.278   1.952   5.792
 7821TIP3   OH223347   2.367   1.901   5.350
 7821TIP3    H123348   2.325   1.843   5.283
 7821TIP3    H223349   2.443   1.847   5.380
 7822TIP3   OH223350   2.498   2.314   5.497
 7822TIP3    H123351   2.473   2.271   5.414
 7822TIP3    H223352   2.586   2.277   5.515
 7823TIP3   OH223353   2.500   1.873   5.705
 7823TIP3    H123354   2.535   1.847   5.617
 7823TIP3    H223355   2.546   1.957   5.723
 7824TIP3   OH223356   3.043   2.508   5.484
 7824TIP3    H123357   3.017   2.586   5.535
 7824TIP3    H223358   3.020   2.434   5.544
 7825TIP3   OH223359   2.640   2.429   6.026
 7825TIP3    H123360   2.580   2.490   6.074
 7825TIP3    H223361   2.574   2.375   5.977
 7826TIP3   OH223362   2.973   1.762   4.759
 7826TIP3    H123363   3.034   1.820   4.810
 7826TIP3    H223364   3.000   1.785   4.666
 7827TIP3   OH223365   2.395   1.988   6.128
 7827TIP3    H123366   2.397   2.074   6.175
 7827TIP3    H223367   2.300   1.965   6.138
 7828TIP3   OH223368   2.720   2.440   5.031
 7828TIP3    H123369   2.787   2.503   5.060
 7828TIP3    H223370   2.653   2.497   4.990
 7829TIP3   OH223371   2.435   2.596   6.116
 7829TIP3    H123372   2.398   2.595   6.026
 7829TIP3    H223373   2.356   2.575   6.170
 7830TIP3   OH223374   3.490   1.001   4.808
 7830TIP3    H123375   3.409   1.023   4.858
 7830TIP3    H223376   3.505   1.084   4.758
 7831TIP3   OH223377   2.232   1.744   5.156
 7831TIP3    H123378   2.166   1.788   5.099
 7831TIP3    H223379   2.192   1.657   5.167
 7832TIP3   OH223380   3.290   2.370   4.364
 7832TIP3    H123381   3.298   2.464   4.339
 7832TIP3    H223382   3.380   2.337   4.345
 7833TIP3   OH223383   2.013   2.128   6.062
 7833TIP3    H123384   1.948   2.104   5.993
 7833TIP3    H223385   2.051   2.041   6.087
 7834TIP3   OH223386   1.867   2.319   5.696
 7834TIP3    H123387   1.963   2.313   5.686
 7834TIP3    H223388   1.858   2.399   5.750
 7835TIP3   OH223389   3.740   2.758   5.745
 7835TIP3    H123390   3.751   2.661   5.755
 7835TIP3    H223391   3.648   2.768   5.770
 7836TIP3   OH223392   2.840   2.557   5.888
 7836TIP3    H123393   2.833   2.650   5.919
 7836TIP3    H223394   2.766   2.517   5.939
 7837TIP3   OH223395   2.602   2.688   4.835
 7837TIP3    H123396   2.553   2.666   4.754
 7837TIP3    H223397   2.565   2.775   4.859
 7838TIP3   OH223398   2.037   2.535   5.221
 7838TIP3    H123399   2.083   2.526   5.307
 7838TIP3    H223400   1.980   2.456   5.222
 7839TIP3   OH223401   2.802   2.589   4.479
 7839TIP3    H123402   2.859   2.519   4.439
 7839TIP3    H223403   2.838   2.594   4.569
 7840TIP3   OH223404   2.855   2.638   4.755
 7840TIP3    H123405   2.762   2.650   4.786
 7840TIP3    H223406   2.887   2.574   4.820
 7841TIP3   OH223407   3.619   1.899   6.018
 7841TIP3    H123408   3.539   1.912   5.965
 7841TIP3    H223409   3.608   1.804   6.036
 7842TIP3   OH223410   2.219   2.310   6.051
 7842TIP3    H123411   2.268   2.293   6.134
 7842TIP3    H223412   2.144   2.247   6.058
 7843TIP3   OH223413   2.617   1.135   5.836
 7843TIP3    H123414   2.528   1.103   5.812
 7843TIP3    H223415   2.592   1.216   5.886
 7844TIP3   OH223416   3.431   1.706   5.961
 7844TIP3    H123417   3.372   1.665   6.027
 7844TIP3    H223418   3.370   1.762   5.911
 7845TIP3   OH223419   3.052   1.816   4.505
 7845TIP3    H123420   3.018   1.784   4.419
 7845TIP3    H223421   3.138   1.852   4.475
 7846TIP3   OH223422   2.761   1.182   4.806
 7846TIP3    H123423   2.728   1.180   4.898
 7846TIP3    H223424   2.723   1.099   4.772
 7847TIP3   OH223425   2.544   1.646   5.852
 7847TIP3    H123426   2.500   1.670   5.936
 7847TIP3    H223427   2.533   1.729   5.800
 7848TIP3   OH223428   2.433   1.536   5.367
 7848TIP3    H123429   2.340   1.509   5.385
 7848TIP3    H223430   2.446   1.494   5.279
 7849TIP3   OH223431   2.925   1.621   5.095
 7849TIP3    H123432   2.872   1.691   5.052
 7849TIP3    H223433   2.979   1.589   5.020
 7850TIP3   OH223434   3.097   1.904   6.187
 7850TIP3    H123435   3.074   1.828   6.246
 7850TIP3    H223436   3.194   1.908   6.201
 7851TIP3   OH223437   3.084   1.650   5.332
 7851TIP3    H123438   3.020   1.675   5.262
 7851TIP3    H223439   3.117   1.567   5.292
 7852TIP3   OH223440   2.366   1.679   6.065
 7852TIP3    H123441   2.403   1.739   6.131
 7852TIP3    H223442   2.359   1.595   6.114
 7853TIP3   OH223443   2.418   1.155   4.773
 7853TIP3    H123444   2.408   1.154   4.870
 7853TIP3    H223445   2.340   1.208   4.747
 7854TIP3   OH223446   1.961   1.198   5.645
 7854TIP3    H123447   2.036   1.232   5.698
 7854TIP3    H223448   2.003   1.170   5.562
 7855TIP3   OH223449   1.934   1.181   5.163
 7855TIP3    H123450   1.978   1.219   5.084
 7855TIP3    H223451   1.873   1.255   5.183
 7856TIP3   OH223452   3.092   1.897   5.759
 7856TIP3    H123453   3.126   1.827   5.698
 7856TIP3    H223454   3.067   1.841   5.835
 7857TIP3   OH223455   2.753   1.358   5.428
 7857TIP3    H123456   2.677   1.360   5.489
 7857TIP3    H223457   2.827   1.344   5.489
 7858TIP3   OH223458   2.194   1.414   5.437
 7858TIP3    H123459   2.100   1.421   5.409
 7858TIP3    H223460   2.217   1.322   5.414
 7859TIP3   OH223461   2.464   1.408   5.125
 7859TIP3    H123462   2.558   1.425   5.106
 7859TIP3    H223463   2.418   1.432   5.042
 7860TIP3   OH223464   3.220   1.439   5.657
 7860TIP3    H123465   3.205   1.396   5.744
 7860TIP3    H223466   3.184   1.370   5.600
 7861TIP3   OH223467   2.306   1.443   4.904
 7861TIP3    H123468   2.235   1.398   4.855
 7861TIP3    H223469   2.358   1.480   4.829
 7862TIP3   OH223470   3.428   3.101   5.865
 7862TIP3    H123471   3.419   3.122   5.771
 7862TIP3    H223472   3.505   3.156   5.888
 7863TIP3   OH223473   2.380   2.233   6.272
 7863TIP3    H123474   2.460   2.263   6.320
 7863TIP3    H223475   2.315   2.231   6.344
 7864TIP3   OH223476   2.842   1.690   5.523
 7864TIP3    H123477   2.917   1.642   5.486
 7864TIP3    H223478   2.839   1.655   5.615
 7865TIP3   OH223479   2.365   1.173   5.404
 7865TIP3    H123480   2.332   1.094   5.450
 7865TIP3    H223481   2.404   1.136   5.324
 7866TIP3   OH223482   2.824   1.611   5.784
 7866TIP3    H123483   2.736   1.606   5.826
 7866TIP3    H223484   2.881   1.633   5.859
 7867TIP3   OH223485   2.556   1.974   4.911
 7867TIP3    H123486   2.485   1.907   4.900
 7867TIP3    H223487   2.537   2.006   5.002
 7868TIP3   OH223488   3.452   2.211   5.544
 7868TIP3    H123489   3.478   2.253   5.459
 7868TIP3    H223490   3.371   2.162   5.521
 7869TIP3   OH223491   3.016   1.282   4.779
 7869TIP3    H123492   2.919   1.268   4.781
 7869TIP3    H223493   3.026   1.378   4.795
 7870TIP3   OH223494   2.970   2.301   5.906
 7870TIP3    H123495   2.974   2.259   5.993
 7870TIP3    H223496   2.913   2.378   5.921
 7871TIP3   OH223497   3.085   1.533   4.878
 7871TIP3    H123498   3.181   1.538   4.891
 7871TIP3    H223499   3.067   1.611   4.821
 7872TIP3   OH223500   2.249   1.995   5.586
 7872TIP3    H123501   2.287   1.966   5.501
 7872TIP3    H223502   2.292   1.934   5.648
 7873TIP3   OH223503   2.703   2.124   4.735
 7873TIP3    H123504   2.655   2.209   4.740
 7873TIP3    H223505   2.647   2.068   4.793
 7874TIP3   OH223506   2.129   1.918   6.201
 7874TIP3    H123507   2.152   1.903   6.295
 7874TIP3    H223508   2.063   1.848   6.186
 7875TIP3   OH223509   2.855   2.032   6.220
 7875TIP3    H123510   2.796   1.972   6.171
 7875TIP3    H223511   2.943   1.996   6.195
 7876TIP3   OH223512   3.119   2.565   5.798
 7876TIP3    H123513   3.025   2.548   5.816
 7876TIP3    H223514   3.149   2.608   5.879
 7877TIP3   OH223515   3.524   1.622   4.711
 7877TIP3    H123516   3.462   1.578   4.648
 7877TIP3    H223517   3.522   1.712   4.670
 7878TIP3   OH223518   3.745   2.485   5.791
 7878TIP3    H123519   3.648   2.471   5.782
 7878TIP3    H223520   3.774   2.450   5.703
 7879TIP3   OH223521   3.235   2.436   4.628
 7879TIP3    H123522   3.200   2.359   4.673
 7879TIP3    H223523   3.248   2.402   4.537
 7880TIP3   OH223524   3.223   2.072   5.458
 7880TIP3    H123525   3.130   2.044   5.472
 7880TIP3    H223526   3.258   1.991   5.415
 7881TIP3   OH223527   2.350   2.300   5.212
 7881TIP3    H123528   2.347   2.381   5.158
 7881TIP3    H223529   2.256   2.280   5.221
 7882TIP3   OH223530   1.915   1.602   4.916
 7882TIP3    H123531   1.960   1.687   4.936
 7882TIP3    H223532   1.837   1.608   4.976
 7883TIP3   OH223533   2.490   2.066   5.157
 7883TIP3    H123534   2.452   2.154   5.175
 7883TIP3    H223535   2.453   2.014   5.231
 7884TIP3   OH223536   2.619   2.643   5.681
 7884TIP3    H123537   2.659   2.716   5.631
 7884TIP3    H223538   2.695   2.607   5.729
 7885TIP3   OH223539   2.270   2.537   5.065
 7885TIP3    H123540   2.184   2.546   5.110
 7885TIP3    H223541   2.301   2.630   5.067
 7886TIP3   OH223542   3.011   2.278   5.638
 7886TIP3    H123543   3.000   2.277   5.736
 7886TIP3    H223544   3.082   2.213   5.626
 7887TIP3   OH223545   2.981   2.174   4.525
 7887TIP3    H123546   3.033   2.146   4.603
 7887TIP3    H223547   2.894   2.141   4.548
 7888TIP3   OH223548   3.257   2.813   5.697
 7888TIP3    H123549   3.179   2.754   5.688
 7888TIP3    H223550   3.243   2.876   5.623
 7889TIP3   OH223551   3.319   2.644   4.340
 7889TIP3    H123552   3.353   2.709   4.277
 7889TIP3    H223553   3.240   2.693   4.372
 7890TIP3   OH223554   2.342   1.423   6.208
 7890TIP3    H123555   2.246   1.424   6.222
 7890TIP3    H223556   2.373   1.363   6.279
 7891TIP3   OH223557   3.143   2.114   4.747
 7891TIP3    H123558   3.131   2.041   4.811
 7891TIP3    H223559   3.239   2.104   4.728
 7892TIP3   OH223560   2.058   2.505   5.840
 7892TIP3    H123561   2.110   2.430   5.873
 7892TIP3    H223562   2.084   2.574   5.902
 7893TIP3   OH223563   2.349   2.151   4.522
 7893TIP3    H123564   2.361   2.059   4.492
 7893TIP3    H223565   2.328   2.137   4.617
 7894TIP3   OH223566   2.293   2.155   4.795
 7894TIP3    H123567   2.366   2.128   4.853
 7894TIP3    H223568   2.298   2.253   4.802
 7895TIP3   OH223569   2.029   1.849   4.998
 7895TIP3    H123570   1.962   1.893   5.054
 7895TIP3    H223571   2.043   1.917   4.930
 7896TIP3   OH223572   3.059   1.235   5.055
 7896TIP3    H123573   3.045   1.258   4.961
 7896TIP3    H223574   3.099   1.318   5.090
 7897TIP3   OH223575   2.562   2.355   4.746
 7897TIP3    H123576   2.473   2.380   4.779
 7897TIP3    H223577   2.572   2.418   4.674
 7898TIP3   OH223578   2.746   1.417   5.156
 7898TIP3    H123579   2.812   1.488   5.140
 7898TIP3    H223580   2.752   1.406   5.254
 7899TIP3   OH223581   3.032   1.733   5.970
 7899TIP3    H123582   3.039   1.793   6.046
 7899TIP3    H223583   3.083   1.657   6.002
 7900TIP3   OH223584   2.896   1.143   5.257
 7900TIP3    H123585   2.912   1.206   5.331
 7900TIP3    H223586   2.952   1.184   5.187
 7901TIP3   OH223587   2.305   2.428   4.810
 7901TIP3    H123588   2.273   2.497   4.747
 7901TIP3    H223589   2.286   2.471   4.896
 7902TIP3   OH223590   2.404   1.141   5.051
 7902TIP3    H123591   2.402   1.233   5.084
 7902TIP3    H223592   2.500   1.124   5.057
 7903TIP3   OH223593   3.307   1.832   5.334
 7903TIP3    H123594   3.232   1.771   5.346
 7903TIP3    H223595   3.379   1.785   5.381
 7904TIP3   OH223596   2.020   2.057   4.804
 7904TIP3    H123597   2.087   2.128   4.811
 7904TIP3    H223598   2.065   2.002   4.736
 7905TIP3   OH223599   1.964   1.333   4.938
 7905TIP3    H123600   1.965   1.430   4.934
 7905TIP3    H223601   1.883   1.312   4.890
 7906TIP3   OH223602   3.287   2.763   5.243
 7906TIP3    H123603   3.235   2.832   5.195
 7906TIP3    H223604   3.373   2.811   5.250
 7907TIP3   OH223605   2.349   1.053   5.811
 7907TIP3    H123606   2.321   1.018   5.724
 7907TIP3    H223607   2.342   0.975   5.868
 7908TIP3   OH223608   1.893   2.273   5.190
 7908TIP3    H123609   1.821   2.303   5.247
 7908TIP3    H223610   1.866   2.313   5.105
 7909TIP3   OH223611   2.049   2.814   6.261
 7909TIP3    H123612   2.134   2.814   6.309
 7909TIP3    H223613   2.027   2.719   6.261
 7910TIP3   OH223614   2.531   2.780   6.304
 7910TIP3    H123615   2.624   2.754   6.314
 7910TIP3    H223616   2.503   2.720   6.232
 7911TIP3   OH223617   2.514   2.354   4.438
 7911TIP3    H123618   2.457   2.281   4.472
 7911TIP3    H223619   2.587   2.303   4.398
 7912TIP3   OH223620   3.221   2.677   6.061
 7912TIP3    H123621   3.152   2.609   6.080
 7912TIP3    H223622   3.267   2.666   6.146
 7913TIP3   OH223623   2.948   2.397   4.348
 7913TIP3    H123624   2.991   2.328   4.402
 7913TIP3    H223625   3.000   2.394   4.265
 7914TIP3   OH223626   2.179   2.220   6.462
 7914TIP3    H123627   2.195   2.124   6.469
 7914TIP3    H223628   2.091   2.222   6.418
 7915TIP3   OH223629   2.156   1.871   4.656
 7915TIP3    H123630   2.212   1.838   4.728
 7915TIP3    H223631   2.222   1.875   4.583
 7916TIP3   OH223632   2.788   2.306   6.234
 7916TIP3    H123633   2.743   2.319   6.149
 7916TIP3    H223634   2.817   2.212   6.229
 7917TIP3   OH223635   2.668   2.069   4.464
 7917TIP3    H123636   2.669   2.080   4.561
 7917TIP3    H223637   2.668   1.971   4.457
 7918TIP3   OH223638   3.281   2.312   5.846
 7918TIP3    H123639   3.350   2.360   5.798
 7918TIP3    H223640   3.202   2.366   5.829
 7919TIP3   OH223641   2.299   1.953   6.444
 7919TIP3    H123642   2.375   1.898   6.422
 7919TIP3    H223643   2.324   1.987   6.532
 7920TIP3   OH223644   2.366   1.774   4.878
 7920TIP3    H123645   2.338   1.731   4.961
 7920TIP3    H223646   2.401   1.699   4.827
 7921TIP3   OH223647   2.630   1.840   6.106
 7921TIP3    H123648   2.553   1.901   6.106
 7921TIP3    H223649   2.682   1.873   6.030
 7922TIP3   OH223650   2.465   1.568   4.719
 7922TIP3    H123651   2.439   1.572   4.624
 7922TIP3    H223652   2.563   1.571   4.711
 7923TIP3   OH223653   3.155   2.244   6.239
 7923TIP3    H123654   3.231   2.210   6.191
 7923TIP3    H223655   3.144   2.177   6.308
 7924TIP3   OH223656   3.287   1.886   4.365
 7924TIP3    H123657   3.310   1.850   4.277
 7924TIP3    H223658   3.250   1.974   4.340
 7925TIP3   OH223659   2.751   1.632   6.238
 7925TIP3    H123660   2.754   1.554   6.178
 7925TIP3    H223661   2.709   1.698   6.178
 7926TIP3   OH223662   2.751   1.442   6.043
 7926TIP3    H123663   2.814   1.401   5.982
 7926TIP3    H223664   2.668   1.395   6.023
 7927TIP3   OH223665   2.789   1.954   5.920
 7927TIP3    H123666   2.866   1.944   5.862
 7927TIP3    H223667   2.732   2.015   5.869
 7928TIP3   OH223668   3.370   1.913   6.297
 7928TIP3    H123669   3.404   1.822   6.297
 7928TIP3    H223670   3.446   1.961   6.260
 7929TIP3   OH223671   3.411   2.173   6.036
 7929TIP3    H123672   3.353   2.224   5.974
 7929TIP3    H223673   3.498   2.186   5.993
 7930TIP3   OH223674   2.631   1.740   6.464
 7930TIP3    H123675   2.564   1.671   6.478
 7930TIP3    H223676   2.668   1.713   6.377
 7931TIP3   OH223677   3.012   1.685   6.322
 7931TIP3    H123678   3.004   1.670   6.418
 7931TIP3    H223679   2.922   1.658   6.293
 7932TIP3   OH223680   3.261   1.639   6.171
 7932TIP3    H123681   3.188   1.627   6.234
 7932TIP3    H223682   3.337   1.607   6.222
 7933TIP3   OH223683   3.483   1.586   6.328
 7933TIP3    H123684   3.498   1.489   6.336
 7933TIP3    H223685   3.485   1.615   6.421
 7934TIP3   OH223686   2.472   1.519   6.516
 7934TIP3    H123687   2.482   1.429   6.480
 7934TIP3    H223688   2.510   1.506   6.606
 7935TIP3   OH223689   2.983   1.189   6.351
 7935TIP3    H123690   3.051   1.119   6.351
 7935TIP3    H223691   2.967   1.198   6.256
 7936TIP3   OH223692   3.048   1.397   6.524
 7936TIP3    H123693   3.028   1.329   6.455
 7936TIP3    H223694   2.972   1.458   6.515
 7937TIP3   OH223695   2.273   2.631   4.625
 7937TIP3    H123696   2.368   2.627   4.602
 7937TIP3    H223697   2.240   2.679   4.546
 7938TIP3   OH223698   1.752   2.011   4.841
 7938TIP3    H123699   1.847   2.033   4.825
 7938TIP3    H223700   1.746   1.923   4.799
 7939TIP3   OH223701   1.666   2.624   5.253
 7939TIP3    H123702   1.600   2.562   5.216
 7939TIP3    H223703   1.711   2.566   5.319
 7940TIP3   OH223704   1.802   2.475   5.440
 7940TIP3    H123705   1.791   2.402   5.502
 7940TIP3    H223706   1.853   2.538   5.495
 7941TIP3   OH223707   3.526   2.879   5.228
 7941TIP3    H123708   3.560   2.912   5.313
 7941TIP3    H223709   3.601   2.900   5.169
 7942TIP3   OH223710   3.553   2.896   5.521
 7942TIP3    H123711   3.518   2.804   5.518
 7942TIP3    H223712   3.645   2.880   5.546
 7943TIP3   OH223713   3.551   2.631   6.067
 7943TIP3    H123714   3.513   2.590   6.147
 7943TIP3    H223715   3.634   2.670   6.100
 7944TIP3   OH223716   3.418   2.089   4.718
 7944TIP3    H123717   3.489   2.147   4.683
 7944TIP3    H223718   3.465   2.047   4.794
 7945TIP3   OH223719   3.548   1.957   4.920
 7945TIP3    H123720   3.484   1.911   4.978
 7945TIP3    H223721   3.616   1.988   4.984
 7946TIP3   OH223722   3.595   2.336   5.346
 7946TIP3    H123723   3.657   2.269   5.309
 7946TIP3    H223724   3.617   2.414   5.295
 7947TIP3   OH223725   3.430   2.645   5.546
 7947TIP3    H123726   3.361   2.689   5.600
 7947TIP3    H223727   3.378   2.597   5.479
 7948TIP3   OH223728   3.480   1.863   4.566
 7948TIP3    H123729   3.411   1.860   4.496
 7948TIP3    H223730   3.449   1.940   4.618
 7949TIP3   OH223731   3.357   1.536   4.515
 7949TIP3    H123732   3.314   1.567   4.434
 7949TIP3    H223733   3.331   1.441   4.512
 7950TIP3   OH223734   3.363   1.809   5.064
 7950TIP3    H123735   3.372   1.713   5.056
 7950TIP3    H223736   3.350   1.821   5.161
 7951TIP3   OH223737   1.989   1.884   5.811
 7951TIP3    H123738   1.988   1.852   5.719
 7951TIP3    H223739   2.086   1.885   5.829
 7952TIP3   OH223740   3.655   2.237   5.922
 7952TIP3    H123741   3.722   2.164   5.919
 7952TIP3    H223742   3.684   2.293   5.849
 7953TIP3   OH223743   3.835   2.041   5.943
 7953TIP3    H123744   3.761   1.983   5.973
 7953TIP3    H223745   3.910   1.979   5.957
 7954TIP3   OH223746   3.302   1.270   4.512
 7954TIP3    H123747   3.377   1.235   4.564
 7954TIP3    H223748   3.230   1.208   4.530
 7955TIP3   OH223749   3.361   1.527   4.959
 7955TIP3    H123750   3.400   1.438   4.975
 7955TIP3    H223751   3.418   1.558   4.886
 7956TIP3   OH223752   3.520   1.703   5.450
 7956TIP3    H123753   3.607   1.729   5.413
 7956TIP3    H223754   3.533   1.732   5.542
 7957TIP3   OH223755   3.590   1.842   5.685
 7957TIP3    H123756   3.513   1.873   5.736
 7957TIP3    H223757   3.622   1.925   5.644
 7958TIP3   OH223758   2.206   1.569   6.483
 7958TIP3    H123759   2.304   1.564   6.487
 7958TIP3    H223760   2.183   1.484   6.526
 7959TIP3   OH223761   4.075   1.445   6.246
 7959TIP3    H123762   4.108   1.369   6.193
 7959TIP3    H223763   4.005   1.478   6.186
 7960TIP3   OH223764   3.467   1.277   4.998
 7960TIP3    H123765   3.518   1.261   5.080
 7960TIP3    H223766   3.408   1.199   4.996
 7961TIP3   OH223767   2.167   1.263   5.819
 7961TIP3    H123768   2.229   1.188   5.828
 7961TIP3    H223769   2.230   1.337   5.811
 7962TIP3   OH223770   1.970   1.536   5.889
 7962TIP3    H123771   2.020   1.530   5.805
 7962TIP3    H223772   2.001   1.620   5.924
 7963TIP3   OH223773   3.911   1.592   6.048
 7963TIP3    H123774   3.836   1.589   6.110
 7963TIP3    H223775   3.898   1.504   6.009
 7964TIP3   OH223776   3.551   1.209   4.632
 7964TIP3    H123777   3.592   1.138   4.578
 7964TIP3    H223778   3.617   1.281   4.624
 7965TIP3   OH223779   1.954   1.038   5.391
 7965TIP3    H123780   1.861   1.037   5.416
 7965TIP3    H223781   1.953   1.097   5.312
 7966TIP3   OH223782   3.171   2.720   4.920
 7966TIP3    H123783   3.180   2.716   4.822
 7966TIP3    H223784   3.157   2.815   4.932
 7967TIP3   OH223785   2.173   1.120   6.205
 7967TIP3    H123786   2.123   1.116   6.288
 7967TIP3    H223787   2.107   1.158   6.144
 7968TIP3   OH223788   2.215   2.547   6.283
 7968TIP3    H123789   2.123   2.520   6.265
 7968TIP3    H223790   2.224   2.527   6.377
 7969TIP3   OH223791   2.392   2.579   5.830
 7969TIP3    H123792   2.343   2.654   5.791
 7969TIP3    H223793   2.478   2.593   5.785
 7970TIP3   OH223794   2.838   2.822   5.967
 7970TIP3    H123795   2.878   2.825   6.056
 7970TIP3    H223796   2.901   2.876   5.916
 7971TIP3   OH223797   3.017   2.974   5.827
 7971TIP3    H123798   3.087   2.928   5.779
 7971TIP3    H223799   3.068   3.031   5.888
 7972TIP3   OH223800   2.070   2.837   5.852
 7972TIP3    H123801   1.980   2.870   5.829
 7972TIP3    H223802   2.078   2.873   5.941
 7973TIP3   OH223803   2.306   2.815   5.711
 7973TIP3    H123804   2.220   2.828   5.756
 7973TIP3    H223805   2.285   2.848   5.621
 7974TIP3   OH223806   2.733   2.843   5.507
 7974TIP3    H123807   2.661   2.861   5.444
 7974TIP3    H223808   2.743   2.931   5.550
 7975TIP3   OH223809   3.001   2.783   5.556
 7975TIP3    H123810   2.906   2.799   5.540
 7975TIP3    H223811   3.041   2.864   5.521
 7976TIP3   OH223812   3.206   2.973   5.475
 7976TIP3    H123813   3.192   3.063   5.435
 7976TIP3    H223814   3.231   2.923   5.396
 7977TIP3   OH223815   1.980   2.630   5.598
 7977TIP3    H123816   2.007   2.604   5.689
 7977TIP3    H223817   2.052   2.586   5.547
 7978TIP3   OH223818   2.174   2.501   5.455
 7978TIP3    H123819   2.190   2.417   5.504
 7978TIP3    H223820   2.265   2.537   5.450
 7979TIP3   OH223821   2.442   2.596   5.457
 7979TIP3    H123822   2.471   2.503   5.446
 7979TIP3    H223823   2.484   2.616   5.542
 7980TIP3   OH223824   2.997   1.234   5.522
 7980TIP3    H123825   2.997   1.215   5.618
 7980TIP3    H223826   3.089   1.209   5.498
 7981TIP3   OH223827   3.537   1.118   5.440
 7981TIP3    H123828   3.581   1.176   5.374
 7981TIP3    H223829   3.459   1.169   5.463
 7982TIP3   OH223830   3.635   1.236   5.212
 7982TIP3    H123831   3.709   1.183   5.174
 7982TIP3    H223832   3.670   1.327   5.198
 7983TIP3   OH223833   2.266   0.958   5.559
 7983TIP3    H123834   2.173   0.927   5.561
 7983TIP3    H223835   2.314   0.873   5.556
 7984TIP3   OH223836   2.054   0.831   5.211
 7984TIP3    H123837   2.082   0.887   5.136
 7984TIP3    H223838   2.024   0.897   5.276
 7985TIP3   OH223839   2.733   0.986   5.436
 7985TIP3    H123840   2.750   1.065   5.381
 7985TIP3    H223841   2.740   1.024   5.527
 7986TIP3   OH223842   3.239   1.134   5.431
 7986TIP3    H123843   3.269   1.112   5.342
 7986TIP3    H223844   3.243   1.048   5.476
 7987TIP3   OH223845   3.285   1.063   4.987
 7987TIP3    H123846   3.199   1.107   4.998
 7987TIP3    H223847   3.269   0.979   5.034
 7988TIP3   OH223848   1.768   2.403   4.990
 7988TIP3    H123849   1.683   2.370   4.955
 7988TIP3    H223850   1.758   2.497   4.967
 7989TIP3   OH223851   2.168   0.988   4.974
 7989TIP3    H123852   2.217   0.927   4.916
 7989TIP3    H223853   2.241   1.043   5.009
 7990TIP3   OH223854   2.681   1.166   5.073
 7990TIP3    H123855   2.747   1.124   5.131
 7990TIP3    H223856   2.699   1.260   5.096
 7991TIP3   OH223857   2.541   2.591   4.570
 7991TIP3    H123858   2.629   2.614   4.533
 7991TIP3    H223859   2.518   2.516   4.511
 7992TIP3   OH223860   3.258   2.706   4.662
 7992TIP3    H123861   3.253   2.608   4.646
 7992TIP3    H223862   3.217   2.740   4.580
 7993TIP3   OH223863   2.472   1.240   6.451
 7993TIP3    H123864   2.439   1.171   6.511
 7993TIP3    H223865   2.567   1.242   6.478
 7994TIP3   OH223866   2.721   1.240   6.571
 7994TIP3    H123867   2.804   1.217   6.527
 7994TIP3    H223868   2.712   1.168   6.636
 7995TIP3   OH223869   1.845   2.426   4.627
 7995TIP3    H123870   1.846   2.454   4.720
 7995TIP3    H223871   1.934   2.385   4.616
 7996TIP3   OH223872   3.537   1.320   6.360
 7996TIP3    H123873   3.574   1.277   6.439
 7996TIP3    H223874   3.612   1.317   6.296
 7997TIP3   OH223875   4.751   2.226   4.617
 7997TIP3    H123876   4.722   2.317   4.595
 7997TIP3    H223877   4.675   2.175   4.583
 7998TIP3   OH223878   4.751   2.226   4.999
 7998TIP3    H123879   4.783   2.196   5.086
 7998TIP3    H223880   4.710   2.145   4.964
 7999TIP3   OH223881   4.047   2.122   5.369
 7999TIP3    H123882   4.079   2.052   5.429
 7999TIP3    H223883   4.129   2.170   5.352
 8000TIP3   OH223884   4.996   2.526   4.680
 8000TIP3    H123885   4.979   2.458   4.746
 8000TIP3    H223886   5.023   2.601   4.735
 8001TIP3   OH223887   4.028   2.530   5.087
 8001TIP3    H123888   4.018   2.433   5.091
 8001TIP3    H223889   4.124   2.538   5.077
 8002TIP3   OH223890   3.727   1.734   4.874
 8002TIP3    H123891   3.677   1.817   4.884
 8002TIP3    H223892   3.658   1.677   4.835
 8003TIP3   OH223893   3.787   2.020   5.047
 8003TIP3    H123894   3.836   1.942   5.083
 8003TIP3    H223895   3.845   2.046   4.974
 8004TIP3   OH223896   4.644   2.989   4.698
 8004TIP3    H123897   4.688   2.918   4.647
 8004TIP3    H223898   4.639   2.950   4.785
 8005TIP3   OH223899   4.549   2.451   5.048
 8005TIP3    H123900   4.587   2.375   5.001
 8005TIP3    H223901   4.633   2.496   5.072
 8006TIP3   OH223902   5.563   1.771   5.045
 8006TIP3    H123903   5.592   1.854   5.088
 8006TIP3    H223904   5.584   1.790   4.952
 8007TIP3   OH223905   4.962   1.953   5.079
 8007TIP3    H123906   5.004   1.867   5.100
 8007TIP3    H223907   4.931   1.937   4.988
 8008TIP3   OH223908   4.300   1.612   5.045
 8008TIP3    H123909   4.280   1.684   4.982
 8008TIP3    H223910   4.252   1.538   5.001
 8009TIP3   OH223911   4.994   1.703   4.667
 8009TIP3    H123912   5.066   1.687   4.732
 8009TIP3    H223913   5.046   1.738   4.593
 8010TIP3   OH223914   3.934   1.814   5.151
 8010TIP3    H123915   4.017   1.793   5.198
 8010TIP3    H223916   3.946   1.758   5.072
 8011TIP3   OH223917   4.373   2.011   4.948
 8011TIP3    H123918   4.467   1.987   4.959
 8011TIP3    H223919   4.335   1.928   4.914
 8012TIP3   OH223920   5.636   1.979   5.214
 8012TIP3    H123921   5.552   2.026   5.196
 8012TIP3    H223922   5.650   2.004   5.307
 8013TIP3   OH223923   4.297   1.596   5.479
 8013TIP3    H123924   4.236   1.632   5.412
 8013TIP3    H223925   4.245   1.611   5.561
 8014TIP3   OH223926   4.644   2.446   4.486
 8014TIP3    H123927   4.606   2.427   4.398
 8014TIP3    H223928   4.596   2.528   4.510
 8015TIP3   OH223929   4.403   2.370   5.274
 8015TIP3    H123930   4.341   2.437   5.311
 8015TIP3    H223931   4.446   2.420   5.202
 8016TIP3   OH223932   5.204   1.705   4.839
 8016TIP3    H123933   5.193   1.657   4.922
 8016TIP3    H223934   5.257   1.782   4.867
 8017TIP3   OH223935   4.167   1.711   5.263
 8017TIP3    H123936   4.231   1.782   5.287
 8017TIP3    H223937   4.216   1.669   5.188
 8018TIP3   OH223938   4.230   2.565   5.373
 8018TIP3    H123939   4.205   2.650   5.332
 8018TIP3    H223940   4.150   2.550   5.429
 8019TIP3   OH223941   3.621   2.249   4.605
 8019TIP3    H123942   3.583   2.269   4.516
 8019TIP3    H223943   3.644   2.337   4.639
 8020TIP3   OH223944   5.065   2.770   4.848
 8020TIP3    H123945   4.976   2.761   4.888
 8020TIP3    H223946   5.057   2.856   4.803
 8021TIP3   OH223947   5.356   1.671   5.211
 8021TIP3    H123948   5.268   1.700   5.180
 8021TIP3    H223949   5.415   1.703   5.140
 8022TIP3   OH223950   4.653   1.314   5.193
 8022TIP3    H123951   4.639   1.219   5.211
 8022TIP3    H223952   4.575   1.352   5.240
 8023TIP3   OH223953   4.766   2.816   4.521
 8023TIP3    H123954   4.815   2.734   4.502
 8023TIP3    H223955   4.827   2.881   4.481
 8024TIP3   OH223956   4.908   2.602   4.429
 8024TIP3    H123957   4.869   2.523   4.389
 8024TIP3    H223958   4.945   2.565   4.512
 8025TIP3   OH223959   5.291   2.683   5.192
 8025TIP3    H123960   5.279   2.605   5.132
 8025TIP3    H223961   5.273   2.757   5.131
 8026TIP3   OH223962   4.582   2.078   4.449
 8026TIP3    H123963   4.501   2.130   4.429
 8026TIP3    H223964   4.627   2.076   4.363
 8027TIP3   OH223965   4.547   1.855   4.183
 8027TIP3    H123966   4.618   1.907   4.224
 8027TIP3    H223967   4.600   1.798   4.123
 8028TIP3   OH223968   5.486   2.321   5.036
 8028TIP3    H123969   5.403   2.372   5.042
 8028TIP3    H223970   5.515   2.345   4.946
 8029TIP3   OH223971   4.930   2.160   4.421
 8029TIP3    H123972   4.875   2.184   4.499
 8029TIP3    H223973   5.014   2.134   4.465
 8030TIP3   OH223974   5.165   2.198   5.333
 8030TIP3    H123975   5.162   2.282   5.383
 8030TIP3    H223976   5.079   2.203   5.287
 8031TIP3   OH223977   4.161   2.158   4.839
 8031TIP3    H123978   4.119   2.099   4.772
 8031TIP3    H223979   4.238   2.104   4.867
 8032TIP3   OH223980   4.292   2.565   4.987
 8032TIP3    H123981   4.273   2.529   4.899
 8032TIP3    H223982   4.382   2.532   5.004
 8033TIP3   OH223983   4.293   2.129   5.193
 8033TIP3    H123984   4.328   2.105   5.105
 8033TIP3    H223985   4.340   2.214   5.211
 8034TIP3   OH223986   4.824   2.766   4.968
 8034TIP3    H123987   4.811   2.846   5.022
 8034TIP3    H223988   4.809   2.693   5.032
 8035TIP3   OH223989   4.437   2.685   5.515
 8035TIP3    H123990   4.377   2.747   5.561
 8035TIP3    H223991   4.372   2.631   5.466
 8036TIP3   OH223992   4.773   2.016   4.247
 8036TIP3    H123993   4.830   2.077   4.298
 8036TIP3    H223994   4.799   2.038   4.154
 8037TIP3   OH223995   4.192   2.242   5.618
 8037TIP3    H123996   4.195   2.329   5.663
 8037TIP3    H223997   4.097   2.221   5.626
 8038TIP3   OH223998   4.511   2.699   4.528
 8038TIP3    H123999   4.593   2.751   4.539
 8038TIP3    H224000   4.454   2.759   4.479
 8039TIP3   OH224001   4.232   2.853   5.600
 8039TIP3    H124002   4.197   2.853   5.509
 8039TIP3    H224003   4.151   2.834   5.653
 8040TIP3   OH224004   5.286   1.258   4.295
 8040TIP3    H124005   5.205   1.278   4.346
 8040TIP3    H224006   5.299   1.342   4.246
 8041TIP3   OH224007   4.025   2.000   4.649
 8041TIP3    H124008   3.963   2.044   4.587
 8041TIP3    H224009   3.988   1.910   4.651
 8042TIP3   OH224010   5.087   2.624   3.840
 8042TIP3    H124011   5.093   2.721   3.828
 8042TIP3    H224012   5.181   2.598   3.831
 8043TIP3   OH224013   3.810   2.380   5.552
 8043TIP3    H124014   3.752   2.348   5.481
 8043TIP3    H224015   3.852   2.297   5.584
 8044TIP3   OH224016   5.530   3.027   5.238
 8044TIP3    H124017   5.528   2.930   5.254
 8044TIP3    H224018   5.447   3.053   5.283
 8045TIP3   OH224019   4.634   2.814   5.372
 8045TIP3    H124020   4.633   2.907   5.404
 8045TIP3    H224021   4.563   2.774   5.427
 8046TIP3   OH224022   4.394   2.941   4.324
 8046TIP3    H124023   4.349   2.921   4.240
 8046TIP3    H224024   4.362   3.031   4.345
 8047TIP3   OH224025   3.828   2.791   4.711
 8047TIP3    H124026   3.881   2.785   4.793
 8047TIP3    H224027   3.778   2.707   4.716
 8048TIP3   OH224028   4.596   2.847   3.965
 8048TIP3    H124029   4.660   2.782   3.927
 8048TIP3    H224030   4.629   2.855   4.057
 8049TIP3   OH224031   4.646   2.893   4.235
 8049TIP3    H124032   4.557   2.902   4.277
 8049TIP3    H224033   4.696   2.850   4.306
 8050TIP3   OH224034   5.419   2.159   5.512
 8050TIP3    H124035   5.337   2.171   5.462
 8050TIP3    H224036   5.434   2.063   5.502
 8051TIP3   OH224037   4.013   2.567   5.542
 8051TIP3    H124038   4.067   2.547   5.622
 8051TIP3    H224039   3.942   2.500   5.547
 8052TIP3   OH224040   4.414   1.390   5.321
 8052TIP3    H124041   4.325   1.359   5.295
 8052TIP3    H224042   4.389   1.472   5.369
 8053TIP3   OH224043   4.948   1.505   5.516
 8053TIP3    H124044   5.016   1.477   5.580
 8053TIP3    H224045   4.864   1.485   5.563
 8054TIP3   OH224046   5.187   1.934   5.435
 8054TIP3    H124047   5.137   1.931   5.520
 8054TIP3    H224048   5.162   2.022   5.399
 8055TIP3   OH224049   4.845   2.061   3.990
 8055TIP3    H124050   4.809   2.033   3.904
 8055TIP3    H224051   4.922   2.114   3.963
 8056TIP3   OH224052   4.560   1.438   4.293
 8056TIP3    H124053   4.527   1.436   4.385
 8056TIP3    H224054   4.521   1.355   4.260
 8057TIP3   OH224055   4.346   1.906   5.341
 8057TIP3    H124056   4.296   1.927   5.422
 8057TIP3    H224057   4.329   1.987   5.287
 8058TIP3   OH224058   4.229   1.792   4.854
 8058TIP3    H124059   4.136   1.766   4.871
 8058TIP3    H224060   4.243   1.751   4.766
 8059TIP3   OH224061   4.720   1.878   4.582
 8059TIP3    H124062   4.667   1.949   4.540
 8059TIP3    H224063   4.774   1.847   4.507
 8060TIP3   OH224064   4.895   2.156   5.669
 8060TIP3    H124065   4.873   2.083   5.730
 8060TIP3    H224066   4.989   2.170   5.690
 8061TIP3   OH224067   4.877   1.906   4.821
 8061TIP3    H124068   4.817   1.936   4.750
 8061TIP3    H224069   4.910   1.825   4.778
 8062TIP3   OH224070   4.162   1.934   5.549
 8062TIP3    H124071   4.197   1.994   5.617
 8062TIP3    H224072   4.151   1.851   5.599
 8063TIP3   OH224073   4.215   1.407   4.261
 8063TIP3    H124074   4.204   1.408   4.358
 8063TIP3    H224075   4.139   1.463   4.234
 8064TIP3   OH224076   3.758   1.460   5.127
 8064TIP3    H124077   3.834   1.489   5.182
 8064TIP3    H224078   3.799   1.424   5.048
 8065TIP3   OH224079   3.730   1.438   4.651
 8065TIP3    H124080   3.773   1.476   4.571
 8065TIP3    H224081   3.668   1.511   4.670
 8066TIP3   OH224082   4.887   2.152   5.244
 8066TIP3    H124083   4.921   2.080   5.185
 8066TIP3    H224084   4.858   2.099   5.321
 8067TIP3   OH224085   4.557   1.614   4.916
 8067TIP3    H124086   4.475   1.612   4.969
 8067TIP3    H224087   4.625   1.612   4.985
 8068TIP3   OH224088   3.990   1.670   4.924
 8068TIP3    H124089   3.896   1.676   4.896
 8068TIP3    H224090   4.014   1.578   4.901
 8069TIP3   OH224091   4.261   1.666   4.613
 8069TIP3    H124092   4.354   1.682   4.590
 8069TIP3    H224093   4.213   1.689   4.530
 8070TIP3   OH224094   5.048   1.690   5.117
 8070TIP3    H124095   5.015   1.702   5.209
 8070TIP3    H224096   4.982   1.628   5.082
 8071TIP3   OH224097   4.103   1.702   4.394
 8071TIP3    H124098   4.034   1.655   4.344
 8071TIP3    H224099   4.155   1.738   4.319
 8072TIP3   OH224100   5.219   3.378   5.337
 8072TIP3    H124101   5.217   3.404   5.243
 8072TIP3    H224102   5.297   3.428   5.369
 8073TIP3   OH224103   4.174   2.490   5.760
 8073TIP3    H124104   4.257   2.519   5.803
 8073TIP3    H224105   4.114   2.487   5.836
 8074TIP3   OH224106   4.639   1.942   5.013
 8074TIP3    H124107   4.712   1.903   4.963
 8074TIP3    H224108   4.649   1.899   5.100
 8075TIP3   OH224109   4.162   1.430   4.892
 8075TIP3    H124110   4.128   1.351   4.939
 8075TIP3    H224111   4.212   1.390   4.819
 8076TIP3   OH224112   4.617   1.839   5.302
 8076TIP3    H124113   4.527   1.875   5.317
 8076TIP3    H224114   4.674   1.899   5.353
 8077TIP3   OH224115   4.351   2.229   4.396
 8077TIP3    H124116   4.279   2.162   4.386
 8077TIP3    H224117   4.334   2.263   4.487
 8078TIP3   OH224118   5.253   2.465   5.027
 8078TIP3    H124119   5.277   2.515   4.946
 8078TIP3    H224120   5.168   2.423   5.002
 8079TIP3   OH224121   4.812   1.542   4.259
 8079TIP3    H124122   4.715   1.525   4.267
 8079TIP3    H224123   4.821   1.636   4.283
 8080TIP3   OH224124   4.751   2.546   5.395
 8080TIP3    H124125   4.779   2.527   5.485
 8080TIP3    H224126   4.715   2.637   5.402
 8081TIP3   OH224127   4.881   1.788   4.364
 8081TIP3    H124128   4.977   1.796   4.380
 8081TIP3    H224129   4.861   1.869   4.312
 8082TIP3   OH224130   4.043   2.250   5.073
 8082TIP3    H124131   4.081   2.224   4.987
 8082TIP3    H224132   4.089   2.190   5.133
 8083TIP3   OH224133   4.521   2.389   4.240
 8083TIP3    H124134   4.465   2.469   4.232
 8083TIP3    H224135   4.457   2.326   4.279
 8084TIP3   OH224136   3.923   2.176   5.692
 8084TIP3    H124137   3.946   2.156   5.785
 8084TIP3    H224138   3.860   2.104   5.672
 8085TIP3   OH224139   4.652   2.286   5.707
 8085TIP3    H124140   4.593   2.227   5.657
 8085TIP3    H224141   4.740   2.252   5.680
 8086TIP3   OH224142   4.913   2.806   5.292
 8086TIP3    H124143   4.816   2.806   5.303
 8086TIP3    H224144   4.941   2.859   5.369
 8087TIP3   OH224145   5.324   1.879   4.199
 8087TIP3    H124146   5.262   1.834   4.137
 8087TIP3    H224147   5.320   1.969   4.159
 8088TIP3   OH224148   5.541   2.736   5.280
 8088TIP3    H124149   5.443   2.731   5.272
 8088TIP3    H224150   5.567   2.706   5.190
 8089TIP3   OH224151   5.032   2.697   4.109
 8089TIP3    H124152   4.995   2.630   4.168
 8089TIP3    H224153   5.031   2.653   4.022
 8090TIP3   OH224154   5.019   2.328   4.946
 8090TIP3    H124155   4.925   2.303   4.959
 8090TIP3    H224156   5.053   2.248   4.901
 8091TIP3   OH224157   4.151   2.557   4.703
 8091TIP3    H124158   4.155   2.636   4.646
 8091TIP3    H224159   4.057   2.539   4.704
 8092TIP3   OH224160   3.713   1.852   4.416
 8092TIP3    H124161   3.756   1.939   4.427
 8092TIP3    H224162   3.633   1.863   4.471
 8093TIP3   OH224163   4.285   2.320   4.644
 8093TIP3    H124164   4.253   2.410   4.662
 8093TIP3    H224165   4.248   2.270   4.719
 8094TIP3   OH224166   4.415   2.899   5.168
 8094TIP3    H124167   4.456   2.971   5.117
 8094TIP3    H224168   4.492   2.864   5.216
 8095TIP3   OH224169   4.065   2.796   4.552
 8095TIP3    H124170   3.980   2.809   4.597
 8095TIP3    H224171   4.101   2.887   4.553
 8096TIP3   OH224172   4.804   2.533   5.126
 8096TIP3    H124173   4.794   2.531   5.224
 8096TIP3    H224174   4.883   2.480   5.113
 8097TIP3   OH224175   4.776   2.426   4.008
 8097TIP3    H124176   4.830   2.403   4.087
 8097TIP3    H224177   4.688   2.406   4.041
 8098TIP3   OH224178   5.053   3.066   5.176
 8098TIP3    H124179   4.973   3.011   5.168
 8098TIP3    H224180   5.037   3.131   5.104
 8099TIP3   OH224181   5.119   2.901   3.829
 8099TIP3    H124182   5.154   2.974   3.776
 8099TIP3    H224183   5.037   2.943   3.863
 8100TIP3   OH224184   4.135   1.678   5.694
 8100TIP3    H124185   4.038   1.681   5.708
 8100TIP3    H224186   4.163   1.618   5.764
 8101TIP3   OH224187   4.939   2.361   4.226
 8101TIP3    H124188   4.928   2.295   4.297
 8101TIP3    H224189   5.036   2.358   4.214
 8102TIP3   OH224190   3.848   2.769   5.335
 8102TIP3    H124191   3.900   2.688   5.345
 8102TIP3    H224192   3.900   2.832   5.386
 8103TIP3   OH224193   4.145   2.409   4.012
 8103TIP3    H124194   4.154   2.321   3.971
 8103TIP3    H224195   4.124   2.385   4.104
 8104TIP3   OH224196   4.085   2.412   4.291
 8104TIP3    H124197   4.167   2.385   4.333
 8104TIP3    H224198   4.094   2.510   4.290
 8105TIP3   OH224199   3.828   2.106   4.484
 8105TIP3    H124200   3.760   2.150   4.538
 8105TIP3    H224201   3.843   2.172   4.415
 8106TIP3   OH224202   4.974   1.742   5.377
 8106TIP3    H124203   5.055   1.780   5.416
 8106TIP3    H224204   4.960   1.661   5.431
 8107TIP3   OH224205   4.855   1.493   4.541
 8107TIP3    H124206   4.841   1.516   4.447
 8107TIP3    H224207   4.894   1.575   4.577
 8108TIP3   OH224208   4.355   2.605   4.230
 8108TIP3    H124209   4.269   2.636   4.264
 8108TIP3    H224210   4.370   2.669   4.159
 8109TIP3   OH224211   4.545   1.672   4.643
 8109TIP3    H124212   4.608   1.744   4.626
 8109TIP3    H224213   4.549   1.665   4.741
 8110TIP3   OH224214   4.813   1.991   5.452
 8110TIP3    H124215   4.835   2.044   5.531
 8110TIP3    H224216   4.868   1.912   5.464
 8111TIP3   OH224217   4.688   1.399   4.746
 8111TIP3    H124218   4.681   1.477   4.805
 8111TIP3    H224219   4.749   1.435   4.677
 8112TIP3   OH224220   4.100   2.686   4.297
 8112TIP3    H124221   4.070   2.755   4.233
 8112TIP3    H224222   4.085   2.731   4.382
 8113TIP3   OH224223   4.199   1.398   4.536
 8113TIP3    H124224   4.197   1.489   4.572
 8113TIP3    H224225   4.295   1.381   4.544
 8114TIP3   OH224226   5.454   1.892   5.431
 8114TIP3    H124227   5.356   1.890   5.439
 8114TIP3    H224228   5.463   1.848   5.345
 8115TIP3   OH224229   5.104   2.086   4.820
 8115TIP3    H124230   5.028   2.026   4.832
 8115TIP3    H224231   5.176   2.039   4.868
 8116TIP3   OH224232   3.817   2.318   4.292
 8116TIP3    H124233   3.893   2.380   4.297
 8116TIP3    H224234   3.855   2.257   4.224
 8117TIP3   OH224235   3.762   1.584   4.424
 8117TIP3    H124236   3.765   1.682   4.424
 8117TIP3    H224237   3.680   1.568   4.375
 8118TIP3   OH224238   5.073   3.041   4.769
 8118TIP3    H124239   5.031   3.088   4.694
 8118TIP3    H224240   5.168   3.059   4.748
 8119TIP3   OH224241   4.149   1.311   5.297
 8119TIP3    H124242   4.118   1.276   5.210
 8119TIP3    H224243   4.139   1.233   5.355
 8120TIP3   OH224244   3.677   2.548   4.695
 8120TIP3    H124245   3.593   2.580   4.655
 8120TIP3    H224246   3.730   2.548   4.615
 8121TIP3   OH224247   3.848   3.069   5.754
 8121TIP3    H124248   3.934   3.076   5.801
 8121TIP3    H224249   3.842   2.972   5.743
 8122TIP3   OH224250   4.323   3.035   5.795
 8122TIP3    H124251   4.418   3.021   5.803
 8122TIP3    H224252   4.302   2.976   5.719
 8123TIP3   OH224253   4.313   2.605   3.922
 8123TIP3    H124254   4.250   2.539   3.959
 8123TIP3    H224255   4.385   2.546   3.894
 8124TIP3   OH224256   4.965   2.941   5.527
 8124TIP3    H124257   4.957   2.871   5.596
 8124TIP3    H224258   5.043   2.992   5.557
 8125TIP3   OH224259   4.763   2.670   3.843
 8125TIP3    H124260   4.771   2.584   3.888
 8125TIP3    H224261   4.806   2.653   3.757
 8126TIP3   OH224262   3.971   2.473   5.952
 8126TIP3    H124263   3.996   2.378   5.954
 8126TIP3    H224264   3.890   2.472   5.898
 8127TIP3   OH224265   3.947   2.129   4.146
 8127TIP3    H124266   4.005   2.091   4.214
 8127TIP3    H224267   4.011   2.133   4.071
 8128TIP3   OH224268   4.581   2.560   5.724
 8128TIP3    H124269   4.543   2.578   5.636
 8128TIP3    H224270   4.614   2.468   5.715
 8129TIP3   OH224271   5.075   2.570   5.329
 8129TIP3    H124272   5.150   2.614   5.285
 8129TIP3    H224273   5.005   2.636   5.315
 8130TIP3   OH224274   4.093   2.216   5.930
 8130TIP3    H124275   4.162   2.153   5.907
 8130TIP3    H224276   4.122   2.244   6.020
 8131TIP3   OH224277   4.161   2.028   4.367
 8131TIP3    H124278   4.134   1.981   4.447
 8131TIP3    H224279   4.197   1.956   4.312
 8132TIP3   OH224280   4.428   2.094   5.592
 8132TIP3    H124281   4.352   2.155   5.594
 8132TIP3    H224282   4.479   2.128   5.515
 8133TIP3   OH224283   4.262   1.825   4.208
 8133TIP3    H124284   4.235   1.829   4.113
 8133TIP3    H224285   4.360   1.830   4.200
 8134TIP3   OH224286   4.946   2.497   5.727
 8134TIP3    H124287   5.026   2.473   5.679
 8134TIP3    H224288   4.944   2.430   5.798
 8135TIP3   OH224289   5.085   2.155   3.865
 8135TIP3    H124290   5.059   2.109   3.783
 8135TIP3    H224291   5.052   2.246   3.844
 8136TIP3   OH224292   4.553   1.884   5.720
 8136TIP3    H124293   4.553   1.803   5.664
 8136TIP3    H224294   4.509   1.949   5.661
 8137TIP3   OH224295   4.555   1.671   5.527
 8137TIP3    H124296   4.583   1.710   5.442
 8137TIP3    H224297   4.462   1.647   5.508
 8138TIP3   OH224298   4.582   2.205   5.400
 8138TIP3    H124299   4.666   2.213   5.353
 8138TIP3    H224300   4.527   2.272   5.355
 8139TIP3   OH224301   5.163   2.173   5.780
 8139TIP3    H124302   5.212   2.090   5.794
 8139TIP3    H224303   5.233   2.231   5.746
 8140TIP3   OH224304   5.205   2.425   5.516
 8140TIP3    H124305   5.148   2.479   5.457
 8140TIP3    H224306   5.293   2.445   5.476
 8141TIP3   OH224307   4.429   1.996   5.950
 8141TIP3    H124308   4.363   1.925   5.964
 8141TIP3    H224309   4.465   1.971   5.862
 8142TIP3   OH224310   4.687   1.433   5.593
 8142TIP3    H124311   4.638   1.515   5.571
 8142TIP3    H224312   4.618   1.365   5.582
 8143TIP3   OH224313   4.814   1.938   5.810
 8143TIP3    H124314   4.803   1.925   5.906
 8143TIP3    H224315   4.724   1.913   5.780
 8144TIP3   OH224316   5.052   1.887   5.664
 8144TIP3    H124317   4.978   1.888   5.727
 8144TIP3    H224318   5.126   1.856   5.720
 8145TIP3   OH224319   5.281   1.827   5.814
 8145TIP3    H124320   5.294   1.731   5.833
 8145TIP3    H224321   5.277   1.866   5.903
 8146TIP3   OH224322   4.272   1.776   6.000
 8146TIP3    H124323   4.273   1.684   5.966
 8146TIP3    H224324   4.310   1.762   6.090
 8147TIP3   OH224325   4.781   1.443   5.851
 8147TIP3    H124326   4.849   1.372   5.845
 8147TIP3    H224327   4.742   1.437   5.762
 8148TIP3   OH224328   4.847   1.657   6.011
 8148TIP3    H124329   4.826   1.586   5.946
 8148TIP3    H224330   4.769   1.716   6.002
 8149TIP3   OH224331   4.068   2.890   4.111
 8149TIP3    H124332   4.164   2.882   4.091
 8149TIP3    H224333   4.038   2.936   4.031
 8150TIP3   OH224334   3.549   2.263   4.332
 8150TIP3    H124335   3.642   2.286   4.310
 8150TIP3    H224336   3.540   2.176   4.287
 8151TIP3   OH224337   3.459   2.878   4.748
 8151TIP3    H124338   3.394   2.823   4.699
 8151TIP3    H224339   3.522   2.811   4.776
 8152TIP3   OH224340   5.329   3.126   4.727
 8152TIP3    H124341   5.349   3.164   4.815
 8152TIP3    H224342   5.382   3.182   4.669
 8153TIP3   OH224343   5.355   3.152   5.008
 8153TIP3    H124344   5.312   3.063   5.005
 8153TIP3    H224345   5.426   3.134   5.071
 8154TIP3   OH224346   5.401   2.829   5.581
 8154TIP3    H124347   5.329   2.838   5.646
 8154TIP3    H224348   5.443   2.918   5.585
 8155TIP3   OH224349   5.219   2.341   4.201
 8155TIP3    H124350   5.285   2.406   4.173
 8155TIP3    H224351   5.262   2.303   4.281
 8156TIP3   OH224352   5.346   2.209   4.406
 8156TIP3    H124353   5.279   2.167   4.464
 8156TIP3    H224354   5.409   2.248   4.470
 8157TIP3   OH224355   5.400   2.602   4.839
 8157TIP3    H124356   5.453   2.536   4.789
 8157TIP3    H224357   5.393   2.675   4.775
 8158TIP3   OH224358   5.231   2.902   5.032
 8158TIP3    H124359   5.160   2.945   5.084
 8158TIP3    H224360   5.180   2.855   4.963
 8159TIP3   OH224361   5.284   2.117   4.051
 8159TIP3    H124362   5.212   2.120   3.983
 8159TIP3    H224363   5.256   2.193   4.107
 8160TIP3   OH224364   5.158   1.789   4.004
 8160TIP3    H124365   5.107   1.830   3.933
 8160TIP3    H224366   5.132   1.695   3.994
 8161TIP3   OH224367   5.160   2.066   4.552
 8161TIP3    H124368   5.167   1.970   4.545
 8161TIP3    H224369   5.146   2.080   4.648
 8162TIP3   OH224370   3.786   2.152   5.294
 8162TIP3    H124371   3.786   2.114   5.203
 8162TIP3    H224372   3.882   2.149   5.313
 8163TIP3   OH224373   5.449   2.491   5.408
 8163TIP3    H124374   5.521   2.425   5.399
 8163TIP3    H224375   5.476   2.561   5.346
 8164TIP3   OH224376   5.634   2.296   5.423
 8164TIP3    H124377   5.560   2.246   5.463
 8164TIP3    H224378   5.707   2.233   5.438
 8165TIP3   OH224379   5.099   1.523   3.989
 8165TIP3    H124380   5.173   1.494   4.046
 8165TIP3    H224381   5.025   1.466   4.017
 8166TIP3   OH224382   5.156   1.783   4.447
 8166TIP3    H124383   5.196   1.694   4.462
 8166TIP3    H224384   5.215   1.815   4.376
 8167TIP3   OH224385   5.317   1.956   4.941
 8167TIP3    H124386   5.403   1.982   4.901
 8167TIP3    H224387   5.331   1.993   5.031
 8168TIP3   OH224388   5.386   2.100   5.173
 8168TIP3    H124389   5.308   2.134   5.222
 8168TIP3    H224390   5.419   2.182   5.128
 8169TIP3   OH224391   4.009   1.840   5.983
 8169TIP3    H124392   4.106   1.822   5.979
 8169TIP3    H224393   3.977   1.753   6.014
 8170TIP3   OH224394   5.836   1.691   5.729
 8170TIP3    H124395   5.897   1.626   5.687
 8170TIP3    H224396   5.809   1.746   5.652
 8171TIP3   OH224397   5.265   1.532   4.483
 8171TIP3    H124398   5.313   1.516   4.567
 8171TIP3    H224399   5.204   1.456   4.482
 8172TIP3   OH224400   3.965   1.520   5.301
 8172TIP3    H124401   4.025   1.444   5.313
 8172TIP3    H224402   4.029   1.593   5.295
 8173TIP3   OH224403   3.766   1.795   5.374
 8173TIP3    H124404   3.815   1.786   5.290
 8173TIP3    H224405   3.810   1.871   5.413
 8174TIP3   OH224406   5.709   1.832   5.534
 8174TIP3    H124407   5.623   1.872   5.557
 8174TIP3    H224408   5.679   1.759   5.476
 8175TIP3   OH224409   5.345   1.468   4.116
 8175TIP3    H124410   5.385   1.395   4.064
 8175TIP3    H224411   5.413   1.537   4.111
 8176TIP3   OH224412   3.751   1.296   4.879
 8176TIP3    H124413   3.657   1.293   4.903
 8176TIP3    H224414   3.749   1.354   4.800
 8177TIP3   OH224415   4.911   2.999   4.384
 8177TIP3    H124416   4.961   2.985   4.301
 8177TIP3    H224417   4.963   3.067   4.428
 8178TIP3   OH224418   3.965   1.375   5.702
 8178TIP3    H124419   3.911   1.335   5.771
 8178TIP3    H224420   3.897   1.415   5.645
 8179TIP3   OH224421   4.012   2.810   5.768
 8179TIP3    H124422   3.923   2.774   5.753
 8179TIP3    H224423   4.029   2.787   5.860
 8180TIP3   OH224424   4.187   2.836   5.316
 8180TIP3    H124425   4.142   2.914   5.275
 8180TIP3    H224426   4.274   2.847   5.273
 8181TIP3   OH224427   4.633   3.081   5.454
 8181TIP3    H124428   4.675   3.081   5.543
 8181TIP3    H224429   4.699   3.131   5.402
 8182TIP3   OH224430   4.813   3.232   5.313
 8182TIP3    H124431   4.884   3.182   5.271
 8182TIP3    H224432   4.864   3.289   5.374
 8183TIP3   OH224433   5.608   1.594   5.413
 8183TIP3    H124434   5.516   1.586   5.380
 8183TIP3    H224435   5.639   1.501   5.402
 8184TIP3   OH224436   3.866   3.093   5.342
 8184TIP3    H124437   3.776   3.124   5.317
 8184TIP3    H224438   3.878   3.141   5.426
 8185TIP3   OH224439   4.101   3.071   5.198
 8185TIP3    H124440   4.014   3.083   5.241
 8185TIP3    H224441   4.083   3.103   5.108
 8186TIP3   OH224442   4.526   3.099   4.997
 8186TIP3    H124443   4.459   3.120   4.929
 8186TIP3    H224444   4.540   3.187   5.039
 8187TIP3   OH224445   4.796   3.039   5.047
 8187TIP3    H124446   4.702   3.056   5.027
 8187TIP3    H224447   4.840   3.114   5.005
 8188TIP3   OH224448   5.002   3.230   4.962
 8188TIP3    H124449   4.989   3.315   4.915
 8188TIP3    H224450   5.029   3.171   4.889
 8189TIP3   OH224451   3.774   2.888   5.090
 8189TIP3    H124452   3.802   2.857   5.179
 8189TIP3    H224453   3.840   2.839   5.035
 8190TIP3   OH224454   3.968   2.756   4.941
 8190TIP3    H124455   3.985   2.673   4.992
 8190TIP3    H224456   4.058   2.794   4.937
 8191TIP3   OH224457   4.234   2.852   4.946
 8191TIP3    H124458   4.267   2.762   4.931
 8191TIP3    H224459   4.280   2.874   5.029
 8192TIP3   OH224460   4.812   1.509   5.032
 8192TIP3    H124461   4.769   1.439   5.084
 8192TIP3    H224462   4.884   1.460   4.988
 8193TIP3   OH224463   5.336   1.389   4.937
 8193TIP3    H124464   5.372   1.441   4.862
 8193TIP3    H224465   5.240   1.407   4.930
 8194TIP3   OH224466   5.430   1.490   4.701
 8194TIP3    H124467   5.504   1.438   4.661
 8194TIP3    H224468   5.464   1.581   4.686
 8195TIP3   OH224469   4.061   1.218   5.048
 8195TIP3    H124470   3.969   1.184   5.050
 8195TIP3    H224471   4.110   1.133   5.045
 8196TIP3   OH224472   3.850   1.087   4.697
 8196TIP3    H124473   3.878   1.145   4.624
 8196TIP3    H224474   3.820   1.152   4.763
 8197TIP3   OH224475   4.504   1.250   4.929
 8197TIP3    H124476   4.563   1.299   4.869
 8197TIP3    H224477   4.527   1.288   5.015
 8198TIP3   OH224478   5.052   1.397   4.912
 8198TIP3    H124479   5.050   1.358   4.824
 8198TIP3    H224480   5.039   1.317   4.969
 8199TIP3   OH224481   5.081   1.319   4.475
 8199TIP3    H124482   4.995   1.362   4.488
 8199TIP3    H224483   5.067   1.234   4.521
 8200TIP3   OH224484   3.545   2.666   4.492
 8200TIP3    H124485   3.467   2.630   4.445
 8200TIP3    H224486   3.547   2.754   4.449
 8201TIP3   OH224487   3.965   1.246   4.461
 8201TIP3    H124488   4.016   1.185   4.405
 8201TIP3    H224489   4.035   1.302   4.498
 8202TIP3   OH224490   4.477   1.422   4.558
 8202TIP3    H124491   4.537   1.375   4.619
 8202TIP3    H224492   4.499   1.515   4.583
 8203TIP3   OH224493   4.335   2.846   4.056
 8203TIP3    H124494   4.424   2.868   4.022
 8203TIP3    H224495   4.314   2.772   3.995
 8204TIP3   OH224496   5.056   2.965   4.151
 8204TIP3    H124497   5.051   2.867   4.139
 8204TIP3    H224498   5.010   2.996   4.071
 8205TIP3   OH224499   4.270   1.504   5.939
 8205TIP3    H124500   4.231   1.436   5.996
 8205TIP3    H224501   4.363   1.500   5.968
 8206TIP3   OH224502   4.519   1.496   6.060
 8206TIP3    H124503   4.603   1.470   6.018
 8206TIP3    H224504   4.507   1.424   6.126
 8207TIP3   OH224505   3.643   2.683   4.114
 8207TIP3    H124506   3.651   2.713   4.205
 8207TIP3    H224507   3.730   2.639   4.098
 8208TIP3   OH224508   5.343   1.556   5.847
 8208TIP3    H124509   5.362   1.525   5.938
 8208TIP3    H224510   5.432   1.552   5.806
 8209TIP3   OH224511   5.284   3.110   5.336
 8209TIP3    H124512   5.204   3.079   5.289
 8209TIP3    H224513   5.264   3.206   5.341
 8210TIP3   OH224514   6.549   2.481   4.104
 8210TIP3    H124515   6.520   2.573   4.085
 8210TIP3    H224516   6.472   2.432   4.071
 8211TIP3   OH224517   6.544   2.482   4.487
 8211TIP3    H124518   6.578   2.455   4.574
 8211TIP3    H224519   6.505   2.400   4.454
 8212TIP3   OH224520   5.847   2.376   4.850
 8212TIP3    H124521   5.875   2.308   4.913
 8212TIP3    H224522   5.927   2.429   4.844
 8213TIP3   OH224523   6.790   2.784   4.168
 8213TIP3    H124524   6.777   2.715   4.234
 8213TIP3    H224525   6.820   2.859   4.222
 8214TIP3   OH224526   5.835   2.789   4.588
 8214TIP3    H124527   5.815   2.693   4.586
 8214TIP3    H224528   5.927   2.788   4.555
 8215TIP3   OH224529   5.525   1.991   4.360
 8215TIP3    H124530   5.475   2.073   4.376
 8215TIP3    H224531   5.455   1.935   4.322
 8216TIP3   OH224532   5.585   2.278   4.533
 8216TIP3    H124533   5.633   2.200   4.570
 8216TIP3    H224534   5.641   2.302   4.459
 8217TIP3   OH224535   6.441   3.243   4.188
 8217TIP3    H124536   6.483   3.175   4.130
 8217TIP3    H224537   6.447   3.200   4.274
 8218TIP3   OH224538   6.346   2.709   4.534
 8218TIP3    H124539   6.384   2.631   4.490
 8218TIP3    H224540   6.429   2.753   4.559
 8219TIP3   OH224541   7.359   2.028   4.532
 8219TIP3    H124542   7.388   2.110   4.576
 8219TIP3    H224543   7.380   2.048   4.439
 8220TIP3   OH224544   6.759   2.209   4.566
 8220TIP3    H124545   6.801   2.124   4.587
 8220TIP3    H224546   6.727   2.193   4.475
 8221TIP3   OH224547   6.096   1.868   4.531
 8221TIP3    H124548   6.076   1.941   4.469
 8221TIP3    H224549   6.048   1.795   4.487
 8222TIP3   OH224550   6.791   1.960   4.154
 8222TIP3    H124551   6.862   1.943   4.219
 8222TIP3    H224552   6.843   1.995   4.080
 8223TIP3   OH224553   5.730   2.070   4.638
 8223TIP3    H124554   5.812   2.050   4.686
 8223TIP3    H224555   5.743   2.014   4.559
 8224TIP3   OH224556   6.170   2.268   4.432
 8224TIP3    H124557   6.264   2.243   4.445
 8224TIP3    H224558   6.131   2.184   4.400
 8225TIP3   OH224559   7.432   2.235   4.702
 8225TIP3    H124560   7.349   2.282   4.683
 8225TIP3    H224561   7.448   2.263   4.793
 8226TIP3   OH224562   6.093   1.851   4.966
 8226TIP3    H124563   6.032   1.888   4.899
 8226TIP3    H224564   6.041   1.868   5.047
 8227TIP3   OH224565   6.438   2.702   3.975
 8227TIP3    H124566   6.397   2.683   3.889
 8227TIP3    H224567   6.394   2.786   4.000
 8228TIP3   OH224568   6.199   2.630   4.762
 8228TIP3    H124569   6.141   2.698   4.802
 8228TIP3    H224570   6.244   2.680   4.691
 8229TIP3   OH224571   7.001   1.961   4.326
 8229TIP3    H124572   6.988   1.915   4.410
 8229TIP3    H224573   7.053   2.039   4.353
 8230TIP3   OH224574   5.963   1.967   4.750
 8230TIP3    H124575   6.026   2.039   4.774
 8230TIP3    H224576   6.013   1.926   4.675
 8231TIP3   OH224577   6.021   2.830   4.852
 8231TIP3    H124578   5.963   2.843   4.776
 8231TIP3    H224579   5.953   2.815   4.922
 8232TIP3   OH224580   5.422   2.511   4.094
 8232TIP3    H124581   5.379   2.537   4.011
 8232TIP3    H224582   5.451   2.597   4.131
 8233TIP3   OH224583   6.859   3.026   4.334
 8233TIP3    H124584   6.769   3.018   4.373
 8233TIP3    H224585   6.852   3.113   4.290
 8234TIP3   OH224586   7.152   1.926   4.697
 8234TIP3    H124587   7.065   1.957   4.667
 8234TIP3    H224588   7.211   1.960   4.626
 8235TIP3   OH224589   6.449   1.570   4.680
 8235TIP3    H124590   6.435   1.475   4.698
 8235TIP3    H224591   6.371   1.608   4.727
 8236TIP3   OH224592   6.559   3.074   4.006
 8236TIP3    H124593   6.610   2.991   3.988
 8236TIP3    H224594   6.622   3.138   3.966
 8237TIP3   OH224595   6.704   2.859   3.917
 8237TIP3    H124596   6.669   2.778   3.876
 8237TIP3    H224597   6.741   2.824   4.001
 8238TIP3   OH224598   7.087   2.939   4.679
 8238TIP3    H124599   7.076   2.862   4.619
 8238TIP3    H224600   7.070   3.014   4.618
 8239TIP3   OH224601   6.379   2.333   3.935
 8239TIP3    H124602   6.298   2.385   3.913
 8239TIP3    H224603   6.425   2.331   3.850
 8240TIP3   OH224604   6.337   2.118   3.651
 8240TIP3    H124605   6.404   2.169   3.700
 8240TIP3    H224606   6.395   2.054   3.604
 8241TIP3   OH224607   7.282   2.575   4.522
 8241TIP3    H124608   7.199   2.628   4.528
 8241TIP3    H224609   7.312   2.601   4.432
 8242TIP3   OH224610   6.726   2.416   3.907
 8242TIP3    H124611   6.672   2.440   3.985
 8242TIP3    H224612   6.810   2.390   3.951
 8243TIP3   OH224613   6.961   2.455   4.819
 8243TIP3    H124614   6.959   2.538   4.871
 8243TIP3    H224615   6.875   2.461   4.774
 8244TIP3   OH224616   5.959   2.415   4.324
 8244TIP3    H124617   5.917   2.356   4.257
 8244TIP3    H224618   6.035   2.360   4.353
 8245TIP3   OH224619   6.090   2.818   4.476
 8245TIP3    H124620   6.071   2.784   4.387
 8245TIP3    H224621   6.181   2.785   4.491
 8246TIP3   OH224622   6.096   2.384   4.679
 8246TIP3    H124623   6.128   2.362   4.590
 8246TIP3    H224624   6.139   2.470   4.697
 8247TIP3   OH224625   6.616   3.023   4.455
 8247TIP3    H124626   6.607   3.102   4.511
 8247TIP3    H224627   6.604   2.949   4.519
 8248TIP3   OH224628   6.233   2.946   4.999
 8248TIP3    H124629   6.177   3.006   5.052
 8248TIP3    H224630   6.165   2.898   4.949
 8249TIP3   OH224631   6.567   2.274   3.733
 8249TIP3    H124632   6.626   2.333   3.785
 8249TIP3    H224633   6.593   2.297   3.641
 8250TIP3   OH224634   5.986   2.501   5.101
 8250TIP3    H124635   5.990   2.586   5.149
 8250TIP3    H224636   5.892   2.479   5.113
 8251TIP3   OH224637   6.307   2.956   4.014
 8251TIP3    H124638   6.390   3.006   4.023
 8251TIP3    H224639   6.250   3.017   3.966
 8252TIP3   OH224640   6.014   3.107   5.083
 8252TIP3    H124641   5.958   3.064   5.017
 8252TIP3    H224642   5.952   3.102   5.159
 8253TIP3   OH224643   7.083   1.514   3.782
 8253TIP3    H124644   7.001   1.534   3.832
 8253TIP3    H224645   7.096   1.598   3.732
 8254TIP3   OH224646   5.824   2.257   4.130
 8254TIP3    H124647   5.758   2.301   4.072
 8254TIP3    H224648   5.785   2.170   4.142
 8255TIP3   OH224649   6.881   2.882   3.329
 8255TIP3    H124650   6.890   2.979   3.315
 8255TIP3    H224651   6.974   2.853   3.317
 8256TIP3   OH224652   5.607   2.641   5.034
 8256TIP3    H124653   5.539   2.618   4.968
 8256TIP3    H224654   5.643   2.554   5.060
 8257TIP3   OH224655   5.458   2.834   4.670
 8257TIP3    H124656   5.555   2.837   4.666
 8257TIP3    H224657   5.437   2.916   4.717
 8258TIP3   OH224658   7.326   3.284   4.724
 8258TIP3    H124659   7.324   3.188   4.740
 8258TIP3    H224660   7.243   3.311   4.770
 8259TIP3   OH224661   6.447   3.066   4.873
 8259TIP3    H124662   6.437   3.161   4.894
 8259TIP3    H224663   6.368   3.029   4.917
 8260TIP3   OH224664   6.191   3.198   3.812
 8260TIP3    H124665   6.146   3.180   3.728
 8260TIP3    H224666   6.159   3.287   3.835
 8261TIP3   OH224667   5.629   3.049   4.194
 8261TIP3    H124668   5.673   3.037   4.280
 8261TIP3    H224669   5.570   2.971   4.193
 8262TIP3   OH224670   6.392   3.100   3.450
 8262TIP3    H124671   6.451   3.031   3.414
 8262TIP3    H224672   6.427   3.110   3.542
 8263TIP3   OH224673   6.443   3.149   3.720
 8263TIP3    H124674   6.355   3.158   3.763
 8263TIP3    H224675   6.494   3.110   3.793
 8264TIP3   OH224676   7.215   2.415   4.999
 8264TIP3    H124677   7.133   2.428   4.950
 8264TIP3    H224678   7.230   2.319   4.989
 8265TIP3   OH224679   5.811   2.825   5.025
 8265TIP3    H124680   5.859   2.808   5.109
 8265TIP3    H224681   5.738   2.760   5.031
 8266TIP3   OH224682   6.210   1.647   4.808
 8266TIP3    H124683   6.121   1.616   4.782
 8266TIP3    H224684   6.185   1.728   4.855
 8267TIP3   OH224685   6.744   1.761   5.003
 8267TIP3    H124686   6.812   1.735   5.068
 8267TIP3    H224687   6.660   1.742   5.050
 8268TIP3   OH224688   6.983   2.191   4.921
 8268TIP3    H124689   6.934   2.187   5.006
 8268TIP3    H224690   6.959   2.279   4.887
 8269TIP3   OH224691   6.643   2.320   3.477
 8269TIP3    H124692   6.609   2.295   3.389
 8269TIP3    H224693   6.724   2.369   3.453
 8270TIP3   OH224694   6.355   1.696   3.780
 8270TIP3    H124695   6.322   1.693   3.871
 8270TIP3    H224696   6.317   1.613   3.746
 8271TIP3   OH224697   6.142   2.162   4.828
 8271TIP3    H124698   6.092   2.183   4.909
 8271TIP3    H224699   6.126   2.243   4.774
 8272TIP3   OH224700   6.025   2.049   4.341
 8272TIP3    H124701   5.933   2.022   4.359
 8272TIP3    H224702   6.038   2.008   4.253
 8273TIP3   OH224703   6.517   2.134   4.069
 8273TIP3    H124704   6.464   2.205   4.027
 8273TIP3    H224705   6.571   2.103   3.994
 8274TIP3   OH224706   6.691   2.412   5.154
 8274TIP3    H124707   6.669   2.339   5.217
 8274TIP3    H224708   6.784   2.428   5.177
 8275TIP3   OH224709   6.673   2.162   4.308
 8275TIP3    H124710   6.613   2.192   4.237
 8275TIP3    H224711   6.707   2.081   4.265
 8276TIP3   OH224712   5.960   2.191   5.036
 8276TIP3    H124713   5.989   2.252   5.105
 8276TIP3    H224714   5.948   2.108   5.087
 8277TIP3   OH224715   6.010   1.669   3.745
 8277TIP3    H124716   6.003   1.666   3.843
 8277TIP3    H224717   5.932   1.721   3.722
 8278TIP3   OH224718   5.554   1.714   4.616
 8278TIP3    H124719   5.630   1.745   4.670
 8278TIP3    H224720   5.595   1.680   4.535
 8279TIP3   OH224721   5.526   1.694   4.135
 8279TIP3    H124722   5.573   1.732   4.058
 8279TIP3    H224723   5.465   1.767   4.156
 8280TIP3   OH224724   6.682   2.409   4.730
 8280TIP3    H124725   6.716   2.337   4.672
 8280TIP3    H224726   6.654   2.356   4.808
 8281TIP3   OH224727   6.353   1.871   4.402
 8281TIP3    H124728   6.271   1.869   4.455
 8281TIP3    H224729   6.421   1.869   4.472
 8282TIP3   OH224730   5.787   1.926   4.410
 8282TIP3    H124731   5.693   1.934   4.383
 8282TIP3    H224732   5.810   1.834   4.388
 8283TIP3   OH224733   6.056   1.923   4.099
 8283TIP3    H124734   6.150   1.937   4.078
 8283TIP3    H224735   6.010   1.945   4.016
 8284TIP3   OH224736   6.845   1.946   4.603
 8284TIP3    H124737   6.812   1.958   4.695
 8284TIP3    H224738   6.778   1.885   4.568
 8285TIP3   OH224739   5.898   1.956   3.878
 8285TIP3    H124740   5.826   1.912   3.830
 8285TIP3    H224741   5.950   1.992   3.802
 8286TIP3   OH224742   7.016   3.634   4.824
 8286TIP3    H124743   7.015   3.662   4.730
 8286TIP3    H224744   7.092   3.685   4.858
 8287TIP3   OH224745   5.972   2.748   5.244
 8287TIP3    H124746   6.053   2.775   5.294
 8287TIP3    H224747   5.908   2.745   5.318
 8288TIP3   OH224748   6.435   2.199   4.500
 8288TIP3    H124749   6.509   2.159   4.450
 8288TIP3    H224750   6.444   2.157   4.587
 8289TIP3   OH224751   5.959   1.686   4.379
 8289TIP3    H124752   5.924   1.607   4.426
 8289TIP3    H224753   6.009   1.646   4.307
 8290TIP3   OH224754   6.413   2.096   4.789
 8290TIP3    H124755   6.323   2.132   4.804
 8290TIP3    H224756   6.470   2.156   4.840
 8291TIP3   OH224757   6.149   2.487   3.884
 8291TIP3    H124758   6.077   2.420   3.873
 8291TIP3    H224759   6.130   2.520   3.975
 8292TIP3   OH224760   7.050   2.722   4.513
 8292TIP3    H124761   7.074   2.772   4.433
 8292TIP3    H224762   6.965   2.681   4.488
 8293TIP3   OH224763   6.607   1.798   3.746
 8293TIP3    H124764   6.511   1.781   3.755
 8293TIP3    H224765   6.616   1.893   3.771
 8294TIP3   OH224766   6.545   2.801   4.883
 8294TIP3    H124767   6.578   2.783   4.972
 8294TIP3    H224768   6.515   2.894   4.890
 8295TIP3   OH224769   6.677   2.046   3.850
 8295TIP3    H124770   6.773   2.052   3.866
 8295TIP3    H224771   6.658   2.126   3.798
 8296TIP3   OH224772   5.844   2.513   4.560
 8296TIP3    H124773   5.880   2.481   4.475
 8296TIP3    H224774   5.879   2.448   4.623
 8297TIP3   OH224775   6.294   2.636   3.706
 8297TIP3    H124776   6.247   2.722   3.711
 8297TIP3    H224777   6.240   2.581   3.766
 8298TIP3   OH224778   5.722   2.430   5.173
 8298TIP3    H124779   5.743   2.415   5.268
 8298TIP3    H224780   5.654   2.363   5.157
 8299TIP3   OH224781   6.449   2.542   5.193
 8299TIP3    H124782   6.390   2.482   5.146
 8299TIP3    H224783   6.537   2.508   5.166
 8300TIP3   OH224784   6.709   3.063   4.775
 8300TIP3    H124785   6.614   3.061   4.794
 8300TIP3    H224786   6.741   3.113   4.853
 8301TIP3   OH224787   7.119   2.136   3.686
 8301TIP3    H124788   7.057   2.091   3.624
 8301TIP3    H224789   7.116   2.225   3.646
 8302TIP3   OH224790   7.337   2.992   4.768
 8302TIP3    H124791   7.239   2.988   4.760
 8302TIP3    H224792   7.363   2.963   4.678
 8303TIP3   OH224793   6.819   2.955   3.594
 8303TIP3    H124794   6.794   2.885   3.656
 8303TIP3    H224795   6.832   2.908   3.510
 8304TIP3   OH224796   6.815   2.585   4.432
 8304TIP3    H124797   6.722   2.560   4.446
 8304TIP3    H224798   6.849   2.505   4.387
 8305TIP3   OH224799   5.943   2.819   4.194
 8305TIP3    H124800   5.940   2.894   4.132
 8305TIP3    H224801   5.851   2.791   4.194
 8306TIP3   OH224802   5.505   2.116   3.887
 8306TIP3    H124803   5.551   2.200   3.909
 8306TIP3    H224804   5.428   2.121   3.949
 8307TIP3   OH224805   6.078   2.580   4.129
 8307TIP3    H124806   6.047   2.669   4.151
 8307TIP3    H224807   6.044   2.527   4.204
 8308TIP3   OH224808   5.864   3.050   4.040
 8308TIP3    H124809   5.777   3.059   4.083
 8308TIP3    H224810   5.895   3.143   4.040
 8309TIP3   OH224811   6.599   2.789   4.613
 8309TIP3    H124812   6.589   2.787   4.711
 8309TIP3    H224813   6.681   2.738   4.602
 8310TIP3   OH224814   6.575   2.682   3.496
 8310TIP3    H124815   6.628   2.657   3.575
 8310TIP3    H224816   6.486   2.656   3.525
 8311TIP3   OH224817   6.848   3.322   4.662
 8311TIP3    H124818   6.769   3.265   4.656
 8311TIP3    H224819   6.831   3.387   4.591
 8312TIP3   OH224820   6.914   3.157   3.316
 8312TIP3    H124821   6.952   3.231   3.264
 8312TIP3    H224822   6.834   3.202   3.349
 8313TIP3   OH224823   5.934   1.934   5.181
 8313TIP3    H124824   5.837   1.938   5.196
 8313TIP3    H224825   5.962   1.876   5.253
 8314TIP3   OH224826   6.735   2.617   3.713
 8314TIP3    H124827   6.725   2.550   3.784
 8314TIP3    H224828   6.832   2.614   3.700
 8315TIP3   OH224829   5.664   3.016   4.812
 8315TIP3    H124830   5.695   2.944   4.869
 8315TIP3    H224831   5.665   3.092   4.872
 8316TIP3   OH224832   5.941   2.663   3.495
 8316TIP3    H124833   5.955   2.571   3.467
 8316TIP3    H224834   5.921   2.651   3.590
 8317TIP3   OH224835   5.887   2.668   3.768
 8317TIP3    H124836   5.959   2.641   3.825
 8317TIP3    H224837   5.890   2.766   3.775
 8318TIP3   OH224838   5.621   2.361   3.971
 8318TIP3    H124839   5.555   2.406   4.028
 8318TIP3    H224840   5.635   2.431   3.903
 8319TIP3   OH224841   6.772   1.997   4.862
 8319TIP3    H124842   6.850   2.037   4.904
 8319TIP3    H224843   6.757   1.917   4.917
 8320TIP3   OH224844   6.651   1.749   4.028
 8320TIP3    H124845   6.637   1.773   3.934
 8320TIP3    H224846   6.690   1.832   4.064
 8321TIP3   OH224847   6.152   2.866   3.718
 8321TIP3    H124848   6.065   2.893   3.752
 8321TIP3    H224849   6.168   2.937   3.654
 8322TIP3   OH224850   6.340   1.929   4.131
 8322TIP3    H124851   6.404   2.001   4.114
 8322TIP3    H224852   6.345   1.922   4.228
 8323TIP3   OH224853   6.610   2.248   4.938
 8323TIP3    H124854   6.631   2.302   5.017
 8323TIP3    H224855   6.664   2.169   4.953
 8324TIP3   OH224856   6.484   1.656   4.233
 8324TIP3    H124857   6.478   1.733   4.292
 8324TIP3    H224858   6.545   1.691   4.164
 8325TIP3   OH224859   5.896   2.941   3.784
 8325TIP3    H124860   5.865   3.010   3.721
 8325TIP3    H224861   5.879   2.985   3.870
 8326TIP3   OH224862   5.996   1.655   4.022
 8326TIP3    H124863   5.994   1.745   4.059
 8326TIP3    H224864   6.092   1.636   4.030
 8327TIP3   OH224865   7.250   2.147   4.919
 8327TIP3    H124866   7.152   2.146   4.927
 8327TIP3    H224867   7.260   2.108   4.831
 8328TIP3   OH224868   6.901   2.342   4.307
 8328TIP3    H124869   6.825   2.283   4.320
 8328TIP3    H224870   6.972   2.296   4.355
 8329TIP3   OH224871   5.614   2.571   3.777
 8329TIP3    H124872   5.679   2.642   3.785
 8329TIP3    H224873   5.659   2.516   3.709
 8330TIP3   OH224874   5.558   1.847   3.909
 8330TIP3    H124875   5.557   1.945   3.906
 8330TIP3    H224876   5.472   1.825   3.871
 8331TIP3   OH224877   6.869   3.297   4.256
 8331TIP3    H124878   6.827   3.344   4.180
 8331TIP3    H224879   6.963   3.316   4.236
 8332TIP3   OH224880   5.945   1.567   4.783
 8332TIP3    H124881   5.914   1.533   4.697
 8332TIP3    H224882   5.935   1.489   4.841
 8333TIP3   OH224883   5.485   2.786   4.164
 8333TIP3    H124884   5.414   2.815   4.223
 8333TIP3    H224885   5.456   2.826   4.079
 8334TIP3   OH224886   5.641   3.327   5.236
 8334TIP3    H124887   5.727   3.329   5.284
 8334TIP3    H224888   5.621   3.232   5.236
 8335TIP3   OH224889   6.120   3.293   5.279
 8335TIP3    H124890   6.215   3.282   5.297
 8335TIP3    H224891   6.107   3.235   5.202
 8336TIP3   OH224892   6.104   2.867   3.409
 8336TIP3    H124893   6.048   2.795   3.446
 8336TIP3    H224894   6.179   2.815   3.375
 8337TIP3   OH224895   6.765   3.194   5.009
 8337TIP3    H124896   6.754   3.127   5.081
 8337TIP3    H224897   6.840   3.248   5.043
 8338TIP3   OH224898   6.540   2.908   3.319
 8338TIP3    H124899   6.585   2.844   3.378
 8338TIP3    H224900   6.597   2.907   3.240
 8339TIP3   OH224901   5.772   2.733   5.435
 8339TIP3    H124902   5.788   2.637   5.442
 8339TIP3    H224903   5.684   2.735   5.392
 8340TIP3   OH224904   5.748   2.384   3.629
 8340TIP3    H124905   5.803   2.351   3.702
 8340TIP3    H224906   5.816   2.388   3.557
 8341TIP3   OH224907   6.380   2.816   5.210
 8341TIP3    H124908   6.344   2.832   5.121
 8341TIP3    H224909   6.413   2.723   5.204
 8342TIP3   OH224910   6.259   2.582   3.436
 8342TIP3    H124911   6.261   2.595   3.533
 8342TIP3    H224912   6.258   2.484   3.431
 8343TIP3   OH224913   6.870   2.827   4.814
 8343TIP3    H124914   6.947   2.870   4.772
 8343TIP3    H224915   6.802   2.895   4.801
 8344TIP3   OH224916   5.892   2.467   5.417
 8344TIP3    H124917   5.966   2.408   5.399
 8344TIP3    H224918   5.917   2.501   5.506
 8345TIP3   OH224919   5.958   2.288   3.852
 8345TIP3    H124920   5.930   2.246   3.935
 8345TIP3    H224921   5.993   2.212   3.801
 8346TIP3   OH224922   6.224   2.351   5.078
 8346TIP3    H124923   6.148   2.413   5.080
 8346TIP3    H224924   6.275   2.385   5.001
 8347TIP3   OH224925   6.057   2.081   3.692
 8347TIP3    H124926   6.031   2.085   3.597
 8347TIP3    H224927   6.154   2.086   3.684
 8348TIP3   OH224928   6.741   2.753   5.212
 8348TIP3    H124929   6.824   2.732   5.169
 8348TIP3    H224930   6.739   2.688   5.285
 8349TIP3   OH224931   6.879   2.412   3.355
 8349TIP3    H124932   6.858   2.366   3.271
 8349TIP3    H224933   6.847   2.502   3.332
 8350TIP3   OH224934   6.348   2.140   5.206
 8350TIP3    H124935   6.349   2.060   5.150
 8350TIP3    H224936   6.305   2.206   5.148
 8351TIP3   OH224937   6.352   1.926   5.013
 8351TIP3    H124938   6.379   1.967   4.928
 8351TIP3    H224939   6.258   1.904   4.994
 8352TIP3   OH224940   6.377   2.460   4.884
 8352TIP3    H124941   6.463   2.470   4.840
 8352TIP3    H224942   6.323   2.529   4.840
 8353TIP3   OH224943   6.959   2.429   5.266
 8353TIP3    H124944   7.009   2.347   5.281
 8353TIP3    H224945   7.028   2.489   5.234
 8354TIP3   OH224946   7.002   2.681   5.001
 8354TIP3    H124947   6.943   2.735   4.943
 8354TIP3    H224948   7.089   2.702   4.961
 8355TIP3   OH224949   6.225   2.253   5.435
 8355TIP3    H124950   6.157   2.183   5.450
 8355TIP3    H224951   6.261   2.225   5.348
 8356TIP3   OH224952   6.483   1.690   5.079
 8356TIP3    H124953   6.434   1.772   5.057
 8356TIP3    H224954   6.414   1.622   5.068
 8357TIP3   OH224955   6.610   2.194   5.296
 8357TIP3    H124956   6.600   2.182   5.392
 8357TIP3    H224957   6.520   2.169   5.267
 8358TIP3   OH224958   6.848   2.141   5.150
 8358TIP3    H124959   6.773   2.145   5.213
 8358TIP3    H224960   6.922   2.112   5.207
 8359TIP3   OH224961   7.078   2.084   5.300
 8359TIP3    H124962   7.090   1.988   5.320
 8359TIP3    H224963   7.073   2.124   5.390
 8360TIP3   OH224964   6.066   2.032   5.489
 8360TIP3    H124965   6.072   1.940   5.455
 8360TIP3    H224966   6.103   2.020   5.579
 8361TIP3   OH224967   6.578   1.700   5.337
 8361TIP3    H124968   6.645   1.629   5.332
 8361TIP3    H224969   6.538   1.693   5.248
 8362TIP3   OH224970   6.644   1.915   5.496
 8362TIP3    H124971   6.622   1.844   5.432
 8362TIP3    H224972   6.566   1.974   5.490
 8363TIP3   OH224973   5.865   3.143   3.597
 8363TIP3    H124974   5.960   3.139   3.577
 8363TIP3    H224975   5.834   3.192   3.519
 8364TIP3   OH224976   5.346   2.526   3.813
 8364TIP3    H124977   5.441   2.547   3.799
 8364TIP3    H224978   5.340   2.437   3.772
 8365TIP3   OH224979   5.259   3.138   4.225
 8365TIP3    H124980   5.192   3.076   4.189
 8365TIP3    H224981   5.303   3.079   4.291
 8366TIP3   OH224982   5.395   2.989   4.412
 8366TIP3    H124983   5.380   2.916   4.474
 8366TIP3    H224984   5.444   3.051   4.470
 8367TIP3   OH224985   7.121   3.389   4.213
 8367TIP3    H124986   7.147   3.421   4.301
 8367TIP3    H224987   7.183   3.435   4.155
 8368TIP3   OH224988   7.150   3.409   4.494
 8368TIP3    H124989   7.109   3.320   4.491
 8368TIP3    H224990   7.225   3.391   4.552
 8369TIP3   OH224991   7.197   3.085   5.068
 8369TIP3    H124992   7.124   3.094   5.132
 8369TIP3    H224993   7.239   3.174   5.072
 8370TIP3   OH224994   7.014   2.599   3.688
 8370TIP3    H124995   7.082   2.663   3.659
 8370TIP3    H224996   7.057   2.560   3.767
 8371TIP3   OH224997   7.141   2.466   3.891
 8371TIP3    H124998   7.076   2.424   3.951
 8371TIP3    H224999   7.207   2.504   3.954
 8372TIP3   OH225000   7.195   2.858   4.323
 8372TIP3    H125001   7.249   2.794   4.273
 8372TIP3    H225002   7.190   2.933   4.260
 8373TIP3   OH225003   7.027   3.158   4.519
 8373TIP3    H125004   6.957   3.202   4.571
 8373TIP3    H225005   6.976   3.111   4.450
 8374TIP3   OH225006   7.080   2.374   3.538
 8374TIP3    H125007   7.008   2.377   3.471
 8374TIP3    H225008   7.052   2.450   3.594
 8375TIP3   OH225009   6.951   2.047   3.492
 8375TIP3    H125010   6.907   2.085   3.416
 8375TIP3    H225011   6.926   1.952   3.483
 8376TIP3   OH225012   6.955   2.323   4.038
 8376TIP3    H125013   6.963   2.226   4.033
 8376TIP3    H225014   6.942   2.337   4.135
 8377TIP3   OH225015   5.582   2.397   4.785
 8377TIP3    H125016   5.580   2.365   4.692
 8377TIP3    H225017   5.679   2.397   4.802
 8378TIP3   OH225018   7.245   2.748   4.894
 8378TIP3    H125019   7.318   2.682   4.885
 8378TIP3    H225020   7.273   2.818   4.834
 8379TIP3   OH225021   7.430   2.553   4.909
 8379TIP3    H125022   7.356   2.503   4.950
 8379TIP3    H225023   7.503   2.489   4.925
 8380TIP3   OH225024   6.894   1.781   3.478
 8380TIP3    H125025   6.968   1.750   3.534
 8380TIP3    H225026   6.821   1.722   3.502
 8381TIP3   OH225027   6.952   2.039   3.933
 8381TIP3    H125028   6.992   1.950   3.948
 8381TIP3    H225029   7.010   2.072   3.863
 8382TIP3   OH225030   7.113   2.212   4.428
 8382TIP3    H125031   7.199   2.238   4.388
 8382TIP3    H225032   7.126   2.250   4.517
 8383TIP3   OH225033   7.182   2.356   4.660
 8383TIP3    H125034   7.105   2.391   4.709
 8383TIP3    H225035   7.215   2.438   4.615
 8384TIP3   OH225036   5.800   2.084   5.460
 8384TIP3    H125037   5.897   2.077   5.462
 8384TIP3    H225038   5.775   1.998   5.500
 8385TIP3   OH225039   7.634   1.948   5.216
 8385TIP3    H125040   7.693   1.883   5.173
 8385TIP3    H225041   7.605   2.003   5.140
 8386TIP3   OH225042   7.061   1.789   3.970
 8386TIP3    H125043   7.109   1.773   4.054
 8386TIP3    H225044   7.000   1.712   3.969
 8387TIP3   OH225045   5.761   1.775   4.790
 8387TIP3    H125046   5.822   1.700   4.800
 8387TIP3    H225047   5.823   1.849   4.784
 8388TIP3   OH225048   5.563   2.049   4.863
 8388TIP3    H125049   5.612   2.043   4.779
 8388TIP3    H225050   5.593   2.134   4.897
 8389TIP3   OH225051   7.505   2.087   5.022
 8389TIP3    H125052   7.420   2.129   5.046
 8389TIP3    H225053   7.473   2.017   4.963
 8390TIP3   OH225054   7.142   1.724   3.604
 8390TIP3    H125055   7.181   1.652   3.550
 8390TIP3    H225056   7.209   1.794   3.598
 8391TIP3   OH225057   5.547   1.553   4.365
 8391TIP3    H125058   5.453   1.549   4.391
 8391TIP3    H225059   5.543   1.611   4.286
 8392TIP3   OH225060   6.705   3.256   3.870
 8392TIP3    H125061   6.757   3.243   3.788
 8392TIP3    H225062   6.758   3.322   3.917
 8393TIP3   OH225063   5.767   1.633   5.179
 8393TIP3    H125064   5.717   1.627   5.261
 8393TIP3    H225065   5.700   1.670   5.118
 8394TIP3   OH225066   5.809   3.060   5.258
 8394TIP3    H125067   5.716   3.033   5.242
 8394TIP3    H225068   5.818   3.042   5.353
 8395TIP3   OH225069   6.424   3.345   4.936
 8395TIP3    H125070   6.466   3.337   5.025
 8395TIP3    H225071   6.496   3.390   4.886
 8396TIP3   OH225072   6.608   3.494   4.793
 8396TIP3    H125073   6.680   3.440   4.758
 8396TIP3    H225074   6.658   3.548   4.859
 8397TIP3   OH225075   7.404   1.851   4.899
 8397TIP3    H125076   7.313   1.845   4.866
 8397TIP3    H225077   7.434   1.758   4.888
 8398TIP3   OH225078   5.667   3.336   4.838
 8398TIP3    H125079   5.584   3.372   4.801
 8398TIP3    H225080   5.676   3.392   4.916
 8399TIP3   OH225081   6.291   3.359   4.505
 8399TIP3    H125082   6.255   3.379   4.417
 8399TIP3    H225083   6.329   3.444   4.534
 8400TIP3   OH225084   6.589   3.295   4.533
 8400TIP3    H125085   6.495   3.313   4.519
 8400TIP3    H225086   6.633   3.371   4.491
 8401TIP3   OH225087   6.793   3.486   4.448
 8401TIP3    H125088   6.784   3.572   4.401
 8401TIP3    H225089   6.824   3.427   4.376
 8402TIP3   OH225090   5.573   3.144   4.570
 8402TIP3    H125091   5.603   3.123   4.661
 8402TIP3    H225092   5.643   3.097   4.519
 8403TIP3   OH225093   5.765   3.010   4.429
 8403TIP3    H125094   5.782   2.928   4.481
 8403TIP3    H225095   5.854   3.049   4.426
 8404TIP3   OH225096   6.038   3.104   4.431
 8404TIP3    H125097   6.046   3.031   4.368
 8404TIP3    H225098   6.100   3.073   4.498
 8405TIP3   OH225099   6.608   1.765   4.518
 8405TIP3    H125100   6.564   1.696   4.571
 8405TIP3    H225101   6.681   1.716   4.475
 8406TIP3   OH225102   7.132   1.644   4.423
 8406TIP3    H125103   7.168   1.697   4.349
 8406TIP3    H225104   7.037   1.663   4.418
 8407TIP3   OH225105   7.227   1.745   4.187
 8407TIP3    H125106   7.301   1.695   4.147
 8407TIP3    H225107   7.259   1.837   4.173
 8408TIP3   OH225108   5.857   1.474   4.535
 8408TIP3    H125109   5.765   1.441   4.537
 8408TIP3    H225110   5.906   1.389   4.532
 8409TIP3   OH225111   5.642   1.344   4.183
 8409TIP3    H125112   5.673   1.402   4.111
 8409TIP3    H225113   5.615   1.409   4.251
 8410TIP3   OH225114   6.300   1.507   4.416
 8410TIP3    H125115   6.359   1.556   4.356
 8410TIP3    H225116   6.323   1.544   4.502
 8411TIP3   OH225117   6.849   1.653   4.399
 8411TIP3    H125118   6.845   1.616   4.311
 8411TIP3    H225119   6.835   1.573   4.455
 8412TIP3   OH225120   6.878   1.576   3.962
 8412TIP3    H125121   6.791   1.618   3.974
 8412TIP3    H225122   6.863   1.490   4.008
 8413TIP3   OH225123   5.362   2.915   3.962
 8413TIP3    H125124   5.276   2.881   3.929
 8413TIP3    H225125   5.350   3.009   3.943
 8414TIP3   OH225126   5.761   1.504   3.945
 8414TIP3    H125127   5.809   1.440   3.889
 8414TIP3    H225128   5.834   1.557   3.982
 8415TIP3   OH225129   6.273   1.679   4.045
 8415TIP3    H125130   6.332   1.631   4.105
 8415TIP3    H225131   6.295   1.771   4.070
 8416TIP3   OH225132   6.133   3.103   3.545
 8416TIP3    H125133   6.221   3.126   3.509
 8416TIP3    H225134   6.111   3.029   3.485
 8417TIP3   OH225135   6.852   3.222   3.638
 8417TIP3    H125136   6.843   3.124   3.626
 8417TIP3    H225137   6.806   3.254   3.557
 8418TIP3   OH225138   6.065   1.756   5.426
 8418TIP3    H125139   6.030   1.685   5.483
 8418TIP3    H225140   6.159   1.755   5.454
 8419TIP3   OH225141   6.314   1.752   5.545
 8419TIP3    H125142   6.399   1.726   5.507
 8419TIP3    H225143   6.301   1.682   5.613
 8420TIP3   OH225144   5.436   2.940   3.600
 8420TIP3    H125145   5.434   2.966   3.693
 8420TIP3    H225146   5.525   2.899   3.591
 8421TIP3   OH225147   7.139   1.812   5.333
 8421TIP3    H125148   7.157   1.782   5.425
 8421TIP3    H225149   7.228   1.808   5.293
 8422TIP3   OH225150   7.080   3.366   4.822
 8422TIP3    H125151   6.999   3.335   4.777
 8422TIP3    H225152   7.060   3.462   4.829
 8423TIP3   OH225153   8.344   2.737   3.592
 8423TIP3    H125154   8.316   2.829   3.572
 8423TIP3    H225155   8.267   2.688   3.559
 8424TIP3   OH225156   8.342   2.739   3.973
 8424TIP3    H125157   8.375   2.710   4.060
 8424TIP3    H225158   8.302   2.658   3.939
 8425TIP3   OH225159   7.643   2.633   4.337
 8425TIP3    H125160   7.673   2.566   4.401
 8425TIP3    H225161   7.720   2.691   4.333
 8426TIP3   OH225162   8.588   3.040   3.654
 8426TIP3    H125163   8.572   2.971   3.720
 8426TIP3    H225164   8.615   3.115   3.709
 8427TIP3   OH225165   7.613   3.043   4.061
 8427TIP3    H125166   7.605   2.945   4.064
 8427TIP3    H225167   7.710   3.052   4.058
 8428TIP3   OH225168   7.321   2.246   3.847
 8428TIP3    H125169   7.273   2.329   3.863
 8428TIP3    H225170   7.250   2.192   3.808
 8429TIP3   OH225171   7.379   2.533   4.019
 8429TIP3    H125172   7.429   2.456   4.056
 8429TIP3    H225173   7.440   2.565   3.951
 8430TIP3   OH225174   8.236   3.503   3.670
 8430TIP3    H125175   8.281   3.431   3.621
 8430TIP3    H225176   8.229   3.465   3.759
 8431TIP3   OH225177   8.142   2.964   4.021
 8431TIP3    H125178   8.181   2.887   3.976
 8431TIP3    H225179   8.225   3.010   4.045
 8432TIP3   OH225180   9.085   2.308   4.030
 8432TIP3    H125181   9.149   2.359   4.084
 8432TIP3    H225182   9.133   2.306   3.945
 8433TIP3   OH225183   8.552   2.466   4.053
 8433TIP3    H125184   8.596   2.382   4.074
 8433TIP3    H225185   8.523   2.450   3.962
 8434TIP3   OH225186   7.892   2.125   4.019
 8434TIP3    H125187   7.872   2.198   3.956
 8434TIP3    H225188   7.844   2.052   3.974
 8435TIP3   OH225189   8.588   2.216   3.640
 8435TIP3    H125190   8.659   2.200   3.706
 8435TIP3    H225191   8.640   2.252   3.567
 8436TIP3   OH225192   7.526   2.327   4.125
 8436TIP3    H125193   7.608   2.308   4.173
 8436TIP3    H225194   7.539   2.271   4.046
 8437TIP3   OH225195   7.967   2.524   3.918
 8437TIP3    H125196   8.061   2.499   3.931
 8437TIP3    H225197   7.928   2.440   3.886
 8438TIP3   OH225198   9.223   2.487   4.189
 8438TIP3    H125199   9.141   2.541   4.184
 8438TIP3    H225200   9.269   2.526   4.265
 8439TIP3   OH225201   7.889   2.108   4.453
 8439TIP3    H125202   7.829   2.146   4.385
 8439TIP3    H225203   7.837   2.126   4.534
 8440TIP3   OH225204   8.235   2.959   3.462
 8440TIP3    H125205   8.193   2.940   3.377
 8440TIP3    H225206   8.192   3.043   3.486
 8441TIP3   OH225207   7.996   2.883   4.248
 8441TIP3    H125208   7.933   2.949   4.285
 8441TIP3    H225209   8.038   2.934   4.176
 8442TIP3   OH225210   8.798   2.217   3.814
 8442TIP3    H125211   8.787   2.173   3.899
 8442TIP3    H225212   8.851   2.294   3.838
 8443TIP3   OH225213   7.759   2.223   4.237
 8443TIP3    H125214   7.821   2.296   4.261
 8443TIP3    H225215   7.809   2.183   4.162
 8444TIP3   OH225216   7.823   3.077   4.345
 8444TIP3    H125217   7.798   3.164   4.307
 8444TIP3    H225218   7.744   3.061   4.401
 8445TIP3   OH225219   7.218   2.767   3.581
 8445TIP3    H125220   7.177   2.796   3.498
 8445TIP3    H225221   7.249   2.853   3.618
 8446TIP3   OH225222   8.658   3.283   3.820
 8446TIP3    H125223   8.568   3.274   3.860
 8446TIP3    H225224   8.649   3.369   3.775
 8447TIP3   OH225225   8.926   2.173   4.198
 8447TIP3    H125226   8.838   2.203   4.168
 8447TIP3    H225227   8.984   2.217   4.132
 8448TIP3   OH225228   8.245   1.828   4.167
 8448TIP3    H125229   8.230   1.733   4.183
 8448TIP3    H225230   8.168   1.867   4.213
 8449TIP3   OH225231   8.359   3.330   3.495
 8449TIP3    H125232   8.408   3.247   3.475
 8449TIP3    H225233   8.420   3.395   3.454
 8450TIP3   OH225234   8.501   3.115   3.403
 8450TIP3    H125235   8.467   3.035   3.361
 8450TIP3    H225236   8.538   3.079   3.487
 8451TIP3   OH225237   8.879   3.196   4.166
 8451TIP3    H125238   8.870   3.119   4.106
 8451TIP3    H225239   8.864   3.271   4.104
 8452TIP3   OH225240   8.175   2.589   3.422
 8452TIP3    H125241   8.095   2.642   3.400
 8452TIP3    H225242   8.222   2.588   3.337
 8453TIP3   OH225243   8.133   2.375   3.137
 8453TIP3    H125244   8.200   2.426   3.187
 8453TIP3    H225245   8.192   2.312   3.090
 8454TIP3   OH225246   9.078   2.832   4.011
 8454TIP3    H125247   8.995   2.885   4.015
 8454TIP3    H225248   9.110   2.853   3.922
 8455TIP3   OH225249   8.521   2.672   3.394
 8455TIP3    H125250   8.467   2.696   3.473
 8455TIP3    H225251   8.605   2.646   3.437
 8456TIP3   OH225252   8.756   2.712   4.307
 8456TIP3    H125253   8.753   2.795   4.357
 8456TIP3    H225254   8.669   2.717   4.261
 8457TIP3   OH225255   7.755   2.670   3.811
 8457TIP3    H125256   7.714   2.612   3.743
 8457TIP3    H225257   7.832   2.617   3.840
 8458TIP3   OH225258   7.885   3.082   3.959
 8458TIP3    H125259   7.864   3.040   3.875
 8458TIP3    H225260   7.975   3.048   3.978
 8459TIP3   OH225261   7.892   2.641   4.165
 8459TIP3    H125262   7.925   2.620   4.075
 8459TIP3    H225263   7.935   2.727   4.184
 8460TIP3   OH225264   8.417   3.279   3.942
 8460TIP3    H125265   8.403   3.359   3.995
 8460TIP3    H225266   8.401   3.206   4.005
 8461TIP3   OH225267   8.029   3.198   4.489
 8461TIP3    H125268   7.969   3.260   4.536
 8461TIP3    H225269   7.963   3.144   4.440
 8462TIP3   OH225270   8.362   2.531   3.220
 8462TIP3    H125271   8.422   2.589   3.272
 8462TIP3    H225272   8.389   2.554   3.127
 8463TIP3   OH225273   7.783   2.754   4.590
 8463TIP3    H125274   7.788   2.841   4.634
 8463TIP3    H225275   7.688   2.734   4.601
 8464TIP3   OH225276   8.106   3.210   3.495
 8464TIP3    H125277   8.186   3.263   3.511
 8464TIP3    H225278   8.045   3.275   3.457
 8465TIP3   OH225279   7.823   3.365   4.576
 8465TIP3    H125280   7.787   3.366   4.486
 8465TIP3    H225281   7.744   3.344   4.630
 8466TIP3   OH225282   8.889   1.791   3.298
 8466TIP3    H125283   8.799   1.806   3.332
 8466TIP3    H225284   8.894   1.855   3.225
 8467TIP3   OH225285   7.622   2.513   3.614
 8467TIP3    H125286   7.555   2.558   3.558
 8467TIP3    H225287   7.580   2.427   3.629
 8468TIP3   OH225288   8.676   3.140   2.815
 8468TIP3    H125289   8.684   3.237   2.802
 8468TIP3    H225290   8.770   3.112   2.803
 8469TIP3   OH225291   7.402   2.897   4.523
 8469TIP3    H125292   7.336   2.874   4.454
 8469TIP3    H225293   7.439   2.809   4.547
 8470TIP3   OH225294   7.256   3.089   4.156
 8470TIP3    H125295   7.352   3.084   4.147
 8470TIP3    H225296   7.246   3.169   4.211
 8471TIP3   OH225297   9.105   3.533   4.198
 8471TIP3    H125298   9.107   3.437   4.216
 8471TIP3    H225299   9.024   3.559   4.247
 8472TIP3   OH225300   8.227   3.327   4.346
 8472TIP3    H125301   8.225   3.419   4.378
 8472TIP3    H225302   8.155   3.287   4.400
 8473TIP3   OH225303   7.987   3.456   3.298
 8473TIP3    H125304   7.941   3.439   3.214
 8473TIP3    H225305   7.955   3.545   3.322
 8474TIP3   OH225306   7.425   3.305   3.682
 8474TIP3    H125307   7.473   3.296   3.767
 8474TIP3    H225308   7.368   3.227   3.686
 8475TIP3   OH225309   8.188   3.357   2.937
 8475TIP3    H125310   8.248   3.287   2.902
 8475TIP3    H225311   8.223   3.367   3.029
 8476TIP3   OH225312   8.239   3.405   3.207
 8476TIP3    H125313   8.151   3.415   3.250
 8476TIP3    H225314   8.290   3.365   3.279
 8477TIP3   OH225315   9.019   2.677   4.479
 8477TIP3    H125316   8.936   2.686   4.430
 8477TIP3    H225317   9.034   2.580   4.471
 8478TIP3   OH225318   7.607   3.079   4.510
 8478TIP3    H125319   7.656   3.064   4.594
 8478TIP3    H225320   7.532   3.016   4.519
 8479TIP3   OH225321   8.007   1.903   4.296
 8479TIP3    H125322   7.917   1.873   4.270
 8479TIP3    H225323   7.982   1.986   4.341
 8480TIP3   OH225324   8.541   2.017   4.489
 8480TIP3    H125325   8.609   1.991   4.554
 8480TIP3    H225326   8.457   1.998   4.537
 8481TIP3   OH225327   8.773   2.446   4.404
 8481TIP3    H125328   8.727   2.444   4.492
 8481TIP3    H225329   8.754   2.536   4.372
 8482TIP3   OH225330   8.436   2.579   2.963
 8482TIP3    H125331   8.406   2.552   2.875
 8482TIP3    H225332   8.520   2.623   2.942
 8483TIP3   OH225333   8.151   1.953   3.266
 8483TIP3    H125334   8.118   1.950   3.359
 8483TIP3    H225335   8.112   1.869   3.233
 8484TIP3   OH225336   7.937   2.419   4.314
 8484TIP3    H125337   7.887   2.441   4.395
 8484TIP3    H225338   7.922   2.500   4.260
 8485TIP3   OH225339   7.822   2.305   3.828
 8485TIP3    H125340   7.729   2.279   3.846
 8485TIP3    H225341   7.835   2.264   3.739
 8486TIP3   OH225342   8.313   2.390   3.555
 8486TIP3    H125343   8.260   2.461   3.513
 8486TIP3    H225344   8.368   2.360   3.480
 8487TIP3   OH225345   8.487   2.669   4.642
 8487TIP3    H125346   8.465   2.596   4.704
 8487TIP3    H225347   8.581   2.683   4.663
 8488TIP3   OH225348   8.468   2.418   3.795
 8488TIP3    H125349   8.409   2.448   3.723
 8488TIP3    H225350   8.502   2.337   3.752
 8489TIP3   OH225351   7.757   2.448   4.523
 8489TIP3    H125352   7.783   2.512   4.590
 8489TIP3    H225353   7.746   2.366   4.575
 8490TIP3   OH225354   7.806   1.925   3.232
 8490TIP3    H125355   7.798   1.923   3.330
 8490TIP3    H225356   7.728   1.978   3.208
 8491TIP3   OH225357   7.350   1.969   4.103
 8491TIP3    H125358   7.425   2.002   4.157
 8491TIP3    H225359   7.392   1.939   4.022
 8492TIP3   OH225360   7.323   1.951   3.623
 8492TIP3    H125361   7.368   1.989   3.545
 8492TIP3    H225362   7.261   2.024   3.644
 8493TIP3   OH225363   8.478   2.666   4.217
 8493TIP3    H125364   8.512   2.594   4.159
 8493TIP3    H225365   8.450   2.613   4.295
 8494TIP3   OH225366   8.148   2.126   3.889
 8494TIP3    H125367   8.067   2.125   3.943
 8494TIP3    H225368   8.218   2.126   3.957
 8495TIP3   OH225369   7.583   2.183   3.897
 8495TIP3    H125370   7.489   2.191   3.870
 8495TIP3    H225371   7.606   2.091   3.874
 8496TIP3   OH225372   7.852   2.178   3.586
 8496TIP3    H125373   7.946   2.194   3.565
 8496TIP3    H225374   7.806   2.201   3.503
 8497TIP3   OH225375   8.639   2.204   4.091
 8497TIP3    H125376   8.603   2.216   4.182
 8497TIP3    H225377   8.573   2.143   4.054
 8498TIP3   OH225378   7.695   2.212   3.364
 8498TIP3    H125379   7.622   2.168   3.316
 8498TIP3    H225380   7.746   2.249   3.290
 8499TIP3   OH225381   8.812   3.892   4.310
 8499TIP3    H125382   8.809   3.915   4.215
 8499TIP3    H225383   8.889   3.942   4.341
 8500TIP3   OH225384   7.769   3.001   4.731
 8500TIP3    H125385   7.848   3.032   4.780
 8500TIP3    H225386   7.704   3.001   4.804
 8501TIP3   OH225387   8.232   2.454   3.985
 8501TIP3    H125388   8.307   2.418   3.935
 8501TIP3    H225389   8.243   2.412   4.073
 8502TIP3   OH225390   7.755   1.943   3.865
 8502TIP3    H125391   7.721   1.864   3.911
 8502TIP3    H225392   7.804   1.905   3.791
 8503TIP3   OH225393   8.209   2.350   4.279
 8503TIP3    H125394   8.119   2.388   4.291
 8503TIP3    H225395   8.266   2.412   4.328
 8504TIP3   OH225396   7.945   2.743   3.370
 8504TIP3    H125397   7.873   2.677   3.360
 8504TIP3    H225398   7.927   2.777   3.462
 8505TIP3   OH225399   8.845   2.979   4.000
 8505TIP3    H125400   8.868   3.027   3.918
 8505TIP3    H225401   8.760   2.936   3.977
 8506TIP3   OH225402   8.404   2.055   3.234
 8506TIP3    H125403   8.307   2.040   3.242
 8506TIP3    H225404   8.414   2.149   3.257
 8507TIP3   OH225405   8.344   3.061   4.369
 8507TIP3    H125406   8.369   3.040   4.459
 8507TIP3    H225407   8.306   3.150   4.376
 8508TIP3   OH225408   8.475   2.302   3.336
 8508TIP3    H125409   8.571   2.308   3.351
 8508TIP3    H225410   8.457   2.382   3.283
 8509TIP3   OH225411   7.637   2.764   4.047
 8509TIP3    H125412   7.676   2.736   3.962
 8509TIP3    H225413   7.679   2.703   4.110
 8510TIP3   OH225414   8.089   2.892   3.190
 8510TIP3    H125415   8.042   2.978   3.197
 8510TIP3    H225416   8.036   2.837   3.252
 8511TIP3   OH225417   7.519   2.685   4.660
 8511TIP3    H125418   7.539   2.672   4.755
 8511TIP3    H225419   7.449   2.618   4.646
 8512TIP3   OH225420   8.244   2.799   4.680
 8512TIP3    H125421   8.185   2.740   4.631
 8512TIP3    H225422   8.332   2.765   4.652
 8513TIP3   OH225423   8.505   3.320   4.264
 8513TIP3    H125424   8.409   3.319   4.277
 8513TIP3    H225425   8.533   3.372   4.343
 8514TIP3   OH225426   8.907   2.384   3.185
 8514TIP3    H125427   8.847   2.340   3.121
 8514TIP3    H225428   8.932   2.460   3.130
 8515TIP3   OH225429   9.127   3.248   4.255
 8515TIP3    H125430   9.029   3.243   4.248
 8515TIP3    H225431   9.151   3.216   4.165
 8516TIP3   OH225432   8.611   3.212   3.080
 8516TIP3    H125433   8.593   3.141   3.143
 8516TIP3    H225434   8.629   3.164   2.997
 8517TIP3   OH225435   8.611   2.842   3.920
 8517TIP3    H125436   8.517   2.817   3.933
 8517TIP3    H225437   8.644   2.763   3.873
 8518TIP3   OH225438   7.739   3.068   3.671
 8518TIP3    H125439   7.739   3.150   3.618
 8518TIP3    H225440   7.644   3.053   3.683
 8519TIP3   OH225441   7.302   2.373   3.376
 8519TIP3    H125442   7.348   2.457   3.396
 8519TIP3    H225443   7.225   2.378   3.437
 8520TIP3   OH225444   7.876   2.834   3.615
 8520TIP3    H125445   7.842   2.923   3.634
 8520TIP3    H225446   7.841   2.784   3.691
 8521TIP3   OH225447   8.008   3.412   4.141
 8521TIP3    H125448   8.049   3.485   4.091
 8521TIP3    H225449   8.084   3.377   4.190
 8522TIP3   OH225450   7.658   3.308   3.524
 8522TIP3    H125451   7.572   3.316   3.571
 8522TIP3    H225452   7.690   3.400   3.527
 8523TIP3   OH225453   8.396   3.046   4.100
 8523TIP3    H125454   8.386   3.044   4.198
 8523TIP3    H225455   8.476   2.994   4.088
 8524TIP3   OH225456   8.371   2.938   2.983
 8524TIP3    H125457   8.425   2.914   3.062
 8524TIP3    H225458   8.283   2.912   3.014
 8525TIP3   OH225459   8.645   3.580   4.150
 8525TIP3    H125460   8.565   3.524   4.143
 8525TIP3    H225461   8.629   3.644   4.078
 8526TIP3   OH225462   8.710   3.416   2.803
 8526TIP3    H125463   8.751   3.491   2.756
 8526TIP3    H225464   8.629   3.460   2.835
 8527TIP3   OH225465   7.730   2.190   4.669
 8527TIP3    H125466   7.634   2.195   4.683
 8527TIP3    H225467   7.758   2.132   4.741
 8528TIP3   OH225468   8.528   2.874   3.201
 8528TIP3    H125469   8.520   2.807   3.271
 8528TIP3    H225470   8.625   2.871   3.186
 8529TIP3   OH225471   7.446   3.274   4.300
 8529TIP3    H125472   7.500   3.201   4.335
 8529TIP3    H225473   7.472   3.346   4.360
 8530TIP3   OH225474   7.736   2.920   2.982
 8530TIP3    H125475   7.751   2.828   2.955
 8530TIP3    H225476   7.718   2.909   3.077
 8531TIP3   OH225477   7.682   2.925   3.254
 8531TIP3    H125478   7.754   2.898   3.313
 8531TIP3    H225479   7.686   3.023   3.262
 8532TIP3   OH225480   7.417   2.618   3.458
 8532TIP3    H125481   7.351   2.663   3.515
 8532TIP3    H225482   7.431   2.688   3.391
 8533TIP3   OH225483   8.565   2.255   4.350
 8533TIP3    H125484   8.647   2.294   4.385
 8533TIP3    H225485   8.555   2.174   4.405
 8534TIP3   OH225486   8.446   2.007   3.515
 8534TIP3    H125487   8.433   2.030   3.421
 8534TIP3    H225488   8.486   2.089   3.552
 8535TIP3   OH225489   7.947   3.122   3.202
 8535TIP3    H125490   7.861   3.148   3.239
 8535TIP3    H225491   7.965   3.197   3.144
 8536TIP3   OH225492   8.135   2.186   3.617
 8536TIP3    H125493   8.200   2.257   3.599
 8536TIP3    H225494   8.141   2.178   3.714
 8537TIP3   OH225495   8.405   2.504   4.425
 8537TIP3    H125496   8.427   2.557   4.504
 8537TIP3    H225497   8.461   2.425   4.437
 8538TIP3   OH225498   8.280   1.911   3.719
 8538TIP3    H125499   8.275   1.986   3.781
 8538TIP3    H225500   8.340   1.947   3.650
 8539TIP3   OH225501   7.691   3.197   3.271
 8539TIP3    H125502   7.661   3.267   3.209
 8539TIP3    H225503   7.675   3.241   3.358
 8540TIP3   OH225504   7.792   1.911   3.509
 8540TIP3    H125505   7.790   2.002   3.545
 8540TIP3    H225506   7.889   1.893   3.517
 8541TIP3   OH225507   9.041   2.407   4.410
 8541TIP3    H125508   8.944   2.400   4.408
 8541TIP3    H225509   9.064   2.383   4.319
 8542TIP3   OH225510   8.687   2.606   3.790
 8542TIP3    H125511   8.615   2.542   3.804
 8542TIP3    H225512   8.762   2.563   3.838
 8543TIP3   OH225513   7.409   2.828   3.263
 8543TIP3    H125514   7.475   2.898   3.273
 8543TIP3    H225515   7.455   2.773   3.196
 8544TIP3   OH225516   7.354   2.103   3.397
 8544TIP3    H125517   7.353   2.201   3.393
 8544TIP3    H225518   7.270   2.081   3.354
 8545TIP3   OH225519   8.665   3.555   3.743
 8545TIP3    H125520   8.622   3.601   3.668
 8545TIP3    H225521   8.759   3.574   3.723
 8546TIP3   OH225522   7.742   1.824   4.270
 8546TIP3    H125523   7.710   1.790   4.183
 8546TIP3    H225524   7.731   1.745   4.328
 8547TIP3   OH225525   7.280   3.040   3.650
 8547TIP3    H125526   7.210   3.072   3.709
 8547TIP3    H225527   7.254   3.081   3.565
 8548TIP3   OH225528   7.437   3.583   4.721
 8548TIP3    H125529   7.523   3.585   4.769
 8548TIP3    H225530   7.417   3.489   4.722
 8549TIP3   OH225531   7.919   3.548   4.767
 8549TIP3    H125532   8.014   3.528   4.773
 8549TIP3    H225533   7.893   3.489   4.694
 8550TIP3   OH225534   7.899   3.123   2.894
 8550TIP3    H125535   7.843   3.053   2.933
 8550TIP3    H225536   7.976   3.070   2.865
 8551TIP3   OH225537   8.558   3.454   4.500
 8551TIP3    H125538   8.549   3.384   4.569
 8551TIP3    H225539   8.635   3.505   4.532
 8552TIP3   OH225540   8.335   3.163   2.807
 8552TIP3    H125541   8.380   3.101   2.867
 8552TIP3    H225542   8.393   3.163   2.729
 8553TIP3   OH225543   7.568   2.989   4.922
 8553TIP3    H125544   7.583   2.893   4.928
 8553TIP3    H225545   7.480   2.992   4.879
 8554TIP3   OH225546   7.545   2.641   3.116
 8554TIP3    H125547   7.600   2.608   3.189
 8554TIP3    H225548   7.612   2.645   3.045
 8555TIP3   OH225549   8.176   3.075   4.696
 8555TIP3    H125550   8.134   3.092   4.609
 8555TIP3    H225551   8.206   2.982   4.688
 8556TIP3   OH225552   8.053   2.839   2.922
 8556TIP3    H125553   8.057   2.852   3.019
 8556TIP3    H225554   8.053   2.741   2.917
 8557TIP3   OH225555   8.667   3.083   4.303
 8557TIP3    H125556   8.742   3.127   4.259
 8557TIP3    H225557   8.596   3.148   4.289
 8558TIP3   OH225558   7.687   2.723   4.905
 8558TIP3    H125559   7.762   2.667   4.884
 8558TIP3    H225560   7.712   2.757   4.993
 8559TIP3   OH225561   7.752   2.544   3.338
 8559TIP3    H125562   7.726   2.504   3.422
 8559TIP3    H225563   7.789   2.468   3.288
 8560TIP3   OH225564   8.022   2.608   4.566
 8560TIP3    H125565   7.944   2.668   4.568
 8560TIP3    H225566   8.071   2.642   4.488
 8561TIP3   OH225567   7.853   2.337   3.179
 8561TIP3    H125568   7.828   2.342   3.085
 8561TIP3    H225569   7.951   2.342   3.172
 8562TIP3   OH225570   8.539   3.011   4.700
 8562TIP3    H125571   8.618   2.986   4.652
 8562TIP3    H225572   8.536   2.943   4.770
 8563TIP3   OH225573   8.673   2.669   2.841
 8563TIP3    H125574   8.652   2.622   2.758
 8563TIP3    H225575   8.640   2.759   2.818
 8564TIP3   OH225576   8.145   2.397   4.692
 8564TIP3    H125577   8.145   2.317   4.635
 8564TIP3    H225578   8.101   2.463   4.634
 8565TIP3   OH225579   8.148   2.182   4.500
 8565TIP3    H125580   8.175   2.225   4.417
 8565TIP3    H225581   8.054   2.160   4.481
 8566TIP3   OH225582   8.175   2.718   4.373
 8566TIP3    H125583   8.258   2.728   4.326
 8566TIP3    H225584   8.118   2.785   4.328
 8567TIP3   OH225585   8.759   2.686   4.755
 8567TIP3    H125586   8.807   2.602   4.762
 8567TIP3    H225587   8.828   2.745   4.720
 8568TIP3   OH225588   8.798   2.939   4.491
 8568TIP3    H125589   8.740   2.992   4.431
 8568TIP3    H225590   8.886   2.958   4.451
 8569TIP3   OH225591   8.023   2.508   4.923
 8569TIP3    H125592   7.954   2.440   4.938
 8569TIP3    H225593   8.057   2.482   4.835
 8570TIP3   OH225594   8.279   1.946   4.567
 8570TIP3    H125595   8.231   2.028   4.544
 8570TIP3    H225596   8.209   1.878   4.555
 8571TIP3   OH225597   8.406   2.451   4.783
 8571TIP3    H125598   8.393   2.439   4.879
 8571TIP3    H225599   8.316   2.426   4.752
 8572TIP3   OH225600   8.645   2.402   4.639
 8572TIP3    H125601   8.570   2.402   4.701
 8572TIP3    H225602   8.719   2.370   4.695
 8573TIP3   OH225603   8.873   2.341   4.791
 8573TIP3    H125604   8.884   2.245   4.808
 8573TIP3    H225605   8.870   2.379   4.881
 8574TIP3   OH225606   7.862   2.288   4.976
 8574TIP3    H125607   7.869   2.197   4.941
 8574TIP3    H225608   7.898   2.277   5.066
 8575TIP3   OH225609   8.374   1.956   4.824
 8575TIP3    H125610   8.442   1.885   4.818
 8575TIP3    H225611   8.334   1.950   4.735
 8576TIP3   OH225612   8.440   2.171   4.984
 8576TIP3    H125613   8.418   2.100   4.919
 8576TIP3    H225614   8.362   2.230   4.977
 8577TIP3   OH225615   7.660   3.400   3.083
 8577TIP3    H125616   7.756   3.395   3.064
 8577TIP3    H225617   7.631   3.450   3.004
 8578TIP3   OH225618   7.140   2.782   3.299
 8578TIP3    H125619   7.235   2.804   3.286
 8578TIP3    H225620   7.135   2.693   3.258
 8579TIP3   OH225621   7.056   3.394   3.713
 8579TIP3    H125622   6.988   3.332   3.677
 8579TIP3    H225623   7.100   3.336   3.779
 8580TIP3   OH225624   7.192   3.245   3.900
 8580TIP3    H125625   7.180   3.172   3.963
 8580TIP3    H225626   7.243   3.307   3.955
 8581TIP3   OH225627   8.919   3.645   3.701
 8581TIP3    H125628   8.947   3.680   3.787
 8581TIP3    H225629   8.981   3.687   3.640
 8582TIP3   OH225630   8.948   3.665   3.984
 8582TIP3    H125631   8.902   3.579   3.976
 8582TIP3    H225632   9.022   3.637   4.039
 8583TIP3   OH225633   8.994   3.343   4.555
 8583TIP3    H125634   8.921   3.351   4.619
 8583TIP3    H225635   9.035   3.431   4.559
 8584TIP3   OH225636   8.802   2.858   3.172
 8584TIP3    H125637   8.870   2.925   3.148
 8584TIP3    H225638   8.845   2.816   3.250
 8585TIP3   OH225639   8.922   2.721   3.374
 8585TIP3    H125640   8.855   2.677   3.432
 8585TIP3    H225641   8.983   2.761   3.438
 8586TIP3   OH225642   8.992   3.110   3.806
 8586TIP3    H125643   9.038   3.055   3.741
 8586TIP3    H225644   8.979   3.193   3.756
 8587TIP3   OH225645   8.822   3.415   4.005
 8587TIP3    H125646   8.752   3.458   4.057
 8587TIP3    H225647   8.771   3.368   3.936
 8588TIP3   OH225648   8.881   2.639   3.018
 8588TIP3    H125649   8.803   2.635   2.957
 8588TIP3    H225650   8.851   2.709   3.079
 8589TIP3   OH225651   8.732   2.305   2.992
 8589TIP3    H125652   8.721   2.343   2.905
 8589TIP3    H225653   8.711   2.211   2.975
 8590TIP3   OH225654   8.748   2.578   3.525
 8590TIP3    H125655   8.759   2.482   3.519
 8590TIP3    H225656   8.733   2.592   3.621
 8591TIP3   OH225657   7.378   2.653   4.272
 8591TIP3    H125658   7.376   2.622   4.179
 8591TIP3    H225659   7.475   2.654   4.288
 8592TIP3   OH225660   9.041   3.003   4.381
 8592TIP3    H125661   9.117   2.941   4.372
 8592TIP3    H225662   9.067   3.075   4.321
 8593TIP3   OH225663   9.238   2.817   4.402
 8593TIP3    H125664   9.159   2.770   4.436
 8593TIP3    H225665   9.303   2.744   4.410
 8594TIP3   OH225666   8.687   2.038   2.965
 8594TIP3    H125667   8.763   2.004   3.017
 8594TIP3    H225668   8.614   1.978   2.990
 8595TIP3   OH225669   8.750   2.298   3.419
 8595TIP3    H125670   8.791   2.210   3.434
 8595TIP3    H225671   8.805   2.330   3.344
 8596TIP3   OH225672   8.899   2.489   3.905
 8596TIP3    H125673   8.982   2.520   3.864
 8596TIP3    H225674   8.922   2.496   3.999
 8597TIP3   OH225675   8.979   2.615   4.153
 8597TIP3    H125676   8.898   2.649   4.197
 8597TIP3    H225677   9.009   2.694   4.103
 8598TIP3   OH225678   7.595   2.339   4.944
 8598TIP3    H125679   7.693   2.333   4.948
 8598TIP3    H225680   7.571   2.254   4.987
 8599TIP3   OH225681   8.854   2.047   3.467
 8599TIP3    H125682   8.892   2.032   3.555
 8599TIP3    H225683   8.793   1.970   3.460
 8600TIP3   OH225684   7.557   2.032   4.276
 8600TIP3    H125685   7.620   1.957   4.287
 8600TIP3    H225686   7.619   2.107   4.270
 8601TIP3   OH225687   7.360   2.305   4.350
 8601TIP3    H125688   7.409   2.301   4.266
 8601TIP3    H225689   7.387   2.391   4.384
 8602TIP3   OH225690   9.287   2.332   4.527
 8602TIP3    H125691   9.208   2.386   4.546
 8602TIP3    H225692   9.249   2.273   4.459
 8603TIP3   OH225693   8.935   1.963   3.078
 8603TIP3    H125694   8.981   1.879   3.060
 8603TIP3    H225695   8.990   2.025   3.025
 8604TIP3   OH225696   7.343   1.808   3.851
 8604TIP3    H125697   7.250   1.805   3.878
 8604TIP3    H225698   7.340   1.867   3.773
 8605TIP3   OH225699   8.501   3.513   3.356
 8605TIP3    H125700   8.553   3.499   3.274
 8605TIP3    H225701   8.556   3.578   3.403
 8606TIP3   OH225702   7.563   1.886   4.664
 8606TIP3    H125703   7.513   1.884   4.747
 8606TIP3    H225704   7.497   1.927   4.605
 8607TIP3   OH225705   7.604   3.314   4.742
 8607TIP3    H125706   7.511   3.289   4.726
 8607TIP3    H225707   7.612   3.299   4.837
 8608TIP3   OH225708   7.781   3.348   4.289
 8608TIP3    H125709   7.733   3.424   4.251
 8608TIP3    H225710   7.867   3.363   4.245
 8609TIP3   OH225711   8.226   3.593   4.427
 8609TIP3    H125712   8.268   3.594   4.516
 8609TIP3    H225713   8.292   3.644   4.376
 8610TIP3   OH225714   8.405   3.745   4.286
 8610TIP3    H125715   8.477   3.694   4.245
 8610TIP3    H225716   8.456   3.802   4.348
 8611TIP3   OH225717   9.189   2.107   4.393
 8611TIP3    H125718   9.106   2.112   4.344
 8611TIP3    H225719   9.226   2.022   4.361
 8612TIP3   OH225720   7.457   3.605   4.314
 8612TIP3    H125721   7.368   3.638   4.291
 8612TIP3    H225722   7.469   3.645   4.401
 8613TIP3   OH225723   7.694   3.584   4.171
 8613TIP3    H125724   7.607   3.597   4.216
 8613TIP3    H225725   7.674   3.618   4.082
 8614TIP3   OH225726   8.120   3.613   3.969
 8614TIP3    H125727   8.050   3.633   3.904
 8614TIP3    H225728   8.132   3.701   4.012
 8615TIP3   OH225729   8.389   3.552   4.020
 8615TIP3    H125730   8.294   3.569   4.001
 8615TIP3    H225731   8.432   3.628   3.979
 8616TIP3   OH225732   8.597   3.745   3.936
 8616TIP3    H125733   8.582   3.829   3.888
 8616TIP3    H225734   8.622   3.684   3.863
 8617TIP3   OH225735   7.369   3.399   4.058
 8617TIP3    H125736   7.395   3.374   4.149
 8617TIP3    H225737   7.441   3.355   4.008
 8618TIP3   OH225738   7.563   3.271   3.915
 8618TIP3    H125739   7.578   3.187   3.965
 8618TIP3    H225740   7.654   3.307   3.911
 8619TIP3   OH225741   7.829   3.365   3.918
 8619TIP3    H125742   7.861   3.274   3.907
 8619TIP3    H225743   7.873   3.388   4.003
 8620TIP3   OH225744   8.403   2.022   4.002
 8620TIP3    H125745   8.362   1.952   4.056
 8620TIP3    H225746   8.479   1.976   3.961
 8621TIP3   OH225747   8.927   1.907   3.933
 8621TIP3    H125748   8.961   1.956   3.855
 8621TIP3    H225749   8.831   1.920   3.924
 8622TIP3   OH225750   9.016   1.999   3.693
 8622TIP3    H125751   9.099   1.955   3.667
 8622TIP3    H225752   9.041   2.094   3.681
 8623TIP3   OH225753   7.653   1.731   4.021
 8623TIP3    H125754   7.561   1.698   4.023
 8623TIP3    H225755   7.702   1.646   4.017
 8624TIP3   OH225756   7.442   1.600   3.670
 8624TIP3    H125757   7.470   1.658   3.597
 8624TIP3    H225758   7.412   1.665   3.737
 8625TIP3   OH225759   8.099   1.760   3.903
 8625TIP3    H125760   8.154   1.811   3.842
 8625TIP3    H225761   8.118   1.802   3.988
 8626TIP3   OH225762   8.638   1.910   3.889
 8626TIP3    H125763   8.652   1.873   3.801
 8626TIP3    H225764   8.627   1.828   3.942
 8627TIP3   OH225765   8.664   1.837   3.451
 8627TIP3    H125766   8.578   1.881   3.468
 8627TIP3    H225767   8.650   1.751   3.496
 8628TIP3   OH225768   7.157   3.171   3.449
 8628TIP3    H125769   7.072   3.139   3.415
 8628TIP3    H225770   7.147   3.266   3.432
 8629TIP3   OH225771   7.557   1.759   3.434
 8629TIP3    H125772   7.605   1.697   3.376
 8629TIP3    H225773   7.630   1.814   3.470
 8630TIP3   OH225774   8.070   1.935   3.532
 8630TIP3    H125775   8.131   1.890   3.593
 8630TIP3    H225776   8.090   2.028   3.557
 8631TIP3   OH225777   7.929   3.360   3.031
 8631TIP3    H125778   8.018   3.382   2.996
 8631TIP3    H225779   7.907   3.285   2.972
 8632TIP3   OH225780   8.647   3.478   3.124
 8632TIP3    H125781   8.638   3.380   3.112
 8632TIP3    H225782   8.603   3.510   3.043
 8633TIP3   OH225783   7.861   2.011   4.911
 8633TIP3    H125784   7.826   1.941   4.970
 8633TIP3    H225785   7.955   2.011   4.940
 8634TIP3   OH225786   8.110   2.008   5.032
 8634TIP3    H125787   8.195   1.984   4.993
 8634TIP3    H225788   8.098   1.938   5.099
 8635TIP3   OH225789   7.233   3.197   3.088
 8635TIP3    H125790   7.232   3.222   3.181
 8635TIP3    H225791   7.321   3.156   3.077
 8636TIP3   OH225792   8.933   2.070   4.821
 8636TIP3    H125793   8.955   2.039   4.912
 8636TIP3    H225794   9.020   2.068   4.777
 8637TIP3   OH225795   8.871   3.623   4.314
 8637TIP3    H125796   8.792   3.592   4.265
 8637TIP3    H225797   8.852   3.719   4.318
 8638TIP3   OH225798   9.094   2.500   3.352
 8638TIP3    H125799   9.031   2.575   3.354
 8638TIP3    H225800   9.044   2.437   3.298
 8639TIP3   OH225801   9.148   2.795   3.509
 8639TIP3    H125802   9.190   2.717   3.546
 8639TIP3    H225803   9.189   2.795   3.420
 8640TIP3   OH225804   9.004   3.031   3.093
 8640TIP3    H125805   8.993   3.036   2.997
 8640TIP3    H225806   9.040   3.119   3.114
 8641TIP3   OH225807   9.187   3.152   4.012
 8641TIP3    H125808   9.122   3.126   3.944
 8641TIP3    H225809   9.228   3.067   4.038
 8642TIP3   OH225810   9.055   3.346   3.646
 8642TIP3    H125811   9.152   3.348   3.639
 8642TIP3    H225812   9.039   3.427   3.697
 8643TIP3   OH225813   9.190   3.565   3.189
 8643TIP3    H125814   9.245   3.562   3.270
 8643TIP3    H225815   9.145   3.479   3.191
 8644TIP3   OH225816   9.441   3.283   3.982
 8644TIP3    H125817   9.478   3.352   4.038
 8644TIP3    H225818   9.355   3.261   4.023
 8645TIP3   OH225819   9.112   2.242   3.619
 8645TIP3    H125820   9.174   2.290   3.676
 8645TIP3    H225821   9.122   2.286   3.534
 8646TIP3   OH225822   9.297   2.938   4.149
 8646TIP3    H125823   9.314   2.903   4.238
 8646TIP3    H225824   9.229   2.876   4.116
 8647TIP3   OH225825   9.078   2.700   2.837
 8647TIP3    H125826   9.151   2.691   2.900
 8647TIP3    H225827   9.002   2.679   2.895
 8648TIP3   OH225828   9.241   3.535   3.789
 8648TIP3    H125829   9.295   3.459   3.815
 8648TIP3    H225830   9.277   3.607   3.842
 8649TIP3   OH225831   9.074   3.298   3.141
 8649TIP3    H125832   8.995   3.324   3.190
 8649TIP3    H225833   9.055   3.339   3.054
 8650TIP3   OH225834   9.229   3.843   4.205
 8650TIP3    H125835   9.313   3.816   4.247
 8650TIP3    H225836   9.189   3.755   4.199
 8651TIP3   OH225837   9.357   3.275   4.403
 8651TIP3    H125838   9.389   3.188   4.431
 8651TIP3    H225839   9.275   3.254   4.354
 8652TIP3   OH225840   8.934   3.045   2.779
 8652TIP3    H125841   9.031   3.036   2.788
 8652TIP3    H225842   8.915   2.962   2.729
 8653TIP3   OH225843   8.848   3.651   3.202
 8653TIP3    H125844   8.783   3.588   3.165
 8653TIP3    H225845   8.895   3.594   3.267
 8654TIP3   OH225846   8.980   3.500   3.392
 8654TIP3    H125847   8.971   3.428   3.456
 8654TIP3    H225848   9.035   3.562   3.443
 8655TIP3   OH225849   9.202   2.904   3.761
 8655TIP3    H125850   9.179   2.875   3.670
 8655TIP3    H225851   9.282   2.957   3.745
 8656TIP3   OH225852   9.375   2.584   4.412
 8656TIP3    H125853   9.466   2.618   4.424
 8656TIP3    H225854   9.374   2.508   4.474
 8657TIP3   OH225855   9.148   2.579   3.805
 8657TIP3    H125856   9.213   2.509   3.817
 8657TIP3    H225857   9.190   2.657   3.843
 8658TIP3   OH225858   9.102   2.116   3.321
 8658TIP3    H125859   9.006   2.104   3.332
 8658TIP3    H225860   9.108   2.143   3.229
 8659TIP3   OH225861   9.360   3.610   4.297
 8659TIP3    H125862   9.287   3.562   4.254
 8659TIP3    H225863   9.382   3.551   4.370
 8660TIP3   OH225864   9.244   3.854   3.801
 8660TIP3    H125865   9.159   3.895   3.775
 8660TIP3    H225866   9.259   3.899   3.885
 8661TIP3   OH225867   9.498   3.849   3.673
 8661TIP3    H125868   9.405   3.851   3.703
 8661TIP3    H225869   9.489   3.879   3.581
 8662TIP3   OH225870   9.165   3.654   3.543
 8662TIP3    H125871   9.192   3.634   3.635
 8662TIP3    H225872   9.243   3.619   3.495
 8663TIP3   OH225873   9.373   3.542   3.394
 8663TIP3    H125874   9.399   3.449   3.389
 8663TIP3    H225875   9.461   3.586   3.399
 8664TIP3   OH225876   8.952   3.425   2.937
 8664TIP3    H125877   8.867   3.395   2.901
 8664TIP3    H225878   8.944   3.521   2.924
 8665TIP3   OH225879   9.046   3.465   2.584
 8665TIP3    H125880   9.020   3.493   2.673
 8665TIP3    H225881   9.105   3.391   2.603
 8666TIP3   OH225882   0.796   3.525   5.281
 8666TIP3    H125883   0.769   3.617   5.262
 8666TIP3    H225884   0.719   3.477   5.247
 8667TIP3   OH225885   0.800   3.525   5.660
 8667TIP3    H125886   0.827   3.498   5.749
 8667TIP3    H225887   0.753   3.447   5.628
 8668TIP3   OH225888   0.092   3.421   6.021
 8668TIP3    H125889   0.119   3.352   6.084
 8668TIP3    H225890   0.167   3.481   6.026
 8669TIP3   OH225891   1.042   3.825   5.343
 8669TIP3    H125892   1.022   3.761   5.412
 8669TIP3    H225893   1.064   3.904   5.394
 8670TIP3   OH225894   0.075   3.829   5.754
 8670TIP3    H125895   0.063   3.732   5.757
 8670TIP3    H225896   0.172   3.835   5.744
 8671TIP3   OH225897  -0.275   3.027   5.541
 8671TIP3    H125898  -0.265   3.122   5.557
 8671TIP3    H225899  -0.278   2.992   5.630
 8672TIP3   OH225900  -0.164   3.314   5.701
 8672TIP3    H125901  -0.111   3.244   5.744
 8672TIP3    H225902  -0.100   3.358   5.644
 8673TIP3   OH225903   0.646   4.220   5.375
 8673TIP3    H125904   0.719   4.200   5.313
 8673TIP3    H225905   0.690   4.267   5.445
 8674TIP3   OH225906   0.594   3.751   5.711
 8674TIP3    H125907   0.634   3.677   5.661
 8674TIP3    H225908   0.677   3.797   5.736
 8675TIP3   OH225909   1.608   3.072   5.709
 8675TIP3    H125910   1.636   3.155   5.752
 8675TIP3    H225911   1.628   3.091   5.616
 8676TIP3   OH225912   1.005   3.253   5.744
 8676TIP3    H125913   1.049   3.168   5.763
 8676TIP3    H225914   0.976   3.238   5.652
 8677TIP3   OH225915   0.345   2.913   5.709
 8677TIP3    H125916   0.326   2.986   5.648
 8677TIP3    H225917   0.296   2.840   5.665
 8678TIP3   OH225918   1.039   3.003   5.331
 8678TIP3    H125919   1.112   2.988   5.395
 8678TIP3    H225920   1.089   3.039   5.256
 8679TIP3   OH225921  -0.020   3.111   5.810
 8679TIP3    H125922   0.057   3.096   5.868
 8679TIP3    H225923   0.003   3.054   5.735
 8680TIP3   OH225924   0.421   3.312   5.604
 8680TIP3    H125925   0.514   3.286   5.620
 8680TIP3    H225926   0.381   3.228   5.574
 8681TIP3   OH225927   1.681   3.280   5.878
 8681TIP3    H125928   1.598   3.328   5.859
 8681TIP3    H225929   1.695   3.307   5.970
 8682TIP3   OH225930   0.341   2.895   6.142
 8682TIP3    H125931   0.281   2.934   6.075
 8682TIP3    H225932   0.290   2.914   6.224
 8683TIP3   OH225933   0.689   3.749   5.151
 8683TIP3    H125934   0.646   3.733   5.066
 8683TIP3    H225935   0.651   3.836   5.175
 8684TIP3   OH225936   0.449   3.670   5.938
 8684TIP3    H125937   0.386   3.736   5.975
 8684TIP3    H225938   0.490   3.721   5.865
 8685TIP3   OH225939   1.250   3.004   5.504
 8685TIP3    H125940   1.235   2.965   5.591
 8685TIP3    H225941   1.302   3.083   5.527
 8686TIP3   OH225942   0.211   3.012   5.929
 8686TIP3    H125943   0.272   3.086   5.952
 8686TIP3    H225944   0.261   2.971   5.854
 8687TIP3   OH225945   0.279   3.864   6.034
 8687TIP3    H125946   0.255   3.950   5.994
 8687TIP3    H225947   0.200   3.850   6.090
 8688TIP3   OH225948  -0.281   3.570   5.221
 8688TIP3    H125949  -0.363   3.609   5.184
 8688TIP3    H225950  -0.263   3.632   5.294
 8689TIP3   OH225951   1.114   4.072   5.510
 8689TIP3    H125952   1.026   4.062   5.553
 8689TIP3    H225953   1.102   4.157   5.464
 8690TIP3   OH225954   1.401   2.970   5.873
 8690TIP3    H125955   1.314   3.001   5.844
 8690TIP3    H225956   1.460   3.004   5.803
 8691TIP3   OH225957   0.699   2.615   5.858
 8691TIP3    H125958   0.683   2.521   5.877
 8691TIP3    H225959   0.621   2.656   5.903
 8692TIP3   OH225960   0.827   4.121   5.194
 8692TIP3    H125961   0.870   4.038   5.165
 8692TIP3    H225962   0.883   4.186   5.146
 8693TIP3   OH225963   0.959   3.900   5.089
 8693TIP3    H125964   0.911   3.823   5.055
 8693TIP3    H225965   0.993   3.866   5.175
 8694TIP3   OH225966   1.337   3.984   5.855
 8694TIP3    H125967   1.323   3.907   5.796
 8694TIP3    H225968   1.317   4.059   5.795
 8695TIP3   OH225969   0.627   3.377   5.112
 8695TIP3    H125970   0.547   3.430   5.092
 8695TIP3    H225971   0.673   3.376   5.027
 8696TIP3   OH225972   0.586   3.160   4.831
 8696TIP3    H125973   0.653   3.214   4.877
 8696TIP3    H225974   0.645   3.099   4.782
 8697TIP3   OH225975   1.532   3.622   5.700
 8697TIP3    H125976   1.448   3.673   5.706
 8697TIP3    H225977   1.560   3.646   5.609
 8698TIP3   OH225978   0.974   3.459   5.084
 8698TIP3    H125979   0.920   3.485   5.162
 8698TIP3    H225980   1.059   3.436   5.128
 8699TIP3   OH225981   1.210   3.500   5.996
 8699TIP3    H125982   1.207   3.583   6.047
 8699TIP3    H225983   1.123   3.504   5.951
 8700TIP3   OH225984   0.207   3.457   5.502
 8700TIP3    H125985   0.167   3.400   5.434
 8700TIP3    H225986   0.286   3.405   5.529
 8701TIP3   OH225987   0.338   3.864   5.650
 8701TIP3    H125988   0.320   3.828   5.562
 8701TIP3    H225989   0.429   3.833   5.667
 8702TIP3   OH225990   0.350   3.427   5.854
 8702TIP3    H125991   0.380   3.411   5.763
 8702TIP3    H225992   0.388   3.515   5.875
 8703TIP3   OH225993   0.879   4.065   5.637
 8703TIP3    H125994   0.853   4.146   5.684
 8703TIP3    H225995   0.854   3.994   5.699
 8704TIP3   OH225996   0.482   3.985   6.180
 8704TIP3    H125997   0.422   4.049   6.224
 8704TIP3    H225998   0.416   3.933   6.129
 8705TIP3   OH225999   0.815   3.318   4.910
 8705TIP3    H126000   0.874   3.378   4.961
 8705TIP3    H226001   0.841   3.341   4.817
 8706TIP3   OH226002   0.246   3.543   6.275
 8706TIP3    H126003   0.249   3.633   6.314
 8706TIP3    H226004   0.152   3.521   6.290
 8707TIP3   OH226005   0.561   4.001   5.179
 8707TIP3    H126006   0.620   4.057   5.231
 8707TIP3    H226007   0.494   4.064   5.150
 8708TIP3   OH226008   0.281   4.156   6.266
 8708TIP3    H126009   0.244   4.153   6.176
 8708TIP3    H226010   0.209   4.117   6.320
 8709TIP3   OH226011   1.333   2.560   4.959
 8709TIP3    H126012   1.250   2.582   5.007
 8709TIP3    H226013   1.347   2.641   4.907
 8710TIP3   OH226014   0.077   3.297   5.308
 8710TIP3    H126015   0.018   3.343   5.245
 8710TIP3    H226016   0.029   3.215   5.322
 8711TIP3   OH226017   1.129   3.926   4.505
 8711TIP3    H126018   1.137   4.023   4.492
 8711TIP3    H226019   1.222   3.898   4.494
 8712TIP3   OH226020  -0.144   3.698   6.208
 8712TIP3    H126021  -0.191   3.657   6.134
 8712TIP3    H226022  -0.109   3.619   6.253
 8713TIP3   OH226023   1.574   4.331   5.899
 8713TIP3    H126024   1.573   4.234   5.914
 8713TIP3    H226025   1.491   4.356   5.946
 8714TIP3   OH226026   0.680   4.114   6.037
 8714TIP3    H126027   0.678   4.207   6.068
 8714TIP3    H226028   0.608   4.075   6.090
 8715TIP3   OH226029   0.430   4.240   4.987
 8715TIP3    H126030   0.397   4.232   4.896
 8715TIP3    H226031   0.445   4.334   4.999
 8716TIP3   OH226032  -0.082   4.078   5.339
 8716TIP3    H126033  -0.065   4.057   5.433
 8716TIP3    H226034  -0.171   4.045   5.323
 8717TIP3   OH226035   0.639   4.144   4.628
 8717TIP3    H126036   0.700   4.075   4.593
 8717TIP3    H226037   0.674   4.156   4.720
 8718TIP3   OH226038   0.688   4.192   4.900
 8718TIP3    H126039   0.602   4.197   4.948
 8718TIP3    H226040   0.746   4.162   4.972
 8719TIP3   OH226041   1.465   3.461   6.174
 8719TIP3    H126042   1.382   3.474   6.127
 8719TIP3    H226043   1.478   3.365   6.165
 8720TIP3   OH226044   0.066   3.872   6.199
 8720TIP3    H126045   0.109   3.866   6.286
 8720TIP3    H226046  -0.007   3.806   6.209
 8721TIP3   OH226047   0.460   2.691   5.985
 8721TIP3    H126048   0.370   2.660   5.961
 8721TIP3    H226049   0.436   2.774   6.029
 8722TIP3   OH226050   0.993   2.804   6.179
 8722TIP3    H126051   1.062   2.780   6.245
 8722TIP3    H226052   0.910   2.787   6.227
 8723TIP3   OH226053   1.232   3.236   6.098
 8723TIP3    H126054   1.182   3.232   6.183
 8723TIP3    H226055   1.207   3.324   6.063
 8724TIP3   OH226056   0.892   3.364   4.655
 8724TIP3    H126057   0.858   3.340   4.567
 8724TIP3    H226058   0.972   3.414   4.630
 8725TIP3   OH226059   0.602   2.738   4.957
 8725TIP3    H126060   0.569   2.734   5.048
 8725TIP3    H226061   0.563   2.656   4.920
 8726TIP3   OH226062   0.392   3.206   6.004
 8726TIP3    H126063   0.340   3.228   6.084
 8726TIP3    H226064   0.377   3.287   5.950
 8727TIP3   OH226065   0.275   3.090   5.517
 8727TIP3    H126066   0.181   3.070   5.532
 8727TIP3    H226067   0.288   3.051   5.428
 8728TIP3   OH226068   0.764   3.176   5.244
 8728TIP3    H126069   0.712   3.249   5.203
 8728TIP3    H226070   0.819   3.148   5.169
 8729TIP3   OH226071   0.939   3.456   6.330
 8729TIP3    H126072   0.917   3.384   6.393
 8729TIP3    H226073   1.033   3.472   6.353
 8730TIP3   OH226074   0.921   3.207   5.485
 8730TIP3    H126075   0.862   3.239   5.415
 8730TIP3    H226076   0.953   3.126   5.440
 8731TIP3   OH226077   0.214   3.236   6.210
 8731TIP3    H126078   0.226   3.304   6.278
 8731TIP3    H226079   0.200   3.156   6.263
 8732TIP3   OH226080   0.262   2.713   4.923
 8732TIP3    H126081   0.250   2.713   5.020
 8732TIP3    H226082   0.184   2.764   4.895
 8733TIP3   OH226083  -0.205   2.774   5.760
 8733TIP3    H126084  -0.148   2.800   5.836
 8733TIP3    H226085  -0.153   2.702   5.724
 8734TIP3   OH226086  -0.209   2.769   5.332
 8734TIP3    H126087  -0.179   2.782   5.240
 8734TIP3    H226088  -0.258   2.851   5.345
 8735TIP3   OH226089   0.932   3.453   5.908
 8735TIP3    H126090   0.965   3.381   5.850
 8735TIP3    H226091   0.902   3.400   5.985
 8736TIP3   OH226092   0.599   2.908   5.580
 8736TIP3    H126093   0.518   2.912   5.633
 8736TIP3    H226094   0.668   2.917   5.648
 8737TIP3   OH226095   0.030   2.970   5.578
 8737TIP3    H126096  -0.060   2.960   5.543
 8737TIP3    H226097   0.066   2.880   5.568
 8738TIP3   OH226098   0.305   2.964   5.274
 8738TIP3    H126099   0.398   2.986   5.254
 8738TIP3    H226100   0.258   2.990   5.191
 8739TIP3   OH226101   1.095   2.990   5.779
 8739TIP3    H126102   1.063   3.003   5.871
 8739TIP3    H226103   1.025   2.931   5.744
 8740TIP3   OH226104   0.147   2.998   5.052
 8740TIP3    H126105   0.079   2.953   4.999
 8740TIP3    H226106   0.201   3.038   4.981
 8741TIP3   OH226107   1.264   4.678   6.000
 8741TIP3    H126108   1.260   4.704   5.906
 8741TIP3    H226109   1.339   4.732   6.032
 8742TIP3   OH226110   0.229   3.784   6.420
 8742TIP3    H126111   0.308   3.818   6.467
 8742TIP3    H226112   0.161   3.796   6.489
 8743TIP3   OH226113   0.684   3.239   5.675
 8743TIP3    H126114   0.762   3.207   5.626
 8743TIP3    H226115   0.696   3.200   5.763
 8744TIP3   OH226116   0.205   2.733   5.555
 8744TIP3    H126117   0.172   2.653   5.600
 8744TIP3    H226118   0.245   2.698   5.475
 8745TIP3   OH226119   0.662   3.138   5.970
 8745TIP3    H126120   0.572   3.176   5.981
 8745TIP3    H226121   0.718   3.201   6.018
 8746TIP3   OH226122   0.399   3.530   5.061
 8746TIP3    H126123   0.325   3.466   5.050
 8746TIP3    H226124   0.380   3.564   5.152
 8747TIP3   OH226125   1.298   3.765   5.691
 8747TIP3    H126126   1.321   3.816   5.610
 8747TIP3    H226127   1.212   3.725   5.667
 8748TIP3   OH226128   0.857   2.839   4.932
 8748TIP3    H126129   0.760   2.826   4.932
 8748TIP3    H226130   0.867   2.935   4.948
 8749TIP3   OH226131   0.798   3.849   6.059
 8749TIP3    H126132   0.820   3.830   6.151
 8749TIP3    H226133   0.759   3.938   6.065
 8750TIP3   OH226134   0.926   3.091   5.027
 8750TIP3    H126135   1.022   3.099   5.041
 8750TIP3    H226136   0.906   3.170   4.974
 8751TIP3   OH226137   0.090   3.551   5.737
 8751TIP3    H126138   0.132   3.522   5.653
 8751TIP3    H226139   0.127   3.490   5.802
 8752TIP3   OH226140   0.543   3.679   4.881
 8752TIP3    H126141   0.495   3.765   4.886
 8752TIP3    H226142   0.490   3.625   4.943
 8753TIP3   OH226143  -0.007   3.475   6.351
 8753TIP3    H126144   0.003   3.466   6.447
 8753TIP3    H226145  -0.097   3.440   6.335
 8754TIP3   OH226146   0.696   3.587   6.371
 8754TIP3    H126147   0.636   3.529   6.322
 8754TIP3    H226148   0.783   3.553   6.341
 8755TIP3   OH226149   0.959   4.105   5.957
 8755TIP3    H126150   0.862   4.106   5.967
 8755TIP3    H226151   0.986   4.160   6.034
 8756TIP3   OH226152   1.368   3.181   4.863
 8756TIP3    H126153   1.306   3.137   4.801
 8756TIP3    H226154   1.365   3.270   4.822
 8757TIP3   OH226155   1.587   4.038   5.943
 8757TIP3    H126156   1.489   4.034   5.936
 8757TIP3    H226157   1.611   4.008   5.853
 8758TIP3   OH226158   1.073   4.000   4.772
 8758TIP3    H126159   1.040   3.933   4.835
 8758TIP3    H226160   1.080   3.951   4.688
 8759TIP3   OH226161   1.065   3.628   5.611
 8759TIP3    H126162   0.971   3.604   5.624
 8759TIP3    H226163   1.097   3.549   5.564
 8760TIP3   OH226164   0.197   3.856   5.358
 8760TIP3    H126165   0.202   3.938   5.304
 8760TIP3    H226166   0.102   3.852   5.377
 8761TIP3   OH226167  -0.243   3.164   5.069
 8761TIP3    H126168  -0.176   3.235   5.077
 8761TIP3    H226169  -0.313   3.204   5.124
 8762TIP3   OH226170   0.329   3.620   5.306
 8762TIP3    H126171   0.296   3.711   5.322
 8762TIP3    H226172   0.292   3.572   5.382
 8763TIP3   OH226173   0.460   4.204   5.828
 8763TIP3    H126174   0.502   4.275   5.774
 8763TIP3    H226175   0.537   4.168   5.875
 8764TIP3   OH226176   0.146   4.100   5.201
 8764TIP3    H126177   0.060   4.104   5.249
 8764TIP3    H226178   0.173   4.195   5.205
 8765TIP3   OH226179   0.847   3.832   5.791
 8765TIP3    H126180   0.838   3.831   5.889
 8765TIP3    H226181   0.929   3.782   5.778
 8766TIP3   OH226182   0.823   3.726   4.672
 8766TIP3    H126183   0.876   3.700   4.751
 8766TIP3    H226184   0.734   3.702   4.703
 8767TIP3   OH226185   1.097   4.367   5.839
 8767TIP3    H126186   1.017   4.312   5.831
 8767TIP3    H226187   1.082   4.433   5.767
 8768TIP3   OH226188   1.162   4.202   4.492
 8768TIP3    H126189   1.197   4.274   4.437
 8768TIP3    H226190   1.083   4.247   4.528
 8769TIP3   OH226191   0.192   2.974   6.366
 8769TIP3    H126192   0.100   2.987   6.393
 8769TIP3    H226193   0.223   2.912   6.434
 8770TIP3   OH226194   0.983   3.658   4.887
 8770TIP3    H126195   0.973   3.594   4.960
 8770TIP3    H226196   1.080   3.658   4.876
 8771TIP3   OH226197  -0.069   4.085   5.981
 8771TIP3    H126198  -0.037   3.994   5.990
 8771TIP3    H226199  -0.063   4.115   6.072
 8772TIP3   OH226200   0.188   3.708   4.672
 8772TIP3    H126201   0.204   3.616   4.644
 8772TIP3    H226202   0.171   3.697   4.768
 8773TIP3   OH226203   0.138   3.712   4.946
 8773TIP3    H126204   0.211   3.690   5.004
 8773TIP3    H226205   0.139   3.811   4.949
 8774TIP3   OH226206  -0.104   3.394   5.126
 8774TIP3    H126207  -0.171   3.447   5.174
 8774TIP3    H226208  -0.084   3.458   5.056
 8775TIP3   OH226209   1.023   3.039   6.037
 8775TIP3    H126210   1.098   3.082   6.081
 8775TIP3    H226211   1.007   2.961   6.093
 8776TIP3   OH226212   0.900   2.790   5.207
 8776TIP3    H126213   0.883   2.813   5.113
 8776TIP3    H226214   0.937   2.874   5.241
 8777TIP3   OH226215   0.398   3.907   4.891
 8777TIP3    H126216   0.313   3.937   4.929
 8777TIP3    H226217   0.423   3.985   4.839
 8778TIP3   OH226218   0.586   2.974   5.306
 8778TIP3    H126219   0.651   3.045   5.287
 8778TIP3    H226220   0.594   2.966   5.403
 8779TIP3   OH226221   0.858   3.292   6.115
 8779TIP3    H126222   0.877   3.349   6.193
 8779TIP3    H226223   0.914   3.214   6.133
 8780TIP3   OH226224   0.732   2.701   5.411
 8780TIP3    H126225   0.728   2.779   5.470
 8780TIP3    H226226   0.795   2.732   5.343
 8781TIP3   OH226227   0.139   3.983   4.955
 8781TIP3    H126228   0.111   4.055   4.895
 8781TIP3    H226229   0.138   4.029   5.042
 8782TIP3   OH226230   0.247   2.698   5.203
 8782TIP3    H126231   0.242   2.790   5.233
 8782TIP3    H226232   0.344   2.683   5.210
 8783TIP3   OH226233   1.498   3.192   6.095
 8783TIP3    H126234   1.400   3.191   6.103
 8783TIP3    H226235   1.508   3.153   6.007
 8784TIP3   OH226236   1.150   3.386   5.483
 8784TIP3    H126237   1.073   3.328   5.496
 8784TIP3    H226238   1.221   3.339   5.532
 8785TIP3   OH226239  -0.126   3.623   4.945
 8785TIP3    H126240  -0.053   3.685   4.959
 8785TIP3    H226241  -0.086   3.566   4.876
 8786TIP3   OH226242  -0.200   2.890   5.090
 8786TIP3    H126243  -0.198   2.988   5.091
 8786TIP3    H226244  -0.262   2.872   5.018
 8787TIP3   OH226245   1.116   4.345   5.432
 8787TIP3    H126246   1.071   4.389   5.357
 8787TIP3    H226247   1.210   4.362   5.408
 8788TIP3   OH226248   0.198   2.606   5.960
 8788TIP3    H126249   0.162   2.576   5.874
 8788TIP3    H226250   0.181   2.529   6.018
 8789TIP3   OH226251  -0.248   3.794   5.373
 8789TIP3    H126252  -0.330   3.844   5.362
 8789TIP3    H226253  -0.198   3.829   5.298
 8790TIP3   OH226254   0.365   4.345   6.455
 8790TIP3    H126255   0.458   4.323   6.466
 8790TIP3    H226256   0.341   4.282   6.384
 8791TIP3   OH226257   0.351   3.912   4.583
 8791TIP3    H126258   0.296   3.841   4.623
 8791TIP3    H226259   0.427   3.860   4.552
 8792TIP3   OH226260   1.010   4.243   6.191
 8792TIP3    H126261   1.001   4.173   6.259
 8792TIP3    H226262   1.087   4.294   6.222
 8793TIP3   OH226263   0.788   3.952   4.496
 8793TIP3    H126264   0.834   3.888   4.554
 8793TIP3    H226265   0.845   3.952   4.416
 8794TIP3   OH226266   0.038   3.760   6.620
 8794TIP3    H126267   0.072   3.669   6.617
 8794TIP3    H226268  -0.057   3.742   6.603
 8795TIP3   OH226269   0.001   3.426   4.807
 8795TIP3    H126270   0.059   3.396   4.878
 8795TIP3    H226271   0.066   3.432   4.733
 8796TIP3   OH226272   0.628   3.863   6.385
 8796TIP3    H126273   0.586   3.880   6.299
 8796TIP3    H226274   0.658   3.770   6.377
 8797TIP3   OH226275   0.506   3.627   4.613
 8797TIP3    H126276   0.509   3.640   4.710
 8797TIP3    H226277   0.506   3.529   4.608
 8798TIP3   OH226278   1.121   3.870   5.992
 8798TIP3    H126279   1.194   3.917   5.948
 8798TIP3    H226280   1.049   3.936   5.980
 8799TIP3   OH226281   0.128   3.492   6.610
 8799TIP3    H126282   0.209   3.455   6.574
 8799TIP3    H226283   0.159   3.529   6.696
 8800TIP3   OH226284   0.204   3.333   5.026
 8800TIP3    H126285   0.179   3.291   5.110
 8800TIP3    H226286   0.242   3.257   4.976
 8801TIP3   OH226287   0.480   3.398   6.257
 8801TIP3    H126288   0.400   3.455   6.257
 8801TIP3    H226289   0.527   3.430   6.177
 8802TIP3   OH226290   0.306   3.124   4.870
 8802TIP3    H126291   0.280   3.129   4.776
 8802TIP3    H226292   0.404   3.129   4.862
 8803TIP3   OH226293   0.990   3.798   6.391
 8803TIP3    H126294   1.071   3.774   6.344
 8803TIP3    H226295   0.988   3.732   6.462
 8804TIP3   OH226296   1.129   3.456   4.532
 8804TIP3    H126297   1.107   3.411   4.448
 8804TIP3    H226298   1.096   3.546   4.509
 8805TIP3   OH226299   0.597   3.185   6.383
 8805TIP3    H126300   0.596   3.106   6.325
 8805TIP3    H226301   0.554   3.253   6.326
 8806TIP3   OH226302   0.600   2.969   6.189
 8806TIP3    H126303   0.627   3.014   6.107
 8806TIP3    H226304   0.506   2.948   6.170
 8807TIP3   OH226305   0.629   3.506   6.060
 8807TIP3    H126306   0.712   3.520   6.013
 8807TIP3    H226307   0.570   3.572   6.018
 8808TIP3   OH226308   1.207   3.473   6.442
 8808TIP3    H126309   1.258   3.392   6.459
 8808TIP3    H226310   1.276   3.534   6.410
 8809TIP3   OH226311   1.250   3.726   6.179
 8809TIP3    H126312   1.192   3.779   6.121
 8809TIP3    H226313   1.338   3.747   6.139
 8810TIP3   OH226314   0.474   3.298   6.613
 8810TIP3    H126315   0.407   3.228   6.627
 8810TIP3    H226316   0.509   3.273   6.525
 8811TIP3   OH226317   0.732   2.733   6.256
 8811TIP3    H126318   0.684   2.816   6.234
 8811TIP3    H226319   0.661   2.667   6.245
 8812TIP3   OH226320   0.859   3.239   6.473
 8812TIP3    H126321   0.849   3.227   6.569
 8812TIP3    H226322   0.769   3.215   6.444
 8813TIP3   OH226323   1.096   3.184   6.326
 8813TIP3    H126324   1.022   3.190   6.389
 8813TIP3    H226325   1.170   3.156   6.383
 8814TIP3   OH226326   1.326   3.128   6.477
 8814TIP3    H126327   1.338   3.033   6.497
 8814TIP3    H226328   1.321   3.168   6.566
 8815TIP3   OH226329   0.313   3.079   6.666
 8815TIP3    H126330   0.322   2.989   6.631
 8815TIP3    H226331   0.351   3.067   6.756
 8816TIP3   OH226332   0.825   2.743   6.514
 8816TIP3    H126333   0.894   2.674   6.508
 8816TIP3    H226334   0.786   2.738   6.425
 8817TIP3   OH226335   0.892   2.959   6.673
 8817TIP3    H126336   0.869   2.889   6.609
 8817TIP3    H226337   0.814   3.019   6.667
 8818TIP3   OH226338   0.112   4.188   4.772
 8818TIP3    H126339   0.208   4.181   4.757
 8818TIP3    H226340   0.087   4.237   4.692
 8819TIP3   OH226341  -0.394   3.589   4.927
 8819TIP3    H126342  -0.300   3.599   4.953
 8819TIP3    H226343  -0.401   3.491   4.919
 8820TIP3   OH226344   1.374   4.426   5.390
 8820TIP3    H126345   1.395   4.464   5.477
 8820TIP3    H226346   1.426   4.483   5.331
 8821TIP3   OH226347   1.401   4.453   5.671
 8821TIP3    H126348   1.355   4.367   5.666
 8821TIP3    H226349   1.471   4.430   5.734
 8822TIP3   OH226350   1.447   4.130   6.245
 8822TIP3    H126351   1.373   4.139   6.309
 8822TIP3    H226352   1.487   4.219   6.249
 8823TIP3   OH226353   1.263   3.643   4.865
 8823TIP3    H126354   1.330   3.708   4.836
 8823TIP3    H226355   1.307   3.605   4.944
 8824TIP3   OH226356   1.392   3.510   5.069
 8824TIP3    H126357   1.324   3.469   5.126
 8824TIP3    H226358   1.453   3.551   5.134
 8825TIP3   OH226359   1.447   3.904   5.504
 8825TIP3    H126360   1.496   3.838   5.451
 8825TIP3    H226361   1.436   3.978   5.441
 8826TIP3   OH226362   1.276   4.204   5.696
 8826TIP3    H126363   1.204   4.247   5.747
 8826TIP3    H226364   1.226   4.157   5.625
 8827TIP3   OH226365   1.329   3.419   4.715
 8827TIP3    H126366   1.257   3.421   4.647
 8827TIP3    H226367   1.300   3.495   4.770
 8828TIP3   OH226368   1.200   3.092   4.670
 8828TIP3    H126369   1.158   3.131   4.593
 8828TIP3    H226370   1.174   2.998   4.661
 8829TIP3   OH226371   1.205   3.368   5.215
 8829TIP3    H126372   1.212   3.272   5.208
 8829TIP3    H226373   1.190   3.382   5.311
 8830TIP3   OH226374  -0.168   3.480   5.939
 8830TIP3    H126375  -0.170   3.429   5.856
 8830TIP3    H226376  -0.077   3.462   5.969
 8831TIP3   OH226377   1.494   3.792   6.072
 8831TIP3    H126378   1.567   3.727   6.062
 8831TIP3    H226379   1.518   3.862   6.009
 8832TIP3   OH226380   1.680   3.598   6.085
 8832TIP3    H126381   1.605   3.549   6.125
 8832TIP3    H226382   1.752   3.533   6.101
 8833TIP3   OH226383   1.142   2.827   4.658
 8833TIP3    H126384   1.215   2.793   4.712
 8833TIP3    H226385   1.068   2.767   4.677
 8834TIP3   OH226386   1.201   3.085   5.111
 8834TIP3    H126387   1.242   2.996   5.125
 8834TIP3    H226388   1.258   3.118   5.039
 8835TIP3   OH226389   1.362   3.256   5.605
 8835TIP3    H126390   1.448   3.282   5.564
 8835TIP3    H226391   1.375   3.295   5.694
 8836TIP3   OH226392   1.431   3.402   5.836
 8836TIP3    H126393   1.353   3.435   5.885
 8836TIP3    H226394   1.463   3.483   5.792
 8837TIP3   OH226395   0.037   3.097   6.642
 8837TIP3    H126396   0.129   3.125   6.624
 8837TIP3    H226397   0.052   3.038   6.715
 8838TIP3   OH226398   1.883   2.992   6.392
 8838TIP3    H126399   1.942   2.927   6.349
 8838TIP3    H226400   1.854   3.047   6.316
 8839TIP3   OH226401   1.310   2.834   5.147
 8839TIP3    H126402   1.358   2.818   5.231
 8839TIP3    H226403   1.250   2.758   5.145
 8840TIP3   OH226404   0.006   2.808   5.946
 8840TIP3    H126405   0.075   2.742   5.967
 8840TIP3    H226406   0.054   2.891   5.960
 8841TIP3   OH226407  -0.156   3.103   6.060
 8841TIP3    H126408  -0.129   3.096   5.967
 8841TIP3    H226409  -0.191   3.192   6.065
 8842TIP3   OH226410   1.754   3.133   6.198
 8842TIP3    H126411   1.669   3.174   6.223
 8842TIP3    H226412   1.722   3.061   6.140
 8843TIP3   OH226413   1.392   2.766   4.782
 8843TIP3    H126414   1.429   2.696   4.725
 8843TIP3    H226415   1.457   2.838   4.772
 8844TIP3   OH226416  -0.210   2.579   5.521
 8844TIP3    H126417  -0.288   2.614   5.565
 8844TIP3    H226418  -0.198   2.648   5.451
 8845TIP3   OH226419   0.964   4.293   5.043
 8845TIP3    H126420   1.014   4.285   4.959
 8845TIP3    H226421   1.003   4.372   5.083
 8846TIP3   OH226422   0.013   2.682   6.370
 8846TIP3    H126423  -0.051   2.674   6.441
 8846TIP3    H226424  -0.040   2.722   6.300
 8847TIP3   OH226425   0.086   4.067   6.436
 8847TIP3    H126426   0.003   4.117   6.424
 8847TIP3    H226427   0.088   4.059   6.534
 8848TIP3   OH226428   0.242   4.134   5.983
 8848TIP3    H126429   0.185   4.203   5.944
 8848TIP3    H226430   0.325   4.153   5.935
 8849TIP3   OH226431   0.678   4.381   6.118
 8849TIP3    H126432   0.721   4.382   6.206
 8849TIP3    H226433   0.743   4.432   6.066
 8850TIP3   OH226434   0.856   4.533   5.977
 8850TIP3    H126435   0.927   4.483   5.933
 8850TIP3    H226436   0.908   4.590   6.037
 8851TIP3   OH226437   1.653   2.895   6.076
 8851TIP3    H126438   1.562   2.890   6.043
 8851TIP3    H226439   1.683   2.802   6.065
 8852TIP3   OH226440   0.141   4.373   5.867
 8852TIP3    H126441   0.055   4.380   5.909
 8852TIP3    H226442   0.123   4.410   5.779
 8853TIP3   OH226443   0.572   4.401   5.658
 8853TIP3    H126444   0.514   4.419   5.582
 8853TIP3    H226445   0.582   4.491   5.696
 8854TIP3   OH226446   0.839   4.340   5.711
 8854TIP3    H126447   0.744   4.356   5.694
 8854TIP3    H226448   0.880   4.416   5.667
 8855TIP3   OH226449   1.052   4.534   5.626
 8855TIP3    H126450   1.035   4.618   5.579
 8855TIP3    H226451   1.074   4.473   5.552
 8856TIP3   OH226452  -0.132   4.208   5.738
 8856TIP3    H126453  -0.108   4.169   5.825
 8856TIP3    H226454  -0.077   4.151   5.680
 8857TIP3   OH226455   0.021   4.039   5.591
 8857TIP3    H126456   0.034   3.961   5.650
 8857TIP3    H226457   0.111   4.078   5.592
 8858TIP3   OH226458   0.278   4.152   5.613
 8858TIP3    H126459   0.317   4.065   5.592
 8858TIP3    H226460   0.328   4.173   5.694
 8859TIP3   OH226461   0.860   2.811   5.694
 8859TIP3    H126462   0.815   2.741   5.746
 8859TIP3    H226463   0.934   2.763   5.653
 8860TIP3   OH226464   1.379   2.686   5.599
 8860TIP3    H126465   1.417   2.741   5.526
 8860TIP3    H226466   1.285   2.713   5.597
 8861TIP3   OH226467   1.475   2.789   5.365
 8861TIP3    H126468   1.549   2.739   5.324
 8861TIP3    H226469   1.508   2.881   5.351
 8862TIP3   OH226470   0.106   2.516   5.709
 8862TIP3    H126471   0.014   2.481   5.709
 8862TIP3    H226472   0.155   2.432   5.707
 8863TIP3   OH226473  -0.089   2.382   5.369
 8863TIP3    H126474  -0.078   2.438   5.290
 8863TIP3    H226475  -0.130   2.447   5.430
 8864TIP3   OH226476   0.567   2.543   5.583
 8864TIP3    H126477   0.617   2.606   5.528
 8864TIP3    H226478   0.571   2.586   5.669
 8865TIP3   OH226479   1.094   2.696   5.579
 8865TIP3    H126480   1.098   2.665   5.488
 8865TIP3    H226481   1.077   2.612   5.629
 8866TIP3   OH226482   1.126   2.620   5.138
 8866TIP3    H126483   1.040   2.667   5.147
 8866TIP3    H226484   1.106   2.538   5.187
 8867TIP3   OH226485   0.010   2.547   5.123
 8867TIP3    H126486   0.057   2.485   5.063
 8867TIP3    H226487   0.083   2.600   5.159
 8868TIP3   OH226488   0.525   2.720   5.228
 8868TIP3    H126489   0.595   2.689   5.289
 8868TIP3    H226490   0.536   2.817   5.244
 8869TIP3   OH226491   0.380   4.150   4.720
 8869TIP3    H126492   0.469   4.171   4.685
 8869TIP3    H226493   0.360   4.073   4.662
 8870TIP3   OH226494   1.106   4.267   4.810
 8870TIP3    H126495   1.096   4.170   4.799
 8870TIP3    H226496   1.054   4.299   4.733
 8871TIP3   OH226497   0.312   2.800   6.601
 8871TIP3    H126498   0.277   2.727   6.655
 8871TIP3    H226499   0.405   2.800   6.631
 8872TIP3   OH226500   0.562   2.794   6.722
 8872TIP3    H126501   0.648   2.774   6.683
 8872TIP3    H226502   0.552   2.721   6.786
 8873TIP3   OH226503  -0.297   3.991   4.825
 8873TIP3    H126504  -0.277   4.085   4.836
 8873TIP3    H226505  -0.215   3.954   4.787
 8874TIP3   OH226506   1.387   2.856   6.510
 8874TIP3    H126507   1.406   2.827   6.601
 8874TIP3    H226508   1.476   2.853   6.469
 8875TIP3   OH226509   1.328   4.410   6.000
 8875TIP3    H126510   1.248   4.378   5.953
 8875TIP3    H226511   1.307   4.506   6.005
 8876TIP3   OH226512   2.591   3.782   4.771
 8876TIP3    H126513   2.564   3.874   4.748
 8876TIP3    H226514   2.517   3.733   4.732
 8877TIP3   OH226515   2.589   3.785   5.152
 8877TIP3    H126516   2.622   3.749   5.236
 8877TIP3    H226517   2.549   3.708   5.110
 8878TIP3   OH226518   1.892   3.677   5.512
 8878TIP3    H126519   1.922   3.609   5.576
 8878TIP3    H226520   1.970   3.734   5.509
 8879TIP3   OH226521   2.835   4.084   4.828
 8879TIP3    H126522   2.826   4.018   4.898
 8879TIP3    H226523   2.863   4.163   4.878
 8880TIP3   OH226524   1.868   4.090   5.241
 8880TIP3    H126525   1.854   3.993   5.244
 8880TIP3    H226526   1.964   4.093   5.230
 8881TIP3   OH226527   1.570   3.291   5.025
 8881TIP3    H126528   1.520   3.374   5.039
 8881TIP3    H226529   1.500   3.237   4.984
 8882TIP3   OH226530   1.631   3.580   5.197
 8882TIP3    H126531   1.678   3.501   5.232
 8882TIP3    H226532   1.684   3.603   5.121
 8883TIP3   OH226533   2.476   4.550   4.841
 8883TIP3    H126534   2.527   4.475   4.804
 8883TIP3    H226535   2.476   4.532   4.936
 8884TIP3   OH226536   2.390   4.010   5.198
 8884TIP3    H126537   2.425   3.932   5.151
 8884TIP3    H226538   2.475   4.054   5.218
 8885TIP3   OH226539   3.402   3.327   5.196
 8885TIP3    H126540   3.432   3.410   5.239
 8885TIP3    H226541   3.426   3.346   5.103
 8886TIP3   OH226542   2.802   3.510   5.231
 8886TIP3    H126543   2.844   3.425   5.250
 8886TIP3    H226544   2.772   3.496   5.139
 8887TIP3   OH226545   2.143   3.170   5.194
 8887TIP3    H126546   2.120   3.242   5.132
 8887TIP3    H226547   2.094   3.096   5.151
 8888TIP3   OH226548   2.837   3.261   4.819
 8888TIP3    H126549   2.910   3.246   4.882
 8888TIP3    H226550   2.886   3.297   4.742
 8889TIP3   OH226551   1.774   3.371   5.302
 8889TIP3    H126552   1.857   3.351   5.350
 8889TIP3    H226553   1.786   3.315   5.222
 8890TIP3   OH226554   2.215   3.569   5.096
 8890TIP3    H126555   2.309   3.543   5.108
 8890TIP3    H226556   2.175   3.486   5.063
 8891TIP3   OH226557   3.475   3.532   5.370
 8891TIP3    H126558   3.395   3.584   5.348
 8891TIP3    H226559   3.501   3.574   5.454
 8892TIP3   OH226560   2.138   3.153   5.629
 8892TIP3    H126561   2.077   3.189   5.562
 8892TIP3    H226562   2.086   3.170   5.711
 8893TIP3   OH226563   2.483   4.003   4.639
 8893TIP3    H126564   2.442   3.984   4.553
 8893TIP3    H226565   2.440   4.087   4.663
 8894TIP3   OH226566   2.247   3.929   5.425
 8894TIP3    H126567   2.179   3.991   5.459
 8894TIP3    H226568   2.284   3.978   5.349
 8895TIP3   OH226569   3.047   3.261   4.991
 8895TIP3    H126570   3.030   3.221   5.078
 8895TIP3    H226571   3.100   3.339   5.015
 8896TIP3   OH226572   2.009   3.267   5.413
 8896TIP3    H126573   2.071   3.340   5.437
 8896TIP3    H226574   2.057   3.227   5.338
 8897TIP3   OH226575   2.066   4.115   5.519
 8897TIP3    H126576   2.034   4.200   5.480
 8897TIP3    H226577   1.989   4.097   5.577
 8898TIP3   OH226578   1.467   3.812   4.758
 8898TIP3    H126579   1.424   3.838   4.674
 8898TIP3    H226580   1.496   3.898   4.793
 8899TIP3   OH226581   2.893   4.310   4.980
 8899TIP3    H126582   2.810   4.319   5.031
 8899TIP3    H226583   2.910   4.403   4.956
 8900TIP3   OH226584   3.196   3.223   5.360
 8900TIP3    H126585   3.110   3.257   5.330
 8900TIP3    H226586   3.257   3.259   5.291
 8901TIP3   OH226587   2.495   2.871   5.346
 8901TIP3    H126588   2.478   2.776   5.361
 8901TIP3    H226589   2.417   2.910   5.391
 8902TIP3   OH226590   2.607   4.373   4.673
 8902TIP3    H126591   2.658   4.291   4.652
 8902TIP3    H226592   2.668   4.440   4.632
 8903TIP3   OH226593   2.750   4.160   4.578
 8903TIP3    H126594   2.715   4.079   4.538
 8903TIP3    H226595   2.786   4.125   4.663
 8904TIP3   OH226596   2.425   3.635   4.600
 8904TIP3    H126597   2.344   3.686   4.578
 8904TIP3    H226598   2.469   3.631   4.513
 8905TIP3   OH226599   2.383   3.418   4.317
 8905TIP3    H126600   2.451   3.471   4.362
 8905TIP3    H226601   2.440   3.355   4.268
 8906TIP3   OH226602   3.324   3.873   5.185
 8906TIP3    H126603   3.244   3.930   5.193
 8906TIP3    H226604   3.357   3.902   5.097
 8907TIP3   OH226605   2.770   3.718   4.571
 8907TIP3    H126606   2.716   3.742   4.650
 8907TIP3    H226607   2.854   3.693   4.614
 8908TIP3   OH226608   3.003   3.756   5.482
 8908TIP3    H126609   2.989   3.838   5.532
 8908TIP3    H226610   2.919   3.753   5.432
 8909TIP3   OH226611   2.002   3.715   4.988
 8909TIP3    H126612   1.960   3.658   4.920
 8909TIP3    H226613   2.079   3.661   5.015
 8910TIP3   OH226614   2.136   4.129   5.138
 8910TIP3    H126615   2.109   4.092   5.052
 8910TIP3    H226616   2.224   4.088   5.151
 8911TIP3   OH226617   2.145   3.683   5.344
 8911TIP3    H126618   2.172   3.663   5.252
 8911TIP3    H226619   2.185   3.771   5.359
 8912TIP3   OH226620   2.668   4.332   5.135
 8912TIP3    H126621   2.617   4.394   5.188
 8912TIP3    H226622   2.653   4.247   5.180
 8913TIP3   OH226623   2.252   4.242   5.671
 8913TIP3    H126624   2.218   4.212   5.757
 8913TIP3    H226625   2.197   4.189   5.610
 8914TIP3   OH226626   2.611   3.574   4.397
 8914TIP3    H126627   2.670   3.635   4.448
 8914TIP3    H226628   2.637   3.598   4.304
 8915TIP3   OH226629   2.032   3.801   5.765
 8915TIP3    H126630   2.035   3.886   5.813
 8915TIP3    H226631   1.937   3.779   5.777
 8916TIP3   OH226632   2.354   4.255   4.676
 8916TIP3    H126633   2.435   4.309   4.688
 8916TIP3    H226634   2.294   4.317   4.632
 8917TIP3   OH226635   3.129   2.817   4.448
 8917TIP3    H126636   3.046   2.839   4.495
 8917TIP3    H226637   3.143   2.899   4.395
 8918TIP3   OH226638   1.868   3.558   4.795
 8918TIP3    H126639   1.803   3.604   4.737
 8918TIP3    H226640   1.828   3.471   4.803
 8919TIP3   OH226641   2.926   4.183   3.994
 8919TIP3    H126642   2.936   4.280   3.978
 8919TIP3    H226643   3.019   4.153   3.981
 8920TIP3   OH226644   1.651   3.941   5.699
 8920TIP3    H126645   1.582   3.921   5.631
 8920TIP3    H226646   1.686   3.852   5.721
 8921TIP3   OH226647   1.503   4.133   5.335
 8921TIP3    H126648   1.599   4.137   5.325
 8921TIP3    H226649   1.484   4.216   5.381
 8922TIP3   OH226650   2.237   4.501   4.473
 8922TIP3    H126651   2.188   4.482   4.392
 8922TIP3    H226652   2.202   4.588   4.500
 8923TIP3   OH226653   1.674   4.350   4.857
 8923TIP3    H126654   1.718   4.339   4.944
 8923TIP3    H226655   1.614   4.273   4.858
 8924TIP3   OH226656   2.437   4.403   4.113
 8924TIP3    H126657   2.496   4.333   4.078
 8924TIP3    H226658   2.471   4.411   4.205
 8925TIP3   OH226659   2.488   4.450   4.383
 8925TIP3    H126660   2.400   4.460   4.425
 8925TIP3    H226661   2.539   4.410   4.455
 8926TIP3   OH226662   3.250   3.717   5.655
 8926TIP3    H126663   3.171   3.714   5.600
 8926TIP3    H226664   3.276   3.622   5.656
 8927TIP3   OH226665   1.855   4.122   5.689
 8927TIP3    H126666   1.901   4.108   5.774
 8927TIP3    H226667   1.780   4.059   5.695
 8928TIP3   OH226668   2.256   2.948   5.471
 8928TIP3    H126669   2.166   2.917   5.445
 8928TIP3    H226670   2.229   3.030   5.518
 8929TIP3   OH226671   2.788   3.063   5.666
 8929TIP3    H126672   2.853   3.036   5.733
 8929TIP3    H226673   2.702   3.044   5.711
 8930TIP3   OH226674   3.027   3.491   5.585
 8930TIP3    H126675   2.978   3.488   5.670
 8930TIP3    H226676   3.001   3.578   5.549
 8931TIP3   OH226677   2.689   3.623   4.142
 8931TIP3    H126678   2.653   3.597   4.055
 8931TIP3    H226679   2.771   3.669   4.116
 8932TIP3   OH226680   2.401   2.995   4.444
 8932TIP3    H126681   2.365   2.993   4.534
 8932TIP3    H226682   2.361   2.914   4.407
 8933TIP3   OH226683   2.188   3.462   5.493
 8933TIP3    H126684   2.135   3.483   5.573
 8933TIP3    H226685   2.172   3.543   5.438
 8934TIP3   OH226686   2.071   3.350   5.005
 8934TIP3    H126687   1.978   3.324   5.022
 8934TIP3    H226688   2.083   3.310   4.916
 8935TIP3   OH226689   2.561   3.435   4.733
 8935TIP3    H126690   2.509   3.507   4.691
 8935TIP3    H226691   2.616   3.405   4.658
 8936TIP3   OH226692   2.736   3.713   5.817
 8936TIP3    H126693   2.713   3.641   5.880
 8936TIP3    H226694   2.830   3.728   5.842
 8937TIP3   OH226695   2.718   3.464   4.972
 8937TIP3    H126696   2.658   3.495   4.900
 8937TIP3    H226697   2.751   3.383   4.928
 8938TIP3   OH226698   2.007   3.492   5.699
 8938TIP3    H126699   2.028   3.555   5.770
 8938TIP3    H226700   1.993   3.409   5.750
 8939TIP3   OH226701   2.057   2.971   4.410
 8939TIP3    H126702   2.045   2.968   4.506
 8939TIP3    H226703   1.978   3.021   4.383
 8940TIP3   OH226704   1.598   3.014   5.282
 8940TIP3    H126705   1.675   3.045   5.333
 8940TIP3    H226706   1.636   2.983   5.199
 8941TIP3   OH226707   1.572   2.997   4.801
 8941TIP3    H126708   1.616   3.034   4.721
 8941TIP3    H226709   1.510   3.069   4.820
 8942TIP3   OH226710   2.731   3.710   5.395
 8942TIP3    H126711   2.762   3.638   5.336
 8942TIP3    H226712   2.700   3.657   5.472
 8943TIP3   OH226713   2.399   3.169   5.067
 8943TIP3    H126714   2.315   3.169   5.116
 8943TIP3    H226715   2.464   3.173   5.139
 8944TIP3   OH226716   1.832   3.228   5.074
 8944TIP3    H126717   1.737   3.236   5.047
 8944TIP3    H226718   1.853   3.136   5.050
 8945TIP3   OH226719   2.102   3.225   4.762
 8945TIP3    H126720   2.195   3.239   4.737
 8945TIP3    H226721   2.053   3.246   4.680
 8946TIP3   OH226722   2.888   3.246   5.266
 8946TIP3    H126723   2.856   3.260   5.358
 8946TIP3    H226724   2.819   3.186   5.232
 8947TIP3   OH226725   1.944   3.257   4.542
 8947TIP3    H126726   1.872   3.212   4.495
 8947TIP3    H226727   1.995   3.293   4.467
 8948TIP3   OH226728   2.022   4.049   5.910
 8948TIP3    H126729   2.099   4.074   5.966
 8948TIP3    H226730   1.952   4.045   5.978
 8949TIP3   OH226731   2.481   3.499   5.164
 8949TIP3    H126732   2.554   3.461   5.113
 8949TIP3    H226733   2.490   3.456   5.251
 8950TIP3   OH226734   2.006   2.987   5.043
 8950TIP3    H126735   1.970   2.908   5.088
 8950TIP3    H226736   2.049   2.948   4.965
 8951TIP3   OH226737   2.458   3.396   5.452
 8951TIP3    H126738   2.367   3.431   5.467
 8951TIP3    H226739   2.513   3.458   5.504
 8952TIP3   OH226740   2.194   3.788   4.549
 8952TIP3    H126741   2.122   3.722   4.538
 8952TIP3    H226742   2.175   3.821   4.640
 8953TIP3   OH226743   3.091   4.022   5.191
 8953TIP3    H126744   3.121   4.081   5.118
 8953TIP3    H226745   3.009   3.984   5.153
 8954TIP3   OH226746   2.653   3.097   4.416
 8954TIP3    H126747   2.556   3.080   4.419
 8954TIP3    H226748   2.661   3.193   4.434
 8955TIP3   OH226749   2.614   4.113   5.549
 8955TIP3    H126750   2.628   4.072   5.635
 8955TIP3    H226751   2.565   4.193   5.572
 8956TIP3   OH226752   2.722   3.348   4.516
 8956TIP3    H126753   2.818   3.355   4.528
 8956TIP3    H226754   2.702   3.426   4.461
 8957TIP3   OH226755   1.891   3.814   5.225
 8957TIP3    H126756   1.925   3.782   5.139
 8957TIP3    H226757   1.921   3.745   5.286
 8958TIP3   OH226758   2.339   3.937   4.370
 8958TIP3    H126759   2.292   4.023   4.376
 8958TIP3    H226760   2.285   3.882   4.430
 8959TIP3   OH226761   1.769   3.727   5.836
 8959TIP3    H126762   1.785   3.714   5.931
 8959TIP3    H226763   1.697   3.664   5.819
 8960TIP3   OH226764   2.495   3.842   5.856
 8960TIP3    H126765   2.433   3.782   5.811
 8960TIP3    H226766   2.581   3.806   5.828
 8961TIP3   OH226767   3.163   3.438   4.351
 8961TIP3    H126768   3.101   3.393   4.288
 8961TIP3    H226769   3.161   3.527   4.309
 8962TIP3   OH226770   2.864   4.257   4.258
 8962TIP3    H126771   2.838   4.187   4.319
 8962TIP3    H226772   2.876   4.209   4.174
 8963TIP3   OH226773   2.855   3.885   5.101
 8963TIP3    H126774   2.762   3.856   5.107
 8963TIP3    H226775   2.894   3.809   5.053
 8964TIP3   OH226776   1.988   4.116   4.855
 8964TIP3    H126777   1.987   4.195   4.798
 8964TIP3    H226778   1.894   4.095   4.857
 8965TIP3   OH226779   1.552   3.417   4.554
 8965TIP3    H126780   1.596   3.502   4.573
 8965TIP3    H226781   1.474   3.422   4.613
 8966TIP3   OH226782   2.125   3.880   4.795
 8966TIP3    H126783   2.091   3.970   4.813
 8966TIP3    H226784   2.087   3.829   4.868
 8967TIP3   OH226785   1.908   4.351   4.702
 8967TIP3    H126786   1.821   4.360   4.747
 8967TIP3    H226787   1.939   4.444   4.704
 8968TIP3   OH226788   2.650   4.093   5.276
 8968TIP3    H126789   2.640   4.086   5.373
 8968TIP3    H226790   2.718   4.028   5.256
 8969TIP3   OH226791   2.619   3.986   4.159
 8969TIP3    H126792   2.672   3.960   4.238
 8969TIP3    H226793   2.531   3.956   4.187
 8970TIP3   OH226794   2.960   4.460   3.978
 8970TIP3    H126795   3.003   4.536   3.934
 8970TIP3    H226796   2.878   4.505   4.010
 8971TIP3   OH226797   1.978   3.235   5.845
 8971TIP3    H126798   1.882   3.240   5.859
 8971TIP3    H226799   2.006   3.176   5.917
 8972TIP3   OH226800   2.779   3.919   4.377
 8972TIP3    H126801   2.769   3.852   4.447
 8972TIP3    H226802   2.876   3.916   4.363
 8973TIP3   OH226803   1.705   4.321   5.475
 8973TIP3    H126804   1.745   4.242   5.514
 8973TIP3    H226805   1.716   4.385   5.545
 8974TIP3   OH226806   1.986   3.965   4.159
 8974TIP3    H126807   1.998   3.873   4.129
 8974TIP3    H226808   1.966   3.952   4.254
 8975TIP3   OH226809   1.931   3.970   4.431
 8975TIP3    H126810   2.003   3.943   4.490
 8975TIP3    H226811   1.935   4.068   4.438
 8976TIP3   OH226812   1.667   3.664   4.635
 8976TIP3    H126813   1.600   3.708   4.691
 8976TIP3    H226814   1.679   3.733   4.567
 8977TIP3   OH226815   2.816   3.299   5.525
 8977TIP3    H126816   2.894   3.338   5.567
 8977TIP3    H226817   2.801   3.219   5.580
 8978TIP3   OH226818   2.696   3.050   4.693
 8978TIP3    H126819   2.680   3.071   4.599
 8978TIP3    H226820   2.733   3.135   4.726
 8979TIP3   OH226821   2.197   4.167   4.381
 8979TIP3    H126822   2.110   4.194   4.417
 8979TIP3    H226823   2.212   4.237   4.316
 8980TIP3   OH226824   2.388   3.229   4.794
 8980TIP3    H126825   2.450   3.302   4.776
 8980TIP3    H226826   2.390   3.225   4.892
 8981TIP3   OH226827   2.654   3.549   5.601
 8981TIP3    H126828   2.674   3.603   5.680
 8981TIP3    H226829   2.708   3.470   5.616
 8982TIP3   OH226830   2.532   2.959   4.899
 8982TIP3    H126831   2.514   3.040   4.951
 8982TIP3    H226832   2.590   2.994   4.828
 8983TIP3   OH226833   1.941   4.243   4.448
 8983TIP3    H126834   1.910   4.311   4.385
 8983TIP3    H226835   1.924   4.286   4.534
 8984TIP3   OH226836   2.040   2.955   4.687
 8984TIP3    H126837   2.038   3.047   4.721
 8984TIP3    H226838   2.136   2.938   4.693
 8985TIP3   OH226839   3.294   3.448   5.589
 8985TIP3    H126840   3.196   3.445   5.590
 8985TIP3    H226841   3.312   3.423   5.497
 8986TIP3   OH226842   2.945   3.645   4.972
 8986TIP3    H126843   2.870   3.584   4.982
 8986TIP3    H226844   3.017   3.597   5.018
 8987TIP3   OH226845   1.658   3.871   4.441
 8987TIP3    H126846   1.722   3.943   4.448
 8987TIP3    H226847   1.703   3.817   4.373
 8988TIP3   OH226848   1.602   3.147   4.575
 8988TIP3    H126849   1.600   3.245   4.571
 8988TIP3    H226850   1.522   3.124   4.526
 8989TIP3   OH226851   2.918   4.593   4.921
 8989TIP3    H126852   2.876   4.642   4.846
 8989TIP3    H226853   3.012   4.612   4.904
 8990TIP3   OH226854   1.991   2.868   5.447
 8990TIP3    H126855   1.959   2.835   5.360
 8990TIP3    H226856   1.979   2.790   5.504
 8991TIP3   OH226857   1.529   4.086   4.827
 8991TIP3    H126858   1.459   4.117   4.886
 8991TIP3    H226859   1.500   4.127   4.742
 8992TIP3   OH226860   1.686   4.626   5.897
 8992TIP3    H126861   1.770   4.622   5.946
 8992TIP3    H226862   1.660   4.532   5.896
 8993TIP3   OH226863   2.172   4.589   5.946
 8993TIP3    H126864   2.259   4.602   5.986
 8993TIP3    H226865   2.152   4.500   5.973
 8994TIP3   OH226866   2.150   4.168   4.073
 8994TIP3    H126867   2.093   4.097   4.110
 8994TIP3    H226868   2.224   4.115   4.039
 8995TIP3   OH226869   2.586   4.210   3.984
 8995TIP3    H126870   2.627   4.144   4.043
 8995TIP3    H226871   2.642   4.206   3.905
 8996TIP3   OH226872   1.818   4.034   6.096
 8996TIP3    H126873   1.832   3.939   6.106
 8996TIP3    H226874   1.729   4.037   6.055
 8997TIP3   OH226875   1.793   3.686   4.292
 8997TIP3    H126876   1.848   3.652   4.364
 8997TIP3    H226877   1.860   3.690   4.220
 8998TIP3   OH226878   2.416   4.106   5.868
 8998TIP3    H126879   2.397   4.116   5.774
 8998TIP3    H226880   2.456   4.016   5.872
 8999TIP3   OH226881   2.305   3.885   4.100
 8999TIP3    H126882   2.306   3.896   4.197
 8999TIP3    H226883   2.304   3.787   4.094
 9000TIP3   OH226884   2.929   4.120   5.480
 9000TIP3    H126885   2.961   4.142   5.392
 9000TIP3    H226886   2.841   4.159   5.483
 9001TIP3   OH226887   1.938   3.770   6.080
 9001TIP3    H126888   2.009   3.707   6.064
 9001TIP3    H226889   1.961   3.803   6.170
 9002TIP3   OH226890   2.004   3.588   4.516
 9002TIP3    H126891   1.974   3.545   4.597
 9002TIP3    H226892   2.039   3.513   4.464
 9003TIP3   OH226893   2.272   3.655   5.745
 9003TIP3    H126894   2.192   3.712   5.746
 9003TIP3    H226895   2.320   3.689   5.666
 9004TIP3   OH226896   2.102   3.382   4.356
 9004TIP3    H126897   2.075   3.386   4.261
 9004TIP3    H226898   2.199   3.387   4.347
 9005TIP3   OH226899   2.786   4.054   5.875
 9005TIP3    H126900   2.871   4.034   5.834
 9005TIP3    H226901   2.783   3.990   5.948
 9006TIP3   OH226902   2.924   3.714   4.019
 9006TIP3    H126903   2.904   3.667   3.935
 9006TIP3    H226904   2.891   3.803   3.995
 9007TIP3   OH226905   2.395   3.442   5.868
 9007TIP3    H126906   2.393   3.361   5.812
 9007TIP3    H226907   2.350   3.508   5.811
 9008TIP3   OH226908   2.397   3.227   5.676
 9008TIP3    H126909   2.423   3.268   5.591
 9008TIP3    H226910   2.302   3.204   5.659
 9009TIP3   OH226911   2.425   3.766   5.551
 9009TIP3    H126912   2.505   3.768   5.498
 9009TIP3    H226913   2.367   3.829   5.504
 9010TIP3   OH226914   3.006   3.731   5.929
 9010TIP3    H126915   3.054   3.649   5.945
 9010TIP3    H226916   3.077   3.790   5.900
 9011TIP3   OH226917   3.056   3.983   5.673
 9011TIP3    H126918   3.005   4.042   5.613
 9011TIP3    H226919   3.133   3.964   5.619
 9012TIP3   OH226920   2.272   3.553   6.099
 9012TIP3    H126921   2.203   3.486   6.115
 9012TIP3    H226922   2.306   3.526   6.011
 9013TIP3   OH226923   2.528   2.991   5.742
 9013TIP3    H126924   2.478   3.073   5.720
 9013TIP3    H226925   2.458   2.923   5.732
 9014TIP3   OH226926   2.655   3.496   5.960
 9014TIP3    H126927   2.641   3.483   6.055
 9014TIP3    H226928   2.565   3.471   5.928
 9015TIP3   OH226929   2.892   3.442   5.814
 9015TIP3    H126930   2.817   3.447   5.876
 9015TIP3    H226931   2.966   3.414   5.872
 9016TIP3   OH226932   3.122   3.382   5.965
 9016TIP3    H126933   3.131   3.288   5.989
 9016TIP3    H226934   3.118   3.427   6.052
 9017TIP3   OH226935   2.111   3.333   6.152
 9017TIP3    H126936   2.116   3.241   6.119
 9017TIP3    H226937   2.147   3.322   6.242
 9018TIP3   OH226938   2.625   3.002   5.999
 9018TIP3    H126939   2.688   2.928   5.994
 9018TIP3    H226940   2.582   2.996   5.911
 9019TIP3   OH226941   2.690   3.217   6.159
 9019TIP3    H126942   2.667   3.146   6.095
 9019TIP3    H226943   2.611   3.275   6.154
 9020TIP3   OH226944   1.910   4.446   4.261
 9020TIP3    H126945   2.005   4.442   4.239
 9020TIP3    H226946   1.877   4.493   4.182
 9021TIP3   OH226947   1.389   3.825   4.478
 9021TIP3    H126948   1.484   3.847   4.463
 9021TIP3    H226949   1.382   3.737   4.435
 9022TIP3   OH226950   1.308   4.439   4.886
 9022TIP3    H126951   1.238   4.379   4.850
 9022TIP3    H226952   1.349   4.380   4.953
 9023TIP3   OH226953   1.441   4.290   5.075
 9023TIP3    H126954   1.423   4.218   5.137
 9023TIP3    H226955   1.489   4.352   5.134
 9024TIP3   OH226956   3.175   4.689   4.883
 9024TIP3    H126957   3.188   4.750   4.957
 9024TIP3    H226958   3.208   4.742   4.810
 9025TIP3   OH226959   3.058   3.900   4.352
 9025TIP3    H126960   3.126   3.964   4.322
 9025TIP3    H226961   3.102   3.861   4.431
 9026TIP3   OH226962   3.187   3.768   4.555
 9026TIP3    H126963   3.121   3.726   4.615
 9026TIP3    H226964   3.252   3.806   4.617
 9027TIP3   OH226965   3.232   4.151   4.989
 9027TIP3    H126966   3.290   4.090   4.939
 9027TIP3    H226967   3.217   4.222   4.925
 9028TIP3   OH226968   3.124   3.675   4.202
 9028TIP3    H126969   3.053   3.677   4.134
 9028TIP3    H226970   3.096   3.752   4.257
 9029TIP3   OH226971   2.995   3.349   4.158
 9029TIP3    H126972   2.955   3.387   4.078
 9029TIP3    H226973   2.970   3.255   4.148
 9030TIP3   OH226974   3.000   3.625   4.702
 9030TIP3    H126975   3.008   3.529   4.695
 9030TIP3    H226976   2.987   3.638   4.798
 9031TIP3   OH226977   1.627   3.695   5.450
 9031TIP3    H126978   1.624   3.665   5.356
 9031TIP3    H226979   1.724   3.697   5.465
 9032TIP3   OH226980   3.463   3.873   5.590
 9032TIP3    H126981   3.387   3.816   5.615
 9032TIP3    H226982   3.537   3.810   5.597
 9033TIP3   OH226983   2.938   3.084   4.146
 9033TIP3    H126984   3.012   3.049   4.199
 9033TIP3    H226985   2.864   3.023   4.164
 9034TIP3   OH226986   2.997   3.342   4.597
 9034TIP3    H126987   3.038   3.253   4.611
 9034TIP3    H226988   3.054   3.375   4.525
 9035TIP3   OH226989   3.158   3.513   5.092
 9035TIP3    H126990   3.244   3.539   5.050
 9035TIP3    H226991   3.173   3.551   5.180
 9036TIP3   OH226992   3.227   3.657   5.324
 9036TIP3    H126993   3.148   3.694   5.368
 9036TIP3    H226994   3.261   3.736   5.275
 9037TIP3   OH226995   1.845   3.384   6.122
 9037TIP3    H126996   1.942   3.378   6.125
 9037TIP3    H226997   1.820   3.299   6.163
 9038TIP3   OH226998   3.671   3.242   5.879
 9038TIP3    H126999   3.737   3.182   5.836
 9038TIP3    H227000   3.647   3.301   5.805
 9039TIP3   OH227001   3.105   3.092   4.634
 9039TIP3    H127002   3.153   3.077   4.718
 9039TIP3    H227003   3.044   3.015   4.632
 9040TIP3   OH227004   1.806   3.076   5.454
 9040TIP3    H127005   1.868   3.001   5.464
 9040TIP3    H227006   1.868   3.151   5.448
 9041TIP3   OH227007   1.609   3.349   5.528
 9041TIP3    H127008   1.657   3.344   5.443
 9041TIP3    H227009   1.634   3.437   5.559
 9042TIP3   OH227010   3.550   3.390   5.687
 9042TIP3    H127011   3.463   3.431   5.706
 9042TIP3    H227012   3.521   3.317   5.630
 9043TIP3   OH227013   3.188   3.022   4.269
 9043TIP3    H127014   3.225   2.953   4.211
 9043TIP3    H227015   3.253   3.094   4.260
 9044TIP3   OH227016   1.592   2.857   5.030
 9044TIP3    H127017   1.498   2.851   5.053
 9044TIP3    H227018   1.590   2.913   4.950
 9045TIP3   OH227019   2.749   4.558   4.532
 9045TIP3    H127020   2.802   4.544   4.452
 9045TIP3    H227021   2.802   4.621   4.582
 9046TIP3   OH227022   1.812   2.933   5.842
 9046TIP3    H127023   1.762   2.929   5.925
 9046TIP3    H227024   1.746   2.972   5.782
 9047TIP3   OH227025   1.855   4.364   5.937
 9047TIP3    H127026   1.768   4.337   5.904
 9047TIP3    H227027   1.852   4.336   6.029
 9048TIP3   OH227028   2.036   4.389   5.452
 9048TIP3    H127029   1.971   4.456   5.422
 9048TIP3    H227030   2.089   4.379   5.373
 9049TIP3   OH227031   3.448   3.151   5.570
 9049TIP3    H127032   3.359   3.151   5.531
 9049TIP3    H227033   3.477   3.059   5.553
 9050TIP3   OH227034   1.710   4.653   5.492
 9050TIP3    H127035   1.621   4.682   5.463
 9050TIP3    H227036   1.710   4.689   5.581
 9051TIP3   OH227037   1.943   4.626   5.347
 9051TIP3    H127038   1.857   4.641   5.393
 9051TIP3    H227039   1.922   4.663   5.258
 9052TIP3   OH227040   2.379   4.666   5.119
 9052TIP3    H127041   2.302   4.685   5.064
 9052TIP3    H227042   2.363   4.719   5.198
 9053TIP3   OH227043   2.846   4.804   5.105
 9053TIP3    H127044   2.835   4.885   5.052
 9053TIP3    H227045   2.866   4.736   5.038
 9054TIP3   OH227046   1.619   4.447   5.235
 9054TIP3    H127047   1.646   4.419   5.326
 9054TIP3    H227048   1.688   4.400   5.183
 9055TIP3   OH227049   1.808   4.313   5.092
 9055TIP3    H127050   1.825   4.230   5.142
 9055TIP3    H227051   1.898   4.349   5.081
 9056TIP3   OH227052   2.070   4.409   5.083
 9056TIP3    H127053   2.107   4.319   5.073
 9056TIP3    H227054   2.125   4.445   5.153
 9057TIP3   OH227055   2.658   3.068   5.190
 9057TIP3    H127056   2.608   3.000   5.240
 9057TIP3    H227057   2.719   3.016   5.138
 9058TIP3   OH227058   3.177   2.952   5.093
 9058TIP3    H127059   3.214   3.004   5.019
 9058TIP3    H227060   3.081   2.969   5.084
 9059TIP3   OH227061   3.267   3.045   4.853
 9059TIP3    H127062   3.343   2.996   4.814
 9059TIP3    H227063   3.299   3.138   4.840
 9060TIP3   OH227064   1.902   2.775   5.199
 9060TIP3    H127065   1.809   2.744   5.199
 9060TIP3    H227066   1.950   2.690   5.195
 9061TIP3   OH227067   1.694   2.645   4.849
 9061TIP3    H127068   1.720   2.701   4.773
 9061TIP3    H227069   1.661   2.711   4.913
 9062TIP3   OH227070   2.348   2.805   5.079
 9062TIP3    H127071   2.405   2.858   5.020
 9062TIP3    H227072   2.364   2.847   5.164
 9063TIP3   OH227073   2.904   2.950   5.059
 9063TIP3    H127074   2.871   2.924   4.972
 9063TIP3    H227075   2.882   2.872   5.115
 9064TIP3   OH227076   2.923   2.878   4.631
 9064TIP3    H127077   2.837   2.922   4.636
 9064TIP3    H227078   2.902   2.791   4.671
 9065TIP3   OH227079   1.407   4.216   4.625
 9065TIP3    H127080   1.321   4.183   4.593
 9065TIP3    H227081   1.395   4.311   4.607
 9066TIP3   OH227082   1.805   2.802   4.612
 9066TIP3    H127083   1.853   2.741   4.553
 9066TIP3    H227084   1.878   2.857   4.646
 9067TIP3   OH227085   2.317   2.980   4.709
 9067TIP3    H127086   2.376   2.931   4.768
 9067TIP3    H227087   2.340   3.072   4.734
 9068TIP3   OH227088   2.177   4.405   4.206
 9068TIP3    H127089   2.267   4.425   4.172
 9068TIP3    H227090   2.155   4.329   4.148
 9069TIP3   OH227091   2.897   4.523   4.300
 9069TIP3    H127092   2.889   4.425   4.290
 9069TIP3    H227093   2.852   4.554   4.219
 9070TIP3   OH227094   2.110   3.057   6.090
 9070TIP3    H127095   2.074   2.987   6.146
 9070TIP3    H227096   2.204   3.057   6.118
 9071TIP3   OH227097   2.359   3.053   6.209
 9071TIP3    H127098   2.444   3.025   6.172
 9071TIP3    H227099   2.344   2.984   6.277
 9072TIP3   OH227100   1.482   4.243   4.264
 9072TIP3    H127101   1.478   4.268   4.357
 9072TIP3    H227102   1.570   4.201   4.256
 9073TIP3   OH227103   3.187   3.109   6.003
 9073TIP3    H127104   3.214   3.082   6.093
 9073TIP3    H227105   3.274   3.116   5.958
 9074TIP3   OH227106   4.389   4.038   4.256
 9074TIP3    H127107   4.361   4.130   4.236
 9074TIP3    H227108   4.312   3.990   4.220
 9075TIP3   OH227109   4.384   4.040   4.637
 9075TIP3    H127110   4.418   4.012   4.724
 9075TIP3    H227111   4.346   3.958   4.603
 9076TIP3   OH227112   3.688   3.932   4.997
 9076TIP3    H127113   3.719   3.866   5.062
 9076TIP3    H227114   3.759   3.997   5.004
 9077TIP3   OH227115   4.631   4.340   4.315
 9077TIP3    H127116   4.622   4.274   4.385
 9077TIP3    H227117   4.658   4.419   4.366
 9078TIP3   OH227118   3.664   4.347   4.726
 9078TIP3    H127119   3.651   4.249   4.729
 9078TIP3    H227120   3.760   4.352   4.716
 9079TIP3   OH227121   3.364   3.545   4.512
 9079TIP3    H127122   3.318   3.629   4.526
 9079TIP3    H227123   3.294   3.494   4.469
 9080TIP3   OH227124   3.425   3.834   4.682
 9080TIP3    H127125   3.474   3.757   4.719
 9080TIP3    H227126   3.485   3.864   4.613
 9081TIP3   OH227127   4.274   4.809   4.328
 9081TIP3    H127128   4.323   4.731   4.294
 9081TIP3    H227129   4.267   4.791   4.423
 9082TIP3   OH227130   4.189   4.261   4.669
 9082TIP3    H127131   4.233   4.184   4.631
 9082TIP3    H227132   4.267   4.309   4.702
 9083TIP3   OH227133   5.200   3.585   4.683
 9083TIP3    H127134   5.228   3.667   4.729
 9083TIP3    H227135   5.219   3.608   4.590
 9084TIP3   OH227136   4.597   3.767   4.717
 9084TIP3    H127137   4.642   3.683   4.738
 9084TIP3    H227138   4.568   3.751   4.626
 9085TIP3   OH227139   3.936   3.426   4.683
 9085TIP3    H127140   3.918   3.499   4.620
 9085TIP3    H227141   3.889   3.353   4.637
 9086TIP3   OH227142   4.631   3.518   4.305
 9086TIP3    H127143   4.704   3.502   4.369
 9086TIP3    H227144   4.684   3.553   4.230
 9087TIP3   OH227145   3.570   3.627   4.789
 9087TIP3    H127146   3.653   3.609   4.837
 9087TIP3    H227147   3.584   3.572   4.709
 9088TIP3   OH227148   4.010   3.824   4.586
 9088TIP3    H127149   4.105   3.800   4.596
 9088TIP3    H227150   3.972   3.741   4.551
 9089TIP3   OH227151   5.271   3.790   4.856
 9089TIP3    H127152   5.190   3.842   4.836
 9089TIP3    H227153   5.300   3.832   4.939
 9090TIP3   OH227154   3.933   3.410   5.116
 9090TIP3    H127155   3.874   3.447   5.048
 9090TIP3    H227156   3.881   3.429   5.197
 9091TIP3   OH227157   4.280   4.260   4.124
 9091TIP3    H127158   4.238   4.241   4.039
 9091TIP3    H227159   4.236   4.344   4.149
 9092TIP3   OH227160   4.842   3.520   4.477
 9092TIP3    H127161   4.831   3.473   4.561
 9092TIP3    H227162   4.895   3.597   4.503
 9093TIP3   OH227163   3.804   3.525   4.901
 9093TIP3    H127164   3.866   3.598   4.923
 9093TIP3    H227165   3.853   3.484   4.825
 9094TIP3   OH227166   3.262   4.068   4.245
 9094TIP3    H127167   3.222   4.095   4.160
 9094TIP3    H227168   3.294   4.154   4.281
 9095TIP3   OH227169   4.687   4.567   4.465
 9095TIP3    H127170   4.608   4.575   4.523
 9095TIP3    H227171   4.700   4.660   4.440
 9096TIP3   OH227172   4.993   3.481   4.845
 9096TIP3    H127173   4.907   3.516   4.817
 9096TIP3    H227174   5.053   3.516   4.777
 9097TIP3   OH227175   4.289   3.128   4.828
 9097TIP3    H127176   4.277   3.033   4.847
 9097TIP3    H227177   4.212   3.166   4.876
 9098TIP3   OH227178   4.403   4.630   4.158
 9098TIP3    H127179   4.454   4.548   4.139
 9098TIP3    H227180   4.463   4.696   4.119
 9099TIP3   OH227181   4.547   4.416   4.065
 9099TIP3    H127182   4.510   4.336   4.027
 9099TIP3    H227183   4.583   4.382   4.150
 9100TIP3   OH227184   4.219   3.891   4.086
 9100TIP3    H127185   4.140   3.943   4.063
 9100TIP3    H227186   4.266   3.888   4.000
 9101TIP3   OH227187   4.178   3.675   3.803
 9101TIP3    H127188   4.246   3.727   3.850
 9101TIP3    H227189   4.235   3.612   3.755
 9102TIP3   OH227190   5.120   4.125   4.668
 9102TIP3    H127191   5.041   4.182   4.681
 9102TIP3    H227192   5.154   4.160   4.583
 9103TIP3   OH227193   4.567   3.974   4.058
 9103TIP3    H127194   4.513   3.998   4.136
 9103TIP3    H227195   4.651   3.948   4.101
 9104TIP3   OH227196   4.803   4.011   4.971
 9104TIP3    H127197   4.808   4.095   5.021
 9104TIP3    H227198   4.719   4.023   4.923
 9105TIP3   OH227199   3.799   3.971   4.476
 9105TIP3    H127200   3.757   3.914   4.408
 9105TIP3    H227201   3.876   3.917   4.504
 9106TIP3   OH227202   3.931   4.385   4.626
 9106TIP3    H127203   3.913   4.345   4.539
 9106TIP3    H227204   4.019   4.345   4.648
 9107TIP3   OH227205   3.945   3.949   4.825
 9107TIP3    H127206   3.969   3.914   4.737
 9107TIP3    H227207   3.995   4.032   4.829
 9108TIP3   OH227208   4.468   4.592   4.630
 9108TIP3    H127209   4.416   4.648   4.689
 9108TIP3    H227210   4.453   4.503   4.669
 9109TIP3   OH227211   4.407   3.832   3.884
 9109TIP3    H127212   4.466   3.892   3.935
 9109TIP3    H227213   4.434   3.855   3.791
 9110TIP3   OH227214   3.827   4.053   5.249
 9110TIP3    H127215   3.835   4.140   5.295
 9110TIP3    H227216   3.732   4.038   5.261
 9111TIP3   OH227217   4.150   4.512   4.161
 9111TIP3    H127218   4.231   4.564   4.175
 9111TIP3    H227219   4.091   4.576   4.119
 9112TIP3   OH227220   4.924   3.073   3.932
 9112TIP3    H127221   4.842   3.092   3.982
 9112TIP3    H227222   4.937   3.156   3.883
 9113TIP3   OH227223   3.664   3.814   4.282
 9113TIP3    H127224   3.600   3.859   4.223
 9113TIP3    H227225   3.626   3.727   4.289
 9114TIP3   OH227226   4.722   4.440   3.481
 9114TIP3    H127227   4.731   4.536   3.466
 9114TIP3    H227228   4.815   4.410   3.468
 9115TIP3   OH227229   3.429   4.197   5.199
 9115TIP3    H127230   3.375   4.170   5.123
 9115TIP3    H227231   3.485   4.119   5.217
 9116TIP3   OH227232   3.300   4.397   4.808
 9116TIP3    H127233   3.393   4.376   4.827
 9116TIP3    H227234   3.276   4.459   4.878
 9117TIP3   OH227235   4.031   4.757   3.961
 9117TIP3    H127236   3.986   4.738   3.876
 9117TIP3    H227237   3.999   4.846   3.984
 9118TIP3   OH227238   3.468   4.606   4.346
 9118TIP3    H127239   3.517   4.597   4.431
 9118TIP3    H227240   3.415   4.525   4.346
 9119TIP3   OH227241   4.233   4.659   3.602
 9119TIP3    H127242   4.292   4.589   3.565
 9119TIP3    H227243   4.268   4.667   3.693
 9120TIP3   OH227244   4.284   4.707   3.872
 9120TIP3    H127245   4.195   4.716   3.914
 9120TIP3    H227246   4.334   4.665   3.944
 9121TIP3   OH227247   5.052   3.967   5.158
 9121TIP3    H127248   4.978   3.986   5.099
 9121TIP3    H227249   5.068   3.872   5.141
 9122TIP3   OH227250   4.051   3.204   4.959
 9122TIP3    H127251   3.962   3.174   4.934
 9122TIP3    H227252   4.028   3.287   5.005
 9123TIP3   OH227253   4.586   3.319   5.153
 9123TIP3    H127254   4.655   3.293   5.217
 9123TIP3    H227255   4.502   3.300   5.200
 9124TIP3   OH227256   4.820   3.745   5.068
 9124TIP3    H127257   4.774   3.745   5.155
 9124TIP3    H227258   4.804   3.836   5.036
 9125TIP3   OH227259   4.485   3.879   3.629
 9125TIP3    H127260   4.450   3.854   3.542
 9125TIP3    H227261   4.566   3.926   3.603
 9126TIP3   OH227262   4.196   3.253   3.930
 9126TIP3    H127263   4.162   3.250   4.022
 9126TIP3    H227264   4.158   3.170   3.895
 9127TIP3   OH227265   3.981   3.723   4.976
 9127TIP3    H127266   3.930   3.743   5.057
 9127TIP3    H227267   3.968   3.806   4.925
 9128TIP3   OH227268   3.867   3.606   4.492
 9128TIP3    H127269   3.774   3.580   4.508
 9128TIP3    H227270   3.880   3.566   4.403
 9129TIP3   OH227271   4.357   3.691   4.219
 9129TIP3    H127272   4.305   3.763   4.177
 9129TIP3    H227273   4.412   3.661   4.144
 9130TIP3   OH227274   4.532   3.968   5.303
 9130TIP3    H127275   4.513   3.896   5.367
 9130TIP3    H227276   4.625   3.987   5.325
 9131TIP3   OH227277   4.513   3.720   4.459
 9131TIP3    H127278   4.454   3.750   4.387
 9131TIP3    H227279   4.547   3.639   4.416
 9132TIP3   OH227280   3.804   3.749   5.187
 9132TIP3    H127281   3.822   3.817   5.254
 9132TIP3    H227282   3.794   3.668   5.240
 9133TIP3   OH227283   3.852   3.227   3.896
 9133TIP3    H127284   3.842   3.224   3.993
 9133TIP3    H227285   3.773   3.279   3.871
 9134TIP3   OH227286   3.394   3.268   4.771
 9134TIP3    H127287   3.469   3.303   4.823
 9134TIP3    H227288   3.433   3.245   4.686
 9135TIP3   OH227289   3.368   3.252   4.290
 9135TIP3    H127290   3.412   3.289   4.210
 9135TIP3    H227291   3.306   3.325   4.308
 9136TIP3   OH227292   4.515   3.966   4.879
 9136TIP3    H127293   4.553   3.896   4.822
 9136TIP3    H227294   4.495   3.913   4.959
 9137TIP3   OH227295   4.194   3.429   4.553
 9137TIP3    H127296   4.113   3.427   4.607
 9137TIP3    H227297   4.264   3.427   4.621
 9138TIP3   OH227298   3.627   3.484   4.562
 9138TIP3    H127299   3.533   3.491   4.533
 9138TIP3    H227300   3.652   3.393   4.535
 9139TIP3   OH227301   3.897   3.481   4.249
 9139TIP3    H127302   3.991   3.495   4.228
 9139TIP3    H227303   3.851   3.503   4.165
 9140TIP3   OH227304   4.685   3.505   4.755
 9140TIP3    H127305   4.651   3.517   4.846
 9140TIP3    H227306   4.619   3.443   4.718
 9141TIP3   OH227307   3.739   3.514   4.028
 9141TIP3    H127308   3.668   3.469   3.978
 9141TIP3    H227309   3.792   3.551   3.953
 9142TIP3   OH227310   4.871   5.268   4.971
 9142TIP3    H127311   4.868   5.197   4.906
 9142TIP3    H227312   4.926   5.232   5.040
 9143TIP3   OH227313   3.834   4.285   5.400
 9143TIP3    H127314   3.905   4.324   5.455
 9143TIP3    H227315   3.755   4.318   5.445
 9144TIP3   OH227316   4.277   3.756   4.648
 9144TIP3    H127317   4.351   3.719   4.597
 9144TIP3    H227318   4.289   3.713   4.735
 9145TIP3   OH227319   3.801   3.247   4.526
 9145TIP3    H127320   3.770   3.166   4.572
 9145TIP3    H227321   3.851   3.210   4.452
 9146TIP3   OH227322   4.253   3.651   4.943
 9146TIP3    H127323   4.164   3.690   4.954
 9146TIP3    H227324   4.311   3.712   4.992
 9147TIP3   OH227325   3.989   4.045   4.034
 9147TIP3    H127326   3.917   3.978   4.023
 9147TIP3    H227327   3.971   4.078   4.125
 9148TIP3   OH227328   4.889   4.273   4.671
 9148TIP3    H127329   4.917   4.334   4.599
 9148TIP3    H227330   4.803   4.239   4.638
 9149TIP3   OH227331   4.449   3.355   3.899
 9149TIP3    H127332   4.352   3.338   3.906
 9149TIP3    H227333   4.457   3.450   3.921
 9150TIP3   OH227334   4.419   4.353   5.045
 9150TIP3    H127335   4.454   4.322   5.130
 9150TIP3    H227336   4.413   4.448   5.060
 9151TIP3   OH227337   4.517   3.604   4.001
 9151TIP3    H127338   4.614   3.610   4.016
 9151TIP3    H227339   4.499   3.684   3.948
 9152TIP3   OH227340   3.681   4.068   4.712
 9152TIP3    H127341   3.721   4.038   4.627
 9152TIP3    H227342   3.720   4.005   4.775
 9153TIP3   OH227343   4.136   4.193   3.857
 9153TIP3    H127344   4.088   4.279   3.862
 9153TIP3    H227345   4.081   4.138   3.917
 9154TIP3   OH227346   3.567   3.981   5.324
 9154TIP3    H127347   3.580   3.976   5.420
 9154TIP3    H227348   3.489   3.925   5.311
 9155TIP3   OH227349   4.291   4.092   5.348
 9155TIP3    H127350   4.229   4.031   5.305
 9155TIP3    H227351   4.378   4.059   5.317
 9156TIP3   OH227352   4.960   3.694   3.836
 9156TIP3    H127353   4.898   3.649   3.774
 9156TIP3    H227354   4.957   3.783   3.796
 9157TIP3   OH227355   4.662   4.513   3.746
 9157TIP3    H127356   4.634   4.443   3.807
 9157TIP3    H227357   4.672   4.466   3.661
 9158TIP3   OH227358   4.648   4.144   4.583
 9158TIP3    H127359   4.556   4.114   4.591
 9158TIP3    H227360   4.689   4.066   4.539
 9159TIP3   OH227361   3.783   4.371   4.338
 9159TIP3    H127362   3.785   4.451   4.283
 9159TIP3    H227363   3.689   4.352   4.342
 9160TIP3   OH227364   3.348   3.673   4.040
 9160TIP3    H127365   3.393   3.758   4.060
 9160TIP3    H227366   3.270   3.679   4.100
 9161TIP3   OH227367   3.920   4.135   4.279
 9161TIP3    H127368   3.888   4.225   4.299
 9161TIP3    H227369   3.885   4.085   4.356
 9162TIP3   OH227370   3.702   4.610   4.188
 9162TIP3    H127371   3.617   4.618   4.234
 9162TIP3    H227372   3.735   4.702   4.191
 9163TIP3   OH227373   4.445   4.348   4.765
 9163TIP3    H127374   4.440   4.334   4.862
 9163TIP3    H227375   4.519   4.291   4.740
 9164TIP3   OH227376   4.415   4.242   3.646
 9164TIP3    H127377   4.468   4.216   3.725
 9164TIP3    H227378   4.327   4.213   3.674
 9165TIP3   OH227379   4.755   4.715   3.465
 9165TIP3    H127380   4.791   4.786   3.410
 9165TIP3    H227381   4.675   4.760   3.500
 9166TIP3   OH227382   3.775   3.492   5.333
 9166TIP3    H127383   3.679   3.494   5.347
 9166TIP3    H227384   3.804   3.433   5.405
 9167TIP3   OH227385   4.576   4.175   3.863
 9167TIP3    H127386   4.565   4.108   3.934
 9167TIP3    H227387   4.673   4.172   3.851
 9168TIP3   OH227388   3.781   4.222   3.647
 9168TIP3    H127389   3.795   4.131   3.616
 9168TIP3    H227390   3.761   4.208   3.741
 9169TIP3   OH227391   3.725   4.226   3.921
 9169TIP3    H127392   3.800   4.199   3.975
 9169TIP3    H227393   3.731   4.324   3.926
 9170TIP3   OH227394   3.462   3.919   4.121
 9170TIP3    H127395   3.396   3.964   4.178
 9170TIP3    H227396   3.477   3.988   4.054
 9171TIP3   OH227397   4.608   3.558   5.014
 9171TIP3    H127398   4.690   3.598   5.050
 9171TIP3    H227399   4.599   3.477   5.069
 9172TIP3   OH227400   4.490   3.308   4.179
 9172TIP3    H127401   4.477   3.330   4.085
 9172TIP3    H227402   4.530   3.390   4.214
 9173TIP3   OH227403   3.992   4.422   3.868
 9173TIP3    H127404   3.906   4.451   3.903
 9173TIP3    H227405   4.008   4.491   3.802
 9174TIP3   OH227406   4.180   3.487   4.281
 9174TIP3    H127407   4.245   3.559   4.263
 9174TIP3    H227408   4.186   3.480   4.378
 9175TIP3   OH227409   4.446   3.807   5.090
 9175TIP3    H127410   4.474   3.859   5.169
 9175TIP3    H227411   4.502   3.728   5.098
 9176TIP3   OH227412   4.325   3.213   4.382
 9176TIP3    H127413   4.319   3.290   4.442
 9176TIP3    H227414   4.385   3.249   4.313
 9177TIP3   OH227415   3.736   4.499   3.934
 9177TIP3    H127416   3.706   4.569   3.872
 9177TIP3    H227417   3.720   4.543   4.021
 9178TIP3   OH227418   3.836   3.212   4.174
 9178TIP3    H127419   3.835   3.304   4.208
 9178TIP3    H227420   3.932   3.193   4.180
 9179TIP3   OH227421   5.088   3.703   5.073
 9179TIP3    H127422   4.990   3.698   5.074
 9179TIP3    H227423   5.107   3.678   4.982
 9180TIP3   OH227424   4.741   3.901   4.457
 9180TIP3    H127425   4.667   3.840   4.470
 9180TIP3    H227426   4.814   3.855   4.505
 9181TIP3   OH227427   3.454   4.129   3.927
 9181TIP3    H127428   3.523   4.198   3.936
 9181TIP3    H227429   3.498   4.073   3.860
 9182TIP3   OH227430   3.396   3.403   4.064
 9182TIP3    H127431   3.397   3.501   4.058
 9182TIP3    H227432   3.319   3.381   4.012
 9183TIP3   OH227433   4.711   4.842   4.399
 9183TIP3    H127434   4.670   4.893   4.327
 9183TIP3    H227435   4.806   4.864   4.384
 9184TIP3   OH227436   3.785   3.125   4.937
 9184TIP3    H127437   3.756   3.092   4.849
 9184TIP3    H227438   3.775   3.046   4.994
 9185TIP3   OH227439   3.327   4.345   4.315
 9185TIP3    H127440   3.255   4.374   4.372
 9185TIP3    H227441   3.300   4.384   4.229
 9186TIP3   OH227442   3.946   4.425   3.560
 9186TIP3    H127443   3.890   4.352   3.597
 9186TIP3    H227444   4.020   4.374   3.523
 9187TIP3   OH227445   4.381   4.467   3.471
 9187TIP3    H127446   4.425   4.401   3.528
 9187TIP3    H227447   4.437   4.464   3.390
 9188TIP3   OH227448   3.611   4.280   5.587
 9188TIP3    H127449   3.646   4.189   5.581
 9188TIP3    H227450   3.543   4.280   5.518
 9189TIP3   OH227451   3.589   3.942   3.780
 9189TIP3    H127452   3.645   3.908   3.852
 9189TIP3    H227453   3.655   3.946   3.707
 9190TIP3   OH227454   4.203   4.356   5.343
 9190TIP3    H127455   4.199   4.339   5.249
 9190TIP3    H227456   4.254   4.278   5.372
 9191TIP3   OH227457   4.099   4.140   3.587
 9191TIP3    H127458   4.102   4.152   3.684
 9191TIP3    H227459   4.100   4.042   3.581
 9192TIP3   OH227460   4.717   4.372   4.964
 9192TIP3    H127461   4.776   4.402   4.894
 9192TIP3    H227462   4.646   4.438   4.963
 9193TIP3   OH227463   3.732   4.019   5.572
 9193TIP3    H127464   3.813   3.977   5.543
 9193TIP3    H227465   3.759   4.056   5.659
 9194TIP3   OH227466   3.798   3.845   4.002
 9194TIP3    H127467   3.772   3.801   4.084
 9194TIP3    H227468   3.834   3.771   3.949
 9195TIP3   OH227469   4.074   3.916   5.226
 9195TIP3    H127470   3.992   3.970   5.232
 9195TIP3    H227471   4.112   3.951   5.142
 9196TIP3   OH227472   3.898   3.639   3.843
 9196TIP3    H127473   3.872   3.643   3.748
 9196TIP3    H227474   3.996   3.643   3.835
 9197TIP3   OH227475   4.580   4.305   5.356
 9197TIP3    H127476   4.670   4.298   5.322
 9197TIP3    H227477   4.583   4.244   5.432
 9198TIP3   OH227478   4.721   3.970   3.505
 9198TIP3    H127479   4.699   3.924   3.422
 9198TIP3    H227480   4.688   4.060   3.482
 9199TIP3   OH227481   4.187   3.698   5.356
 9199TIP3    H127482   4.190   3.618   5.299
 9199TIP3    H227483   4.147   3.764   5.297
 9200TIP3   OH227484   4.192   3.484   5.164
 9200TIP3    H127485   4.220   3.525   5.081
 9200TIP3    H227486   4.098   3.461   5.145
 9201TIP3   OH227487   4.207   4.034   5.015
 9201TIP3    H127488   4.296   4.009   4.986
 9201TIP3    H227489   4.203   4.127   4.990
 9202TIP3   OH227490   4.802   3.988   5.417
 9202TIP3    H127491   4.853   3.906   5.424
 9202TIP3    H227492   4.869   4.049   5.381
 9203TIP3   OH227493   4.855   4.235   5.148
 9203TIP3    H127494   4.796   4.289   5.092
 9203TIP3    H227495   4.942   4.261   5.108
 9204TIP3   OH227496   4.066   3.809   5.586
 9204TIP3    H127497   3.997   3.742   5.600
 9204TIP3    H227498   4.102   3.783   5.499
 9205TIP3   OH227499   4.325   3.248   5.231
 9205TIP3    H127500   4.276   3.330   5.208
 9205TIP3    H227501   4.255   3.180   5.218
 9206TIP3   OH227502   4.451   3.752   5.447
 9206TIP3    H127503   4.442   3.740   5.544
 9206TIP3    H227504   4.360   3.726   5.419
 9207TIP3   OH227505   4.689   3.701   5.300
 9207TIP3    H127506   4.615   3.703   5.364
 9207TIP3    H227507   4.764   3.672   5.357
 9208TIP3   OH227508   4.914   3.641   5.453
 9208TIP3    H127509   4.929   3.546   5.471
 9208TIP3    H227510   4.913   3.681   5.542
 9209TIP3   OH227511   3.901   3.591   5.640
 9209TIP3    H127512   3.913   3.501   5.604
 9209TIP3    H227513   3.939   3.580   5.729
 9210TIP3   OH227514   4.417   3.256   5.489
 9210TIP3    H127515   4.486   3.187   5.483
 9210TIP3    H227516   4.379   3.251   5.399
 9211TIP3   OH227517   4.483   3.471   5.648
 9211TIP3    H127518   4.462   3.401   5.583
 9211TIP3    H227519   4.406   3.531   5.640
 9212TIP3   OH227520   3.706   4.703   3.748
 9212TIP3    H127521   3.801   4.697   3.728
 9212TIP3    H227522   3.676   4.750   3.667
 9213TIP3   OH227523   3.185   4.083   3.964
 9213TIP3    H127524   3.280   4.105   3.949
 9213TIP3    H227525   3.179   3.994   3.923
 9214TIP3   OH227526   3.100   4.695   4.376
 9214TIP3    H127527   3.033   4.634   4.341
 9214TIP3    H227528   3.144   4.638   4.443
 9215TIP3   OH227529   3.232   4.547   4.565
 9215TIP3    H127530   3.228   4.472   4.627
 9215TIP3    H227531   3.286   4.608   4.618
 9216TIP3   OH227532   4.966   4.945   4.369
 9216TIP3    H127533   4.981   5.011   4.438
 9216TIP3    H227534   5.013   4.983   4.294
 9217TIP3   OH227535   4.855   4.156   3.839
 9217TIP3    H127536   4.923   4.220   3.810
 9217TIP3    H227537   4.898   4.117   3.918
 9218TIP3   OH227538   4.982   4.024   4.042
 9218TIP3    H127539   4.917   3.982   4.102
 9218TIP3    H227540   5.048   4.062   4.104
 9219TIP3   OH227541   5.026   4.409   4.473
 9219TIP3    H127542   5.089   4.347   4.432
 9219TIP3    H227543   5.010   4.473   4.403
 9220TIP3   OH227544   4.921   3.932   3.689
 9220TIP3    H127545   4.849   3.935   3.621
 9220TIP3    H227546   4.893   4.008   3.744
 9221TIP3   OH227547   4.792   3.605   3.642
 9221TIP3    H127548   4.748   3.643   3.566
 9221TIP3    H227549   4.767   3.510   3.633
 9222TIP3   OH227550   4.796   3.881   4.188
 9222TIP3    H127551   4.804   3.785   4.183
 9222TIP3    H227552   4.783   3.896   4.285
 9223TIP3   OH227553   3.423   3.951   4.936
 9223TIP3    H127554   3.421   3.922   4.843
 9223TIP3    H227555   3.520   3.954   4.952
 9224TIP3   OH227556   5.088   4.320   5.036
 9224TIP3    H127557   5.158   4.251   5.038
 9224TIP3    H227558   5.140   4.397   5.066
 9225TIP3   OH227559   5.262   4.111   5.067
 9225TIP3    H127560   5.194   4.056   5.110
 9225TIP3    H227561   5.341   4.054   5.076
 9226TIP3   OH227562   4.735   3.339   3.629
 9226TIP3    H127563   4.809   3.308   3.685
 9226TIP3    H227564   4.661   3.280   3.652
 9227TIP3   OH227565   4.793   3.596   4.083
 9227TIP3    H127566   4.833   3.508   4.098
 9227TIP3    H227567   4.851   3.629   4.013
 9228TIP3   OH227568   4.954   3.771   4.579
 9228TIP3    H127569   5.040   3.796   4.538
 9228TIP3    H227570   4.967   3.809   4.667
 9229TIP3   OH227571   5.022   3.913   4.811
 9229TIP3    H127572   4.945   3.950   4.859
 9229TIP3    H227573   5.056   3.993   4.765
 9230TIP3   OH227574   3.631   3.645   5.604
 9230TIP3    H127575   3.729   3.642   5.607
 9230TIP3    H227576   3.611   3.560   5.649
 9231TIP3   OH227577   5.475   3.504   5.367
 9231TIP3    H127578   5.534   3.440   5.323
 9231TIP3    H227579   5.444   3.559   5.292
 9232TIP3   OH227580   4.902   3.347   4.121
 9232TIP3    H127581   4.950   3.331   4.205
 9232TIP3    H227582   4.841   3.270   4.119
 9233TIP3   OH227583   3.601   3.334   4.944
 9233TIP3    H127584   3.664   3.259   4.952
 9233TIP3    H227585   3.663   3.408   4.935
 9234TIP3   OH227586   3.404   3.606   5.015
 9234TIP3    H127587   3.454   3.601   4.931
 9234TIP3    H227588   3.428   3.694   5.046
 9235TIP3   OH227589   5.345   3.643   5.175
 9235TIP3    H127590   5.260   3.687   5.198
 9235TIP3    H227591   5.312   3.575   5.114
 9236TIP3   OH227592   4.983   3.282   3.754
 9236TIP3    H127593   5.022   3.210   3.701
 9236TIP3    H227594   5.050   3.352   3.747
 9237TIP3   OH227595   3.387   3.108   4.517
 9237TIP3    H127596   3.293   3.107   4.539
 9237TIP3    H227597   3.388   3.167   4.438
 9238TIP3   OH227598   4.547   4.815   4.020
 9238TIP3    H127599   4.596   4.798   3.938
 9238TIP3    H227600   4.605   4.877   4.066
 9239TIP3   OH227601   3.606   3.187   5.331
 9239TIP3    H127602   3.556   3.189   5.413
 9239TIP3    H227603   3.542   3.226   5.268
 9240TIP3   OH227604   5.245   3.409   5.049
 9240TIP3    H127605   5.154   3.406   5.015
 9240TIP3    H227606   5.273   3.316   5.037
 9241TIP3   OH227607   3.751   4.922   4.809
 9241TIP3    H127608   3.667   4.940   4.852
 9241TIP3    H227609   3.732   4.948   4.717
 9242TIP3   OH227610   4.181   4.921   4.598
 9242TIP3    H127611   4.097   4.948   4.558
 9242TIP3    H227612   4.199   4.993   4.660
 9243TIP3   OH227613   4.689   5.056   4.574
 9243TIP3    H127614   4.643   5.131   4.532
 9243TIP3    H227615   4.676   4.983   4.510
 9244TIP3   OH227616   3.416   4.706   4.713
 9244TIP3    H127617   3.433   4.680   4.804
 9244TIP3    H227618   3.487   4.657   4.665
 9245TIP3   OH227619   3.607   4.570   4.578
 9245TIP3    H127620   3.624   4.485   4.625
 9245TIP3    H227621   3.698   4.605   4.569
 9246TIP3   OH227622   3.868   4.667   4.577
 9246TIP3    H127623   3.906   4.577   4.571
 9246TIP3    H227624   3.912   4.699   4.657
 9247TIP3   OH227625   4.449   3.323   4.668
 9247TIP3    H127626   4.406   3.253   4.720
 9247TIP3    H227627   4.522   3.276   4.624
 9248TIP3   OH227628   4.973   3.203   4.574
 9248TIP3    H127629   5.009   3.255   4.500
 9248TIP3    H227630   4.878   3.222   4.569
 9249TIP3   OH227631   5.068   3.303   4.338
 9249TIP3    H127632   5.141   3.252   4.297
 9249TIP3    H227633   5.100   3.395   4.324
 9250TIP3   OH227634   3.701   3.035   4.685
 9250TIP3    H127635   3.607   3.009   4.679
 9250TIP3    H227636   3.747   2.949   4.681
 9251TIP3   OH227637   3.495   2.900   4.339
 9251TIP3    H127638   3.520   2.954   4.262
 9251TIP3    H227639   3.458   2.968   4.399
 9252TIP3   OH227640   4.142   3.064   4.568
 9252TIP3    H127641   4.197   3.112   4.505
 9252TIP3    H227642   4.170   3.103   4.652
 9253TIP3   OH227643   4.688   3.211   4.550
 9253TIP3    H127644   4.687   3.174   4.461
 9253TIP3    H227645   4.675   3.130   4.605
 9254TIP3   OH227646   4.719   3.134   4.112
 9254TIP3    H127647   4.631   3.175   4.122
 9254TIP3    H227648   4.704   3.048   4.159
 9255TIP3   OH227649   3.202   4.472   4.113
 9255TIP3    H127650   3.118   4.437   4.078
 9255TIP3    H227651   3.188   4.566   4.099
 9256TIP3   OH227652   3.602   3.057   4.099
 9256TIP3    H127653   3.650   2.996   4.040
 9256TIP3    H227654   3.675   3.113   4.133
 9257TIP3   OH227655   4.113   3.237   4.196
 9257TIP3    H127656   4.174   3.189   4.254
 9257TIP3    H227657   4.136   3.329   4.221
 9258TIP3   OH227658   3.973   4.662   3.694
 9258TIP3    H127659   4.062   4.684   3.659
 9258TIP3    H227660   3.952   4.587   3.635
 9259TIP3   OH227661   4.693   4.780   3.788
 9259TIP3    H127662   4.686   4.682   3.777
 9259TIP3    H227663   4.647   4.810   3.708
 9260TIP3   OH227664   3.906   3.310   5.574
 9260TIP3    H127665   3.873   3.243   5.635
 9260TIP3    H227666   4.001   3.312   5.600
 9261TIP3   OH227667   4.154   3.309   5.694
 9261TIP3    H127668   4.240   3.289   5.653
 9261TIP3    H227669   4.147   3.237   5.760
 9262TIP3   OH227670   3.280   4.500   3.752
 9262TIP3    H127671   3.283   4.518   3.847
 9262TIP3    H227672   3.367   4.456   3.736
 9263TIP3   OH227673   4.980   3.371   5.483
 9263TIP3    H127674   5.000   3.340   5.575
 9263TIP3    H227675   5.069   3.367   5.442
 9264TIP3   OH227676   6.185   4.295   3.742
 9264TIP3    H127677   6.158   4.387   3.722
 9264TIP3    H227678   6.108   4.247   3.709
 9265TIP3   OH227679   6.183   4.298   4.125
 9265TIP3    H127680   6.215   4.265   4.211
 9265TIP3    H227681   6.140   4.218   4.088
 9266TIP3   OH227682   5.485   4.190   4.480
 9266TIP3    H127683   5.511   4.123   4.546
 9266TIP3    H227684   5.548   4.260   4.500
 9267TIP3   OH227685   6.427   4.597   3.802
 9267TIP3    H127686   6.418   4.531   3.872
 9267TIP3    H227687   6.455   4.676   3.853
 9268TIP3   OH227688   5.463   4.604   4.217
 9268TIP3    H127689   5.446   4.507   4.218
 9268TIP3    H227690   5.559   4.604   4.200
 9269TIP3   OH227691   5.163   3.804   3.997
 9269TIP3    H127692   5.115   3.887   4.014
 9269TIP3    H227693   5.091   3.750   3.958
 9270TIP3   OH227694   5.221   4.090   4.167
 9270TIP3    H127695   5.269   4.014   4.207
 9270TIP3    H227696   5.284   4.121   4.100
 9271TIP3   OH227697   6.070   5.064   3.815
 9271TIP3    H127698   6.119   4.987   3.781
 9271TIP3    H227699   6.065   5.048   3.910
 9272TIP3   OH227700   5.986   4.529   4.165
 9272TIP3    H127701   6.017   4.446   4.125
 9272TIP3    H227702   6.073   4.569   4.186
 9273TIP3   OH227703   6.995   3.842   4.169
 9273TIP3    H127704   7.024   3.924   4.215
 9273TIP3    H227705   7.017   3.863   4.077
 9274TIP3   OH227706   6.393   4.025   4.204
 9274TIP3    H127707   6.438   3.941   4.225
 9274TIP3    H227708   6.364   4.008   4.112
 9275TIP3   OH227709   5.736   3.682   4.168
 9275TIP3    H127710   5.713   3.756   4.107
 9275TIP3    H227711   5.686   3.610   4.125
 9276TIP3   OH227712   6.428   3.774   3.791
 9276TIP3    H127713   6.500   3.758   3.857
 9276TIP3    H227714   6.480   3.809   3.717
 9277TIP3   OH227715   5.366   3.885   4.275
 9277TIP3    H127716   5.449   3.868   4.324
 9277TIP3    H227717   5.381   3.828   4.197
 9278TIP3   OH227718   5.810   4.083   4.060
 9278TIP3    H127719   5.903   4.055   4.079
 9278TIP3    H227720   5.769   3.998   4.033
 9279TIP3   OH227721   7.068   4.048   4.340
 9279TIP3    H127722   6.985   4.097   4.322
 9279TIP3    H227723   7.089   4.081   4.429
 9280TIP3   OH227724   5.735   3.666   4.605
 9280TIP3    H127725   5.676   3.703   4.536
 9280TIP3    H227726   5.680   3.685   4.685
 9281TIP3   OH227727   6.078   4.517   3.611
 9281TIP3    H127728   6.033   4.498   3.527
 9281TIP3    H227729   6.034   4.601   3.636
 9282TIP3   OH227730   5.840   4.427   4.393
 9282TIP3    H127731   5.774   4.482   4.442
 9282TIP3    H227732   5.885   4.495   4.339
 9283TIP3   OH227733   6.638   3.776   3.964
 9283TIP3    H127734   6.625   3.732   4.049
 9283TIP3    H227735   6.691   3.854   3.989
 9284TIP3   OH227736   5.601   3.780   4.388
 9284TIP3    H127737   5.661   3.855   4.413
 9284TIP3    H227738   5.652   3.741   4.313
 9285TIP3   OH227739   5.642   4.581   4.498
 9285TIP3    H127740   5.570   4.627   4.454
 9285TIP3    H227741   5.607   4.571   4.588
 9286TIP3   OH227742   5.059   4.325   3.731
 9286TIP3    H127743   5.017   4.351   3.647
 9286TIP3    H227744   5.090   4.410   3.767
 9287TIP3   OH227745   6.485   4.822   3.954
 9287TIP3    H127746   6.404   4.832   4.008
 9287TIP3    H227747   6.499   4.915   3.927
 9288TIP3   OH227748   6.789   3.738   4.333
 9288TIP3    H127749   6.703   3.773   4.304
 9288TIP3    H227750   6.850   3.772   4.264
 9289TIP3   OH227751   6.084   3.391   4.310
 9289TIP3    H127752   6.071   3.296   4.320
 9289TIP3    H227753   6.006   3.426   4.358
 9290TIP3   OH227754   6.199   4.886   3.645
 9290TIP3    H127755   6.251   4.804   3.625
 9290TIP3    H227756   6.259   4.953   3.605
 9291TIP3   OH227757   6.344   4.672   3.551
 9291TIP3    H127758   6.303   4.593   3.516
 9291TIP3    H227759   6.380   4.639   3.637
 9292TIP3   OH227760   6.016   4.148   3.573
 9292TIP3    H127761   5.935   4.199   3.551
 9292TIP3    H227762   6.061   4.145   3.487
 9293TIP3   OH227763   5.974   3.932   3.289
 9293TIP3    H127764   6.042   3.983   3.337
 9293TIP3    H227765   6.032   3.869   3.241
 9294TIP3   OH227766   6.918   4.386   4.157
 9294TIP3    H127767   6.837   4.441   4.167
 9294TIP3    H227768   6.949   4.416   4.069
 9295TIP3   OH227769   6.363   4.230   3.544
 9295TIP3    H127770   6.309   4.255   3.623
 9295TIP3    H227771   6.447   4.205   3.588
 9296TIP3   OH227772   6.599   4.267   4.460
 9296TIP3    H127773   6.599   4.348   4.513
 9296TIP3    H227774   6.514   4.275   4.413
 9297TIP3   OH227775   5.596   4.228   3.960
 9297TIP3    H127776   5.555   4.170   3.893
 9297TIP3    H227777   5.673   4.175   3.989
 9298TIP3   OH227778   5.729   4.643   4.111
 9298TIP3    H127779   5.705   4.602   4.027
 9298TIP3    H227780   5.818   4.604   4.128
 9299TIP3   OH227781   5.738   4.190   4.309
 9299TIP3    H127782   5.769   4.176   4.217
 9299TIP3    H227783   5.776   4.277   4.332
 9300TIP3   OH227784   6.261   4.847   4.110
 9300TIP3    H127785   6.230   4.912   4.174
 9300TIP3    H227786   6.246   4.763   4.157
 9301TIP3   OH227787   6.204   4.088   3.370
 9301TIP3    H127788   6.263   4.148   3.422
 9301TIP3    H227789   6.230   4.111   3.278
 9302TIP3   OH227790   5.620   4.312   4.728
 9302TIP3    H127791   5.629   4.394   4.782
 9302TIP3    H227792   5.526   4.292   4.749
 9303TIP3   OH227793   5.947   4.768   3.647
 9303TIP3    H127794   6.027   4.821   3.662
 9303TIP3    H227795   5.887   4.832   3.607
 9304TIP3   OH227796   6.719   3.329   3.418
 9304TIP3    H127797   6.638   3.350   3.469
 9304TIP3    H227798   6.733   3.412   3.369
 9305TIP3   OH227799   5.463   4.070   3.765
 9305TIP3    H127800   5.396   4.115   3.709
 9305TIP3    H227801   5.421   3.985   3.780
 9306TIP3   OH227802   6.518   4.696   2.966
 9306TIP3    H127803   6.527   4.793   2.953
 9306TIP3    H227804   6.611   4.667   2.954
 9307TIP3   OH227805   5.258   4.454   4.645
 9307TIP3    H127806   5.172   4.422   4.612
 9307TIP3    H227807   5.288   4.383   4.705
 9308TIP3   OH227808   5.104   4.661   4.289
 9308TIP3    H127809   5.189   4.625   4.314
 9308TIP3    H227810   5.076   4.710   4.367
 9309TIP3   OH227811   5.827   5.013   3.448
 9309TIP3    H127812   5.782   4.995   3.363
 9309TIP3    H227813   5.795   5.102   3.471
 9310TIP3   OH227814   5.265   4.863   3.832
 9310TIP3    H127815   5.312   4.852   3.918
 9310TIP3    H227816   5.213   4.781   3.829
 9311TIP3   OH227817   6.030   4.915   3.088
 9311TIP3    H127818   6.088   4.845   3.052
 9311TIP3    H227819   6.063   4.924   3.180
 9312TIP3   OH227820   6.080   4.963   3.358
 9312TIP3    H127821   5.991   4.972   3.401
 9312TIP3    H227822   6.131   4.924   3.431
 9313TIP3   OH227823   6.852   4.228   4.636
 9313TIP3    H127824   6.768   4.238   4.589
 9313TIP3    H227825   6.866   4.131   4.631
 9314TIP3   OH227826   5.861   3.454   4.461
 9314TIP3    H127827   5.772   3.420   4.434
 9314TIP3    H227828   5.831   3.538   4.502
 9315TIP3   OH227829   6.378   3.575   4.650
 9315TIP3    H127830   6.461   3.550   4.698
 9315TIP3    H227831   6.336   3.634   4.712
 9316TIP3   OH227832   6.615   4.002   4.557
 9316TIP3    H127833   6.572   4.000   4.645
 9316TIP3    H227834   6.597   4.093   4.526
 9317TIP3   OH227835   6.280   4.135   3.115
 9317TIP3    H127836   6.246   4.109   3.027
 9317TIP3    H227837   6.361   4.183   3.090
 9318TIP3   OH227838   5.993   3.510   3.417
 9318TIP3    H127839   5.959   3.507   3.509
 9318TIP3    H227840   5.953   3.427   3.382
 9319TIP3   OH227841   5.779   3.975   4.466
 9319TIP3    H127842   5.728   3.998   4.547
 9319TIP3    H227843   5.763   4.055   4.411
 9320TIP3   OH227844   5.663   3.862   3.978
 9320TIP3    H127845   5.570   3.837   3.997
 9320TIP3    H227846   5.675   3.821   3.890
 9321TIP3   OH227847   6.153   3.948   3.706
 9321TIP3    H127848   6.101   4.020   3.664
 9321TIP3    H227849   6.208   3.918   3.631
 9322TIP3   OH227850   6.332   4.224   4.787
 9322TIP3    H127851   6.306   4.158   4.854
 9322TIP3    H227852   6.424   4.241   4.813
 9323TIP3   OH227853   6.310   3.977   3.945
 9323TIP3    H127854   6.250   4.007   3.874
 9323TIP3    H227855   6.344   3.895   3.902
 9324TIP3   OH227856   5.597   4.005   4.673
 9324TIP3    H127857   5.611   4.075   4.739
 9324TIP3    H227858   5.587   3.927   4.729
 9325TIP3   OH227859   5.648   3.483   3.383
 9325TIP3    H127860   5.639   3.481   3.480
 9325TIP3    H227861   5.570   3.535   3.358
 9326TIP3   OH227862   5.190   3.527   4.254
 9326TIP3    H127863   5.266   3.559   4.308
 9326TIP3    H227864   5.232   3.496   4.172
 9327TIP3   OH227865   5.164   3.509   3.773
 9327TIP3    H127866   5.209   3.548   3.695
 9327TIP3    H227867   5.102   3.582   3.794
 9328TIP3   OH227868   6.317   4.226   4.368
 9328TIP3    H127869   6.352   4.154   4.311
 9328TIP3    H227870   6.291   4.173   4.446
 9329TIP3   OH227871   5.990   3.681   4.040
 9329TIP3    H127872   5.906   3.683   4.090
 9329TIP3    H227873   6.056   3.689   4.110
 9330TIP3   OH227874   5.424   3.741   4.047
 9330TIP3    H127875   5.330   3.750   4.021
 9330TIP3    H227876   5.445   3.649   4.024
 9331TIP3   OH227877   5.694   3.736   3.736
 9331TIP3    H127878   5.787   3.753   3.714
 9331TIP3    H227879   5.646   3.759   3.653
 9332TIP3   OH227880   6.482   3.761   4.236
 9332TIP3    H127881   6.451   3.774   4.329
 9332TIP3    H227882   6.412   3.701   4.203
 9333TIP3   OH227883   5.536   3.770   3.515
 9333TIP3    H127884   5.464   3.726   3.468
 9333TIP3    H227885   5.587   3.806   3.440
 9334TIP3   OH227886   5.614   4.534   4.890
 9334TIP3    H127887   5.675   4.591   4.941
 9334TIP3    H227888   5.531   4.545   4.938
 9335TIP3   OH227889   6.073   4.011   4.136
 9335TIP3    H127890   6.149   3.975   4.087
 9335TIP3    H227891   6.084   3.972   4.224
 9336TIP3   OH227892   5.598   3.500   4.016
 9336TIP3    H127893   5.561   3.422   4.062
 9336TIP3    H227894   5.641   3.461   3.939
 9337TIP3   OH227895   6.049   3.904   4.438
 9337TIP3    H127896   5.959   3.942   4.446
 9337TIP3    H227897   6.105   3.970   4.482
 9338TIP3   OH227898   5.786   4.301   3.521
 9338TIP3    H127899   5.714   4.235   3.511
 9338TIP3    H227900   5.768   4.335   3.612
 9339TIP3   OH227901   6.686   4.534   4.160
 9339TIP3    H127902   6.713   4.595   4.087
 9339TIP3    H227903   6.602   4.498   4.127
 9340TIP3   OH227904   6.245   3.612   3.384
 9340TIP3    H127905   6.148   3.595   3.392
 9340TIP3    H227906   6.254   3.707   3.408
 9341TIP3   OH227907   6.314   3.860   3.488
 9341TIP3    H127908   6.410   3.866   3.504
 9341TIP3    H227909   6.295   3.940   3.435
 9342TIP3   OH227910   5.479   4.326   4.198
 9342TIP3    H127911   5.519   4.291   4.116
 9342TIP3    H227912   5.513   4.265   4.266
 9343TIP3   OH227913   5.931   4.450   3.343
 9343TIP3    H127914   5.884   4.536   3.348
 9343TIP3    H227915   5.877   4.395   3.403
 9344TIP3   OH227916   5.363   4.244   4.809
 9344TIP3    H127917   5.391   4.241   4.903
 9344TIP3    H227918   5.285   4.186   4.810
 9345TIP3   OH227919   6.084   4.347   4.840
 9345TIP3    H127920   6.022   4.300   4.782
 9345TIP3    H227921   6.170   4.323   4.802
 9346TIP3   OH227922   6.756   3.950   3.323
 9346TIP3    H127923   6.694   3.906   3.261
 9346TIP3    H227924   6.753   4.040   3.283
 9347TIP3   OH227925   6.982   4.791   4.412
 9347TIP3    H127926   6.886   4.801   4.403
 9347TIP3    H227927   7.008   4.764   4.321
 9348TIP3   OH227928   6.457   4.770   3.232
 9348TIP3    H127929   6.430   4.701   3.294
 9348TIP3    H227930   6.468   4.721   3.148
 9349TIP3   OH227931   6.444   4.401   4.072
 9349TIP3    H127932   6.353   4.368   4.080
 9349TIP3    H227933   6.486   4.325   4.027
 9350TIP3   OH227934   5.580   4.628   3.826
 9350TIP3    H127935   5.579   4.708   3.770
 9350TIP3    H227936   5.486   4.607   3.830
 9351TIP3   OH227937   5.144   3.930   3.527
 9351TIP3    H127938   5.189   4.015   3.548
 9351TIP3    H227939   5.066   3.935   3.587
 9352TIP3   OH227940   5.718   4.393   3.766
 9352TIP3    H127941   5.684   4.482   3.787
 9352TIP3    H227942   5.682   4.341   3.841
 9353TIP3   OH227943   5.498   4.866   3.675
 9353TIP3    H127944   5.413   4.874   3.721
 9353TIP3    H227945   5.530   4.959   3.678
 9354TIP3   OH227946   6.250   4.601   4.250
 9354TIP3    H127947   6.255   4.568   4.341
 9354TIP3    H227948   6.321   4.549   4.208
 9355TIP3   OH227949   6.212   4.498   3.133
 9355TIP3    H127950   6.265   4.472   3.212
 9355TIP3    H227951   6.123   4.470   3.162
 9356TIP3   OH227952   6.551   4.972   2.952
 9356TIP3    H127953   6.589   5.045   2.901
 9356TIP3    H227954   6.471   5.017   2.986
 9357TIP3   OH227955   5.572   3.744   4.820
 9357TIP3    H127956   5.477   3.754   4.836
 9357TIP3    H227957   5.599   3.688   4.895
 9358TIP3   OH227958   6.372   4.429   3.348
 9358TIP3    H127959   6.361   4.365   3.421
 9358TIP3    H227960   6.469   4.428   3.337
 9359TIP3   OH227961   5.578   4.478   3.133
 9359TIP3    H127962   5.591   4.386   3.104
 9359TIP3    H227963   5.558   4.465   3.228
 9360TIP3   OH227964   5.523   4.483   3.405
 9360TIP3    H127965   5.595   4.455   3.463
 9360TIP3    H227966   5.528   4.581   3.412
 9361TIP3   OH227967   5.259   4.176   3.608
 9361TIP3    H127968   5.192   4.220   3.665
 9361TIP3    H227969   5.272   4.245   3.541
 9362TIP3   OH227970   6.413   3.808   4.495
 9362TIP3    H127971   6.487   3.857   4.536
 9362TIP3    H227972   6.405   3.730   4.552
 9363TIP3   OH227973   6.288   3.563   3.666
 9363TIP3    H127974   6.274   3.586   3.572
 9363TIP3    H227975   6.327   3.646   3.702
 9364TIP3   OH227976   5.789   4.679   3.354
 9364TIP3    H127977   5.702   4.707   3.390
 9364TIP3    H227978   5.805   4.751   3.291
 9365TIP3   OH227979   5.978   3.743   3.767
 9365TIP3    H127980   6.042   3.815   3.750
 9365TIP3    H227981   5.982   3.736   3.865
 9366TIP3   OH227982   6.249   4.063   4.576
 9366TIP3    H127983   6.265   4.122   4.652
 9366TIP3    H227984   6.306   3.988   4.597
 9367TIP3   OH227985   6.121   3.470   3.871
 9367TIP3    H127986   6.110   3.549   3.928
 9367TIP3    H227987   6.182   3.506   3.802
 9368TIP3   OH227988   5.533   4.756   3.421
 9368TIP3    H127989   5.502   4.825   3.358
 9368TIP3    H227990   5.516   4.799   3.508
 9369TIP3   OH227991   5.633   3.469   3.660
 9369TIP3    H127992   5.630   3.560   3.695
 9369TIP3    H227993   5.729   3.451   3.667
 9370TIP3   OH227994   6.884   3.961   4.557
 9370TIP3    H127995   6.786   3.957   4.563
 9370TIP3    H227996   6.898   3.928   4.467
 9371TIP3   OH227997   6.538   4.158   3.945
 9371TIP3    H127998   6.463   4.098   3.957
 9371TIP3    H227999   6.610   4.112   3.992
 9372TIP3   OH228000   5.250   4.385   3.414
 9372TIP3    H128001   5.317   4.455   3.422
 9372TIP3    H228002   5.295   4.329   3.346
 9373TIP3   OH228003   5.195   3.661   3.547
 9373TIP3    H128004   5.194   3.758   3.544
 9373TIP3    H228005   5.111   3.639   3.504
 9374TIP3   OH228006   6.518   5.094   3.897
 9374TIP3    H128007   6.464   5.150   3.838
 9374TIP3    H228008   6.607   5.127   3.875
 9375TIP3   OH228009   5.591   3.381   4.419
 9375TIP3    H128010   5.555   3.350   4.334
 9375TIP3    H228011   5.574   3.304   4.478
 9376TIP3   OH228012   5.125   4.606   3.801
 9376TIP3    H128013   5.052   4.631   3.860
 9376TIP3    H228014   5.094   4.643   3.716
 9377TIP3   OH228015   5.741   4.681   3.046
 9377TIP3    H128016   5.685   4.610   3.084
 9377TIP3    H228017   5.816   4.629   3.013
 9378TIP3   OH228018   6.177   4.722   2.957
 9378TIP3    H128019   6.220   4.658   3.016
 9378TIP3    H228020   6.235   4.720   2.878
 9379TIP3   OH228021   5.386   4.199   3.266
 9379TIP3    H128022   5.441   4.165   3.339
 9379TIP3    H228023   5.453   4.203   3.195
 9380TIP3   OH228024   5.896   4.397   3.073
 9380TIP3    H128025   5.898   4.409   3.170
 9380TIP3    H228026   5.895   4.299   3.068
 9381TIP3   OH228027   6.509   4.640   4.448
 9381TIP3    H128028   6.566   4.658   4.372
 9381TIP3    H228029   6.451   4.717   4.451
 9382TIP3   OH228030   5.538   4.241   5.045
 9382TIP3    H128031   5.631   4.220   5.058
 9382TIP3    H228032   5.525   4.310   5.112
 9383TIP3   OH228033   5.595   4.102   3.489
 9383TIP3    H128034   5.566   4.061   3.572
 9383TIP3    H228035   5.630   4.026   3.439
 9384TIP3   OH228036   5.861   4.164   4.717
 9384TIP3    H128037   5.783   4.223   4.719
 9384TIP3    H228038   5.911   4.200   4.640
 9385TIP3   OH228039   5.694   3.895   3.329
 9385TIP3    H128040   5.668   3.900   3.235
 9385TIP3    H228041   5.792   3.900   3.321
 9386TIP3   OH228042   6.389   4.570   4.857
 9386TIP3    H128043   6.468   4.540   4.812
 9386TIP3    H228044   6.379   4.503   4.927
 9387TIP3   OH228045   6.517   4.227   2.992
 9387TIP3    H128046   6.495   4.181   2.908
 9387TIP3    H228047   6.484   4.317   2.969
 9388TIP3   OH228048   5.989   3.955   4.839
 9388TIP3    H128049   5.981   3.876   4.783
 9388TIP3    H228050   5.942   4.023   4.786
 9389TIP3   OH228051   6.001   3.716   4.649
 9389TIP3    H128052   6.025   3.770   4.571
 9389TIP3    H228053   5.905   3.704   4.636
 9390TIP3   OH228054   6.020   4.273   4.526
 9390TIP3    H128055   6.099   4.280   4.472
 9390TIP3    H228056   5.960   4.339   4.484
 9391TIP3   OH228057   6.591   4.238   4.900
 9391TIP3    H128058   6.631   4.172   4.960
 9391TIP3    H228059   6.668   4.290   4.874
 9392TIP3   OH228060   6.642   4.495   4.636
 9392TIP3    H128061   6.585   4.550   4.578
 9392TIP3    H228062   6.730   4.515   4.598
 9393TIP3   OH228063   5.866   4.065   5.076
 9393TIP3    H128064   5.794   3.999   5.088
 9393TIP3    H228065   5.897   4.044   4.986
 9394TIP3   OH228066   6.248   4.008   4.934
 9394TIP3    H128067   6.233   3.996   5.029
 9394TIP3    H228068   6.157   3.990   4.902
 9395TIP3   OH228069   6.481   3.939   4.785
 9395TIP3    H128070   6.412   3.961   4.851
 9395TIP3    H228071   6.559   3.925   4.842
 9396TIP3   OH228072   6.714   3.898   4.937
 9396TIP3    H128073   6.724   3.805   4.966
 9396TIP3    H228074   6.695   3.945   5.021
 9397TIP3   OH228075   5.700   3.846   5.126
 9397TIP3    H128076   5.709   3.755   5.093
 9397TIP3    H228077   5.736   3.837   5.216
 9398TIP3   OH228078   6.183   3.479   4.918
 9398TIP3    H128079   6.259   3.432   4.959
 9398TIP3    H228080   6.224   3.560   4.891
 9399TIP3   OH228081   6.250   3.699   5.131
 9399TIP3    H128082   6.205   3.657   5.058
 9399TIP3    H228083   6.207   3.787   5.136
 9400TIP3   OH228084   5.502   4.960   3.235
 9400TIP3    H128085   5.597   4.954   3.215
 9400TIP3    H228086   5.472   5.007   3.155
 9401TIP3   OH228087   4.981   4.340   3.450
 9401TIP3    H128088   5.076   4.361   3.435
 9401TIP3    H228089   4.975   4.251   3.409
 9402TIP3   OH228090   4.895   4.953   3.864
 9402TIP3    H128091   4.829   4.890   3.827
 9402TIP3    H228092   4.940   4.895   3.930
 9403TIP3   OH228093   5.028   4.805   4.053
 9403TIP3    H128094   5.025   4.728   4.112
 9403TIP3    H228095   5.084   4.863   4.107
 9404TIP3   OH228096   6.768   5.204   3.860
 9404TIP3    H128097   6.803   5.254   3.934
 9404TIP3    H228098   6.817   5.239   3.785
 9405TIP3   OH228099   6.842   4.907   4.706
 9405TIP3    H128100   6.770   4.918   4.772
 9405TIP3    H228101   6.864   4.998   4.682
 9406TIP3   OH228102   6.651   4.413   3.325
 9406TIP3    H128103   6.720   4.477   3.297
 9406TIP3    H228104   6.694   4.374   3.405
 9407TIP3   OH228105   6.778   4.281   3.529
 9407TIP3    H128106   6.713   4.239   3.589
 9407TIP3    H228107   6.844   4.318   3.591
 9408TIP3   OH228108   6.829   4.670   3.960
 9408TIP3    H128109   6.883   4.604   3.913
 9408TIP3    H228110   6.816   4.739   3.892
 9409TIP3   OH228111   6.717   4.188   3.175
 9409TIP3    H128112   6.645   4.191   3.108
 9409TIP3    H228113   6.689   4.264   3.231
 9410TIP3   OH228114   6.588   3.861   3.129
 9410TIP3    H128115   6.544   3.900   3.053
 9410TIP3    H228116   6.563   3.767   3.120
 9411TIP3   OH228117   6.592   4.138   3.675
 9411TIP3    H128118   6.601   4.041   3.670
 9411TIP3    H228119   6.579   4.152   3.772
 9412TIP3   OH228120   5.217   4.213   4.420
 9412TIP3    H128121   5.219   4.180   4.327
 9412TIP3    H228122   5.314   4.215   4.440
 9413TIP3   OH228123   6.884   4.563   4.528
 9413TIP3    H128124   6.952   4.492   4.525
 9413TIP3    H228125   6.931   4.636   4.482
 9414TIP3   OH228126   7.064   4.368   4.550
 9414TIP3    H128127   6.993   4.313   4.589
 9414TIP3    H228128   7.141   4.308   4.562
 9415TIP3   OH228129   6.531   3.595   3.115
 9415TIP3    H128130   6.606   3.565   3.170
 9415TIP3    H228131   6.458   3.537   3.140
 9416TIP3   OH228132   6.589   3.853   3.570
 9416TIP3    H128133   6.629   3.764   3.585
 9416TIP3    H228134   6.647   3.886   3.500
 9417TIP3   OH228135   6.750   4.027   4.064
 9417TIP3    H128136   6.836   4.052   4.024
 9417TIP3    H228137   6.763   4.065   4.154
 9418TIP3   OH228138   6.818   4.169   4.296
 9418TIP3    H128139   6.743   4.205   4.347
 9418TIP3    H228140   6.852   4.250   4.251
 9419TIP3   OH228141   5.431   3.891   5.085
 9419TIP3    H128142   5.528   3.894   5.093
 9419TIP3    H228143   5.411   3.809   5.135
 9420TIP3   OH228144   7.273   3.762   4.853
 9420TIP3    H128145   7.331   3.697   4.809
 9420TIP3    H228146   7.243   3.817   4.778
 9421TIP3   OH228147   6.698   3.603   3.607
 9421TIP3    H128148   6.747   3.588   3.691
 9421TIP3    H228149   6.638   3.527   3.607
 9422TIP3   OH228150   5.400   3.587   4.424
 9422TIP3    H128151   5.465   3.515   4.437
 9422TIP3    H228152   5.459   3.664   4.421
 9423TIP3   OH228153   5.201   3.860   4.502
 9423TIP3    H128154   5.252   3.863   4.418
 9423TIP3    H228155   5.220   3.947   4.539
 9424TIP3   OH228156   7.143   3.902   4.660
 9424TIP3    H128157   7.059   3.944   4.689
 9424TIP3    H228158   7.108   3.833   4.601
 9425TIP3   OH228159   6.778   3.538   3.240
 9425TIP3    H128160   6.819   3.466   3.188
 9425TIP3    H228161   6.846   3.609   3.235
 9426TIP3   OH228162   5.184   3.367   4.001
 9426TIP3    H128163   5.091   3.363   4.028
 9426TIP3    H228164   5.181   3.425   3.923
 9427TIP3   OH228165   6.341   5.072   3.507
 9427TIP3    H128166   6.394   5.058   3.426
 9427TIP3    H228167   6.398   5.132   3.558
 9428TIP3   OH228168   5.405   3.440   4.811
 9428TIP3    H128169   5.358   3.441   4.897
 9428TIP3    H228170   5.339   3.484   4.754
 9429TIP3   OH228171   7.041   3.666   4.536
 9429TIP3    H128172   6.950   3.661   4.503
 9429TIP3    H228173   7.071   3.573   4.525
 9430TIP3   OH228174   5.299   5.176   4.458
 9430TIP3    H128175   5.214   5.213   4.425
 9430TIP3    H228176   5.269   5.142   4.542
 9431TIP3   OH228177   5.536   5.172   4.316
 9431TIP3    H128178   5.446   5.174   4.353
 9431TIP3    H228179   5.519   5.190   4.222
 9432TIP3   OH228180   5.974   5.180   4.079
 9432TIP3    H128181   5.890   5.207   4.041
 9432TIP3    H228182   5.990   5.246   4.147
 9433TIP3   OH228183   5.212   4.965   4.203
 9433TIP3    H128184   5.241   4.947   4.294
 9433TIP3    H228185   5.279   4.914   4.152
 9434TIP3   OH228186   5.401   4.827   4.066
 9434TIP3    H128187   5.418   4.742   4.114
 9434TIP3    H228188   5.492   4.862   4.057
 9435TIP3   OH228189   5.665   4.923   4.062
 9435TIP3    H128190   5.701   4.833   4.053
 9435TIP3    H228191   5.711   4.953   4.141
 9436TIP3   OH228192   6.251   3.583   4.159
 9436TIP3    H128193   6.202   3.512   4.204
 9436TIP3    H228194   6.321   3.534   4.111
 9437TIP3   OH228195   6.768   3.458   4.060
 9437TIP3    H128196   6.806   3.511   3.987
 9437TIP3    H228197   6.674   3.480   4.055
 9438TIP3   OH228198   6.864   3.560   3.825
 9438TIP3    H128199   6.938   3.509   3.785
 9438TIP3    H228200   6.897   3.652   3.810
 9439TIP3   OH228201   5.494   3.289   4.172
 9439TIP3    H128202   5.401   3.257   4.173
 9439TIP3    H228203   5.541   3.203   4.168
 9440TIP3   OH228204   5.284   3.158   3.821
 9440TIP3    H128205   5.311   3.216   3.747
 9440TIP3    H228206   5.253   3.223   3.887
 9441TIP3   OH228207   5.940   3.318   4.052
 9441TIP3    H128208   5.997   3.367   3.990
 9441TIP3    H228209   5.949   3.371   4.132
 9442TIP3   OH228210   6.482   3.465   4.037
 9442TIP3    H128211   6.484   3.429   3.948
 9442TIP3    H228212   6.470   3.384   4.092
 9443TIP3   OH228213   6.515   3.390   3.599
 9443TIP3    H128214   6.428   3.433   3.611
 9443TIP3    H228215   6.500   3.305   3.645
 9444TIP3   OH228216   4.998   4.729   3.599
 9444TIP3    H128217   4.913   4.695   3.565
 9444TIP3    H228218   4.987   4.823   3.576
 9445TIP3   OH228219   5.398   3.317   3.584
 9445TIP3    H128220   5.446   3.255   3.526
 9445TIP3    H228221   5.471   3.371   3.620
 9446TIP3   OH228222   5.910   3.493   3.682
 9446TIP3    H128223   5.971   3.446   3.742
 9446TIP3    H228224   5.931   3.586   3.707
 9447TIP3   OH228225   5.770   4.918   3.181
 9447TIP3    H128226   5.858   4.940   3.146
 9447TIP3    H228227   5.748   4.843   3.122
 9448TIP3   OH228228   6.489   5.036   3.275
 9448TIP3    H128229   6.481   4.938   3.264
 9448TIP3    H228230   6.443   5.068   3.195
 9449TIP3   OH228231   5.703   3.565   5.059
 9449TIP3    H128232   5.665   3.498   5.119
 9449TIP3    H228233   5.796   3.567   5.091
 9450TIP3   OH228234   5.949   3.563   5.182
 9450TIP3    H128235   6.040   3.542   5.160
 9450TIP3    H228236   5.932   3.495   5.251
 9451TIP3   OH228237   5.075   4.756   3.238
 9451TIP3    H128238   5.075   4.778   3.333
 9451TIP3    H228239   5.163   4.713   3.226
 9452TIP3   OH228240   6.773   3.621   4.968
 9452TIP3    H128241   6.792   3.596   5.062
 9452TIP3    H228242   6.863   3.622   4.930
 9453TIP3   OH228243   7.982   4.553   3.227
 9453TIP3    H128244   7.954   4.644   3.209
 9453TIP3    H228245   7.904   4.504   3.197
 9454TIP3   OH228246   7.982   4.551   3.609
 9454TIP3    H128247   8.013   4.525   3.697
 9454TIP3    H228248   7.938   4.470   3.578
 9455TIP3   OH228249   7.280   4.446   3.971
 9455TIP3    H128250   7.309   4.379   4.036
 9455TIP3    H228251   7.353   4.510   3.978
 9456TIP3   OH228252   8.224   4.855   3.291
 9456TIP3    H128253   8.209   4.786   3.357
 9456TIP3    H228254   8.251   4.930   3.346
 9457TIP3   OH228255   7.251   4.858   3.695
 9457TIP3    H128256   7.241   4.760   3.699
 9457TIP3    H228257   7.348   4.865   3.694
 9458TIP3   OH228258   6.959   4.060   3.483
 9458TIP3    H128259   6.911   4.144   3.500
 9458TIP3    H228260   6.887   4.007   3.445
 9459TIP3   OH228261   7.017   4.347   3.656
 9459TIP3    H128262   7.065   4.270   3.693
 9459TIP3    H228263   7.079   4.379   3.589
 9460TIP3   OH228264   7.869   5.319   3.302
 9460TIP3    H128265   7.919   5.243   3.264
 9460TIP3    H228266   7.860   5.295   3.395
 9461TIP3   OH228267   7.779   4.778   3.656
 9461TIP3    H128268   7.819   4.702   3.612
 9461TIP3    H228269   7.861   4.825   3.682
 9462TIP3   OH228270   8.791   4.099   3.654
 9462TIP3    H128271   8.821   4.182   3.696
 9462TIP3    H228272   8.817   4.114   3.562
 9463TIP3   OH228273   8.192   4.280   3.690
 9463TIP3    H128274   8.234   4.194   3.710
 9463TIP3    H228275   8.161   4.264   3.599
 9464TIP3   OH228276   7.530   3.939   3.655
 9464TIP3    H128277   7.509   4.012   3.593
 9464TIP3    H228278   7.481   3.866   3.612
 9465TIP3   OH228279   8.223   4.030   3.277
 9465TIP3    H128280   8.295   4.014   3.343
 9465TIP3    H228281   8.277   4.065   3.204
 9466TIP3   OH228282   7.163   4.142   3.762
 9466TIP3    H128283   7.245   4.123   3.811
 9466TIP3    H228284   7.177   4.085   3.683
 9467TIP3   OH228285   7.605   4.339   3.552
 9467TIP3    H128286   7.698   4.313   3.568
 9467TIP3    H228287   7.565   4.255   3.522
 9468TIP3   OH228288   8.866   4.307   3.825
 9468TIP3    H128289   8.782   4.353   3.804
 9468TIP3    H228290   8.875   4.328   3.919
 9469TIP3   OH228291   7.526   3.922   4.090
 9469TIP3    H128292   7.466   3.960   4.023
 9469TIP3    H228293   7.474   3.940   4.171
 9470TIP3   OH228294   7.875   4.775   3.097
 9470TIP3    H128295   7.829   4.754   3.014
 9470TIP3    H228296   7.831   4.859   3.122
 9471TIP3   OH228297   7.628   4.702   3.889
 9471TIP3    H128298   7.566   4.766   3.929
 9471TIP3    H228299   7.670   4.756   3.819
 9472TIP3   OH228300   8.433   4.033   3.449
 9472TIP3    H128301   8.423   3.985   3.533
 9472TIP3    H228302   8.487   4.110   3.476
 9473TIP3   OH228303   7.396   4.038   3.874
 9473TIP3    H128304   7.458   4.111   3.898
 9473TIP3    H228305   7.447   3.998   3.800
 9474TIP3   OH228306   7.445   4.893   3.993
 9474TIP3    H128307   7.412   4.976   3.956
 9474TIP3    H228308   7.379   4.878   4.063
 9475TIP3   OH228309   6.855   4.582   3.218
 9475TIP3    H128310   6.813   4.610   3.135
 9475TIP3    H228311   6.886   4.667   3.256
 9476TIP3   OH228312   8.296   5.098   3.459
 9476TIP3    H128313   8.207   5.088   3.500
 9476TIP3    H228314   8.286   5.184   3.414
 9477TIP3   OH228315   8.586   3.999   3.822
 9477TIP3    H128316   8.498   4.027   3.791
 9477TIP3    H228317   8.645   4.031   3.750
 9478TIP3   OH228318   7.882   3.642   3.804
 9478TIP3    H128319   7.868   3.547   3.821
 9478TIP3    H228320   7.805   3.680   3.851
 9479TIP3   OH228321   7.999   5.142   3.133
 9479TIP3    H128322   8.049   5.060   3.112
 9479TIP3    H228323   8.058   5.209   3.092
 9480TIP3   OH228324   8.141   4.928   3.038
 9480TIP3    H128325   8.097   4.850   3.004
 9480TIP3    H228326   8.177   4.894   3.123
 9481TIP3   OH228327   8.522   5.010   3.802
 9481TIP3    H128328   8.509   4.932   3.744
 9481TIP3    H228329   8.503   5.084   3.741
 9482TIP3   OH228330   7.811   4.403   3.059
 9482TIP3    H128331   7.731   4.456   3.038
 9482TIP3    H228332   7.858   4.403   2.974
 9483TIP3   OH228333   7.770   4.190   2.775
 9483TIP3    H128334   7.837   4.240   2.825
 9483TIP3    H228335   7.827   4.126   2.728
 9484TIP3   OH228336   8.717   4.650   3.649
 9484TIP3    H128337   8.633   4.700   3.653
 9484TIP3    H228338   8.745   4.672   3.557
 9485TIP3   OH228339   8.160   4.486   3.031
 9485TIP3    H128340   8.105   4.511   3.109
 9485TIP3    H228341   8.244   4.461   3.075
 9486TIP3   OH228342   8.394   4.527   3.943
 9486TIP3    H128343   8.390   4.611   3.992
 9486TIP3    H228344   8.307   4.529   3.898
 9487TIP3   OH228345   7.392   4.485   3.447
 9487TIP3    H128346   7.351   4.426   3.380
 9487TIP3    H228347   7.469   4.431   3.477
 9488TIP3   OH228348   7.524   4.898   3.596
 9488TIP3    H128349   7.503   4.855   3.512
 9488TIP3    H228350   7.613   4.863   3.615
 9489TIP3   OH228351   7.533   4.455   3.801
 9489TIP3    H128352   7.565   4.437   3.711
 9489TIP3    H228353   7.572   4.543   3.822
 9490TIP3   OH228354   8.057   5.092   3.580
 9490TIP3    H128355   8.039   5.172   3.633
 9490TIP3    H228356   8.038   5.020   3.644
 9491TIP3   OH228357   7.649   5.031   4.130
 9491TIP3    H128358   7.594   5.112   4.144
 9491TIP3    H228359   7.582   4.974   4.087
 9492TIP3   OH228360   8.001   4.344   2.857
 9492TIP3    H128361   8.059   4.404   2.909
 9492TIP3    H228362   8.027   4.368   2.765
 9493TIP3   OH228363   7.419   4.566   4.217
 9493TIP3    H128364   7.427   4.653   4.262
 9493TIP3    H228365   7.325   4.547   4.237
 9494TIP3   OH228366   7.744   5.024   3.130
 9494TIP3    H128367   7.822   5.078   3.150
 9494TIP3    H228368   7.682   5.089   3.095
 9495TIP3   OH228369   8.515   3.586   2.905
 9495TIP3    H128370   8.434   3.606   2.956
 9495TIP3    H228371   8.528   3.670   2.856
 9496TIP3   OH228372   7.259   4.327   3.250
 9496TIP3    H128373   7.192   4.371   3.195
 9496TIP3    H228374   7.218   4.241   3.267
 9497TIP3   OH228375   8.315   4.952   2.452
 9497TIP3    H128376   8.323   5.049   2.439
 9497TIP3    H228377   8.408   4.924   2.442
 9498TIP3   OH228378   7.023   4.708   4.162
 9498TIP3    H128379   6.968   4.681   4.087
 9498TIP3    H228380   7.078   4.630   4.181
 9499TIP3   OH228381   6.893   4.907   3.784
 9499TIP3    H128382   6.988   4.892   3.794
 9499TIP3    H228383   6.875   4.981   3.843
 9500TIP3   OH228384   8.766   5.370   3.858
 9500TIP3    H128385   8.773   5.273   3.864
 9500TIP3    H228386   8.678   5.384   3.900
 9501TIP3   OH228387   7.876   5.132   4.001
 9501TIP3    H128388   7.867   5.229   4.014
 9501TIP3    H228389   7.790   5.103   4.038
 9502TIP3   OH228390   7.624   5.271   2.934
 9502TIP3    H128391   7.577   5.254   2.850
 9502TIP3    H228392   7.592   5.359   2.959
 9503TIP3   OH228393   7.061   5.119   3.319
 9503TIP3    H128394   7.111   5.110   3.403
 9503TIP3    H228395   7.007   5.038   3.321
 9504TIP3   OH228396   7.825   5.172   2.575
 9504TIP3    H128397   7.885   5.102   2.539
 9504TIP3    H228398   7.859   5.181   2.666
 9505TIP3   OH228399   7.876   5.219   2.845
 9505TIP3    H128400   7.787   5.229   2.887
 9505TIP3    H228401   7.926   5.180   2.917
 9506TIP3   OH228402   8.652   4.490   4.119
 9506TIP3    H128403   8.567   4.501   4.073
 9506TIP3    H228404   8.665   4.393   4.111
 9507TIP3   OH228405   7.644   3.718   3.932
 9507TIP3    H128406   7.554   3.687   3.906
 9507TIP3    H228407   7.619   3.800   3.979
 9508TIP3   OH228408   8.177   3.832   4.127
 9508TIP3    H128409   8.245   3.805   4.192
 9508TIP3    H228410   8.093   3.813   4.174
 9509TIP3   OH228411   8.419   4.264   4.047
 9509TIP3    H128412   8.367   4.259   4.131
 9509TIP3    H228413   8.391   4.349   4.010
 9510TIP3   OH228414   8.077   4.389   2.601
 9510TIP3    H128415   8.043   4.366   2.513
 9510TIP3    H228416   8.155   4.442   2.578
 9511TIP3   OH228417   7.789   3.767   2.904
 9511TIP3    H128418   7.756   3.764   2.996
 9511TIP3    H228419   7.750   3.684   2.870
 9512TIP3   OH228420   7.575   4.233   3.951
 9512TIP3    H128421   7.524   4.255   4.033
 9512TIP3    H228422   7.559   4.315   3.898
 9513TIP3   OH228423   7.459   4.119   3.465
 9513TIP3    H128424   7.366   4.093   3.483
 9513TIP3    H228425   7.471   4.078   3.376
 9514TIP3   OH228426   7.950   4.205   3.193
 9514TIP3    H128427   7.897   4.276   3.151
 9514TIP3    H228428   8.004   4.174   3.118
 9515TIP3   OH228429   8.124   4.483   4.278
 9515TIP3    H128430   8.101   4.411   4.341
 9515TIP3    H228431   8.218   4.497   4.301
 9516TIP3   OH228432   8.107   4.233   3.432
 9516TIP3    H128433   8.046   4.263   3.361
 9516TIP3    H228434   8.140   4.152   3.389
 9517TIP3   OH228435   7.394   4.262   4.160
 9517TIP3    H128436   7.414   4.329   4.227
 9517TIP3    H228437   7.384   4.181   4.214
 9518TIP3   OH228438   7.444   3.740   2.869
 9518TIP3    H128439   7.436   3.737   2.967
 9518TIP3    H228440   7.365   3.792   2.845
 9519TIP3   OH228441   6.987   3.784   3.740
 9519TIP3    H128442   7.061   3.816   3.795
 9519TIP3    H228443   7.030   3.752   3.659
 9520TIP3   OH228444   6.959   3.765   3.259
 9520TIP3    H128445   7.005   3.804   3.181
 9520TIP3    H228446   6.899   3.839   3.280
 9521TIP3   OH228447   8.119   4.480   3.854
 9521TIP3    H128448   8.151   4.407   3.796
 9521TIP3    H228449   8.088   4.428   3.931
 9522TIP3   OH228450   7.786   3.941   3.526
 9522TIP3    H128451   7.704   3.940   3.579
 9522TIP3    H228452   7.854   3.940   3.595
 9523TIP3   OH228453   7.221   3.998   3.534
 9523TIP3    H128454   7.126   4.005   3.507
 9523TIP3    H228455   7.243   3.906   3.511
 9524TIP3   OH228456   7.490   3.992   3.223
 9524TIP3    H128457   7.584   4.009   3.202
 9524TIP3    H228458   7.443   4.016   3.140
 9525TIP3   OH228459   8.279   4.017   3.728
 9525TIP3    H128460   8.245   4.029   3.819
 9525TIP3    H228461   8.212   3.956   3.692
 9526TIP3   OH228462   7.332   4.027   3.002
 9526TIP3    H128463   7.259   3.983   2.954
 9526TIP3    H228464   7.383   4.063   2.926
 9527TIP3   OH228465   8.448   5.705   3.947
 9527TIP3    H128466   8.444   5.728   3.852
 9527TIP3    H228467   8.522   5.760   3.977
 9528TIP3   OH228468   7.413   4.796   4.369
 9528TIP3    H128469   7.488   4.832   4.421
 9528TIP3    H228470   7.348   4.776   4.436
 9529TIP3   OH228471   7.869   4.269   3.624
 9529TIP3    H128472   7.943   4.230   3.575
 9529TIP3    H228473   7.877   4.228   3.712
 9530TIP3   OH228474   7.392   3.757   3.502
 9530TIP3    H128475   7.357   3.679   3.550
 9530TIP3    H228476   7.443   3.717   3.431
 9531TIP3   OH228477   7.845   4.167   3.913
 9531TIP3    H128478   7.756   4.203   3.928
 9531TIP3    H228479   7.902   4.228   3.964
 9532TIP3   OH228480   7.583   4.557   3.008
 9532TIP3    H128481   7.510   4.492   2.997
 9532TIP3    H228482   7.564   4.591   3.099
 9533TIP3   OH228483   8.483   4.792   3.638
 9533TIP3    H128484   8.506   4.843   3.557
 9533TIP3    H228485   8.397   4.751   3.613
 9534TIP3   OH228486   8.040   3.871   2.866
 9534TIP3    H128487   7.944   3.853   2.879
 9534TIP3    H228488   8.049   3.964   2.895
 9535TIP3   OH228489   7.986   4.878   4.006
 9535TIP3    H128490   7.999   4.856   4.099
 9535TIP3    H228491   7.946   4.967   4.011
 9536TIP3   OH228492   8.110   4.116   2.973
 9536TIP3    H128493   8.206   4.122   2.991
 9536TIP3    H228494   8.092   4.197   2.923
 9537TIP3   OH228495   7.274   4.579   3.685
 9537TIP3    H128496   7.314   4.549   3.601
 9537TIP3    H228497   7.314   4.518   3.750
 9538TIP3   OH228498   7.727   4.706   2.828
 9538TIP3    H128499   7.680   4.792   2.834
 9538TIP3    H228500   7.673   4.651   2.889
 9539TIP3   OH228501   7.160   4.500   4.294
 9539TIP3    H128502   7.187   4.494   4.388
 9539TIP3    H228503   7.088   4.435   4.289
 9540TIP3   OH228504   7.880   4.614   4.318
 9540TIP3    H128505   7.819   4.554   4.271
 9540TIP3    H228506   7.967   4.579   4.288
 9541TIP3   OH228507   8.144   5.137   3.900
 9541TIP3    H128508   8.048   5.131   3.917
 9541TIP3    H228509   8.171   5.188   3.979
 9542TIP3   OH228510   8.551   4.207   2.811
 9542TIP3    H128511   8.491   4.162   2.747
 9542TIP3    H228512   8.548   4.297   2.771
 9543TIP3   OH228513   8.773   5.081   3.882
 9543TIP3    H128514   8.675   5.068   3.878
 9543TIP3    H228515   8.799   5.041   3.797
 9544TIP3   OH228516   8.251   5.026   2.718
 9544TIP3    H128517   8.228   4.957   2.781
 9544TIP3    H228518   8.265   4.977   2.635
 9545TIP3   OH228519   8.249   4.655   3.556
 9545TIP3    H128520   8.156   4.631   3.570
 9545TIP3    H228521   8.282   4.575   3.511
 9546TIP3   OH228522   7.376   4.882   3.307
 9546TIP3    H128523   7.376   4.964   3.255
 9546TIP3    H228524   7.281   4.867   3.320
 9547TIP3   OH228525   6.939   4.187   3.013
 9547TIP3    H128526   6.985   4.271   3.034
 9547TIP3    H228527   6.862   4.192   3.074
 9548TIP3   OH228528   7.514   4.648   3.252
 9548TIP3    H128529   7.479   4.737   3.271
 9548TIP3    H228530   7.479   4.598   3.328
 9549TIP3   OH228531   7.294   5.123   3.161
 9549TIP3    H128532   7.209   5.131   3.207
 9549TIP3    H228533   7.327   5.215   3.165
 9550TIP3   OH228534   8.032   4.859   3.738
 9550TIP3    H128535   8.021   4.861   3.835
 9550TIP3    H228536   8.113   4.807   3.728
 9551TIP3   OH228537   8.008   4.752   2.620
 9551TIP3    H128538   8.061   4.728   2.699
 9551TIP3    H228539   7.919   4.727   2.650
 9552TIP3   OH228540   8.284   5.393   3.788
 9552TIP3    H128541   8.205   5.336   3.784
 9552TIP3    H228542   8.265   5.457   3.716
 9553TIP3   OH228543   8.347   5.228   2.439
 9553TIP3    H128544   8.386   5.301   2.389
 9553TIP3    H228545   8.267   5.274   2.473
 9554TIP3   OH228546   7.368   4.003   4.306
 9554TIP3    H128547   7.272   4.009   4.322
 9554TIP3    H228548   7.396   3.946   4.379
 9555TIP3   OH228549   8.168   4.685   2.834
 9555TIP3    H128550   8.158   4.621   2.908
 9555TIP3    H228551   8.266   4.684   2.824
 9556TIP3   OH228552   7.373   4.734   2.619
 9556TIP3    H128553   7.388   4.642   2.592
 9556TIP3    H228554   7.355   4.723   2.715
 9557TIP3   OH228555   7.319   4.739   2.891
 9557TIP3    H128556   7.390   4.712   2.951
 9557TIP3    H228557   7.323   4.837   2.899
 9558TIP3   OH228558   7.054   4.432   3.095
 9558TIP3    H128559   6.988   4.477   3.152
 9558TIP3    H228560   7.068   4.502   3.028
 9559TIP3   OH228561   8.206   4.068   3.986
 9559TIP3    H128562   8.284   4.106   4.029
 9559TIP3    H228563   8.190   3.988   4.041
 9560TIP3   OH228564   8.085   3.820   3.152
 9560TIP3    H128565   8.072   3.845   3.058
 9560TIP3    H228566   8.124   3.902   3.189
 9561TIP3   OH228567   7.584   4.936   2.839
 9561TIP3    H128568   7.498   4.962   2.876
 9561TIP3    H228569   7.602   5.011   2.781
 9562TIP3   OH228570   7.773   4.000   3.254
 9562TIP3    H128571   7.837   4.072   3.238
 9562TIP3    H228572   7.778   3.992   3.352
 9563TIP3   OH228573   8.043   4.319   4.061
 9563TIP3    H128574   8.062   4.374   4.140
 9563TIP3    H228575   8.097   4.240   4.077
 9564TIP3   OH228576   7.917   3.727   3.357
 9564TIP3    H128577   7.912   3.803   3.417
 9564TIP3    H228578   7.978   3.762   3.288
 9565TIP3   OH228579   7.328   5.012   2.908
 9565TIP3    H128580   7.298   5.082   2.846
 9565TIP3    H228581   7.312   5.055   2.995
 9566TIP3   OH228582   7.429   3.725   3.145
 9566TIP3    H128583   7.427   3.816   3.183
 9566TIP3    H228584   7.525   3.707   3.154
 9567TIP3   OH228585   8.685   4.219   4.042
 9567TIP3    H128586   8.587   4.220   4.052
 9567TIP3    H228587   8.692   4.175   3.956
 9568TIP3   OH228588   8.334   4.413   3.430
 9568TIP3    H128589   8.258   4.354   3.444
 9568TIP3    H228590   8.406   4.367   3.479
 9569TIP3   OH228591   7.046   4.642   2.900
 9569TIP3    H128592   7.113   4.713   2.910
 9569TIP3    H228593   7.092   4.587   2.833
 9570TIP3   OH228594   6.991   3.917   3.033
 9570TIP3    H128595   6.990   4.015   3.030
 9570TIP3    H228596   6.907   3.896   2.993
 9571TIP3   OH228597   8.302   5.370   3.381
 9571TIP3    H128598   8.259   5.417   3.306
 9571TIP3    H228599   8.396   5.387   3.359
 9572TIP3   OH228600   7.379   3.638   3.907
 9572TIP3    H128601   7.347   3.604   3.821
 9572TIP3    H228602   7.368   3.559   3.965
 9573TIP3   OH228603   6.918   4.858   3.288
 9573TIP3    H128604   6.847   4.886   3.346
 9573TIP3    H228605   6.891   4.897   3.202
 9574TIP3   OH228606   7.566   5.364   4.377
 9574TIP3    H128607   7.647   5.314   4.384
 9574TIP3    H228608   7.527   5.328   4.294
 9575TIP3   OH228609   7.536   4.938   2.531
 9575TIP3    H128610   7.480   4.867   2.570
 9575TIP3    H228611   7.612   4.885   2.501
 9576TIP3   OH228612   8.200   5.269   4.135
 9576TIP3    H128613   8.187   5.198   4.203
 9576TIP3    H228614   8.272   5.321   4.173
 9577TIP3   OH228615   7.973   4.978   2.444
 9577TIP3    H128616   8.018   4.916   2.503
 9577TIP3    H228617   8.031   4.978   2.365
 9578TIP3   OH228618   7.182   4.455   2.753
 9578TIP3    H128619   7.237   4.422   2.826
 9578TIP3    H228620   7.250   4.460   2.682
 9579TIP3   OH228621   7.812   4.895   4.331
 9579TIP3    H128622   7.763   4.913   4.248
 9579TIP3    H228623   7.838   4.801   4.322
 9580TIP3   OH228624   7.691   4.654   2.559
 9580TIP3    H128625   7.694   4.666   2.656
 9580TIP3    H228626   7.691   4.556   2.554
 9581TIP3   OH228627   8.306   4.895   3.940
 9581TIP3    H128628   8.377   4.945   3.896
 9581TIP3    H228629   8.231   4.957   3.930
 9582TIP3   OH228630   7.332   4.517   4.531
 9582TIP3    H128631   7.418   4.472   4.532
 9582TIP3    H228632   7.336   4.567   4.615
 9583TIP3   OH228633   7.390   4.359   2.975
 9583TIP3    H128634   7.362   4.319   3.059
 9583TIP3    H228635   7.425   4.282   2.926
 9584TIP3   OH228636   7.660   4.424   4.204
 9584TIP3    H128637   7.581   4.481   4.206
 9584TIP3    H228638   7.708   4.458   4.125
 9585TIP3   OH228639   7.490   4.152   2.816
 9585TIP3    H128640   7.464   4.156   2.721
 9585TIP3    H228641   7.588   4.157   2.808
 9586TIP3   OH228642   8.176   4.825   4.338
 9586TIP3    H128643   8.254   4.797   4.289
 9586TIP3    H228644   8.170   4.758   4.408
 9587TIP3   OH228645   8.314   4.484   2.477
 9587TIP3    H128646   8.287   4.439   2.395
 9587TIP3    H228647   8.282   4.575   2.457
 9588TIP3   OH228648   7.783   4.212   4.328
 9588TIP3    H128649   7.782   4.132   4.272
 9588TIP3    H228650   7.738   4.278   4.272
 9589TIP3   OH228651   7.785   3.996   4.136
 9589TIP3    H128652   7.811   4.039   4.052
 9589TIP3    H228653   7.691   3.975   4.118
 9590TIP3   OH228654   7.810   4.533   4.007
 9590TIP3    H128655   7.894   4.546   3.961
 9590TIP3    H228656   7.753   4.601   3.966
 9591TIP3   OH228657   8.394   4.499   4.391
 9591TIP3    H128658   8.442   4.416   4.403
 9591TIP3    H228659   8.462   4.558   4.356
 9592TIP3   OH228660   8.438   4.754   4.128
 9592TIP3    H128661   8.378   4.806   4.069
 9592TIP3    H228662   8.524   4.775   4.087
 9593TIP3   OH228663   7.661   4.322   4.561
 9593TIP3    H128664   7.592   4.254   4.575
 9593TIP3    H228665   7.694   4.297   4.473
 9594TIP3   OH228666   7.917   3.760   4.203
 9594TIP3    H128667   7.868   3.843   4.181
 9594TIP3    H228668   7.847   3.693   4.193
 9595TIP3   OH228669   8.043   4.265   4.420
 9595TIP3    H128670   8.030   4.253   4.516
 9595TIP3    H228671   7.953   4.241   4.388
 9596TIP3   OH228672   8.282   4.213   4.275
 9596TIP3    H128673   8.206   4.216   4.336
 9596TIP3    H228674   8.355   4.183   4.333
 9597TIP3   OH228675   8.515   4.156   4.425
 9597TIP3    H128676   8.525   4.060   4.444
 9597TIP3    H228677   8.508   4.195   4.515
 9598TIP3   OH228678   7.498   4.103   4.613
 9598TIP3    H128679   7.504   4.012   4.579
 9598TIP3    H228680   7.534   4.092   4.703
 9599TIP3   OH228681   8.012   3.771   4.461
 9599TIP3    H128682   8.079   3.700   4.455
 9599TIP3    H228683   7.971   3.765   4.372
 9600TIP3   OH228684   8.078   3.986   4.620
 9600TIP3    H128685   8.055   3.915   4.556
 9600TIP3    H228686   7.999   4.045   4.614
 9601TIP3   OH228687   7.298   5.215   2.720
 9601TIP3    H128688   7.393   5.209   2.702
 9601TIP3    H228689   7.269   5.264   2.641
 9602TIP3   OH228690   6.777   4.597   2.936
 9602TIP3    H128691   6.872   4.618   2.923
 9602TIP3    H228692   6.772   4.508   2.895
 9603TIP3   OH228693   6.692   5.209   3.350
 9603TIP3    H128694   6.625   5.147   3.314
 9603TIP3    H228695   6.736   5.151   3.416
 9604TIP3   OH228696   6.826   5.060   3.538
 9604TIP3    H128697   6.818   4.984   3.598
 9604TIP3    H228698   6.883   5.118   3.591
 9605TIP3   OH228699   8.556   5.459   3.336
 9605TIP3    H128700   8.582   5.492   3.424
 9605TIP3    H228701   8.617   5.505   3.277
 9606TIP3   OH228702   8.586   5.481   3.618
 9606TIP3    H128703   8.538   5.395   3.613
 9606TIP3    H228704   8.658   5.456   3.678
 9607TIP3   OH228705   8.631   5.157   4.195
 9607TIP3    H128706   8.556   5.162   4.257
 9607TIP3    H228707   8.664   5.249   4.196
 9608TIP3   OH228708   8.447   4.670   2.811
 9608TIP3    H128709   8.515   4.734   2.782
 9608TIP3    H228710   8.491   4.632   2.891
 9609TIP3   OH228711   8.574   4.538   3.016
 9609TIP3    H128712   8.509   4.496   3.076
 9609TIP3    H228713   8.640   4.576   3.079
 9610TIP3   OH228714   8.632   4.931   3.450
 9610TIP3    H128715   8.683   4.864   3.400
 9610TIP3    H228716   8.622   5.003   3.385
 9611TIP3   OH228717   8.461   5.231   3.642
 9611TIP3    H128718   8.389   5.272   3.694
 9611TIP3    H228719   8.411   5.183   3.573
 9612TIP3   OH228720   8.512   4.444   2.664
 9612TIP3    H128721   8.441   4.449   2.596
 9612TIP3    H228722   8.487   4.521   2.719
 9613TIP3   OH228723   8.388   4.117   2.611
 9613TIP3    H128724   8.329   4.156   2.546
 9613TIP3    H228725   8.364   4.022   2.604
 9614TIP3   OH228726   8.388   4.394   3.162
 9614TIP3    H128727   8.397   4.298   3.157
 9614TIP3    H228728   8.375   4.409   3.258
 9615TIP3   OH228729   7.015   4.470   3.908
 9615TIP3    H128730   7.014   4.438   3.815
 9615TIP3    H228731   7.112   4.469   3.925
 9616TIP3   OH228732   8.682   4.821   4.019
 9616TIP3    H128733   8.755   4.756   4.008
 9616TIP3    H228734   8.707   4.892   3.957
 9617TIP3   OH228735   8.871   4.628   4.038
 9617TIP3    H128736   8.792   4.581   4.073
 9617TIP3    H228737   8.939   4.558   4.052
 9618TIP3   OH228738   8.328   3.850   2.596
 9618TIP3    H128739   8.404   3.823   2.653
 9618TIP3    H228740   8.255   3.794   2.628
 9619TIP3   OH228741   8.384   4.110   3.056
 9619TIP3    H128742   8.425   4.021   3.072
 9619TIP3    H228743   8.445   4.143   2.988
 9620TIP3   OH228744   8.546   4.284   3.552
 9620TIP3    H128745   8.633   4.310   3.511
 9620TIP3    H228746   8.560   4.321   3.641
 9621TIP3   OH228747   8.616   4.429   3.784
 9621TIP3    H128748   8.538   4.462   3.832
 9621TIP3    H228749   8.648   4.510   3.739
 9622TIP3   OH228750   7.231   4.152   4.577
 9622TIP3    H128751   7.328   4.149   4.583
 9622TIP3    H228752   7.207   4.069   4.623
 9623TIP3   OH228753   9.071   4.022   4.341
 9623TIP3    H128754   9.128   3.955   4.296
 9623TIP3    H228755   9.039   4.075   4.264
 9624TIP3   OH228756   8.493   3.860   3.094
 9624TIP3    H128757   8.543   3.845   3.178
 9624TIP3    H228758   8.434   3.783   3.094
 9625TIP3   OH228759   7.194   3.846   3.913
 9625TIP3    H128760   7.257   3.771   3.924
 9625TIP3    H228761   7.255   3.921   3.908
 9626TIP3   OH228762   6.996   4.118   3.987
 9626TIP3    H128763   7.047   4.117   3.903
 9626TIP3    H228764   7.022   4.204   4.024
 9627TIP3   OH228765   8.938   4.158   4.146
 9627TIP3    H128766   8.850   4.198   4.164
 9627TIP3    H228767   8.912   4.087   4.086
 9628TIP3   OH228768   8.574   3.797   2.724
 9628TIP3    H128769   8.618   3.723   2.678
 9628TIP3    H228770   8.643   3.866   2.724
 9629TIP3   OH228771   6.980   3.622   3.487
 9629TIP3    H128772   6.887   3.620   3.515
 9629TIP3    H228773   6.977   3.681   3.409
 9630TIP3   OH228774   8.139   5.327   2.993
 9630TIP3    H128775   8.190   5.313   2.911
 9630TIP3    H228776   8.193   5.393   3.040
 9631TIP3   OH228777   7.200   3.701   4.301
 9631TIP3    H128778   7.151   3.699   4.385
 9631TIP3    H228779   7.133   3.741   4.242
 9632TIP3   OH228780   7.875   5.405   4.066
 9632TIP3    H128781   7.914   5.407   4.155
 9632TIP3    H228782   7.938   5.460   4.014
 9633TIP3   OH228783   8.043   5.566   3.919
 9633TIP3    H128784   8.111   5.507   3.882
 9633TIP3    H228785   8.095   5.620   3.982
 9634TIP3   OH228786   8.837   3.920   4.024
 9634TIP3    H128787   8.746   3.913   3.991
 9634TIP3    H228788   8.869   3.828   4.013
 9635TIP3   OH228789   7.778   5.450   3.576
 9635TIP3    H128790   7.691   5.455   3.534
 9635TIP3    H228791   7.772   5.519   3.644
 9636TIP3   OH228792   8.029   5.368   3.657
 9636TIP3    H128793   7.934   5.381   3.637
 9636TIP3    H228794   8.067   5.446   3.615
 9637TIP3   OH228795   8.241   5.562   3.574
 9637TIP3    H128796   8.222   5.644   3.524
 9637TIP3    H228797   8.261   5.499   3.501
 9638TIP3   OH228798   7.008   5.215   3.693
 9638TIP3    H128799   7.051   5.216   3.780
 9638TIP3    H228800   7.077   5.169   3.640
 9639TIP3   OH228801   7.199   5.085   3.551
 9639TIP3    H128802   7.216   5.000   3.598
 9639TIP3    H228803   7.290   5.121   3.544
 9640TIP3   OH228804   7.462   5.179   3.552
 9640TIP3    H128805   7.500   5.089   3.550
 9640TIP3    H228806   7.492   5.210   3.638
 9641TIP3   OH228807   8.041   3.836   3.641
 9641TIP3    H128808   7.998   3.767   3.694
 9641TIP3    H228809   8.115   3.788   3.599
 9642TIP3   OH228810   8.565   3.716   3.548
 9642TIP3    H128811   8.601   3.768   3.473
 9642TIP3    H228812   8.469   3.735   3.541
 9643TIP3   OH228813   8.659   3.818   3.312
 9643TIP3    H128814   8.732   3.765   3.273
 9643TIP3    H228815   8.693   3.909   3.297
 9644TIP3   OH228816   7.291   3.545   3.658
 9644TIP3    H128817   7.198   3.512   3.661
 9644TIP3    H228818   7.339   3.460   3.655
 9645TIP3   OH228819   7.076   3.415   3.307
 9645TIP3    H128820   7.106   3.473   3.235
 9645TIP3    H228821   7.048   3.480   3.374
 9646TIP3   OH228822   7.734   3.577   3.540
 9646TIP3    H128823   7.792   3.627   3.480
 9646TIP3    H228824   7.756   3.616   3.626
 9647TIP3   OH228825   8.281   3.724   3.523
 9647TIP3    H128826   8.280   3.686   3.435
 9647TIP3    H228827   8.268   3.644   3.579
 9648TIP3   OH228828   8.310   3.647   3.085
 9648TIP3    H128829   8.224   3.689   3.099
 9648TIP3    H228830   8.296   3.561   3.132
 9649TIP3   OH228831   6.794   4.985   3.086
 9649TIP3    H128832   6.709   4.952   3.052
 9649TIP3    H228833   6.783   5.080   3.068
 9650TIP3   OH228834   7.194   3.575   3.070
 9650TIP3    H128835   7.243   3.512   3.013
 9650TIP3    H228836   7.267   3.629   3.106
 9651TIP3   OH228837   7.707   3.750   3.169
 9651TIP3    H128838   7.766   3.703   3.230
 9651TIP3    H228839   7.728   3.842   3.194
 9652TIP3   OH228840   7.566   5.174   2.668
 9652TIP3    H128841   7.654   5.196   2.633
 9652TIP3    H228842   7.544   5.099   2.609
 9653TIP3   OH228843   8.285   5.293   2.761
 9653TIP3    H128844   8.277   5.195   2.749
 9653TIP3    H228845   8.240   5.325   2.681
 9654TIP3   OH228846   7.499   3.826   4.548
 9654TIP3    H128847   7.463   3.757   4.607
 9654TIP3    H228848   7.593   3.826   4.577
 9655TIP3   OH228849   7.747   3.823   4.669
 9655TIP3    H128850   7.833   3.796   4.631
 9655TIP3    H228851   7.734   3.753   4.736
 9656TIP3   OH228852   6.870   5.012   2.725
 9656TIP3    H128853   6.870   5.035   2.819
 9656TIP3    H228854   6.959   4.970   2.714
 9657TIP3   OH228855   8.572   3.884   4.457
 9657TIP3    H128856   8.591   3.853   4.548
 9657TIP3    H228857   8.661   3.879   4.416
 9658TIP3   OH228858   8.511   5.435   3.951
 9658TIP3    H128859   8.433   5.402   3.902
 9658TIP3    H228860   8.489   5.531   3.954
 9659TIP3   OH228861   9.076   4.705   3.463
 9659TIP3    H128862   9.107   4.634   3.523
 9659TIP3    H228863   9.158   4.752   3.446
 9660TIP3   OH228864   9.043   5.115   3.199
 9660TIP3    H128865   9.038   5.017   3.198
 9660TIP3    H228866   9.135   5.128   3.171
 9661TIP3   OH228867   8.752   4.317   2.972
 9661TIP3    H128868   8.705   4.401   2.985
 9661TIP3    H228869   8.681   4.263   2.933
 9662TIP3   OH228870   8.814   4.605   3.142
 9662TIP3    H128871   8.862   4.527   3.179
 9662TIP3    H228872   8.871   4.629   3.068
 9663TIP3   OH228873   9.554   5.526   2.828
 9663TIP3    H128874   9.631   5.544   2.770
 9663TIP3    H228875   9.601   5.505   2.910
 9664TIP3   OH228876   9.523   5.048   3.138
 9664TIP3    H128877   9.531   4.993   3.059
 9664TIP3    H228878   9.618   5.048   3.165
 9665TIP3   OH228879   9.308   4.198   3.155
 9665TIP3    H128880   9.311   4.264   3.082
 9665TIP3    H228881   9.279   4.120   3.104
 9666TIP3   OH228882   8.958   4.399   3.249
 9666TIP3    H128883   9.040   4.377   3.298
 9666TIP3    H228884   8.973   4.344   3.169
 9667TIP3   OH228885   9.359   4.615   3.035
 9667TIP3    H128886   9.455   4.594   3.043
 9667TIP3    H228887   9.325   4.528   3.004
 9668TIP3   OH228888   9.318   4.181   3.583
 9668TIP3    H128889   9.259   4.214   3.512
 9668TIP3    H228890   9.263   4.199   3.662
 9669TIP3   OH228891   9.400   4.964   3.365
 9669TIP3    H128892   9.345   5.034   3.405
 9669TIP3    H228893   9.442   5.011   3.290
 9670TIP3   OH228894   9.184   4.295   3.370
 9670TIP3    H128895   9.251   4.365   3.389
 9670TIP3    H228896   9.228   4.253   3.291
 9671TIP3   OH228897   9.248   5.159   3.478
 9671TIP3    H128898   9.222   5.240   3.431
 9671TIP3    H228899   9.167   5.142   3.532
 9672TIP3   OH228900   8.650   4.839   2.706
 9672TIP3    H128901   8.612   4.867   2.620
 9672TIP3    H228902   8.683   4.924   2.742
 9673TIP3   OH228903   9.162   4.762   2.922
 9673TIP3    H128904   9.120   4.700   2.858
 9673TIP3    H228905   9.236   4.707   2.956
 9674TIP3   OH228906   9.284   5.166   3.073
 9674TIP3    H128907   9.269   5.129   2.984
 9674TIP3    H228908   9.370   5.127   3.098
 9675TIP3   OH228909   9.322   4.710   3.295
 9675TIP3    H128910   9.342   4.692   3.201
 9675TIP3    H228911   9.355   4.802   3.307
 9676TIP3   OH228912   9.459   5.278   3.612
 9676TIP3    H128913   9.394   5.330   3.661
 9676TIP3    H228914   9.401   5.219   3.560
 9677TIP3   OH228915   9.209   4.828   3.708
 9677TIP3    H128916   9.205   4.909   3.759
 9677TIP3    H228917   9.116   4.798   3.714
 9678TIP3   OH228918   9.509   5.306   2.644
 9678TIP3    H128919   9.520   5.381   2.704
 9678TIP3    H228920   9.447   5.340   2.578
 9679TIP3   OH228921   9.239   5.431   3.694
 9679TIP3    H128922   9.246   5.435   3.596
 9679TIP3    H228923   9.144   5.442   3.702
 9680TIP3   OH228924   9.043   4.585   2.748
 9680TIP3    H128925   8.984   4.623   2.680
 9680TIP3    H228926   9.017   4.492   2.747
 9681TIP3   OH228927   8.840   4.970   3.642
 9681TIP3    H128928   8.770   4.948   3.577
 9681TIP3    H228929   8.873   4.882   3.667
 9682TIP3   OH228930   8.688   5.160   3.278
 9682TIP3    H128931   8.784   5.155   3.268
 9682TIP3    H228932   8.678   5.241   3.331
 9683TIP3   OH228933   9.647   5.405   3.461
 9683TIP3    H128934   9.649   5.494   3.502
 9683TIP3    H228935   9.582   5.358   3.518
 9684TIP3   OH228936   9.379   5.521   2.441
 9684TIP3    H128937   9.376   5.504   2.346
 9684TIP3    H228938   9.395   5.617   2.447
 9685TIP3   OH228939   8.856   5.377   2.807
 9685TIP3    H128940   8.905   5.367   2.891
 9685TIP3    H228941   8.803   5.296   2.807
 9686TIP3   OH228942   9.037   5.158   3.655
 9686TIP3    H128943   9.071   5.127   3.740
 9686TIP3    H228944   8.961   5.096   3.642
 9687TIP3   OH228945   9.427   3.969   3.436
 9687TIP3    H128946   9.340   3.943   3.400
 9687TIP3    H228947   9.406   4.054   3.476
 9688TIP3   OH228948   9.374   4.482   3.433
 9688TIP3    H128949   9.325   4.504   3.514
 9688TIP3    H228950   9.364   4.565   3.382
 9689TIP3   OH228951   9.254   4.377   2.955
 9689TIP3    H128952   9.164   4.344   2.975
 9689TIP3    H228953   9.261   4.351   2.859
 9690TIP3   OH228954   9.189   4.514   3.645
 9690TIP3    H128955   9.223   4.571   3.716
 9690TIP3    H228956   9.175   4.430   3.692
 9691TIP3   OH228957   9.156   3.960   2.378
 9691TIP3    H128958   9.247   3.969   2.411
 9691TIP3    H228959   9.163   4.014   2.299
 9692TIP3   OH228960   8.784   4.040   3.227
 9692TIP3    H128961   8.858   4.074   3.282
 9692TIP3    H228962   8.828   4.009   3.146
 9693TIP3   OH228963   8.754   4.020   2.748
 9693TIP3    H128964   8.800   4.057   2.669
 9693TIP3    H228965   8.696   4.096   2.769
 9694TIP3   OH228966   9.016   4.255   3.023
 9694TIP3    H128967   8.922   4.258   2.994
 9694TIP3    H228968   9.044   4.164   3.002
 9695TIP3   OH228969   9.247   4.302   2.698
 9695TIP3    H128970   9.320   4.279   2.636
 9695TIP3    H228971   9.175   4.305   2.632
 9696TIP3   OH228972   9.089   4.301   2.476
 9696TIP3    H128973   9.033   4.253   2.414
 9696TIP3    H228974   9.178   4.274   2.445
 9697TIP3   OH228975   9.171   5.078   3.905
 9697TIP3    H128976   9.265   5.074   3.927
 9697TIP3    H228977   9.141   4.991   3.939
 9698TIP3   OH228978   9.184   4.019   2.982
 9698TIP3    H128979   9.155   3.938   3.029
 9698TIP3    H228980   9.229   3.983   2.903
 9699TIP3   OH228981   9.318   4.850   2.493
 9699TIP3    H128982   9.277   4.761   2.493
 9699TIP3    H228983   9.368   4.852   2.576
 9700TIP3   OH228984   9.713   5.131   3.522
 9700TIP3    H128985   9.768   5.108   3.599
 9700TIP3    H228986   9.719   5.227   3.516
 9701TIP3   OH228987   9.072   4.841   3.174
 9701TIP3    H128988   9.099   4.816   3.083
 9701TIP3    H228989   9.108   4.769   3.227
 9702TIP3   OH228990   8.951   4.756   3.782
 9702TIP3    H128991   8.965   4.740   3.878
 9702TIP3    H228992   8.881   4.691   3.761
 9703TIP3   OH228993   9.648   4.817   3.826
 9703TIP3    H128994   9.560   4.791   3.793
 9703TIP3    H228995   9.699   4.738   3.801
 9704TIP3   OH228996   9.171   5.142   2.801
 9704TIP3    H128997   9.176   5.219   2.741
 9704TIP3    H228998   9.077   5.119   2.794
 9705TIP3   OH228999   8.726   4.445   2.488
 9705TIP3    H129000   8.780   4.524   2.511
 9705TIP3    H229001   8.657   4.450   2.558
 9706TIP3   OH229002   9.349   4.925   2.786
 9706TIP3    H129003   9.294   5.003   2.768
 9706TIP3    H229004   9.284   4.865   2.825
 9707TIP3   OH229005   9.441   5.480   3.266
 9707TIP3    H129006   9.479   5.553   3.213
 9707TIP3    H229007   9.520   5.448   3.314
 9708TIP3   OH229008   9.091   5.379   2.649
 9708TIP3    H129009   9.005   5.390   2.695
 9708TIP3    H229010   9.124   5.471   2.648
 9709TIP3   OH229011   9.160   4.263   3.798
 9709TIP3    H129012   9.063   4.264   3.806
 9709TIP3    H229013   9.185   4.197   3.865
 9710TIP3   OH229014   8.878   5.348   3.420
 9710TIP3    H129015   8.927   5.270   3.447
 9710TIP3    H229016   8.905   5.413   3.485
 9711TIP3   OH229017   9.173   4.988   2.106
 9711TIP3    H129018   9.189   4.895   2.082
 9711TIP3    H229019   9.157   4.979   2.203
 9712TIP3   OH229020   9.115   4.991   2.377
 9712TIP3    H129021   9.196   4.952   2.418
 9712TIP3    H229022   9.128   5.087   2.394
 9713TIP3   OH229023   8.847   4.684   2.579
 9713TIP3    H129024   8.784   4.733   2.636
 9713TIP3    H229025   8.871   4.754   2.516
 9714TIP3   OH229026   9.375   5.224   2.345
 9714TIP3    H129027   9.283   5.238   2.374
 9714TIP3    H229028   9.382   5.287   2.273
 9715TIP3   OH229029   9.109   5.270   2.393
 9715TIP3    H129030   9.083   5.342   2.332
 9715TIP3    H229031   9.101   5.314   2.480
 9716TIP3   OH229032   9.245   3.992   2.673
 9716TIP3    H129033   9.197   4.074   2.693
 9716TIP3    H229034   9.306   4.027   2.606
 9717TIP3   OH229035   8.843   4.904   2.387
 9717TIP3    H129036   8.917   4.967   2.399
 9717TIP3    H229037   8.886   4.844   2.322
 9718TIP3   OH229038   8.783   4.173   2.526
 9718TIP3    H129039   8.796   4.269   2.512
 9718TIP3    H229040   8.696   4.160   2.489
 9719TIP3   OH229041   9.160   3.896   3.396
 9719TIP3    H129042   9.137   3.862   3.307
 9719TIP3    H229043   9.158   3.815   3.450
 9720TIP3   OH229044   8.716   5.116   2.776
 9720TIP3    H129045   8.641   5.145   2.829
 9720TIP3    H229046   8.692   5.153   2.689
 9721TIP3   OH229047   8.870   5.648   3.843
 9721TIP3    H129048   8.948   5.648   3.902
 9721TIP3    H229049   8.840   5.555   3.849
 9722TIP3   OH229050   9.345   5.609   3.896
 9722TIP3    H129051   9.440   5.610   3.916
 9722TIP3    H229052   9.344   5.563   3.810
 9723TIP3   OH229053   9.319   5.204   2.023
 9723TIP3    H129054   9.269   5.127   2.057
 9723TIP3    H229055   9.411   5.171   2.033
 9724TIP3   OH229056   8.971   4.710   2.248
 9724TIP3    H129057   9.030   4.680   2.320
 9724TIP3    H229058   9.037   4.719   2.175
 9725TIP3   OH229059   9.581   5.136   3.822
 9725TIP3    H129060   9.572   5.166   3.730
 9725TIP3    H229061   9.629   5.053   3.811
 9726TIP3   OH229062   9.148   4.817   4.007
 9726TIP3    H129063   9.199   4.735   4.009
 9726TIP3    H229064   9.141   4.837   4.103
 9727TIP3   OH229065   9.171   4.615   2.468
 9727TIP3    H129066   9.160   4.560   2.546
 9727TIP3    H229067   9.216   4.553   2.407
 9728TIP3   OH229068   9.430   4.676   3.709
 9728TIP3    H129069   9.350   4.732   3.705
 9728TIP3    H229070   9.478   4.711   3.630
 9729TIP3   OH229071   9.298   4.446   2.301
 9729TIP3    H129072   9.245   4.407   2.230
 9729TIP3    H229073   9.348   4.369   2.336
 9730TIP3   OH229074   9.547   4.469   3.842
 9730TIP3    H129075   9.567   4.387   3.792
 9730TIP3    H229076   9.495   4.521   3.778
 9731TIP3   OH229077   9.565   4.280   3.643
 9731TIP3    H129078   9.610   4.266   3.558
 9731TIP3    H229079   9.481   4.234   3.627
 9732TIP3   OH229080   9.554   4.802   3.515
 9732TIP3    H129081   9.618   4.773   3.448
 9732TIP3    H229082   9.504   4.872   3.466
 9733TIP3   OH229083   9.424   4.601   4.045
 9733TIP3    H129084   9.370   4.522   4.065
 9733TIP3    H229085   9.470   4.570   3.964
 9734TIP3   OH229086   9.297   4.363   4.099
 9734TIP3    H129087   9.299   4.276   4.057
 9734TIP3    H229088   9.329   4.342   4.189
 9735TIP3   OH229089   9.092   5.475   2.205
 9735TIP3    H129090   9.188   5.471   2.193
 9735TIP3    H229091   9.067   5.524   2.124
 9736TIP3   OH229092   8.575   4.855   2.425
 9736TIP3    H129093   8.670   4.879   2.411
 9736TIP3    H229094   8.571   4.767   2.383
 9737TIP3   OH229095   8.488   5.466   2.837
 9737TIP3    H129096   8.421   5.404   2.801
 9737TIP3    H229097   8.533   5.409   2.903
 9738TIP3   OH229098   8.622   5.318   3.025
 9738TIP3    H129099   8.612   5.243   3.085
 9738TIP3    H229100   8.674   5.378   3.081
 9739TIP3   OH229101   8.811   4.723   3.396
 9739TIP3    H129102   8.810   4.692   3.303
 9739TIP3    H229103   8.908   4.726   3.412
 9740TIP3   OH229104   9.030   4.413   4.076
 9740TIP3    H129105   9.127   4.403   4.073
 9740TIP3    H229106   9.004   4.326   4.113
 9741TIP3   OH229107   8.984   4.105   3.407
 9741TIP3    H129108   9.044   4.029   3.412
 9741TIP3    H229109   9.048   4.178   3.398
 9742TIP3   OH229110   8.792   4.378   3.474
 9742TIP3    H129111   8.841   4.368   3.390
 9742TIP3    H229112   8.825   4.463   3.504
 9743TIP3   OH229113   8.776   3.877   2.975
 9743TIP3    H129114   8.683   3.877   3.002
 9743TIP3    H229115   8.775   3.937   2.897
 9744TIP3   OH229116   8.994   3.965   3.791
 9744TIP3    H129117   8.942   3.957   3.872
 9744TIP3    H229118   8.927   4.000   3.729
 9745TIP3   OH229119   9.219   5.430   3.419
 9745TIP3    H129120   9.169   5.501   3.374
 9745TIP3    H229121   9.302   5.438   3.368
 9746TIP3   OH229122   9.670   5.677   3.548
 9746TIP3    H129123   9.697   5.668   3.642
 9746TIP3    H229124   9.752   5.708   3.508
 9747TIP3   OH229125   8.892   5.679   3.439
 9747TIP3    H129126   8.803   5.709   3.411
 9747TIP3    H229127   8.894   5.715   3.528
 9748TIP3   OH229128   9.128   5.658   3.297
 9748TIP3    H129129   9.041   5.671   3.340
 9748TIP3    H229130   9.109   5.687   3.206
 9749TIP3   OH229131   9.530   5.685   3.096
 9749TIP3    H129132   9.469   5.700   3.021
 9749TIP3    H229133   9.546   5.776   3.128
 9750TIP3   OH229134   9.795   5.651   3.149
 9750TIP3    H129135   9.701   5.645   3.123
 9750TIP3    H229136   9.828   5.722   3.092
 9751TIP3   OH229137   8.803   5.473   3.182
 9751TIP3    H129138   8.828   5.443   3.272
 9751TIP3    H229139   8.873   5.428   3.130
 9752TIP3   OH229140   8.995   5.342   3.040
 9752TIP3    H129141   9.012   5.258   3.087
 9752TIP3    H229142   9.085   5.379   3.033
 9753TIP3   OH229143   9.259   5.444   3.042
 9753TIP3    H129144   9.283   5.352   3.022
 9753TIP3    H229145   9.308   5.458   3.124
 9754TIP3   OH229146   9.079   3.809   3.142
 9754TIP3    H129147   8.986   3.779   3.143
 9754TIP3    H229148   9.123   3.721   3.145
 9755TIP3   OH229149   8.867   3.669   2.787
 9755TIP3    H129150   8.906   3.726   2.717
 9755TIP3    H229151   8.847   3.736   2.856
 9756TIP3   OH229152   8.589   5.242   2.574
 9756TIP3    H129153   8.504   5.209   2.540
 9756TIP3    H229154   8.579   5.336   2.555
 9757TIP3   OH229155   8.986   3.826   2.575
 9757TIP3    H129156   9.027   3.780   2.500
 9757TIP3    H229157   9.055   3.891   2.595
 9758TIP3   OH229158   9.366   5.441   2.156
 9758TIP3    H129159   9.462   5.448   2.147
 9758TIP3    H229160   9.344   5.369   2.093
 9759TIP3   OH229161   9.260   4.082   4.021
 9759TIP3    H129162   9.226   4.011   4.079
 9759TIP3    H229163   9.354   4.082   4.050
 9760TIP3   OH229164   9.498   4.088   4.151
 9760TIP3    H129165   9.594   4.093   4.133
 9760TIP3    H229166   9.498   4.019   4.220
 9761TIP3   OH229167   8.666   5.268   2.213
 9761TIP3    H129168   8.669   5.291   2.307
 9761TIP3    H229169   8.755   5.227   2.199
 9762TIP3   OH229170   0.433   5.341   4.920
 9762TIP3    H129171   0.404   5.432   4.897
 9762TIP3    H229172   0.357   5.290   4.886
 9763TIP3   OH229173   0.441   5.335   5.295
 9763TIP3    H129174   0.468   5.290   5.376
 9763TIP3    H229175   0.401   5.262   5.244
 9764TIP3   OH229176   0.676   5.643   4.981
 9764TIP3    H129177   0.662   5.574   5.047
 9764TIP3    H229178   0.707   5.718   5.035
 9765TIP3   OH229179   0.323   6.107   4.993
 9765TIP3    H129180   0.368   6.033   4.947
 9765TIP3    H229181   0.306   6.069   5.080
 9766TIP3   OH229182   0.219   5.508   5.332
 9766TIP3    H129183   0.299   5.465   5.296
 9766TIP3    H229184   0.257   5.591   5.363
 9767TIP3   OH229185   1.249   4.885   5.347
 9767TIP3    H129186   1.275   4.970   5.388
 9767TIP3    H229187   1.262   4.905   5.252
 9768TIP3   OH229188   0.642   5.070   5.383
 9768TIP3    H129189   0.685   4.985   5.401
 9768TIP3    H229190   0.608   5.055   5.292
 9769TIP3   OH229191   0.009   4.720   5.361
 9769TIP3    H129192  -0.020   4.801   5.314
 9769TIP3    H229193  -0.024   4.652   5.299
 9770TIP3   OH229194   0.673   4.845   4.959
 9770TIP3    H129195   0.716   4.788   5.026
 9770TIP3    H229196   0.743   4.855   4.892
 9771TIP3   OH229197   0.055   5.135   5.264
 9771TIP3    H129198   0.149   5.107   5.265
 9771TIP3    H229199   0.013   5.060   5.219
 9772TIP3   OH229200   1.321   5.095   5.516
 9772TIP3    H129201   1.237   5.141   5.495
 9772TIP3    H229202   1.334   5.124   5.607
 9773TIP3   OH229203   0.323   5.560   4.790
 9773TIP3    H129204   0.287   5.544   4.701
 9773TIP3    H229205   0.280   5.645   4.813
 9774TIP3   OH229206   0.905   4.813   5.140
 9774TIP3    H129207   0.860   4.782   5.218
 9774TIP3    H229208   0.942   4.898   5.169
 9775TIP3   OH229209   0.748   5.885   5.148
 9775TIP3    H129210   0.658   5.878   5.188
 9775TIP3    H229211   0.739   5.970   5.101
 9776TIP3   OH229212   1.037   4.787   5.512
 9776TIP3    H129213   0.948   4.812   5.480
 9776TIP3    H229214   1.094   4.818   5.439
 9777TIP3   OH229215   0.315   4.419   5.501
 9777TIP3    H129216   0.324   4.323   5.516
 9777TIP3    H229217   0.250   4.445   5.567
 9778TIP3   OH229218   0.447   5.930   4.823
 9778TIP3    H129219   0.497   5.848   4.801
 9778TIP3    H229220   0.509   5.996   4.784
 9779TIP3   OH229221   0.589   5.716   4.730
 9779TIP3    H129222   0.559   5.636   4.686
 9779TIP3    H229223   0.626   5.681   4.813
 9780TIP3   OH229224   0.966   5.798   5.492
 9780TIP3    H129225   0.960   5.722   5.431
 9780TIP3    H229226   0.954   5.874   5.431
 9781TIP3   OH229227   0.266   5.193   4.747
 9781TIP3    H129228   0.186   5.245   4.722
 9781TIP3    H229229   0.314   5.190   4.663
 9782TIP3   OH229230   0.223   4.976   4.467
 9782TIP3    H129231   0.291   5.026   4.516
 9782TIP3    H229232   0.281   4.914   4.417
 9783TIP3   OH229233   1.168   5.435   5.337
 9783TIP3    H129234   1.085   5.487   5.342
 9783TIP3    H229235   1.198   5.460   5.247
 9784TIP3   OH229236   0.611   5.274   4.722
 9784TIP3    H129237   0.557   5.298   4.801
 9784TIP3    H229238   0.695   5.247   4.766
 9785TIP3   OH229239   0.859   5.316   5.630
 9785TIP3    H129240   0.857   5.404   5.671
 9785TIP3    H229241   0.770   5.313   5.588
 9786TIP3   OH229242  -0.011   5.233   5.507
 9786TIP3    H129243   0.015   5.194   5.421
 9786TIP3    H229244   0.031   5.320   5.501
 9787TIP3   OH229245   0.508   5.882   5.272
 9787TIP3    H129246   0.489   5.960   5.327
 9787TIP3    H229247   0.489   5.807   5.332
 9788TIP3   OH229248   0.452   5.133   4.547
 9788TIP3    H129249   0.511   5.193   4.599
 9788TIP3    H229250   0.479   5.156   4.455
 9789TIP3   OH229251   0.192   5.815   4.826
 9789TIP3    H129252   0.276   5.861   4.841
 9789TIP3    H229253   0.144   5.878   4.770
 9790TIP3   OH229254   0.967   4.372   4.595
 9790TIP3    H129255   0.886   4.392   4.647
 9790TIP3    H229256   0.980   4.457   4.548
 9791TIP3   OH229257   0.765   5.741   4.142
 9791TIP3    H129258   0.774   5.839   4.130
 9791TIP3    H229259   0.859   5.713   4.131
 9792TIP3   OH229260   1.205   6.144   5.531
 9792TIP3    H129261   1.215   6.051   5.557
 9792TIP3    H229262   1.128   6.168   5.587
 9793TIP3   OH229263   0.336   5.902   5.683
 9793TIP3    H129264   0.337   5.996   5.713
 9793TIP3    H229265   0.245   5.892   5.653
 9794TIP3   OH229266   0.098   6.044   4.622
 9794TIP3    H129267   0.067   6.038   4.529
 9794TIP3    H229268   0.082   6.137   4.641
 9795TIP3   OH229269   0.312   5.975   4.250
 9795TIP3    H129270   0.354   5.891   4.224
 9795TIP3    H229271   0.318   5.973   4.348
 9796TIP3   OH229272   0.347   5.995   4.531
 9796TIP3    H129273   0.258   5.999   4.573
 9796TIP3    H229274   0.401   5.960   4.603
 9797TIP3   OH229275   1.098   5.272   5.815
 9797TIP3    H129276   1.018   5.284   5.761
 9797TIP3    H229277   1.114   5.176   5.804
 9798TIP3   OH229278   0.076   4.512   5.631
 9798TIP3    H129279   0.016   4.473   5.566
 9798TIP3    H229280   0.091   4.599   5.593
 9799TIP3   OH229281   0.631   4.623   5.815
 9799TIP3    H129282   0.699   4.595   5.879
 9799TIP3    H229283   0.547   4.601   5.862
 9800TIP3   OH229284   0.871   5.048   5.733
 9800TIP3    H129285   0.821   5.042   5.818
 9800TIP3    H229286   0.844   5.135   5.699
 9801TIP3   OH229287   0.527   5.178   4.291
 9801TIP3    H129288   0.495   5.153   4.202
 9801TIP3    H229289   0.607   5.229   4.267
 9802TIP3   OH229290   0.242   4.557   4.593
 9802TIP3    H129291   0.213   4.554   4.686
 9802TIP3    H229292   0.206   4.472   4.562
 9803TIP3   OH229293   0.012   5.004   5.652
 9803TIP3    H129294   0.013   5.056   5.735
 9803TIP3    H229295  -0.005   5.076   5.589
 9804TIP3   OH229296  -0.096   4.897   5.162
 9804TIP3    H129297  -0.189   4.910   5.143
 9804TIP3    H229298  -0.067   4.854   5.079
 9805TIP3   OH229299   0.398   4.995   4.885
 9805TIP3    H129300   0.349   5.065   4.836
 9805TIP3    H229301   0.460   4.962   4.817
 9806TIP3   OH229302   0.554   5.030   5.124
 9806TIP3    H129303   0.494   5.051   5.050
 9806TIP3    H229304   0.591   4.947   5.086
 9807TIP3   OH229305  -0.100   4.528   4.562
 9807TIP3    H129306  -0.108   4.529   4.659
 9807TIP3    H229307  -0.192   4.539   4.534
 9808TIP3   OH229308   0.599   5.270   5.559
 9808TIP3    H129309   0.618   5.200   5.492
 9808TIP3    H229310   0.547   5.218   5.624
 9809TIP3   OH229311   0.241   4.750   5.209
 9809TIP3    H129312   0.181   4.736   5.284
 9809TIP3    H229313   0.325   4.709   5.237
 9810TIP3   OH229314  -0.050   4.786   4.911
 9810TIP3    H129315   0.048   4.797   4.903
 9810TIP3    H229316  -0.084   4.824   4.828
 9811TIP3   OH229317   0.736   4.802   5.411
 9811TIP3    H129318   0.685   4.803   5.494
 9811TIP3    H229319   0.680   4.743   5.355
 9812TIP3   OH229320  -0.235   4.845   4.686
 9812TIP3    H129321  -0.269   4.755   4.671
 9812TIP3    H229322  -0.173   4.859   4.611
 9813TIP3   OH229323   0.898   6.501   5.636
 9813TIP3    H129324   0.895   6.517   5.539
 9813TIP3    H229325   0.985   6.539   5.658
 9814TIP3   OH229326   0.324   5.059   5.314
 9814TIP3    H129327   0.387   5.018   5.252
 9814TIP3    H229328   0.336   5.004   5.393
 9815TIP3   OH229329  -0.120   4.548   5.193
 9815TIP3    H129330  -0.187   4.477   5.205
 9815TIP3    H229331  -0.070   4.514   5.118
 9816TIP3   OH229332   0.293   4.951   5.618
 9816TIP3    H129333   0.203   4.987   5.616
 9816TIP3    H229334   0.347   5.025   5.649
 9817TIP3   OH229335   0.039   5.341   4.684
 9817TIP3    H129336  -0.036   5.278   4.681
 9817TIP3    H229337   0.030   5.378   4.774
 9818TIP3   OH229338   0.935   5.580   5.327
 9818TIP3    H129339   0.960   5.630   5.247
 9818TIP3    H229340   0.850   5.538   5.301
 9819TIP3   OH229341   0.483   4.675   4.525
 9819TIP3    H129342   0.395   4.646   4.560
 9819TIP3    H229343   0.501   4.757   4.575
 9820TIP3   OH229344   0.438   5.644   5.727
 9820TIP3    H129345   0.412   5.657   5.819
 9820TIP3    H229346   0.414   5.732   5.692
 9821TIP3   OH229347   0.562   4.900   4.662
 9821TIP3    H129348   0.656   4.907   4.685
 9821TIP3    H229349   0.545   4.983   4.613
 9822TIP3   OH229350   0.191   5.491   4.516
 9822TIP3    H129351   0.146   5.579   4.521
 9822TIP3    H229352   0.132   5.437   4.574
 9823TIP3   OH229353   0.600   5.920   5.598
 9823TIP3    H129354   0.504   5.916   5.612
 9823TIP3    H229355   0.626   5.976   5.674
 9824TIP3   OH229356   1.006   4.994   4.499
 9824TIP3    H129357   0.943   4.950   4.437
 9824TIP3    H229358   1.002   5.084   4.459
 9825TIP3   OH229359   1.217   5.846   5.584
 9825TIP3    H129360   1.120   5.846   5.572
 9825TIP3    H229361   1.246   5.820   5.494
 9826TIP3   OH229362   0.709   5.811   4.409
 9826TIP3    H129363   0.679   5.741   4.468
 9826TIP3    H229364   0.719   5.766   4.323
 9827TIP3   OH229365   0.701   5.442   5.249
 9827TIP3    H129366   0.608   5.415   5.260
 9827TIP3    H229367   0.736   5.363   5.204
 9828TIP3   OH229368   0.013   5.437   4.933
 9828TIP3    H129369   0.004   5.531   4.948
 9828TIP3    H229370  -0.038   5.400   5.006
 9829TIP3   OH229371   0.488   5.649   5.433
 9829TIP3    H129372   0.490   5.639   5.530
 9829TIP3    H229373   0.566   5.599   5.406
 9830TIP3   OH229374   0.464   5.536   4.311
 9830TIP3    H129375   0.513   5.513   4.393
 9830TIP3    H229376   0.373   5.514   4.337
 9831TIP3   OH229377   0.732   6.187   5.480
 9831TIP3    H129378   0.654   6.129   5.469
 9831TIP3    H229379   0.720   6.249   5.405
 9832TIP3   OH229380   0.800   6.017   4.131
 9832TIP3    H129381   0.833   6.087   4.073
 9832TIP3    H229382   0.720   6.062   4.165
 9833TIP3   OH229383   0.621   5.477   4.531
 9833TIP3    H129384   0.612   5.409   4.601
 9833TIP3    H229385   0.717   5.473   4.516
 9834TIP3   OH229386  -0.123   5.490   4.336
 9834TIP3    H129387  -0.111   5.402   4.294
 9834TIP3    H229388  -0.138   5.465   4.428
 9835TIP3   OH229389   0.644   4.868   5.684
 9835TIP3    H129390   0.733   4.898   5.710
 9835TIP3    H229391   0.636   4.783   5.733
 9836TIP3   OH229392   0.552   4.597   4.820
 9836TIP3    H129393   0.538   4.663   4.751
 9836TIP3    H229394   0.554   4.651   4.901
 9837TIP3   OH229395   0.050   5.719   4.520
 9837TIP3    H129396  -0.035   5.752   4.553
 9837TIP3    H229397   0.050   5.751   4.428
 9838TIP3   OH229398   0.225   4.788   4.942
 9838TIP3    H129399   0.291   4.858   4.926
 9838TIP3    H229400   0.236   4.777   5.040
 9839TIP3   OH229401   0.519   5.117   5.777
 9839TIP3    H129402   0.487   5.108   5.868
 9839TIP3    H229403   0.565   5.032   5.764
 9840TIP3   OH229404  -0.111   4.529   4.844
 9840TIP3    H129405  -0.092   4.617   4.884
 9840TIP3    H229406  -0.021   4.492   4.846
 9841TIP3   OH229407   1.137   5.005   5.732
 9841TIP3    H129408   1.039   5.004   5.741
 9841TIP3    H229409   1.145   4.966   5.644
 9842TIP3   OH229410   0.785   5.201   5.122
 9842TIP3    H129411   0.709   5.141   5.130
 9842TIP3    H229412   0.856   5.152   5.169
 9843TIP3   OH229413   0.753   6.159   5.070
 9843TIP3    H129414   0.712   6.205   4.993
 9843TIP3    H229415   0.848   6.177   5.050
 9844TIP3   OH229416   0.007   5.713   4.242
 9844TIP3    H129417  -0.032   5.628   4.271
 9844TIP3    H229418   0.079   5.683   4.185
 9845TIP3   OH229419   0.649   6.058   5.834
 9845TIP3    H129420   0.649   5.981   5.896
 9845TIP3    H229421   0.733   6.103   5.858
 9846TIP3   OH229422   0.426   5.755   4.129
 9846TIP3    H129423   0.475   5.698   4.190
 9846TIP3    H229424   0.485   5.761   4.051
 9847TIP3   OH229425   0.295   5.693   6.000
 9847TIP3    H129426   0.218   5.680   5.944
 9847TIP3    H229427   0.315   5.600   6.025
 9848TIP3   OH229428   0.162   5.434   4.246
 9848TIP3    H129429   0.158   5.450   4.342
 9848TIP3    H229430   0.156   5.336   4.244
 9849TIP3   OH229431   0.753   5.685   5.626
 9849TIP3    H129432   0.831   5.724   5.584
 9849TIP3    H229433   0.689   5.758   5.616
 9850TIP3   OH229434  -0.152   5.143   4.668
 9850TIP3    H129435  -0.180   5.087   4.740
 9850TIP3    H229436  -0.117   5.077   4.604
 9851TIP3   OH229437  -0.052   4.938   4.506
 9851TIP3    H129438  -0.075   4.949   4.411
 9851TIP3    H229439   0.046   4.943   4.501
 9852TIP3   OH229440   0.628   5.556   5.987
 9852TIP3    H129441   0.716   5.595   5.982
 9852TIP3    H229442   0.629   5.513   6.075
 9853TIP3   OH229443   0.766   5.270   4.169
 9853TIP3    H129444   0.744   5.225   4.085
 9853TIP3    H229445   0.733   5.361   4.147
 9854TIP3   OH229446   0.242   4.988   6.022
 9854TIP3    H129447   0.234   4.908   5.967
 9854TIP3    H229448   0.183   5.050   5.977
 9855TIP3   OH229449   0.225   4.776   5.822
 9855TIP3    H129450   0.267   4.823   5.746
 9855TIP3    H229451   0.131   4.783   5.799
 9856TIP3   OH229452   0.339   5.336   5.655
 9856TIP3    H129453   0.322   5.373   5.568
 9856TIP3    H229454   0.267   5.369   5.710
 9857TIP3   OH229455   0.867   5.294   6.103
 9857TIP3    H129456   0.893   5.203   6.084
 9857TIP3    H229457   0.926   5.344   6.046
 9858TIP3   OH229458   0.887   5.541   5.813
 9858TIP3    H129459   0.831   5.598   5.755
 9858TIP3    H229460   0.976   5.561   5.776
 9859TIP3   OH229461   0.370   4.549   5.896
 9859TIP3    H129462   0.318   4.629   5.870
 9859TIP3    H229463   0.304   4.479   5.886
 9860TIP3   OH229464   0.502   5.050   6.093
 9860TIP3    H129465   0.496   5.063   6.189
 9860TIP3    H229466   0.407   5.039   6.072
 9861TIP3   OH229467   0.741   5.007   5.964
 9861TIP3    H129468   0.661   5.022   6.020
 9861TIP3    H229469   0.807   4.973   6.028
 9862TIP3   OH229470   0.969   4.945   6.119
 9862TIP3    H129471   0.976   4.848   6.135
 9862TIP3    H229472   0.961   4.982   6.209
 9863TIP3   OH229473   0.462   4.558   6.154
 9863TIP3    H129474   0.531   4.488   6.147
 9863TIP3    H229475   0.425   4.554   6.063
 9864TIP3   OH229476   0.529   4.772   6.313
 9864TIP3    H129477   0.508   4.703   6.246
 9864TIP3    H229478   0.458   4.838   6.299
 9865TIP3   OH229479   1.007   6.249   5.028
 9865TIP3    H129480   1.039   6.283   5.113
 9865TIP3    H229481   1.069   6.287   4.965
 9866TIP3   OH229482   1.038   6.267   5.314
 9866TIP3    H129483   0.995   6.180   5.304
 9866TIP3    H229484   1.112   6.241   5.371
 9867TIP3   OH229485   1.083   5.949   5.874
 9867TIP3    H129486   1.028   5.973   5.950
 9867TIP3    H229487   1.156   6.015   5.877
 9868TIP3   OH229488   0.900   5.457   4.502
 9868TIP3    H129489   0.966   5.522   4.473
 9868TIP3    H229490   0.944   5.419   4.581
 9869TIP3   OH229491   1.027   5.324   4.706
 9869TIP3    H129492   0.961   5.281   4.764
 9869TIP3    H229493   1.090   5.363   4.770
 9870TIP3   OH229494   1.080   5.716   5.138
 9870TIP3    H129495   1.133   5.653   5.087
 9870TIP3    H229496   1.076   5.793   5.077
 9871TIP3   OH229497   0.912   6.018   5.332
 9871TIP3    H129498   0.839   6.058   5.383
 9871TIP3    H229499   0.863   5.969   5.261
 9872TIP3   OH229500   0.966   5.233   4.352
 9872TIP3    H129501   0.894   5.235   4.284
 9872TIP3    H229502   0.938   5.309   4.407
 9873TIP3   OH229503   0.838   4.905   4.305
 9873TIP3    H129504   0.793   4.945   4.230
 9873TIP3    H229505   0.812   4.811   4.296
 9874TIP3   OH229506   0.841   5.180   4.852
 9874TIP3    H129507   0.844   5.084   4.846
 9874TIP3    H229508   0.827   5.194   4.949
 9875TIP3   OH229509   1.128   5.607   5.709
 9875TIP3    H129510   1.201   5.542   5.699
 9875TIP3    H229511   1.158   5.681   5.653
 9876TIP3   OH229512   1.311   5.411   5.724
 9876TIP3    H129513   1.239   5.359   5.765
 9876TIP3    H229514   1.387   5.351   5.739
 9877TIP3   OH229515   0.782   4.639   4.291
 9877TIP3    H129516   0.854   4.609   4.350
 9877TIP3    H229517   0.706   4.583   4.317
 9878TIP3   OH229518   0.842   4.896   4.739
 9878TIP3    H129519   0.882   4.807   4.755
 9878TIP3    H229520   0.901   4.929   4.669
 9879TIP3   OH229521   0.999   5.072   5.243
 9879TIP3    H129522   1.085   5.097   5.202
 9879TIP3    H229523   1.013   5.109   5.332
 9880TIP3   OH229524   1.072   5.215   5.473
 9880TIP3    H129525   0.994   5.248   5.523
 9880TIP3    H229526   1.103   5.296   5.428
 9881TIP3   OH229527   1.524   4.809   6.030
 9881TIP3    H129528   1.579   4.742   5.985
 9881TIP3    H229529   1.490   4.862   5.955
 9882TIP3   OH229530   0.949   4.646   4.784
 9882TIP3    H129531   0.991   4.632   4.871
 9882TIP3    H229532   0.884   4.572   4.782
 9883TIP3   OH229533   1.391   4.944   5.837
 9883TIP3    H129534   1.306   4.988   5.859
 9883TIP3    H229535   1.358   4.875   5.777
 9884TIP3   OH229536   1.028   4.583   4.418
 9884TIP3    H129537   1.067   4.511   4.364
 9884TIP3    H229538   1.095   4.653   4.410
 9885TIP3   OH229539   0.595   6.113   4.690
 9885TIP3    H129540   0.639   6.099   4.603
 9885TIP3    H229541   0.650   6.182   4.728
 9886TIP3   OH229542   0.353   6.164   5.767
 9886TIP3    H129543   0.362   6.209   5.853
 9886TIP3    H229544   0.392   6.230   5.707
 9887TIP3   OH229545   0.492   6.352   5.614
 9887TIP3    H129546   0.555   6.296   5.566
 9887TIP3    H229547   0.552   6.403   5.672
 9888TIP3   OH229548   1.289   4.710   5.713
 9888TIP3    H129549   1.198   4.706   5.679
 9888TIP3    H229550   1.318   4.616   5.701
 9889TIP3   OH229551   0.220   6.236   5.268
 9889TIP3    H129552   0.126   6.247   5.248
 9889TIP3    H229553   0.240   6.322   5.310
 9890TIP3   OH229554   0.478   6.162   5.352
 9890TIP3    H129555   0.389   6.175   5.314
 9890TIP3    H229556   0.530   6.227   5.302
 9891TIP3   OH229557   0.684   6.345   5.262
 9891TIP3    H129558   0.672   6.431   5.215
 9891TIP3    H229559   0.712   6.286   5.189
 9892TIP3   OH229560   1.009   4.503   5.235
 9892TIP3    H129561   1.051   4.557   5.165
 9892TIP3    H229562   0.916   4.523   5.222
 9893TIP3   OH229563   1.115   4.602   5.003
 9893TIP3    H129564   1.189   4.555   4.959
 9893TIP3    H229565   1.142   4.695   4.990
 9894TIP3   OH229566   0.199   4.379   5.237
 9894TIP3    H129567   0.268   4.423   5.186
 9894TIP3    H229568   0.229   4.399   5.327
 9895TIP3   OH229569   0.766   4.434   4.774
 9895TIP3    H129570   0.684   4.487   4.788
 9895TIP3    H229571   0.744   4.354   4.826
 9896TIP3   OH229572  -0.318   4.282   4.800
 9896TIP3    H129573  -0.319   4.270   4.704
 9896TIP3    H229574  -0.291   4.373   4.810
 9897TIP3   OH229575   0.167   4.535   4.859
 9897TIP3    H129576   0.226   4.481   4.912
 9897TIP3    H229577   0.194   4.626   4.888
 9898TIP3   OH229578   0.733   6.079   4.454
 9898TIP3    H129579   0.726   5.981   4.439
 9898TIP3    H229580   0.688   6.113   4.373
 9899TIP3   OH229581   0.195   4.583   6.345
 9899TIP3    H129582   0.278   4.581   6.295
 9899TIP3    H229583   0.217   4.526   6.420
 9900TIP3   OH229584   1.025   4.672   6.147
 9900TIP3    H129585   1.044   4.641   6.238
 9900TIP3    H229586   1.113   4.667   6.106
 9901TIP3   OH229587   0.958   6.228   5.643
 9901TIP3    H129588   0.883   6.194   5.591
 9901TIP3    H229589   0.941   6.324   5.640
 9902TIP3   OH229590   2.230   5.597   4.403
 9902TIP3    H129591   2.203   5.690   4.385
 9902TIP3    H229592   2.150   5.550   4.375
 9903TIP3   OH229593   2.233   5.595   4.783
 9903TIP3    H129594   2.261   5.570   4.873
 9903TIP3    H229595   2.186   5.515   4.755
 9904TIP3   OH229596   1.530   5.492   5.148
 9904TIP3    H129597   1.561   5.426   5.213
 9904TIP3    H229598   1.604   5.555   5.149
 9905TIP3   OH229599   2.474   5.898   4.468
 9905TIP3    H129600   2.457   5.831   4.536
 9905TIP3    H229601   2.500   5.975   4.521
 9906TIP3   OH229602   1.499   5.902   4.877
 9906TIP3    H129603   1.492   5.805   4.879
 9906TIP3    H229604   1.596   5.912   4.871
 9907TIP3   OH229605   1.208   5.107   4.661
 9907TIP3    H129606   1.158   5.189   4.677
 9907TIP3    H229607   1.138   5.051   4.623
 9908TIP3   OH229608   1.265   5.393   4.834
 9908TIP3    H129609   1.315   5.316   4.870
 9908TIP3    H229610   1.323   5.423   4.763
 9909TIP3   OH229611   2.123   6.363   4.482
 9909TIP3    H129612   2.169   6.291   4.437
 9909TIP3    H229613   2.110   6.327   4.571
 9910TIP3   OH229614   2.028   5.822   4.834
 9910TIP3    H129615   2.067   5.748   4.786
 9910TIP3    H229616   2.111   5.868   4.860
 9911TIP3   OH229617   3.040   5.145   4.829
 9911TIP3    H129618   3.069   5.226   4.877
 9911TIP3    H229619   3.063   5.169   4.738
 9912TIP3   OH229620   2.440   5.325   4.868
 9912TIP3    H129621   2.483   5.239   4.885
 9912TIP3    H229622   2.408   5.311   4.776
 9913TIP3   OH229623   1.780   4.983   4.832
 9913TIP3    H129624   1.757   5.056   4.770
 9913TIP3    H229625   1.731   4.910   4.788
 9914TIP3   OH229626   2.472   5.073   4.454
 9914TIP3    H129627   2.542   5.058   4.521
 9914TIP3    H229628   2.526   5.110   4.382
 9915TIP3   OH229629   1.411   5.186   4.939
 9915TIP3    H129630   1.494   5.166   4.987
 9915TIP3    H229631   1.423   5.129   4.860
 9916TIP3   OH229632   1.853   5.383   4.729
 9916TIP3    H129633   1.946   5.357   4.744
 9916TIP3    H229634   1.813   5.299   4.699
 9917TIP3   OH229635   3.113   5.349   5.002
 9917TIP3    H129636   3.030   5.398   4.985
 9917TIP3    H229637   3.129   5.372   5.095
 9918TIP3   OH229638   1.776   4.968   5.268
 9918TIP3    H129639   1.717   5.005   5.200
 9918TIP3    H229640   1.723   4.986   5.348
 9919TIP3   OH229641   2.125   5.821   4.271
 9919TIP3    H129642   2.077   5.801   4.190
 9919TIP3    H229643   2.081   5.904   4.299
 9920TIP3   OH229644   1.882   5.742   5.063
 9920TIP3    H129645   1.819   5.808   5.101
 9920TIP3    H229646   1.922   5.794   4.990
 9921TIP3   OH229647   2.682   5.078   4.626
 9921TIP3    H129648   2.669   5.031   4.709
 9921TIP3    H229649   2.735   5.155   4.654
 9922TIP3   OH229650   1.647   5.082   5.051
 9922TIP3    H129651   1.707   5.155   5.074
 9922TIP3    H229652   1.695   5.042   4.976
 9923TIP3   OH229653   1.709   5.935   5.159
 9923TIP3    H129654   1.683   6.022   5.121
 9923TIP3    H229655   1.630   5.920   5.217
 9924TIP3   OH229656   1.104   5.625   4.395
 9924TIP3    H129657   1.061   5.654   4.312
 9924TIP3    H229658   1.133   5.711   4.432
 9925TIP3   OH229659   2.544   6.142   4.634
 9925TIP3    H129660   2.455   6.133   4.676
 9925TIP3    H229661   2.534   6.229   4.590
 9926TIP3   OH229662   2.829   5.057   4.993
 9926TIP3    H129663   2.742   5.081   4.957
 9926TIP3    H229664   2.891   5.085   4.923
 9927TIP3   OH229665   2.131   4.691   4.981
 9927TIP3    H129666   2.114   4.596   4.986
 9927TIP3    H229667   2.052   4.726   5.027
 9928TIP3   OH229668   2.248   6.188   4.311
 9928TIP3    H129669   2.298   6.106   4.289
 9928TIP3    H229670   2.308   6.254   4.270
 9929TIP3   OH229671   2.391   5.971   4.215
 9929TIP3    H129672   2.338   5.896   4.185
 9929TIP3    H229673   2.426   5.938   4.300
 9930TIP3   OH229674   2.769   6.057   4.978
 9930TIP3    H129675   2.757   5.979   4.919
 9930TIP3    H229676   2.751   6.132   4.917
 9931TIP3   OH229677   2.059   5.446   4.235
 9931TIP3    H129678   1.978   5.499   4.220
 9931TIP3    H229679   2.103   5.453   4.148
 9932TIP3   OH229680   2.021   5.236   3.945
 9932TIP3    H129681   2.086   5.284   3.999
 9932TIP3    H229682   2.071   5.159   3.916
 9933TIP3   OH229683   2.963   5.690   4.822
 9933TIP3    H129684   2.881   5.743   4.828
 9933TIP3    H229685   2.994   5.716   4.732
 9934TIP3   OH229686   2.407   5.529   4.208
 9934TIP3    H129687   2.352   5.556   4.286
 9934TIP3    H229688   2.492   5.507   4.253
 9935TIP3   OH229689   2.643   5.569   5.122
 9935TIP3    H129690   2.642   5.653   5.172
 9935TIP3    H229691   2.557   5.575   5.075
 9936TIP3   OH229692   1.640   5.529   4.624
 9936TIP3    H129693   1.598   5.471   4.556
 9936TIP3    H229694   1.717   5.475   4.652
 9937TIP3   OH229695   1.770   5.939   4.774
 9937TIP3    H129696   1.748   5.900   4.688
 9937TIP3    H229697   1.860   5.905   4.790
 9938TIP3   OH229698   1.783   5.498   4.979
 9938TIP3    H129699   1.811   5.482   4.887
 9938TIP3    H229700   1.821   5.586   4.998
 9939TIP3   OH229701   2.305   6.137   4.757
 9939TIP3    H129702   2.288   6.218   4.808
 9939TIP3    H229703   2.287   6.066   4.821
 9940TIP3   OH229704   1.914   6.056   5.303
 9940TIP3    H129705   1.855   6.118   5.351
 9940TIP3    H229706   1.848   6.004   5.254
 9941TIP3   OH229707   2.255   5.382   4.034
 9941TIP3    H129708   2.308   5.445   4.088
 9941TIP3    H229709   2.280   5.410   3.943
 9942TIP3   OH229710   1.670   5.612   5.404
 9942TIP3    H129711   1.676   5.700   5.446
 9942TIP3    H229712   1.574   5.594   5.417
 9943TIP3   OH229713   1.993   6.067   4.308
 9943TIP3    H129714   2.069   6.125   4.327
 9943TIP3    H229715   1.929   6.127   4.271
 9944TIP3   OH229716   1.707   6.225   5.393
 9944TIP3    H129717   1.670   6.223   5.303
 9944TIP3    H229718   1.630   6.201   5.449
 9945TIP3   OH229719   2.763   4.633   4.080
 9945TIP3    H129720   2.683   4.648   4.134
 9945TIP3    H229721   2.772   4.719   4.035
 9946TIP3   OH229722   1.508   5.371   4.426
 9946TIP3    H129723   1.441   5.418   4.372
 9946TIP3    H229724   1.463   5.287   4.443
 9947TIP3   OH229725   2.562   5.998   3.629
 9947TIP3    H129726   2.569   6.095   3.616
 9947TIP3    H229727   2.655   5.970   3.618
 9948TIP3   OH229728   1.288   5.756   5.337
 9948TIP3    H129729   1.222   5.734   5.268
 9948TIP3    H229730   1.325   5.668   5.361
 9949TIP3   OH229731   1.142   5.947   4.974
 9949TIP3    H129732   1.237   5.944   4.960
 9949TIP3    H229733   1.131   6.029   5.024
 9950TIP3   OH229734   3.004   6.399   5.021
 9950TIP3    H129735   3.005   6.303   5.035
 9950TIP3    H229736   2.922   6.423   5.070
 9951TIP3   OH229737   2.113   6.185   5.161
 9951TIP3    H129738   2.111   6.277   5.193
 9951TIP3    H229739   2.040   6.146   5.215
 9952TIP3   OH229740   1.877   6.317   4.110
 9952TIP3    H129741   1.826   6.299   4.029
 9952TIP3    H229742   1.840   6.402   4.141
 9953TIP3   OH229743   1.314   6.155   4.491
 9953TIP3    H129744   1.360   6.152   4.577
 9953TIP3    H229745   1.247   6.086   4.504
 9954TIP3   OH229746   2.075   6.217   3.751
 9954TIP3    H129747   2.134   6.147   3.715
 9954TIP3    H229748   2.108   6.227   3.843
 9955TIP3   OH229749   2.127   6.263   4.021
 9955TIP3    H129750   2.037   6.276   4.059
 9955TIP3    H229751   2.173   6.223   4.096
 9956TIP3   OH229752   2.896   5.530   5.302
 9956TIP3    H129753   2.816   5.544   5.248
 9956TIP3    H229754   2.913   5.435   5.288
 9957TIP3   OH229755   1.493   5.939   5.326
 9957TIP3    H129756   1.542   5.924   5.409
 9957TIP3    H229757   1.418   5.877   5.335
 9958TIP3   OH229758   1.893   4.761   5.111
 9958TIP3    H129759   1.804   4.730   5.084
 9958TIP3    H229760   1.868   4.844   5.155
 9959TIP3   OH229761   2.655   5.303   5.214
 9959TIP3    H129762   2.614   5.308   5.304
 9959TIP3    H229763   2.642   5.394   5.181
 9960TIP3   OH229764   2.327   5.425   3.778
 9960TIP3    H129765   2.292   5.409   3.688
 9960TIP3    H229766   2.400   5.487   3.758
 9961TIP3   OH229767   2.050   4.806   4.083
 9961TIP3    H129768   2.011   4.806   4.173
 9961TIP3    H229769   2.003   4.728   4.047
 9962TIP3   OH229770   1.825   5.277   5.129
 9962TIP3    H129771   1.773   5.298   5.209
 9962TIP3    H229772   1.810   5.358   5.075
 9963TIP3   OH229773   1.708   5.163   4.642
 9963TIP3    H129774   1.615   5.138   4.660
 9963TIP3    H229775   1.719   5.122   4.553
 9964TIP3   OH229776   2.198   5.251   4.369
 9964TIP3    H129777   2.144   5.322   4.329
 9964TIP3    H229778   2.252   5.223   4.294
 9965TIP3   OH229779   2.371   5.526   5.454
 9965TIP3    H129780   2.351   5.456   5.519
 9965TIP3    H229781   2.464   5.545   5.475
 9966TIP3   OH229782   2.355   5.278   4.609
 9966TIP3    H129783   2.295   5.310   4.539
 9966TIP3    H229784   2.387   5.196   4.566
 9967TIP3   OH229785   1.646   5.307   5.336
 9967TIP3    H129786   1.661   5.375   5.404
 9967TIP3    H229787   1.631   5.227   5.390
 9968TIP3   OH229788   1.698   4.788   4.046
 9968TIP3    H129789   1.684   4.783   4.142
 9968TIP3    H229790   1.617   4.837   4.019
 9969TIP3   OH229791   1.235   4.829   4.917
 9969TIP3    H129792   1.312   4.859   4.969
 9969TIP3    H229793   1.274   4.795   4.835
 9970TIP3   OH229794   1.210   4.811   4.437
 9970TIP3    H129795   1.253   4.850   4.358
 9970TIP3    H229796   1.147   4.883   4.458
 9971TIP3   OH229797   2.365   5.525   5.031
 9971TIP3    H129798   2.398   5.453   4.973
 9971TIP3    H229799   2.334   5.472   5.108
 9972TIP3   OH229800   2.035   4.984   4.702
 9972TIP3    H129801   1.951   4.984   4.753
 9972TIP3    H229802   2.101   4.986   4.773
 9973TIP3   OH229803   1.469   5.042   4.711
 9973TIP3    H129804   1.374   5.052   4.684
 9973TIP3    H229805   1.488   4.950   4.688
 9974TIP3   OH229806   1.739   5.037   4.400
 9974TIP3    H129807   1.832   5.056   4.375
 9974TIP3    H229808   1.689   5.060   4.318
 9975TIP3   OH229809   2.526   5.063   4.899
 9975TIP3    H129810   2.496   5.071   4.992
 9975TIP3    H229811   2.461   4.999   4.866
 9976TIP3   OH229812   1.582   5.070   4.180
 9976TIP3    H129813   1.507   5.026   4.135
 9976TIP3    H229814   1.631   5.105   4.103
 9977TIP3   OH229815   2.686   6.732   5.111
 9977TIP3    H129816   2.643   6.787   5.044
 9977TIP3    H229817   2.735   6.801   5.162
 9978TIP3   OH229818   1.661   5.858   5.540
 9978TIP3    H129819   1.735   5.894   5.593
 9978TIP3    H229820   1.593   5.853   5.612
 9979TIP3   OH229821   2.118   5.313   4.800
 9979TIP3    H129822   2.193   5.275   4.751
 9979TIP3    H229823   2.128   5.272   4.888
 9980TIP3   OH229824   1.644   4.800   4.680
 9980TIP3    H129825   1.606   4.723   4.726
 9980TIP3    H229826   1.685   4.760   4.603
 9981TIP3   OH229827   2.095   5.209   5.096
 9981TIP3    H129828   2.004   5.246   5.105
 9981TIP3    H229829   2.150   5.275   5.143
 9982TIP3   OH229830   1.834   5.600   4.188
 9982TIP3    H129831   1.760   5.536   4.175
 9982TIP3    H229832   1.813   5.636   4.278
 9983TIP3   OH229833   2.732   5.837   4.815
 9983TIP3    H129834   2.755   5.888   4.734
 9983TIP3    H229835   2.646   5.797   4.790
 9984TIP3   OH229836   2.274   4.939   4.003
 9984TIP3    H129837   2.193   4.899   4.043
 9984TIP3    H229838   2.299   5.010   4.066
 9985TIP3   OH229839   2.232   5.921   5.183
 9985TIP3    H129840   2.252   5.901   5.275
 9985TIP3    H229841   2.191   6.009   5.188
 9986TIP3   OH229842   2.361   5.153   4.148
 9986TIP3    H129843   2.456   5.164   4.170
 9986TIP3    H229844   2.341   5.239   4.104
 9987TIP3   OH229845   1.525   5.624   4.862
 9987TIP3    H129846   1.562   5.595   4.777
 9987TIP3    H229847   1.561   5.559   4.924
 9988TIP3   OH229848   1.976   5.751   4.008
 9988TIP3    H129849   1.929   5.838   4.012
 9988TIP3    H229850   1.921   5.697   4.069
 9989TIP3   OH229851   1.407   5.541   5.473
 9989TIP3    H129852   1.428   5.527   5.568
 9989TIP3    H229853   1.334   5.478   5.460
 9990TIP3   OH229854   2.129   5.658   5.495
 9990TIP3    H129855   2.068   5.600   5.446
 9990TIP3    H229856   2.216   5.625   5.464
 9991TIP3   OH229857   2.391   6.177   5.079
 9991TIP3    H129858   2.295   6.178   5.091
 9991TIP3    H229859   2.419   6.231   5.156
 9992TIP3   OH229860   2.802   5.253   3.990
 9992TIP3    H129861   2.737   5.208   3.930
 9992TIP3    H229862   2.798   5.342   3.949
 9993TIP3   OH229863   3.019   6.109   5.068
 9993TIP3    H129864   2.921   6.105   5.059
 9993TIP3    H229865   3.046   6.080   4.978
 9994TIP3   OH229866   2.506   6.070   3.896
 9994TIP3    H129867   2.473   6.003   3.958
 9994TIP3    H229868   2.513   6.022   3.812
 9995TIP3   OH229869   2.497   5.700   4.733
 9995TIP3    H129870   2.404   5.675   4.747
 9995TIP3    H229871   2.531   5.620   4.688
 9996TIP3   OH229872   1.624   5.927   4.483
 9996TIP3    H129873   1.623   6.009   4.431
 9996TIP3    H229874   1.530   5.914   4.498
 9997TIP3   OH229875   1.189   5.232   4.191
 9997TIP3    H129876   1.233   5.317   4.210
 9997TIP3    H229877   1.111   5.237   4.250
 9998TIP3   OH229878   1.764   5.694   4.431
 9998TIP3    H129879   1.727   5.783   4.447
 9998TIP3    H229880   1.725   5.644   4.505
 9999TIP3   OH229881   1.894   6.271   4.955
 9999TIP3    H129882   1.934   6.344   4.904
 9999TIP3    H229883   1.971   6.238   5.004
10000TIP3   OH229884   1.548   6.161   4.337
10000TIP3    H129885   1.461   6.173   4.381
10000TIP3    H229886   1.585   6.253   4.342
10001TIP3   OH229887   2.281   5.903   4.915
10001TIP3    H129888   2.272   5.904   5.013
10001TIP3    H229889   2.364   5.854   4.904
10002TIP3   OH229890   2.256   5.794   3.795
10002TIP3    H129891   2.307   5.770   3.876
10002TIP3    H229892   2.166   5.774   3.823
10003TIP3   OH229893   2.531   6.437   4.963
10003TIP3    H129894   2.450   6.382   4.954
10003TIP3    H229895   2.515   6.504   4.893
10004TIP3   OH229896   2.595   6.273   3.616
10004TIP3    H129897   2.629   6.344   3.560
10004TIP3    H229898   2.516   6.318   3.651
10005TIP3   OH229899   1.614   5.048   5.483
10005TIP3    H129900   1.518   5.055   5.495
10005TIP3    H229901   1.639   4.988   5.556
10006TIP3   OH229902   2.416   5.725   4.009
10006TIP3    H129903   2.407   5.665   4.085
10006TIP3    H229904   2.514   5.728   4.000
10007TIP3   OH229905   1.332   6.134   5.115
10007TIP3    H129906   1.384   6.058   5.147
10007TIP3    H229907   1.359   6.202   5.178
10008TIP3   OH229908   1.626   5.778   3.795
10008TIP3    H129909   1.635   5.685   3.768
10008TIP3    H229910   1.605   5.768   3.890
10009TIP3   OH229911   1.570   5.784   4.066
10009TIP3    H129912   1.636   5.760   4.133
10009TIP3    H229913   1.570   5.882   4.073
10010TIP3   OH229914   1.304   5.479   4.272
10010TIP3    H129915   1.237   5.523   4.329
10010TIP3    H229916   1.315   5.548   4.204
10011TIP3   OH229917   2.459   5.106   5.161
10011TIP3    H129918   2.535   5.161   5.188
10011TIP3    H229919   2.441   5.052   5.239
10012TIP3   OH229920   2.338   4.866   4.328
10012TIP3    H129921   2.315   4.904   4.242
10012TIP3    H229922   2.378   4.944   4.373
10013TIP3   OH229923   1.835   5.982   4.016
10013TIP3    H129924   1.748   6.006   4.053
10013TIP3    H229925   1.849   6.056   3.956
10014TIP3   OH229926   2.026   5.043   4.430
10014TIP3    H129927   2.087   5.119   4.416
10014TIP3    H229928   2.026   5.036   4.528
10015TIP3   OH229929   2.291   5.364   5.239
10015TIP3    H129930   2.308   5.424   5.315
10015TIP3    H229931   2.352   5.291   5.258
10016TIP3   OH229932   2.165   4.772   4.534
10016TIP3    H129933   2.156   4.849   4.593
10016TIP3    H229934   2.227   4.808   4.467
10017TIP3   OH229935   1.578   6.055   4.084
10017TIP3    H129936   1.547   6.125   4.022
10017TIP3    H229937   1.562   6.098   4.171
10018TIP3   OH229938   1.678   4.770   4.323
10018TIP3    H129939   1.674   4.860   4.359
10018TIP3    H229940   1.774   4.753   4.331
10019TIP3   OH229941   2.926   5.266   5.218
10019TIP3    H129942   2.828   5.261   5.219
10019TIP3    H229943   2.945   5.219   5.135
10020TIP3   OH229944   2.583   5.458   4.607
10020TIP3    H129945   2.507   5.399   4.621
10020TIP3    H229946   2.654   5.412   4.656
10021TIP3   OH229947   1.294   5.685   4.079
10021TIP3    H129948   1.354   5.761   4.086
10021TIP3    H229949   1.341   5.634   4.010
10022TIP3   OH229950   1.240   4.962   4.210
10022TIP3    H129951   1.238   5.060   4.208
10022TIP3    H229952   1.157   4.939   4.168
10023TIP3   OH229953   2.549   6.412   4.556
10023TIP3    H129954   2.505   6.461   4.483
10023TIP3    H229955   2.643   6.430   4.533
10024TIP3   OH229956   1.631   4.682   5.083
10024TIP3    H129957   1.596   4.650   4.996
10024TIP3    H229958   1.616   4.604   5.140
10025TIP3   OH229959   1.161   5.891   4.465
10025TIP3    H129960   1.092   5.928   4.522
10025TIP3    H229961   1.141   5.936   4.380
10026TIP3   OH229962   1.321   6.441   5.543
10026TIP3    H129963   1.408   6.437   5.588
10026TIP3    H229964   1.298   6.346   5.542
10027TIP3   OH229965   1.808   6.407   5.578
10027TIP3    H129966   1.901   6.382   5.584
10027TIP3    H229967   1.778   6.348   5.506
10028TIP3   OH229968   1.786   5.983   3.708
10028TIP3    H129969   1.730   5.912   3.746
10028TIP3    H229970   1.860   5.930   3.674
10029TIP3   OH229971   2.444   6.313   5.313
10029TIP3    H129972   2.435   6.244   5.382
10029TIP3    H229973   2.521   6.364   5.345
10030TIP3   OH229974   2.222   6.023   3.620
10030TIP3    H129975   2.269   5.960   3.677
10030TIP3    H229976   2.276   6.024   3.539
10031TIP3   OH229977   1.465   5.822   5.720
10031TIP3    H129978   1.452   5.726   5.723
10031TIP3    H229979   1.374   5.856   5.712
10032TIP3   OH229980   1.430   5.500   3.928
10032TIP3    H129981   1.485   5.469   4.002
10032TIP3    H229982   1.498   5.505   3.857
10033TIP3   OH229983   2.067   5.935   5.507
10033TIP3    H129984   2.018   5.952   5.423
10033TIP3    H229985   2.093   5.841   5.499
10034TIP3   OH229986   1.945   5.699   3.738
10034TIP3    H129987   1.942   5.712   3.835
10034TIP3    H229988   1.939   5.602   3.732
10035TIP3   OH229989   2.554   5.941   5.115
10035TIP3    H129990   2.627   5.988   5.072
10035TIP3    H229991   2.482   6.006   5.104
10036TIP3   OH229992   1.575   5.558   5.722
10036TIP3    H129993   1.662   5.521   5.704
10036TIP3    H229994   1.594   5.613   5.800
10037TIP3   OH229995   1.642   5.403   4.154
10037TIP3    H129996   1.609   5.363   4.237
10037TIP3    H229997   1.673   5.324   4.104
10038TIP3   OH229998   1.911   5.469   5.383
10038TIP3    H129999   1.831   5.525   5.385
10038TIP3    H230000   1.957   5.502   5.303
10039TIP3   OH230001   1.738   5.194   3.992
10039TIP3    H130002   1.709   5.200   3.898
10039TIP3    H230003   1.834   5.207   3.982
10040TIP3   OH230004   2.423   5.868   5.514
10040TIP3    H130005   2.505   5.848   5.468
10040TIP3    H230006   2.422   5.803   5.586
10041TIP3   OH230007   2.566   5.527   3.653
10041TIP3    H130008   2.538   5.485   3.570
10041TIP3    H230009   2.533   5.618   3.635
10042TIP3   OH230010   2.036   5.256   5.503
10042TIP3    H130011   2.029   5.177   5.445
10042TIP3    H230012   1.990   5.324   5.449
10043TIP3   OH230013   2.038   5.038   5.314
10043TIP3    H130014   2.062   5.083   5.231
10043TIP3    H230015   1.943   5.016   5.298
10044TIP3   OH230016   2.062   5.577   5.185
10044TIP3    H130017   2.144   5.592   5.137
10044TIP3    H230018   2.002   5.643   5.144
10045TIP3   OH230019   2.643   5.546   5.567
10045TIP3    H130020   2.699   5.467   5.579
10045TIP3    H230021   2.708   5.609   5.532
10046TIP3   OH230022   2.684   5.796   5.302
10046TIP3    H130023   2.625   5.850   5.244
10046TIP3    H230024   2.771   5.818   5.263
10047TIP3   OH230025   1.909   5.367   5.736
10047TIP3    H130026   1.839   5.300   5.751
10047TIP3    H230027   1.940   5.343   5.646
10048TIP3   OH230028   2.164   4.799   5.396
10048TIP3    H130029   2.129   4.887   5.371
10048TIP3    H230030   2.090   4.741   5.371
10049TIP3   OH230031   2.295   5.302   5.597
10049TIP3    H130032   2.277   5.306   5.693
10049TIP3    H230033   2.204   5.285   5.564
10050TIP3   OH230034   2.535   5.270   5.453
10050TIP3    H130035   2.459   5.277   5.515
10050TIP3    H230036   2.608   5.241   5.511
10051TIP3   OH230037   2.772   5.201   5.609
10051TIP3    H130038   2.794   5.113   5.643
10051TIP3    H230039   2.763   5.254   5.691
10052TIP3   OH230040   1.747   5.148   5.788
10052TIP3    H130041   1.749   5.056   5.755
10052TIP3    H230042   1.779   5.137   5.879
10053TIP3   OH230043   2.282   5.022   5.806
10053TIP3    H130044   2.279   5.020   5.710
10053TIP3    H230045   2.225   5.101   5.823
10054TIP3   OH230046   1.546   6.256   3.896
10054TIP3    H130047   1.641   6.254   3.876
10054TIP3    H230048   1.515   6.308   3.819
10055TIP3   OH230049   1.025   5.640   4.114
10055TIP3    H130050   1.120   5.662   4.100
10055TIP3    H230051   1.020   5.552   4.072
10056TIP3   OH230052   0.936   6.251   4.521
10056TIP3    H130053   0.868   6.187   4.490
10056TIP3    H230054   0.984   6.196   4.586
10057TIP3   OH230055   1.078   6.104   4.708
10057TIP3    H130056   1.064   6.033   4.773
10057TIP3    H230057   1.129   6.167   4.762
10058TIP3   OH230058   2.805   6.496   4.513
10058TIP3    H130059   2.835   6.524   4.602
10058TIP3    H230060   2.862   6.547   4.454
10059TIP3   OH230061   2.866   6.525   4.783
10059TIP3    H130062   2.800   6.453   4.784
10059TIP3    H230063   2.921   6.497   4.858
10060TIP3   OH230064   2.881   6.202   5.370
10060TIP3    H130065   2.808   6.211   5.433
10060TIP3    H230066   2.921   6.292   5.373
10061TIP3   OH230067   2.697   5.712   3.988
10061TIP3    H130068   2.763   5.779   3.960
10061TIP3    H230069   2.740   5.675   4.068
10062TIP3   OH230070   2.824   5.581   4.192
10062TIP3    H130071   2.758   5.540   4.252
10062TIP3    H230072   2.889   5.619   4.254
10063TIP3   OH230073   2.878   5.974   4.625
10063TIP3    H130074   2.931   5.909   4.575
10063TIP3    H230075   2.866   6.045   4.560
10064TIP3   OH230076   2.711   6.279   4.818
10064TIP3    H130077   2.641   6.322   4.871
10064TIP3    H230078   2.659   6.232   4.749
10065TIP3   OH230079   2.761   5.487   3.839
10065TIP3    H130080   2.690   5.495   3.770
10065TIP3    H230081   2.735   5.563   3.895
10066TIP3   OH230082   2.630   5.159   3.802
10066TIP3    H130083   2.610   5.216   3.726
10066TIP3    H230084   2.605   5.070   3.772
10067TIP3   OH230085   2.637   5.439   4.339
10067TIP3    H130086   2.647   5.342   4.337
10067TIP3    H230087   2.623   5.455   4.435
10068TIP3   OH230088   1.264   5.509   5.087
10068TIP3    H130089   1.261   5.480   4.994
10068TIP3    H230090   1.361   5.512   5.102
10069TIP3   OH230091   2.927   5.864   5.195
10069TIP3    H130092   2.999   5.798   5.186
10069TIP3    H230093   2.955   5.934   5.134
10070TIP3   OH230094   3.110   5.668   5.211
10070TIP3    H130095   3.037   5.617   5.253
10070TIP3    H230096   3.184   5.605   5.225
10071TIP3   OH230097   2.574   4.887   3.755
10071TIP3    H130098   2.659   4.878   3.804
10071TIP3    H230099   2.514   4.838   3.814
10072TIP3   OH230100   2.632   5.153   4.234
10072TIP3    H130101   2.674   5.065   4.249
10072TIP3    H230102   2.693   5.189   4.167
10073TIP3   OH230103   2.795   5.328   4.728
10073TIP3    H130104   2.881   5.354   4.688
10073TIP3    H230105   2.808   5.365   4.818
10074TIP3   OH230106   2.863   5.473   4.960
10074TIP3    H130107   2.786   5.508   5.008
10074TIP3    H230108   2.897   5.553   4.915
10075TIP3   OH230109   1.479   5.197   5.759
10075TIP3    H130110   1.576   5.194   5.761
10075TIP3    H230111   1.456   5.112   5.801
10076TIP3   OH230112   2.743   4.904   4.269
10076TIP3    H130113   2.792   4.890   4.354
10076TIP3    H230114   2.682   4.827   4.271
10077TIP3   OH230115   1.444   4.889   5.089
10077TIP3    H130116   1.507   4.816   5.100
10077TIP3    H230117   1.505   4.965   5.085
10078TIP3   OH230118   1.247   5.163   5.166
10078TIP3    H130119   1.294   5.159   5.080
10078TIP3    H230120   1.271   5.252   5.196
10079TIP3   OH230121   3.193   5.205   5.324
10079TIP3    H130122   3.106   5.238   5.352
10079TIP3    H230123   3.168   5.119   5.286
10080TIP3   OH230124   2.815   4.849   3.886
10080TIP3    H130125   2.863   4.771   3.853
10080TIP3    H230126   2.887   4.914   3.896
10081TIP3   OH230127   1.229   4.669   4.667
10081TIP3    H130128   1.136   4.663   4.694
10081TIP3    H230129   1.224   4.727   4.588
10082TIP3   OH230130   2.393   6.369   4.173
10082TIP3    H130131   2.440   6.356   4.088
10082TIP3    H230132   2.442   6.442   4.212
10083TIP3   OH230133   1.450   4.744   5.478
10083TIP3    H130134   1.399   4.742   5.561
10083TIP3    H230135   1.385   4.786   5.418
10084TIP3   OH230136   1.487   6.175   5.571
10084TIP3    H130137   1.398   6.146   5.545
10084TIP3    H230138   1.483   6.158   5.667
10085TIP3   OH230139   1.667   6.206   5.104
10085TIP3    H130140   1.617   6.281   5.065
10085TIP3    H230141   1.752   6.222   5.059
10086TIP3   OH230142   2.112   6.451   5.241
10086TIP3    H130143   2.154   6.453   5.330
10086TIP3    H230144   2.178   6.503   5.190
10087TIP3   OH230145   2.292   6.605   5.102
10087TIP3    H130146   2.362   6.553   5.060
10087TIP3    H230147   2.344   6.662   5.162
10088TIP3   OH230148   3.087   4.967   5.197
10088TIP3    H130149   2.992   4.979   5.186
10088TIP3    H230150   3.088   4.874   5.225
10089TIP3   OH230151   1.344   6.465   5.126
10089TIP3    H130152   1.257   6.500   5.100
10089TIP3    H230153   1.349   6.496   5.217
10090TIP3   OH230154   1.581   6.444   4.984
10090TIP3    H130155   1.494   6.456   5.029
10090TIP3    H230156   1.561   6.476   4.894
10091TIP3   OH230157   2.007   6.471   4.783
10091TIP3    H130158   1.934   6.488   4.720
10091TIP3    H230159   2.017   6.559   4.824
10092TIP3   OH230160   2.274   6.410   4.835
10092TIP3    H130161   2.180   6.428   4.815
10092TIP3    H230162   2.318   6.486   4.793
10093TIP3   OH230163   2.477   6.604   4.752
10093TIP3    H130164   2.477   6.694   4.714
10093TIP3    H230165   2.505   6.549   4.676
10094TIP3   OH230166   1.251   6.256   4.873
10094TIP3    H130167   1.281   6.231   4.963
10094TIP3    H230168   1.324   6.216   4.820
10095TIP3   OH230169   1.447   6.131   4.729
10095TIP3    H130170   1.464   6.048   4.779
10095TIP3    H230171   1.537   6.169   4.724
10096TIP3   OH230172   1.712   6.222   4.733
10096TIP3    H130173   1.746   6.132   4.722
10096TIP3    H230174   1.757   6.247   4.816
10097TIP3   OH230175   2.292   4.882   4.819
10097TIP3    H130176   2.248   4.813   4.873
10097TIP3    H230177   2.365   4.832   4.777
10098TIP3   OH230178   2.817   4.758   4.723
10098TIP3    H130179   2.850   4.812   4.649
10098TIP3    H230180   2.721   4.777   4.721
10099TIP3   OH230181   2.908   4.862   4.487
10099TIP3    H130182   2.982   4.810   4.448
10099TIP3    H230183   2.942   4.954   4.473
10100TIP3   OH230184   1.539   4.590   4.835
10100TIP3    H130185   1.446   4.558   4.837
10100TIP3    H230186   1.587   4.505   4.831
10101TIP3   OH230187   1.330   4.460   4.485
10101TIP3    H130188   1.355   4.518   4.411
10101TIP3    H230189   1.297   4.524   4.551
10102TIP3   OH230190   1.986   4.619   4.715
10102TIP3    H130191   2.042   4.671   4.656
10102TIP3    H230192   1.998   4.665   4.799
10103TIP3   OH230193   2.532   4.769   4.699
10103TIP3    H130194   2.529   4.729   4.611
10103TIP3    H230195   2.515   4.690   4.756
10104TIP3   OH230196   2.558   4.691   4.261
10104TIP3    H130197   2.473   4.735   4.280
10104TIP3    H230198   2.545   4.606   4.308
10105TIP3   OH230199   1.044   6.031   4.264
10105TIP3    H130200   0.958   6.000   4.230
10105TIP3    H230201   1.035   6.126   4.246
10106TIP3   OH230202   1.442   4.618   4.247
10106TIP3    H130203   1.490   4.556   4.190
10106TIP3    H230204   1.515   4.672   4.283
10107TIP3   OH230205   1.956   4.795   4.343
10107TIP3    H130206   2.012   4.746   4.406
10107TIP3    H230207   1.976   4.887   4.372
10108TIP3   OH230208   1.815   6.218   3.846
10108TIP3    H130209   1.902   6.242   3.809
10108TIP3    H230210   1.793   6.144   3.785
10109TIP3   OH230211   2.535   6.338   3.938
10109TIP3    H130212   2.527   6.240   3.926
10109TIP3    H230213   2.487   6.370   3.859
10110TIP3   OH230214   1.744   4.871   5.727
10110TIP3    H130215   1.706   4.801   5.784
10110TIP3    H230216   1.838   4.869   5.755
10111TIP3   OH230217   1.994   4.865   5.849
10111TIP3    H130218   2.090   4.862   5.852
10111TIP3    H230219   1.969   4.799   5.917
10112TIP3   OH230220   1.117   6.054   3.901
10112TIP3    H130221   1.115   6.086   3.992
10112TIP3    H230222   1.207   6.015   3.893
10113TIP3   OH230223   2.761   6.472   5.127
10113TIP3    H130224   2.681   6.441   5.080
10113TIP3    H230225   2.745   6.569   5.122
10114TIP3   OH230226   4.029   5.853   3.890
10114TIP3    H130227   4.000   5.945   3.873
10114TIP3    H230228   3.949   5.805   3.862
10115TIP3   OH230229   4.029   5.850   4.271
10115TIP3    H130230   4.058   5.829   4.361
10115TIP3    H230231   3.983   5.769   4.245
10116TIP3   OH230232   3.325   5.749   4.637
10116TIP3    H130233   3.355   5.682   4.701
10116TIP3    H230234   3.401   5.809   4.637
10117TIP3   OH230235   4.272   6.155   3.955
10117TIP3    H130236   4.251   6.090   4.024
10117TIP3    H230237   4.296   6.233   4.008
10118TIP3   OH230238   3.290   6.159   4.363
10118TIP3    H130239   3.284   6.061   4.364
10118TIP3    H230240   3.387   6.170   4.367
10119TIP3   OH230241   3.004   5.361   4.147
10119TIP3    H130242   2.958   5.445   4.165
10119TIP3    H230243   2.931   5.309   4.110
10120TIP3   OH230244   3.061   5.648   4.319
10120TIP3    H130245   3.111   5.572   4.356
10120TIP3    H230246   3.125   5.684   4.255
10121TIP3   OH230247   3.916   6.618   3.970
10121TIP3    H130248   3.963   6.545   3.924
10121TIP3    H230249   3.914   6.587   4.061
10122TIP3   OH230250   3.824   6.079   4.319
10122TIP3    H130251   3.866   6.004   4.274
10122TIP3    H230252   3.905   6.127   4.346
10123TIP3   OH230253   4.841   5.393   4.321
10123TIP3    H130254   4.866   5.477   4.366
10123TIP3    H230255   4.850   5.416   4.228
10124TIP3   OH230256   4.241   5.581   4.352
10124TIP3    H130257   4.279   5.494   4.373
10124TIP3    H230258   4.206   5.565   4.263
10125TIP3   OH230259   3.573   5.241   4.319
10125TIP3    H130260   3.554   5.313   4.256
10125TIP3    H230261   3.525   5.167   4.275
10126TIP3   OH230262   4.268   5.332   3.941
10126TIP3    H130263   4.340   5.315   4.006
10126TIP3    H230264   4.321   5.367   3.866
10127TIP3   OH230265   3.208   5.443   4.425
10127TIP3    H130266   3.291   5.424   4.474
10127TIP3    H230267   3.222   5.387   4.346
10128TIP3   OH230268   3.649   5.641   4.216
10128TIP3    H130269   3.743   5.615   4.231
10128TIP3    H230270   3.610   5.556   4.186
10129TIP3   OH230271   4.908   5.611   4.479
10129TIP3    H130272   4.821   5.656   4.469
10129TIP3    H230273   4.918   5.619   4.576
10130TIP3   OH230274   3.568   5.220   4.753
10130TIP3    H130275   3.509   5.260   4.686
10130TIP3    H230276   3.517   5.241   4.835
10131TIP3   OH230277   3.920   6.077   3.761
10131TIP3    H130278   3.874   6.057   3.679
10131TIP3    H230279   3.877   6.161   3.787
10132TIP3   OH230280   3.676   5.998   4.550
10132TIP3    H130281   3.611   6.063   4.585
10132TIP3    H230282   3.721   6.052   4.482
10133TIP3   OH230283   4.479   5.333   4.113
10133TIP3    H130284   4.462   5.281   4.193
10133TIP3    H230285   4.530   5.409   4.147
10134TIP3   OH230286   3.441   5.339   4.538
10134TIP3    H130287   3.502   5.412   4.562
10134TIP3    H230288   3.491   5.299   4.463
10135TIP3   OH230289   3.492   6.187   4.630
10135TIP3    H130290   3.474   6.279   4.600
10135TIP3    H230291   3.419   6.177   4.695
10136TIP3   OH230292   2.900   5.883   3.882
10136TIP3    H130293   2.857   5.911   3.800
10136TIP3    H230294   2.930   5.969   3.919
10137TIP3   OH230295   4.339   6.397   4.118
10137TIP3    H130296   4.251   6.389   4.162
10137TIP3    H230297   4.330   6.485   4.077
10138TIP3   OH230298   4.622   5.319   4.490
10138TIP3    H130299   4.533   5.334   4.455
10138TIP3    H230300   4.679   5.337   4.412
10139TIP3   OH230301   3.925   4.949   4.461
10139TIP3    H130302   3.917   4.854   4.479
10139TIP3    H230303   3.844   4.984   4.505
10140TIP3   OH230304   4.042   6.444   3.795
10140TIP3    H130305   4.093   6.362   3.775
10140TIP3    H230306   4.102   6.511   3.755
10141TIP3   OH230307   4.187   6.229   3.703
10141TIP3    H130308   4.142   6.151   3.668
10141TIP3    H230309   4.223   6.195   3.788
10142TIP3   OH230310   4.567   6.312   4.466
10142TIP3    H130311   4.552   6.235   4.407
10142TIP3    H230312   4.545   6.387   4.406
10143TIP3   OH230313   3.856   5.703   3.723
10143TIP3    H130314   3.777   5.757   3.701
10143TIP3    H230315   3.903   5.702   3.638
10144TIP3   OH230316   3.814   5.490   3.441
10144TIP3    H130317   3.882   5.541   3.488
10144TIP3    H230318   3.871   5.428   3.391
10145TIP3   OH230319   4.760   5.944   4.307
10145TIP3    H130320   4.678   5.998   4.311
10145TIP3    H230321   4.791   5.966   4.217
10146TIP3   OH230322   4.206   5.788   3.694
10146TIP3    H130323   4.149   5.812   3.771
10146TIP3    H230324   4.288   5.763   3.739
10147TIP3   OH230325   4.439   5.827   4.606
10147TIP3    H130326   4.437   5.911   4.657
10147TIP3    H230327   4.352   5.833   4.562
10148TIP3   OH230328   3.437   5.786   4.111
10148TIP3    H130329   3.398   5.727   4.043
10148TIP3    H230330   3.514   5.733   4.141
10149TIP3   OH230331   3.567   6.200   4.258
10149TIP3    H130332   3.549   6.152   4.176
10149TIP3    H230333   3.656   6.168   4.281
10150TIP3   OH230334   3.574   5.757   4.464
10150TIP3    H130335   3.608   5.738   4.375
10150TIP3    H230336   3.616   5.843   4.486
10151TIP3   OH230337   4.101   6.391   4.243
10151TIP3    H130338   4.086   6.475   4.292
10151TIP3    H230339   4.082   6.323   4.310
10152TIP3   OH230340   3.671   6.268   4.838
10152TIP3    H130341   3.709   6.354   4.814
10152TIP3    H230342   3.625   6.243   4.756
10153TIP3   OH230343   4.044   5.647   3.520
10153TIP3    H130344   4.104   5.706   3.571
10153TIP3    H230345   4.070   5.670   3.428
10154TIP3   OH230346   3.464   5.868   4.890
10154TIP3    H130347   3.471   5.956   4.932
10154TIP3    H230348   3.369   5.851   4.903
10155TIP3   OH230349   3.788   6.324   3.793
10155TIP3    H130350   3.867   6.378   3.813
10155TIP3    H230351   3.726   6.390   3.759
10156TIP3   OH230352   3.482   6.520   4.873
10156TIP3    H130353   3.474   6.477   4.787
10156TIP3    H230354   3.419   6.470   4.929
10157TIP3   OH230355   4.561   4.887   3.570
10157TIP3    H130356   4.479   4.906   3.619
10157TIP3    H230357   4.573   4.969   3.518
10158TIP3   OH230358   3.306   5.628   3.910
10158TIP3    H130359   3.236   5.673   3.858
10158TIP3    H230360   3.263   5.544   3.931
10159TIP3   OH230361   4.359   6.254   3.117
10159TIP3    H130362   4.367   6.351   3.103
10159TIP3    H230363   4.452   6.225   3.105
10160TIP3   OH230364   3.084   6.013   4.823
10160TIP3    H130365   3.018   5.989   4.756
10160TIP3    H230366   3.122   5.926   4.849
10161TIP3   OH230367   2.938   6.205   4.452
10161TIP3    H130368   3.034   6.196   4.446
10161TIP3    H230369   2.925   6.279   4.512
10162TIP3   OH230370   4.803   6.657   4.513
10162TIP3    H130371   4.800   6.561   4.529
10162TIP3    H230372   4.720   6.685   4.558
10163TIP3   OH230373   3.669   6.571   3.598
10163TIP3    H130374   3.623   6.555   3.514
10163TIP3    H230375   3.637   6.660   3.623
10164TIP3   OH230376   3.108   6.420   3.982
10164TIP3    H130377   3.155   6.411   4.068
10164TIP3    H230378   3.049   6.343   3.985
10165TIP3   OH230379   3.871   6.473   3.238
10165TIP3    H130380   3.930   6.403   3.202
10165TIP3    H230381   3.905   6.483   3.330
10166TIP3   OH230382   3.920   6.520   3.508
10166TIP3    H130383   3.832   6.530   3.550
10166TIP3    H230384   3.972   6.483   3.582
10167TIP3   OH230385   4.694   5.788   4.786
10167TIP3    H130386   4.609   5.802   4.742
10167TIP3    H230387   4.709   5.692   4.772
10168TIP3   OH230388   3.289   6.198   4.811
10168TIP3    H130389   3.341   6.182   4.892
10168TIP3    H230390   3.216   6.133   4.822
10169TIP3   OH230391   3.682   5.030   4.573
10169TIP3    H130392   3.592   4.997   4.553
10169TIP3    H230393   3.658   5.112   4.622
10170TIP3   OH230394   4.221   5.134   4.787
10170TIP3    H130395   4.273   5.096   4.858
10170TIP3    H230396   4.129   5.115   4.817
10171TIP3   OH230397   4.462   5.566   4.714
10171TIP3    H130398   4.410   5.560   4.797
10171TIP3    H230399   4.435   5.653   4.677
10172TIP3   OH230400   4.120   5.695   3.265
10172TIP3    H130401   4.087   5.668   3.178
10172TIP3    H230402   4.203   5.741   3.240
10173TIP3   OH230403   3.831   5.069   3.566
10173TIP3    H130404   3.800   5.065   3.659
10173TIP3    H230405   3.795   4.984   3.533
10174TIP3   OH230406   3.619   5.534   4.614
10174TIP3    H130407   3.570   5.557   4.696
10174TIP3    H230408   3.604   5.616   4.560
10175TIP3   OH230409   3.504   5.420   4.128
10175TIP3    H130410   3.411   5.394   4.147
10175TIP3    H230411   3.516   5.379   4.040
10176TIP3   OH230412   3.995   5.506   3.857
10176TIP3    H130413   3.942   5.577   3.814
10176TIP3    H230414   4.049   5.475   3.782
10177TIP3   OH230415   4.170   5.781   4.937
10177TIP3    H130416   4.148   5.711   5.003
10177TIP3    H230417   4.261   5.802   4.964
10178TIP3   OH230418   4.152   5.535   4.094
10178TIP3    H130419   4.090   5.564   4.025
10178TIP3    H230420   4.184   5.454   4.051
10179TIP3   OH230421   3.438   5.563   4.823
10179TIP3    H130422   3.467   5.629   4.888
10179TIP3    H230423   3.427   5.483   4.877
10180TIP3   OH230424   3.487   5.041   3.533
10180TIP3    H130425   3.484   5.038   3.630
10180TIP3    H230426   3.406   5.090   3.513
10181TIP3   OH230427   3.033   5.085   4.401
10181TIP3    H130428   3.105   5.119   4.458
10181TIP3    H230429   3.080   5.053   4.323
10182TIP3   OH230430   3.001   5.065   3.922
10182TIP3    H130431   3.051   5.103   3.846
10182TIP3    H230432   2.944   5.141   3.944
10183TIP3   OH230433   4.164   5.780   4.517
10183TIP3    H130434   4.197   5.708   4.459
10183TIP3    H230435   4.132   5.728   4.594
10184TIP3   OH230436   3.831   5.245   4.190
10184TIP3    H130437   3.749   5.242   4.244
10184TIP3    H230438   3.900   5.238   4.258
10185TIP3   OH230439   3.266   5.299   4.198
10185TIP3    H130440   3.171   5.306   4.171
10185TIP3    H230441   3.289   5.207   4.175
10186TIP3   OH230442   3.534   5.293   3.887
10186TIP3    H130443   3.628   5.308   3.868
10186TIP3    H230444   3.489   5.317   3.803
10187TIP3   OH230445   4.326   5.318   4.389
10187TIP3    H130446   4.293   5.330   4.482
10187TIP3    H230447   4.260   5.255   4.355
10188TIP3   OH230448   3.377   5.331   3.664
10188TIP3    H130449   3.302   5.287   3.620
10188TIP3    H230450   3.425   5.366   3.587
10189TIP3   OH230451   4.494   7.005   4.611
10189TIP3    H130452   4.491   7.031   4.518
10189TIP3    H230453   4.572   7.054   4.643
10190TIP3   OH230454   3.445   6.112   5.030
10190TIP3    H130455   3.528   6.150   5.066
10190TIP3    H230456   3.388   6.118   5.108
10191TIP3   OH230457   3.913   5.572   4.288
10191TIP3    H130458   3.985   5.529   4.239
10191TIP3    H230459   3.920   5.530   4.376
10192TIP3   OH230460   3.436   5.059   4.165
10192TIP3    H130461   3.402   4.979   4.212
10192TIP3    H230462   3.491   5.020   4.097
10193TIP3   OH230463   3.890   5.469   4.577
10193TIP3    H130464   3.801   5.507   4.590
10193TIP3    H230465   3.948   5.530   4.627
10194TIP3   OH230466   3.628   5.858   3.671
10194TIP3    H130467   3.555   5.794   3.661
10194TIP3    H230468   3.611   5.893   3.762
10195TIP3   OH230469   4.530   6.091   4.301
10195TIP3    H130470   4.551   6.144   4.221
10195TIP3    H230471   4.442   6.053   4.278
10196TIP3   OH230472   4.085   5.169   3.538
10196TIP3    H130473   3.988   5.153   3.543
10196TIP3    H230474   4.093   5.264   3.558
10197TIP3   OH230475   4.032   6.160   4.671
10197TIP3    H130476   4.055   6.139   4.762
10197TIP3    H230477   3.989   6.248   4.681
10198TIP3   OH230478   4.155   5.419   3.638
10198TIP3    H130479   4.251   5.425   3.652
10198TIP3    H230480   4.136   5.498   3.584
10199TIP3   OH230481   3.317   5.878   4.347
10199TIP3    H130482   3.358   5.851   4.263
10199TIP3    H230483   3.362   5.821   4.412
10200TIP3   OH230484   3.770   6.007   3.488
10200TIP3    H130485   3.724   6.094   3.495
10200TIP3    H230486   3.719   5.953   3.552
10201TIP3   OH230487   3.200   5.801   4.962
10201TIP3    H130488   3.222   5.790   5.056
10201TIP3    H230489   3.132   5.733   4.949
10202TIP3   OH230490   3.926   5.909   4.983
10202TIP3    H130491   3.868   5.854   4.929
10202TIP3    H230492   4.015   5.880   4.952
10203TIP3   OH230493   4.200   6.439   4.559
10203TIP3    H130494   4.105   6.438   4.584
10203TIP3    H230495   4.235   6.489   4.636
10204TIP3   OH230496   4.601   5.510   3.474
10204TIP3    H130497   4.538   5.464   3.413
10204TIP3    H230498   4.596   5.598   3.432
10205TIP3   OH230499   4.817   6.363   4.556
10205TIP3    H130500   4.718   6.361   4.547
10205TIP3    H230501   4.842   6.336   4.465
10206TIP3   OH230502   4.297   6.328   3.382
10206TIP3    H130503   4.271   6.258   3.444
10206TIP3    H230504   4.310   6.280   3.298
10207TIP3   OH230505   4.294   5.956   4.218
10207TIP3    H130506   4.201   5.934   4.235
10207TIP3    H230507   4.325   5.875   4.174
10208TIP3   OH230508   3.419   6.182   3.967
10208TIP3    H130509   3.419   6.266   3.917
10208TIP3    H230510   3.325   6.170   3.984
10209TIP3   OH230511   2.983   5.490   3.675
10209TIP3    H130512   3.029   5.573   3.696
10209TIP3    H230513   2.906   5.495   3.736
10210TIP3   OH230514   3.558   5.949   3.914
10210TIP3    H130515   3.523   6.039   3.933
10210TIP3    H230516   3.524   5.899   3.991
10211TIP3   OH230517   3.691   6.529   4.448
10211TIP3    H130518   3.742   6.596   4.400
10211TIP3    H230519   3.758   6.502   4.515
10212TIP3   OH230520   3.340   6.423   3.824
10212TIP3    H130521   3.254   6.432   3.870
10212TIP3    H230522   3.373   6.516   3.827
10213TIP3   OH230523   4.076   6.158   4.402
10213TIP3    H130524   4.062   6.159   4.500
10213TIP3    H230525   4.161   6.113   4.396
10214TIP3   OH230526   4.051   6.053   3.285
10214TIP3    H130527   4.108   6.027   3.361
10214TIP3    H230528   3.964   6.032   3.322
10215TIP3   OH230529   4.330   6.692   4.450
10215TIP3    H130530   4.253   6.631   4.450
10215TIP3    H230531   4.307   6.755   4.379
10216TIP3   OH230532   4.392   6.529   3.103
10216TIP3    H130533   4.430   6.602   3.051
10216TIP3    H230534   4.312   6.575   3.137
10217TIP3   OH230535   3.413   5.307   4.968
10217TIP3    H130536   3.317   5.310   4.986
10217TIP3    H230537   3.445   5.251   5.041
10218TIP3   OH230538   4.212   5.987   3.498
10218TIP3    H130539   4.203   5.922   3.570
10218TIP3    H230540   4.309   5.986   3.486
10219TIP3   OH230541   3.140   6.404   4.611
10219TIP3    H130542   3.180   6.316   4.609
10219TIP3    H230543   3.169   6.432   4.698
10220TIP3   OH230544   3.412   6.048   3.280
10220TIP3    H130545   3.462   5.971   3.253
10220TIP3    H230546   3.400   6.035   3.377
10221TIP3   OH230547   3.371   6.038   3.552
10221TIP3    H130548   3.435   6.014   3.620
10221TIP3    H230549   3.369   6.136   3.560
10222TIP3   OH230550   3.098   5.734   3.758
10222TIP3    H130551   3.032   5.778   3.817
10222TIP3    H230552   3.111   5.805   3.692
10223TIP3   OH230553   4.252   5.369   4.648
10223TIP3    H130554   4.328   5.408   4.693
10223TIP3    H230555   4.235   5.288   4.700
10224TIP3   OH230556   4.127   5.122   3.816
10224TIP3    H130557   4.115   5.144   3.722
10224TIP3    H230558   4.166   5.205   3.851
10225TIP3   OH230559   3.628   6.237   3.500
10225TIP3    H130560   3.543   6.263   3.539
10225TIP3    H230561   3.647   6.315   3.446
10226TIP3   OH230562   3.816   5.303   3.918
10226TIP3    H130563   3.882   5.373   3.901
10226TIP3    H230564   3.822   5.294   4.016
10227TIP3   OH230565   4.087   5.619   4.724
10227TIP3    H130566   4.108   5.676   4.801
10227TIP3    H230567   4.142   5.541   4.742
10228TIP3   OH230568   3.961   5.028   4.020
10228TIP3    H130569   3.959   5.103   4.082
10228TIP3    H230570   4.022   5.063   3.951
10229TIP3   OH230571   3.371   6.310   3.572
10229TIP3    H130572   3.343   6.380   3.509
10229TIP3    H230573   3.356   6.355   3.658
10230TIP3   OH230574   3.474   5.027   3.809
10230TIP3    H130575   3.473   5.116   3.847
10230TIP3    H230576   3.570   5.006   3.818
10231TIP3   OH230577   4.725   5.518   4.692
10231TIP3    H130578   4.629   5.523   4.712
10231TIP3    H230579   4.721   5.461   4.614
10232TIP3   OH230580   4.379   5.709   4.093
10232TIP3    H130581   4.297   5.657   4.105
10232TIP3    H230582   4.443   5.658   4.148
10233TIP3   OH230583   3.090   5.943   3.567
10233TIP3    H130584   3.148   6.021   3.575
10233TIP3    H230585   3.138   5.894   3.497
10234TIP3   OH230586   3.039   5.221   3.698
10234TIP3    H130587   3.036   5.319   3.694
10234TIP3    H230588   2.957   5.197   3.654
10235TIP3   OH230589   4.348   6.668   4.042
10235TIP3    H130590   4.305   6.715   3.967
10235TIP3    H230591   4.442   6.688   4.022
10236TIP3   OH230592   3.421   4.942   4.567
10236TIP3    H130593   3.390   4.908   4.481
10236TIP3    H230594   3.412   4.863   4.624
10237TIP3   OH230595   2.961   6.156   3.951
10237TIP3    H130596   2.891   6.187   4.009
10237TIP3    H230597   2.934   6.198   3.866
10238TIP3   OH230598   3.124   6.696   4.994
10238TIP3    H130599   3.202   6.700   5.054
10238TIP3    H230600   3.093   6.606   5.012
10239TIP3   OH230601   3.601   6.666   5.073
10239TIP3    H130602   3.695   6.639   5.073
10239TIP3    H230603   3.569   6.616   4.994
10240TIP3   OH230604   3.584   6.245   3.192
10240TIP3    H130605   3.525   6.178   3.233
10240TIP3    H230606   3.657   6.190   3.160
10241TIP3   OH230607   4.261   6.565   4.793
10241TIP3    H130608   4.239   6.500   4.863
10241TIP3    H230609   4.325   6.623   4.839
10242TIP3   OH230610   4.017   6.279   3.106
10242TIP3    H130611   4.065   6.218   3.165
10242TIP3    H230612   4.073   6.280   3.026
10243TIP3   OH230613   3.248   6.106   5.227
10243TIP3    H130614   3.266   6.010   5.228
10243TIP3    H230615   3.162   6.109   5.180
10244TIP3   OH230616   3.228   5.753   3.416
10244TIP3    H130617   3.280   5.723   3.493
10244TIP3    H230618   3.299   5.776   3.354
10245TIP3   OH230619   3.864   6.187   5.008
10245TIP3    H130620   3.805   6.206   4.931
10245TIP3    H230621   3.890   6.095   4.991
10246TIP3   OH230622   3.718   5.951   3.225
10246TIP3    H130623   3.736   5.967   3.320
10246TIP3    H230624   3.736   5.854   3.220
10247TIP3   OH230625   4.350   6.195   4.602
10247TIP3    H130626   4.422   6.247   4.561
10247TIP3    H230627   4.276   6.258   4.594
10248TIP3   OH230628   3.366   5.837   5.206
10248TIP3    H130629   3.444   5.786   5.182
10248TIP3    H230630   3.393   5.872   5.294
10249TIP3   OH230631   3.430   5.661   3.633
10249TIP3    H130632   3.406   5.625   3.719
10249TIP3    H230633   3.469   5.584   3.587
10250TIP3   OH230634   3.702   5.721   4.864
10250TIP3    H130635   3.626   5.783   4.868
10250TIP3    H230636   3.753   5.756   4.788
10251TIP3   OH230637   3.539   5.450   3.474
10251TIP3    H130638   3.530   5.405   3.389
10251TIP3    H230639   3.636   5.465   3.476
10252TIP3   OH230640   4.213   6.120   4.999
10252TIP3    H130641   4.299   6.110   4.958
10252TIP3    H230642   4.216   6.057   5.073
10253TIP3   OH230643   4.357   5.784   3.143
10253TIP3    H130644   4.337   5.738   3.059
10253TIP3    H230645   4.324   5.874   3.120
10254TIP3   OH230646   3.828   5.513   4.992
10254TIP3    H130647   3.826   5.434   4.935
10254TIP3    H230648   3.784   5.580   4.936
10255TIP3   OH230649   3.824   5.305   4.799
10255TIP3    H130650   3.852   5.346   4.714
10255TIP3    H230651   3.731   5.280   4.780
10256TIP3   OH230652   3.856   5.832   4.672
10256TIP3    H130653   3.941   5.850   4.630
10256TIP3    H230654   3.799   5.901   4.632
10257TIP3   OH230655   4.439   5.800   5.055
10257TIP3    H130656   4.493   5.720   5.065
10257TIP3    H230657   4.503   5.864   5.022
10258TIP3   OH230658   4.481   6.051   4.788
10258TIP3    H130659   4.421   6.105   4.731
10258TIP3    H230660   4.568   6.075   4.748
10259TIP3   OH230661   3.708   5.625   5.224
10259TIP3    H130662   3.637   5.558   5.239
10259TIP3    H230663   3.740   5.600   5.135
10260TIP3   OH230664   3.967   5.081   4.861
10260TIP3    H130665   3.910   5.157   4.837
10260TIP3    H230666   3.906   5.006   4.846
10261TIP3   OH230667   4.090   5.564   5.083
10261TIP3    H130668   4.077   5.557   5.179
10261TIP3    H230669   3.999   5.542   5.052
10262TIP3   OH230670   4.327   5.506   4.939
10262TIP3    H130671   4.250   5.517   4.999
10262TIP3    H230672   4.400   5.489   5.002
10263TIP3   OH230673   4.564   5.478   5.101
10263TIP3    H130674   4.593   5.390   5.129
10263TIP3    H230675   4.555   5.524   5.187
10264TIP3   OH230676   3.543   5.412   5.277
10264TIP3    H130677   3.552   5.324   5.236
10264TIP3    H230678   3.579   5.395   5.366
10265TIP3   OH230679   4.017   5.083   5.128
10265TIP3    H130680   4.039   4.989   5.126
10265TIP3    H230681   3.994   5.096   5.033
10266TIP3   OH230682   4.122   5.291   5.279
10266TIP3    H130683   4.089   5.224   5.216
10266TIP3    H230684   4.047   5.354   5.281
10267TIP3   OH230685   3.342   6.512   3.383
10267TIP3    H130686   3.438   6.511   3.364
10267TIP3    H230687   3.311   6.563   3.306
10268TIP3   OH230688   2.821   5.897   3.600
10268TIP3    H130689   2.916   5.919   3.588
10268TIP3    H230690   2.816   5.809   3.558
10269TIP3   OH230691   2.739   6.509   4.013
10269TIP3    H130692   2.670   6.449   3.976
10269TIP3    H230693   2.782   6.450   4.079
10270TIP3   OH230694   2.876   6.360   4.201
10270TIP3    H130695   2.860   6.285   4.261
10270TIP3    H230696   2.921   6.421   4.261
10271TIP3   OH230697   4.602   6.758   4.000
10271TIP3    H130698   4.624   6.791   4.089
10271TIP3    H230699   4.662   6.810   3.944
10272TIP3   OH230700   4.630   6.781   4.280
10272TIP3    H130701   4.585   6.693   4.280
10272TIP3    H230702   4.703   6.762   4.340
10273TIP3   OH230703   4.679   6.456   4.855
10273TIP3    H130704   4.604   6.466   4.918
10273TIP3    H230705   4.719   6.546   4.859
10274TIP3   OH230706   4.491   5.973   3.474
10274TIP3    H130707   4.558   6.037   3.445
10274TIP3    H230708   4.534   5.933   3.552
10275TIP3   OH230709   4.617   5.839   3.678
10275TIP3    H130710   4.548   5.795   3.733
10275TIP3    H230711   4.667   5.889   3.745
10276TIP3   OH230712   4.675   6.232   4.113
10276TIP3    H130713   4.724   6.173   4.053
10276TIP3    H230714   4.662   6.311   4.057
10277TIP3   OH230715   4.504   6.530   4.306
10277TIP3    H130716   4.436   6.575   4.359
10277TIP3    H230717   4.450   6.485   4.238
10278TIP3   OH230718   4.558   5.747   3.326
10278TIP3    H130719   4.487   5.747   3.258
10278TIP3    H230720   4.528   5.824   3.379
10279TIP3   OH230721   4.429   5.421   3.283
10279TIP3    H130722   4.389   5.457   3.202
10279TIP3    H230723   4.404   5.326   3.275
10280TIP3   OH230724   4.436   5.695   3.825
10280TIP3    H130725   4.438   5.598   3.816
10280TIP3    H230726   4.419   5.706   3.921
10281TIP3   OH230727   3.060   5.769   4.572
10281TIP3    H130728   3.059   5.738   4.479
10281TIP3    H230729   3.157   5.770   4.589
10282TIP3   OH230730   4.723   6.120   4.682
10282TIP3    H130731   4.796   6.056   4.672
10282TIP3    H230732   4.750   6.193   4.623
10283TIP3   OH230733   4.908   5.925   4.693
10283TIP3    H130734   4.833   5.877   4.735
10283TIP3    H230735   4.979   5.860   4.707
10284TIP3   OH230736   4.371   5.156   3.270
10284TIP3    H130737   4.445   5.120   3.323
10284TIP3    H230738   4.298   5.095   3.288
10285TIP3   OH230739   4.432   5.413   3.721
10285TIP3    H130740   4.470   5.323   3.737
10285TIP3    H230741   4.489   5.443   3.648
10286TIP3   OH230742   4.597   5.582   4.217
10286TIP3    H130743   4.663   5.637   4.173
10286TIP3    H230744   4.604   5.617   4.309
10287TIP3   OH230745   4.655   5.728   4.444
10287TIP3    H130746   4.579   5.760   4.498
10287TIP3    H230747   4.688   5.813   4.406
10288TIP3   OH230748   3.276   5.455   5.246
10288TIP3    H130749   3.373   5.451   5.251
10288TIP3    H230750   3.252   5.369   5.286
10289TIP3   OH230751   5.145   5.345   4.990
10289TIP3    H130752   5.137   5.249   4.978
10289TIP3    H230753   5.077   5.379   4.928
10290TIP3   OH230754   4.537   5.161   3.759
10290TIP3    H130755   4.585   5.143   3.843
10290TIP3    H230756   4.476   5.085   3.756
10291TIP3   OH230757   3.237   5.149   4.576
10291TIP3    H130758   3.299   5.074   4.587
10291TIP3    H230759   3.299   5.223   4.571
10292TIP3   OH230760   3.041   5.420   4.649
10292TIP3    H130761   3.091   5.418   4.566
10292TIP3    H230762   3.068   5.505   4.687
10293TIP3   OH230763   4.987   5.465   4.800
10293TIP3    H130764   4.910   5.494   4.851
10293TIP3    H230765   4.948   5.387   4.757
10294TIP3   OH230766   4.622   5.095   3.393
10294TIP3    H130767   4.658   5.023   3.337
10294TIP3    H230768   4.688   5.165   3.381
10295TIP3   OH230769   3.024   4.920   4.148
10295TIP3    H130770   2.933   4.922   4.181
10295TIP3    H230771   3.021   4.982   4.072
10296TIP3   OH230772   4.183   6.628   3.657
10296TIP3    H130773   4.237   6.616   3.575
10296TIP3    H230774   4.235   6.694   3.706
10297TIP3   OH230775   3.233   4.984   4.959
10297TIP3    H130776   3.189   4.991   5.046
10297TIP3    H230777   3.174   5.037   4.903
10298TIP3   OH230778   3.283   6.424   5.044
10298TIP3    H130779   3.189   6.402   5.032
10298TIP3    H230780   3.295   6.411   5.139
10299TIP3   OH230781   3.462   6.458   4.584
10299TIP3    H130782   3.420   6.538   4.548
10299TIP3    H230783   3.553   6.472   4.549
10300TIP3   OH230784   3.902   6.762   4.744
10300TIP3    H130785   3.904   6.665   4.758
10300TIP3    H230786   3.973   6.774   4.679
10301TIP3   OH230787   4.097   6.865   4.568
10301TIP3    H130788   4.171   6.805   4.550
10301TIP3    H230789   4.136   6.922   4.637
10302TIP3   OH230790   4.890   5.220   4.680
10302TIP3    H130791   4.797   5.239   4.657
10302TIP3    H230792   4.883   5.123   4.689
10303TIP3   OH230793   3.095   6.733   4.630
10303TIP3    H130794   3.085   6.677   4.553
10303TIP3    H230795   3.163   6.688   4.681
10304TIP3   OH230796   3.364   6.700   4.474
10304TIP3    H130797   3.296   6.757   4.511
10304TIP3    H230798   3.361   6.724   4.379
10305TIP3   OH230799   3.803   6.731   4.268
10305TIP3    H130800   3.732   6.753   4.205
10305TIP3    H230801   3.815   6.816   4.315
10306TIP3   OH230802   4.072   6.665   4.309
10306TIP3    H130803   3.976   6.683   4.299
10306TIP3    H230804   4.111   6.751   4.287
10307TIP3   OH230805   4.281   6.861   4.237
10307TIP3    H130806   4.265   6.945   4.189
10307TIP3    H230807   4.303   6.799   4.164
10308TIP3   OH230808   3.060   6.520   4.372
10308TIP3    H130809   3.086   6.477   4.457
10308TIP3    H230810   3.125   6.478   4.313
10309TIP3   OH230811   3.243   6.389   4.218
10309TIP3    H130812   3.259   6.303   4.264
10309TIP3    H230813   3.334   6.425   4.214
10310TIP3   OH230814   3.511   6.481   4.223
10310TIP3    H130815   3.541   6.389   4.211
10310TIP3    H230816   3.560   6.502   4.305
10311TIP3   OH230817   4.085   5.137   4.302
10311TIP3    H130818   4.042   5.070   4.358
10311TIP3    H230819   4.159   5.087   4.263
10312TIP3   OH230820   4.613   5.021   4.215
10312TIP3    H130821   4.645   5.071   4.136
10312TIP3    H230822   4.516   5.032   4.207
10313TIP3   OH230823   4.705   5.120   3.975
10313TIP3    H130824   4.777   5.067   3.935
10313TIP3    H230825   4.740   5.210   3.960
10314TIP3   OH230826   3.334   4.846   4.321
10314TIP3    H130827   3.243   4.812   4.324
10314TIP3    H230828   3.384   4.761   4.319
10315TIP3   OH230829   3.110   4.718   3.967
10315TIP3    H130830   3.150   4.774   3.898
10315TIP3    H230831   3.091   4.783   4.037
10316TIP3   OH230832   3.777   4.881   4.204
10316TIP3    H130833   3.836   4.927   4.143
10316TIP3    H230834   3.805   4.917   4.289
10317TIP3   OH230835   4.331   5.026   4.185
10317TIP3    H130836   4.325   4.985   4.098
10317TIP3    H230837   4.314   4.948   4.243
10318TIP3   OH230838   4.356   4.948   3.749
10318TIP3    H130839   4.268   4.989   3.760
10318TIP3    H230840   4.342   4.863   3.796
10319TIP3   OH230841   2.839   6.287   3.749
10319TIP3    H130842   2.753   6.255   3.716
10319TIP3    H230843   2.829   6.382   3.729
10320TIP3   OH230844   3.239   4.877   3.733
10320TIP3    H130845   3.287   4.812   3.677
10320TIP3    H230846   3.314   4.929   3.769
10321TIP3   OH230847   3.751   5.051   3.832
10321TIP3    H130848   3.811   5.003   3.892
10321TIP3    H230849   3.773   5.143   3.858
10322TIP3   OH230850   3.612   6.477   3.334
10322TIP3    H130851   3.700   6.500   3.297
10322TIP3    H230852   3.590   6.403   3.273
10323TIP3   OH230853   4.331   6.595   3.425
10323TIP3    H130854   4.322   6.497   3.413
10323TIP3    H230855   4.285   6.627   3.345
10324TIP3   OH230856   3.553   5.154   5.188
10324TIP3    H130857   3.497   5.103   5.246
10324TIP3    H230858   3.643   5.137   5.225
10325TIP3   OH230859   3.792   5.116   5.331
10325TIP3    H130860   3.870   5.113   5.272
10325TIP3    H230861   3.812   5.043   5.392
10326TIP3   OH230862   2.913   6.310   3.388
10326TIP3    H130863   2.912   6.342   3.480
10326TIP3    H230864   3.003   6.272   3.380
10327TIP3   OH230865   4.558   6.738   4.612
10327TIP3    H130866   4.478   6.705   4.566
10327TIP3    H230867   4.537   6.833   4.618
10328TIP3   OH230868   5.824   6.109   3.376
10328TIP3    H130869   5.796   6.201   3.360
10328TIP3    H230870   5.744   6.062   3.346
10329TIP3   OH230871   5.799   6.115   3.761
10329TIP3    H130872   5.841   6.095   3.848
10329TIP3    H230873   5.775   6.026   3.733
10330TIP3   OH230874   5.129   5.963   4.111
10330TIP3    H130875   5.148   5.935   4.203
10330TIP3    H230876   5.180   6.046   4.107
10331TIP3   OH230877   6.069   6.407   3.445
10331TIP3    H130878   6.058   6.340   3.514
10331TIP3    H230879   6.090   6.486   3.497
10332TIP3   OH230880   5.091   6.412   3.847
10332TIP3    H130881   5.084   6.315   3.854
10332TIP3    H230882   5.187   6.424   3.843
10333TIP3   OH230883   4.797   5.629   3.647
10333TIP3    H130884   4.735   5.705   3.646
10333TIP3    H230885   4.740   5.563   3.603
10334TIP3   OH230886   4.871   5.907   3.797
10334TIP3    H130887   4.879   5.816   3.768
10334TIP3    H230888   4.902   5.958   3.720
10335TIP3   OH230889   5.711   6.875   3.456
10335TIP3    H130890   5.759   6.802   3.411
10335TIP3    H230891   5.710   6.844   3.548
10336TIP3   OH230892   5.616   6.327   3.809
10336TIP3    H130893   5.662   6.251   3.768
10336TIP3    H230894   5.694   6.380   3.834
10337TIP3   OH230895   6.636   5.659   3.787
10337TIP3    H130896   6.667   5.735   3.841
10337TIP3    H230897   6.692   5.664   3.708
10338TIP3   OH230898   6.049   5.833   3.835
10338TIP3    H130899   6.089   5.746   3.854
10338TIP3    H230900   6.009   5.816   3.747
10339TIP3   OH230901   5.357   5.504   3.823
10339TIP3    H130902   5.344   5.572   3.755
10339TIP3    H230903   5.314   5.428   3.778
10340TIP3   OH230904   6.063   5.590   3.427
10340TIP3    H130905   6.135   5.572   3.493
10340TIP3    H230906   6.117   5.624   3.354
10341TIP3   OH230907   5.445   5.893   3.708
10341TIP3    H130908   5.541   5.872   3.716
10341TIP3    H230909   5.410   5.810   3.670
10342TIP3   OH230910   6.704   5.868   3.964
10342TIP3    H130911   6.614   5.906   3.957
10342TIP3    H230912   6.719   5.882   4.059
10343TIP3   OH230913   5.364   5.484   4.231
10343TIP3    H130914   5.340   5.561   4.179
10343TIP3    H230915   5.312   5.496   4.313
10344TIP3   OH230916   5.716   6.333   3.247
10344TIP3    H130917   5.671   6.313   3.163
10344TIP3    H230918   5.671   6.417   3.272
10345TIP3   OH230919   5.468   6.251   4.036
10345TIP3    H130920   5.410   6.319   4.074
10345TIP3    H230921   5.513   6.301   3.964
10346TIP3   OH230922   6.273   5.588   3.600
10346TIP3    H130923   6.260   5.536   3.680
10346TIP3    H230924   6.327   5.662   3.631
10347TIP3   OH230925   5.299   6.448   4.129
10347TIP3    H130926   5.278   6.537   4.093
10347TIP3    H230927   5.221   6.437   4.188
10348TIP3   OH230928   4.696   6.140   3.370
10348TIP3    H130929   4.655   6.165   3.285
10348TIP3    H230930   4.726   6.226   3.405
10349TIP3   OH230931   6.134   6.652   3.606
10349TIP3    H130932   6.048   6.642   3.651
10349TIP3    H230933   6.123   6.741   3.565
10350TIP3   OH230934   6.427   5.605   3.978
10350TIP3    H130935   6.338   5.583   3.947
10350TIP3    H230936   6.480   5.601   3.897
10351TIP3   OH230937   5.719   5.205   3.946
10351TIP3    H130938   5.716   5.109   3.963
10351TIP3    H230939   5.638   5.235   3.993
10352TIP3   OH230940   5.838   6.700   3.283
10352TIP3    H130941   5.889   6.619   3.262
10352TIP3    H230942   5.898   6.767   3.242
10353TIP3   OH230943   5.983   6.485   3.192
10353TIP3    H130944   5.937   6.408   3.155
10353TIP3    H230945   6.018   6.448   3.277
10354TIP3   OH230946   6.383   6.570   3.948
10354TIP3    H130947   6.329   6.492   3.924
10354TIP3    H230948   6.339   6.641   3.899
10355TIP3   OH230949   5.651   5.961   3.209
10355TIP3    H130950   5.572   6.013   3.187
10355TIP3    H230951   5.698   5.959   3.123
10356TIP3   OH230952   5.611   5.746   2.926
10356TIP3    H130953   5.679   5.797   2.974
10356TIP3    H230954   5.669   5.683   2.879
10357TIP3   OH230955   6.548   6.202   3.790
10357TIP3    H130956   6.460   6.243   3.808
10357TIP3    H230957   6.580   6.264   3.724
10358TIP3   OH230958   6.002   6.045   3.181
10358TIP3    H130959   5.945   6.069   3.257
10358TIP3    H230960   6.084   6.019   3.227
10359TIP3   OH230961   6.229   6.081   4.091
10359TIP3    H130962   6.227   6.163   4.143
10359TIP3    H230963   6.156   6.109   4.032
10360TIP3   OH230964   5.231   6.041   3.602
10360TIP3    H130965   5.190   5.985   3.532
10360TIP3    H230966   5.310   5.989   3.626
10361TIP3   OH230967   5.360   6.448   3.748
10361TIP3    H130968   5.344   6.413   3.659
10361TIP3    H230969   5.450   6.417   3.767
10362TIP3   OH230970   5.365   6.012   3.944
10362TIP3    H130971   5.408   5.993   3.858
10362TIP3    H230972   5.411   6.096   3.971
10363TIP3   OH230973   5.902   6.643   3.747
10363TIP3    H130974   5.888   6.735   3.777
10363TIP3    H230975   5.913   6.596   3.831
10364TIP3   OH230976   5.507   6.564   4.282
10364TIP3    H130977   5.450   6.631   4.325
10364TIP3    H230978   5.440   6.515   4.229
10365TIP3   OH230979   5.841   5.902   3.008
10365TIP3    H130980   5.900   5.963   3.058
10365TIP3    H230981   5.867   5.925   2.915
10366TIP3   OH230982   5.254   6.122   4.372
10366TIP3    H130983   5.266   6.210   4.413
10366TIP3    H230984   5.160   6.106   4.396
10367TIP3   OH230985   5.584   6.582   3.283
10367TIP3    H130986   5.663   6.635   3.300
10367TIP3    H230987   5.523   6.646   3.244
10368TIP3   OH230988   5.301   6.736   4.362
10368TIP3    H130989   5.265   6.739   4.272
10368TIP3    H230990   5.222   6.716   4.416
10369TIP3   OH230991   6.357   5.143   3.056
10369TIP3    H130992   6.275   5.163   3.106
10369TIP3    H230993   6.369   5.227   3.006
10370TIP3   OH230994   5.094   5.886   3.410
10370TIP3    H130995   5.032   5.932   3.349
10370TIP3    H230996   5.060   5.796   3.406
10371TIP3   OH230997   6.155   6.511   2.604
10371TIP3    H130998   6.164   6.607   2.590
10371TIP3    H230999   6.248   6.482   2.592
10372TIP3   OH231000   4.880   6.267   4.310
10372TIP3    H131001   4.809   6.248   4.245
10372TIP3    H231002   4.911   6.179   4.336
10373TIP3   OH231003   4.735   6.462   3.944
10373TIP3    H131004   4.832   6.464   3.937
10373TIP3    H231005   4.718   6.541   3.997
10374TIP3   OH231006   6.600   6.914   3.999
10374TIP3    H131007   6.597   6.818   4.015
10374TIP3    H231008   6.517   6.941   4.045
10375TIP3   OH231009   5.677   6.713   4.109
10375TIP3    H131010   5.692   6.799   4.154
10375TIP3    H231011   5.640   6.659   4.181
10376TIP3   OH231012   5.465   6.828   3.085
10376TIP3    H131013   5.419   6.810   3.001
10376TIP3    H231014   5.433   6.917   3.109
10377TIP3   OH231015   4.903   6.678   3.469
10377TIP3    H131016   4.952   6.669   3.554
10377TIP3    H231017   4.843   6.602   3.476
10378TIP3   OH231018   5.666   6.729   2.725
10378TIP3    H131019   5.725   6.660   2.689
10378TIP3    H231020   5.701   6.739   2.816
10379TIP3   OH231021   5.717   6.777   2.995
10379TIP3    H131022   5.628   6.787   3.037
10379TIP3    H231023   5.768   6.739   3.068
10380TIP3   OH231024   6.490   6.041   4.276
10380TIP3    H131025   6.409   6.063   4.228
10380TIP3    H231026   6.502   5.947   4.253
10381TIP3   OH231027   5.085   6.450   4.297
10381TIP3    H131028   5.133   6.439   4.381
10381TIP3    H231029   5.010   6.389   4.308
10382TIP3   OH231030   5.479   5.274   4.070
10382TIP3    H131031   5.388   5.245   4.045
10382TIP3    H231032   5.457   5.358   4.114
10383TIP3   OH231033   6.012   5.392   4.286
10383TIP3    H131034   6.059   5.322   4.332
10383TIP3    H231035   5.919   5.372   4.312
10384TIP3   OH231036   6.262   5.827   4.200
10384TIP3    H131037   6.206   5.822   4.280
10384TIP3    H231038   6.234   5.911   4.159
10385TIP3   OH231039   5.918   5.949   2.752
10385TIP3    H131040   5.883   5.924   2.664
10385TIP3    H231041   5.998   5.998   2.727
10386TIP3   OH231042   5.630   5.324   3.054
10386TIP3    H131043   5.596   5.321   3.146
10386TIP3    H231044   5.591   5.242   3.019
10387TIP3   OH231045   5.368   5.778   4.085
10387TIP3    H131046   5.360   5.806   4.178
10387TIP3    H231047   5.390   5.862   4.040
10388TIP3   OH231048   5.300   5.677   3.617
10388TIP3    H131049   5.208   5.648   3.633
10388TIP3    H231050   5.316   5.637   3.529
10389TIP3   OH231051   5.790   5.763   3.343
10389TIP3    H131052   5.738   5.834   3.300
10389TIP3    H231053   5.845   5.731   3.268
10390TIP3   OH231054   5.968   6.037   4.427
10390TIP3    H131055   5.952   5.965   4.491
10390TIP3    H231056   6.061   6.059   4.446
10391TIP3   OH231057   5.943   5.789   3.583
10391TIP3    H131058   5.884   5.820   3.511
10391TIP3    H231059   5.978   5.709   3.538
10392TIP3   OH231060   5.227   5.813   4.321
10392TIP3    H131061   5.260   5.883   4.380
10392TIP3    H231062   5.220   5.736   4.381
10393TIP3   OH231063   5.286   5.298   3.020
10393TIP3    H131064   5.276   5.295   3.117
10393TIP3    H231065   5.206   5.349   2.995
10394TIP3   OH231066   4.836   5.343   3.897
10394TIP3    H131067   4.920   5.382   3.924
10394TIP3    H231068   4.853   5.308   3.807
10395TIP3   OH231069   4.802   5.322   3.412
10395TIP3    H131070   4.846   5.359   3.333
10395TIP3    H231071   4.739   5.395   3.430
10396TIP3   OH231072   5.905   6.010   3.985
10396TIP3    H131073   5.967   5.948   3.940
10396TIP3    H231074   5.926   5.994   4.078
10397TIP3   OH231075   5.624   5.503   3.679
10397TIP3    H131076   5.546   5.498   3.737
10397TIP3    H231077   5.697   5.496   3.742
10398TIP3   OH231078   5.063   5.567   3.704
10398TIP3    H131079   4.968   5.572   3.681
10398TIP3    H231080   5.087   5.475   3.681
10399TIP3   OH231081   5.331   5.554   3.374
10399TIP3    H131082   5.425   5.566   3.352
10399TIP3    H231083   5.285   5.575   3.289
10400TIP3   OH231084   6.121   5.568   3.878
10400TIP3    H131085   6.086   5.583   3.969
10400TIP3    H231086   6.055   5.506   3.843
10401TIP3   OH231087   5.172   5.587   3.153
10401TIP3    H131088   5.101   5.540   3.104
10401TIP3    H231089   5.224   5.622   3.077
10402TIP3   OH231090   6.290   7.263   4.099
10402TIP3    H131091   6.288   7.289   4.005
10402TIP3    H231092   6.368   7.313   4.131
10403TIP3   OH231093   5.247   6.368   4.518
10403TIP3    H131094   5.327   6.402   4.564
10403TIP3    H231095   5.182   6.373   4.591
10404TIP3   OH231096   5.709   5.825   3.769
10404TIP3    H131097   5.782   5.789   3.717
10404TIP3    H231098   5.729   5.791   3.858
10405TIP3   OH231099   5.234   5.320   3.656
10405TIP3    H131100   5.200   5.239   3.699
10405TIP3    H231101   5.285   5.284   3.582
10406TIP3   OH231102   5.684   5.718   4.077
10406TIP3    H131103   5.604   5.771   4.072
10406TIP3    H231104   5.749   5.779   4.119
10407TIP3   OH231105   5.423   6.115   3.158
10407TIP3    H131106   5.351   6.050   3.147
10407TIP3    H231107   5.404   6.148   3.249
10408TIP3   OH231108   6.322   6.342   3.791
10408TIP3    H131109   6.332   6.390   3.708
10408TIP3    H231110   6.230   6.308   3.782
10409TIP3   OH231111   5.882   5.427   3.021
10409TIP3    H131112   5.785   5.409   3.030
10409TIP3    H231113   5.890   5.521   3.045
10410TIP3   OH231114   5.951   5.675   3.125
10410TIP3    H131115   6.047   5.681   3.139
10410TIP3    H231116   5.932   5.755   3.072
10411TIP3   OH231117   5.119   6.123   3.841
10411TIP3    H131118   5.146   6.107   3.748
10411TIP3    H231119   5.194   6.085   3.888
10412TIP3   OH231120   5.569   6.264   2.980
10412TIP3    H131121   5.521   6.350   2.985
10412TIP3    H231122   5.514   6.209   3.040
10413TIP3   OH231123   4.997   6.052   4.447
10413TIP3    H131124   5.016   6.044   4.542
10413TIP3    H231125   4.924   5.988   4.437
10414TIP3   OH231126   5.726   6.164   4.471
10414TIP3    H131127   5.671   6.122   4.402
10414TIP3    H231128   5.815   6.139   4.440
10415TIP3   OH231129   5.974   6.743   4.027
10415TIP3    H131130   5.899   6.685   4.050
10415TIP3    H231131   6.008   6.763   4.116
10416TIP3   OH231132   6.396   5.766   2.961
10416TIP3    H131133   6.333   5.721   2.899
10416TIP3    H231134   6.392   5.855   2.919
10417TIP3   OH231135   6.623   6.625   4.044
10417TIP3    H131136   6.525   6.619   4.034
10417TIP3    H231137   6.648   6.596   3.953
10418TIP3   OH231138   6.095   6.583   2.869
10418TIP3    H131139   6.066   6.514   2.930
10418TIP3    H231140   6.106   6.537   2.784
10419TIP3   OH231141   6.096   6.221   3.683
10419TIP3    H131142   6.014   6.208   3.733
10419TIP3    H231143   6.114   6.132   3.649
10420TIP3   OH231144   5.217   6.439   3.458
10420TIP3    H131145   5.219   6.522   3.405
10420TIP3    H231146   5.122   6.427   3.470
10421TIP3   OH231147   4.782   5.745   3.164
10421TIP3    H131148   4.826   5.830   3.183
10421TIP3    H231149   4.703   5.750   3.223
10422TIP3   OH231150   5.354   6.205   3.404
10422TIP3    H131151   5.320   6.295   3.420
10422TIP3    H231152   5.318   6.157   3.481
10423TIP3   OH231153   5.483   6.782   3.925
10423TIP3    H131154   5.530   6.855   3.879
10423TIP3    H231155   5.555   6.750   3.984
10424TIP3   OH231156   5.136   6.680   3.312
10424TIP3    H131157   5.051   6.688   3.358
10424TIP3    H231158   5.168   6.773   3.315
10425TIP3   OH231159   5.848   6.311   2.770
10425TIP3    H131160   5.901   6.286   2.849
10425TIP3    H231161   5.759   6.285   2.798
10426TIP3   OH231162   6.128   6.952   3.940
10426TIP3    H131163   6.057   6.885   3.951
10426TIP3    H231164   6.096   7.007   3.866
10427TIP3   OH231165   6.189   6.786   2.590
10427TIP3    H131166   6.226   6.858   2.538
10427TIP3    H231167   6.108   6.832   2.623
10428TIP3   OH231168   5.205   5.562   4.453
10428TIP3    H131169   5.110   5.574   4.473
10428TIP3    H231170   5.234   5.508   4.529
10429TIP3   OH231171   6.007   6.244   2.985
10429TIP3    H131172   5.998   6.179   3.058
10429TIP3    H231173   6.104   6.243   2.972
10430TIP3   OH231174   4.926   6.646   4.087
10430TIP3    H131175   4.981   6.576   4.125
10430TIP3    H231176   4.947   6.720   4.144
10431TIP3   OH231177   5.215   6.292   2.770
10431TIP3    H131178   5.228   6.200   2.741
10431TIP3    H231179   5.195   6.280   2.865
10432TIP3   OH231180   5.160   6.297   3.043
10432TIP3    H131181   5.233   6.271   3.101
10432TIP3    H231182   5.164   6.395   3.049
10433TIP3   OH231183   4.896   5.992   3.246
10433TIP3    H131184   4.830   6.037   3.301
10433TIP3    H231185   4.910   6.060   3.177
10434TIP3   OH231186   6.045   5.628   4.138
10434TIP3    H131187   6.129   5.662   4.173
10434TIP3    H231188   6.030   5.548   4.193
10435TIP3   OH231189   5.924   5.378   3.303
10435TIP3    H131190   5.911   5.401   3.208
10435TIP3    H231191   5.963   5.461   3.338
10436TIP3   OH231192   5.426   6.494   2.991
10436TIP3    H131193   5.339   6.521   3.027
10436TIP3    H231194   5.443   6.566   2.929
10437TIP3   OH231195   5.613   5.559   3.405
10437TIP3    H131196   5.678   5.630   3.388
10437TIP3    H231197   5.619   5.551   3.503
10438TIP3   OH231198   5.872   5.864   4.228
10438TIP3    H131199   5.904   5.927   4.295
10438TIP3    H231200   5.940   5.795   4.229
10439TIP3   OH231201   5.758   5.284   3.506
10439TIP3    H131202   5.759   5.358   3.569
10439TIP3    H231203   5.818   5.319   3.436
10440TIP3   OH231204   5.169   6.570   3.058
10440TIP3    H131205   5.139   6.639   2.996
10440TIP3    H231206   5.153   6.613   3.145
10441TIP3   OH231207   5.270   5.284   3.296
10441TIP3    H131208   5.268   5.374   3.333
10441TIP3    H231209   5.365   5.264   3.304
10442TIP3   OH231210   6.525   5.768   4.183
10442TIP3    H131211   6.429   5.782   4.197
10442TIP3    H231212   6.516   5.710   4.104
10443TIP3   OH231213   6.172   5.964   3.575
10443TIP3    H131214   6.094   5.908   3.593
10443TIP3    H231215   6.242   5.921   3.629
10444TIP3   OH231216   4.887   6.199   3.051
10444TIP3    H131217   4.953   6.271   3.060
10444TIP3    H231218   4.933   6.145   2.984
10445TIP3   OH231219   4.830   5.475   3.187
10445TIP3    H131220   4.829   5.572   3.181
10445TIP3    H231221   4.753   5.450   3.135
10446TIP3   OH231222   6.144   6.924   3.528
10446TIP3    H131223   6.101   6.972   3.454
10446TIP3    H231224   6.238   6.944   3.509
10447TIP3   OH231225   5.210   5.198   4.057
10447TIP3    H131226   5.186   5.162   3.969
10447TIP3    H231227   5.206   5.118   4.113
10448TIP3   OH231228   4.757   6.409   3.438
10448TIP3    H131229   4.688   6.444   3.496
10448TIP3    H231230   4.732   6.452   3.353
10449TIP3   OH231231   4.916   6.957   4.509
10449TIP3    H131232   5.001   6.959   4.558
10449TIP3    H231233   4.895   6.862   4.511
10450TIP3   OH231234   5.394   6.919   4.556
10450TIP3    H131235   5.490   6.908   4.562
10450TIP3    H231236   5.373   6.860   4.481
10451TIP3   OH231237   5.378   6.496   2.682
10451TIP3    H131238   5.322   6.424   2.720
10451TIP3    H231239   5.453   6.444   2.649
10452TIP3   OH231240   6.037   6.825   4.286
10452TIP3    H131241   6.027   6.755   4.355
10452TIP3    H231242   6.113   6.876   4.320
10453TIP3   OH231243   5.814   6.537   2.594
10453TIP3    H131244   5.859   6.473   2.652
10453TIP3    H231245   5.870   6.536   2.514
10454TIP3   OH231246   5.047   6.362   4.710
10454TIP3    H131247   5.060   6.266   4.716
10454TIP3    H231248   4.958   6.367   4.668
10455TIP3   OH231249   5.022   6.013   2.904
10455TIP3    H131250   5.078   5.980   2.976
10455TIP3    H231251   5.089   6.018   2.831
10456TIP3   OH231252   5.652   6.447   4.488
10456TIP3    H131253   5.619   6.472   4.399
10456TIP3    H231254   5.694   6.361   4.472
10457TIP3   OH231255   5.533   6.212   2.711
10457TIP3    H131256   5.535   6.224   2.808
10457TIP3    H231257   5.533   6.114   2.705
10458TIP3   OH231258   5.164   6.095   4.692
10458TIP3    H131259   5.240   6.038   4.675
10458TIP3    H231260   5.187   6.131   4.780
10459TIP3   OH231261   5.232   5.916   3.126
10459TIP3    H131262   5.206   5.870   3.207
10459TIP3    H231263   5.268   5.842   3.072
10460TIP3   OH231264   5.490   5.965   4.340
10460TIP3    H131265   5.422   6.035   4.350
10460TIP3    H231266   5.550   6.007   4.274
10461TIP3   OH231267   5.331   5.711   2.966
10461TIP3    H131268   5.305   5.714   2.872
10461TIP3    H231269   5.429   5.714   2.959
10462TIP3   OH231270   6.018   6.387   4.503
10462TIP3    H131271   6.068   6.361   4.424
10462TIP3    H231272   6.026   6.311   4.562
10463TIP3   OH231273   6.154   6.041   2.629
10463TIP3    H131274   6.132   5.995   2.546
10463TIP3    H231275   6.122   6.131   2.606
10464TIP3   OH231276   5.628   5.768   4.479
10464TIP3    H131277   5.629   5.690   4.420
10464TIP3    H231278   5.585   5.835   4.421
10465TIP3   OH231279   5.621   5.560   4.295
10465TIP3    H131280   5.655   5.599   4.211
10465TIP3    H231281   5.533   5.527   4.268
10466TIP3   OH231282   5.653   6.088   4.163
10466TIP3    H131283   5.737   6.089   4.115
10466TIP3    H231284   5.601   6.156   4.116
10467TIP3   OH231285   6.237   6.061   4.542
10467TIP3    H131286   6.295   5.984   4.538
10467TIP3    H231287   6.294   6.131   4.507
10468TIP3   OH231288   6.272   6.318   4.283
10468TIP3    H131289   6.198   6.342   4.221
10468TIP3    H231290   6.349   6.348   4.230
10469TIP3   OH231291   5.515   5.875   4.712
10469TIP3    H131292   5.437   5.817   4.727
10469TIP3    H231293   5.536   5.857   4.619
10470TIP3   OH231294   5.760   5.329   4.359
10470TIP3    H131295   5.706   5.408   4.338
10470TIP3    H231296   5.694   5.258   4.351
10471TIP3   OH231297   5.892   5.812   4.570
10471TIP3    H131298   5.881   5.830   4.664
10471TIP3    H231299   5.799   5.800   4.539
10472TIP3   OH231300   6.126   5.770   4.425
10472TIP3    H131301   6.047   5.774   4.483
10472TIP3    H231302   6.195   5.735   4.484
10473TIP3   OH231303   6.335   5.688   4.595
10473TIP3    H131304   6.389   5.616   4.629
10473TIP3    H231305   6.341   5.755   4.667
10474TIP3   OH231306   5.337   5.676   4.763
10474TIP3    H131307   5.331   5.584   4.729
10474TIP3    H231308   5.375   5.660   4.852
10475TIP3   OH231309   5.139   6.773   2.871
10475TIP3    H131310   5.234   6.767   2.852
10475TIP3    H231311   5.109   6.821   2.792
10476TIP3   OH231312   4.619   6.153   3.089
10476TIP3    H131313   4.713   6.175   3.073
10476TIP3    H231314   4.613   6.065   3.046
10477TIP3   OH231315   4.534   6.767   3.500
10477TIP3    H131316   4.467   6.706   3.464
10477TIP3    H231317   4.578   6.709   3.567
10478TIP3   OH231318   4.671   6.617   3.686
10478TIP3    H131319   4.656   6.546   3.750
10478TIP3    H231320   4.721   6.680   3.742
10479TIP3   OH231321   6.398   7.013   3.487
10479TIP3    H131322   6.420   7.046   3.576
10479TIP3    H231323   6.456   7.067   3.431
10480TIP3   OH231324   6.425   7.037   3.767
10480TIP3    H131325   6.380   6.950   3.767
10480TIP3    H231326   6.499   7.018   3.827
10481TIP3   OH231327   6.476   6.713   4.344
10481TIP3    H131328   6.400   6.722   4.405
10481TIP3    H231329   6.514   6.803   4.347
10482TIP3   OH231330   6.285   6.230   2.958
10482TIP3    H131331   6.352   6.295   2.928
10482TIP3    H231332   6.331   6.189   3.034
10483TIP3   OH231333   6.412   6.096   3.165
10483TIP3    H131334   6.341   6.044   3.210
10483TIP3    H231335   6.430   6.164   3.231
10484TIP3   OH231336   6.491   6.472   3.583
10484TIP3    H131337   6.535   6.494   3.500
10484TIP3    H231338   6.427   6.544   3.585
10485TIP3   OH231339   6.297   6.788   3.793
10485TIP3    H131340   6.230   6.834   3.849
10485TIP3    H231341   6.240   6.743   3.727
10486TIP3   OH231342   6.353   6.003   2.813
10486TIP3    H131343   6.283   6.003   2.744
10486TIP3    H231344   6.324   6.081   2.864
10487TIP3   OH231345   6.226   5.676   2.768
10487TIP3    H131346   6.182   5.714   2.691
10487TIP3    H231347   6.201   5.582   2.759
10488TIP3   OH231348   6.233   5.950   3.309
10488TIP3    H131349   6.237   5.853   3.301
10488TIP3    H231350   6.215   5.961   3.405
10489TIP3   OH231351   4.860   6.021   4.053
10489TIP3    H131352   4.858   5.998   3.958
10489TIP3    H231353   4.956   6.024   4.068
10490TIP3   OH231354   6.517   6.377   4.169
10490TIP3    H131355   6.591   6.314   4.158
10490TIP3    H231356   6.538   6.446   4.104
10491TIP3   OH231357   6.703   6.180   4.181
10491TIP3    H131358   6.629   6.133   4.224
10491TIP3    H231359   6.775   6.115   4.197
10492TIP3   OH231360   6.168   5.411   2.753
10492TIP3    H131361   6.242   5.378   2.808
10492TIP3    H231362   6.095   5.351   2.776
10493TIP3   OH231363   6.228   5.670   3.208
10493TIP3    H131364   6.266   5.581   3.224
10493TIP3    H231365   6.286   5.700   3.135
10494TIP3   OH231366   6.387   5.844   3.704
10494TIP3    H131367   6.480   5.844   3.682
10494TIP3    H231368   6.391   5.878   3.796
10495TIP3   OH231369   6.450   5.984   3.937
10495TIP3    H131370   6.371   6.015   3.986
10495TIP3    H231371   6.480   6.067   3.894
10496TIP3   OH231372   5.072   5.713   4.727
10496TIP3    H131373   5.169   5.710   4.738
10496TIP3    H231374   5.045   5.627   4.765
10497TIP3   OH231375   6.939   5.593   4.494
10497TIP3    H131376   6.931   5.498   4.478
10497TIP3    H231377   6.886   5.631   4.421
10498TIP3   OH231378   6.333   5.419   3.245
10498TIP3    H131379   6.382   5.402   3.329
10498TIP3    H231380   6.273   5.342   3.244
10499TIP3   OH231381   5.061   5.430   4.064
10499TIP3    H131382   5.069   5.333   4.058
10499TIP3    H231383   5.149   5.447   4.098
10500TIP3   OH231384   6.779   5.716   4.306
10500TIP3    H131385   6.690   5.754   4.324
10500TIP3    H231386   6.759   5.662   4.228
10501TIP3   OH231387   6.416   5.352   2.878
10501TIP3    H131388   6.455   5.280   2.825
10501TIP3    H231389   6.484   5.423   2.871
10502TIP3   OH231390   4.818   5.200   3.652
10502TIP3    H131391   4.724   5.179   3.664
10502TIP3    H231392   4.818   5.246   3.565
10503TIP3   OH231393   5.979   6.884   3.144
10503TIP3    H131394   6.032   6.873   3.062
10503TIP3    H231395   6.031   6.951   3.192
10504TIP3   OH231396   5.038   5.249   4.451
10504TIP3    H131397   4.991   5.249   4.537
10504TIP3    H231398   4.972   5.294   4.395
10505TIP3   OH231399   5.082   6.682   4.528
10505TIP3    H131400   4.987   6.661   4.515
10505TIP3    H231401   5.090   6.675   4.624
10506TIP3   OH231402   5.260   6.719   4.075
10506TIP3    H131403   5.213   6.796   4.037
10506TIP3    H231404   5.346   6.733   4.032
10507TIP3   OH231405   5.703   6.971   4.217
10507TIP3    H131406   5.747   6.969   4.305
10507TIP3    H231407   5.771   7.018   4.164
10508TIP3   OH231408   5.884   7.117   4.070
10508TIP3    H131409   5.956   7.060   4.038
10508TIP3    H231410   5.934   7.175   4.132
10509TIP3   OH231411   4.934   6.976   4.102
10509TIP3    H131412   4.845   7.011   4.080
10509TIP3    H231413   4.949   7.018   4.187
10510TIP3   OH231414   5.171   6.955   3.959
10510TIP3    H131415   5.085   6.968   4.004
10510TIP3    H231416   5.152   6.989   3.869
10511TIP3   OH231417   5.597   6.987   3.755
10511TIP3    H131418   5.526   7.010   3.692
10511TIP3    H231419   5.610   7.073   3.801
10512TIP3   OH231420   5.866   6.920   3.783
10512TIP3    H131421   5.771   6.941   3.780
10512TIP3    H231422   5.907   7.005   3.765
10513TIP3   OH231423   6.072   7.117   3.723
10513TIP3    H131424   6.060   7.201   3.675
10513TIP3    H231425   6.098   7.056   3.651
10514TIP3   OH231426   4.848   6.772   3.844
10514TIP3    H131427   4.873   6.747   3.936
10514TIP3    H231428   4.921   6.728   3.795
10515TIP3   OH231429   5.042   6.643   3.702
10515TIP3    H131430   5.058   6.559   3.752
10515TIP3    H231431   5.132   6.681   3.700
10516TIP3   OH231432   5.307   6.738   3.708
10516TIP3    H131433   5.340   6.648   3.696
10516TIP3    H231434   5.353   6.762   3.790
10517TIP3   OH231435   5.879   5.393   3.786
10517TIP3    H131436   5.838   5.324   3.842
10517TIP3    H231437   5.955   5.345   3.748
10518TIP3   OH231438   6.410   5.273   3.701
10518TIP3    H131439   6.442   5.324   3.624
10518TIP3    H231440   6.313   5.288   3.696
10519TIP3   OH231441   6.501   5.377   3.461
10519TIP3    H131442   6.574   5.324   3.421
10519TIP3    H231443   6.535   5.468   3.447
10520TIP3   OH231444   5.131   5.103   3.811
10520TIP3    H131445   5.039   5.069   3.811
10520TIP3    H231446   5.180   5.018   3.806
10521TIP3   OH231447   4.922   4.972   3.457
10521TIP3    H131448   4.950   5.028   3.382
10521TIP3    H231449   4.891   5.038   3.521
10522TIP3   OH231450   5.574   5.137   3.692
10522TIP3    H131451   5.631   5.184   3.629
10522TIP3    H231452   5.606   5.172   3.776
10523TIP3   OH231453   6.124   5.283   3.673
10523TIP3    H131454   6.123   5.242   3.586
10523TIP3    H231455   6.108   5.205   3.730
10524TIP3   OH231456   6.152   5.204   3.236
10524TIP3    H131457   6.064   5.246   3.248
10524TIP3    H231458   6.138   5.119   3.283
10525TIP3   OH231459   4.636   6.544   3.237
10525TIP3    H131460   4.550   6.511   3.204
10525TIP3    H231461   4.625   6.638   3.219
10526TIP3   OH231462   5.035   5.131   3.222
10526TIP3    H131463   5.082   5.068   3.164
10526TIP3    H231464   5.109   5.185   3.257
10527TIP3   OH231465   5.547   5.308   3.319
10527TIP3    H131466   5.606   5.260   3.379
10527TIP3    H231467   5.570   5.400   3.345
10528TIP3   OH231468   5.407   6.732   2.819
10528TIP3    H131469   5.495   6.755   2.783
10528TIP3    H231470   5.385   6.657   2.759
10529TIP3   OH231471   6.126   6.851   2.912
10529TIP3    H131472   6.118   6.753   2.900
10529TIP3    H231473   6.081   6.883   2.832
10530TIP3   OH231474   5.321   5.420   4.677
10530TIP3    H131475   5.286   5.366   4.748
10530TIP3    H231476   5.403   5.375   4.653
10531TIP3   OH231477   4.711   6.570   2.875
10531TIP3    H131478   4.712   6.594   2.969
10531TIP3    H231479   4.800   6.528   2.864
10532TIP3   OH231480   6.355   6.996   4.098
10532TIP3    H131481   6.275   6.965   4.051
10532TIP3    H231482   6.334   7.091   4.104
10533TIP3   OH231483   7.619   6.367   2.865
10533TIP3    H131484   7.591   6.459   2.845
10533TIP3    H231485   7.542   6.318   2.833
10534TIP3   OH231486   7.617   6.366   3.247
10534TIP3    H131487   7.650   6.339   3.335
10534TIP3    H231488   7.576   6.284   3.215
10535TIP3   OH231489   6.902   6.235   3.617
10535TIP3    H131490   6.944   6.189   3.693
10535TIP3    H231491   6.959   6.312   3.609
10536TIP3   OH231492   7.863   6.669   2.928
10536TIP3    H131493   7.846   6.602   2.995
10536TIP3    H231494   7.889   6.746   2.982
10537TIP3   OH231495   6.888   6.667   3.333
10537TIP3    H131496   6.880   6.571   3.342
10537TIP3    H231497   6.985   6.679   3.328
10538TIP3   OH231498   6.590   5.879   3.137
10538TIP3    H131499   6.537   5.960   3.136
10538TIP3    H231500   6.530   5.816   3.094
10539TIP3   OH231501   7.509   7.131   2.943
10539TIP3    H131502   7.555   7.059   2.897
10539TIP3    H231503   7.506   7.097   3.034
10540TIP3   OH231504   7.416   6.592   3.295
10540TIP3    H131505   7.456   6.516   3.250
10540TIP3    H231506   7.499   6.638   3.320
10541TIP3   OH231507   8.431   5.913   3.293
10541TIP3    H131508   8.459   5.997   3.335
10541TIP3    H231509   8.450   5.932   3.199
10542TIP3   OH231510   7.832   6.095   3.327
10542TIP3    H131511   7.871   6.009   3.348
10542TIP3    H231512   7.798   6.079   3.237
10543TIP3   OH231513   7.162   5.757   3.293
10543TIP3    H131514   7.143   5.828   3.228
10543TIP3    H231515   7.116   5.682   3.249
10544TIP3   OH231516   7.861   5.845   2.914
10544TIP3    H131517   7.932   5.828   2.980
10544TIP3    H231518   7.913   5.880   2.840
10545TIP3   OH231519   7.240   6.153   3.199
10545TIP3    H131520   7.334   6.129   3.209
10545TIP3    H231521   7.202   6.070   3.162
10546TIP3   OH231522   8.505   6.124   3.461
10546TIP3    H131523   8.420   6.168   3.441
10546TIP3    H231524   8.513   6.144   3.555
10547TIP3   OH231525   7.165   5.732   3.727
10547TIP3    H131526   7.109   5.766   3.655
10547TIP3    H231527   7.112   5.758   3.805
10548TIP3   OH231528   7.512   6.590   2.734
10548TIP3    H131529   7.467   6.569   2.651
10548TIP3    H231530   7.467   6.673   2.760
10549TIP3   OH231531   7.268   6.510   3.520
10549TIP3    H131532   7.209   6.578   3.559
10549TIP3    H231533   7.313   6.561   3.450
10550TIP3   OH231534   8.071   5.847   3.086
10550TIP3    H131535   8.058   5.798   3.168
10550TIP3    H231536   8.123   5.924   3.116
10551TIP3   OH231537   7.029   5.854   3.513
10551TIP3    H131538   7.096   5.922   3.536
10551TIP3    H231539   7.074   5.812   3.436
10552TIP3   OH231540   7.097   6.706   3.616
10552TIP3    H131541   7.074   6.794   3.580
10552TIP3    H231542   7.020   6.692   3.675
10553TIP3   OH231543   6.491   6.397   2.857
10553TIP3    H131544   6.451   6.422   2.771
10553TIP3    H231545   6.521   6.483   2.892
10554TIP3   OH231546   7.931   6.909   3.092
10554TIP3    H131547   7.842   6.903   3.134
10554TIP3    H231548   7.925   6.997   3.050
10555TIP3   OH231549   8.222   5.816   3.460
10555TIP3    H131550   8.133   5.841   3.428
10555TIP3    H231551   8.280   5.846   3.387
10556TIP3   OH231552   7.520   5.458   3.439
10556TIP3    H131553   7.506   5.363   3.459
10556TIP3    H231554   7.441   5.496   3.485
10557TIP3   OH231555   7.633   6.957   2.769
10557TIP3    H131556   7.684   6.875   2.749
10557TIP3    H231557   7.693   7.023   2.728
10558TIP3   OH231558   7.778   6.743   2.676
10558TIP3    H131559   7.734   6.664   2.640
10558TIP3    H231560   7.814   6.709   2.760
10559TIP3   OH231561   8.158   6.822   3.442
10559TIP3    H131562   8.145   6.747   3.380
10559TIP3    H231563   8.137   6.899   3.384
10560TIP3   OH231564   7.449   6.218   2.696
10560TIP3    H131565   7.369   6.270   2.675
10560TIP3    H231566   7.495   6.216   2.611
10561TIP3   OH231567   7.408   6.004   2.412
10561TIP3    H131568   7.474   6.054   2.461
10561TIP3    H231569   7.465   5.940   2.365
10562TIP3   OH231570   8.354   6.464   3.285
10562TIP3    H131571   8.269   6.514   3.291
10562TIP3    H231572   8.382   6.488   3.194
10563TIP3   OH231573   7.797   6.301   2.668
10563TIP3    H131574   7.742   6.325   2.746
10563TIP3    H231575   7.881   6.276   2.713
10564TIP3   OH231576   8.032   6.341   3.579
10564TIP3    H131577   8.028   6.425   3.629
10564TIP3    H231578   7.945   6.344   3.534
10565TIP3   OH231579   7.027   6.301   3.087
10565TIP3    H131580   6.987   6.244   3.018
10565TIP3    H231581   7.105   6.248   3.115
10566TIP3   OH231582   7.155   6.703   3.236
10566TIP3    H131583   7.141   6.671   3.146
10566TIP3    H231584   7.247   6.674   3.254
10567TIP3   OH231585   7.147   6.278   3.433
10567TIP3    H131586   7.193   6.247   3.352
10567TIP3    H231587   7.201   6.356   3.459
10568TIP3   OH231588   7.691   6.907   3.215
10568TIP3    H131589   7.677   6.989   3.266
10568TIP3    H231590   7.675   6.837   3.281
10569TIP3   OH231591   7.303   6.825   3.764
10569TIP3    H131592   7.243   6.888   3.810
10569TIP3    H231593   7.237   6.773   3.714
10570TIP3   OH231594   7.637   6.159   2.494
10570TIP3    H131595   7.696   6.219   2.546
10570TIP3    H231596   7.664   6.182   2.402
10571TIP3   OH231597   7.051   6.384   3.859
10571TIP3    H131598   7.060   6.471   3.904
10571TIP3    H231599   6.957   6.365   3.878
10572TIP3   OH231600   7.380   6.839   2.771
10572TIP3    H131601   7.459   6.892   2.786
10572TIP3    H231602   7.319   6.903   2.730
10573TIP3   OH231603   7.098   6.993   3.850
10573TIP3    H131604   7.061   6.995   3.760
10573TIP3    H231605   7.018   6.972   3.904
10574TIP3   OH231606   8.153   5.400   2.542
10574TIP3    H131607   8.071   5.420   2.593
10574TIP3    H231608   8.166   5.484   2.493
10575TIP3   OH231609   6.897   6.144   2.889
10575TIP3    H131610   6.829   6.186   2.832
10575TIP3    H231611   6.860   6.057   2.904
10576TIP3   OH231612   7.951   6.766   2.090
10576TIP3    H131613   7.959   6.863   2.076
10576TIP3    H231614   8.044   6.737   2.078
10577TIP3   OH231615   6.681   6.526   3.797
10577TIP3    H131616   6.605   6.504   3.740
10577TIP3    H231617   6.711   6.439   3.831
10578TIP3   OH231618   6.540   6.717   3.428
10578TIP3    H131619   6.635   6.730   3.424
10578TIP3    H231620   6.513   6.793   3.482
10579TIP3   OH231621   8.402   7.164   3.494
10579TIP3    H131622   8.392   7.068   3.508
10579TIP3    H231623   8.318   7.196   3.534
10580TIP3   OH231624   7.501   6.955   3.620
10580TIP3    H131625   7.500   7.048   3.652
10580TIP3    H231626   7.430   6.916   3.675
10581TIP3   OH231627   7.262   7.085   2.572
10581TIP3    H131628   7.216   7.068   2.488
10581TIP3    H231629   7.230   7.173   2.596
10582TIP3   OH231630   6.699   6.934   2.956
10582TIP3    H131631   6.748   6.925   3.041
10582TIP3    H231632   6.638   6.859   2.963
10583TIP3   OH231633   7.463   6.987   2.211
10583TIP3    H131634   7.522   6.917   2.176
10583TIP3    H231635   7.496   6.996   2.303
10584TIP3   OH231636   7.513   7.034   2.481
10584TIP3    H131637   7.424   7.044   2.523
10584TIP3    H231638   7.564   6.997   2.555
10585TIP3   OH231639   8.286   6.301   3.760
10585TIP3    H131640   8.203   6.315   3.711
10585TIP3    H231641   8.300   6.205   3.748
10586TIP3   OH231642   6.884   6.709   3.783
10586TIP3    H131643   6.931   6.697   3.868
10586TIP3    H231644   6.809   6.647   3.792
10587TIP3   OH231645   7.281   5.539   3.552
10587TIP3    H131646   7.192   5.504   3.540
10587TIP3    H231647   7.264   5.605   3.621
10588TIP3   OH231648   7.800   5.645   3.779
10588TIP3    H131649   7.881   5.616   3.826
10588TIP3    H231650   7.734   5.635   3.849
10589TIP3   OH231651   8.058   6.079   3.686
10589TIP3    H131652   8.005   6.074   3.768
10589TIP3    H231653   8.029   6.164   3.647
10590TIP3   OH231654   7.713   6.206   2.238
10590TIP3    H131655   7.680   6.180   2.150
10590TIP3    H231656   7.794   6.254   2.214
10591TIP3   OH231657   7.426   5.581   2.541
10591TIP3    H131658   7.393   5.578   2.633
10591TIP3    H231659   7.387   5.498   2.507
10592TIP3   OH231660   7.208   6.051   3.583
10592TIP3    H131661   7.169   6.073   3.670
10592TIP3    H231662   7.193   6.134   3.534
10593TIP3   OH231663   7.098   5.938   3.099
10593TIP3    H131664   7.006   5.908   3.118
10593TIP3    H231665   7.112   5.895   3.012
10594TIP3   OH231666   7.587   6.020   2.830
10594TIP3    H131667   7.534   6.091   2.788
10594TIP3    H231668   7.641   5.988   2.755
10595TIP3   OH231669   7.761   6.298   3.917
10595TIP3    H131670   7.739   6.225   3.979
10595TIP3    H231671   7.855   6.311   3.939
10596TIP3   OH231672   7.745   6.048   3.068
10596TIP3    H131673   7.683   6.077   2.998
10596TIP3    H231674   7.777   5.966   3.026
10597TIP3   OH231675   7.028   6.078   3.801
10597TIP3    H131676   7.067   6.139   3.865
10597TIP3    H231677   7.022   5.995   3.852
10598TIP3   OH231678   7.081   5.554   2.506
10598TIP3    H131679   7.073   5.551   2.604
10598TIP3    H231680   7.002   5.607   2.483
10599TIP3   OH231681   6.626   5.603   3.379
10599TIP3    H131682   6.706   5.629   3.428
10599TIP3    H231683   6.661   5.566   3.296
10600TIP3   OH231684   6.597   5.578   2.897
10600TIP3    H131685   6.643   5.615   2.819
10600TIP3    H231686   6.536   5.652   2.916
10601TIP3   OH231687   7.755   6.294   3.492
10601TIP3    H131688   7.788   6.222   3.432
10601TIP3    H231689   7.725   6.240   3.568
10602TIP3   OH231690   7.422   5.759   3.165
10602TIP3    H131691   7.341   5.755   3.219
10602TIP3    H231692   7.492   5.751   3.232
10603TIP3   OH231693   6.863   5.817   3.165
10603TIP3    H131694   6.766   5.822   3.155
10603TIP3    H231695   6.883   5.723   3.148
10604TIP3   OH231696   7.127   5.807   2.860
10604TIP3    H131697   7.221   5.822   2.839
10604TIP3    H231698   7.081   5.830   2.776
10605TIP3   OH231699   7.915   5.832   3.366
10605TIP3    H131700   7.882   5.842   3.458
10605TIP3    H231701   7.851   5.769   3.330
10606TIP3   OH231702   6.968   5.842   2.638
10606TIP3    H131703   6.896   5.798   2.590
10606TIP3    H231704   7.020   5.878   2.564
10607TIP3   OH231705   8.089   7.521   3.579
10607TIP3    H131706   8.074   7.554   3.489
10607TIP3    H231707   8.171   7.570   3.602
10608TIP3   OH231708   7.044   6.628   4.006
10608TIP3    H131709   7.123   6.660   4.053
10608TIP3    H231710   6.978   6.630   4.079
10609TIP3   OH231711   7.505   6.086   3.262
10609TIP3    H131712   7.577   6.041   3.215
10609TIP3    H231713   7.509   6.044   3.350
10610TIP3   OH231714   7.029   5.571   3.140
10610TIP3    H131715   6.996   5.492   3.187
10610TIP3    H231716   7.083   5.532   3.070
10611TIP3   OH231717   7.486   5.991   3.533
10611TIP3    H131718   7.396   6.011   3.562
10611TIP3    H231719   7.542   6.039   3.597
10612TIP3   OH231720   7.220   6.372   2.645
10612TIP3    H131721   7.147   6.306   2.634
10612TIP3    H231722   7.201   6.405   2.736
10613TIP3   OH231723   8.120   6.606   3.275
10613TIP3    H131724   8.143   6.657   3.194
10613TIP3    H231725   8.034   6.565   3.250
10614TIP3   OH231726   7.677   5.684   2.506
10614TIP3    H131727   7.581   5.667   2.516
10614TIP3    H231728   7.686   5.778   2.532
10615TIP3   OH231729   7.615   6.687   3.644
10615TIP3    H131730   7.644   6.671   3.734
10615TIP3    H231731   7.582   6.779   3.648
10616TIP3   OH231732   7.747   5.931   2.611
10616TIP3    H131733   7.843   5.937   2.627
10616TIP3    H231734   7.729   6.011   2.559
10617TIP3   OH231735   6.901   6.349   3.331
10617TIP3    H131736   6.927   6.353   3.237
10617TIP3    H231737   6.989   6.337   3.372
10618TIP3   OH231738   7.364   6.521   2.466
10618TIP3    H131739   7.317   6.607   2.471
10618TIP3    H231740   7.310   6.466   2.527
10619TIP3   OH231741   6.790   6.314   3.938
10619TIP3    H131742   6.820   6.310   4.031
10619TIP3    H231743   6.726   6.240   3.937
10620TIP3   OH231744   7.519   6.427   3.955
10620TIP3    H131745   7.462   6.370   3.902
10620TIP3    H231746   7.607   6.395   3.928
10621TIP3   OH231747   7.779   6.941   3.543
10621TIP3    H131748   7.683   6.948   3.552
10621TIP3    H231749   7.808   6.998   3.617
10622TIP3   OH231750   8.190   6.022   2.447
10622TIP3    H131751   8.128   5.977   2.386
10622TIP3    H231752   8.187   6.111   2.406
10623TIP3   OH231753   8.408   6.874   3.530
10623TIP3    H131754   8.310   6.871   3.521
10623TIP3    H231755   8.434   6.848   3.439
10624TIP3   OH231756   7.893   6.841   2.356
10624TIP3    H131757   7.863   6.773   2.419
10624TIP3    H231758   7.901   6.792   2.273
10625TIP3   OH231759   7.886   6.469   3.194
10625TIP3    H131760   7.792   6.445   3.207
10625TIP3    H231761   7.919   6.389   3.148
10626TIP3   OH231762   7.013   6.697   2.947
10626TIP3    H131763   7.016   6.779   2.893
10626TIP3    H231764   6.918   6.683   2.955
10627TIP3   OH231765   6.576   6.001   2.649
10627TIP3    H131766   6.622   6.085   2.670
10627TIP3    H231767   6.499   6.007   2.710
10628TIP3   OH231768   7.151   6.463   2.890
10628TIP3    H131769   7.116   6.552   2.908
10628TIP3    H231770   7.115   6.413   2.966
10629TIP3   OH231771   7.283   7.041   3.414
10629TIP3    H131772   7.323   7.115   3.365
10629TIP3    H231773   7.359   7.007   3.464
10630TIP3   OH231774   6.933   6.936   2.799
10630TIP3    H131775   6.847   6.945   2.844
10630TIP3    H231776   6.965   7.029   2.802
10631TIP3   OH231777   7.669   6.674   3.375
10631TIP3    H131778   7.659   6.673   3.473
10631TIP3    H231779   7.751   6.624   3.363
10632TIP3   OH231780   7.645   6.568   2.257
10632TIP3    H131781   7.698   6.543   2.336
10632TIP3    H231782   7.556   6.542   2.286
10633TIP3   OH231783   7.920   7.208   3.422
10633TIP3    H131784   7.838   7.156   3.412
10633TIP3    H231785   7.906   7.276   3.352
10634TIP3   OH231786   7.984   7.042   2.075
10634TIP3    H131787   8.022   7.117   2.028
10634TIP3    H231788   7.904   7.085   2.112
10635TIP3   OH231789   6.998   5.824   3.938
10635TIP3    H131790   6.901   5.837   3.948
10635TIP3    H231791   7.010   5.742   3.988
10636TIP3   OH231792   7.805   6.500   2.472
10636TIP3    H131793   7.795   6.435   2.544
10636TIP3    H231794   7.902   6.499   2.461
10637TIP3   OH231795   6.724   6.902   3.573
10637TIP3    H131796   6.779   6.833   3.615
10637TIP3    H231797   6.742   6.978   3.631
10638TIP3   OH231798   7.012   6.548   2.256
10638TIP3    H131799   7.025   6.456   2.229
10638TIP3    H231800   6.992   6.537   2.352
10639TIP3   OH231801   6.957   6.553   2.529
10639TIP3    H131802   7.029   6.527   2.587
10639TIP3    H231803   6.960   6.651   2.535
10640TIP3   OH231804   6.691   6.247   2.732
10640TIP3    H131805   6.625   6.293   2.789
10640TIP3    H231806   6.706   6.316   2.664
10641TIP3   OH231807   7.840   5.878   3.627
10641TIP3    H131808   7.920   5.913   3.671
10641TIP3    H231809   7.819   5.799   3.681
10642TIP3   OH231810   7.722   5.635   2.789
10642TIP3    H131811   7.709   5.659   2.695
10642TIP3    H231812   7.761   5.717   2.826
10643TIP3   OH231813   7.222   6.751   2.477
10643TIP3    H131814   7.135   6.777   2.513
10643TIP3    H231815   7.239   6.825   2.417
10644TIP3   OH231816   7.410   5.815   2.892
10644TIP3    H131817   7.475   5.887   2.875
10644TIP3    H231818   7.415   5.806   2.990
10645TIP3   OH231819   7.681   6.134   3.700
10645TIP3    H131820   7.702   6.186   3.779
10645TIP3    H231821   7.733   6.053   3.713
10646TIP3   OH231822   7.554   5.541   2.993
10646TIP3    H131823   7.553   5.615   3.056
10646TIP3    H231824   7.615   5.577   2.924
10647TIP3   OH231825   6.965   6.826   2.545
10647TIP3    H131826   6.936   6.895   2.482
10647TIP3    H231827   6.950   6.870   2.632
10648TIP3   OH231828   7.066   5.540   2.783
10648TIP3    H131829   7.064   5.630   2.821
10648TIP3    H231830   7.162   5.521   2.791
10649TIP3   OH231831   8.323   6.033   3.677
10649TIP3    H131832   8.225   6.034   3.689
10649TIP3    H231833   8.327   5.986   3.592
10650TIP3   OH231834   7.972   6.227   3.067
10650TIP3    H131835   7.895   6.169   3.080
10650TIP3    H231836   8.042   6.180   3.116
10651TIP3   OH231837   6.683   6.456   2.538
10651TIP3    H131838   6.748   6.528   2.547
10651TIP3    H231839   6.729   6.402   2.471
10652TIP3   OH231840   6.627   5.732   2.672
10652TIP3    H131841   6.627   5.829   2.667
10652TIP3    H231842   6.545   5.710   2.627
10653TIP3   OH231843   7.940   7.177   3.014
10653TIP3    H131844   7.896   7.225   2.941
10653TIP3    H231845   8.034   7.200   2.994
10654TIP3   OH231846   7.006   5.457   3.546
10654TIP3    H131847   6.983   5.422   3.457
10654TIP3    H231848   7.004   5.376   3.600
10655TIP3   OH231849   6.552   6.665   2.926
10655TIP3    H131850   6.482   6.701   2.981
10655TIP3    H231851   6.531   6.708   2.840
10656TIP3   OH231852   6.712   7.213   3.994
10656TIP3    H131853   6.797   7.215   4.044
10656TIP3    H231854   6.690   7.118   3.997
10657TIP3   OH231855   7.192   7.175   4.043
10657TIP3    H131856   7.288   7.162   4.048
10657TIP3    H231857   7.168   7.117   3.969
10658TIP3   OH231858   7.174   6.752   2.168
10658TIP3    H131859   7.118   6.681   2.207
10658TIP3    H231860   7.249   6.699   2.136
10659TIP3   OH231861   7.832   7.082   3.774
10659TIP3    H131862   7.824   7.014   3.844
10659TIP3    H231863   7.909   7.135   3.804
10660TIP3   OH231864   7.611   6.793   2.081
10660TIP3    H131865   7.654   6.728   2.140
10660TIP3    H231866   7.667   6.791   2.002
10661TIP3   OH231867   6.847   6.619   4.201
10661TIP3    H131868   6.858   6.523   4.206
10661TIP3    H231869   6.759   6.625   4.157
10662TIP3   OH231870   6.819   6.269   2.390
10662TIP3    H131871   6.875   6.237   2.463
10662TIP3    H231872   6.886   6.274   2.319
10663TIP3   OH231873   7.450   6.703   3.970
10663TIP3    H131874   7.409   6.722   3.884
10663TIP3    H231875   7.480   6.611   3.961
10664TIP3   OH231876   7.330   6.468   2.197
10664TIP3    H131877   7.331   6.481   2.294
10664TIP3    H231878   7.328   6.370   2.192
10665TIP3   OH231879   7.941   6.711   3.577
10665TIP3    H131880   8.017   6.756   3.534
10665TIP3    H231881   7.872   6.779   3.564
10666TIP3   OH231882   6.961   6.350   4.176
10666TIP3    H131883   7.038   6.296   4.157
10666TIP3    H231884   6.984   6.386   4.264
10667TIP3   OH231885   7.027   6.173   2.612
10667TIP3    H131886   7.000   6.132   2.696
10667TIP3    H231887   7.063   6.097   2.562
10668TIP3   OH231888   7.288   6.233   3.836
10668TIP3    H131889   7.216   6.299   3.839
10668TIP3    H231890   7.344   6.268   3.763
10669TIP3   OH231891   7.127   5.966   2.453
10669TIP3    H131892   7.102   5.971   2.359
10669TIP3    H231893   7.225   5.971   2.446
10670TIP3   OH231894   7.812   6.639   3.975
10670TIP3    H131895   7.892   6.615   3.926
10670TIP3    H231896   7.810   6.571   4.045
10671TIP3   OH231897   7.950   6.298   2.116
10671TIP3    H131898   7.929   6.251   2.032
10671TIP3    H231899   7.917   6.387   2.093
10672TIP3   OH231900   7.415   6.028   3.972
10672TIP3    H131901   7.421   5.949   3.914
10672TIP3    H231902   7.373   6.092   3.910
10673TIP3   OH231903   7.415   5.837   3.781
10673TIP3    H131904   7.456   5.838   3.693
10673TIP3    H231905   7.334   5.784   3.765
10674TIP3   OH231906   7.447   6.347   3.650
10674TIP3    H131907   7.531   6.353   3.604
10674TIP3    H231908   7.393   6.415   3.604
10675TIP3   OH231909   8.031   6.315   4.029
10675TIP3    H131910   8.078   6.231   4.036
10675TIP3    H231911   8.099   6.374   3.994
10676TIP3   OH231912   8.071   6.567   3.764
10676TIP3    H131913   8.013   6.621   3.705
10676TIP3    H231914   8.159   6.588   3.724
10677TIP3   OH231915   7.297   6.140   4.199
10677TIP3    H131916   7.226   6.074   4.214
10677TIP3    H231917   7.332   6.111   4.112
10678TIP3   OH231918   7.679   6.080   4.057
10678TIP3    H131919   7.668   6.065   4.152
10678TIP3    H231920   7.589   6.053   4.027
10679TIP3   OH231921   7.920   6.030   3.913
10679TIP3    H131922   7.843   6.029   3.973
10679TIP3    H231923   7.992   5.997   3.969
10680TIP3   OH231924   8.154   5.971   4.064
10680TIP3    H131925   8.163   5.875   4.080
10680TIP3    H231926   8.146   6.008   4.154
10681TIP3   OH231927   7.138   5.920   4.248
10681TIP3    H131928   7.185   5.853   4.197
10681TIP3    H231929   7.173   5.902   4.339
10682TIP3   OH231930   7.664   5.580   4.045
10682TIP3    H131931   7.735   5.515   4.065
10682TIP3    H231932   7.594   5.515   4.025
10683TIP3   OH231933   7.715   5.794   4.245
10683TIP3    H131934   7.695   5.728   4.176
10683TIP3    H231935   7.635   5.851   4.242
10684TIP3   OH231936   6.935   7.027   2.357
10684TIP3    H131937   7.030   7.024   2.339
10684TIP3    H231938   6.904   7.078   2.280
10685TIP3   OH231939   6.415   6.409   2.577
10685TIP3    H131940   6.510   6.432   2.561
10685TIP3    H231941   6.409   6.321   2.534
10686TIP3   OH231942   6.330   7.023   2.987
10686TIP3    H131943   6.262   6.962   2.951
10686TIP3    H231944   6.374   6.965   3.053
10687TIP3   OH231945   6.467   6.874   3.172
10687TIP3    H131946   6.453   6.803   3.236
10687TIP3    H231947   6.517   6.937   3.228
10688TIP3   OH231948   8.191   7.269   2.964
10688TIP3    H131949   8.212   7.284   3.059
10688TIP3    H231950   8.253   7.328   2.920
10689TIP3   OH231951   8.244   7.271   3.229
10689TIP3    H131952   8.200   7.188   3.254
10689TIP3    H231953   8.287   7.297   3.311
10690TIP3   OH231954   8.269   6.970   3.830
10690TIP3    H131955   8.195   6.980   3.893
10690TIP3    H231956   8.310   7.059   3.833
10691TIP3   OH231957   8.085   6.484   2.450
10691TIP3    H131958   8.152   6.548   2.421
10691TIP3    H231959   8.128   6.445   2.529
10692TIP3   OH231960   8.214   6.352   2.655
10692TIP3    H131961   8.145   6.309   2.710
10692TIP3    H231962   8.271   6.394   2.721
10693TIP3   OH231963   8.268   6.744   3.086
10693TIP3    H131964   8.319   6.682   3.031
10693TIP3    H231965   8.257   6.820   3.026
10694TIP3   OH231966   8.095   7.039   3.285
10694TIP3    H131967   8.026   7.090   3.332
10694TIP3    H231968   8.044   6.997   3.213
10695TIP3   OH231969   8.150   6.260   2.299
10695TIP3    H131970   8.079   6.262   2.232
10695TIP3    H231971   8.122   6.336   2.354
10696TIP3   OH231972   8.022   5.933   2.254
10696TIP3    H131973   7.978   5.971   2.177
10696TIP3    H231974   7.997   5.838   2.245
10697TIP3   OH231975   8.027   6.209   2.799
10697TIP3    H131976   8.033   6.112   2.792
10697TIP3    H231977   8.012   6.222   2.895
10698TIP3   OH231978   8.314   6.632   3.657
10698TIP3    H131979   8.388   6.568   3.646
10698TIP3    H231980   8.340   6.704   3.597
10699TIP3   OH231981   8.501   6.438   3.668
10699TIP3    H131982   8.426   6.389   3.709
10699TIP3    H231983   8.573   6.374   3.685
10700TIP3   OH231984   7.965   5.667   2.240
10700TIP3    H131985   8.040   5.636   2.294
10700TIP3    H231986   7.892   5.608   2.264
10701TIP3   OH231987   8.022   5.925   2.694
10701TIP3    H131988   8.062   5.836   2.710
10701TIP3    H231989   8.081   5.956   2.623
10702TIP3   OH231990   8.184   6.097   3.189
10702TIP3    H131991   8.271   6.123   3.150
10702TIP3    H231992   8.196   6.135   3.279
10703TIP3   OH231993   8.253   6.243   3.420
10703TIP3    H131994   8.175   6.275   3.470
10703TIP3    H231995   8.284   6.325   3.377
10704TIP3   OH231996   6.869   5.966   4.220
10704TIP3    H131997   6.967   5.958   4.222
10704TIP3    H231998   6.845   5.884   4.267
10705TIP3   OH231999   8.712   5.837   3.975
10705TIP3    H132000   8.763   5.768   3.927
10705TIP3    H232001   8.676   5.890   3.901
10706TIP3   OH232002   8.131   5.674   2.732
10706TIP3    H132003   8.179   5.658   2.815
10706TIP3    H232004   8.070   5.598   2.730
10707TIP3   OH232005   6.828   5.669   3.567
10707TIP3    H132006   6.887   5.591   3.569
10707TIP3    H232007   6.893   5.739   3.546
10708TIP3   OH232008   8.575   5.972   3.784
10708TIP3    H132009   8.489   6.014   3.806
10708TIP3    H232010   8.543   5.902   3.724
10709TIP3   OH232011   8.212   5.609   2.364
10709TIP3    H132012   8.252   5.537   2.312
10709TIP3    H232013   8.280   5.679   2.358
10710TIP3   OH232014   6.616   5.446   3.131
10710TIP3    H132015   6.521   5.435   3.151
10710TIP3    H232016   6.614   5.499   3.049
10711TIP3   OH232017   7.775   7.138   2.629
10711TIP3    H132018   7.832   7.130   2.550
10711TIP3    H232019   7.822   7.205   2.682
10712TIP3   OH232020   6.819   5.547   3.967
10712TIP3    H132021   6.773   5.482   4.021
10712TIP3    H232022   6.754   5.565   3.897
10713TIP3   OH232023   6.878   6.939   4.016
10713TIP3    H132024   6.784   6.918   4.001
10713TIP3    H232025   6.885   6.931   4.112
10714TIP3   OH232026   7.056   6.976   3.562
10714TIP3    H132027   7.007   7.052   3.525
10714TIP3    H232028   7.142   6.992   3.518
10715TIP3   OH232029   7.500   7.221   3.701
10715TIP3    H132030   7.541   7.223   3.790
10715TIP3    H232031   7.566   7.273   3.649
10716TIP3   OH232032   7.679   7.374   3.561
10716TIP3    H132033   7.750   7.327   3.516
10716TIP3    H232034   7.730   7.432   3.622
10717TIP3   OH232035   8.474   5.736   3.660
10717TIP3    H132036   8.382   5.728   3.628
10717TIP3    H232037   8.504   5.643   3.649
10718TIP3   OH232038   6.731   7.232   3.589
10718TIP3    H132039   6.641   7.266   3.566
10718TIP3    H232040   6.744   7.275   3.674
10719TIP3   OH232041   6.967   7.211   3.446
10719TIP3    H132042   6.881   7.225   3.491
10719TIP3    H232043   6.948   7.246   3.356
10720TIP3   OH232044   7.394   7.242   3.243
10720TIP3    H132045   7.325   7.264   3.178
10720TIP3    H232046   7.408   7.329   3.286
10721TIP3   OH232047   7.664   7.177   3.295
10721TIP3    H132048   7.571   7.201   3.275
10721TIP3    H232049   7.712   7.252   3.255
10722TIP3   OH232050   7.856   7.369   3.212
10722TIP3    H132051   7.858   7.461   3.177
10722TIP3    H232052   7.894   7.319   3.137
10723TIP3   OH232053   6.644   7.029   3.331
10723TIP3    H132054   6.669   7.004   3.422
10723TIP3    H232055   6.717   6.985   3.281
10724TIP3   OH232056   6.838   6.899   3.189
10724TIP3    H132057   6.855   6.815   3.238
10724TIP3    H232058   6.928   6.938   3.185
10725TIP3   OH232059   7.102   6.994   3.194
10725TIP3    H132060   7.136   6.904   3.181
10725TIP3    H232061   7.147   7.018   3.277
10726TIP3   OH232062   7.675   5.649   3.275
10726TIP3    H132063   7.635   5.583   3.334
10726TIP3    H232064   7.751   5.600   3.238
10727TIP3   OH232065   8.203   5.532   3.185
10727TIP3    H132066   8.238   5.584   3.109
10727TIP3    H232067   8.107   5.548   3.179
10728TIP3   OH232068   8.297   5.632   2.948
10728TIP3    H132069   8.370   5.580   2.909
10728TIP3    H232070   8.330   5.724   2.933
10729TIP3   OH232071   6.928   5.359   3.296
10729TIP3    H132072   6.836   5.325   3.298
10729TIP3    H232073   6.977   5.274   3.293
10730TIP3   OH232074   6.713   5.229   2.943
10730TIP3    H132075   6.744   5.286   2.871
10730TIP3    H232076   6.687   5.295   3.010
10731TIP3   OH232077   7.370   5.393   3.178
10731TIP3    H132078   7.430   5.442   3.120
10731TIP3    H232079   7.392   5.429   3.265
10732TIP3   OH232080   7.922   5.540   3.160
10732TIP3    H132081   7.916   5.500   3.072
10732TIP3    H232082   7.906   5.460   3.217
10733TIP3   OH232083   7.948   5.461   2.723
10733TIP3    H132084   7.861   5.504   2.736
10733TIP3    H232085   7.934   5.376   2.770
10734TIP3   OH232086   6.432   6.801   2.725
10734TIP3    H132087   6.346   6.768   2.691
10734TIP3    H232088   6.421   6.895   2.706
10735TIP3   OH232089   6.831   5.389   2.707
10735TIP3    H132090   6.880   5.326   2.651
10735TIP3    H232091   6.905   5.443   2.743
10736TIP3   OH232092   7.344   5.564   2.806
10736TIP3    H132093   7.403   5.517   2.867
10736TIP3    H232094   7.365   5.657   2.832
10737TIP3   OH232095   7.204   6.988   2.307
10737TIP3    H132096   7.291   7.012   2.270
10737TIP3    H232097   7.181   6.914   2.246
10738TIP3   OH232098   7.927   7.108   2.398
10738TIP3    H132099   7.917   7.010   2.389
10738TIP3    H232100   7.876   7.139   2.321
10739TIP3   OH232101   6.506   6.824   2.362
10739TIP3    H132102   6.508   6.853   2.454
10739TIP3    H232103   6.595   6.783   2.351
10740TIP3   OH232104   8.210   5.700   4.095
10740TIP3    H132105   8.227   5.668   4.186
10740TIP3    H232106   8.298   5.691   4.054
10741TIP3   OH232107   8.150   7.251   3.583
10741TIP3    H132108   8.069   7.222   3.536
10741TIP3    H232109   8.135   7.348   3.586
10742TIP3   OH232110   9.402   6.622   2.364
10742TIP3    H132111   9.388   6.712   2.331
10742TIP3    H232112   9.338   6.572   2.311
10743TIP3   OH232113   8.729   6.518   3.085
10743TIP3    H132114   8.750   6.452   3.153
10743TIP3    H232115   8.770   6.597   3.123
10744TIP3   OH232116   8.681   6.929   2.822
10744TIP3    H132117   8.681   6.831   2.829
10744TIP3    H232118   8.777   6.944   2.817
10745TIP3   OH232119   8.392   6.135   2.609
10745TIP3    H132120   8.338   6.216   2.622
10745TIP3    H232121   8.324   6.076   2.571
10746TIP3   OH232122   8.459   6.424   2.782
10746TIP3    H132123   8.501   6.342   2.816
10746TIP3    H232124   8.501   6.434   2.696
10747TIP3   OH232125   9.298   7.374   2.444
10747TIP3    H132126   9.336   7.291   2.413
10747TIP3    H232127   9.287   7.355   2.539
10748TIP3   OH232128   9.629   6.376   2.814
10748TIP3    H132129   9.631   6.281   2.836
10748TIP3    H232130   9.609   6.369   2.719
10749TIP3   OH232131   8.960   6.011   2.781
10749TIP3    H132132   8.942   6.082   2.715
10749TIP3    H232133   8.915   5.936   2.737
10750TIP3   OH232134   9.646   6.096   2.428
10750TIP3    H132135   9.722   6.060   2.474
10750TIP3    H232136   9.689   6.148   2.358
10751TIP3   OH232137   8.597   6.213   2.886
10751TIP3    H132138   8.679   6.189   2.934
10751TIP3    H232139   8.608   6.155   2.807
10752TIP3   OH232140   9.033   6.406   2.688
10752TIP3    H132141   9.127   6.379   2.689
10752TIP3    H232142   8.991   6.325   2.650
10753TIP3   OH232143   8.960   5.996   3.215
10753TIP3    H132144   8.897   6.028   3.147
10753TIP3    H232145   8.907   6.011   3.296
10754TIP3   OH232146   9.308   6.849   2.221
10754TIP3    H132147   9.266   6.826   2.138
10754TIP3    H232148   9.260   6.931   2.245
10755TIP3   OH232149   8.831   6.111   2.999
10755TIP3    H132150   8.897   6.180   3.020
10755TIP3    H232151   8.876   6.067   2.923
10756TIP3   OH232152   8.896   6.959   3.105
10756TIP3    H132153   8.873   7.046   3.066
10756TIP3    H232154   8.817   6.945   3.161
10757TIP3   OH232155   8.289   6.653   2.343
10757TIP3    H132156   8.246   6.680   2.259
10757TIP3    H232157   8.319   6.739   2.379
10758TIP3   OH232158   9.307   5.713   2.921
10758TIP3    H132159   9.304   5.616   2.935
10758TIP3    H232160   9.228   5.742   2.972
10759TIP3   OH232161   9.431   7.217   2.243
10759TIP3    H132162   9.499   7.154   2.272
10759TIP3    H232163   9.477   7.302   2.247
10760TIP3   OH232164   9.245   6.480   2.180
10760TIP3    H132165   9.162   6.530   2.164
10760TIP3    H232166   9.283   6.477   2.091
10761TIP3   OH232167   9.202   6.258   1.898
10761TIP3    H132168   9.266   6.301   1.957
10761TIP3    H232169   9.260   6.195   1.852
10762TIP3   OH232170   8.822   6.553   2.573
10762TIP3    H132171   8.779   6.497   2.504
10762TIP3    H232172   8.898   6.498   2.598
10763TIP3   OH232173   8.943   6.975   2.714
10763TIP3    H132174   8.929   6.929   2.630
10763TIP3    H232175   9.036   6.959   2.733
10764TIP3   OH232176   9.026   6.550   2.924
10764TIP3    H132177   9.014   6.504   2.838
10764TIP3    H232178   8.957   6.619   2.919
10765TIP3   OH232179   9.435   7.167   2.696
10765TIP3    H132180   9.471   7.247   2.738
10765TIP3    H232181   9.462   7.097   2.757
10766TIP3   OH232182   9.098   7.079   3.253
10766TIP3    H132183   9.035   7.141   3.295
10766TIP3    H232184   9.037   7.025   3.199
10767TIP3   OH232185   9.442   6.426   1.982
10767TIP3    H132186   9.491   6.484   2.042
10767TIP3    H232187   9.474   6.455   1.896
10768TIP3   OH232188   8.850   6.638   3.347
10768TIP3    H132189   8.859   6.726   3.388
10768TIP3    H232190   8.756   6.619   3.371
10769TIP3   OH232191   9.170   7.095   2.260
10769TIP3    H132192   9.249   7.150   2.271
10769TIP3    H232193   9.108   7.155   2.216
10770TIP3   OH232194   8.894   7.251   3.337
10770TIP3    H132195   8.858   7.250   3.247
10770TIP3    H232196   8.815   7.226   3.391
10771TIP3   OH232197   8.688   6.400   2.381
10771TIP3    H132198   8.623   6.443   2.321
10771TIP3    H232199   8.654   6.310   2.386
10772TIP3   OH232200   8.473   6.780   3.284
10772TIP3    H132201   8.403   6.762   3.217
10772TIP3    H232202   8.506   6.691   3.306
10773TIP3   OH232203   8.327   6.975   2.918
10773TIP3    H132204   8.424   6.978   2.914
10773TIP3    H232205   8.308   7.054   2.970
10774TIP3   OH232206   9.291   7.211   3.105
10774TIP3    H132207   9.291   7.304   3.140
10774TIP3    H232208   9.223   7.170   3.163
10775TIP3   OH232209   9.053   7.347   2.057
10775TIP3    H132210   9.007   7.324   1.974
10775TIP3    H232211   9.016   7.435   2.078
10776TIP3   OH232212   8.496   7.191   2.443
10776TIP3    H132213   8.543   7.182   2.528
10776TIP3    H232214   8.438   7.113   2.446
10777TIP3   OH232215   9.264   7.244   1.715
10777TIP3    H132216   9.337   7.189   1.685
10777TIP3    H232217   9.292   7.262   1.808
10778TIP3   OH232218   9.304   7.291   1.981
10778TIP3    H132219   9.214   7.302   2.018
10778TIP3    H232220   9.348   7.246   2.055
10779TIP3   OH232221   8.679   6.962   3.268
10779TIP3    H132222   8.727   6.952   3.353
10779TIP3    H232223   8.603   6.901   3.280
10780TIP3   OH232224   9.076   5.788   3.059
10780TIP3    H132225   8.988   5.756   3.029
10780TIP3    H232226   9.048   5.870   3.104
10781TIP3   OH232227   9.598   5.911   3.253
10781TIP3    H132228   9.653   5.877   3.325
10781TIP3    H232229   9.508   5.887   3.285
10782TIP3   OH232230   9.228   5.840   2.029
10782TIP3    H132231   9.196   5.837   2.122
10782TIP3    H232232   9.188   5.758   1.995
10783TIP3   OH232233   9.012   6.313   3.078
10783TIP3    H132234   8.951   6.326   3.153
10783TIP3    H232235   9.003   6.397   3.028
10784TIP3   OH232236   8.890   6.193   2.590
10784TIP3    H132237   8.798   6.163   2.606
10784TIP3    H232238   8.906   6.152   2.501
10785TIP3   OH232239   9.375   6.269   2.308
10785TIP3    H132240   9.329   6.346   2.269
10785TIP3    H232241   9.439   6.244   2.239
10786TIP3   OH232242   9.559   6.552   3.400
10786TIP3    H132243   9.535   6.482   3.465
10786TIP3    H232244   9.652   6.568   3.422
10787TIP3   OH232245   9.508   6.305   2.575
10787TIP3    H132246   9.488   6.352   2.493
10787TIP3    H232247   9.553   6.226   2.537
10788TIP3   OH232248   8.833   6.334   3.285
10788TIP3    H132249   8.833   6.399   3.357
10788TIP3    H232250   8.818   6.251   3.334
10789TIP3   OH232251   8.878   5.811   1.992
10789TIP3    H132252   8.871   5.808   2.090
10789TIP3    H232253   8.799   5.862   1.969
10790TIP3   OH232254   8.420   5.857   2.863
10790TIP3    H132255   8.497   5.886   2.916
10790TIP3    H232256   8.460   5.821   2.783
10791TIP3   OH232257   8.393   5.836   2.384
10791TIP3    H132258   8.439   5.874   2.306
10791TIP3    H232259   8.331   5.909   2.404
10792TIP3   OH232260   9.511   6.555   2.973
10792TIP3    H132261   9.573   6.499   2.920
10792TIP3    H232262   9.514   6.508   3.059
10793TIP3   OH232263   9.219   6.024   2.654
10793TIP3    H132264   9.138   6.009   2.706
10793TIP3    H232265   9.289   6.009   2.719
10794TIP3   OH232266   8.654   6.068   2.659
10794TIP3    H132267   8.560   6.074   2.631
10794TIP3    H232268   8.678   5.976   2.635
10795TIP3   OH232269   8.919   6.067   2.350
10795TIP3    H132270   9.015   6.076   2.332
10795TIP3    H232271   8.878   6.087   2.263
10796TIP3   OH232272   9.613   6.108   2.852
10796TIP3    H132273   9.614   6.105   2.950
10796TIP3    H232274   9.564   6.027   2.828
10797TIP3   OH232275   8.763   6.101   2.125
10797TIP3    H132276   8.692   6.054   2.078
10797TIP3    H232277   8.815   6.135   2.050
10798TIP3   OH232278   8.841   6.882   3.492
10798TIP3    H132279   8.919   6.916   3.540
10798TIP3    H232280   8.774   6.887   3.564
10799TIP3   OH232281   9.314   6.370   2.772
10799TIP3    H132282   9.377   6.340   2.702
10799TIP3    H232283   9.320   6.295   2.834
10800TIP3   OH232284   8.827   5.829   2.626
10800TIP3    H132285   8.793   5.749   2.673
10800TIP3    H232286   8.882   5.789   2.558
10801TIP3   OH232287   9.280   6.232   3.042
10801TIP3    H132288   9.189   6.268   3.054
10801TIP3    H232289   9.336   6.294   3.094
10802TIP3   OH232290   9.012   6.628   2.135
10802TIP3    H132291   8.941   6.561   2.124
10802TIP3    H232292   8.994   6.661   2.227
10803TIP3   OH232293   9.469   5.960   1.975
10803TIP3    H132294   9.381   5.931   2.009
10803TIP3    H232295   9.487   6.040   2.028
10804TIP3   OH232296   9.409   6.939   3.138
10804TIP3    H132297   9.435   6.936   3.230
10804TIP3    H232298   9.379   7.031   3.128
10805TIP3   OH232299   9.555   6.197   2.092
10805TIP3    H132300   9.649   6.211   2.106
10805TIP3    H232301   9.531   6.272   2.033
10806TIP3   OH232302   8.739   6.654   2.819
10806TIP3    H132303   8.754   6.619   2.728
10806TIP3    H232304   8.716   6.575   2.870
10807TIP3   OH232305   9.157   6.776   1.957
10807TIP3    H132306   9.111   6.863   1.962
10807TIP3    H232307   9.101   6.722   2.017
10808TIP3   OH232308   8.593   6.562   3.419
10808TIP3    H132309   8.607   6.554   3.515
10808TIP3    H232310   8.517   6.503   3.405
10809TIP3   OH232311   9.310   6.681   3.444
10809TIP3    H132312   9.247   6.618   3.405
10809TIP3    H232313   9.396   6.647   3.410
10810TIP3   OH232314   9.567   7.192   3.029
10810TIP3    H132315   9.472   7.209   3.031
10810TIP3    H232316   9.598   7.248   3.102
10811TIP3   OH232317   8.810   6.953   2.432
10811TIP3    H132318   8.808   7.035   2.378
10811TIP3    H232319   8.716   6.939   2.447
10812TIP3   OH232320   8.373   6.258   2.137
10812TIP3    H132321   8.418   6.342   2.158
10812TIP3    H232322   8.296   6.263   2.197
10813TIP3   OH232323   8.947   6.719   2.381
10813TIP3    H132324   8.911   6.809   2.396
10813TIP3    H232325   8.907   6.669   2.454
10814TIP3   OH232326   9.079   7.296   2.899
10814TIP3    H132327   9.123   7.368   2.850
10814TIP3    H232328   9.155   7.260   2.949
10815TIP3   OH232329   8.728   7.193   2.286
10815TIP3    H132330   8.643   7.200   2.332
10815TIP3    H232331   8.759   7.286   2.290
10816TIP3   OH232332   9.472   6.897   2.864
10816TIP3    H132333   9.459   6.920   2.958
10816TIP3    H232334   9.567   6.904   2.854
10817TIP3   OH232335   8.798   6.077   3.429
10817TIP3    H132336   8.701   6.082   3.442
10817TIP3    H232337   8.825   6.017   3.500
10818TIP3   OH232338   8.522   7.160   3.056
10818TIP3    H132339   8.577   7.093   3.098
10818TIP3    H232340   8.526   7.231   3.121
10819TIP3   OH232341   8.805   6.805   1.744
10819TIP3    H132342   8.820   6.713   1.714
10819TIP3    H232343   8.787   6.792   1.839
10820TIP3   OH232344   8.752   6.810   2.017
10820TIP3    H132345   8.825   6.783   2.074
10820TIP3    H232346   8.757   6.908   2.023
10821TIP3   OH232347   8.488   6.504   2.219
10821TIP3    H132348   8.422   6.549   2.275
10821TIP3    H232349   8.502   6.573   2.151
10822TIP3   OH232350   9.648   6.154   3.141
10822TIP3    H132351   9.692   6.193   3.218
10822TIP3    H232352   9.624   6.066   3.176
10823TIP3   OH232353   9.481   5.917   2.276
10823TIP3    H132354   9.517   5.905   2.188
10823TIP3    H232355   9.547   5.975   2.318
10824TIP3   OH232356   9.019   7.009   1.967
10824TIP3    H132357   8.932   7.036   2.001
10824TIP3    H232358   9.032   7.074   1.895
10825TIP3   OH232359   9.197   6.073   2.380
10825TIP3    H132360   9.268   6.137   2.357
10825TIP3    H232361   9.209   6.065   2.477
10826TIP3   OH232362   9.466   6.387   3.191
10826TIP3    H132363   9.496   6.441   3.266
10826TIP3    H232364   9.530   6.313   3.192
10827TIP3   OH232365   9.348   5.804   2.485
10827TIP3    H132366   9.342   5.884   2.539
10827TIP3    H232367   9.402   5.837   2.409
10828TIP3   OH232368   8.763   7.083   2.032
10828TIP3    H132369   8.732   7.153   1.970
10828TIP3    H232370   8.746   7.126   2.119
10829TIP3   OH232371   8.862   5.797   2.269
10829TIP3    H132372   8.861   5.886   2.308
10829TIP3    H232373   8.958   5.777   2.278
10830TIP3   OH232374   8.480   6.713   2.024
10830TIP3    H132375   8.547   6.782   2.033
10830TIP3    H232376   8.525   6.657   1.957
10831TIP3   OH232377   8.424   5.989   2.159
10831TIP3    H132378   8.423   6.086   2.154
10831TIP3    H232379   8.342   5.966   2.114
10832TIP3   OH232380   8.811   5.710   3.031
10832TIP3    H132381   8.781   5.676   2.944
10832TIP3    H232382   8.801   5.631   3.088
10833TIP3   OH232383   8.351   6.926   2.412
10833TIP3    H132384   8.282   6.957   2.472
10833TIP3    H232385   8.322   6.967   2.327
10834TIP3   OH232386   8.496   7.440   3.526
10834TIP3    H132387   8.591   7.454   3.543
10834TIP3    H232388   8.491   7.347   3.502
10835TIP3   OH232389   8.994   7.431   3.529
10835TIP3    H132390   9.088   7.408   3.532
10835TIP3    H232391   8.964   7.374   3.455
10836TIP3   OH232392   8.970   7.009   1.661
10836TIP3    H132393   8.914   6.936   1.695
10836TIP3    H232394   9.044   6.959   1.622
10837TIP3   OH232395   9.631   7.335   3.262
10837TIP3    H132396   9.608   7.264   3.327
10837TIP3    H232397   9.709   7.373   3.302
10838TIP3   OH232398   8.639   6.875   3.684
10838TIP3    H132399   8.653   6.779   3.688
10838TIP3    H232400   8.550   6.879   3.640
10839TIP3   OH232401   8.615   6.526   1.876
10839TIP3    H132402   8.670   6.492   1.949
10839TIP3    H232403   8.682   6.531   1.805
10840TIP3   OH232404   9.248   6.962   3.457
10840TIP3    H132405   9.204   6.982   3.372
10840TIP3    H232406   9.275   6.869   3.446
10841TIP3   OH232407   9.119   6.724   1.686
10841TIP3    H132408   9.135   6.740   1.782
10841TIP3    H232409   9.120   6.626   1.685
10842TIP3   OH232410   8.759   6.607   3.666
10842TIP3    H132411   8.834   6.549   3.651
10842TIP3    H232412   8.781   6.644   3.754
10843TIP3   OH232413   8.824   6.428   2.101
10843TIP3    H132414   8.796   6.384   2.182
10843TIP3    H232415   8.859   6.353   2.048
10844TIP3   OH232416   9.103   6.512   3.325
10844TIP3    H132417   9.023   6.562   3.349
10844TIP3    H232418   9.094   6.509   3.229
10845TIP3   OH232419   8.922   6.224   1.938
10845TIP3    H132420   8.896   6.227   1.844
10845TIP3    H232421   9.019   6.229   1.930
10846TIP3   OH232422   9.601   6.895   3.466
10846TIP3    H132423   9.679   6.873   3.415
10846TIP3    H232424   9.600   6.827   3.535
10847TIP3   OH232425   9.215   6.283   3.453
10847TIP3    H132426   9.215   6.202   3.398
10847TIP3    H232427   9.179   6.350   3.392
10848TIP3   OH232428   9.217   6.068   3.263
10848TIP3    H132429   9.245   6.107   3.177
10848TIP3    H232430   9.124   6.044   3.244
10849TIP3   OH232431   9.836   6.576   3.511
10849TIP3    H132432   9.866   6.490   3.542
10849TIP3    H232433   9.920   6.623   3.502
10850TIP3   OH232434   9.092   6.394   3.681
10850TIP3    H132435   9.024   6.326   3.699
10850TIP3    H232436   9.129   6.363   3.596
10851TIP3   OH232437   9.348   5.833   3.327
10851TIP3    H132438   9.296   5.914   3.305
10851TIP3    H232439   9.281   5.763   3.313
10852TIP3   OH232440   9.478   6.336   3.543
10852TIP3    H132441   9.469   6.325   3.639
10852TIP3    H232442   9.387   6.312   3.515
10853TIP3   OH232443   9.709   6.259   3.392
10853TIP3    H132444   9.632   6.280   3.449
10853TIP3    H232445   9.778   6.242   3.459
10854TIP3   OH232446   9.915   6.204   3.574
10854TIP3    H132447   9.977   6.140   3.610
10854TIP3    H232448   9.915   6.272   3.645
10855TIP3   OH232449   8.933   6.174   3.736
10855TIP3    H132450   8.937   6.083   3.703
10855TIP3    H232451   8.968   6.162   3.827
10856TIP3   OH232452   9.441   5.839   3.586
10856TIP3    H132453   9.513   5.774   3.577
10856TIP3    H232454   9.402   5.835   3.496
10857TIP3   OH232455   9.511   6.058   3.742
10857TIP3    H132456   9.486   5.987   3.678
10857TIP3    H232457   9.433   6.118   3.738
10858TIP3   OH232458   8.731   7.288   1.848
10858TIP3    H132459   8.827   7.281   1.828
10858TIP3    H232460   8.701   7.331   1.766
10859TIP3   OH232461   8.211   6.667   2.060
10859TIP3    H132462   8.306   6.689   2.046
10859TIP3    H232463   8.205   6.578   2.020
10860TIP3   OH232464   8.128   7.282   2.472
10860TIP3    H132465   8.060   7.220   2.438
10860TIP3    H232466   8.171   7.225   2.539
10861TIP3   OH232467   8.263   7.133   2.660
10861TIP3    H132468   8.247   7.060   2.723
10861TIP3    H232469   8.309   7.195   2.719
10862TIP3   OH232470   8.455   6.534   3.035
10862TIP3    H132471   8.447   6.504   2.942
10862TIP3    H232472   8.552   6.535   3.046
10863TIP3   OH232473   8.666   6.225   3.709
10863TIP3    H132474   8.764   6.218   3.711
10863TIP3    H232475   8.642   6.139   3.749
10864TIP3   OH232476   8.627   5.918   3.038
10864TIP3    H132477   8.688   5.841   3.047
10864TIP3    H232478   8.691   5.991   3.033
10865TIP3   OH232479   8.431   6.190   3.112
10865TIP3    H132480   8.480   6.184   3.027
10865TIP3    H232481   8.455   6.278   3.142
10866TIP3   OH232482   8.413   5.698   2.615
10866TIP3    H132483   8.319   5.691   2.639
10866TIP3    H232484   8.410   5.754   2.535
10867TIP3   OH232485   8.635   5.776   3.427
10867TIP3    H132486   8.582   5.768   3.509
10867TIP3    H232487   8.568   5.813   3.366
10868TIP3   OH232488   8.678   7.189   3.503
10868TIP3    H132489   8.584   7.167   3.487
10868TIP3    H232490   8.682   7.189   3.599
10869TIP3   OH232491   8.854   7.231   3.051
10869TIP3    H132492   8.803   7.305   3.014
10869TIP3    H232493   8.940   7.249   3.006
10870TIP3   OH232494   9.294   7.475   3.192
10870TIP3    H132495   9.340   7.482   3.278
10870TIP3    H232496   9.356   7.524   3.133
10871TIP3   OH232497   9.459   7.624   3.035
10871TIP3    H132498   9.537   7.591   2.989
10871TIP3    H232499   9.501   7.676   3.108
10872TIP3   OH232500   8.530   7.497   3.090
10872TIP3    H132501   8.446   7.533   3.058
10872TIP3    H232502   8.526   7.527   3.182
10873TIP3   OH232503   8.762   7.468   2.935
10873TIP3    H132504   8.679   7.483   2.985
10873TIP3    H232505   8.740   7.502   2.847
10874TIP3   OH232506   9.191   7.496   2.723
10874TIP3    H132507   9.115   7.517   2.666
10874TIP3    H232508   9.204   7.580   2.771
10875TIP3   OH232509   9.462   7.436   2.775
10875TIP3    H132510   9.367   7.453   2.761
10875TIP3    H232511   9.503   7.519   2.745
10876TIP3   OH232512   8.444   7.289   2.820
10876TIP3    H132513   8.467   7.257   2.910
10876TIP3    H232514   8.513   7.241   2.769
10877TIP3   OH232515   8.633   7.156   2.675
10877TIP3    H132516   8.647   7.073   2.726
10877TIP3    H232517   8.724   7.193   2.674
10878TIP3   OH232518   8.898   7.255   2.681
10878TIP3    H132519   8.926   7.163   2.668
10878TIP3    H232520   8.943   7.275   2.765
10879TIP3   OH232521   9.469   5.878   2.761
10879TIP3    H132522   9.419   5.812   2.814
10879TIP3    H232523   9.504   5.822   2.691
10880TIP3   OH232524   8.723   5.617   2.784
10880TIP3    H132525   8.631   5.584   2.785
10880TIP3    H232526   8.772   5.532   2.780
10881TIP3   OH232527   8.508   5.486   2.430
10881TIP3    H132528   8.540   5.543   2.358
10881TIP3    H232529   8.482   5.551   2.498
10882TIP3   OH232530   9.158   5.656   2.664
10882TIP3    H132531   9.221   5.686   2.596
10882TIP3    H232532   9.200   5.685   2.746
10883TIP3   OH232533   8.229   7.054   2.209
10883TIP3    H132534   8.143   7.020   2.176
10883TIP3    H232535   8.215   7.149   2.193
10884TIP3   OH232536   8.628   5.646   2.193
10884TIP3    H132537   8.676   5.582   2.138
10884TIP3    H232538   8.701   5.699   2.230
10885TIP3   OH232539   9.140   5.821   2.292
10885TIP3    H132540   9.199   5.771   2.350
10885TIP3    H232541   9.164   5.912   2.319
10886TIP3   OH232542   8.998   7.248   1.791
10886TIP3    H132543   9.086   7.269   1.754
10886TIP3    H232544   8.975   7.174   1.731
10887TIP3   OH232545   8.932   5.900   3.674
10887TIP3    H132546   8.895   5.829   3.728
10887TIP3    H232547   9.025   5.898   3.703
10888TIP3   OH232548   9.181   5.888   3.795
10888TIP3    H132549   9.266   5.876   3.751
10888TIP3    H232550   9.179   5.813   3.856
10889TIP3   OH232551   8.307   7.088   1.853
10889TIP3    H132552   8.305   7.095   1.949
10889TIP3    H232553   8.393   7.043   1.837
10890TIP3   OH232554   0.369   7.455   4.604
10890TIP3    H132555   0.432   7.394   4.645
10890TIP3    H232556   0.406   7.540   4.624
10891TIP3   OH232557   0.881   6.700   4.981
10891TIP3    H132558   0.912   6.785   5.017
10891TIP3    H232559   0.929   6.702   4.895
10892TIP3   OH232560   0.357   6.880   5.014
10892TIP3    H132561   0.387   6.789   5.030
10892TIP3    H232562   0.332   6.872   4.920
10893TIP3   OH232563   0.310   6.639   4.610
10893TIP3    H132564   0.389   6.618   4.666
10893TIP3    H232565   0.355   6.662   4.527
10894TIP3   OH232566   0.963   6.907   5.152
10894TIP3    H132567   0.880   6.952   5.127
10894TIP3    H232568   0.972   6.937   5.244
10895TIP3   OH232569   0.529   6.635   4.775
10895TIP3    H132570   0.508   6.594   4.860
10895TIP3    H232571   0.583   6.711   4.802
10896TIP3   OH232572   0.686   6.601   5.153
10896TIP3    H132573   0.598   6.633   5.128
10896TIP3    H232574   0.741   6.631   5.078
10897TIP3   OH232575   0.233   7.530   4.359
10897TIP3    H132576   0.203   7.452   4.310
10897TIP3    H232577   0.292   7.490   4.425
10898TIP3   OH232578   0.626   7.618   5.138
10898TIP3    H132579   0.593   7.536   5.097
10898TIP3    H232580   0.599   7.684   5.071
10899TIP3   OH232581   0.824   7.242   4.977
10899TIP3    H132582   0.739   7.291   4.983
10899TIP3    H232583   0.848   7.263   4.884
10900TIP3   OH232584   0.259   7.097   4.345
10900TIP3    H132585   0.195   7.111   4.418
10900TIP3    H232586   0.336   7.061   4.393
10901TIP3   OH232587   0.504   7.143   5.252
10901TIP3    H132588   0.492   7.217   5.315
10901TIP3    H232589   0.419   7.145   5.204
10902TIP3   OH232590   0.156   6.908   4.164
10902TIP3    H132591   0.159   6.979   4.231
10902TIP3    H232592   0.136   6.958   4.084
10903TIP3   OH232593   0.609   6.189   4.234
10903TIP3    H132594   0.524   6.206   4.280
10903TIP3    H232595   0.618   6.273   4.183
10904TIP3   OH232596   0.408   7.557   3.783
10904TIP3    H132597   0.420   7.653   3.770
10904TIP3    H232598   0.499   7.524   3.768
10905TIP3   OH232599   0.863   7.950   5.171
10905TIP3    H132600   0.862   7.854   5.189
10905TIP3    H232601   0.769   7.972   5.191
10906TIP3   OH232602   0.737   7.088   5.445
10906TIP3    H132603   0.657   7.098   5.391
10906TIP3    H232604   0.754   6.992   5.438
10907TIP3   OH232605   0.282   6.432   5.459
10907TIP3    H132606   0.355   6.392   5.512
10907TIP3    H232607   0.204   6.395   5.503
10908TIP3   OH232608   0.531   6.871   5.348
10908TIP3    H132609   0.491   6.872   5.438
10908TIP3    H232610   0.482   6.944   5.306
10909TIP3   OH232611   0.151   7.020   3.908
10909TIP3    H132612   0.137   6.963   3.830
10909TIP3    H232613   0.246   7.042   3.898
10910TIP3   OH232614   0.209   6.843   4.767
10910TIP3    H132615   0.126   6.858   4.719
10910TIP3    H232616   0.239   6.762   4.720
10911TIP3   OH232617   0.384   6.606   5.030
10911TIP3    H132618   0.379   6.607   5.128
10911TIP3    H232619   0.308   6.548   5.010
10912TIP3   OH232620   0.597   7.387   4.969
10912TIP3    H132621   0.618   7.439   4.889
10912TIP3    H232622   0.501   7.375   4.962
10913TIP3   OH232623   0.114   6.483   4.177
10913TIP3    H132624   0.020   6.494   4.196
10913TIP3    H232625   0.155   6.563   4.217
10914TIP3   OH232626   0.229   6.689   4.300
10914TIP3    H132627   0.321   6.715   4.318
10914TIP3    H232628   0.195   6.769   4.255
10915TIP3   OH232629   0.626   6.811   4.149
10915TIP3    H132630   0.575   6.762   4.081
10915TIP3    H232631   0.635   6.896   4.104
10916TIP3   OH232632   0.873   7.670   5.219
10916TIP3    H132633   0.775   7.663   5.213
10916TIP3    H232634   0.897   7.637   5.130
10917TIP3   OH232635   0.338   7.631   4.048
10917TIP3    H132636   0.321   7.559   4.110
10917TIP3    H232637   0.361   7.583   3.966
10918TIP3   OH232638   0.338   7.263   4.867
10918TIP3    H132639   0.264   7.216   4.907
10918TIP3    H232640   0.383   7.189   4.821
10919TIP3   OH232641   0.428   7.842   3.774
10919TIP3    H132642   0.487   7.906   3.730
10919TIP3    H232643   0.344   7.873   3.737
10920TIP3   OH232644   0.254   7.304   4.162
10920TIP3    H132645   0.240   7.229   4.223
10920TIP3    H232646   0.350   7.294   4.146
10921TIP3   OH232647   0.378   6.631   5.294
10921TIP3    H132648   0.424   6.707   5.334
10921TIP3    H232649   0.363   6.571   5.369
10922TIP3   OH232650   0.182   6.417   4.468
10922TIP3    H132651   0.163   6.452   4.380
10922TIP3    H232652   0.206   6.498   4.517
10923TIP3   OH232653   0.791   6.817   5.369
10923TIP3    H132654   0.693   6.825   5.363
10923TIP3    H232655   0.808   6.775   5.284
10924TIP3   OH232656   0.426   7.024   4.757
10924TIP3    H132657   0.353   6.960   4.753
10924TIP3    H232658   0.498   6.974   4.802
10925TIP3   OH232659   0.459   7.907   4.710
10925TIP3    H132660   0.380   7.953   4.678
10925TIP3    H232661   0.531   7.965   4.678
10926TIP3   OH232662   0.399   7.093   3.804
10926TIP3    H132663   0.386   7.037   3.724
10926TIP3    H232664   0.380   7.180   3.765
10927TIP3   OH232665   0.499   7.106   5.704
10927TIP3    H132666   0.551   7.026   5.717
10927TIP3    H232667   0.564   7.175   5.717
10928TIP3   OH232668   0.528   7.358   5.433
10928TIP3    H132669   0.478   7.417   5.376
10928TIP3    H232670   0.620   7.373   5.400
10929TIP3   OH232671   0.415   6.847   5.587
10929TIP3    H132672   0.338   6.802   5.625
10929TIP3    H232673   0.487   6.816   5.647
10930TIP3   OH232674   0.596   6.754   5.764
10930TIP3    H132675   0.614   6.659   5.780
10930TIP3    H232676   0.591   6.793   5.853
10931TIP3   OH232677   0.653   8.087   4.662
10931TIP3    H132678   0.670   8.131   4.745
10931TIP3    H232679   0.669   8.154   4.596
10932TIP3   OH232680   0.659   8.090   4.943
10932TIP3    H132681   0.636   7.995   4.940
10932TIP3    H232682   0.746   8.085   4.985
10933TIP3   OH232683   0.713   7.769   5.508
10933TIP3    H132684   0.670   7.763   5.594
10933TIP3    H232685   0.762   7.853   5.515
10934TIP3   OH232686   0.531   7.281   4.133
10934TIP3    H132687   0.607   7.336   4.106
10934TIP3    H232688   0.565   7.244   4.218
10935TIP3   OH232689   0.639   7.172   4.355
10935TIP3    H132690   0.585   7.108   4.408
10935TIP3    H232691   0.723   7.174   4.404
10936TIP3   OH232692   0.699   7.529   4.758
10936TIP3    H132693   0.764   7.465   4.723
10936TIP3    H232694   0.719   7.609   4.706
10937TIP3   OH232695   0.527   7.811   4.957
10937TIP3    H132696   0.474   7.879   5.001
10937TIP3    H232697   0.510   7.831   4.863
10938TIP3   OH232698   0.602   7.052   3.989
10938TIP3    H132699   0.529   7.052   3.924
10938TIP3    H232700   0.574   7.126   4.046
10939TIP3   OH232701   0.475   6.721   3.936
10939TIP3    H132702   0.433   6.750   3.855
10939TIP3    H232703   0.450   6.626   3.936
10940TIP3   OH232704   0.481   6.992   4.487
10940TIP3    H132705   0.488   6.895   4.470
10940TIP3    H232706   0.472   6.997   4.584
10941TIP3   OH232707   0.773   7.423   5.345
10941TIP3    H132708   0.843   7.355   5.337
10941TIP3    H232709   0.798   7.486   5.275
10942TIP3   OH232710   0.954   7.228   5.368
10942TIP3    H132711   0.878   7.175   5.402
10942TIP3    H232712   1.027   7.164   5.382
10943TIP3   OH232713   0.419   6.453   3.927
10943TIP3    H132714   0.497   6.428   3.981
10943TIP3    H232715   0.349   6.396   3.962
10944TIP3   OH232716   0.492   6.726   4.390
10944TIP3    H132717   0.523   6.633   4.406
10944TIP3    H232718   0.548   6.749   4.312
10945TIP3   OH232719   0.637   6.889   4.873
10945TIP3    H132720   0.724   6.914   4.835
10945TIP3    H232721   0.651   6.921   4.965
10946TIP3   OH232722   0.716   7.025   5.109
10946TIP3    H132723   0.638   7.064   5.155
10946TIP3    H232724   0.751   7.103   5.061
10947TIP3   OH232725   1.150   6.611   5.672
10947TIP3    H132726   1.215   6.550   5.631
10947TIP3    H232727   1.129   6.670   5.595
10948TIP3   OH232728   0.561   6.469   4.440
10948TIP3    H132729   0.628   6.446   4.508
10948TIP3    H232730   0.511   6.385   4.431
10949TIP3   OH232731   1.034   6.760   5.475
10949TIP3    H132732   0.944   6.798   5.473
10949TIP3    H232733   1.019   6.685   5.414
10950TIP3   OH232734   0.659   6.396   4.054
10950TIP3    H132735   0.708   6.329   4.002
10950TIP3    H232736   0.720   6.473   4.052
10951TIP3   OH232737   0.926   6.520   5.354
10951TIP3    H132738   0.838   6.514   5.313
10951TIP3    H232739   0.960   6.428   5.340
10952TIP3   OH232740   0.181   6.410   4.991
10952TIP3    H132741   0.160   6.325   5.030
10952TIP3    H232742   0.255   6.385   4.932
10953TIP3   OH232743   0.661   6.324   4.872
10953TIP3    H132744   0.698   6.378   4.799
10953TIP3    H232745   0.565   6.340   4.862
10954TIP3   OH232746   0.764   6.431   4.635
10954TIP3    H132747   0.832   6.374   4.592
10954TIP3    H232748   0.801   6.519   4.618
10955TIP3   OH232749   0.385   6.318   4.838
10955TIP3    H132750   0.385   6.286   4.747
10955TIP3    H232751   0.369   6.236   4.890
10956TIP3   OH232752   0.401   6.244   4.412
10956TIP3    H132753   0.314   6.287   4.419
10956TIP3    H232754   0.383   6.155   4.449
10957TIP3   OH232755   0.367   7.901   4.069
10957TIP3    H132756   0.358   7.805   4.089
10957TIP3    H232757   0.366   7.896   3.972
10958TIP3   OH232758   0.666   6.490   5.785
10958TIP3    H132759   0.691   6.447   5.869
10958TIP3    H232760   0.751   6.485   5.734
10959TIP3   OH232761   0.608   8.025   5.224
10959TIP3    H132762   0.528   7.988   5.262
10959TIP3    H232763   0.611   8.109   5.270
10960TIP3   OH232764   1.861   7.413   4.053
10960TIP3    H132765   1.830   7.502   4.027
10960TIP3    H232766   1.791   7.360   4.010
10961TIP3   OH232767   1.871   7.413   4.422
10961TIP3    H132768   1.886   7.370   4.507
10961TIP3    H232769   1.826   7.343   4.372
10962TIP3   OH232770   1.162   7.312   4.794
10962TIP3    H132771   1.196   7.240   4.851
10962TIP3    H232772   1.245   7.355   4.769
10963TIP3   OH232773   2.155   7.689   4.137
10963TIP3    H132774   2.077   7.645   4.171
10963TIP3    H232775   2.138   7.782   4.154
10964TIP3   OH232776   1.139   7.716   4.518
10964TIP3    H132777   1.132   7.618   4.518
10964TIP3    H232778   1.236   7.725   4.507
10965TIP3   OH232779   0.852   6.986   4.286
10965TIP3    H132780   0.756   6.990   4.282
10965TIP3    H232781   0.870   6.894   4.312
10966TIP3   OH232782   0.908   7.210   4.478
10966TIP3    H132783   0.947   7.124   4.505
10966TIP3    H232784   0.937   7.213   4.386
10967TIP3   OH232785   1.762   8.176   4.118
10967TIP3    H132786   1.808   8.102   4.074
10967TIP3    H232787   1.748   8.140   4.207
10968TIP3   OH232788   1.662   7.638   4.474
10968TIP3    H132789   1.698   7.566   4.420
10968TIP3    H232790   1.747   7.682   4.497
10969TIP3   OH232791   2.668   6.960   4.467
10969TIP3    H132792   2.719   7.031   4.507
10969TIP3    H232793   2.700   6.963   4.375
10970TIP3   OH232794   2.084   7.141   4.507
10970TIP3    H132795   2.120   7.051   4.523
10970TIP3    H232796   2.049   7.130   4.416
10971TIP3   OH232797   1.423   6.799   4.470
10971TIP3    H132798   1.386   6.864   4.406
10971TIP3    H232799   1.387   6.716   4.430
10972TIP3   OH232800   2.108   6.891   4.092
10972TIP3    H132801   2.182   6.874   4.155
10972TIP3    H232802   2.158   6.926   4.016
10973TIP3   OH232803   1.037   6.983   4.569
10973TIP3    H132804   1.126   6.961   4.602
10973TIP3    H232805   1.024   6.907   4.507
10974TIP3   OH232806   1.484   7.194   4.372
10974TIP3    H132807   1.579   7.170   4.382
10974TIP3    H232808   1.445   7.110   4.340
10975TIP3   OH232809   2.775   7.159   4.646
10975TIP3    H132810   2.713   7.220   4.604
10975TIP3    H232811   2.755   7.174   4.740
10976TIP3   OH232812   1.410   6.785   4.902
10976TIP3    H132813   1.346   6.810   4.833
10976TIP3    H232814   1.357   6.802   4.983
10977TIP3   OH232815   1.748   7.629   3.925
10977TIP3    H132816   1.765   7.632   3.830
10977TIP3    H232817   1.702   7.713   3.940
10978TIP3   OH232818   1.521   7.557   4.701
10978TIP3    H132819   1.457   7.623   4.736
10978TIP3    H232820   1.560   7.606   4.625
10979TIP3   OH232821   2.321   6.889   4.260
10979TIP3    H132822   2.309   6.839   4.342
10979TIP3    H232823   2.374   6.965   4.289
10980TIP3   OH232824   1.280   6.898   4.683
10980TIP3    H132825   1.346   6.966   4.705
10980TIP3    H232826   1.325   6.853   4.609
10981TIP3   OH232827   1.347   7.752   4.797
10981TIP3    H132828   1.321   7.836   4.756
10981TIP3    H232829   1.268   7.736   4.852
10982TIP3   OH232830   0.741   7.442   4.032
10982TIP3    H132831   0.704   7.469   3.946
10982TIP3    H232832   0.774   7.525   4.069
10983TIP3   OH232833   2.186   7.965   4.282
10983TIP3    H132834   2.095   7.951   4.317
10983TIP3    H232835   2.173   8.047   4.231
10984TIP3   OH232836   2.464   6.874   4.641
10984TIP3    H132837   2.376   6.877   4.599
10984TIP3    H232838   2.524   6.893   4.566
10985TIP3   OH232839   1.776   6.506   4.629
10985TIP3    H132840   1.754   6.412   4.625
10985TIP3    H232841   1.693   6.542   4.667
10986TIP3   OH232842   1.891   7.993   3.953
10986TIP3    H132843   1.925   7.913   3.909
10986TIP3    H232844   1.940   8.060   3.902
10987TIP3   OH232845   2.405   7.868   4.616
10987TIP3    H132846   2.394   7.793   4.553
10987TIP3    H232847   2.386   7.945   4.558
10988TIP3   OH232848   1.699   7.265   3.876
10988TIP3    H132849   1.620   7.318   3.854
10988TIP3    H232850   1.745   7.263   3.790
10989TIP3   OH232851   1.655   7.048   3.589
10989TIP3    H132852   1.721   7.101   3.637
10989TIP3    H232853   1.714   6.985   3.542
10990TIP3   OH232854   2.610   7.504   4.470
10990TIP3    H132855   2.521   7.546   4.472
10990TIP3    H232856   2.636   7.527   4.378
10991TIP3   OH232857   2.038   7.311   3.860
10991TIP3    H132858   1.989   7.361   3.928
10991TIP3    H232859   2.129   7.319   3.891
10992TIP3   OH232860   1.275   7.344   4.262
10992TIP3    H132861   1.232   7.286   4.195
10992TIP3    H232862   1.351   7.289   4.291
10993TIP3   OH232863   1.403   7.752   4.412
10993TIP3    H132864   1.384   7.716   4.324
10993TIP3    H232865   1.494   7.719   4.428
10994TIP3   OH232866   1.414   7.313   4.622
10994TIP3    H132867   1.440   7.291   4.530
10994TIP3    H232868   1.455   7.401   4.635
10995TIP3   OH232869   1.940   7.950   4.391
10995TIP3    H132870   1.925   8.034   4.438
10995TIP3    H232871   1.922   7.881   4.458
10996TIP3   OH232872   1.552   7.869   4.944
10996TIP3    H132873   1.491   7.934   4.986
10996TIP3    H232874   1.487   7.817   4.891
10997TIP3   OH232875   1.881   7.200   3.669
10997TIP3    H132876   1.941   7.255   3.725
10997TIP3    H232877   1.911   7.224   3.579
10998TIP3   OH232878   1.310   7.427   5.047
10998TIP3    H132879   1.310   7.515   5.089
10998TIP3    H232880   1.214   7.408   5.046
10999TIP3   OH232881   1.624   7.895   3.956
10999TIP3    H132882   1.709   7.941   3.961
10999TIP3    H232883   1.570   7.955   3.904
11000TIP3   OH232884   1.348   8.040   5.025
11000TIP3    H132885   1.313   8.041   4.934
11000TIP3    H232886   1.268   8.018   5.078
11001TIP3   OH232887   2.401   6.444   3.720
11001TIP3    H132888   2.319   6.465   3.770
11001TIP3    H232889   2.415   6.527   3.670
11002TIP3   OH232890   1.143   7.185   4.068
11002TIP3    H132891   1.077   7.227   4.010
11002TIP3    H232892   1.100   7.101   4.088
11003TIP3   OH232893   2.196   7.813   3.240
11003TIP3    H132894   2.205   7.910   3.249
11003TIP3    H232895   2.289   7.783   3.249
11004TIP3   OH232896   0.926   7.570   4.974
11004TIP3    H132897   0.868   7.542   4.901
11004TIP3    H232898   0.965   7.484   5.003
11005TIP3   OH232899   0.786   7.763   4.617
11005TIP3    H132900   0.878   7.746   4.592
11005TIP3    H232901   0.796   7.844   4.669
11006TIP3   OH232902   2.644   8.217   4.664
11006TIP3    H132903   2.640   8.120   4.673
11006TIP3    H232904   2.560   8.242   4.708
11007TIP3   OH232905   1.752   7.997   4.799
11007TIP3    H132906   1.751   8.091   4.828
11007TIP3    H232907   1.679   7.961   4.853
11008TIP3   OH232908   1.503   8.124   3.753
11008TIP3    H132909   1.467   8.109   3.664
11008TIP3    H232910   1.478   8.216   3.771
11009TIP3   OH232911   0.946   7.979   4.134
11009TIP3    H132912   1.001   7.968   4.215
11009TIP3    H232913   0.897   7.895   4.135
11010TIP3   OH232914   1.713   8.028   3.389
11010TIP3    H132915   1.770   7.956   3.355
11010TIP3    H232916   1.748   8.037   3.480
11011TIP3   OH232917   1.761   8.088   3.657
11011TIP3    H132918   1.681   8.079   3.712
11011TIP3    H232919   1.815   8.009   3.684
11012TIP3   OH232920   1.130   7.754   4.963
11012TIP3    H132921   1.180   7.735   5.045
11012TIP3    H232922   1.056   7.690   4.969
11013TIP3   OH232923   1.531   6.578   4.745
11013TIP3    H132924   1.442   6.546   4.719
11013TIP3    H232925   1.503   6.661   4.789
11014TIP3   OH232926   2.059   6.692   4.940
11014TIP3    H132927   2.127   6.664   5.005
11014TIP3    H232928   1.975   6.670   4.987
11015TIP3   OH232929   1.962   7.240   3.414
11015TIP3    H132930   1.932   7.221   3.323
11015TIP3    H232931   2.030   7.308   3.398
11016TIP3   OH232932   1.676   6.624   3.717
11016TIP3    H132933   1.642   6.622   3.808
11016TIP3    H232934   1.635   6.542   3.683
11017TIP3   OH232935   1.466   7.091   4.767
11017TIP3    H132936   1.409   7.108   4.845
11017TIP3    H232937   1.448   7.171   4.713
11018TIP3   OH232938   1.333   6.970   4.279
11018TIP3    H132939   1.239   6.947   4.285
11018TIP3    H232940   1.353   6.932   4.190
11019TIP3   OH232941   1.835   7.065   4.008
11019TIP3    H132942   1.782   7.137   3.967
11019TIP3    H232943   1.891   7.038   3.933
11020TIP3   OH232944   2.014   7.343   5.093
11020TIP3    H132945   1.986   7.271   5.153
11020TIP3    H232946   2.108   7.352   5.119
11021TIP3   OH232947   1.993   7.096   4.247
11021TIP3    H132948   1.934   7.128   4.176
11021TIP3    H232949   2.024   7.014   4.203
11022TIP3   OH232950   1.281   7.122   4.972
11022TIP3    H132951   1.308   7.182   5.042
11022TIP3    H232952   1.269   7.038   5.020
11023TIP3   OH232953   1.330   6.598   3.684
11023TIP3    H132954   1.320   6.597   3.781
11023TIP3    H232955   1.253   6.652   3.658
11024TIP3   OH232956   0.835   6.605   4.049
11024TIP3    H132957   0.902   6.654   3.999
11024TIP3    H232958   0.819   6.665   4.124
11025TIP3   OH232959   2.046   7.334   4.692
11025TIP3    H132960   2.051   7.271   4.616
11025TIP3    H232961   1.984   7.283   4.750
11026TIP3   OH232962   1.674   6.800   4.340
11026TIP3    H132963   1.586   6.796   4.384
11026TIP3    H232964   1.733   6.800   4.417
11027TIP3   OH232965   1.378   6.854   4.035
11027TIP3    H132966   1.471   6.870   4.009
11027TIP3    H232967   1.328   6.876   3.953
11028TIP3   OH232968   2.168   6.875   4.544
11028TIP3    H132969   2.139   6.885   4.637
11028TIP3    H232970   2.101   6.812   4.510
11029TIP3   OH232971   1.218   6.885   3.817
11029TIP3    H132972   1.141   6.844   3.773
11029TIP3    H232973   1.267   6.920   3.740
11030TIP3   OH232974   2.335   8.561   4.761
11030TIP3    H132975   2.328   8.588   4.667
11030TIP3    H232976   2.407   8.618   4.792
11031TIP3   OH232977   1.289   7.676   5.184
11031TIP3    H132978   1.370   7.706   5.229
11031TIP3    H232979   1.227   7.675   5.259
11032TIP3   OH232980   1.757   7.131   4.442
11032TIP3    H132981   1.823   7.086   4.388
11032TIP3    H232982   1.761   7.081   4.526
11033TIP3   OH232983   1.337   6.590   4.320
11033TIP3    H132984   1.252   6.576   4.366
11033TIP3    H232985   1.310   6.580   4.229
11034TIP3   OH232986   1.734   7.026   4.724
11034TIP3    H132987   1.642   7.057   4.739
11034TIP3    H232988   1.786   7.087   4.779
11035TIP3   OH232989   1.468   7.415   3.822
11035TIP3    H132990   1.395   7.350   3.813
11035TIP3    H232991   1.451   7.450   3.913
11036TIP3   OH232992   2.369   7.644   4.454
11036TIP3    H132993   2.396   7.695   4.375
11036TIP3    H232994   2.283   7.606   4.425
11037TIP3   OH232995   1.927   6.728   3.684
11037TIP3    H132996   1.830   6.712   3.692
11037TIP3    H232997   1.936   6.823   3.708
11038TIP3   OH232998   1.875   7.735   4.821
11038TIP3    H132999   1.881   7.716   4.915
11038TIP3    H233000   1.834   7.823   4.820
11039TIP3   OH233001   1.996   6.976   3.787
11039TIP3    H133002   2.092   6.988   3.804
11039TIP3    H233003   1.973   7.057   3.738
11040TIP3   OH233004   1.166   7.444   4.499
11040TIP3    H133005   1.196   7.413   4.411
11040TIP3    H233006   1.191   7.370   4.555
11041TIP3   OH233007   1.608   7.560   3.633
11041TIP3    H133008   1.569   7.649   3.647
11041TIP3    H233009   1.563   7.509   3.704
11042TIP3   OH233010   1.040   7.363   5.115
11042TIP3    H133011   1.060   7.343   5.208
11042TIP3    H233012   0.976   7.293   5.091
11043TIP3   OH233013   1.766   7.472   5.132
11043TIP3    H133014   1.704   7.414   5.084
11043TIP3    H233015   1.852   7.438   5.100
11044TIP3   OH233016   2.032   7.985   4.721
11044TIP3    H133017   1.935   7.992   4.726
11044TIP3    H233018   2.057   8.045   4.795
11045TIP3   OH233019   2.441   7.065   3.624
11045TIP3    H133020   2.379   7.020   3.562
11045TIP3    H233021   2.435   7.154   3.583
11046TIP3   OH233022   2.656   7.921   4.705
11046TIP3    H133023   2.559   7.919   4.693
11046TIP3    H233024   2.684   7.893   4.614
11047TIP3   OH233025   2.136   7.502   4.394
11047TIP3    H133026   2.040   7.484   4.391
11047TIP3    H233027   2.168   7.439   4.327
11048TIP3   OH233028   1.264   7.743   4.129
11048TIP3    H133029   1.269   7.822   4.071
11048TIP3    H233030   1.170   7.726   4.131
11049TIP3   OH233031   0.822   7.049   3.826
11049TIP3    H133032   0.872   7.130   3.849
11049TIP3    H233033   0.748   7.053   3.890
11050TIP3   OH233034   1.398   7.506   4.068
11050TIP3    H133035   1.367   7.596   4.086
11050TIP3    H233036   1.359   7.456   4.142
11051TIP3   OH233037   1.529   8.083   4.594
11051TIP3    H133038   1.569   8.152   4.536
11051TIP3    H233039   1.608   8.053   4.641
11052TIP3   OH233040   1.180   7.982   3.975
11052TIP3    H133041   1.095   7.992   4.022
11052TIP3    H233042   1.214   8.074   3.978
11053TIP3   OH233043   1.917   7.717   4.551
11053TIP3    H133044   1.912   7.718   4.649
11053TIP3    H233045   1.996   7.664   4.534
11054TIP3   OH233046   1.898   7.606   3.440
11054TIP3    H133047   1.933   7.663   3.512
11054TIP3    H233048   1.813   7.579   3.479
11055TIP3   OH233049   2.169   8.253   4.599
11055TIP3    H133050   2.086   8.201   4.591
11055TIP3    H233051   2.156   8.319   4.527
11056TIP3   OH233052   2.234   8.090   3.257
11056TIP3    H133053   2.271   8.162   3.204
11056TIP3    H233054   2.153   8.134   3.290
11057TIP3   OH233055   1.252   6.868   5.121
11057TIP3    H133056   1.155   6.866   5.126
11057TIP3    H233057   1.276   6.802   5.188
11058TIP3   OH233058   0.967   7.939   4.756
11058TIP3    H133059   1.028   7.871   4.787
11058TIP3    H233060   1.002   8.017   4.800
11059TIP3   OH233061   1.256   7.596   3.435
11059TIP3    H133062   1.276   7.506   3.404
11059TIP3    H233063   1.239   7.580   3.530
11060TIP3   OH233064   1.202   7.598   3.711
11060TIP3    H133065   1.282   7.570   3.758
11060TIP3    H233066   1.209   7.696   3.715
11061TIP3   OH233067   0.941   7.291   3.909
11061TIP3    H133068   0.876   7.335   3.966
11061TIP3    H233069   0.958   7.360   3.843
11062TIP3   OH233070   2.104   6.929   4.811
11062TIP3    H133071   2.145   6.966   4.892
11062TIP3    H233072   2.073   6.843   4.846
11063TIP3   OH233073   1.974   6.678   3.964
11063TIP3    H133074   1.955   6.701   3.871
11063TIP3    H233075   2.008   6.763   4.000
11064TIP3   OH233076   1.469   7.794   3.657
11064TIP3    H133077   1.382   7.826   3.690
11064TIP3    H233078   1.491   7.863   3.594
11065TIP3   OH233079   1.664   6.856   4.067
11065TIP3    H133080   1.725   6.930   4.049
11065TIP3    H233081   1.665   6.853   4.165
11066TIP3   OH233082   1.927   7.178   4.878
11066TIP3    H133083   1.943   7.233   4.957
11066TIP3    H233084   1.983   7.101   4.897
11067TIP3   OH233085   1.805   6.590   4.173
11067TIP3    H133086   1.787   6.670   4.224
11067TIP3    H233087   1.865   6.624   4.103
11068TIP3   OH233088   1.211   7.872   3.721
11068TIP3    H133089   1.183   7.943   3.659
11068TIP3    H233090   1.198   7.916   3.808
11069TIP3   OH233091   1.314   6.585   3.961
11069TIP3    H133092   1.311   6.677   3.996
11069TIP3    H233093   1.410   6.568   3.971
11070TIP3   OH233094   2.521   7.116   4.817
11070TIP3    H133095   2.467   7.069   4.882
11070TIP3    H233096   2.535   7.046   4.752
11071TIP3   OH233097   2.216   7.272   4.245
11071TIP3    H133098   2.138   7.213   4.251
11071TIP3    H233099   2.287   7.218   4.284
11072TIP3   OH233100   0.931   7.504   3.713
11072TIP3    H133101   1.004   7.568   3.724
11072TIP3    H233102   0.974   7.445   3.647
11073TIP3   OH233103   0.889   6.782   3.824
11073TIP3    H133104   0.875   6.878   3.832
11073TIP3    H233105   0.801   6.747   3.839
11074TIP3   OH233106   2.188   8.231   4.195
11074TIP3    H133107   2.144   8.276   4.119
11074TIP3    H233108   2.282   8.248   4.171
11075TIP3   OH233109   1.268   6.501   4.727
11075TIP3    H133110   1.238   6.473   4.637
11075TIP3    H233111   1.252   6.419   4.779
11076TIP3   OH233112   0.807   7.721   4.106
11076TIP3    H133113   0.728   7.749   4.153
11076TIP3    H233114   0.789   7.756   4.017
11077TIP3   OH233115   0.957   8.252   5.181
11077TIP3    H133116   1.046   8.256   5.223
11077TIP3    H233117   0.947   8.156   5.171
11078TIP3   OH233118   1.437   8.219   5.222
11078TIP3    H133119   1.533   8.211   5.225
11078TIP3    H233120   1.415   8.162   5.145
11079TIP3   OH233121   1.423   7.797   3.348
11079TIP3    H133122   1.367   7.726   3.385
11079TIP3    H233123   1.499   7.745   3.316
11080TIP3   OH233124   2.081   8.127   4.953
11080TIP3    H133125   2.074   8.058   5.023
11080TIP3    H233126   2.156   8.181   4.984
11081TIP3   OH233127   1.862   7.836   3.257
11081TIP3    H133128   1.911   7.788   3.326
11081TIP3    H233129   1.925   7.832   3.182
11082TIP3   OH233130   1.093   7.661   5.380
11082TIP3    H133131   1.112   7.565   5.379
11082TIP3    H233132   1.010   7.664   5.328
11083TIP3   OH233133   1.065   7.315   3.569
11083TIP3    H133134   1.122   7.280   3.640
11083TIP3    H233135   1.132   7.320   3.496
11084TIP3   OH233136   1.698   7.748   5.148
11084TIP3    H133137   1.654   7.767   5.062
11084TIP3    H233138   1.726   7.655   5.138
11085TIP3   OH233139   1.568   7.510   3.369
11085TIP3    H133140   1.578   7.525   3.465
11085TIP3    H233141   1.571   7.412   3.366
11086TIP3   OH233142   2.194   7.752   4.759
11086TIP3    H133143   2.263   7.803   4.713
11086TIP3    H233144   2.119   7.815   4.750
11087TIP3   OH233145   1.209   7.399   5.357
11087TIP3    H133146   1.283   7.345   5.330
11087TIP3    H233147   1.237   7.429   5.446
11088TIP3   OH233148   1.273   7.217   3.789
11088TIP3    H133149   1.248   7.174   3.873
11088TIP3    H233150   1.310   7.142   3.738
11089TIP3   OH233151   1.548   7.285   5.021
11089TIP3    H133152   1.467   7.341   5.022
11089TIP3    H233153   1.593   7.316   4.940
11090TIP3   OH233154   1.376   7.011   3.630
11090TIP3    H133155   1.350   7.016   3.535
11090TIP3    H233156   1.473   7.017   3.622
11091TIP3   OH233157   2.055   7.683   5.157
11091TIP3    H133158   2.138   7.662   5.113
11091TIP3    H233159   2.051   7.615   5.226
11092TIP3   OH233160   2.206   7.342   3.286
11092TIP3    H133161   2.174   7.299   3.205
11092TIP3    H233162   2.170   7.433   3.271
11093TIP3   OH233163   1.669   7.071   5.143
11093TIP3    H133164   1.667   6.990   5.087
11093TIP3    H233165   1.624   7.136   5.086
11094TIP3   OH233166   1.669   6.858   4.951
11094TIP3    H133167   1.696   6.896   4.865
11094TIP3    H233168   1.576   6.834   4.933
11095TIP3   OH233169   1.700   7.396   4.826
11095TIP3    H133170   1.779   7.405   4.772
11095TIP3    H233171   1.639   7.459   4.783
11096TIP3   OH233172   2.278   7.357   5.202
11096TIP3    H133173   2.318   7.273   5.233
11096TIP3    H233174   2.353   7.418   5.206
11097TIP3   OH233175   2.327   7.584   4.915
11097TIP3    H133176   2.267   7.652   4.876
11097TIP3    H233177   2.414   7.624   4.890
11098TIP3   OH233178   1.546   7.182   5.375
11098TIP3    H133179   1.478   7.113   5.388
11098TIP3    H233180   1.580   7.159   5.286
11099TIP3   OH233181   1.801   6.620   5.018
11099TIP3    H133182   1.751   6.701   4.994
11099TIP3    H233183   1.733   6.551   5.005
11100TIP3   OH233184   1.928   7.127   5.232
11100TIP3    H133185   1.917   7.111   5.327
11100TIP3    H233186   1.839   7.101   5.200
11101TIP3   OH233187   2.161   7.060   5.063
11101TIP3    H133188   2.092   7.069   5.132
11101TIP3    H233189   2.240   7.040   5.119
11102TIP3   OH233190   2.377   7.012   5.226
11102TIP3    H133191   2.406   6.921   5.247
11102TIP3    H233192   2.395   7.057   5.311
11103TIP3   OH233193   1.385   6.963   5.427
11103TIP3    H133194   1.389   6.872   5.390
11103TIP3    H233195   1.423   6.947   5.516
11104TIP3   OH233196   1.899   6.631   5.274
11104TIP3    H133197   1.964   6.559   5.268
11104TIP3    H233198   1.857   6.625   5.186
11105TIP3   OH233199   1.965   6.846   5.433
11105TIP3    H133200   1.943   6.774   5.370
11105TIP3    H233201   1.886   6.903   5.427
11106TIP3   OH233202   1.184   8.076   3.534
11106TIP3    H133203   1.279   8.068   3.516
11106TIP3    H233204   1.156   8.124   3.453
11107TIP3   OH233205   0.663   7.456   3.751
11107TIP3    H133206   0.758   7.479   3.736
11107TIP3    H233207   0.660   7.366   3.711
11108TIP3   OH233208   0.579   8.065   4.160
11108TIP3    H133209   0.511   8.003   4.126
11108TIP3    H233210   0.622   8.010   4.230
11109TIP3   OH233211   0.706   7.925   4.356
11109TIP3    H133212   0.707   7.850   4.418
11109TIP3    H233213   0.769   7.985   4.400
11110TIP3   OH233214   2.444   8.316   4.151
11110TIP3    H133215   2.467   8.352   4.238
11110TIP3    H233216   2.501   8.366   4.091
11111TIP3   OH233217   2.471   8.341   4.433
11111TIP3    H133218   2.425   8.254   4.427
11111TIP3    H233219   2.546   8.316   4.489
11112TIP3   OH233220   2.519   8.014   5.009
11112TIP3    H133221   2.444   8.024   5.071
11112TIP3    H233222   2.558   8.103   5.009
11113TIP3   OH233223   2.356   7.515   3.609
11113TIP3    H133224   2.410   7.594   3.600
11113TIP3    H233225   2.376   7.486   3.700
11114TIP3   OH233226   2.467   7.393   3.833
11114TIP3    H133227   2.397   7.351   3.888
11114TIP3    H233228   2.519   7.441   3.900
11115TIP3   OH233229   2.520   7.789   4.271
11115TIP3    H133230   2.561   7.723   4.213
11115TIP3    H233231   2.499   7.861   4.209
11116TIP3   OH233232   2.349   8.090   4.462
11116TIP3    H133233   2.276   8.135   4.509
11116TIP3    H233234   2.300   8.044   4.391
11117TIP3   OH233235   2.401   7.291   3.469
11117TIP3    H133236   2.328   7.299   3.403
11117TIP3    H233237   2.381   7.371   3.523
11118TIP3   OH233238   2.276   6.972   3.429
11118TIP3    H133239   2.226   7.021   3.363
11118TIP3    H233240   2.246   6.880   3.413
11119TIP3   OH233241   2.287   7.254   3.980
11119TIP3    H133242   2.279   7.157   3.971
11119TIP3    H233243   2.264   7.269   4.074
11120TIP3   OH233244   0.898   7.338   4.724
11120TIP3    H133245   0.897   7.300   4.633
11120TIP3    H233246   0.995   7.337   4.741
11121TIP3   OH233247   2.565   7.680   4.830
11121TIP3    H133248   2.636   7.613   4.820
11121TIP3    H233249   2.591   7.749   4.766
11122TIP3   OH233250   2.733   7.468   4.862
11122TIP3    H133251   2.688   7.391   4.899
11122TIP3    H233252   2.824   7.435   4.861
11123TIP3   OH233253   2.215   6.706   3.412
11123TIP3    H133254   2.284   6.679   3.475
11123TIP3    H233255   2.137   6.653   3.438
11124TIP3   OH233256   2.271   6.970   3.874
11124TIP3    H133257   2.312   6.882   3.887
11124TIP3    H233258   2.327   7.005   3.803
11125TIP3   OH233259   2.433   7.141   4.355
11125TIP3    H133260   2.522   7.163   4.319
11125TIP3    H233261   2.438   7.184   4.441
11126TIP3   OH233262   1.119   7.016   5.404
11126TIP3    H133263   1.216   7.008   5.399
11126TIP3    H233264   1.097   6.929   5.442
11127TIP3   OH233265   2.382   6.718   3.907
11127TIP3    H133266   2.427   6.702   3.992
11127TIP3    H233267   2.319   6.643   3.905
11128TIP3   OH233268   1.082   6.707   4.790
11128TIP3    H133269   1.133   6.630   4.760
11128TIP3    H233270   1.120   6.776   4.733
11129TIP3   OH233271   0.881   6.984   4.798
11129TIP3    H133272   0.928   6.963   4.714
11129TIP3    H233273   0.927   7.064   4.824
11130TIP3   OH233274   2.831   6.988   4.936
11130TIP3    H133275   2.777   7.049   4.989
11130TIP3    H233276   2.857   6.935   5.015
11131TIP3   OH233277   2.462   6.652   3.545
11131TIP3    H133278   2.500   6.583   3.487
11131TIP3    H233279   2.526   6.726   3.534
11132TIP3   OH233280   2.023   8.187   3.812
11132TIP3    H133281   2.070   8.162   3.730
11132TIP3    H233282   2.083   8.252   3.851
11133TIP3   OH233283   1.089   6.566   5.122
11133TIP3    H133284   1.030   6.559   5.198
11133TIP3    H233285   1.028   6.602   5.054
11134TIP3   OH233286   1.132   7.993   5.194
11134TIP3    H133287   1.042   7.963   5.174
11134TIP3    H233288   1.141   7.972   5.288
11135TIP3   OH233289   1.303   8.023   4.741
11135TIP3    H133290   1.257   8.100   4.700
11135TIP3    H233291   1.390   8.035   4.697
11136TIP3   OH233292   1.746   8.264   4.880
11136TIP3    H133293   1.792   8.273   4.966
11136TIP3    H233294   1.809   8.312   4.821
11137TIP3   OH233295   1.941   8.395   4.747
11137TIP3    H133296   2.019   8.365   4.700
11137TIP3    H233297   1.978   8.469   4.800
11138TIP3   OH233298   0.978   8.273   4.766
11138TIP3    H133299   0.893   8.313   4.738
11138TIP3    H233300   0.991   8.319   4.850
11139TIP3   OH233301   1.215   8.255   4.621
11139TIP3    H133302   1.128   8.268   4.664
11139TIP3    H233303   1.198   8.288   4.531
11140TIP3   OH233304   1.639   8.261   4.409
11140TIP3    H133305   1.577   8.294   4.343
11140TIP3    H233306   1.656   8.344   4.461
11141TIP3   OH233307   1.913   8.221   4.467
11141TIP3    H133308   1.818   8.233   4.451
11141TIP3    H233309   1.948   8.307   4.439
11142TIP3   OH233310   2.128   8.422   4.388
11142TIP3    H133311   2.107   8.504   4.340
11142TIP3    H233312   2.145   8.359   4.315
11143TIP3   OH233313   0.903   8.072   4.487
11143TIP3    H133314   0.910   8.051   4.582
11143TIP3    H233315   0.979   8.022   4.450
11144TIP3   OH233316   1.097   7.932   4.355
11144TIP3    H133317   1.114   7.850   4.406
11144TIP3    H233318   1.187   7.971   4.352
11145TIP3   OH233319   1.355   8.041   4.369
11145TIP3    H133320   1.390   7.951   4.354
11145TIP3    H233321   1.399   8.062   4.454
11146TIP3   OH233322   1.935   6.698   4.469
11146TIP3    H133323   1.884   6.630   4.517
11146TIP3    H233324   1.992   6.645   4.411
11147TIP3   OH233325   2.453   6.580   4.366
11147TIP3    H133326   2.487   6.630   4.288
11147TIP3    H233327   2.357   6.592   4.357
11148TIP3   OH233328   2.546   6.673   4.126
11148TIP3    H133329   2.619   6.624   4.084
11148TIP3    H233330   2.577   6.765   4.112
11149TIP3   OH233331   1.184   6.399   4.493
11149TIP3    H133332   1.090   6.383   4.475
11149TIP3    H233333   1.225   6.314   4.469
11150TIP3   OH233334   0.966   6.275   4.112
11150TIP3    H133335   0.994   6.331   4.037
11150TIP3    H233336   0.928   6.341   4.171
11151TIP3   OH233337   1.641   6.420   4.356
11151TIP3    H133338   1.685   6.484   4.297
11151TIP3    H233339   1.601   6.478   4.421
11152TIP3   OH233340   2.176   6.583   4.334
11152TIP3    H133341   2.157   6.548   4.246
11152TIP3    H233342   2.158   6.504   4.391
11153TIP3   OH233343   2.197   6.506   3.900
11153TIP3    H133344   2.111   6.552   3.912
11153TIP3    H233345   2.179   6.421   3.945
11154TIP3   OH233346   0.677   7.844   3.904
11154TIP3    H133347   0.592   7.814   3.869
11154TIP3    H233348   0.672   7.939   3.883
11155TIP3   OH233349   1.081   6.431   3.883
11155TIP3    H133350   1.131   6.372   3.824
11155TIP3    H233351   1.152   6.487   3.920
11156TIP3   OH233352   1.593   6.608   3.981
11156TIP3    H133353   1.647   6.559   4.045
11156TIP3    H233354   1.615   6.700   4.007
11157TIP3   OH233355   1.452   8.035   3.482
11157TIP3    H133356   1.542   8.055   3.448
11157TIP3    H233357   1.431   7.959   3.424
11158TIP3   OH233358   2.170   8.137   3.574
11158TIP3    H133359   2.139   8.044   3.572
11158TIP3    H233360   2.125   8.174   3.496
11159TIP3   OH233361   1.382   6.685   5.370
11159TIP3    H133362   1.352   6.610   5.424
11159TIP3    H233363   1.477   6.686   5.393
11160TIP3   OH233364   1.634   6.686   5.483
11160TIP3    H133365   1.717   6.656   5.443
11160TIP3    H233366   1.620   6.618   5.553
11161TIP3   OH233367   0.756   7.869   3.541
11161TIP3    H133368   0.769   7.895   3.633
11161TIP3    H233369   0.843   7.825   3.521
11162TIP3   OH233370   2.460   6.744   5.272
11162TIP3    H133371   2.473   6.717   5.365
11162TIP3    H233372   2.549   6.729   5.236
11163TIP3   OH233373   2.396   8.294   4.764
11163TIP3    H133374   2.318   8.263   4.713
11163TIP3    H233375   2.377   8.390   4.766
11164TIP3   OH233376   3.664   7.669   3.527
11164TIP3    H133377   3.635   7.761   3.508
11164TIP3    H233378   3.587   7.619   3.496
11165TIP3   OH233379   3.664   7.667   3.910
11165TIP3    H133380   3.695   7.640   3.998
11165TIP3    H233381   3.621   7.587   3.878
11166TIP3   OH233382   2.964   7.567   4.275
11166TIP3    H133383   2.996   7.499   4.337
11166TIP3    H233384   3.044   7.620   4.260
11167TIP3   OH233385   3.907   7.970   3.591
11167TIP3    H133386   3.890   7.902   3.657
11167TIP3    H233387   3.935   8.046   3.646
11168TIP3   OH233388   2.935   7.975   4.002
11168TIP3    H133389   2.925   7.877   4.004
11168TIP3    H233390   3.031   7.983   3.993
11169TIP3   OH233391   2.641   7.176   3.786
11169TIP3    H133392   2.591   7.258   3.803
11169TIP3    H233393   2.571   7.123   3.744
11170TIP3   OH233394   2.706   7.470   3.963
11170TIP3    H133395   2.752   7.389   3.994
11170TIP3    H233396   2.749   7.488   3.879
11171TIP3   OH233397   3.556   8.433   3.607
11171TIP3    H133398   3.602   8.361   3.559
11171TIP3    H233399   3.546   8.395   3.695
11172TIP3   OH233400   3.461   7.894   3.959
11172TIP3    H133401   3.499   7.818   3.912
11172TIP3    H233402   3.544   7.939   3.984
11173TIP3   OH233403   4.474   7.215   3.956
11173TIP3    H133404   4.503   7.297   4.002
11173TIP3    H233405   4.495   7.237   3.863
11174TIP3   OH233406   3.873   7.397   3.991
11174TIP3    H133407   3.915   7.311   4.012
11174TIP3    H233408   3.842   7.380   3.900
11175TIP3   OH233409   3.211   7.054   3.956
11175TIP3    H133410   3.191   7.127   3.894
11175TIP3    H233411   3.164   6.981   3.911
11176TIP3   OH233412   3.906   7.146   3.579
11176TIP3    H133413   3.977   7.130   3.644
11176TIP3    H233414   3.958   7.182   3.505
11177TIP3   OH233415   2.843   7.253   4.065
11177TIP3    H133416   2.927   7.235   4.110
11177TIP3    H233417   2.854   7.199   3.984
11178TIP3   OH233418   3.285   7.454   3.856
11178TIP3    H133419   3.379   7.429   3.869
11178TIP3    H233420   3.246   7.370   3.824
11179TIP3   OH233421   4.547   7.422   4.125
11179TIP3    H133422   4.462   7.469   4.109
11179TIP3    H233423   4.564   7.447   4.217
11180TIP3   OH233424   3.205   7.035   4.391
11180TIP3    H133425   3.149   7.075   4.321
11180TIP3    H233426   3.148   7.047   4.469
11181TIP3   OH233427   3.560   7.893   3.395
11181TIP3    H133428   3.510   7.869   3.315
11181TIP3    H233429   3.513   7.975   3.422
11182TIP3   OH233430   3.315   7.814   4.186
11182TIP3    H133431   3.252   7.880   4.223
11182TIP3    H233432   3.356   7.864   4.113
11183TIP3   OH233433   4.116   7.148   3.751
11183TIP3    H133434   4.102   7.102   3.835
11183TIP3    H233435   4.168   7.226   3.778
11184TIP3   OH233436   3.080   7.152   4.175
11184TIP3    H133437   3.141   7.226   4.196
11184TIP3    H233438   3.127   7.113   4.098
11185TIP3   OH233439   3.143   8.008   4.284
11185TIP3    H133440   3.117   8.093   4.243
11185TIP3    H233441   3.063   7.992   4.339
11186TIP3   OH233442   2.550   7.704   3.519
11186TIP3    H133443   2.493   7.723   3.442
11186TIP3    H233444   2.572   7.793   3.552
11187TIP3   OH233445   3.976   8.213   3.758
11187TIP3    H133446   3.887   8.204   3.799
11187TIP3    H233447   3.968   8.300   3.714
11188TIP3   OH233448   4.267   7.114   4.121
11188TIP3    H133449   4.179   7.145   4.091
11188TIP3    H233450   4.326   7.147   4.050
11189TIP3   OH233451   3.563   6.758   4.102
11189TIP3    H133452   3.554   6.663   4.121
11189TIP3    H233453   3.486   6.794   4.150
11190TIP3   OH233454   3.681   8.259   3.434
11190TIP3    H133455   3.730   8.177   3.413
11190TIP3    H233456   3.741   8.325   3.393
11191TIP3   OH233457   3.824   8.042   3.338
11191TIP3    H133458   3.770   7.968   3.310
11191TIP3    H233459   3.860   8.010   3.423
11192TIP3   OH233460   4.202   8.127   4.103
11192TIP3    H133461   4.191   8.049   4.044
11192TIP3    H233462   4.185   8.201   4.041
11193TIP3   OH233463   3.494   7.520   3.360
11193TIP3    H133464   3.413   7.571   3.341
11193TIP3    H233465   3.537   7.517   3.273
11194TIP3   OH233466   3.453   7.304   3.076
11194TIP3    H133467   3.520   7.355   3.125
11194TIP3    H233468   3.510   7.241   3.029
11195TIP3   OH233469   4.397   7.762   3.946
11195TIP3    H133470   4.314   7.814   3.953
11195TIP3    H233471   4.427   7.788   3.856
11196TIP3   OH233472   3.842   7.603   3.332
11196TIP3    H133473   3.786   7.627   3.409
11196TIP3    H233474   3.925   7.577   3.377
11197TIP3   OH233475   4.077   7.642   4.244
11197TIP3    H133476   4.074   7.725   4.296
11197TIP3    H233477   3.990   7.647   4.199
11198TIP3   OH233478   3.073   7.600   3.748
11198TIP3    H133479   3.031   7.543   3.681
11198TIP3    H233480   3.149   7.546   3.776
11199TIP3   OH233481   3.203   8.012   3.897
11199TIP3    H133482   3.181   7.971   3.812
11199TIP3    H233483   3.293   7.976   3.914
11200TIP3   OH233484   3.214   7.570   4.105
11200TIP3    H133485   3.242   7.550   4.014
11200TIP3    H233486   3.254   7.657   4.122
11201TIP3   OH233487   3.736   8.209   3.880
11201TIP3    H133488   3.722   8.289   3.934
11201TIP3    H233489   3.720   8.136   3.943
11202TIP3   OH233490   3.348   8.129   4.427
11202TIP3    H133491   3.287   8.191   4.473
11202TIP3    H233492   3.283   8.075   4.376
11203TIP3   OH233493   3.684   7.459   3.158
11203TIP3    H133494   3.741   7.520   3.209
11203TIP3    H233495   3.709   7.483   3.066
11204TIP3   OH233496   3.105   7.683   4.533
11204TIP3    H133497   3.108   7.772   4.574
11204TIP3    H233498   3.008   7.667   4.533
11205TIP3   OH233499   3.426   8.138   3.434
11205TIP3    H133500   3.503   8.195   3.451
11205TIP3    H233501   3.363   8.199   3.393
11206TIP3   OH233502   3.142   8.297   4.514
11206TIP3    H133503   3.108   8.297   4.423
11206TIP3    H233504   3.062   8.274   4.566
11207TIP3   OH233505   4.197   6.701   3.206
11207TIP3    H133506   4.116   6.721   3.257
11207TIP3    H233507   4.211   6.784   3.157
11208TIP3   OH233508   2.940   7.443   3.553
11208TIP3    H133509   2.875   7.490   3.497
11208TIP3    H233510   2.895   7.358   3.566
11209TIP3   OH233511   3.996   8.069   2.752
11209TIP3    H133512   4.001   8.166   2.741
11209TIP3    H233513   4.090   8.045   2.757
11210TIP3   OH233514   2.721   7.830   4.460
11210TIP3    H133515   2.653   7.813   4.391
11210TIP3    H233516   2.755   7.740   4.478
11211TIP3   OH233517   2.574   8.021   4.094
11211TIP3    H133518   2.670   8.018   4.085
11211TIP3    H233519   2.561   8.102   4.145
11212TIP3   OH233520   4.439   8.470   4.148
11212TIP3    H133521   4.438   8.374   4.164
11212TIP3    H233522   4.356   8.496   4.195
11213TIP3   OH233523   3.546   8.257   4.284
11213TIP3    H133524   3.544   8.349   4.317
11213TIP3    H233525   3.474   8.217   4.338
11214TIP3   OH233526   3.309   8.387   3.234
11214TIP3    H133527   3.259   8.368   3.153
11214TIP3    H233528   3.274   8.475   3.260
11215TIP3   OH233529   2.745   8.236   3.619
11215TIP3    H133530   2.790   8.226   3.705
11215TIP3    H233531   2.691   8.155   3.618
11216TIP3   OH233532   3.508   8.289   2.875
11216TIP3    H133533   3.567   8.218   2.839
11216TIP3    H233534   3.541   8.297   2.967
11217TIP3   OH233535   3.559   8.334   3.145
11217TIP3    H133536   3.469   8.346   3.184
11217TIP3    H233537   3.607   8.294   3.219
11218TIP3   OH233538   4.330   7.602   4.423
11218TIP3    H133539   4.248   7.613   4.373
11218TIP3    H233540   4.346   7.506   4.415
11219TIP3   OH233541   2.927   8.010   4.450
11219TIP3    H133542   2.975   7.992   4.533
11219TIP3    H233543   2.851   7.947   4.455
11220TIP3   OH233544   3.326   6.831   4.234
11220TIP3    H133545   3.237   6.801   4.205
11220TIP3    H233546   3.302   6.916   4.275
11221TIP3   OH233547   3.861   6.949   4.427
11221TIP3    H133548   3.934   6.921   4.487
11221TIP3    H233549   3.781   6.926   4.478
11222TIP3   OH233550   4.097   7.377   4.345
11222TIP3    H133551   4.049   7.373   4.431
11222TIP3    H233552   4.073   7.466   4.311
11223TIP3   OH233553   3.760   7.507   2.903
11223TIP3    H133554   3.724   7.481   2.816
11223TIP3    H233555   3.838   7.558   2.876
11224TIP3   OH233556   3.472   6.881   3.205
11224TIP3    H133557   3.438   6.879   3.296
11224TIP3    H233558   3.431   6.799   3.170
11225TIP3   OH233559   3.257   7.347   4.251
11225TIP3    H133560   3.208   7.372   4.332
11225TIP3    H233561   3.244   7.428   4.196
11226TIP3   OH233562   3.141   7.234   3.766
11226TIP3    H133563   3.048   7.210   3.783
11226TIP3    H233564   3.154   7.194   3.677
11227TIP3   OH233565   3.632   7.321   3.494
11227TIP3    H133566   3.579   7.392   3.452
11227TIP3    H233567   3.685   7.290   3.418
11228TIP3   OH233568   3.806   7.599   4.579
11228TIP3    H133569   3.784   7.526   4.641
11228TIP3    H233570   3.900   7.613   4.601
11229TIP3   OH233571   3.788   7.349   3.732
11229TIP3    H133572   3.728   7.378   3.661
11229TIP3    H233573   3.821   7.267   3.690
11230TIP3   OH233574   3.076   7.383   4.458
11230TIP3    H133575   3.110   7.446   4.523
11230TIP3    H233576   3.065   7.302   4.509
11231TIP3   OH233577   3.127   6.856   3.171
11231TIP3    H133578   3.116   6.854   3.268
11231TIP3    H233579   3.049   6.908   3.144
11232TIP3   OH233580   2.669   6.898   4.045
11232TIP3    H133581   2.746   6.932   4.094
11232TIP3    H233582   2.705   6.871   3.959
11233TIP3   OH233583   2.643   6.882   3.560
11233TIP3    H133584   2.686   6.921   3.481
11233TIP3    H233585   2.580   6.954   3.581
11234TIP3   OH233586   3.797   7.595   4.156
11234TIP3    H133587   3.831   7.524   4.097
11234TIP3    H233588   3.770   7.542   4.233
11235TIP3   OH233589   3.468   7.057   3.826
11235TIP3    H133590   3.386   7.056   3.879
11235TIP3    H233591   3.537   7.055   3.896
11236TIP3   OH233592   2.902   7.113   3.836
11236TIP3    H133593   2.807   7.123   3.808
11236TIP3    H233594   2.922   7.021   3.810
11237TIP3   OH233595   3.172   7.109   3.524
11237TIP3    H133596   3.265   7.126   3.500
11237TIP3    H233597   3.123   7.131   3.442
11238TIP3   OH233598   3.959   7.134   4.028
11238TIP3    H133599   3.927   7.145   4.120
11238TIP3    H233600   3.892   7.071   3.994
11239TIP3   OH233601   3.016   7.141   3.304
11239TIP3    H133602   2.941   7.098   3.258
11239TIP3    H233603   3.065   7.177   3.228
11240TIP3   OH233604   4.130   8.822   4.248
11240TIP3    H133605   4.129   8.845   4.153
11240TIP3    H233606   4.210   8.869   4.279
11241TIP3   OH233607   3.088   7.929   4.672
11241TIP3    H133608   3.168   7.961   4.717
11241TIP3    H233609   3.022   7.935   4.744
11242TIP3   OH233610   3.551   7.385   3.924
11242TIP3    H133611   3.624   7.346   3.874
11242TIP3    H233612   3.561   7.342   4.011
11243TIP3   OH233613   3.077   6.872   3.803
11243TIP3    H133614   3.041   6.793   3.848
11243TIP3    H233615   3.122   6.834   3.726
11244TIP3   OH233616   3.528   7.280   4.217
11244TIP3    H133617   3.439   7.319   4.229
11244TIP3    H233618   3.586   7.342   4.265
11245TIP3   OH233619   3.266   7.673   3.311
11245TIP3    H133620   3.194   7.607   3.299
11245TIP3    H233621   3.246   7.707   3.401
11246TIP3   OH233622   4.165   7.909   3.938
11246TIP3    H133623   4.188   7.959   3.857
11246TIP3    H233624   4.079   7.867   3.914
11247TIP3   OH233625   3.723   6.985   3.171
11247TIP3    H133626   3.626   6.967   3.180
11247TIP3    H233627   3.731   7.079   3.196
11248TIP3   OH233628   3.664   7.991   4.306
11248TIP3    H133629   3.689   7.970   4.397
11248TIP3    H233630   3.625   8.080   4.314
11249TIP3   OH233631   3.792   7.232   3.275
11249TIP3    H133632   3.888   7.239   3.291
11249TIP3    H233633   3.772   7.312   3.223
11250TIP3   OH233634   2.962   7.700   3.986
11250TIP3    H133635   2.994   7.669   3.899
11250TIP3    H233636   2.993   7.629   4.045
11251TIP3   OH233637   3.410   7.823   3.132
11251TIP3    H133638   3.362   7.909   3.136
11251TIP3    H233639   3.354   7.768   3.191
11252TIP3   OH233640   2.838   7.617   4.598
11252TIP3    H133641   2.861   7.599   4.691
11252TIP3    H233642   2.766   7.554   4.579
11253TIP3   OH233643   3.564   7.729   4.617
11253TIP3    H133644   3.507   7.672   4.565
11253TIP3    H233645   3.653   7.696   4.592
11254TIP3   OH233646   3.824   8.251   4.203
11254TIP3    H133647   3.728   8.249   4.215
11254TIP3    H233648   3.852   8.303   4.281
11255TIP3   OH233649   4.234   7.321   3.110
11255TIP3    H133650   4.172   7.276   3.048
11255TIP3    H233651   4.229   7.411   3.071
11256TIP3   OH233652   4.452   8.180   4.192
11256TIP3    H133653   4.354   8.174   4.184
11256TIP3    H233654   4.478   8.150   4.102
11257TIP3   OH233655   3.941   8.139   3.021
11257TIP3    H133656   3.901   8.077   3.083
11257TIP3    H233657   3.941   8.091   2.937
11258TIP3   OH233658   3.930   7.771   3.857
11258TIP3    H133659   3.837   7.746   3.870
11258TIP3    H233660   3.964   7.691   3.812
11259TIP3   OH233661   3.057   7.999   3.610
11259TIP3    H133662   3.055   8.080   3.556
11259TIP3    H233663   2.963   7.980   3.620
11260TIP3   OH233664   2.625   7.302   3.313
11260TIP3    H133665   2.665   7.389   3.335
11260TIP3    H233666   2.545   7.304   3.371
11261TIP3   OH233667   3.197   7.765   3.555
11261TIP3    H133668   3.161   7.854   3.573
11261TIP3    H233669   3.159   7.714   3.629
11262TIP3   OH233670   3.327   8.342   4.079
11262TIP3    H133671   3.367   8.415   4.028
11262TIP3    H233672   3.404   8.307   4.127
11263TIP3   OH233673   2.978   8.237   3.463
11263TIP3    H133674   2.892   8.245   3.509
11263TIP3    H233675   3.009   8.330   3.465
11264TIP3   OH233676   3.715   7.976   4.038
11264TIP3    H133677   3.705   7.974   4.136
11264TIP3    H233678   3.796   7.924   4.026
11265TIP3   OH233679   3.689   7.870   2.918
11265TIP3    H133680   3.739   7.843   2.999
11265TIP3    H233681   3.599   7.843   2.944
11266TIP3   OH233682   3.963   8.510   4.088
11266TIP3    H133683   3.884   8.454   4.081
11266TIP3    H233684   3.948   8.575   4.016
11267TIP3   OH233685   4.029   8.344   2.740
11267TIP3    H133686   4.066   8.418   2.688
11267TIP3    H233687   3.949   8.389   2.775
11268TIP3   OH233688   3.046   7.100   4.617
11268TIP3    H133689   2.955   7.135   4.631
11268TIP3    H233690   3.091   7.120   4.700
11269TIP3   OH233691   3.847   7.799   3.133
11269TIP3    H133692   3.835   7.737   3.208
11269TIP3    H233693   3.944   7.796   3.124
11270TIP3   OH233694   2.767   8.206   4.237
11270TIP3    H133695   2.818   8.130   4.267
11270TIP3    H233696   2.796   8.274   4.299
11271TIP3   OH233697   3.058   7.849   2.919
11271TIP3    H133698   3.068   7.757   2.891
11271TIP3    H233699   3.038   7.839   3.014
11272TIP3   OH233700   3.004   7.855   3.190
11272TIP3    H133701   3.070   7.828   3.254
11272TIP3    H233702   3.006   7.953   3.198
11273TIP3   OH233703   2.740   7.549   3.394
11273TIP3    H133704   2.674   7.594   3.452
11273TIP3    H233705   2.750   7.618   3.326
11274TIP3   OH233706   3.886   7.184   4.288
11274TIP3    H133707   3.966   7.222   4.327
11274TIP3    H233708   3.873   7.103   4.342
11275TIP3   OH233709   3.768   6.935   3.452
11275TIP3    H133710   3.752   6.959   3.359
11275TIP3    H233711   3.805   7.018   3.489
11276TIP3   OH233712   3.269   8.053   3.141
11276TIP3    H133713   3.181   8.078   3.178
11276TIP3    H233714   3.281   8.125   3.078
11277TIP3   OH233715   3.457   7.115   3.554
11277TIP3    H133716   3.520   7.188   3.538
11277TIP3    H233717   3.460   7.108   3.652
11278TIP3   OH233718   3.725   7.434   4.364
11278TIP3    H133719   3.747   7.487   4.442
11278TIP3    H233720   3.780   7.355   4.376
11279TIP3   OH233721   3.600   6.842   3.657
11279TIP3    H133722   3.593   6.918   3.717
11279TIP3    H233723   3.660   6.878   3.588
11280TIP3   OH233724   3.012   8.128   3.209
11280TIP3    H133725   2.981   8.196   3.146
11280TIP3    H233726   2.994   8.171   3.295
11281TIP3   OH233727   3.111   6.841   3.448
11281TIP3    H133728   3.108   6.932   3.482
11281TIP3    H233729   3.207   6.824   3.455
11282TIP3   OH233730   4.364   7.336   4.343
11282TIP3    H133731   4.266   7.333   4.351
11282TIP3    H233732   4.375   7.291   4.258
11283TIP3   OH233733   4.016   7.529   3.730
11283TIP3    H133734   3.940   7.470   3.744
11283TIP3    H233735   4.087   7.482   3.779
11284TIP3   OH233736   2.729   7.757   3.202
11284TIP3    H133737   2.793   7.830   3.209
11284TIP3    H233738   2.775   7.703   3.133
11285TIP3   OH233739   2.672   7.033   3.333
11285TIP3    H133740   2.672   7.131   3.331
11285TIP3    H233741   2.586   7.013   3.296
11286TIP3   OH233742   3.984   8.485   3.681
11286TIP3    H133743   3.941   8.532   3.606
11286TIP3    H233744   4.078   8.503   3.660
11287TIP3   OH233745   3.060   6.753   4.208
11287TIP3    H133746   3.029   6.723   4.120
11287TIP3    H233747   3.050   6.672   4.262
11288TIP3   OH233748   2.602   7.980   3.590
11288TIP3    H133749   2.530   8.005   3.648
11288TIP3    H233750   2.571   8.016   3.504
11289TIP3   OH233751   2.755   8.513   4.660
11289TIP3    H133752   2.842   8.511   4.706
11289TIP3    H233753   2.733   8.419   4.658
11290TIP3   OH233754   3.240   8.478   4.705
11290TIP3    H133755   3.334   8.454   4.710
11290TIP3    H233756   3.211   8.420   4.631
11291TIP3   OH233757   3.220   8.054   2.833
11291TIP3    H133758   3.162   7.983   2.871
11291TIP3    H233759   3.294   8.000   2.800
11292TIP3   OH233760   3.875   8.386   4.439
11292TIP3    H133761   3.867   8.315   4.507
11292TIP3    H233762   3.954   8.434   4.469
11293TIP3   OH233763   3.656   8.095   2.745
11293TIP3    H133764   3.697   8.028   2.802
11293TIP3    H233765   3.711   8.093   2.664
11294TIP3   OH233766   2.885   7.920   4.861
11294TIP3    H133767   2.898   7.824   4.867
11294TIP3    H233768   2.798   7.925   4.815
11295TIP3   OH233769   2.864   7.572   3.052
11295TIP3    H133770   2.917   7.538   3.126
11295TIP3    H233771   2.933   7.575   2.981
11296TIP3   OH233772   3.493   8.005   4.634
11296TIP3    H133773   3.453   8.022   4.547
11296TIP3    H233774   3.525   7.912   4.626
11297TIP3   OH233775   3.378   7.770   2.861
11297TIP3    H133776   3.376   7.782   2.958
11297TIP3    H233777   3.375   7.672   2.855
11298TIP3   OH233778   3.986   8.013   4.240
11298TIP3    H133779   4.062   8.058   4.196
11298TIP3    H233780   3.916   8.079   4.226
11299TIP3   OH233781   2.998   7.633   4.848
11299TIP3    H133782   3.084   7.602   4.818
11299TIP3    H233783   3.023   7.677   4.933
11300TIP3   OH233784   3.076   7.474   3.278
11300TIP3    H133785   3.042   7.433   3.359
11300TIP3    H233786   3.109   7.397   3.228
11301TIP3   OH233787   3.338   7.535   4.501
11301TIP3    H133788   3.264   7.598   4.506
11301TIP3    H233789   3.391   7.570   4.426
11302TIP3   OH233790   3.172   7.266   3.116
11302TIP3    H133791   3.145   7.272   3.022
11302TIP3    H233792   3.269   7.273   3.108
11303TIP3   OH233793   3.858   7.940   4.638
11303TIP3    H133794   3.938   7.916   4.591
11303TIP3    H233795   3.855   7.874   4.709
11304TIP3   OH233796   3.999   7.599   2.777
11304TIP3    H133797   3.974   7.552   2.695
11304TIP3    H233798   3.963   7.689   2.755
11305TIP3   OH233799   3.457   7.324   4.632
11305TIP3    H133800   3.465   7.246   4.574
11305TIP3    H233801   3.419   7.391   4.572
11306TIP3   OH233802   3.464   7.113   4.438
11306TIP3    H133803   3.495   7.155   4.355
11306TIP3    H233804   3.371   7.092   4.416
11307TIP3   OH233805   3.493   7.649   4.312
11307TIP3    H133806   3.577   7.657   4.265
11307TIP3    H233807   3.437   7.715   4.267
11308TIP3   OH233808   4.075   7.615   4.691
11308TIP3    H133809   4.122   7.531   4.705
11308TIP3    H233810   4.146   7.672   4.658
11309TIP3   OH233811   4.117   7.868   4.427
11309TIP3    H133812   4.059   7.922   4.368
11309TIP3    H233813   4.205   7.889   4.388
11310TIP3   OH233814   3.338   7.443   4.859
11310TIP3    H133815   3.272   7.373   4.876
11310TIP3    H233816   3.376   7.414   4.774
11311TIP3   OH233817   3.600   6.877   4.501
11311TIP3    H133818   3.550   6.958   4.480
11311TIP3    H233819   3.533   6.807   4.490
11312TIP3   OH233820   3.723   7.383   4.721
11312TIP3    H133821   3.719   7.368   4.817
11312TIP3    H233822   3.633   7.355   4.696
11313TIP3   OH233823   3.964   7.331   4.575
11313TIP3    H133824   3.890   7.330   4.638
11313TIP3    H233825   4.038   7.299   4.631
11314TIP3   OH233826   4.192   7.271   4.725
11314TIP3    H133827   4.205   7.175   4.742
11314TIP3    H233828   4.188   7.308   4.816
11315TIP3   OH233829   3.183   7.219   4.910
11315TIP3    H133830   3.217   7.131   4.888
11315TIP3    H233831   3.211   7.221   5.005
11316TIP3   OH233832   3.669   6.898   4.769
11316TIP3    H133833   3.752   6.845   4.772
11316TIP3    H233834   3.644   6.882   4.676
11317TIP3   OH233835   3.759   7.105   4.921
11317TIP3    H133836   3.734   7.032   4.860
11317TIP3    H233837   3.680   7.162   4.916
11318TIP3   OH233838   2.980   8.330   3.022
11318TIP3    H133839   3.075   8.327   3.001
11318TIP3    H233840   2.948   8.379   2.944
11319TIP3   OH233841   2.460   7.713   3.236
11319TIP3    H133842   2.555   7.733   3.225
11319TIP3    H233843   2.453   7.624   3.196
11320TIP3   OH233844   2.371   8.321   3.648
11320TIP3    H133845   2.306   8.257   3.613
11320TIP3    H233846   2.417   8.266   3.715
11321TIP3   OH233847   2.509   8.178   3.838
11321TIP3    H133848   2.494   8.103   3.898
11321TIP3    H233849   2.560   8.237   3.895
11322TIP3   OH233850   4.238   8.574   3.638
11322TIP3    H133851   4.264   8.608   3.726
11322TIP3    H233852   4.298   8.622   3.579
11323TIP3   OH233853   4.267   8.596   3.920
11323TIP3    H133854   4.223   8.509   3.916
11323TIP3    H233855   4.341   8.574   3.978
11324TIP3   OH233856   4.312   8.273   4.492
11324TIP3    H133857   4.240   8.282   4.557
11324TIP3    H233858   4.354   8.361   4.497
11325TIP3   OH233859   4.127   7.783   3.114
11325TIP3    H133860   4.170   7.869   3.111
11325TIP3    H233861   4.169   7.742   3.193
11326TIP3   OH233862   4.256   7.656   3.317
11326TIP3    H133863   4.191   7.612   3.376
11326TIP3    H233864   4.322   7.690   3.381
11327TIP3   OH233865   4.310   8.045   3.748
11327TIP3    H133866   4.365   7.981   3.699
11327TIP3    H233867   4.303   8.119   3.685
11328TIP3   OH233868   4.142   8.346   3.943
11328TIP3    H133869   4.071   8.387   3.995
11328TIP3    H233870   4.092   8.298   3.873
11329TIP3   OH233871   4.194   7.562   2.963
11329TIP3    H133872   4.121   7.563   2.895
11329TIP3    H233873   4.164   7.637   3.018
11330TIP3   OH233874   4.068   7.234   2.914
11330TIP3    H133875   4.019   7.270   2.839
11330TIP3    H233876   4.043   7.140   2.908
11331TIP3   OH233877   4.073   7.509   3.462
11331TIP3    H133878   4.078   7.413   3.457
11331TIP3    H233879   4.058   7.524   3.558
11332TIP3   OH233880   2.697   7.570   4.218
11332TIP3    H133881   2.694   7.547   4.122
11332TIP3    H233882   2.795   7.580   4.230
11333TIP3   OH233883   4.360   7.934   4.319
11333TIP3    H133884   4.432   7.868   4.311
11333TIP3    H233885   4.389   8.004   4.258
11334TIP3   OH233886   4.545   7.739   4.334
11334TIP3    H133887   4.471   7.689   4.374
11334TIP3    H233888   4.619   7.676   4.349
11335TIP3   OH233889   4.009   6.969   2.905
11335TIP3    H133890   4.083   6.936   2.960
11335TIP3    H233891   3.935   6.910   2.927
11336TIP3   OH233892   4.067   7.226   3.358
11336TIP3    H133893   4.107   7.137   3.374
11336TIP3    H233894   4.126   7.257   3.287
11337TIP3   OH233895   4.228   7.399   3.852
11337TIP3    H133896   4.314   7.425   3.812
11337TIP3    H233897   4.241   7.436   3.942
11338TIP3   OH233898   4.296   7.543   4.083
11338TIP3    H133899   4.219   7.577   4.133
11338TIP3    H233900   4.329   7.624   4.040
11339TIP3   OH233901   2.917   7.265   4.887
11339TIP3    H133902   3.015   7.269   4.894
11339TIP3    H233903   2.902   7.176   4.923
11340TIP3   OH233904   4.746   7.133   4.640
11340TIP3    H133905   4.808   7.069   4.597
11340TIP3    H233906   4.720   7.189   4.564
11341TIP3   OH233907   4.176   6.976   3.394
11341TIP3    H133908   4.224   6.960   3.479
11341TIP3    H233909   4.115   6.899   3.394
11342TIP3   OH233910   2.877   6.963   4.221
11342TIP3    H133911   2.939   6.888   4.225
11342TIP3    H233912   2.938   7.038   4.209
11343TIP3   OH233913   2.685   7.239   4.297
11343TIP3    H133914   2.728   7.225   4.210
11343TIP3    H233915   2.701   7.333   4.310
11344TIP3   OH233916   4.621   7.275   4.445
11344TIP3    H133917   4.535   7.315   4.470
11344TIP3    H233918   4.589   7.202   4.388
11345TIP3   OH233919   4.257   6.910   3.028
11345TIP3    H133920   4.296   6.837   2.975
11345TIP3    H233921   4.325   6.979   3.022
11346TIP3   OH233922   2.662   6.743   3.791
11346TIP3    H133923   2.568   6.736   3.815
11346TIP3    H233924   2.659   6.799   3.711
11347TIP3   OH233925   3.823   8.441   3.295
11347TIP3    H133926   3.874   8.430   3.212
11347TIP3    H233927   3.874   8.510   3.341
11348TIP3   OH233928   2.923   8.244   4.681
11348TIP3    H133929   2.830   8.220   4.663
11348TIP3    H233930   2.929   8.230   4.776
11349TIP3   OH233931   3.101   8.279   4.229
11349TIP3    H133932   3.051   8.353   4.189
11349TIP3    H233933   3.186   8.294   4.184
11350TIP3   OH233934   3.546   8.523   4.367
11350TIP3    H133935   3.588   8.525   4.455
11350TIP3    H233936   3.611   8.574   4.314
11351TIP3   OH233937   3.724   8.675   4.225
11351TIP3    H133938   3.795   8.624   4.182
11351TIP3    H233939   3.776   8.732   4.285
11352TIP3   OH233940   4.519   7.037   4.323
11352TIP3    H133941   4.427   7.028   4.294
11352TIP3    H233942   4.550   6.944   4.313
11353TIP3   OH233943   2.777   8.537   4.251
11353TIP3    H133944   2.688   8.570   4.225
11353TIP3    H233945   2.782   8.571   4.341
11354TIP3   OH233946   3.014   8.515   4.109
11354TIP3    H133947   2.927   8.528   4.154
11354TIP3    H233948   2.994   8.547   4.019
11355TIP3   OH233949   3.439   8.543   3.907
11355TIP3    H133950   3.369   8.562   3.841
11355TIP3    H233951   3.450   8.631   3.948
11356TIP3   OH233952   3.707   8.483   3.959
11356TIP3    H133953   3.613   8.499   3.939
11356TIP3    H233954   3.750   8.558   3.915
11357TIP3   OH233955   3.916   8.675   3.873
11357TIP3    H133956   3.901   8.759   3.825
11357TIP3    H233957   3.941   8.615   3.800
11358TIP3   OH233958   2.689   8.331   3.996
11358TIP3    H133959   2.715   8.304   4.087
11358TIP3    H233960   2.760   8.286   3.945
11359TIP3   OH233961   2.882   8.201   3.853
11359TIP3    H133962   2.897   8.117   3.903
11359TIP3    H233963   2.972   8.237   3.848
11360TIP3   OH233964   3.149   8.296   3.856
11360TIP3    H133965   3.179   8.204   3.843
11360TIP3    H233966   3.192   8.317   3.940
11361TIP3   OH233967   3.722   6.951   3.941
11361TIP3    H133968   3.680   6.882   3.995
11361TIP3    H233969   3.796   6.904   3.900
11362TIP3   OH233970   4.247   6.829   3.846
11362TIP3    H133971   4.283   6.884   3.773
11362TIP3    H233972   4.152   6.850   3.843
11363TIP3   OH233973   4.342   6.934   3.611
11363TIP3    H133974   4.416   6.883   3.572
11363TIP3    H233975   4.375   7.026   3.597
11364TIP3   OH233976   2.973   6.661   3.962
11364TIP3    H133977   2.880   6.630   3.961
11364TIP3    H233978   3.020   6.575   3.956
11365TIP3   OH233979   2.765   6.530   3.609
11365TIP3    H133980   2.789   6.588   3.534
11365TIP3    H233981   2.730   6.595   3.673
11366TIP3   OH233982   3.418   6.692   3.841
11366TIP3    H133983   3.473   6.742   3.780
11366TIP3    H233984   3.442   6.730   3.927
11367TIP3   OH233985   3.963   6.840   3.825
11367TIP3    H133986   3.960   6.802   3.736
11367TIP3    H233987   3.949   6.760   3.881
11368TIP3   OH233988   3.993   6.762   3.386
11368TIP3    H133989   3.906   6.806   3.399
11368TIP3    H233990   3.977   6.678   3.433
11369TIP3   OH233991   2.479   8.101   3.385
11369TIP3    H133992   2.394   8.066   3.352
11369TIP3    H233993   2.465   8.195   3.369
11370TIP3   OH233994   2.875   6.688   3.372
11370TIP3    H133995   2.924   6.627   3.313
11370TIP3    H233996   2.948   6.743   3.408
11371TIP3   OH233997   3.389   6.865   3.470
11371TIP3    H133998   3.449   6.819   3.531
11371TIP3    H233999   3.409   6.958   3.494
11372TIP3   OH234000   3.248   8.290   2.969
11372TIP3    H134001   3.336   8.313   2.932
11372TIP3    H234002   3.225   8.215   2.909
11373TIP3   OH234003   3.968   8.409   3.062
11373TIP3    H134004   3.961   8.311   3.050
11373TIP3    H234005   3.921   8.441   2.982
11374TIP3   OH234006   3.165   6.933   4.867
11374TIP3    H134007   3.151   6.860   4.932
11374TIP3    H234008   3.263   6.938   4.875
11375TIP3   OH234009   3.423   6.937   4.957
11375TIP3    H134010   3.508   6.913   4.916
11375TIP3    H234011   3.415   6.868   5.026
11376TIP3   OH234012   2.553   8.130   3.026
11376TIP3    H134013   2.549   8.150   3.120
11376TIP3    H234014   2.641   8.087   3.016
11377TIP3   OH234015   4.253   7.001   4.756
11377TIP3    H134016   4.268   6.969   4.848
11377TIP3    H234017   4.342   6.993   4.717
11378TIP3   OH234018   4.193   8.553   4.249
11378TIP3    H134019   4.114   8.522   4.201
11378TIP3    H234020   4.173   8.649   4.254
11379TIP3   OH234021   5.460   7.923   3.015
11379TIP3    H134022   5.432   8.015   2.998
11379TIP3    H234023   5.382   7.875   2.984
11380TIP3   OH234024   5.455   7.924   3.399
11380TIP3    H134025   5.490   7.900   3.486
11380TIP3    H234026   5.417   7.841   3.368
11381TIP3   OH234027   4.758   7.819   3.761
11381TIP3    H134028   4.786   7.751   3.825
11381TIP3    H234029   4.834   7.879   3.765
11382TIP3   OH234030   5.701   8.227   3.079
11382TIP3    H134031   5.690   8.158   3.146
11382TIP3    H234032   5.731   8.302   3.133
11383TIP3   OH234033   4.728   8.228   3.484
11383TIP3    H134034   4.719   8.131   3.488
11383TIP3    H234035   4.825   8.238   3.486
11384TIP3   OH234036   4.438   7.437   3.267
11384TIP3    H134037   4.387   7.517   3.288
11384TIP3    H234038   4.367   7.378   3.236
11385TIP3   OH234039   4.496   7.718   3.442
11385TIP3    H134040   4.541   7.641   3.483
11385TIP3    H234041   4.565   7.754   3.386
11386TIP3   OH234042   5.350   8.689   3.094
11386TIP3    H134043   5.396   8.617   3.046
11386TIP3    H234044   5.344   8.653   3.183
11387TIP3   OH234045   5.258   8.150   3.443
11387TIP3    H134046   5.299   8.072   3.403
11387TIP3    H234047   5.341   8.197   3.469
11388TIP3   OH234048   6.270   7.472   3.443
11388TIP3    H134049   6.299   7.553   3.488
11388TIP3    H234050   6.292   7.492   3.350
11389TIP3   OH234051   5.669   7.653   3.477
11389TIP3    H134052   5.712   7.568   3.500
11389TIP3    H234053   5.639   7.635   3.386
11390TIP3   OH234054   5.007   7.312   3.442
11390TIP3    H134055   4.987   7.385   3.380
11390TIP3    H234056   4.959   7.239   3.399
11391TIP3   OH234057   5.702   7.403   3.065
11391TIP3    H134058   5.773   7.386   3.131
11391TIP3    H234059   5.755   7.438   2.991
11392TIP3   OH234060   4.641   7.514   3.548
11392TIP3    H134061   4.723   7.495   3.598
11392TIP3    H234062   4.655   7.456   3.470
11393TIP3   OH234063   5.084   7.712   3.340
11393TIP3    H134064   5.178   7.687   3.356
11393TIP3    H234065   5.045   7.627   3.311
11394TIP3   OH234066   6.343   7.678   3.613
11394TIP3    H134067   6.259   7.725   3.596
11394TIP3    H234068   6.361   7.705   3.704
11395TIP3   OH234069   5.004   7.294   3.876
11395TIP3    H134070   4.943   7.332   3.811
11395TIP3    H234071   4.953   7.311   3.959
11396TIP3   OH234072   5.346   8.143   2.887
11396TIP3    H134073   5.313   8.131   2.797
11396TIP3    H234074   5.306   8.229   2.911
11397TIP3   OH234075   5.110   8.070   3.672
11397TIP3    H134076   5.048   8.136   3.711
11397TIP3    H234077   5.153   8.123   3.602
11398TIP3   OH234078   5.912   7.405   3.238
11398TIP3    H134079   5.898   7.360   3.323
11398TIP3    H234080   5.965   7.482   3.264
11399TIP3   OH234081   4.874   7.411   3.661
11399TIP3    H134082   4.936   7.483   3.686
11399TIP3    H234083   4.924   7.370   3.588
11400TIP3   OH234084   4.937   8.264   3.768
11400TIP3    H134085   4.912   8.352   3.733
11400TIP3    H234086   4.859   8.248   3.826
11401TIP3   OH234087   5.772   8.470   3.245
11401TIP3    H134088   5.682   8.461   3.285
11401TIP3    H234089   5.763   8.557   3.201
11402TIP3   OH234090   6.063   7.369   3.607
11402TIP3    H134091   5.976   7.402   3.579
11402TIP3    H234092   6.123   7.404   3.537
11403TIP3   OH234093   5.358   7.015   3.589
11403TIP3    H134094   5.348   6.920   3.610
11403TIP3    H234095   5.282   7.052   3.637
11404TIP3   OH234096   5.473   8.516   2.919
11404TIP3    H134097   5.523   8.433   2.899
11404TIP3    H234098   5.534   8.581   2.879
11405TIP3   OH234099   5.615   8.300   2.828
11405TIP3    H134100   5.587   8.219   2.784
11405TIP3    H234101   5.652   8.266   2.912
11406TIP3   OH234102   5.998   8.384   3.589
11406TIP3    H134103   5.987   8.305   3.531
11406TIP3    H234104   5.982   8.458   3.527
11407TIP3   OH234105   5.288   7.776   2.845
11407TIP3    H134106   5.212   7.831   2.818
11407TIP3    H234107   5.340   7.772   2.762
11408TIP3   OH234108   5.248   7.560   2.565
11408TIP3    H134109   5.317   7.612   2.612
11408TIP3    H234110   5.305   7.497   2.516
11409TIP3   OH234111   6.193   8.019   3.433
11409TIP3    H134112   6.111   8.071   3.440
11409TIP3    H234113   6.223   8.044   3.343
11410TIP3   OH234114   5.638   7.858   2.818
11410TIP3    H134115   5.584   7.883   2.897
11410TIP3    H234116   5.722   7.833   2.861
11411TIP3   OH234117   5.872   7.898   3.731
11411TIP3    H134118   5.871   7.980   3.784
11411TIP3    H234119   5.786   7.905   3.686
11412TIP3   OH234120   4.874   7.854   3.236
11412TIP3    H134121   4.838   7.791   3.171
11412TIP3    H234122   4.952   7.806   3.271
11413TIP3   OH234123   5.003   8.270   3.383
11413TIP3    H134124   4.983   8.222   3.302
11413TIP3    H234125   5.093   8.237   3.404
11414TIP3   OH234126   5.006   7.829   3.587
11414TIP3    H134127   5.044   7.807   3.500
11414TIP3    H234128   5.050   7.914   3.610
11415TIP3   OH234129   5.530   8.465   3.366
11415TIP3    H134130   5.518   8.545   3.421
11415TIP3    H234131   5.516   8.393   3.430
11416TIP3   OH234132   5.144   8.385   3.911
11416TIP3    H134133   5.085   8.447   3.960
11416TIP3    H234134   5.077   8.332   3.864
11417TIP3   OH234135   5.476   7.719   2.645
11417TIP3    H134136   5.537   7.777   2.696
11417TIP3    H234137   5.503   7.741   2.552
11418TIP3   OH234138   4.897   7.944   4.011
11418TIP3    H134139   4.903   8.029   4.058
11418TIP3    H234140   4.803   7.922   4.027
11419TIP3   OH234141   5.220   8.397   2.917
11419TIP3    H134142   5.301   8.448   2.935
11419TIP3    H234143   5.160   8.465   2.882
11420TIP3   OH234144   4.938   8.553   4.001
11420TIP3    H134145   4.902   8.552   3.910
11420TIP3    H234146   4.859   8.532   4.055
11421TIP3   OH234147   5.994   6.958   2.693
11421TIP3    H134148   5.913   6.979   2.743
11421TIP3    H234149   6.008   7.041   2.643
11422TIP3   OH234150   4.737   7.691   3.039
11422TIP3    H134151   4.649   7.726   3.025
11422TIP3    H234152   4.720   7.600   3.067
11423TIP3   OH234153   5.793   8.325   2.242
11423TIP3    H134154   5.801   8.422   2.226
11423TIP3    H234155   5.885   8.295   2.229
11424TIP3   OH234156   4.517   8.083   3.947
11424TIP3    H134157   4.451   8.060   3.880
11424TIP3    H234158   4.554   7.996   3.973
11425TIP3   OH234159   4.371   8.276   3.579
11425TIP3    H134160   4.468   8.273   3.573
11425TIP3    H234161   4.358   8.355   3.633
11426TIP3   OH234162   6.235   8.727   3.634
11426TIP3    H134163   6.235   8.631   3.650
11426TIP3    H234164   6.152   8.752   3.681
11427TIP3   OH234165   5.341   8.514   3.769
11427TIP3    H134166   5.340   8.607   3.803
11427TIP3    H234167   5.270   8.474   3.824
11428TIP3   OH234168   5.102   8.641   2.723
11428TIP3    H134169   5.058   8.626   2.637
11428TIP3    H234170   5.070   8.730   2.748
11429TIP3   OH234171   4.543   8.495   3.106
11429TIP3    H134172   4.588   8.485   3.193
11429TIP3    H234173   4.489   8.414   3.105
11430TIP3   OH234174   5.304   8.543   2.362
11430TIP3    H134175   5.363   8.474   2.326
11430TIP3    H234176   5.339   8.553   2.453
11431TIP3   OH234177   5.354   8.591   2.632
11431TIP3    H134178   5.266   8.601   2.675
11431TIP3    H234179   5.406   8.554   2.705
11432TIP3   OH234180   6.127   7.859   3.909
11432TIP3    H134181   6.044   7.869   3.862
11432TIP3    H234182   6.142   7.763   3.902
11433TIP3   OH234183   4.722   8.266   3.936
11433TIP3    H134184   4.772   8.250   4.018
11433TIP3    H234185   4.648   8.203   3.944
11434TIP3   OH234186   5.121   7.090   3.720
11434TIP3    H134187   5.031   7.060   3.694
11434TIP3    H234188   5.097   7.172   3.768
11435TIP3   OH234189   5.656   7.204   3.914
11435TIP3    H134190   5.725   7.178   3.978
11435TIP3    H234191   5.573   7.185   3.963
11436TIP3   OH234192   5.893   7.634   3.832
11436TIP3    H134193   5.845   7.629   3.918
11436TIP3    H234194   5.869   7.722   3.799
11437TIP3   OH234195   5.554   7.765   2.390
11437TIP3    H134196   5.520   7.739   2.302
11437TIP3    H234197   5.636   7.810   2.365
11438TIP3   OH234198   5.266   7.140   2.691
11438TIP3    H134199   5.234   7.136   2.783
11438TIP3    H234200   5.228   7.056   2.657
11439TIP3   OH234201   5.051   7.606   3.738
11439TIP3    H134202   5.004   7.628   3.820
11439TIP3    H234203   5.035   7.688   3.685
11440TIP3   OH234204   4.934   7.494   3.251
11440TIP3    H134205   4.844   7.461   3.272
11440TIP3    H234206   4.949   7.450   3.164
11441TIP3   OH234207   5.427   7.576   2.979
11441TIP3    H134208   5.375   7.648   2.937
11441TIP3    H234209   5.483   7.546   2.905
11442TIP3   OH234210   5.602   7.856   4.065
11442TIP3    H134211   5.580   7.783   4.128
11442TIP3    H234212   5.695   7.871   4.088
11443TIP3   OH234213   5.584   7.605   3.219
11443TIP3    H134214   5.524   7.635   3.148
11443TIP3    H234215   5.618   7.524   3.176
11444TIP3   OH234216   4.870   7.634   3.948
11444TIP3    H134217   4.902   7.696   4.015
11444TIP3    H234218   4.860   7.552   3.999
11445TIP3   OH234219   4.923   7.113   2.656
11445TIP3    H134220   4.915   7.109   2.754
11445TIP3    H234221   4.842   7.161   2.632
11446TIP3   OH234222   4.465   7.159   3.525
11446TIP3    H134223   4.541   7.188   3.580
11446TIP3    H234224   4.508   7.121   3.447
11447TIP3   OH234225   4.439   7.137   3.049
11447TIP3    H134226   4.483   7.174   2.970
11447TIP3    H234227   4.376   7.209   3.069
11448TIP3   OH234228   5.591   7.852   3.640
11448TIP3    H134229   5.626   7.780   3.583
11448TIP3    H234230   5.565   7.800   3.719
11449TIP3   OH234231   5.263   7.316   3.314
11449TIP3    H134232   5.183   7.313   3.369
11449TIP3    H234233   5.334   7.311   3.380
11450TIP3   OH234234   4.699   7.369   3.319
11450TIP3    H134235   4.604   7.376   3.294
11450TIP3    H234236   4.721   7.276   3.300
11451TIP3   OH234237   4.967   7.367   3.010
11451TIP3    H134238   5.062   7.378   2.992
11451TIP3    H234239   4.925   7.389   2.924
11452TIP3   OH234240   5.756   7.390   3.513
11452TIP3    H134241   5.725   7.402   3.606
11452TIP3    H234242   5.689   7.329   3.480
11453TIP3   OH234243   4.805   7.409   2.788
11453TIP3    H134244   4.737   7.356   2.742
11453TIP3    H234245   4.858   7.440   2.712
11454TIP3   OH234246   5.926   9.079   3.735
11454TIP3    H134247   5.926   9.101   3.640
11454TIP3    H234248   6.007   9.125   3.766
11455TIP3   OH234249   4.884   8.189   4.156
11455TIP3    H134250   4.964   8.218   4.205
11455TIP3    H234251   4.820   8.187   4.229
11456TIP3   OH234252   5.346   7.642   3.411
11456TIP3    H134253   5.421   7.602   3.363
11456TIP3    H234254   5.354   7.601   3.499
11457TIP3   OH234255   4.869   7.130   3.289
11457TIP3    H134256   4.834   7.052   3.338
11457TIP3    H234257   4.924   7.088   3.222
11458TIP3   OH234258   5.324   7.540   3.699
11458TIP3    H134259   5.235   7.577   3.716
11458TIP3    H234260   5.382   7.599   3.751
11459TIP3   OH234261   5.054   7.931   2.790
11459TIP3    H134262   4.986   7.862   2.788
11459TIP3    H234263   5.043   7.965   2.882
11460TIP3   OH234264   5.961   8.166   3.425
11460TIP3    H134265   5.985   8.215   3.344
11460TIP3    H234266   5.876   8.124   3.400
11461TIP3   OH234267   5.519   7.241   2.659
11461TIP3    H134268   5.422   7.225   2.667
11461TIP3    H234269   5.528   7.336   2.682
11462TIP3   OH234270   5.459   8.247   3.793
11462TIP3    H134271   5.486   8.224   3.883
11462TIP3    H234272   5.421   8.336   3.803
11463TIP3   OH234273   5.588   7.490   2.761
11463TIP3    H134274   5.684   7.494   2.778
11463TIP3    H234275   5.572   7.569   2.708
11464TIP3   OH234276   4.749   7.946   3.472
11464TIP3    H134277   4.795   7.919   3.390
11464TIP3    H234278   4.794   7.892   3.538
11465TIP3   OH234279   5.207   8.078   2.615
11465TIP3    H134280   5.159   8.164   2.621
11465TIP3    H234281   5.154   8.024   2.677
11466TIP3   OH234282   4.634   7.873   4.085
11466TIP3    H134283   4.657   7.860   4.180
11466TIP3    H234284   4.566   7.804   4.073
11467TIP3   OH234285   5.360   7.987   4.102
11467TIP3    H134286   5.302   7.925   4.057
11467TIP3    H234287   5.449   7.953   4.077
11468TIP3   OH234288   5.619   8.509   3.687
11468TIP3    H134289   5.523   8.506   3.702
11468TIP3    H234290   5.648   8.559   3.767
11469TIP3   OH234291   6.030   7.579   2.598
11469TIP3    H134292   5.967   7.535   2.536
11469TIP3    H234293   6.028   7.668   2.557
11470TIP3   OH234294   6.248   8.437   3.678
11470TIP3    H134295   6.150   8.431   3.671
11470TIP3    H234296   6.274   8.407   3.588
11471TIP3   OH234297   5.729   8.399   2.505
11471TIP3    H134298   5.707   8.327   2.567
11471TIP3    H234299   5.744   8.352   2.421
11472TIP3   OH234300   5.726   8.029   3.342
11472TIP3    H134301   5.633   8.003   3.356
11472TIP3    H234302   5.761   7.948   3.299
11473TIP3   OH234303   4.848   8.251   3.088
11473TIP3    H134304   4.853   8.335   3.038
11473TIP3    H234305   4.757   8.254   3.119
11474TIP3   OH234306   4.410   7.548   2.802
11474TIP3    H134307   4.440   7.638   2.814
11474TIP3    H234308   4.330   7.547   2.860
11475TIP3   OH234309   4.985   8.017   3.035
11475TIP3    H134310   4.952   8.107   3.054
11475TIP3    H234311   4.959   7.970   3.116
11476TIP3   OH234312   5.123   8.599   3.566
11476TIP3    H134313   5.165   8.671   3.516
11476TIP3    H234314   5.199   8.564   3.615
11477TIP3   OH234315   4.773   8.494   2.946
11477TIP3    H134316   4.688   8.504   2.994
11477TIP3    H234317   4.807   8.586   2.950
11478TIP3   OH234318   5.511   8.233   3.525
11478TIP3    H134319   5.500   8.231   3.623
11478TIP3    H234320   5.592   8.182   3.514
11479TIP3   OH234321   5.486   8.125   2.409
11479TIP3    H134322   5.541   8.101   2.487
11479TIP3    H234323   5.399   8.099   2.440
11480TIP3   OH234324   5.759   8.767   3.576
11480TIP3    H134325   5.681   8.709   3.569
11480TIP3    H234326   5.743   8.830   3.503
11481TIP3   OH234327   5.825   8.601   2.227
11481TIP3    H134328   5.864   8.673   2.176
11481TIP3    H234329   5.745   8.646   2.260
11482TIP3   OH234330   4.846   7.376   4.092
11482TIP3    H134331   4.750   7.382   4.109
11482TIP3    H234332   4.876   7.321   4.166
11483TIP3   OH234333   5.646   8.061   2.626
11483TIP3    H134334   5.637   7.993   2.696
11483TIP3    H234335   5.743   8.058   2.612
11484TIP3   OH234336   4.563   8.460   3.725
11484TIP3    H134337   4.615   8.387   3.761
11484TIP3    H234338   4.588   8.532   3.784
11485TIP3   OH234339   4.849   8.107   2.412
11485TIP3    H134340   4.869   8.021   2.372
11485TIP3    H234341   4.844   8.085   2.506
11486TIP3   OH234342   4.808   8.110   2.708
11486TIP3    H134343   4.900   8.106   2.738
11486TIP3    H234344   4.797   8.208   2.701
11487TIP3   OH234345   5.684   7.439   3.772
11487TIP3    H134346   5.760   7.480   3.815
11487TIP3    H234347   5.669   7.359   3.828
11488TIP3   OH234348   5.562   7.193   2.940
11488TIP3    H134349   5.550   7.216   2.846
11488TIP3    H234350   5.602   7.275   2.976
11489TIP3   OH234351   5.056   8.302   2.627
11489TIP3    H134352   4.972   8.336   2.663
11489TIP3    H234353   5.081   8.377   2.570
11490TIP3   OH234354   5.248   7.374   3.042
11490TIP3    H134355   5.314   7.444   3.025
11490TIP3    H234356   5.255   7.364   3.140
11491TIP3   OH234357   5.522   7.691   3.850
11491TIP3    H134358   5.542   7.746   3.929
11491TIP3    H234359   5.576   7.612   3.867
11492TIP3   OH234360   5.396   7.098   3.143
11492TIP3    H134361   5.396   7.172   3.207
11492TIP3    H234362   5.456   7.134   3.074
11493TIP3   OH234363   4.798   8.379   2.695
11493TIP3    H134364   4.773   8.449   2.631
11493TIP3    H234365   4.786   8.426   2.781
11494TIP3   OH234366   4.907   7.098   2.932
11494TIP3    H134367   4.905   7.186   2.973
11494TIP3    H234368   5.003   7.078   2.941
11495TIP3   OH234369   6.160   7.591   3.830
11495TIP3    H134370   6.062   7.589   3.838
11495TIP3    H234371   6.171   7.550   3.743
11496TIP3   OH234372   5.812   7.786   3.218
11496TIP3    H134373   5.737   7.726   3.232
11496TIP3    H234374   5.884   7.740   3.266
11497TIP3   OH234375   4.470   7.282   2.821
11497TIP3    H134376   4.464   7.380   2.817
11497TIP3    H234377   4.389   7.254   2.777
11498TIP3   OH234378   5.780   8.742   3.168
11498TIP3    H134379   5.738   8.789   3.092
11498TIP3    H234380   5.874   8.760   3.147
11499TIP3   OH234381   4.856   7.010   3.695
11499TIP3    H134382   4.825   6.975   3.609
11499TIP3    H234383   4.846   6.932   3.753
11500TIP3   OH234384   4.412   8.248   3.076
11500TIP3    H134385   4.338   8.248   3.138
11500TIP3    H234386   4.368   8.276   2.993
11501TIP3   OH234387   4.552   8.771   4.147
11501TIP3    H134388   4.639   8.770   4.194
11501TIP3    H234389   4.532   8.676   4.146
11502TIP3   OH234390   5.034   8.736   4.190
11502TIP3    H134391   5.128   8.714   4.200
11502TIP3    H234392   5.009   8.676   4.117
11503TIP3   OH234393   5.015   8.311   2.319
11503TIP3    H134394   4.962   8.239   2.359
11503TIP3    H234395   5.090   8.260   2.282
11504TIP3   OH234396   5.674   8.640   3.924
11504TIP3    H134397   5.664   8.570   3.993
11504TIP3    H234398   5.751   8.690   3.956
11505TIP3   OH234399   5.451   8.350   2.231
11505TIP3    H134400   5.498   8.288   2.289
11505TIP3    H234401   5.507   8.350   2.150
11506TIP3   OH234402   4.683   8.177   4.346
11506TIP3    H134403   4.699   8.081   4.356
11506TIP3    H234404   4.595   8.178   4.303
11507TIP3   OH234405   4.669   7.822   2.564
11507TIP3    H134406   4.731   7.759   2.606
11507TIP3    H234407   4.717   7.834   2.479
11508TIP3   OH234408   5.291   8.262   4.121
11508TIP3    H134409   5.250   8.277   4.034
11508TIP3    H234410   5.323   8.169   4.114
11509TIP3   OH234411   5.162   8.024   2.348
11509TIP3    H134412   5.174   8.037   2.445
11509TIP3    H234413   5.170   7.926   2.343
11510TIP3   OH234414   5.782   8.269   3.725
11510TIP3    H134415   5.858   8.314   3.683
11510TIP3    H234416   5.712   8.336   3.713
11511TIP3   OH234417   4.804   7.909   4.327
11511TIP3    H134418   4.879   7.851   4.310
11511TIP3    H234419   4.827   7.943   4.416
11512TIP3   OH234420   4.849   7.730   2.764
11512TIP3    H134421   4.841   7.685   2.850
11512TIP3    H234422   4.895   7.661   2.711
11513TIP3   OH234423   5.135   7.793   3.987
11513TIP3    H134424   5.059   7.855   3.991
11513TIP3    H234425   5.186   7.828   3.912
11514TIP3   OH234426   4.967   7.536   2.604
11514TIP3    H134427   4.945   7.531   2.509
11514TIP3    H234428   5.065   7.534   2.599
11515TIP3   OH234429   5.653   8.197   4.124
11515TIP3    H134430   5.737   8.173   4.081
11515TIP3    H234431   5.649   8.132   4.197
11516TIP3   OH234432   5.789   7.855   2.267
11516TIP3    H134433   5.770   7.809   2.183
11516TIP3    H234434   5.757   7.945   2.243
11517TIP3   OH234435   5.259   7.583   4.117
11517TIP3    H134436   5.261   7.503   4.061
11517TIP3    H234437   5.215   7.649   4.059
11518TIP3   OH234438   5.263   7.369   3.923
11518TIP3    H134439   5.290   7.410   3.839
11518TIP3    H234440   5.169   7.347   3.905
11519TIP3   OH234441   5.289   7.902   3.795
11519TIP3    H134442   5.374   7.913   3.752
11519TIP3    H234443   5.234   7.971   3.751
11520TIP3   OH234444   5.870   7.871   4.175
11520TIP3    H134445   5.917   7.791   4.200
11520TIP3    H234446   5.942   7.929   4.146
11521TIP3   OH234447   5.914   8.124   3.912
11521TIP3    H134448   5.855   8.178   3.854
11521TIP3    H234449   6.001   8.145   3.873
11522TIP3   OH234450   5.134   7.697   4.344
11522TIP3    H134451   5.067   7.628   4.362
11522TIP3    H234452   5.172   7.666   4.260
11523TIP3   OH234453   5.395   7.132   3.990
11523TIP3    H134454   5.346   7.215   3.969
11523TIP3    H234455   5.325   7.065   3.980
11524TIP3   OH234456   5.522   7.639   4.207
11524TIP3    H134457   5.515   7.626   4.304
11524TIP3    H234458   5.431   7.613   4.181
11525TIP3   OH234459   5.758   7.583   4.060
11525TIP3    H134460   5.685   7.588   4.124
11525TIP3    H234461   5.833   7.555   4.117
11526TIP3   OH234462   5.987   7.525   4.209
11526TIP3    H134463   6.000   7.430   4.231
11526TIP3    H234464   5.982   7.567   4.298
11527TIP3   OH234465   4.977   7.475   4.400
11527TIP3    H134466   4.986   7.383   4.368
11527TIP3    H234467   5.014   7.466   4.491
11528TIP3   OH234468   5.486   7.143   4.249
11528TIP3    H134469   5.557   7.075   4.245
11528TIP3    H234470   5.449   7.135   4.159
11529TIP3   OH234471   5.555   7.359   4.407
11529TIP3    H134472   5.532   7.287   4.344
11529TIP3    H234473   5.477   7.418   4.402
11530TIP3   OH234474   4.775   8.579   2.505
11530TIP3    H134475   4.871   8.580   2.488
11530TIP3    H234476   4.745   8.634   2.431
11531TIP3   OH234477   4.278   7.954   2.725
11531TIP3    H134478   4.318   7.999   2.651
11531TIP3    H234479   4.251   7.869   2.685
11532TIP3   OH234480   4.172   8.580   3.137
11532TIP3    H134481   4.104   8.519   3.102
11532TIP3    H234482   4.216   8.522   3.203
11533TIP3   OH234483   4.305   8.432   3.327
11533TIP3    H134484   4.294   8.360   3.391
11533TIP3    H234485   4.358   8.494   3.380
11534TIP3   OH234486   6.032   8.834   3.125
11534TIP3    H134487   6.060   8.865   3.213
11534TIP3    H234488   6.097   8.877   3.066
11535TIP3   OH234489   6.064   8.853   3.407
11535TIP3    H134490   6.019   8.766   3.402
11535TIP3    H234491   6.138   8.830   3.465
11536TIP3   OH234492   6.107   8.530   3.978
11536TIP3    H134493   6.036   8.538   4.044
11536TIP3    H234494   6.150   8.618   3.984
11537TIP3   OH234495   5.924   8.043   2.600
11537TIP3    H134496   5.993   8.106   2.570
11537TIP3    H234497   5.968   8.004   2.679
11538TIP3   OH234498   6.052   7.910   2.803
11538TIP3    H134499   5.987   7.868   2.863
11538TIP3    H234500   6.118   7.947   2.865
11539TIP3   OH234501   6.106   8.301   3.234
11539TIP3    H134502   6.161   8.236   3.186
11539TIP3    H234503   6.100   8.375   3.170
11540TIP3   OH234504   5.938   8.603   3.429
11540TIP3    H134505   5.867   8.643   3.482
11540TIP3    H234506   5.888   8.555   3.360
11541TIP3   OH234507   5.991   7.817   2.450
11541TIP3    H134508   5.919   7.820   2.382
11541TIP3    H234509   5.963   7.893   2.505
11542TIP3   OH234510   5.860   7.491   2.405
11542TIP3    H134511   5.821   7.529   2.326
11542TIP3    H234512   5.836   7.396   2.396
11543TIP3   OH234513   5.866   7.766   2.949
11543TIP3    H134514   5.876   7.670   2.944
11543TIP3    H234515   5.853   7.781   3.046
11544TIP3   OH234516   4.494   7.841   3.695
11544TIP3    H134517   4.493   7.810   3.603
11544TIP3    H234518   4.591   7.842   3.713
11545TIP3   OH234519   6.157   8.191   3.805
11545TIP3    H134520   6.229   8.125   3.797
11545TIP3    H234521   6.186   8.261   3.745
11546TIP3   OH234522   6.342   7.996   3.820
11546TIP3    H134523   6.268   7.946   3.860
11546TIP3    H234524   6.415   7.933   3.835
11547TIP3   OH234525   5.806   7.225   2.390
11547TIP3    H134526   5.881   7.194   2.444
11547TIP3    H234527   5.733   7.165   2.414
11548TIP3   OH234528   5.863   7.482   2.844
11548TIP3    H134529   5.903   7.393   2.859
11548TIP3    H234530   5.922   7.515   2.774
11549TIP3   OH234531   6.024   7.656   3.339
11549TIP3    H134532   6.110   7.682   3.299
11549TIP3    H234533   6.038   7.693   3.428
11550TIP3   OH234534   6.092   7.799   3.570
11550TIP3    H134535   6.016   7.834   3.621
11550TIP3    H234536   6.126   7.881   3.527
11551TIP3   OH234537   4.711   7.526   4.368
11551TIP3    H134538   4.809   7.521   4.373
11551TIP3    H234539   4.687   7.441   4.410
11552TIP3   OH234540   6.545   7.389   4.127
11552TIP3    H134541   6.604   7.325   4.082
11552TIP3    H234542   6.516   7.446   4.052
11553TIP3   OH234543   5.972   7.232   2.882
11553TIP3    H134544   6.021   7.217   2.966
11553TIP3    H234545   5.911   7.155   2.881
11554TIP3   OH234546   4.672   7.218   3.698
11554TIP3    H134547   4.734   7.143   3.711
11554TIP3    H234548   4.734   7.293   3.695
11555TIP3   OH234549   4.474   7.492   3.773
11555TIP3    H134550   4.525   7.488   3.690
11555TIP3    H234551   4.504   7.575   3.811
11556TIP3   OH234552   6.417   7.531   3.933
11556TIP3    H134553   6.333   7.572   3.961
11556TIP3    H234554   6.383   7.460   3.875
11557TIP3   OH234555   6.053   7.167   2.515
11557TIP3    H134556   6.093   7.095   2.462
11557TIP3    H234557   6.120   7.237   2.510
11558TIP3   OH234558   4.458   6.995   3.277
11558TIP3    H134559   4.365   6.991   3.303
11558TIP3    H234560   4.455   7.053   3.198
11559TIP3   OH234561   5.617   8.699   2.781
11559TIP3    H134562   5.669   8.686   2.699
11559TIP3    H234563   5.670   8.765   2.828
11560TIP3   OH234564   4.677   7.073   4.088
11560TIP3    H134565   4.629   7.069   4.172
11560TIP3    H234566   4.610   7.114   4.030
11561TIP3   OH234567   4.718   8.504   4.167
11561TIP3    H134568   4.626   8.476   4.151
11561TIP3    H234569   4.730   8.483   4.260
11562TIP3   OH234570   4.896   8.534   3.713
11562TIP3    H134571   4.848   8.610   3.675
11562TIP3    H234572   4.982   8.549   3.670
11563TIP3   OH234573   5.341   8.780   3.852
11563TIP3    H134574   5.383   8.780   3.941
11563TIP3    H234575   5.408   8.831   3.801
11564TIP3   OH234576   5.521   8.932   3.710
11564TIP3    H134577   5.592   8.880   3.671
11564TIP3    H234578   5.572   8.989   3.772
11565TIP3   OH234579   6.315   7.294   3.810
11565TIP3    H134580   6.223   7.287   3.780
11565TIP3    H234581   6.345   7.201   3.800
11566TIP3   OH234582   4.572   8.792   3.738
11566TIP3    H134583   4.483   8.826   3.715
11566TIP3    H234584   4.583   8.829   3.826
11567TIP3   OH234585   4.809   8.770   3.596
11567TIP3    H134586   4.723   8.783   3.641
11567TIP3    H234587   4.790   8.804   3.506
11568TIP3   OH234588   5.235   8.801   3.393
11568TIP3    H134589   5.165   8.820   3.328
11568TIP3    H234590   5.247   8.888   3.436
11569TIP3   OH234591   5.504   8.739   3.444
11569TIP3    H134592   5.409   8.756   3.425
11569TIP3    H234593   5.546   8.816   3.403
11570TIP3   OH234594   5.712   8.932   3.360
11570TIP3    H134595   5.697   9.016   3.312
11570TIP3    H234596   5.737   8.871   3.288
11571TIP3   OH234597   4.485   8.586   3.482
11571TIP3    H134598   4.511   8.560   3.573
11571TIP3    H234599   4.557   8.542   3.432
11572TIP3   OH234600   4.679   8.457   3.339
11572TIP3    H134601   4.694   8.373   3.390
11572TIP3    H234602   4.770   8.494   3.337
11573TIP3   OH234603   4.944   8.551   3.344
11573TIP3    H134604   4.977   8.459   3.335
11573TIP3    H234605   4.988   8.576   3.427
11574TIP3   OH234606   5.515   7.206   3.423
11574TIP3    H134607   5.475   7.138   3.480
11574TIP3    H234608   5.593   7.160   3.387
11575TIP3   OH234609   6.043   7.085   3.333
11575TIP3    H134610   6.079   7.140   3.260
11575TIP3    H234611   5.948   7.108   3.330
11576TIP3   OH234612   6.138   7.189   3.098
11576TIP3    H134613   6.212   7.138   3.058
11576TIP3    H234614   6.171   7.281   3.084
11577TIP3   OH234615   4.769   6.918   3.445
11577TIP3    H134616   4.677   6.884   3.448
11577TIP3    H234617   4.818   6.833   3.442
11578TIP3   OH234618   4.555   6.787   3.095
11578TIP3    H134619   4.585   6.845   3.022
11578TIP3    H234620   4.527   6.852   3.162
11579TIP3   OH234621   5.211   6.951   3.328
11579TIP3    H134622   5.270   7.000   3.268
11579TIP3    H234623   5.237   6.986   3.414
11580TIP3   OH234624   5.758   7.097   3.312
11580TIP3    H134625   5.758   7.059   3.223
11580TIP3    H234626   5.745   7.016   3.367
11581TIP3   OH234627   5.789   7.019   2.873
11581TIP3    H134628   5.702   7.061   2.885
11581TIP3    H234629   5.774   6.933   2.920
11582TIP3   OH234630   4.275   8.352   2.868
11582TIP3    H134631   4.185   8.326   2.838
11582TIP3    H234632   4.268   8.448   2.858
11583TIP3   OH234633   4.672   6.947   2.857
11583TIP3    H134634   4.720   6.883   2.801
11583TIP3    H234635   4.746   7.000   2.893
11584TIP3   OH234636   5.185   7.122   2.957
11584TIP3    H134637   5.244   7.075   3.017
11584TIP3    H234638   5.207   7.215   2.982
11585TIP3   OH234639   5.045   8.546   2.458
11585TIP3    H134640   5.133   8.569   2.421
11585TIP3    H234641   5.023   8.472   2.397
11586TIP3   OH234642   5.763   8.665   2.549
11586TIP3    H134643   5.754   8.568   2.537
11586TIP3    H234644   5.718   8.697   2.468
11587TIP3   OH234645   4.977   7.197   4.334
11587TIP3    H134646   4.941   7.129   4.394
11587TIP3    H234647   5.071   7.198   4.363
11588TIP3   OH234648   5.224   7.193   4.454
11588TIP3    H134649   5.312   7.171   4.418
11588TIP3    H234650   5.214   7.123   4.522
11589TIP3   OH234651   4.346   8.374   2.515
11589TIP3    H134652   4.346   8.416   2.602
11589TIP3    H234653   4.438   8.342   2.505
11590TIP3   OH234654   6.049   7.254   4.244
11590TIP3    H134655   6.068   7.225   4.336
11590TIP3    H234656   6.139   7.251   4.204
11591TIP3   OH234657   5.990   8.810   3.736
11591TIP3    H134658   5.910   8.778   3.688
11591TIP3    H234659   5.969   8.905   3.741
11592TIP3   OH234660   7.257   8.182   2.502
11592TIP3    H134661   7.227   8.273   2.482
11592TIP3    H234662   7.182   8.131   2.467
11593TIP3   OH234663   7.255   8.182   2.885
11593TIP3    H134664   7.287   8.153   2.972
11593TIP3    H234665   7.214   8.101   2.851
11594TIP3   OH234666   6.553   8.076   3.249
11594TIP3    H134667   6.583   8.008   3.312
11594TIP3    H234668   6.631   8.133   3.246
11595TIP3   OH234669   7.499   8.483   2.565
11595TIP3    H134670   7.482   8.412   2.629
11595TIP3    H234671   7.526   8.556   2.622
11596TIP3   OH234672   6.524   8.486   2.973
11596TIP3    H134673   6.516   8.388   2.975
11596TIP3    H234674   6.621   8.495   2.970
11597TIP3   OH234675   6.232   7.689   2.758
11597TIP3    H134676   6.184   7.772   2.774
11597TIP3    H234677   6.161   7.635   2.719
11598TIP3   OH234678   6.291   7.976   2.930
11598TIP3    H134679   6.340   7.899   2.967
11598TIP3    H234680   6.352   8.007   2.862
11599TIP3   OH234681   7.150   8.949   2.581
11599TIP3    H134682   7.194   8.876   2.533
11599TIP3    H234683   7.139   8.910   2.669
11600TIP3   OH234684   7.053   8.408   2.932
11600TIP3    H134685   7.091   8.331   2.887
11600TIP3    H234686   7.137   8.453   2.956
11601TIP3   OH234687   8.045   7.737   2.926
11601TIP3    H134688   8.092   7.803   2.980
11601TIP3    H234689   8.079   7.757   2.837
11602TIP3   OH234690   7.465   7.912   2.963
11602TIP3    H134691   7.506   7.826   2.985
11602TIP3    H234692   7.434   7.894   2.872
11603TIP3   OH234693   6.804   7.568   2.930
11603TIP3    H134694   6.784   7.641   2.867
11603TIP3    H234695   6.755   7.495   2.885
11604TIP3   OH234696   7.498   7.659   2.555
11604TIP3    H134697   7.571   7.643   2.619
11604TIP3    H234698   7.548   7.695   2.480
11605TIP3   OH234699   6.437   7.771   3.036
11605TIP3    H134700   6.520   7.751   3.084
11605TIP3    H234701   6.451   7.714   2.957
11606TIP3   OH234702   6.878   7.968   2.829
11606TIP3    H134703   6.972   7.943   2.843
11606TIP3    H234704   6.839   7.884   2.797
11607TIP3   OH234705   8.146   7.940   3.090
11607TIP3    H134706   8.058   7.982   3.080
11607TIP3    H234707   8.140   7.912   3.183
11608TIP3   OH234708   6.800   7.551   3.364
11608TIP3    H134709   6.740   7.589   3.297
11608TIP3    H234710   6.749   7.568   3.445
11609TIP3   OH234711   7.150   8.404   2.371
11609TIP3    H134712   7.105   8.380   2.289
11609TIP3    H234713   7.102   8.487   2.395
11610TIP3   OH234714   6.907   8.327   3.159
11610TIP3    H134715   6.844   8.392   3.197
11610TIP3    H234716   6.948   8.379   3.087
11611TIP3   OH234717   7.712   7.660   2.725
11611TIP3    H134718   7.693   7.618   2.810
11611TIP3    H234719   7.763   7.739   2.753
11612TIP3   OH234720   6.671   7.667   3.148
11612TIP3    H134721   6.733   7.739   3.172
11612TIP3    H234722   6.720   7.626   3.073
11613TIP3   OH234723   6.734   8.520   3.256
11613TIP3    H134724   6.708   8.607   3.219
11613TIP3    H234725   6.656   8.504   3.314
11614TIP3   OH234726   6.128   8.211   2.493
11614TIP3    H134727   6.089   8.238   2.408
11614TIP3    H234728   6.160   8.296   2.529
11615TIP3   OH234729   7.572   8.728   2.740
11615TIP3    H134730   7.483   8.714   2.780
11615TIP3    H234731   7.557   8.812   2.692
11616TIP3   OH234732   7.855   7.624   3.094
11616TIP3    H134733   7.771   7.660   3.062
11616TIP3    H234734   7.919   7.658   3.028
11617TIP3   OH234735   7.156   7.271   3.077
11617TIP3    H134736   7.142   7.177   3.095
11617TIP3    H234737   7.079   7.310   3.125
11618TIP3   OH234738   7.271   8.774   2.407
11618TIP3    H134739   7.320   8.691   2.387
11618TIP3    H234740   7.332   8.838   2.365
11619TIP3   OH234741   7.414   8.559   2.313
11619TIP3    H134742   7.372   8.480   2.275
11619TIP3    H234743   7.450   8.523   2.398
11620TIP3   OH234744   7.784   8.637   3.073
11620TIP3    H134745   7.775   8.557   3.017
11620TIP3    H234746   7.767   8.709   3.008
11621TIP3   OH234747   7.088   8.037   2.335
11621TIP3    H134748   7.006   8.084   2.311
11621TIP3    H234749   7.128   8.022   2.247
11622TIP3   OH234750   7.045   7.816   2.077
11622TIP3    H134751   7.127   7.863   2.099
11622TIP3    H234752   7.079   7.754   2.009
11623TIP3   OH234753   7.990   8.279   2.920
11623TIP3    H134754   7.905   8.328   2.928
11623TIP3    H234755   8.016   8.301   2.829
11624TIP3   OH234756   7.436   8.119   2.305
11624TIP3    H134757   7.379   8.141   2.383
11624TIP3    H234758   7.518   8.091   2.351
11625TIP3   OH234759   7.669   8.155   3.219
11625TIP3    H134760   7.665   8.237   3.271
11625TIP3    H234761   7.582   8.159   3.173
11626TIP3   OH234762   6.666   8.114   2.723
11626TIP3    H134763   6.624   8.056   2.656
11626TIP3    H234764   6.743   8.060   2.751
11627TIP3   OH234765   6.797   8.527   2.870
11627TIP3    H134766   6.775   8.483   2.786
11627TIP3    H234767   6.886   8.491   2.888
11628TIP3   OH234768   6.803   8.084   3.076
11628TIP3    H134769   6.836   8.063   2.987
11628TIP3    H234770   6.846   8.170   3.096
11629TIP3   OH234771   7.329   8.721   2.854
11629TIP3    H134772   7.315   8.801   2.908
11629TIP3    H234773   7.313   8.648   2.917
11630TIP3   OH234774   6.940   8.642   3.398
11630TIP3    H134775   6.881   8.703   3.447
11630TIP3    H234776   6.874   8.588   3.350
11631TIP3   OH234777   7.277   7.972   2.134
11631TIP3    H134778   7.334   8.034   2.184
11631TIP3    H234779   7.302   7.994   2.041
11632TIP3   OH234780   6.694   8.199   3.499
11632TIP3    H134781   6.699   8.285   3.546
11632TIP3    H234782   6.599   8.178   3.513
11633TIP3   OH234783   7.017   8.653   2.407
11633TIP3    H134784   7.096   8.707   2.424
11633TIP3    H234785   6.956   8.715   2.367
11634TIP3   OH234786   6.734   8.809   3.487
11634TIP3    H134787   6.698   8.808   3.397
11634TIP3    H234788   6.655   8.788   3.542
11635TIP3   OH234789   7.789   7.211   2.183
11635TIP3    H134790   7.707   7.230   2.232
11635TIP3    H234791   7.804   7.296   2.137
11636TIP3   OH234792   6.531   7.957   2.529
11636TIP3    H134793   6.466   8.000   2.471
11636TIP3    H234794   6.492   7.869   2.539
11637TIP3   OH234795   7.587   8.581   1.727
11637TIP3    H134796   7.589   8.677   1.705
11637TIP3    H234797   7.680   8.555   1.709
11638TIP3   OH234798   6.313   8.340   3.434
11638TIP3    H134799   6.248   8.316   3.365
11638TIP3    H234800   6.351   8.253   3.460
11639TIP3   OH234801   6.167   8.533   3.065
11639TIP3    H134802   6.263   8.526   3.058
11639TIP3    H234803   6.159   8.611   3.122
11640TIP3   OH234804   7.137   8.771   3.256
11640TIP3    H134805   7.136   8.863   3.290
11640TIP3    H234806   7.066   8.730   3.311
11641TIP3   OH234807   6.900   8.900   2.208
11641TIP3    H134808   6.851   8.880   2.126
11641TIP3    H234809   6.864   8.987   2.233
11642TIP3   OH234810   6.336   8.749   2.594
11642TIP3    H134811   6.384   8.739   2.679
11642TIP3    H234812   6.281   8.669   2.596
11643TIP3   OH234813   7.101   8.801   1.849
11643TIP3    H134814   7.159   8.731   1.813
11643TIP3    H234815   7.133   8.808   1.941
11644TIP3   OH234816   7.150   8.846   2.120
11644TIP3    H134817   7.062   8.857   2.161
11644TIP3    H234818   7.199   8.803   2.193
11645TIP3   OH234819   7.922   8.118   3.397
11645TIP3    H134820   7.841   8.125   3.346
11645TIP3    H234821   7.946   8.024   3.382
11646TIP3   OH234822   6.518   8.524   3.423
11646TIP3    H134823   6.568   8.506   3.505
11646TIP3    H234824   6.444   8.459   3.431
11647TIP3   OH234825   6.918   7.346   3.207
11647TIP3    H134826   6.828   7.316   3.181
11647TIP3    H234827   6.893   7.429   3.253
11648TIP3   OH234828   7.452   7.461   3.401
11648TIP3    H134829   7.521   7.435   3.465
11648TIP3    H234830   7.368   7.442   3.448
11649TIP3   OH234831   7.688   7.888   3.317
11649TIP3    H134832   7.641   7.884   3.404
11649TIP3    H234833   7.666   7.977   3.285
11650TIP3   OH234834   7.359   8.027   1.884
11650TIP3    H134835   7.316   7.998   1.801
11650TIP3    H234836   7.437   8.074   1.850
11651TIP3   OH234837   7.066   7.390   2.180
11651TIP3    H134838   7.030   7.390   2.270
11651TIP3    H234839   7.022   7.310   2.144
11652TIP3   OH234840   6.849   7.862   3.226
11652TIP3    H134841   6.799   7.884   3.307
11652TIP3    H234842   6.833   7.943   3.172
11653TIP3   OH234843   6.733   7.748   2.739
11653TIP3    H134844   6.641   7.722   2.757
11653TIP3    H234845   6.746   7.708   2.650
11654TIP3   OH234846   7.224   7.835   2.467
11654TIP3    H134847   7.171   7.906   2.425
11654TIP3    H234848   7.276   7.802   2.391
11655TIP3   OH234849   7.398   8.112   3.553
11655TIP3    H134850   7.376   8.039   3.615
11655TIP3    H234851   7.492   8.126   3.575
11656TIP3   OH234852   7.380   7.863   2.705
11656TIP3    H134853   7.319   7.891   2.634
11656TIP3    H234854   7.413   7.780   2.664
11657TIP3   OH234855   6.667   7.891   3.435
11657TIP3    H134856   6.697   7.953   3.502
11657TIP3    H234857   6.657   7.809   3.486
11658TIP3   OH234858   6.718   7.368   2.144
11658TIP3    H134859   6.709   7.368   2.241
11658TIP3    H234860   6.641   7.422   2.118
11659TIP3   OH234861   6.261   7.413   3.014
11659TIP3    H134862   6.336   7.445   3.069
11659TIP3    H234863   6.304   7.382   2.933
11660TIP3   OH234864   6.233   7.394   2.535
11660TIP3    H134865   6.278   7.432   2.456
11660TIP3    H234866   6.173   7.467   2.555
11661TIP3   OH234867   7.391   8.110   3.129
11661TIP3    H134868   7.424   8.038   3.070
11661TIP3    H234869   7.363   8.056   3.206
11662TIP3   OH234870   7.060   7.570   2.801
11662TIP3    H134871   6.979   7.569   2.854
11662TIP3    H234872   7.129   7.568   2.869
11663TIP3   OH234873   6.495   7.626   2.809
11663TIP3    H134874   6.400   7.633   2.781
11663TIP3    H234875   6.518   7.535   2.785
11664TIP3   OH234876   6.764   7.623   2.496
11664TIP3    H134877   6.858   7.638   2.475
11664TIP3    H234878   6.718   7.645   2.413
11665TIP3   OH234879   7.547   7.648   2.998
11665TIP3    H134880   7.518   7.659   3.091
11665TIP3    H234881   7.480   7.585   2.966
11666TIP3   OH234882   6.606   7.656   2.275
11666TIP3    H134883   6.536   7.611   2.224
11666TIP3    H234884   6.659   7.694   2.201
11667TIP3   OH234885   7.724   9.320   3.221
11667TIP3    H134886   7.718   9.348   3.128
11667TIP3    H234887   7.787   9.384   3.258
11668TIP3   OH234888   6.680   8.446   3.643
11668TIP3    H134889   6.760   8.475   3.692
11668TIP3    H234890   6.616   8.443   3.716
11669TIP3   OH234891   7.143   7.899   2.898
11669TIP3    H134892   7.216   7.859   2.849
11669TIP3    H234893   7.152   7.856   2.986
11670TIP3   OH234894   6.666   7.387   2.776
11670TIP3    H134895   6.632   7.307   2.823
11670TIP3    H234896   6.715   7.348   2.703
11671TIP3   OH234897   7.120   7.795   3.188
11671TIP3    H134898   7.031   7.832   3.203
11671TIP3    H234899   7.178   7.856   3.239
11672TIP3   OH234900   6.855   8.188   2.281
11672TIP3    H134901   6.784   8.121   2.271
11672TIP3    H234902   6.837   8.220   2.373
11673TIP3   OH234903   7.756   8.421   2.911
11673TIP3    H134904   7.777   8.470   2.829
11673TIP3    H234905   7.671   8.377   2.887
11674TIP3   OH234906   7.316   7.494   2.150
11674TIP3    H134907   7.219   7.478   2.153
11674TIP3    H234908   7.322   7.591   2.162
11675TIP3   OH234909   7.261   8.507   3.279
11675TIP3    H134910   7.280   8.480   3.370
11675TIP3    H234911   7.216   8.593   3.290
11676TIP3   OH234912   7.384   7.746   2.253
11676TIP3    H134913   7.480   7.755   2.264
11676TIP3    H234914   7.360   7.822   2.195
11677TIP3   OH234915   6.549   8.208   2.959
11677TIP3    H134916   6.588   8.179   2.874
11677TIP3    H234917   6.590   8.147   3.021
11678TIP3   OH234918   7.003   8.337   2.105
11678TIP3    H134919   6.954   8.422   2.112
11678TIP3    H234920   6.949   8.280   2.164
11679TIP3   OH234921   6.430   8.129   3.572
11679TIP3    H134922   6.453   8.117   3.666
11679TIP3    H234923   6.362   8.061   3.559
11680TIP3   OH234924   7.156   8.244   3.590
11680TIP3    H134925   7.097   8.183   3.544
11680TIP3    H234926   7.244   8.209   3.563
11681TIP3   OH234927   7.417   8.769   3.172
11681TIP3    H134928   7.321   8.762   3.186
11681TIP3    H234929   7.444   8.817   3.253
11682TIP3   OH234930   7.846   7.827   2.070
11682TIP3    H134931   7.782   7.782   2.011
11682TIP3    H234932   7.836   7.917   2.034
11683TIP3   OH234933   8.031   8.688   3.156
11683TIP3    H134934   7.937   8.664   3.138
11683TIP3    H234935   8.073   8.652   3.075
11684TIP3   OH234936   7.528   8.651   1.993
11684TIP3    H134937   7.498   8.583   2.054
11684TIP3    H234938   7.536   8.604   1.908
11685TIP3   OH234939   7.523   8.285   2.830
11685TIP3    H134940   7.429   8.259   2.844
11685TIP3    H234941   7.556   8.204   2.785
11686TIP3   OH234942   6.650   8.512   2.584
11686TIP3    H134943   6.649   8.593   2.529
11686TIP3    H234944   6.556   8.494   2.593
11687TIP3   OH234945   6.214   7.816   2.287
11687TIP3    H134946   6.260   7.900   2.308
11687TIP3    H234947   6.137   7.821   2.348
11688TIP3   OH234948   6.789   8.277   2.528
11688TIP3    H134949   6.753   8.367   2.547
11688TIP3    H234950   6.753   8.227   2.603
11689TIP3   OH234951   6.919   8.855   3.053
11689TIP3    H134952   6.961   8.928   3.003
11689TIP3    H234953   6.995   8.820   3.102
11690TIP3   OH234954   6.569   8.751   2.435
11690TIP3    H134955   6.483   8.759   2.482
11690TIP3    H234956   6.600   8.844   2.438
11691TIP3   OH234957   7.308   8.490   3.011
11691TIP3    H134958   7.298   8.489   3.109
11691TIP3    H234959   7.386   8.433   3.000
11692TIP3   OH234960   7.282   8.385   1.893
11692TIP3    H134961   7.334   8.359   1.972
11692TIP3    H234962   7.194   8.352   1.919
11693TIP3   OH234963   7.560   9.021   3.060
11693TIP3    H134964   7.480   8.965   3.058
11693TIP3    H234965   7.540   9.087   2.990
11694TIP3   OH234966   7.603   8.854   1.701
11694TIP3    H134967   7.644   8.921   1.644
11694TIP3    H234968   7.529   8.906   1.739
11695TIP3   OH234969   6.642   7.633   3.579
11695TIP3    H134970   6.546   7.639   3.596
11695TIP3    H234971   6.671   7.577   3.653
11696TIP3   OH234972   7.443   8.319   2.110
11696TIP3    H134973   7.430   8.252   2.180
11696TIP3    H234974   7.540   8.313   2.098
11697TIP3   OH234975   6.358   8.718   3.212
11697TIP3    H134976   6.410   8.642   3.243
11697TIP3    H234977   6.385   8.786   3.274
11698TIP3   OH234978   6.647   8.364   1.894
11698TIP3    H134979   6.661   8.272   1.864
11698TIP3    H234980   6.628   8.350   1.989
11699TIP3   OH234981   6.592   8.368   2.168
11699TIP3    H134982   6.666   8.339   2.223
11699TIP3    H234983   6.598   8.466   2.175
11700TIP3   OH234984   6.328   8.061   2.369
11700TIP3    H134985   6.263   8.106   2.426
11700TIP3    H234986   6.344   8.130   2.302
11701TIP3   OH234987   7.478   7.697   3.259
11701TIP3    H134988   7.559   7.738   3.296
11701TIP3    H234989   7.467   7.617   3.315
11702TIP3   OH234990   7.361   7.447   2.426
11702TIP3    H134991   7.343   7.471   2.333
11702TIP3    H234992   7.396   7.532   2.462
11703TIP3   OH234993   6.859   8.566   2.116
11703TIP3    H134994   6.772   8.593   2.151
11703TIP3    H234995   6.873   8.635   2.050
11704TIP3   OH234996   7.048   7.628   2.529
11704TIP3    H134997   7.111   7.701   2.510
11704TIP3    H234998   7.053   7.622   2.626
11705TIP3   OH234999   7.318   7.948   3.336
11705TIP3    H135000   7.338   8.001   3.416
11705TIP3    H235001   7.373   7.868   3.350
11706TIP3   OH235002   7.192   7.355   2.630
11706TIP3    H135003   7.186   7.431   2.691
11706TIP3    H235004   7.253   7.391   2.562
11707TIP3   OH235005   6.603   8.642   2.182
11707TIP3    H135006   6.573   8.711   2.120
11707TIP3    H235007   6.587   8.684   2.269
11708TIP3   OH235008   6.702   7.354   2.422
11708TIP3    H135009   6.701   7.446   2.457
11708TIP3    H235010   6.799   7.336   2.429
11709TIP3   OH235011   7.960   7.858   3.298
11709TIP3    H135012   7.862   7.856   3.307
11709TIP3    H235013   7.973   7.777   3.247
11710TIP3   OH235014   7.606   8.045   2.703
11710TIP3    H135015   7.531   7.985   2.717
11710TIP3    H235016   7.678   7.999   2.751
11711TIP3   OH235017   6.320   8.271   2.174
11711TIP3    H135018   6.389   8.340   2.184
11711TIP3    H235019   6.365   8.214   2.108
11712TIP3   OH235020   6.264   7.546   2.310
11712TIP3    H135021   6.266   7.644   2.305
11712TIP3    H235022   6.183   7.525   2.262
11713TIP3   OH235023   7.550   8.992   2.655
11713TIP3    H135024   7.506   9.040   2.581
11713TIP3    H235025   7.643   9.010   2.630
11714TIP3   OH235026   6.653   7.267   3.181
11714TIP3    H135027   6.622   7.233   3.095
11714TIP3    H235028   6.642   7.189   3.239
11715TIP3   OH235029   6.193   8.486   2.562
11715TIP3    H135030   6.122   8.516   2.620
11715TIP3    H235031   6.166   8.526   2.477
11716TIP3   OH235032   6.348   9.027   3.634
11716TIP3    H135033   6.435   9.026   3.681
11716TIP3    H235034   6.328   8.932   3.633
11717TIP3   OH235035   6.830   8.993   3.676
11717TIP3    H135036   6.923   8.971   3.687
11717TIP3    H235037   6.805   8.932   3.603
11718TIP3   OH235038   6.812   8.566   1.808
11718TIP3    H135039   6.754   8.495   1.845
11718TIP3    H235040   6.887   8.512   1.776
11719TIP3   OH235041   7.472   8.895   3.409
11719TIP3    H135042   7.460   8.827   3.479
11719TIP3    H235043   7.547   8.947   3.443
11720TIP3   OH235044   7.248   8.609   1.720
11720TIP3    H135045   7.288   8.541   1.778
11720TIP3    H235046   7.303   8.604   1.640
11721TIP3   OH235047   6.479   8.434   3.833
11721TIP3    H135048   6.496   8.339   3.843
11721TIP3    H235049   6.391   8.435   3.790
11722TIP3   OH235050   6.455   8.084   2.028
11722TIP3    H135051   6.512   8.049   2.099
11722TIP3    H235052   6.522   8.088   1.955
11723TIP3   OH235053   7.088   8.519   3.607
11723TIP3    H135054   7.044   8.533   3.521
11723TIP3    H235055   7.118   8.426   3.601
11724TIP3   OH235056   6.967   8.284   1.836
11724TIP3    H135057   6.969   8.296   1.933
11724TIP3    H235058   6.972   8.186   1.830
11725TIP3   OH235059   7.577   8.524   3.216
11725TIP3    H135060   7.649   8.571   3.170
11725TIP3    H235061   7.503   8.586   3.202
11726TIP3   OH235062   6.600   8.167   3.814
11726TIP3    H135063   6.672   8.105   3.799
11726TIP3    H235064   6.622   8.200   3.904
11727TIP3   OH235065   6.664   7.987   2.249
11727TIP3    H135066   6.639   7.943   2.331
11727TIP3    H235067   6.703   7.914   2.196
11728TIP3   OH235068   6.932   8.050   3.476
11728TIP3    H135069   6.855   8.111   3.479
11728TIP3    H235070   6.983   8.085   3.399
11729TIP3   OH235071   6.764   7.781   2.091
11729TIP3    H135072   6.742   7.783   1.996
11729TIP3    H235073   6.862   7.783   2.087
11730TIP3   OH235074   7.450   8.454   3.611
11730TIP3    H135075   7.532   8.428   3.567
11730TIP3    H235076   7.445   8.389   3.683
11731TIP3   OH235077   7.592   8.112   1.748
11731TIP3    H135078   7.563   8.064   1.668
11731TIP3    H235079   7.556   8.201   1.726
11732TIP3   OH235080   7.056   7.839   3.603
11732TIP3    H135081   7.057   7.760   3.546
11732TIP3    H235082   7.012   7.905   3.545
11733TIP3   OH235083   7.059   7.625   3.410
11733TIP3    H135084   7.087   7.667   3.326
11733TIP3    H235085   6.965   7.604   3.392
11734TIP3   OH235086   7.086   8.161   3.283
11734TIP3    H135087   7.169   8.169   3.237
11734TIP3    H235088   7.030   8.228   3.239
11735TIP3   OH235089   7.668   8.128   3.664
11735TIP3    H135090   7.716   8.044   3.678
11735TIP3    H235091   7.739   8.184   3.630
11736TIP3   OH235092   7.712   8.383   3.401
11736TIP3    H135093   7.653   8.435   3.342
11736TIP3    H235094   7.799   8.402   3.360
11737TIP3   OH235095   6.933   7.952   3.831
11737TIP3    H135096   6.864   7.886   3.849
11737TIP3    H235097   6.968   7.922   3.745
11738TIP3   OH235098   7.191   7.389   3.478
11738TIP3    H135099   7.142   7.472   3.456
11738TIP3    H235100   7.120   7.322   3.467
11739TIP3   OH235101   7.317   7.895   3.695
11739TIP3    H135102   7.306   7.883   3.791
11739TIP3    H235103   7.227   7.870   3.666
11740TIP3   OH235104   7.555   7.843   3.550
11740TIP3    H135105   7.481   7.845   3.613
11740TIP3    H235106   7.630   7.814   3.606
11741TIP3   OH235107   7.783   7.783   3.699
11741TIP3    H135108   7.797   7.688   3.718
11741TIP3    H235109   7.782   7.824   3.788
11742TIP3   OH235110   6.773   7.732   3.886
11742TIP3    H135111   6.781   7.640   3.854
11742TIP3    H235112   6.808   7.723   3.977
11743TIP3   OH235113   7.285   7.398   3.736
11743TIP3    H135114   7.353   7.328   3.729
11743TIP3    H235115   7.245   7.393   3.647
11744TIP3   OH235116   7.351   7.614   3.895
11744TIP3    H135117   7.328   7.544   3.831
11744TIP3    H235118   7.273   7.674   3.889
11745TIP3   OH235119   6.572   8.846   1.995
11745TIP3    H135120   6.668   8.840   1.975
11745TIP3    H235121   6.542   8.893   1.916
11746TIP3   OH235122   6.052   8.225   2.211
11746TIP3    H135123   6.147   8.247   2.197
11746TIP3    H235124   6.046   8.136   2.170
11747TIP3   OH235125   5.967   8.838   2.625
11747TIP3    H135126   5.900   8.776   2.589
11747TIP3    H235127   6.011   8.780   2.691
11748TIP3   OH235128   6.102   8.689   2.812
11748TIP3    H135129   6.091   8.615   2.874
11748TIP3    H235130   6.154   8.750   2.867
11749TIP3   OH235131   7.794   9.087   2.597
11749TIP3    H135132   7.820   9.108   2.688
11749TIP3    H235133   7.856   9.143   2.549
11750TIP3   OH235134   7.844   9.116   2.869
11750TIP3    H135135   7.809   9.025   2.880
11750TIP3    H235136   7.928   9.109   2.917
11751TIP3   OH235137   7.901   8.800   3.449
11751TIP3    H135138   7.832   8.790   3.518
11751TIP3    H235139   7.951   8.877   3.483
11752TIP3   OH235140   7.723   8.296   2.086
11752TIP3    H135141   7.792   8.359   2.059
11752TIP3    H235142   7.764   8.257   2.166
11753TIP3   OH235143   7.852   8.163   2.290
11753TIP3    H135144   7.783   8.122   2.348
11753TIP3    H235145   7.911   8.205   2.355
11754TIP3   OH235146   7.902   8.557   2.720
11754TIP3    H135147   7.955   8.492   2.671
11754TIP3    H235148   7.896   8.632   2.658
11755TIP3   OH235149   7.739   8.864   2.917
11755TIP3    H135150   7.666   8.904   2.968
11755TIP3    H235151   7.689   8.815   2.848
11756TIP3   OH235152   7.791   8.072   1.933
11756TIP3    H135153   7.718   8.075   1.866
11756TIP3    H235154   7.762   8.146   1.990
11757TIP3   OH235155   7.669   7.739   1.884
11757TIP3    H135156   7.611   7.788   1.824
11757TIP3    H235157   7.634   7.648   1.873
11758TIP3   OH235158   7.665   8.022   2.437
11758TIP3    H135159   7.668   7.925   2.433
11758TIP3    H235160   7.649   8.038   2.532
11759TIP3   OH235161   6.289   8.098   3.182
11759TIP3    H135162   6.288   8.066   3.090
11759TIP3    H235163   6.386   8.098   3.200
11760TIP3   OH235164   7.958   8.449   3.293
11760TIP3    H135165   8.027   8.379   3.286
11760TIP3    H235166   7.998   8.521   3.242
11761TIP3   OH235167   8.140   8.250   3.309
11761TIP3    H135168   8.064   8.201   3.347
11761TIP3    H235169   8.212   8.186   3.329
11762TIP3   OH235170   7.603   7.472   1.874
11762TIP3    H135171   7.661   7.441   1.945
11762TIP3    H235172   7.519   7.425   1.893
11763TIP3   OH235173   7.661   7.737   2.335
11763TIP3    H135174   7.700   7.648   2.349
11763TIP3    H235175   7.718   7.770   2.264
11764TIP3   OH235176   7.817   7.917   2.822
11764TIP3    H135177   7.905   7.939   2.785
11764TIP3    H235178   7.832   7.947   2.914
11765TIP3   OH235179   7.887   8.057   3.054
11765TIP3    H135180   7.811   8.090   3.106
11765TIP3    H235181   7.921   8.139   3.014
11766TIP3   OH235182   6.506   7.782   3.853
11766TIP3    H135183   6.604   7.778   3.859
11766TIP3    H235184   6.483   7.698   3.897
11767TIP3   OH235185   8.336   7.649   3.593
11767TIP3    H135186   8.396   7.573   3.577
11767TIP3    H235187   8.340   7.687   3.503
11768TIP3   OH235188   7.774   7.486   2.365
11768TIP3    H135189   7.816   7.473   2.453
11768TIP3    H235190   7.709   7.413   2.365
11769TIP3   OH235191   6.468   7.475   3.188
11769TIP3    H135192   6.530   7.401   3.198
11769TIP3    H235193   6.530   7.550   3.182
11770TIP3   OH235194   6.270   7.748   3.260
11770TIP3    H135195   6.320   7.745   3.177
11770TIP3    H235196   6.300   7.832   3.297
11771TIP3   OH235197   7.847   7.414   2.005
11771TIP3    H135198   7.879   7.337   1.953
11771TIP3    H235199   7.885   7.488   1.956
11772TIP3   OH235200   6.254   7.250   2.762
11772TIP3    H135201   6.161   7.249   2.789
11772TIP3    H235202   6.252   7.310   2.684
11773TIP3   OH235203   7.413   8.959   2.269
11773TIP3    H135204   7.461   8.940   2.186
11773TIP3    H235205   7.475   9.018   2.314
11774TIP3   OH235206   6.473   7.329   3.574
11774TIP3    H135207   6.425   7.326   3.659
11774TIP3    H235208   6.407   7.370   3.516
11775TIP3   OH235209   6.514   8.762   3.654
11775TIP3    H135210   6.422   8.733   3.638
11775TIP3    H235211   6.526   8.738   3.747
11776TIP3   OH235212   6.692   8.791   3.201
11776TIP3    H135213   6.644   8.867   3.162
11776TIP3    H235214   6.778   8.805   3.157
11777TIP3   OH235215   7.137   9.037   3.339
11777TIP3    H135216   7.179   9.036   3.428
11777TIP3    H235217   7.203   9.088   3.288
11778TIP3   OH235218   7.316   9.190   3.198
11778TIP3    H135219   7.386   9.137   3.158
11778TIP3    H235220   7.368   9.246   3.259
11779TIP3   OH235221   6.369   9.050   3.223
11779TIP3    H135222   6.279   9.085   3.201
11779TIP3    H235223   6.379   9.083   3.313
11780TIP3   OH235224   6.606   9.028   3.083
11780TIP3    H135225   6.519   9.041   3.127
11780TIP3    H235226   6.586   9.060   2.993
11781TIP3   OH235227   7.032   9.057   2.880
11781TIP3    H135228   6.961   9.076   2.815
11781TIP3    H235229   7.043   9.145   2.923
11782TIP3   OH235230   7.300   8.997   2.934
11782TIP3    H135231   7.205   9.012   2.913
11782TIP3    H235232   7.342   9.072   2.889
11783TIP3   OH235233   7.505   9.190   2.846
11783TIP3    H135234   7.499   9.274   2.798
11783TIP3    H235235   7.526   9.126   2.774
11784TIP3   OH235236   6.280   8.843   2.970
11784TIP3    H135237   6.307   8.817   3.061
11784TIP3    H235238   6.352   8.798   2.919
11785TIP3   OH235239   6.474   8.714   2.827
11785TIP3    H135240   6.489   8.630   2.876
11785TIP3    H235241   6.565   8.750   2.822
11786TIP3   OH235242   6.741   8.809   2.830
11786TIP3    H135243   6.772   8.717   2.818
11786TIP3    H235244   6.785   8.830   2.914
11787TIP3   OH235245   7.314   7.464   2.914
11787TIP3    H135246   7.272   7.395   2.968
11787TIP3    H235247   7.389   7.417   2.873
11788TIP3   OH235248   7.839   7.335   2.816
11788TIP3    H135249   7.875   7.395   2.747
11788TIP3    H235250   7.746   7.363   2.819
11789TIP3   OH235251   7.935   7.449   2.585
11789TIP3    H135252   8.010   7.398   2.549
11789TIP3    H235253   7.967   7.541   2.572
11790TIP3   OH235254   6.565   7.174   2.933
11790TIP3    H135255   6.472   7.141   2.934
11790TIP3    H235256   6.614   7.089   2.929
11791TIP3   OH235257   6.352   7.043   2.581
11791TIP3    H135258   6.382   7.101   2.508
11791TIP3    H235259   6.323   7.109   2.648
11792TIP3   OH235260   7.009   7.205   2.815
11792TIP3    H135261   7.065   7.255   2.754
11792TIP3    H235262   7.031   7.245   2.900
11793TIP3   OH235263   7.554   7.353   2.799
11793TIP3    H135264   7.552   7.316   2.710
11793TIP3    H235265   7.540   7.273   2.854
11794TIP3   OH235266   7.585   7.277   2.360
11794TIP3    H135267   7.499   7.321   2.372
11794TIP3    H235268   7.569   7.192   2.407
11795TIP3   OH235269   6.068   8.614   2.361
11795TIP3    H135270   5.983   8.581   2.326
11795TIP3    H235271   6.057   8.709   2.342
11796TIP3   OH235272   6.468   7.202   2.345
11796TIP3    H135273   6.517   7.141   2.287
11796TIP3    H235274   6.541   7.257   2.381
11797TIP3   OH235275   6.980   7.378   2.445
11797TIP3    H135276   7.041   7.333   2.505
11797TIP3    H235277   7.001   7.471   2.468
11798TIP3   OH235278   6.840   8.804   1.941
11798TIP3    H135279   6.929   8.825   1.906
11798TIP3    H235280   6.818   8.728   1.882
11799TIP3   OH235281   7.551   8.917   2.035
11799TIP3    H135282   7.546   8.819   2.023
11799TIP3    H235283   7.510   8.948   1.952
11800TIP3   OH235284   6.773   7.453   3.821
11800TIP3    H135285   6.737   7.385   3.880
11800TIP3    H235286   6.867   7.454   3.850
11801TIP3   OH235287   7.021   7.450   3.942
11801TIP3    H135288   7.107   7.426   3.905
11801TIP3    H235289   7.009   7.380   4.010
11802TIP3   OH235290   6.145   8.641   1.999
11802TIP3    H135291   6.146   8.663   2.094
11802TIP3    H235292   6.233   8.599   1.987
11803TIP3   OH235293   7.849   7.513   3.729
11803TIP3    H135294   7.867   7.483   3.821
11803TIP3    H235295   7.938   7.509   3.689
11804TIP3   OH235296   7.818   9.053   3.197
11804TIP3    H135297   7.732   9.024   3.160
11804TIP3    H235298   7.797   9.148   3.209
11805TIP3   OH235299   8.356   8.325   2.727
11805TIP3    H135300   8.377   8.261   2.798
11805TIP3    H235301   8.412   8.400   2.752
11806TIP3   OH235302   8.301   8.716   2.464
11806TIP3    H135303   8.318   8.620   2.462
11806TIP3    H235304   8.388   8.752   2.487
11807TIP3   OH235305   8.032   7.946   2.242
11807TIP3    H135306   7.980   8.026   2.261
11807TIP3    H235307   7.963   7.890   2.202
11808TIP3   OH235308   8.091   8.237   2.419
11808TIP3    H135309   8.138   8.157   2.453
11808TIP3    H235310   8.146   8.261   2.343
11809TIP3   OH235311   8.593   7.825   2.418
11809TIP3    H135312   8.578   7.897   2.354
11809TIP3    H235313   8.546   7.752   2.372
11810TIP3   OH235314   8.238   8.030   2.521
11810TIP3    H135315   8.317   8.006   2.572
11810TIP3    H235316   8.249   7.972   2.443
11811TIP3   OH235317   8.670   8.238   2.314
11811TIP3    H135318   8.766   8.217   2.307
11811TIP3    H235319   8.630   8.153   2.286
11812TIP3   OH235320   8.594   7.806   2.853
11812TIP3    H135321   8.532   7.843   2.787
11812TIP3    H235322   8.543   7.824   2.935
11813TIP3   OH235323   8.468   7.925   2.637
11813TIP3    H135324   8.533   7.995   2.659
11813TIP3    H235325   8.514   7.881   2.562
11814TIP3   OH235326   7.928   8.461   1.975
11814TIP3    H135327   7.870   8.497   1.905
11814TIP3    H235328   7.949   8.543   2.026
11815TIP3   OH235329   8.945   7.516   2.572
11815TIP3    H135330   8.932   7.421   2.594
11815TIP3    H235331   8.868   7.555   2.618
11816TIP3   OH235332   8.431   8.343   2.221
11816TIP3    H135333   8.406   8.308   2.133
11816TIP3    H235334   8.524   8.315   2.227
11817TIP3   OH235335   8.615   8.355   2.559
11817TIP3    H135336   8.609   8.315   2.470
11817TIP3    H235337   8.584   8.445   2.542
11818TIP3   OH235338   8.485   8.459   2.980
11818TIP3    H135339   8.490   8.536   3.040
11818TIP3    H235340   8.394   8.430   3.001
11819TIP3   OH235341   8.336   8.210   1.994
11819TIP3    H135342   8.264   8.255   1.944
11819TIP3    H235343   8.287   8.138   2.035
11820TIP3   OH235344   8.105   8.582   2.916
11820TIP3    H135345   8.035   8.562   2.850
11820TIP3    H235346   8.140   8.494   2.940
11821TIP3   OH235347   7.966   8.788   2.551
11821TIP3    H135348   8.060   8.776   2.532
11821TIP3    H235349   7.965   8.864   2.611
11822TIP3   OH235350   8.293   8.776   2.929
11822TIP3    H135351   8.341   8.746   3.009
11822TIP3    H235352   8.232   8.701   2.915
11823TIP3   OH235353   8.712   7.603   2.695
11823TIP3    H135354   8.622   7.573   2.669
11823TIP3    H235355   8.688   7.686   2.741
11824TIP3   OH235356   9.246   7.710   2.877
11824TIP3    H135357   9.318   7.693   2.941
11824TIP3    H235358   9.166   7.702   2.931
11825TIP3   OH235359   8.848   7.636   1.666
11825TIP3    H135360   8.813   7.642   1.757
11825TIP3    H235361   8.805   7.554   1.635
11826TIP3   OH235362   8.641   8.128   2.713
11826TIP3    H135363   8.585   8.137   2.793
11826TIP3    H235364   8.619   8.209   2.664
11827TIP3   OH235365   8.531   8.010   2.228
11827TIP3    H135366   8.439   7.981   2.244
11827TIP3    H235367   8.547   7.970   2.140
11828TIP3   OH235368   8.466   8.147   2.924
11828TIP3    H135369   8.471   8.207   3.000
11828TIP3    H235370   8.451   8.061   2.969
11829TIP3   OH235371   8.508   7.614   1.636
11829TIP3    H135372   8.504   7.619   1.733
11829TIP3    H235373   8.428   7.662   1.609
11830TIP3   OH235374   8.062   7.670   2.493
11830TIP3    H135375   8.129   7.704   2.556
11830TIP3    H235376   8.115   7.631   2.423
11831TIP3   OH235377   8.839   7.839   2.287
11831TIP3    H135378   8.765   7.830   2.350
11831TIP3    H235379   8.915   7.811   2.343
11832TIP3   OH235380   8.294   7.885   2.292
11832TIP3    H135381   8.198   7.891   2.270
11832TIP3    H235382   8.315   7.791   2.277
11833TIP3   OH235383   8.563   7.876   1.986
11833TIP3    H135384   8.659   7.894   1.983
11833TIP3    H235385   8.532   7.915   1.903
11834TIP3   OH235386   8.362   7.890   1.751
11834TIP3    H135387   8.348   7.864   1.658
11834TIP3    H235388   8.409   7.974   1.738
11835TIP3   OH235389   8.452   8.695   3.141
11835TIP3    H135390   8.528   8.750   3.160
11835TIP3    H235391   8.395   8.718   3.217
11836TIP3   OH235392   8.458   7.642   2.263
11836TIP3    H135393   8.426   7.563   2.311
11836TIP3    H235394   8.519   7.603   2.200
11837TIP3   OH235395   8.912   8.030   2.694
11837TIP3    H135396   8.828   8.077   2.682
11837TIP3    H235397   8.978   8.101   2.693
11838TIP3   OH235398   8.362   8.452   2.457
11838TIP3    H135399   8.376   8.411   2.369
11838TIP3    H235400   8.361   8.375   2.517
11839TIP3   OH235401   8.232   8.377   3.054
11839TIP3    H135402   8.257   8.374   3.148
11839TIP3    H235403   8.159   8.313   3.050
11840TIP3   OH235404   8.024   8.050   1.782
11840TIP3    H135405   8.061   8.139   1.793
11840TIP3    H235406   7.940   8.060   1.834
11841TIP3   OH235407   8.426   7.898   3.052
11841TIP3    H135408   8.329   7.913   3.061
11841TIP3    H235409   8.434   7.838   3.130
11842TIP3   OH235410   8.146   8.964   2.782
11842TIP3    H135411   8.173   8.882   2.828
11842TIP3    H235412   8.218   9.022   2.813
11843TIP3   OH235413   8.130   8.317   1.851
11843TIP3    H135414   8.063   8.369   1.900
11843TIP3    H235415   8.188   8.386   1.816
11844TIP3   OH235416   8.839   7.879   2.019
11844TIP3    H135417   8.923   7.925   2.004
11844TIP3    H235418   8.839   7.876   2.118
11845TIP3   OH235419   8.980   7.620   2.124
11845TIP3    H135420   8.964   7.680   2.199
11845TIP3    H235421   9.049   7.672   2.078
11846TIP3   OH235422   8.498   7.615   1.912
11846TIP3    H135423   8.508   7.705   1.950
11846TIP3    H235424   8.591   7.585   1.919
11847TIP3   OH235425   8.448   7.523   2.668
11847TIP3    H135426   8.417   7.488   2.582
11847TIP3    H235427   8.440   7.444   2.726
11848TIP3   OH235428   7.959   8.716   2.066
11848TIP3    H135429   7.891   8.774   2.104
11848TIP3    H235430   7.965   8.752   1.976
11849TIP3   OH235431   8.132   9.267   3.181
11849TIP3    H135432   8.223   9.297   3.190
11849TIP3    H235433   8.145   9.185   3.134
11850TIP3   OH235434   8.407   8.400   3.287
11850TIP3    H135435   8.437   8.320   3.330
11850TIP3    H235436   8.411   8.463   3.360
11851TIP3   OH235437   8.422   8.172   1.710
11851TIP3    H135438   8.419   8.202   1.802
11851TIP3    H235439   8.515   8.149   1.694
11852TIP3   OH235440   8.723   8.312   2.968
11852TIP3    H135441   8.644   8.370   2.977
11852TIP3    H235442   8.732   8.307   2.872
11853TIP3   OH235443   8.822   8.088   3.104
11853TIP3    H135444   8.834   8.011   3.045
11853TIP3    H235445   8.792   8.157   3.041
11854TIP3   OH235446   8.849   7.880   2.913
11854TIP3    H135447   8.881   7.923   2.830
11854TIP3    H235448   8.757   7.855   2.888
11855TIP3   OH235449   8.985   7.644   2.967
11855TIP3    H135450   8.935   7.727   2.948
11855TIP3    H235451   8.915   7.576   2.957
11856TIP3   OH235452   9.022   8.188   3.280
11856TIP3    H135453   9.119   8.186   3.279
11856TIP3    H235454   9.005   8.168   3.188
11857TIP3   OH235455   8.614   7.999   3.364
11857TIP3    H135456   8.582   7.915   3.327
11857TIP3    H235457   8.616   7.976   3.460
11858TIP3   OH235458   9.088   7.656   3.220
11858TIP3    H135459   9.153   7.583   3.215
11858TIP3    H235460   9.046   7.649   3.132
11859TIP3   OH235461   9.123   7.871   3.380
11859TIP3    H135462   9.128   7.793   3.320
11859TIP3    H235463   9.032   7.898   3.365
11860TIP3   OH235464   7.844   8.481   1.688
11860TIP3    H135465   7.939   8.500   1.688
11860TIP3    H235466   7.841   8.389   1.654
11861TIP3   OH235467   7.744   9.093   2.116
11861TIP3    H135468   7.685   9.024   2.080
11861TIP3    H235469   7.804   9.039   2.171
11862TIP3   OH235470   7.892   8.939   2.290
11862TIP3    H135471   7.888   8.867   2.356
11862TIP3    H235472   7.929   9.010   2.343
11863TIP3   OH235473   8.086   8.355   2.669
11863TIP3    H135474   8.081   8.322   2.576
11863TIP3    H235475   8.182   8.352   2.684
11864TIP3   OH235476   8.317   8.050   3.366
11864TIP3    H135477   8.410   8.028   3.347
11864TIP3    H235478   8.282   7.959   3.369
11865TIP3   OH235479   8.265   7.731   2.666
11865TIP3    H135480   8.325   7.656   2.682
11865TIP3    H235481   8.326   7.806   2.669
11866TIP3   OH235482   8.066   8.006   2.742
11866TIP3    H135483   8.118   8.007   2.660
11866TIP3    H235484   8.095   8.086   2.786
11867TIP3   OH235485   8.039   7.514   2.230
11867TIP3    H135486   7.960   7.490   2.281
11867TIP3    H235487   8.009   7.596   2.190
11868TIP3   OH235488   9.047   7.713   2.396
11868TIP3    H135489   9.034   7.644   2.464
11868TIP3    H235490   9.142   7.710   2.378
11869TIP3   OH235491   8.360   7.430   2.418
11869TIP3    H135492   8.270   7.393   2.424
11869TIP3    H235493   8.412   7.346   2.416
11870TIP3   OH235494   8.147   7.296   2.078
11870TIP3    H135495   8.178   7.353   2.007
11870TIP3    H235496   8.109   7.362   2.140
11871TIP3   OH235497   8.799   7.465   2.303
11871TIP3    H135498   8.862   7.511   2.245
11871TIP3    H235499   8.827   7.496   2.391
11872TIP3   OH235500   9.426   7.503   2.239
11872TIP3    H135501   9.365   7.566   2.200
11872TIP3    H235502   9.371   7.466   2.312
11873TIP3   OH235503   7.834   8.862   1.857
11873TIP3    H135504   7.760   8.809   1.826
11873TIP3    H235505   7.808   8.948   1.819
11874TIP3   OH235506   8.269   7.482   1.832
11874TIP3    H135507   8.309   7.405   1.788
11874TIP3    H235508   8.348   7.522   1.874
11875TIP3   OH235509   8.772   7.631   1.934
11875TIP3    H135510   8.835   7.586   1.993
11875TIP3    H235511   8.792   7.724   1.957
11876TIP3   OH235512   8.827   7.725   3.445
11876TIP3    H135513   8.892   7.676   3.392
11876TIP3    H235514   8.788   7.652   3.496
11877TIP3   OH235515   9.584   7.752   3.239
11877TIP3    H135516   9.635   7.748   3.322
11877TIP3    H235517   9.653   7.769   3.173
11878TIP3   OH235518   0.542   8.536   4.622
11878TIP3    H135519   0.508   8.626   4.625
11878TIP3    H235520   0.555   8.526   4.526
11879TIP3   OH235521   0.796   8.435   5.316
11879TIP3    H135522   0.853   8.370   5.270
11879TIP3    H235523   0.761   8.487   5.240
11880TIP3   OH235524   0.665   8.572   5.110
11880TIP3    H135525   0.575   8.604   5.122
11880TIP3    H235526   0.649   8.493   5.054
11881TIP3   OH235527   0.294   8.221   3.695
11881TIP3    H135528   0.332   8.145   3.649
11881TIP3    H235529   0.364   8.287   3.688
11882TIP3   OH235530   0.566   8.345   4.982
11882TIP3    H135531   0.474   8.334   4.956
11882TIP3    H235532   0.595   8.251   4.982
11883TIP3   OH235533   0.380   8.229   4.256
11883TIP3    H135534   0.461   8.183   4.227
11883TIP3    H235535   0.408   8.322   4.253
11884TIP3   OH235536   0.457   8.732   3.929
11884TIP3    H135537   0.454   8.821   3.966
11884TIP3    H235538   0.412   8.680   3.996
11885TIP3   OH235539   2.318   8.771   4.105
11885TIP3    H135540   2.348   8.855   4.145
11885TIP3    H235541   2.335   8.788   4.011
11886TIP3   OH235542   1.718   8.959   4.135
11886TIP3    H135543   1.754   8.872   4.158
11886TIP3    H235544   1.676   8.938   4.049
11887TIP3   OH235545   1.051   8.614   4.105
11887TIP3    H135546   1.036   8.689   4.044
11887TIP3    H235547   1.003   8.543   4.058
11888TIP3   OH235548   1.749   8.700   3.731
11888TIP3    H135549   1.822   8.681   3.793
11888TIP3    H235550   1.800   8.738   3.657
11889TIP3   OH235551   0.671   8.793   4.219
11889TIP3    H135552   0.756   8.793   4.266
11889TIP3    H235553   0.698   8.758   4.132
11890TIP3   OH235554   1.106   9.001   4.062
11890TIP3    H135555   1.202   8.989   4.054
11890TIP3    H235556   1.073   8.944   3.990
11891TIP3   OH235557   2.404   8.978   4.275
11891TIP3    H135558   2.323   9.023   4.242
11891TIP3    H235559   2.387   8.984   4.370
11892TIP3   OH235560   1.047   8.595   4.540
11892TIP3    H135561   0.988   8.629   4.470
11892TIP3    H235562   0.997   8.617   4.620
11893TIP3   OH235563   1.962   8.704   3.898
11893TIP3    H135564   1.930   8.672   3.985
11893TIP3    H235565   2.011   8.784   3.924
11894TIP3   OH235566   0.915   8.703   4.325
11894TIP3    H135567   0.975   8.779   4.342
11894TIP3    H235568   0.964   8.663   4.249
11895TIP3   OH235569   2.111   8.678   4.275
11895TIP3    H135570   2.023   8.693   4.237
11895TIP3    H235571   2.169   8.704   4.201
11896TIP3   OH235572   1.401   8.316   4.248
11896TIP3    H135573   1.391   8.221   4.269
11896TIP3    H235574   1.325   8.353   4.298
11897TIP3   OH235575   1.293   8.827   3.250
11897TIP3    H135576   1.347   8.878   3.311
11897TIP3    H235577   1.359   8.797   3.184
11898TIP3   OH235578   1.944   9.209   4.370
11898TIP3    H135579   1.950   9.295   4.327
11898TIP3    H235580   1.854   9.178   4.342
11899TIP3   OH235581   2.040   8.261   3.359
11899TIP3    H135582   1.957   8.277   3.409
11899TIP3    H235583   2.049   8.344   3.309
11900TIP3   OH235584   2.165   9.166   4.565
11900TIP3    H135585   2.080   9.150   4.519
11900TIP3    H235586   2.192   9.073   4.579
11901TIP3   OH235587   1.166   8.389   4.384
11901TIP3    H135588   1.076   8.361   4.357
11901TIP3    H235589   1.143   8.474   4.428
11902TIP3   OH235590   1.689   8.475   4.561
11902TIP3    H135591   1.741   8.542   4.610
11902TIP3    H235592   1.608   8.471   4.616
11903TIP3   OH235593   1.963   8.951   4.526
11903TIP3    H135594   1.907   8.885   4.574
11903TIP3    H235595   1.897   8.998   4.474
11904TIP3   OH235596   1.314   8.441   3.355
11904TIP3    H135597   1.281   8.437   3.447
11904TIP3    H235598   1.276   8.357   3.321
11905TIP3   OH235599   1.089   8.906   4.378
11905TIP3    H135600   1.046   8.932   4.461
11905TIP3    H235601   1.079   8.983   4.321
11906TIP3   OH235602   0.979   8.792   3.913
11906TIP3    H135603   0.887   8.762   3.926
11906TIP3    H235604   0.996   8.755   3.823
11907TIP3   OH235605   1.477   8.873   3.651
11907TIP3    H135606   1.420   8.953   3.649
11907TIP3    H235607   1.513   8.870   3.561
11908TIP3   OH235608   1.642   9.157   4.732
11908TIP3    H135609   1.624   9.080   4.791
11908TIP3    H235610   1.738   9.160   4.739
11909TIP3   OH235611   1.622   8.897   3.884
11909TIP3    H135612   1.558   8.909   3.811
11909TIP3    H235613   1.667   8.819   3.846
11910TIP3   OH235614   0.915   8.935   4.627
11910TIP3    H135615   0.920   8.975   4.714
11910TIP3    H235616   0.898   8.842   4.651
11911TIP3   OH235617   0.967   8.414   3.322
11911TIP3    H135618   0.963   8.412   3.420
11911TIP3    H235619   0.887   8.464   3.301
11912TIP3   OH235620   0.514   8.462   4.172
11912TIP3    H135621   0.575   8.496   4.242
11912TIP3    H235622   0.575   8.413   4.116
11913TIP3   OH235623   0.481   8.454   3.721
11913TIP3    H135624   0.519   8.470   3.632
11913TIP3    H235625   0.456   8.545   3.742
11914TIP3   OH235626   1.685   9.142   4.330
11914TIP3    H135627   1.691   9.077   4.256
11914TIP3    H235628   1.622   9.093   4.387
11915TIP3   OH235629   1.308   8.615   3.977
11915TIP3    H135630   1.227   8.615   4.031
11915TIP3    H235631   1.378   8.613   4.044
11916TIP3   OH235632   0.738   8.671   3.976
11916TIP3    H135633   0.647   8.662   3.942
11916TIP3    H235634   0.776   8.582   3.962
11917TIP3   OH235635   1.014   8.664   3.672
11917TIP3    H135636   1.108   8.686   3.655
11917TIP3    H235637   0.967   8.696   3.592
11918TIP3   OH235638   1.821   8.677   4.138
11918TIP3    H135639   1.781   8.687   4.228
11918TIP3    H235640   1.757   8.614   4.100
11919TIP3   OH235641   0.841   8.687   3.447
11919TIP3    H135642   0.785   8.652   3.376
11919TIP3    H235643   0.893   8.754   3.399
11920TIP3   OH235644   1.388   8.944   4.072
11920TIP3    H135645   1.460   8.905   4.021
11920TIP3    H235646   1.404   8.908   4.161
11921TIP3   OH235647   0.908   8.436   3.952
11921TIP3    H135648   0.882   8.353   3.998
11921TIP3    H235649   0.965   8.402   3.882
11922TIP3   OH235650   1.368   8.829   4.369
11922TIP3    H135651   1.281   8.872   4.364
11922TIP3    H235652   1.425   8.896   4.411
11923TIP3   OH235653   1.560   8.553   3.322
11923TIP3    H135654   1.465   8.528   3.333
11923TIP3    H235655   1.562   8.648   3.343
11924TIP3   OH235656   1.634   8.815   3.403
11924TIP3    H135657   1.717   8.791   3.448
11924TIP3    H235658   1.666   8.881   3.340
11925TIP3   OH235659   1.369   9.170   4.821
11925TIP3    H135660   1.367   9.264   4.802
11925TIP3    H235661   1.447   9.141   4.771
11926TIP3   OH235662   2.069   8.870   3.269
11926TIP3    H135663   2.006   8.832   3.203
11926TIP3    H235664   2.084   8.957   3.229
11927TIP3   OH235665   0.897   8.674   4.761
11927TIP3    H135666   0.804   8.676   4.785
11927TIP3    H235667   0.932   8.611   4.826
11928TIP3   OH235668   1.706   8.716   4.373
11928TIP3    H135669   1.745   8.755   4.453
11928TIP3    H235670   1.654   8.647   4.417
11929TIP3   OH235671   1.606   8.494   3.603
11929TIP3    H135672   1.595   8.518   3.510
11929TIP3    H235673   1.646   8.574   3.642
11930TIP3   OH235674   1.296   8.674   3.706
11930TIP3    H135675   1.364   8.743   3.691
11930TIP3    H235676   1.300   8.665   3.804
11931TIP3   OH235677   1.564   8.982   4.520
11931TIP3    H135678   1.584   9.041   4.594
11931TIP3    H235679   1.604   8.899   4.555
11932TIP3   OH235680   1.438   8.399   3.807
11932TIP3    H135681   1.433   8.474   3.869
11932TIP3    H235682   1.500   8.435   3.739
11933TIP3   OH235683   0.952   8.399   3.598
11933TIP3    H135684   0.952   8.492   3.628
11933TIP3    H235685   1.048   8.379   3.607
11934TIP3   OH235686   2.221   8.892   4.487
11934TIP3    H135687   2.126   8.900   4.512
11934TIP3    H235688   2.210   8.837   4.408
11935TIP3   OH235689   1.850   9.071   3.863
11935TIP3    H135690   1.779   9.013   3.892
11935TIP3    H235691   1.925   9.042   3.920
11936TIP3   OH235692   0.496   8.594   3.491
11936TIP3    H135693   0.533   8.680   3.466
11936TIP3    H235694   0.441   8.568   3.417
11937TIP3   OH235695   0.900   8.314   4.356
11937TIP3    H135696   0.871   8.282   4.268
11937TIP3    H235697   0.899   8.231   4.408
11938TIP3   OH235698   0.869   9.202   4.967
11938TIP3    H135699   0.908   9.118   4.992
11938TIP3    H235700   0.866   9.253   5.051
11939TIP3   OH235701   1.197   9.028   4.607
11939TIP3    H135702   1.118   9.080   4.632
11939TIP3    H235703   1.209   9.051   4.514
11940TIP3   OH235704   1.019   8.823   3.289
11940TIP3    H135705   0.994   8.762   3.216
11940TIP3    H235706   1.116   8.812   3.293
11941TIP3   OH235707   1.301   8.861   4.794
11941TIP3    H135708   1.313   8.780   4.740
11941TIP3    H235709   1.266   8.922   4.725
11942TIP3   OH235710   1.305   8.667   4.590
11942TIP3    H135711   1.335   8.714   4.509
11942TIP3    H235712   1.212   8.648   4.568
11943TIP3   OH235713   1.951   9.230   4.843
11943TIP3    H135714   1.916   9.138   4.854
11943TIP3    H235715   2.040   9.209   4.810
11944TIP3   OH235716   1.166   9.004   5.009
11944TIP3    H135717   1.114   8.922   5.015
11944TIP3    H235718   1.215   8.989   4.925
11945TIP3   OH235719   1.432   8.435   4.663
11945TIP3    H135720   1.386   8.518   4.637
11945TIP3    H235721   1.363   8.368   4.646
11946TIP3   OH235722   1.554   8.954   4.880
11946TIP3    H135723   1.554   8.924   4.972
11946TIP3    H235724   1.470   8.913   4.850
11947TIP3   OH235725   1.848   8.988   4.850
11947TIP3    H135726   1.767   8.934   4.838
11947TIP3    H235727   1.912   8.920   4.823
11948TIP3   OH235728   2.088   8.831   4.894
11948TIP3    H135729   2.064   8.736   4.898
11948TIP3    H235730   2.053   8.866   4.978
11949TIP3   OH235731   1.025   8.775   5.066
11949TIP3    H135732   1.031   8.686   5.026
11949TIP3    H235733   1.063   8.759   5.155
11950TIP3   OH235734   1.529   8.438   4.918
11950TIP3    H135735   1.601   8.373   4.906
11950TIP3    H235736   1.493   8.440   4.827
11951TIP3   OH235737   1.596   8.654   5.078
11951TIP3    H135738   1.581   8.588   5.007
11951TIP3    H235739   1.521   8.715   5.065
11952TIP3   OH235740   1.897   8.800   3.065
11952TIP3    H135741   1.885   8.814   2.970
11952TIP3    H235742   1.877   8.704   3.071
11953TIP3   OH235743   1.931   9.050   3.605
11953TIP3    H135744   1.940   8.954   3.613
11953TIP3    H235745   1.910   9.074   3.699
11954TIP3   OH235746   2.377   9.320   4.495
11954TIP3    H135747   2.300   9.264   4.518
11954TIP3    H235748   2.449   9.255   4.502
11955TIP3   OH235749   1.848   8.535   3.060
11955TIP3    H135750   1.925   8.498   3.107
11955TIP3    H235751   1.777   8.470   3.078
11956TIP3   OH235752   1.898   8.772   3.504
11956TIP3    H135753   1.940   8.684   3.520
11956TIP3    H235754   1.960   8.808   3.438
11957TIP3   OH235755   2.068   8.954   3.993
11957TIP3    H135756   2.153   8.982   3.952
11957TIP3    H235757   2.085   8.988   4.083
11958TIP3   OH235758   2.149   9.085   4.223
11958TIP3    H135759   2.075   9.116   4.279
11958TIP3    H235760   2.198   9.169   4.209
11959TIP3   OH235761   0.761   8.838   5.052
11959TIP3    H135762   0.858   8.823   5.046
11959TIP3    H235763   0.730   8.750   5.077
11960TIP3   OH235764   2.597   8.697   4.792
11960TIP3    H135765   2.651   8.628   4.747
11960TIP3    H235766   2.564   8.749   4.716
11961TIP3   OH235767   2.017   8.531   3.546
11961TIP3    H135768   2.064   8.517   3.631
11961TIP3    H235769   1.956   8.454   3.545
11962TIP3   OH235770   0.708   8.512   4.363
11962TIP3    H135771   0.776   8.443   4.372
11962TIP3    H235772   0.765   8.591   4.355
11963TIP3   OH235773   0.538   8.792   4.465
11963TIP3    H135774   0.574   8.780   4.375
11963TIP3    H235775   0.524   8.888   4.466
11964TIP3   OH235776   2.466   8.833   4.597
11964TIP3    H135777   2.377   8.872   4.612
11964TIP3    H235778   2.439   8.760   4.537
11965TIP3   OH235779   2.097   8.470   3.174
11965TIP3    H135780   2.136   8.395   3.125
11965TIP3    H235781   2.169   8.536   3.171
11966TIP3   OH235782   0.510   8.285   3.927
11966TIP3    H135783   0.431   8.311   3.975
11966TIP3    H235784   0.510   8.350   3.853
11967TIP3   OH235785   0.730   8.395   4.762
11967TIP3    H135786   0.674   8.387   4.841
11967TIP3    H235787   0.671   8.445   4.702
11968TIP3   OH235788   2.360   8.596   4.474
11968TIP3    H135789   2.268   8.589   4.441
11968TIP3    H235790   2.390   8.503   4.463
11969TIP3   OH235791   1.563   8.507   4.084
11969TIP3    H135792   1.520   8.442   4.143
11969TIP3    H235793   1.635   8.455   4.045
11970TIP3   OH235794   2.089   8.394   4.001
11970TIP3    H135795   2.123   8.445   3.924
11970TIP3    H235796   1.993   8.409   3.993
11971TIP3   OH235797   2.184   8.491   3.762
11971TIP3    H135798   2.257   8.440   3.721
11971TIP3    H235799   2.216   8.583   3.747
11972TIP3   OH235800   0.812   8.218   4.110
11972TIP3    H135801   0.721   8.180   4.111
11972TIP3    H235802   0.864   8.135   4.108
11973TIP3   OH235803   0.599   8.083   3.758
11973TIP3    H135804   0.632   8.138   3.684
11973TIP3    H235805   0.574   8.151   3.824
11974TIP3   OH235806   1.253   8.254   3.993
11974TIP3    H135807   1.312   8.298   3.930
11974TIP3    H235808   1.286   8.289   4.077
11975TIP3   OH235809   1.803   8.396   3.971
11975TIP3    H135810   1.808   8.355   3.884
11975TIP3    H235811   1.792   8.316   4.028
11976TIP3   OH235812   1.834   8.321   3.537
11976TIP3    H135813   1.746   8.360   3.551
11976TIP3    H235814   1.822   8.235   3.584
11977TIP3   OH235815   0.718   8.247   3.524
11977TIP3    H135816   0.766   8.184   3.467
11977TIP3    H235817   0.792   8.302   3.559
11978TIP3   OH235818   1.229   8.424   3.619
11978TIP3    H135819   1.290   8.377   3.679
11978TIP3    H235820   1.250   8.517   3.645
11979TIP3   OH235821   1.021   8.498   5.000
11979TIP3    H135822   0.988   8.430   5.060
11979TIP3    H235823   1.115   8.501   5.026
11980TIP3   OH235824   1.269   8.498   5.120
11980TIP3    H135825   1.354   8.481   5.075
11980TIP3    H235826   1.266   8.423   5.183
11981TIP3   OH235827   2.095   8.554   4.909
11981TIP3    H135828   2.114   8.525   5.001
11981TIP3    H235829   2.183   8.551   4.868
11982TIP3   OH235830   2.278   9.004   3.422
11982TIP3    H135831   2.234   9.076   3.469
11982TIP3    H235832   2.204   8.943   3.405
11983TIP3   OH235833   4.111   9.027   3.593
11983TIP3    H135834   4.142   9.109   3.634
11983TIP3    H235835   4.131   9.045   3.499
11984TIP3   OH235836   3.510   9.212   3.620
11984TIP3    H135837   3.552   9.126   3.643
11984TIP3    H235838   3.473   9.191   3.533
11985TIP3   OH235839   2.850   8.869   3.592
11985TIP3    H135840   2.830   8.942   3.530
11985TIP3    H235841   2.802   8.796   3.547
11986TIP3   OH235842   3.544   8.957   3.217
11986TIP3    H135843   3.617   8.942   3.281
11986TIP3    H235844   3.593   8.994   3.142
11987TIP3   OH235845   2.473   9.056   3.709
11987TIP3    H135846   2.561   9.041   3.749
11987TIP3    H235847   2.487   9.019   3.621
11988TIP3   OH235848   2.933   9.272   3.485
11988TIP3    H135849   3.020   9.234   3.509
11988TIP3    H235850   2.884   9.195   3.451
11989TIP3   OH235851   4.196   9.229   3.765
11989TIP3    H135852   4.117   9.277   3.734
11989TIP3    H235853   4.202   9.262   3.856
11990TIP3   OH235854   2.846   8.855   4.029
11990TIP3    H135855   2.784   8.884   3.960
11990TIP3    H235856   2.792   8.870   4.110
11991TIP3   OH235857   3.754   8.963   3.387
11991TIP3    H135858   3.745   8.916   3.470
11991TIP3    H235859   3.803   9.043   3.414
11992TIP3   OH235860   2.716   8.961   3.811
11992TIP3    H135861   2.777   9.036   3.827
11992TIP3    H235862   2.763   8.919   3.735
11993TIP3   OH235863   3.904   8.929   3.759
11993TIP3    H135864   3.817   8.957   3.727
11993TIP3    H235865   3.964   8.961   3.689
11994TIP3   OH235866   3.203   8.572   3.744
11994TIP3    H135867   3.187   8.477   3.758
11994TIP3    H235868   3.125   8.611   3.789
11995TIP3   OH235869   3.097   9.082   2.747
11995TIP3    H135870   3.140   9.160   2.782
11995TIP3    H235871   3.158   9.054   2.677
11996TIP3   OH235872   3.740   9.456   3.868
11996TIP3    H135873   3.749   9.538   3.819
11996TIP3    H235874   3.648   9.429   3.841
11997TIP3   OH235875   3.835   8.515   2.843
11997TIP3    H135876   3.753   8.535   2.893
11997TIP3    H235877   3.848   8.599   2.794
11998TIP3   OH235878   3.962   9.418   4.054
11998TIP3    H135879   3.881   9.412   4.000
11998TIP3    H235880   3.988   9.324   4.058
11999TIP3   OH235881   2.963   8.648   3.870
11999TIP3    H135882   2.874   8.616   3.844
11999TIP3    H235883   2.938   8.730   3.915
12000TIP3   OH235884   3.496   8.765   4.064
12000TIP3    H135885   3.563   8.735   4.128
12000TIP3    H235886   3.412   8.743   4.109
12001TIP3   OH235887   3.738   9.180   3.987
12001TIP3    H135888   3.688   9.176   4.072
12001TIP3    H235889   3.707   9.264   3.949
12002TIP3   OH235890   3.113   8.693   2.842
12002TIP3    H135891   3.076   8.693   2.932
12002TIP3    H235892   3.070   8.612   2.807
12003TIP3   OH235893   2.885   9.172   3.875
12003TIP3    H135894   2.828   9.180   3.954
12003TIP3    H235895   2.862   9.250   3.823
12004TIP3   OH235896   2.780   9.049   3.403
12004TIP3    H135897   2.686   9.023   3.419
12004TIP3    H235898   2.793   9.012   3.313
12005TIP3   OH235899   3.280   9.136   3.133
12005TIP3    H135900   3.199   9.187   3.110
12005TIP3    H235901   3.320   9.119   3.046
12006TIP3   OH235902   3.447   9.404   4.213
12006TIP3    H135903   3.430   9.330   4.275
12006TIP3    H235904   3.539   9.426   4.235
12007TIP3   OH235905   3.417   9.151   3.371
12007TIP3    H135906   3.357   9.168   3.295
12007TIP3    H235907   3.461   9.072   3.334
12008TIP3   OH235908   2.732   9.191   4.118
12008TIP3    H135909   2.691   9.235   4.192
12008TIP3    H235910   2.702   9.099   4.135
12009TIP3   OH235911   2.764   8.670   2.809
12009TIP3    H135912   2.756   8.668   2.907
12009TIP3    H235913   2.686   8.723   2.786
12010TIP3   OH235914   2.305   8.718   3.674
12010TIP3    H135915   2.379   8.747   3.730
12010TIP3    H235916   2.348   8.678   3.597
12011TIP3   OH235917   2.281   8.691   3.199
12011TIP3    H135918   2.324   8.731   3.120
12011TIP3    H235919   2.220   8.763   3.222
12012TIP3   OH235920   3.486   9.396   3.815
12012TIP3    H135921   3.487   9.330   3.742
12012TIP3    H235922   3.413   9.359   3.868
12013TIP3   OH235923   3.106   8.864   3.463
12013TIP3    H135924   3.022   8.868   3.512
12013TIP3    H235925   3.170   8.880   3.534
12014TIP3   OH235926   2.539   8.931   3.468
12014TIP3    H135927   2.445   8.936   3.441
12014TIP3    H235928   2.563   8.839   3.449
12015TIP3   OH235929   2.812   8.925   3.160
12015TIP3    H135930   2.903   8.946   3.133
12015TIP3    H235931   2.759   8.946   3.080
12016TIP3   OH235932   3.594   8.949   3.668
12016TIP3    H135933   3.558   8.960   3.758
12016TIP3    H235934   3.529   8.885   3.631
12017TIP3   OH235935   2.644   8.941   2.941
12017TIP3    H135936   2.582   8.907   2.874
12017TIP3    H235937   2.694   9.006   2.888
12018TIP3   OH235938   3.182   9.177   3.555
12018TIP3    H135939   3.266   9.160   3.510
12018TIP3    H235940   3.203   9.163   3.649
12019TIP3   OH235941   2.711   8.688   3.442
12019TIP3    H135942   2.676   8.608   3.487
12019TIP3    H235943   2.755   8.650   3.364
12020TIP3   OH235944   3.162   9.087   3.859
12020TIP3    H135945   3.074   9.130   3.851
12020TIP3    H235946   3.217   9.156   3.901
12021TIP3   OH235947   3.358   8.809   2.809
12021TIP3    H135948   3.262   8.786   2.819
12021TIP3    H235949   3.360   8.905   2.829
12022TIP3   OH235950   3.429   9.070   2.896
12022TIP3    H135951   3.520   9.055   2.927
12022TIP3    H235952   3.437   9.155   2.851
12023TIP3   OH235953   3.190   9.423   4.324
12023TIP3    H135954   3.115   9.476   4.288
12023TIP3    H235955   3.242   9.406   4.244
12024TIP3   OH235956   3.867   9.128   2.755
12024TIP3    H135957   3.804   9.090   2.689
12024TIP3    H235958   3.876   9.217   2.718
12025TIP3   OH235959   2.680   8.932   4.241
12025TIP3    H135960   2.583   8.937   4.255
12025TIP3    H235961   2.707   8.872   4.313
12026TIP3   OH235962   3.518   9.005   3.929
12026TIP3    H135963   3.604   9.035   3.963
12026TIP3    H235964   3.504   8.922   3.979
12027TIP3   OH235965   3.406   8.748   3.089
12027TIP3    H135966   3.389   8.774   2.996
12027TIP3    H235967   3.443   8.831   3.126
12028TIP3   OH235968   3.101   8.928   3.193
12028TIP3    H135969   3.167   8.999   3.179
12028TIP3    H235970   3.098   8.922   3.291
12029TIP3   OH235971   3.350   9.243   3.997
12029TIP3    H135972   3.384   9.292   4.074
12029TIP3    H235973   3.405   9.162   3.998
12030TIP3   OH235974   3.237   8.657   3.296
12030TIP3    H135975   3.221   8.736   3.352
12030TIP3    H235976   3.297   8.694   3.228
12031TIP3   OH235977   2.748   8.655   3.086
12031TIP3    H135978   2.744   8.748   3.116
12031TIP3    H235979   2.845   8.639   3.094
12032TIP3   OH235980   4.006   9.152   3.982
12032TIP3    H135981   3.909   9.144   3.991
12032TIP3    H235982   4.019   9.111   3.896
12033TIP3   OH235983   3.643   9.327   3.350
12033TIP3    H135984   3.574   9.268   3.381
12033TIP3    H235985   3.719   9.302   3.407
12034TIP3   OH235986   2.300   8.853   2.980
12034TIP3    H135987   2.322   8.945   2.960
12034TIP3    H235988   2.229   8.832   2.919
12035TIP3   OH235989   2.700   8.568   3.844
12035TIP3    H135990   2.667   8.534   3.758
12035TIP3    H235991   2.688   8.489   3.902
12036TIP3   OH235992   2.681   9.455   4.449
12036TIP3    H135993   2.717   9.372   4.483
12036TIP3    H235994   2.664   9.508   4.530
12037TIP3   OH235995   2.996   9.306   4.094
12037TIP3    H135996   2.903   9.290   4.111
12037TIP3    H235997   3.003   9.297   3.998
12038TIP3   OH235998   2.820   9.079   2.785
12038TIP3    H135999   2.793   9.028   2.706
12038TIP3    H236000   2.918   9.070   2.784
12039TIP3   OH236001   3.104   9.123   4.276
12039TIP3    H136002   3.108   9.040   4.224
12039TIP3    H236003   3.073   9.186   4.208
12040TIP3   OH236004   3.105   8.922   4.078
12040TIP3    H136005   3.132   8.968   3.995
12040TIP3    H236006   3.011   8.902   4.059
12041TIP3   OH236007   3.722   9.439   4.323
12041TIP3    H136008   3.739   9.346   4.347
12041TIP3    H236009   3.811   9.468   4.299
12042TIP3   OH236010   2.969   9.255   4.496
12042TIP3    H136011   2.909   9.178   4.504
12042TIP3    H236012   3.014   9.236   4.411
12043TIP3   OH236013   3.237   8.689   4.142
12043TIP3    H136014   3.188   8.771   4.119
12043TIP3    H236015   3.168   8.621   4.130
12044TIP3   OH236016   3.367   9.183   4.359
12044TIP3    H136017   3.351   9.179   4.455
12044TIP3    H236018   3.275   9.166   4.328
12045TIP3   OH236019   3.605   9.147   4.219
12045TIP3    H136020   3.527   9.138   4.277
12045TIP3    H236021   3.677   9.112   4.275
12046TIP3   OH236022   3.833   9.086   4.366
12046TIP3    H136023   3.845   8.990   4.384
12046TIP3    H236024   3.829   9.125   4.456
12047TIP3   OH236025   2.816   9.032   4.550
12047TIP3    H136026   2.820   8.941   4.514
12047TIP3    H236027   2.852   9.018   4.639
12048TIP3   OH236028   3.331   8.701   4.399
12048TIP3    H136029   3.398   8.629   4.393
12048TIP3    H236030   3.290   8.695   4.311
12049TIP3   OH236031   3.396   8.915   4.559
12049TIP3    H136032   3.375   8.845   4.494
12049TIP3    H236033   3.318   8.974   4.552
12050TIP3   OH236034   3.699   9.054   2.551
12050TIP3    H136035   3.680   9.075   2.459
12050TIP3    H236036   3.676   8.958   2.552
12051TIP3   OH236037   3.739   9.304   3.097
12051TIP3    H136038   3.738   9.208   3.106
12051TIP3    H236039   3.714   9.331   3.189
12052TIP3   OH236040   4.171   9.577   3.984
12052TIP3    H136041   4.097   9.519   4.010
12052TIP3    H236042   4.246   9.514   3.988
12053TIP3   OH236043   3.645   8.788   2.544
12053TIP3    H136044   3.720   8.753   2.596
12053TIP3    H236045   3.572   8.728   2.564
12054TIP3   OH236046   3.696   9.030   2.993
12054TIP3    H136047   3.739   8.942   3.006
12054TIP3    H236048   3.755   9.068   2.927
12055TIP3   OH236049   3.864   9.209   3.480
12055TIP3    H136050   3.948   9.238   3.437
12055TIP3    H236051   3.881   9.246   3.569
12056TIP3   OH236052   3.943   9.339   3.711
12056TIP3    H136053   3.868   9.371   3.764
12056TIP3    H236054   3.993   9.423   3.697
12057TIP3   OH236055   2.550   9.101   4.536
12057TIP3    H136056   2.646   9.084   4.527
12057TIP3    H236057   2.521   9.013   4.566
12058TIP3   OH236058   4.383   8.947   4.276
12058TIP3    H136059   4.444   8.883   4.235
12058TIP3    H236060   4.359   9.004   4.200
12059TIP3   OH236061   3.815   8.787   3.031
12059TIP3    H136062   3.862   8.773   3.116
12059TIP3    H236063   3.753   8.711   3.032
12060TIP3   OH236064   2.510   8.771   3.854
12060TIP3    H136065   2.575   8.699   3.862
12060TIP3    H236066   2.569   8.848   3.844
12061TIP3   OH236067   2.316   9.057   3.932
12061TIP3    H136068   2.362   9.048   3.846
12061TIP3    H236069   2.336   9.148   3.955
12062TIP3   OH236070   4.259   9.092   4.080
12062TIP3    H136071   4.170   9.128   4.098
12062TIP3    H236072   4.234   9.016   4.023
12063TIP3   OH236073   3.894   8.725   2.664
12063TIP3    H136074   3.934   8.653   2.611
12063TIP3    H236075   3.962   8.795   2.660
12064TIP3   OH236076   2.300   8.553   3.430
12064TIP3    H136077   2.207   8.548   3.455
12064TIP3    H236078   2.297   8.609   3.350
12065TIP3   OH236079   2.520   8.634   4.241
12065TIP3    H136080   2.467   8.628   4.322
12065TIP3    H236081   2.455   8.673   4.179
12066TIP3   OH236082   4.156   8.851   3.962
12066TIP3    H136083   4.065   8.843   3.928
12066TIP3    H236084   4.188   8.759   3.951
12067TIP3   OH236085   3.369   8.769   3.588
12067TIP3    H136086   3.318   8.700   3.635
12067TIP3    H236087   3.432   8.716   3.537
12068TIP3   OH236088   3.885   8.646   3.486
12068TIP3    H136089   3.921   8.699   3.411
12068TIP3    H236090   3.789   8.663   3.479
12069TIP3   OH236091   3.980   8.746   3.249
12069TIP3    H136092   4.054   8.696   3.209
12069TIP3    H236093   4.012   8.838   3.234
12070TIP3   OH236094   2.608   8.474   3.597
12070TIP3    H136095   2.516   8.441   3.597
12070TIP3    H236096   2.657   8.389   3.594
12071TIP3   OH236097   2.397   8.346   3.244
12071TIP3    H136098   2.426   8.404   3.172
12071TIP3    H236099   2.369   8.410   3.312
12072TIP3   OH236100   3.055   8.505   3.477
12072TIP3    H136101   3.112   8.557   3.418
12072TIP3    H236102   3.070   8.547   3.562
12073TIP3   OH236103   3.604   8.654   3.460
12073TIP3    H136104   3.595   8.617   3.371
12073TIP3    H236105   3.589   8.574   3.516
12074TIP3   OH236106   3.630   8.576   3.024
12074TIP3    H136107   3.544   8.620   3.036
12074TIP3    H236108   3.614   8.491   3.070
12075TIP3   OH236109   2.513   8.506   3.007
12075TIP3    H136110   2.561   8.442   2.951
12075TIP3    H236111   2.586   8.559   3.044
12076TIP3   OH236112   3.026   8.681   3.106
12076TIP3    H136113   3.084   8.633   3.167
12076TIP3    H236114   3.047   8.773   3.131
12077TIP3   OH236115   2.817   8.758   4.490
12077TIP3    H136116   2.782   8.687   4.546
12077TIP3    H236117   2.911   8.757   4.517
12078TIP3   OH236118   3.067   8.754   4.609
12078TIP3    H136119   3.150   8.727   4.567
12078TIP3    H236120   3.054   8.682   4.674
12079TIP3   OH236121   3.892   8.815   4.395
12079TIP3    H136122   3.911   8.783   4.486
12079TIP3    H236123   3.980   8.810   4.353
12080TIP3   OH236124   4.074   9.259   2.909
12080TIP3    H136125   4.032   9.333   2.955
12080TIP3    H236126   3.998   9.202   2.889
12081TIP3   OH236127   5.906   9.284   3.079
12081TIP3    H136128   5.939   9.366   3.122
12081TIP3    H236129   5.927   9.302   2.986
12082TIP3   OH236130   5.307   9.469   3.107
12082TIP3    H136131   5.348   9.383   3.130
12082TIP3    H236132   5.269   9.447   3.019
12083TIP3   OH236133   4.646   9.125   3.079
12083TIP3    H136134   4.627   9.199   3.017
12083TIP3    H236135   4.597   9.053   3.034
12084TIP3   OH236136   5.339   9.213   2.703
12084TIP3    H136137   5.413   9.198   2.768
12084TIP3    H236138   5.390   9.250   2.629
12085TIP3   OH236139   4.268   9.311   3.197
12085TIP3    H136140   4.356   9.299   3.236
12085TIP3    H236141   4.283   9.276   3.107
12086TIP3   OH236142   4.731   9.529   2.969
12086TIP3    H136143   4.817   9.491   2.995
12086TIP3    H236144   4.681   9.452   2.937
12087TIP3   OH236145   5.993   9.486   3.251
12087TIP3    H136146   5.912   9.533   3.220
12087TIP3    H236147   5.996   9.514   3.343
12088TIP3   OH236148   4.642   9.110   3.516
12088TIP3    H136149   4.580   9.141   3.447
12088TIP3    H236150   4.588   9.127   3.596
12089TIP3   OH236151   5.550   9.220   2.873
12089TIP3    H136152   5.541   9.172   2.956
12089TIP3    H236153   5.599   9.300   2.901
12090TIP3   OH236154   4.512   9.217   3.298
12090TIP3    H136155   4.571   9.293   3.315
12090TIP3    H236156   4.560   9.176   3.222
12091TIP3   OH236157   5.700   9.187   3.246
12091TIP3    H136158   5.613   9.214   3.214
12091TIP3    H236159   5.760   9.218   3.175
12092TIP3   OH236160   4.998   8.829   3.229
12092TIP3    H136161   4.983   8.734   3.245
12092TIP3    H236162   4.921   8.868   3.275
12093TIP3   OH236163   4.895   9.337   2.235
12093TIP3    H136164   4.937   9.417   2.270
12093TIP3    H236165   4.955   9.312   2.164
12094TIP3   OH236166   5.536   9.712   3.354
12094TIP3    H136167   5.545   9.795   3.307
12094TIP3    H236168   5.445   9.685   3.327
12095TIP3   OH236169   5.631   8.773   2.330
12095TIP3    H136170   5.549   8.792   2.381
12095TIP3    H236171   5.643   8.856   2.280
12096TIP3   OH236172   5.758   9.676   3.541
12096TIP3    H136173   5.677   9.669   3.488
12096TIP3    H236174   5.785   9.582   3.545
12097TIP3   OH236175   4.759   8.904   3.357
12097TIP3    H136176   4.670   8.874   3.331
12097TIP3    H236177   4.736   8.987   3.402
12098TIP3   OH236178   5.293   9.021   3.551
12098TIP3    H136179   5.361   8.992   3.615
12098TIP3    H236180   5.209   9.000   3.597
12099TIP3   OH236181   5.534   9.437   3.475
12099TIP3    H136182   5.484   9.432   3.560
12099TIP3    H236183   5.503   9.520   3.437
12100TIP3   OH236184   4.909   8.950   2.329
12100TIP3    H136185   4.873   8.950   2.420
12100TIP3    H236186   4.866   8.869   2.295
12101TIP3   OH236187   4.682   9.427   3.360
12101TIP3    H136188   4.628   9.436   3.441
12101TIP3    H236189   4.657   9.506   3.309
12102TIP3   OH236190   4.576   9.306   2.890
12102TIP3    H136191   4.483   9.280   2.906
12102TIP3    H236192   4.589   9.268   2.800
12103TIP3   OH236193   5.077   9.392   2.620
12103TIP3    H136194   4.996   9.444   2.598
12103TIP3    H236195   5.116   9.376   2.532
12104TIP3   OH236196   5.243   9.661   3.700
12104TIP3    H136197   5.225   9.587   3.762
12104TIP3    H236198   5.335   9.683   3.723
12105TIP3   OH236199   5.213   9.408   2.858
12105TIP3    H136200   5.153   9.424   2.781
12105TIP3    H236201   5.258   9.329   2.821
12106TIP3   OH236202   4.526   9.445   3.603
12106TIP3    H136203   4.490   9.492   3.680
12106TIP3    H236204   4.497   9.354   3.624
12107TIP3   OH236205   4.558   8.926   2.296
12107TIP3    H136206   4.551   8.926   2.394
12107TIP3    H236207   4.483   8.982   2.272
12108TIP3   OH236208   4.102   8.971   3.163
12108TIP3    H136209   4.174   9.004   3.219
12108TIP3    H236210   4.147   8.938   3.084
12109TIP3   OH236211   4.077   8.949   2.685
12109TIP3    H136212   4.119   8.989   2.607
12109TIP3    H236213   4.015   9.021   2.709
12110TIP3   OH236214   5.282   9.653   3.301
12110TIP3    H136215   5.283   9.586   3.228
12110TIP3    H236216   5.210   9.616   3.355
12111TIP3   OH236217   4.902   9.119   2.950
12111TIP3    H136218   4.818   9.125   3.000
12111TIP3    H236219   4.966   9.136   3.020
12112TIP3   OH236220   4.335   9.189   2.955
12112TIP3    H136221   4.241   9.194   2.928
12112TIP3    H236222   4.359   9.097   2.934
12113TIP3   OH236223   4.608   9.180   2.647
12113TIP3    H136224   4.699   9.204   2.621
12113TIP3    H236225   4.555   9.202   2.567
12114TIP3   OH236226   5.390   9.206   3.154
12114TIP3    H136227   5.355   9.217   3.245
12114TIP3    H236228   5.326   9.142   3.118
12115TIP3   OH236229   4.441   9.195   2.428
12115TIP3    H136230   4.378   9.163   2.361
12115TIP3    H236231   4.491   9.262   2.376
12116TIP3   OH236232   4.979   9.433   3.042
12116TIP3    H136233   5.063   9.416   2.998
12116TIP3    H236234   4.999   9.419   3.136
12117TIP3   OH236235   4.507   8.945   2.928
12117TIP3    H136236   4.473   8.865   2.973
12117TIP3    H236237   4.552   8.908   2.851
12118TIP3   OH236238   4.958   9.344   3.345
12118TIP3    H136239   4.871   9.386   3.338
12118TIP3    H236240   5.013   9.413   3.388
12119TIP3   OH236241   5.154   9.066   2.296
12119TIP3    H136242   5.058   9.043   2.306
12119TIP3    H236243   5.157   9.162   2.316
12120TIP3   OH236244   5.225   9.326   2.382
12120TIP3    H136245   5.316   9.311   2.414
12120TIP3    H236246   5.233   9.412   2.339
12121TIP3   OH236247   4.985   9.678   3.809
12121TIP3    H136248   4.914   9.736   3.775
12121TIP3    H236249   5.039   9.664   3.730
12122TIP3   OH236250   5.663   9.384   2.242
12122TIP3    H136251   5.600   9.346   2.176
12122TIP3    H236252   5.671   9.473   2.206
12123TIP3   OH236253   4.478   9.187   3.729
12123TIP3    H136254   4.381   9.189   3.743
12123TIP3    H236255   4.508   9.131   3.802
12124TIP3   OH236256   5.315   9.260   3.415
12124TIP3    H136257   5.400   9.291   3.450
12124TIP3    H236258   5.301   9.177   3.466
12125TIP3   OH236259   5.202   9.005   2.575
12125TIP3    H136260   5.185   9.031   2.483
12125TIP3    H236261   5.239   9.087   2.614
12126TIP3   OH236262   4.897   9.184   2.679
12126TIP3    H136263   4.963   9.255   2.666
12126TIP3    H236264   4.894   9.178   2.777
12127TIP3   OH236265   5.147   9.500   3.483
12127TIP3    H136266   5.179   9.549   3.562
12127TIP3    H236267   5.201   9.418   3.486
12128TIP3   OH236268   5.033   8.912   2.782
12128TIP3    H136269   5.019   8.990   2.839
12128TIP3    H236270   5.093   8.950   2.714
12129TIP3   OH236271   4.545   8.912   2.573
12129TIP3    H136272   4.539   9.004   2.603
12129TIP3    H236273   4.641   8.897   2.581
12130TIP3   OH236274   5.802   9.409   3.468
12130TIP3    H136275   5.705   9.402   3.478
12130TIP3    H236276   5.813   9.364   3.383
12131TIP3   OH236277   5.440   9.583   2.836
12131TIP3    H136278   5.370   9.525   2.868
12131TIP3    H236279   5.516   9.558   2.893
12132TIP3   OH236280   4.098   9.108   2.462
12132TIP3    H136281   4.118   9.201   2.449
12132TIP3    H236282   4.019   9.093   2.411
12133TIP3   OH236283   4.495   8.824   3.331
12133TIP3    H136284   4.463   8.791   3.245
12133TIP3    H236285   4.484   8.746   3.389
12134TIP3   OH236286   4.477   9.708   3.938
12134TIP3    H136287   4.523   9.632   3.975
12134TIP3    H236288   4.459   9.764   4.016
12135TIP3   OH236289   4.795   9.561   3.580
12135TIP3    H136290   4.701   9.556   3.601
12135TIP3    H236291   4.797   9.558   3.484
12136TIP3   OH236292   4.617   9.335   2.273
12136TIP3    H136293   4.590   9.285   2.193
12136TIP3    H236294   4.715   9.327   2.270
12137TIP3   OH236295   4.900   9.378   3.764
12137TIP3    H136296   4.905   9.296   3.711
12137TIP3    H236297   4.869   9.442   3.696
12138TIP3   OH236298   4.901   9.178   3.563
12138TIP3    H136299   4.928   9.225   3.482
12138TIP3    H236300   4.807   9.159   3.545
12139TIP3   OH236301   5.519   9.695   3.811
12139TIP3    H136302   5.535   9.602   3.835
12139TIP3    H236303   5.608   9.723   3.786
12140TIP3   OH236304   4.761   9.514   3.980
12140TIP3    H136305   4.703   9.435   3.991
12140TIP3    H236306   4.809   9.491   3.898
12141TIP3   OH236307   5.033   8.945   3.627
12141TIP3    H136308   4.984   9.027   3.605
12141TIP3    H236309   4.963   8.877   3.617
12142TIP3   OH236310   5.163   9.440   3.845
12142TIP3    H136311   5.150   9.434   3.941
12142TIP3    H236312   5.071   9.423   3.817
12143TIP3   OH236313   5.402   9.403   3.706
12143TIP3    H136314   5.323   9.395   3.764
12143TIP3    H236315   5.473   9.368   3.763
12144TIP3   OH236316   5.631   9.343   3.853
12144TIP3    H136317   5.642   9.247   3.871
12144TIP3    H236318   5.625   9.381   3.943
12145TIP3   OH236319   4.610   9.289   4.037
12145TIP3    H136320   4.618   9.198   4.003
12145TIP3    H236321   4.649   9.278   4.126
12146TIP3   OH236322   5.127   8.958   3.885
12146TIP3    H136323   5.194   8.887   3.881
12146TIP3    H236324   5.087   8.951   3.796
12147TIP3   OH236325   5.193   9.173   4.044
12147TIP3    H136326   5.171   9.102   3.980
12147TIP3    H236327   5.115   9.231   4.038
12148TIP3   OH236328   5.495   9.312   2.037
12148TIP3    H136329   5.473   9.329   1.945
12148TIP3    H236330   5.473   9.216   2.042
12149TIP3   OH236331   5.536   9.561   2.584
12149TIP3    H136332   5.534   9.464   2.592
12149TIP3    H236333   5.510   9.587   2.675
12150TIP3   OH236334   5.968   9.833   3.468
12150TIP3    H136335   5.893   9.776   3.496
12150TIP3    H236336   6.042   9.770   3.474
12151TIP3   OH236337   5.441   9.047   2.032
12151TIP3    H136338   5.517   9.010   2.081
12151TIP3    H236339   5.369   8.984   2.051
12152TIP3   OH236340   5.492   9.287   2.480
12152TIP3    H136341   5.534   9.199   2.493
12152TIP3    H236342   5.552   9.324   2.413
12153TIP3   OH236343   5.660   9.467   2.966
12153TIP3    H136344   5.744   9.495   2.924
12153TIP3    H236345   5.677   9.502   3.056
12154TIP3   OH236346   5.740   9.597   3.197
12154TIP3    H136347   5.665   9.628   3.251
12154TIP3    H236348   5.789   9.681   3.183
12155TIP3   OH236349   4.343   9.353   4.013
12155TIP3    H136350   4.440   9.342   4.011
12155TIP3    H236351   4.318   9.266   4.051
12156TIP3   OH236352   6.179   9.204   3.763
12156TIP3    H136353   6.241   9.139   3.723
12156TIP3    H236354   6.156   9.260   3.687
12157TIP3   OH236355   5.611   9.044   2.518
12157TIP3    H136356   5.658   9.030   2.603
12157TIP3    H236357   5.549   8.968   2.518
12158TIP3   OH236358   4.305   9.028   3.342
12158TIP3    H136359   4.372   8.956   3.350
12158TIP3    H236360   4.363   9.105   3.331
12159TIP3   OH236361   4.111   9.313   3.420
12159TIP3    H136362   4.158   9.304   3.334
12159TIP3    H236363   4.130   9.405   3.441
12160TIP3   OH236364   6.055   9.349   3.566
12160TIP3    H136365   5.966   9.384   3.584
12160TIP3    H236366   6.031   9.273   3.510
12161TIP3   OH236367   5.690   8.982   2.149
12161TIP3    H136368   5.729   8.908   2.098
12161TIP3    H236369   5.760   9.050   2.146
12162TIP3   OH236370   4.095   8.805   2.912
12162TIP3    H136371   4.002   8.805   2.941
12162TIP3    H236372   4.093   8.865   2.835
12163TIP3   OH236373   4.316   8.889   3.727
12163TIP3    H136374   4.264   8.885   3.809
12163TIP3    H236375   4.250   8.928   3.666
12164TIP3   OH236376   5.952   9.107   3.448
12164TIP3    H136377   5.861   9.098   3.415
12164TIP3    H236378   5.985   9.015   3.438
12165TIP3   OH236379   5.164   9.025   3.072
12165TIP3    H136380   5.114   8.956   3.120
12165TIP3    H236381   5.231   8.973   3.024
12166TIP3   OH236382   5.681   8.903   2.972
12166TIP3    H136383   5.716   8.956   2.897
12166TIP3    H236384   5.585   8.921   2.965
12167TIP3   OH236385   5.776   9.005   2.736
12167TIP3    H136386   5.849   8.953   2.697
12167TIP3    H236387   5.808   9.097   2.721
12168TIP3   OH236388   4.405   8.732   3.083
12168TIP3    H136389   4.313   8.699   3.086
12168TIP3    H236390   4.454   8.647   3.081
12169TIP3   OH236391   4.194   8.601   2.729
12169TIP3    H136392   4.222   8.662   2.658
12169TIP3    H236393   4.165   8.664   2.797
12170TIP3   OH236394   4.852   8.760   2.964
12170TIP3    H136395   4.907   8.813   2.905
12170TIP3    H236396   4.868   8.804   3.049
12171TIP3   OH236397   5.399   8.910   2.947
12171TIP3    H136398   5.394   8.872   2.859
12171TIP3    H236399   5.384   8.831   3.004
12172TIP3   OH236400   5.426   8.833   2.510
12172TIP3    H136401   5.340   8.877   2.524
12172TIP3    H236402   5.411   8.748   2.557
12173TIP3   OH236403   4.309   8.759   2.496
12173TIP3    H136404   4.359   8.700   2.437
12173TIP3    H236405   4.381   8.816   2.532
12174TIP3   OH236406   4.822   8.936   2.594
12174TIP3    H136407   4.883   8.892   2.655
12174TIP3    H236408   4.841   9.030   2.617
12175TIP3   OH236409   4.613   9.012   3.975
12175TIP3    H136410   4.579   8.941   4.032
12175TIP3    H236411   4.707   9.013   4.002
12176TIP3   OH236412   4.862   9.010   4.094
12176TIP3    H136413   4.948   8.983   4.055
12176TIP3    H236414   4.850   8.940   4.161
12177TIP3   OH236415   5.688   9.072   3.882
12177TIP3    H136416   5.706   9.040   3.973
12177TIP3    H236417   5.776   9.066   3.841
12178TIP3   OH236418   5.869   9.520   2.396
12178TIP3    H136419   5.824   9.588   2.447
12178TIP3    H236420   5.798   9.457   2.377
12179TIP3   OH236421   7.102   9.735   2.599
12179TIP3    H136422   7.140   9.648   2.620
12179TIP3    H236423   7.076   9.722   2.506
12180TIP3   OH236424   6.442   9.382   2.565
12180TIP3    H136425   6.422   9.455   2.503
12180TIP3    H236426   6.394   9.309   2.521
12181TIP3   OH236427   7.136   9.468   2.196
12181TIP3    H136428   7.203   9.449   2.265
12181TIP3    H236429   7.194   9.504   2.128
12182TIP3   OH236430   6.067   9.572   2.681
12182TIP3    H136431   6.152   9.552   2.724
12182TIP3    H236432   6.080   9.531   2.594
12183TIP3   OH236433   6.525   9.787   2.444
12183TIP3    H136434   6.610   9.752   2.478
12183TIP3    H236435   6.476   9.705   2.423
12184TIP3   OH236436   6.438   9.367   3.002
12184TIP3    H136437   6.375   9.398   2.934
12184TIP3    H236438   6.385   9.383   3.083
12185TIP3   OH236439   7.353   9.474   2.363
12185TIP3    H136440   7.330   9.422   2.441
12185TIP3    H236441   7.434   9.519   2.390
12186TIP3   OH236442   6.306   9.473   2.784
12186TIP3    H136443   6.366   9.548   2.803
12186TIP3    H236444   6.355   9.431   2.709
12187TIP3   OH236445   7.496   9.449   2.725
12187TIP3    H136446   7.401   9.468   2.715
12187TIP3    H236447   7.530   9.470   2.638
12188TIP3   OH236448   6.794   9.085   2.715
12188TIP3    H136449   6.780   8.990   2.733
12188TIP3    H236450   6.717   9.123   2.762
12189TIP3   OH236451   6.685   9.592   1.716
12189TIP3    H136452   6.737   9.659   1.762
12189TIP3    H236453   6.746   9.561   1.647
12190TIP3   OH236454   7.419   9.027   1.812
12190TIP3    H136455   7.342   9.039   1.871
12190TIP3    H236456   7.427   9.115   1.772
12191TIP3   OH236457   6.555   9.161   2.843
12191TIP3    H136458   6.466   9.130   2.817
12191TIP3    H236459   6.531   9.243   2.890
12192TIP3   OH236460   7.088   9.278   3.038
12192TIP3    H136461   7.156   9.248   3.102
12192TIP3    H236462   7.005   9.256   3.084
12193TIP3   OH236463   7.338   9.705   2.960
12193TIP3    H136464   7.290   9.696   3.045
12193TIP3    H236465   7.291   9.778   2.918
12194TIP3   OH236466   6.705   9.208   1.816
12194TIP3    H136467   6.668   9.205   1.907
12194TIP3    H236468   6.663   9.127   1.779
12195TIP3   OH236469   6.475   9.681   2.842
12195TIP3    H136470   6.431   9.691   2.929
12195TIP3    H236471   6.463   9.767   2.801
12196TIP3   OH236472   6.369   9.564   2.376
12196TIP3    H136473   6.277   9.534   2.393
12196TIP3    H236474   6.384   9.524   2.288
12197TIP3   OH236475   6.875   9.652   2.106
12197TIP3    H136476   6.791   9.698   2.082
12197TIP3    H236477   6.915   9.631   2.019
12198TIP3   OH236478   7.037   9.921   3.191
12198TIP3    H136479   7.019   9.845   3.251
12198TIP3    H236480   7.132   9.934   3.205
12199TIP3   OH236481   7.003   9.670   2.347
12199TIP3    H136482   6.948   9.681   2.267
12199TIP3    H236483   7.056   9.594   2.317
12200TIP3   OH236484   6.317   9.703   3.089
12200TIP3    H136485   6.289   9.747   3.169
12200TIP3    H236486   6.290   9.611   3.110
12201TIP3   OH236487   6.358   9.185   1.782
12201TIP3    H136488   6.349   9.182   1.879
12201TIP3    H236489   6.278   9.234   1.758
12202TIP3   OH236490   5.898   9.230   2.647
12202TIP3    H136491   5.971   9.260   2.705
12202TIP3    H236492   5.942   9.190   2.571
12203TIP3   OH236493   5.873   9.205   2.172
12203TIP3    H136494   5.918   9.244   2.094
12203TIP3    H236495   5.812   9.277   2.194
12204TIP3   OH236496   7.045   9.925   2.791
12204TIP3    H136497   7.073   9.861   2.722
12204TIP3    H236498   6.993   9.865   2.848
12205TIP3   OH236499   6.697   9.378   2.436
12205TIP3    H136500   6.614   9.381   2.488
12205TIP3    H236501   6.763   9.395   2.504
12206TIP3   OH236502   6.131   9.444   2.441
12206TIP3    H136503   6.037   9.448   2.415
12206TIP3    H236504   6.156   9.352   2.423
12207TIP3   OH236505   6.403   9.439   2.135
12207TIP3    H136506   6.495   9.456   2.108
12207TIP3    H236507   6.351   9.457   2.053
12208TIP3   OH236508   7.188   9.462   2.642
12208TIP3    H136509   7.152   9.475   2.733
12208TIP3    H236510   7.121   9.401   2.606
12209TIP3   OH236511   6.236   9.457   1.915
12209TIP3    H136512   6.174   9.420   1.851
12209TIP3    H236513   6.285   9.520   1.860
12210TIP3   OH236514   6.772   9.691   2.527
12210TIP3    H136515   6.858   9.682   2.483
12210TIP3    H236516   6.795   9.678   2.621
12211TIP3   OH236517   6.302   9.201   2.414
12211TIP3    H136518   6.268   9.122   2.461
12211TIP3    H236519   6.351   9.162   2.341
12212TIP3   OH236520   6.755   9.600   2.832
12212TIP3    H136521   6.668   9.642   2.826
12212TIP3    H236522   6.810   9.667   2.877
12213TIP3   OH236523   6.949   9.320   1.793
12213TIP3    H136524   6.855   9.288   1.796
12213TIP3    H236525   6.939   9.415   1.803
12214TIP3   OH236526   7.022   9.589   1.865
12214TIP3    H136527   7.106   9.544   1.879
12214TIP3    H236528   7.039   9.639   1.785
12215TIP3   OH236529   6.778   9.932   3.293
12215TIP3    H136530   6.718  10.003   3.263
12215TIP3    H236531   6.837   9.921   3.218
12216TIP3   OH236532   6.274   9.444   3.215
12216TIP3    H136533   6.177   9.446   3.230
12216TIP3    H236534   6.304   9.388   3.288
12217TIP3   OH236535   7.114   9.518   2.903
12217TIP3    H136536   7.197   9.547   2.943
12217TIP3    H236537   7.097   9.434   2.952
12218TIP3   OH236538   6.994   9.260   2.066
12218TIP3    H136539   6.982   9.283   1.972
12218TIP3    H236540   7.036   9.341   2.104
12219TIP3   OH236541   6.691   9.444   2.168
12219TIP3    H136542   6.762   9.511   2.160
12219TIP3    H236543   6.688   9.432   2.266
12220TIP3   OH236544   6.943   9.752   2.974
12220TIP3    H136545   6.976   9.802   3.051
12220TIP3    H236546   6.999   9.671   2.976
12221TIP3   OH236547   6.827   9.169   2.271
12221TIP3    H136548   6.817   9.246   2.330
12221TIP3    H236549   6.888   9.205   2.202
12222TIP3   OH236550   6.340   9.168   2.058
12222TIP3    H136551   6.337   9.259   2.092
12222TIP3    H236552   6.437   9.151   2.067
12223TIP3   OH236553   7.616   9.663   2.925
12223TIP3    H136554   7.526   9.684   2.957
12223TIP3    H236555   7.594   9.608   2.848
12224TIP3   OH236556   5.896   9.365   1.951
12224TIP3    H136557   5.911   9.459   1.935
12224TIP3    H236558   5.818   9.344   1.899
12225TIP3   OH236559   6.291   9.081   2.819
12225TIP3    H136560   6.259   9.046   2.732
12225TIP3    H236561   6.280   9.003   2.877
12226TIP3   OH236562   6.273   9.965   3.424
12226TIP3    H136563   6.318   9.888   3.460
12226TIP3    H236564   6.255  10.020   3.503
12227TIP3   OH236565   6.594   9.810   3.067
12227TIP3    H136566   6.501   9.821   3.091
12227TIP3    H236567   6.595   9.822   2.972
12228TIP3   OH236568   6.411   9.596   1.759
12228TIP3    H136569   6.382   9.544   1.680
12228TIP3    H236570   6.508   9.583   1.756
12229TIP3   OH236571   6.696   9.633   3.252
12229TIP3    H136572   6.702   9.551   3.199
12229TIP3    H236573   6.665   9.696   3.184
12230TIP3   OH236574   6.697   9.434   3.051
12230TIP3    H136575   6.724   9.481   2.969
12230TIP3    H236576   6.603   9.415   3.032
12231TIP3   OH236577   7.322   9.952   3.305
12231TIP3    H136578   7.335   9.858   3.325
12231TIP3    H236579   7.407   9.973   3.263
12232TIP3   OH236580   6.555   9.771   3.466
12232TIP3    H136581   6.499   9.692   3.477
12232TIP3    H236582   6.605   9.749   3.385
12233TIP3   OH236583   6.830   9.201   3.114
12233TIP3    H136584   6.780   9.283   3.092
12233TIP3    H236585   6.760   9.133   3.104
12234TIP3   OH236586   6.959   9.698   3.332
12234TIP3    H136587   6.947   9.689   3.428
12234TIP3    H236588   6.867   9.680   3.304
12235TIP3   OH236589   7.198   9.662   3.189
12235TIP3    H136590   7.121   9.651   3.247
12235TIP3    H236591   7.271   9.627   3.245
12236TIP3   OH236592   7.416   9.596   3.342
12236TIP3    H136593   7.432   9.501   3.359
12236TIP3    H236594   7.419   9.635   3.432
12237TIP3   OH236595   6.407   9.546   3.524
12237TIP3    H136596   6.414   9.454   3.490
12237TIP3    H236597   6.446   9.534   3.613
12238TIP3   OH236598   6.924   9.215   3.372
12238TIP3    H136599   6.990   9.143   3.368
12238TIP3    H236600   6.883   9.208   3.283
12239TIP3   OH236601   6.990   9.431   3.530
12239TIP3    H136602   6.968   9.359   3.467
12239TIP3    H236603   6.911   9.488   3.525
12240TIP3   OH236604   7.221   9.332   1.542
12240TIP3    H136605   7.310   9.298   1.560
12240TIP3    H236606   7.167   9.252   1.533
12241TIP3   OH236607   6.140   9.610   3.501
12241TIP3    H136608   6.237   9.599   3.499
12241TIP3    H236609   6.115   9.523   3.538
12242TIP3   OH236610   7.962   9.478   3.228
12242TIP3    H136611   8.011   9.393   3.223
12242TIP3    H236612   7.918   9.482   3.142
12243TIP3   OH236613   7.373   9.315   2.025
12243TIP3    H136614   7.436   9.296   2.097
12243TIP3    H236615   7.325   9.231   2.018
12244TIP3   OH236616   6.101   9.284   2.827
12244TIP3    H136617   6.166   9.211   2.836
12244TIP3    H236618   6.161   9.360   2.818
12245TIP3   OH236619   5.907   9.569   2.904
12245TIP3    H136620   5.955   9.563   2.819
12245TIP3    H236621   5.928   9.660   2.929
12246TIP3   OH236622   5.892   9.065   2.402
12246TIP3    H136623   5.798   9.062   2.428
12246TIP3    H236624   5.889   9.123   2.322
12247TIP3   OH236625   6.112   9.148   3.214
12247TIP3    H136626   6.060   9.141   3.296
12247TIP3    H236627   6.045   9.184   3.153
12248TIP3   OH236628   7.754   9.368   2.945
12248TIP3    H136629   7.668   9.384   2.904
12248TIP3    H236630   7.776   9.279   2.910
12249TIP3   OH236631   6.959   9.280   2.557
12249TIP3    H136632   6.909   9.213   2.607
12249TIP3    H236633   7.026   9.227   2.510
12250TIP3   OH236634   7.475   9.168   2.458
12250TIP3    H136635   7.510   9.216   2.381
12250TIP3    H236636   7.378   9.178   2.446
12251TIP3   OH236637   7.575   9.275   2.219
12251TIP3    H136638   7.638   9.209   2.181
12251TIP3    H236639   7.629   9.354   2.214
12252TIP3   OH236640   6.201   8.988   2.570
12252TIP3    H136641   6.109   8.955   2.572
12252TIP3    H236642   6.251   8.903   2.567
12253TIP3   OH236643   5.987   8.858   2.218
12253TIP3    H136644   6.018   8.915   2.146
12253TIP3    H236645   5.961   8.923   2.286
12254TIP3   OH236646   6.645   9.021   2.451
12254TIP3    H136647   6.703   9.071   2.392
12254TIP3    H236648   6.666   9.059   2.537
12255TIP3   OH236649   7.196   9.167   2.430
12255TIP3    H136650   7.189   9.125   2.344
12255TIP3    H236651   7.182   9.089   2.490
12256TIP3   OH236652   7.219   9.083   1.996
12256TIP3    H136653   7.132   9.124   2.008
12256TIP3    H236654   7.206   8.998   2.044
12257TIP3   OH236655   6.105   9.019   1.980
12257TIP3    H136656   6.153   8.954   1.925
12257TIP3    H236657   6.179   9.071   2.017
12258TIP3   OH236658   6.618   9.196   2.080
12258TIP3    H136659   6.675   9.146   2.140
12258TIP3    H236660   6.641   9.287   2.106
12259TIP3   OH236661   6.409   9.270   3.463
12259TIP3    H136662   6.375   9.198   3.519
12259TIP3    H236663   6.504   9.270   3.489
12260TIP3   OH236664   6.659   9.266   3.580
12260TIP3    H136665   6.744   9.239   3.542
12260TIP3    H236666   6.646   9.197   3.649
12261TIP3   OH236667   7.485   9.328   3.369
12261TIP3    H136668   7.501   9.296   3.461
12261TIP3    H236669   7.572   9.315   3.327
12262TIP3   OH236670   2.221   0.666   7.843
12262TIP3    H136671   2.293   0.618   7.886
12262TIP3    H236672   2.232   0.754   7.883
12263TIP3   OH236673   1.842   1.095   7.858
12263TIP3    H136674   1.885   1.021   7.811
12263TIP3    H236675   1.869   1.080   7.950
12264TIP3   OH236676   2.257   0.889   8.012
12264TIP3    H136677   2.178   0.897   8.067
12264TIP3    H236678   2.266   0.980   7.975
12265TIP3   OH236679   1.977   0.930   7.681
12265TIP3    H136680   2.022   0.846   7.658
12265TIP3    H236681   2.042   0.996   7.646
12266TIP3   OH236682   2.090   0.690   7.593
12266TIP3    H136683   2.127   0.630   7.525
12266TIP3    H236684   2.154   0.683   7.666
12267TIP3   OH236685   2.516   0.806   8.360
12267TIP3    H136686   2.488   0.723   8.317
12267TIP3    H236687   2.492   0.875   8.296
12268TIP3   OH236688   2.724   0.450   8.203
12268TIP3    H136689   2.629   0.468   8.218
12268TIP3    H236690   2.733   0.467   8.107
12269TIP3   OH236691   2.302   0.744   7.012
12269TIP3    H136692   2.311   0.840   6.993
12269TIP3    H236693   2.394   0.713   6.999
12270TIP3   OH236694   2.744   1.145   8.400
12270TIP3    H136695   2.744   1.049   8.419
12270TIP3    H236696   2.662   1.171   8.448
12271TIP3   OH236697   1.607   1.065   7.484
12271TIP3    H136698   1.575   1.061   7.393
12271TIP3    H236699   1.579   1.154   7.514
12272TIP3   OH236700   1.817   0.959   7.133
12272TIP3    H136701   1.877   0.890   7.095
12272TIP3    H236702   1.853   0.968   7.223
12273TIP3   OH236703   1.866   1.016   7.406
12273TIP3    H136704   1.777   1.020   7.449
12273TIP3    H236705   1.926   1.015   7.482
12274TIP3   OH236706   2.429   1.495   8.500
12274TIP3    H136707   2.431   1.520   8.406
12274TIP3    H236708   2.511   1.539   8.532
12275TIP3   OH236709   2.462   0.578   8.191
12275TIP3    H136710   2.511   0.627   8.122
12275TIP3    H236711   2.370   0.596   8.167
12276TIP3   OH236712   2.760   0.854   8.452
12276TIP3    H136713   2.662   0.846   8.439
12276TIP3    H236714   2.789   0.823   8.363
12277TIP3   OH236715   2.237   0.812   7.273
12277TIP3    H136716   2.217   0.730   7.320
12277TIP3    H236717   2.252   0.780   7.182
12278TIP3   OH236718   2.018   0.552   7.172
12278TIP3    H136719   2.050   0.517   7.257
12278TIP3    H236720   1.921   0.545   7.183
12279TIP3   OH236721   2.271   1.176   8.337
12279TIP3    H136722   2.183   1.136   8.325
12279TIP3    H236723   2.263   1.253   8.277
12280TIP3   OH236724   2.333   1.018   6.996
12280TIP3    H136725   2.372   1.090   6.944
12280TIP3    H236726   2.252   1.065   7.028
12281TIP3   OH236727   2.164   0.481   7.420
12281TIP3    H136728   2.154   0.391   7.454
12281TIP3    H236729   2.258   0.477   7.392
12282TIP3   OH236730   2.288   1.150   7.932
12282TIP3    H136731   2.246   1.200   7.858
12282TIP3    H236732   2.382   1.174   7.916
12283TIP3   OH236733   1.969   0.772   7.000
12283TIP3    H136734   2.015   0.707   7.058
12283TIP3    H236735   2.025   0.772   6.920
12284TIP3   OH236736   2.334   0.283   7.019
12284TIP3    H136737   2.308   0.233   6.940
12284TIP3    H236738   2.288   0.368   7.001
12285TIP3   OH236739   2.538   1.250   7.895
12285TIP3    H136740   2.565   1.281   7.983
12285TIP3    H236741   2.601   1.294   7.837
12286TIP3   OH236742   2.571   1.269   8.175
12286TIP3    H136743   2.531   1.180   8.173
12286TIP3    H236744   2.645   1.252   8.235
12287TIP3   OH236745   2.432   0.464   7.373
12287TIP3    H136746   2.502   0.523   7.339
12287TIP3    H236747   2.479   0.420   7.448
12288TIP3   OH236748   2.559   0.334   7.581
12288TIP3    H136749   2.495   0.345   7.652
12288TIP3    H236750   2.642   0.368   7.623
12289TIP3   OH236751   2.602   0.712   7.998
12289TIP3    H136752   2.667   0.650   7.958
12289TIP3    H236753   2.613   0.791   7.941
12290TIP3   OH236754   2.447   1.018   8.196
12290TIP3    H136755   2.381   1.065   8.252
12290TIP3    H236756   2.391   0.974   8.129
12291TIP3   OH236757   2.502   0.238   7.221
12291TIP3    H136758   2.439   0.250   7.146
12291TIP3    H236759   2.471   0.310   7.279
12292TIP3   OH236760   2.646   0.601   8.566
12292TIP3    H136761   2.724   0.542   8.576
12292TIP3    H236762   2.687   0.683   8.534
12293TIP3   OH236763   2.841   0.406   8.597
12293TIP3    H136764   2.780   0.336   8.622
12293TIP3    H236765   2.927   0.369   8.617
12294TIP3   OH236766   2.123   1.112   7.548
12294TIP3    H136767   2.177   1.105   7.466
12294TIP3    H236768   2.170   1.182   7.597
12295TIP3   OH236769   2.025   1.371   8.456
12295TIP3    H136770   2.075   1.288   8.457
12295TIP3    H236771   2.067   1.417   8.532
12296TIP3   OH236772   1.783   1.230   8.146
12296TIP3    H136773   1.688   1.228   8.124
12296TIP3    H236774   1.785   1.313   8.199
12297TIP3   OH236775   2.030   1.150   8.204
12297TIP3    H136776   1.939   1.179   8.180
12297TIP3    H236777   2.081   1.229   8.178
12298TIP3   OH236778   2.220   1.348   8.128
12298TIP3    H136779   2.204   1.435   8.084
12298TIP3    H236780   2.248   1.292   8.052
12299TIP3   OH236781   1.560   0.951   7.220
12299TIP3    H136782   1.652   0.966   7.192
12299TIP3    H236783   1.539   0.874   7.167
12300TIP3   OH236784   2.269   1.081   7.317
12300TIP3    H136785   2.260   0.984   7.303
12300TIP3    H236786   2.226   1.115   7.236
12301TIP3   OH236787   2.499   1.228   8.497
12301TIP3    H136788   2.417   1.195   8.456
12301TIP3    H236789   2.476   1.323   8.507
12302TIP3   OH236790   3.802   0.615   7.238
12302TIP3    H136791   3.745   0.694   7.226
12302TIP3    H236792   3.736   0.545   7.226
12303TIP3   OH236793   3.761   0.595   7.649
12303TIP3    H136794   3.794   0.574   7.739
12303TIP3    H236795   3.719   0.510   7.627
12304TIP3   OH236796   3.057   0.497   8.015
12304TIP3    H136797   3.090   0.430   8.078
12304TIP3    H236798   3.136   0.552   8.007
12305TIP3   OH236799   4.013   0.869   7.348
12305TIP3    H136800   3.993   0.839   7.439
12305TIP3    H236801   4.043   0.960   7.369
12306TIP3   OH236802   3.031   0.901   7.740
12306TIP3    H136803   3.024   0.803   7.742
12306TIP3    H236804   3.127   0.912   7.741
12307TIP3   OH236805   2.730   0.094   7.534
12307TIP3    H136806   2.696   0.183   7.553
12307TIP3    H236807   2.658   0.057   7.482
12308TIP3   OH236808   2.803   0.390   7.690
12308TIP3    H136809   2.850   0.315   7.733
12308TIP3    H236810   2.873   0.427   7.635
12309TIP3   OH236811   3.654   1.361   7.348
12309TIP3    H136812   3.705   1.288   7.306
12309TIP3    H236813   3.647   1.331   7.439
12310TIP3   OH236814   3.561   0.823   7.701
12310TIP3    H136815   3.600   0.742   7.662
12310TIP3    H236816   3.645   0.869   7.724
12311TIP3   OH236817   2.946   0.188   7.804
12311TIP3    H136818   3.025   0.164   7.857
12311TIP3    H236819   2.965   0.132   7.725
12312TIP3   OH236820   3.389   0.386   7.605
12312TIP3    H136821   3.481   0.354   7.615
12312TIP3    H236822   3.343   0.304   7.574
12313TIP3   OH236823   2.713   9.730   6.023
12313TIP3    H136824   2.653   9.798   5.985
12313TIP3    H236825   2.780   9.789   6.063
12314TIP3   OH236826   3.671   0.840   7.129
12314TIP3    H136827   3.614   0.800   7.062
12314TIP3    H236828   3.615   0.918   7.154
12315TIP3   OH236829   3.415   0.744   7.929
12315TIP3    H136830   3.352   0.808   7.968
12315TIP3    H236831   3.456   0.796   7.857
12316TIP3   OH236832   3.183   0.094   7.898
12316TIP3    H136833   3.248   0.159   7.930
12316TIP3    H236834   3.232   0.049   7.828
12317TIP3   OH236835   3.241   0.937   8.024
12317TIP3    H136836   3.216   1.025   7.989
12317TIP3    H236837   3.164   0.920   8.082
12318TIP3   OH236838   2.633   0.628   7.263
12318TIP3    H136839   2.597   0.654   7.176
12318TIP3    H236840   2.667   0.713   7.298
12319TIP3   OH236841   4.069   1.136   7.484
12319TIP3    H136842   3.984   1.131   7.533
12319TIP3    H236843   4.067   1.229   7.455
12320TIP3   OH236844   3.785   1.186   7.175
12320TIP3    H136845   3.839   1.109   7.151
12320TIP3    H236846   3.841   1.257   7.135
12321TIP3   OH236847   3.919   0.946   7.079
12321TIP3    H136848   3.830   0.906   7.086
12321TIP3    H236849   3.957   0.925   7.165
12322TIP3   OH236850   4.283   1.056   7.845
12322TIP3    H136851   4.300   0.979   7.788
12322TIP3    H236852   4.306   1.131   7.788
12323TIP3   OH236853   3.599   0.456   7.099
12323TIP3    H136854   3.512   0.500   7.084
12323TIP3    H236855   3.630   0.442   7.008
12324TIP3   OH236856   3.546   0.234   6.822
12324TIP3    H136857   3.622   0.279   6.863
12324TIP3    H236858   3.592   0.164   6.773
12325TIP3   OH236859   4.497   0.684   7.683
12325TIP3    H136860   4.415   0.738   7.694
12325TIP3    H236861   4.529   0.717   7.597
12326TIP3   OH236862   4.179   0.583   7.978
12326TIP3    H136863   4.174   0.668   8.024
12326TIP3    H236864   4.104   0.587   7.916
12327TIP3   OH236865   3.178   0.532   7.490
12327TIP3    H136866   3.133   0.473   7.426
12327TIP3    H236867   3.251   0.474   7.521
12328TIP3   OH236868   3.305   0.944   7.638
12328TIP3    H136869   3.283   0.897   7.557
12328TIP3    H236870   3.394   0.909   7.658
12329TIP3   OH236871   3.309   0.500   7.846
12329TIP3    H136872   3.343   0.474   7.758
12329TIP3    H236873   3.355   0.584   7.864
12330TIP3   OH236874   3.837   1.137   7.622
12330TIP3    H136875   3.824   1.219   7.673
12330TIP3    H236876   3.821   1.067   7.688
12331TIP3   OH236877   3.447   1.059   8.167
12331TIP3    H136878   3.388   1.120   8.217
12331TIP3    H236879   3.381   1.005   8.120
12332TIP3   OH236880   3.783   0.385   6.896
12332TIP3    H136881   3.847   0.442   6.939
12332TIP3    H236882   3.803   0.404   6.801
12333TIP3   OH236883   3.195   0.627   8.264
12333TIP3    H136884   3.200   0.710   8.315
12333TIP3    H236885   3.103   0.600   8.282
12334TIP3   OH236886   3.526   1.068   7.175
12334TIP3    H136887   3.597   1.131   7.199
12334TIP3    H236888   3.460   1.125   7.134
12335TIP3   OH236889   3.241   1.226   8.257
12335TIP3    H136890   3.203   1.224   8.168
12335TIP3    H236891   3.163   1.204   8.313
12336TIP3   OH236892   3.037   0.382   7.298
12336TIP3    H136893   2.966   0.413   7.239
12336TIP3    H236894   3.019   0.288   7.306
12337TIP3   OH236895   4.097   1.002   6.502
12337TIP3    H136896   4.103   1.097   6.478
12337TIP3    H236897   4.189   0.971   6.485
12338TIP3   OH236898   2.823   0.756   8.205
12338TIP3    H136899   2.759   0.729   8.138
12338TIP3    H236900   2.862   0.670   8.233
12339TIP3   OH236901   2.675   0.946   7.841
12339TIP3    H136902   2.770   0.940   7.827
12339TIP3    H236903   2.669   1.027   7.894
12340TIP3   OH236904   4.537   1.398   7.890
12340TIP3    H136905   4.523   1.303   7.893
12340TIP3    H236906   4.457   1.428   7.939
12341TIP3   OH236907   3.643   1.189   8.025
12341TIP3    H136908   3.643   1.281   8.059
12341TIP3    H236909   3.573   1.148   8.080
12342TIP3   OH236910   3.407   1.316   6.977
12342TIP3    H136911   3.361   1.297   6.893
12342TIP3    H236912   3.373   1.405   7.000
12343TIP3   OH236913   2.844   1.165   7.363
12343TIP3    H136914   2.893   1.157   7.447
12343TIP3    H236915   2.788   1.086   7.367
12344TIP3   OH236916   3.609   1.218   6.620
12344TIP3    H136917   3.666   1.149   6.580
12344TIP3    H236918   3.644   1.223   6.712
12345TIP3   OH236919   3.658   1.264   6.893
12345TIP3    H136920   3.567   1.275   6.928
12345TIP3    H236921   3.703   1.225   6.969
12346TIP3   OH236922   4.424   0.522   8.189
12346TIP3    H136923   4.353   0.570   8.144
12346TIP3    H236924   4.467   0.478   8.115
12347TIP3   OH236925   3.026   0.940   8.191
12347TIP3    H136926   3.075   0.926   8.274
12347TIP3    H236927   2.953   0.876   8.200
12348TIP3   OH236928   4.131   0.380   8.178
12348TIP3    H136929   4.102   0.293   8.149
12348TIP3    H236930   4.126   0.433   8.098
12349TIP3   OH236931   3.864   0.443   6.647
12349TIP3    H136932   3.821   0.415   6.564
12349TIP3    H236933   3.945   0.484   6.612
12350TIP3   OH236934   3.360   0.277   7.997
12350TIP3    H136935   3.304   0.301   8.074
12350TIP3    H236936   3.346   0.357   7.941
12351TIP3   OH236937   3.226   0.192   7.501
12351TIP3    H136938   3.153   0.137   7.535
12351TIP3    H236939   3.249   0.144   7.419
12352TIP3   OH236940   3.733   0.254   7.226
12352TIP3    H136941   3.678   0.322   7.181
12352TIP3    H236942   3.779   0.212   7.150
12353TIP3   OH236943   3.914   0.573   8.277
12353TIP3    H136944   3.902   0.530   8.364
12353TIP3    H236945   4.011   0.577   8.273
12354TIP3   OH236946   3.869   0.296   7.459
12354TIP3    H136947   3.816   0.285   7.377
12354TIP3    H236948   3.924   0.217   7.458
12355TIP3   OH236949   3.178   0.319   8.197
12355TIP3    H136950   3.198   0.375   8.274
12355TIP3    H236951   3.138   0.240   8.237
12356TIP3   OH236952   3.882   0.525   7.887
12356TIP3    H136953   3.941   0.459   7.843
12356TIP3    H236954   3.869   0.481   7.973
12357TIP3   OH236955   2.998   0.040   7.576
12357TIP3    H136956   2.904   0.056   7.551
12357TIP3    H236957   3.010  -0.052   7.553
12358TIP3   OH236958   3.285   0.060   7.266
12358TIP3    H136959   3.372   0.035   7.232
12358TIP3    H236960   3.227   0.051   7.188
12359TIP3   OH236961   3.105   0.078   7.045
12359TIP3    H136962   3.047   0.027   6.986
12359TIP3    H236963   3.166   0.116   6.979
12360TIP3   OH236964   4.227   1.758   7.991
12360TIP3    H136965   4.229   1.778   7.895
12360TIP3    H236966   4.308   1.802   8.022
12361TIP3   OH236967   3.188   0.863   8.414
12361TIP3    H136968   3.268   0.893   8.461
12361TIP3    H236969   3.124   0.865   8.488
12362TIP3   OH236970   3.664   0.326   7.662
12362TIP3    H136971   3.743   0.300   7.609
12362TIP3    H236972   3.667   0.262   7.735
12363TIP3   OH236973   3.620   0.184   8.008
12363TIP3    H136974   3.540   0.235   7.984
12363TIP3    H236975   3.681   0.255   8.038
12364TIP3   OH236976   3.363   0.603   7.052
12364TIP3    H136977   3.291   0.537   7.040
12364TIP3    H236978   3.344   0.636   7.143
12365TIP3   OH236979   4.269   0.834   7.677
12365TIP3    H136980   4.294   0.887   7.598
12365TIP3    H236981   4.181   0.801   7.654
12366TIP3   OH236982   3.762   0.923   8.047
12366TIP3    H136983   3.787   0.898   8.136
12366TIP3    H236984   3.723   1.011   8.058
12367TIP3   OH236985   3.878   0.142   7.019
12367TIP3    H136986   3.976   0.147   7.027
12367TIP3    H236987   3.861   0.206   6.948
12368TIP3   OH236988   3.054   0.621   7.725
12368TIP3    H136989   3.097   0.594   7.641
12368TIP3    H236990   3.099   0.562   7.788
12369TIP3   OH236991   3.513   0.753   6.879
12369TIP3    H136992   3.465   0.839   6.882
12369TIP3    H236993   3.455   0.697   6.935
12370TIP3   OH236994   2.942   0.545   8.342
12370TIP3    H136995   2.949   0.526   8.438
12370TIP3    H236996   2.866   0.490   8.315
12371TIP3   OH236997   3.659   0.663   8.356
12371TIP3    H136998   3.595   0.603   8.316
12371TIP3    H236999   3.742   0.638   8.311
12372TIP3   OH237000   3.920   1.185   7.942
12372TIP3    H137001   3.824   1.183   7.960
12372TIP3    H237002   3.952   1.234   8.021
12373TIP3   OH237003   4.334   0.257   6.853
12373TIP3    H137004   4.277   0.205   6.793
12373TIP3    H237005   4.333   0.342   6.803
12374TIP3   OH237006   4.041   1.078   6.766
12374TIP3    H137007   4.014   1.007   6.826
12374TIP3    H237008   4.048   1.033   6.680
12375TIP3   OH237009   4.019   0.703   7.574
12375TIP3    H137010   3.933   0.674   7.611
12375TIP3    H237011   4.065   0.617   7.565
12376TIP3   OH237012   3.157   0.928   7.349
12376TIP3    H137013   3.155   1.010   7.297
12376TIP3    H237014   3.063   0.912   7.364
12377TIP3   OH237015   2.720   0.229   7.055
12377TIP3    H137016   2.768   0.312   7.074
12377TIP3    H237017   2.646   0.236   7.119
12378TIP3   OH237018   3.300   0.696   7.297
12378TIP3    H137019   3.260   0.783   7.316
12378TIP3    H237020   3.265   0.642   7.370
12379TIP3   OH237021   3.427   1.272   7.821
12379TIP3    H137022   3.470   1.345   7.772
12379TIP3    H237023   3.502   1.237   7.872
12380TIP3   OH237024   3.077   1.168   7.204
12380TIP3    H137025   2.991   1.177   7.251
12380TIP3    H237026   3.109   1.261   7.208
12381TIP3   OH237027   3.815   0.904   7.780
12381TIP3    H137028   3.801   0.907   7.878
12381TIP3    H237029   3.899   0.858   7.775
12382TIP3   OH237030   3.784   0.796   6.660
12382TIP3    H137031   3.815   0.770   6.747
12382TIP3    H237032   3.689   0.773   6.667
12383TIP3   OH237033   4.059   1.443   7.837
12383TIP3    H137034   3.985   1.381   7.828
12383TIP3    H237035   4.045   1.503   7.761
12384TIP3   OH237036   4.128   1.282   6.472
12384TIP3    H137037   4.122   1.331   6.387
12384TIP3    H237038   4.053   1.326   6.518
12385TIP3   OH237039   2.864   1.133   7.981
12385TIP3    H137040   2.919   1.061   8.015
12385TIP3    H237041   2.888   1.204   8.042
12386TIP3   OH237042   3.159   0.778   6.663
12386TIP3    H137043   3.168   0.685   6.634
12386TIP3    H237044   3.136   0.766   6.757
12387TIP3   OH237045   3.100   0.785   6.935
12387TIP3    H137046   3.170   0.757   6.995
12387TIP3    H237047   3.105   0.883   6.942
12388TIP3   OH237048   2.832   0.476   7.135
12388TIP3    H137049   2.768   0.522   7.194
12388TIP3    H237050   2.849   0.546   7.070
12389TIP3   OH237051   3.369   0.982   6.886
12389TIP3    H137052   3.281   1.009   6.920
12389TIP3    H237053   3.381   1.048   6.816
12390TIP3   OH237054   3.578   0.039   7.297
12390TIP3    H137055   3.620   0.126   7.279
12390TIP3    H237056   3.540   0.053   7.384
12391TIP3   OH237057   3.817   0.355   8.127
12391TIP3    H137058   3.846   0.425   8.188
12391TIP3    H237059   3.894   0.296   8.123
12392TIP3   OH237060   3.112   1.058   6.951
12392TIP3    H137061   3.082   1.127   6.888
12392TIP3    H237062   3.095   1.101   7.037
12393TIP3   OH237063   4.107   0.470   7.455
12393TIP3    H137064   4.037   0.412   7.492
12393TIP3    H237065   4.185   0.424   7.493
12394TIP3   OH237066   2.827   0.689   6.943
12394TIP3    H137067   2.895   0.759   6.951
12394TIP3    H237068   2.873   0.632   6.877
12395TIP3   OH237069   2.749  -0.060   7.068
12395TIP3    H137070   2.801   0.022   7.067
12395TIP3    H237071   2.663  -0.025   7.094
12396TIP3   OH237072   4.083   1.412   7.422
12396TIP3    H137073   4.041   1.460   7.348
12396TIP3    H237074   4.178   1.433   7.404
12397TIP3   OH237075   2.699   0.900   7.331
12397TIP3    H137076   2.628   0.934   7.387
12397TIP3    H237077   2.676   0.941   7.245
12398TIP3   OH237078   2.857   1.444   8.401
12398TIP3    H137079   2.942   1.446   8.450
12398TIP3    H237080   2.837   1.350   8.403
12399TIP3   OH237081   3.339   1.413   8.442
12399TIP3    H137082   3.432   1.388   8.454
12399TIP3    H237083   3.312   1.350   8.372
12400TIP3   OH237084   3.320   0.984   6.578
12400TIP3    H137085   3.265   0.910   6.612
12400TIP3    H237086   3.393   0.934   6.536
12401TIP3   OH237087   3.976   1.314   8.180
12401TIP3    H137088   3.968   1.245   8.250
12401TIP3    H237089   4.058   1.359   8.206
12402TIP3   OH237090   3.753   1.027   6.484
12402TIP3    H137091   3.808   0.964   6.533
12402TIP3    H237092   3.801   1.036   6.399
12403TIP3   OH237093   2.989   0.836   8.603
12403TIP3    H137094   3.002   0.740   8.597
12403TIP3    H237095   2.901   0.848   8.562
12404TIP3   OH237096   2.963   0.501   6.797
12404TIP3    H137097   3.017   0.465   6.869
12404TIP3    H237098   3.031   0.505   6.726
12405TIP3   OH237099   3.596   0.937   8.376
12405TIP3    H137100   3.553   0.950   8.290
12405TIP3    H237101   3.625   0.843   8.372
12406TIP3   OH237102   3.483   0.702   6.608
12406TIP3    H137103   3.474   0.712   6.705
12406TIP3    H237104   3.481   0.604   6.601
12407TIP3   OH237105   4.084   0.937   7.984
12407TIP3    H137106   4.158   0.984   7.939
12407TIP3    H237107   4.015   1.005   7.976
12408TIP3   OH237108   3.104   0.568   8.596
12408TIP3    H137109   3.186   0.528   8.564
12408TIP3    H237110   3.129   0.593   8.686
12409TIP3   OH237111   3.173   0.406   7.020
12409TIP3    H137112   3.148   0.362   7.103
12409TIP3    H237113   3.207   0.331   6.967
12410TIP3   OH237114   3.440   0.508   8.229
12410TIP3    H137115   3.357   0.561   8.226
12410TIP3    H237116   3.489   0.538   8.149
12411TIP3   OH237117   3.269   0.201   6.860
12411TIP3    H137118   3.245   0.200   6.766
12411TIP3    H237119   3.367   0.204   6.854
12412TIP3   OH237120   3.958   0.875   8.385
12412TIP3    H137121   4.036   0.850   8.335
12412TIP3    H237122   3.954   0.807   8.454
12413TIP3   OH237123   4.095   0.527   6.521
12413TIP3    H137124   4.076   0.483   6.436
12413TIP3    H237125   4.064   0.618   6.499
12414TIP3   OH237126   3.489   0.295   8.376
12414TIP3    H137127   3.547   0.241   8.318
12414TIP3    H237128   3.469   0.371   8.320
12415TIP3   OH237129   3.611   0.584   8.031
12415TIP3    H137130   3.692   0.592   7.979
12415TIP3    H237131   3.553   0.652   7.992
12416TIP3   OH237132   4.188   0.555   8.442
12416TIP3    H137133   4.206   0.467   8.407
12416TIP3    H237134   4.251   0.609   8.392
12417TIP3   OH237135   4.243   0.801   8.160
12417TIP3    H137136   4.182   0.855   8.105
12417TIP3    H237137   4.328   0.847   8.144
12418TIP3   OH237138   3.398   0.397   8.612
12418TIP3    H137139   3.334   0.325   8.626
12418TIP3    H237140   3.444   0.364   8.533
12419TIP3   OH237141   3.874   0.417   8.490
12419TIP3    H137142   3.841   0.399   8.581
12419TIP3    H237143   3.909   0.331   8.465
12420TIP3   OH237144   3.080   1.260   6.764
12420TIP3    H137145   3.175   1.255   6.744
12420TIP3    H237146   3.050   1.308   6.685
12421TIP3   OH237147   2.560   0.642   6.982
12421TIP3    H137148   2.654   0.665   6.966
12421TIP3    H237149   2.555   0.553   6.940
12422TIP3   OH237150   2.474   1.254   7.394
12422TIP3    H137151   2.407   1.192   7.357
12422TIP3    H237152   2.518   1.196   7.460
12423TIP3   OH237153   2.609   1.105   7.581
12423TIP3    H137154   2.602   1.032   7.645
12423TIP3    H237155   2.661   1.169   7.634
12424TIP3   OH237156   4.334   1.511   7.380
12424TIP3    H137157   4.360   1.534   7.471
12424TIP3    H237158   4.404   1.552   7.327
12425TIP3   OH237159   4.368   1.528   7.658
12425TIP3    H137160   4.321   1.442   7.656
12425TIP3    H237161   4.439   1.505   7.720
12426TIP3   OH237162   4.357   1.258   8.201
12426TIP3    H137163   4.336   1.202   8.276
12426TIP3    H237164   4.439   1.302   8.229
12427TIP3   OH237165   4.254   0.703   6.877
12427TIP3    H137166   4.294   0.779   6.830
12427TIP3    H237167   4.320   0.689   6.945
12428TIP3   OH237168   4.399   0.970   7.479
12428TIP3    H137169   4.466   0.910   7.441
12428TIP3    H237170   4.405   1.048   7.421
12429TIP3   OH237171   4.245   1.283   7.678
12429TIP3    H137172   4.178   1.307   7.744
12429TIP3    H237173   4.195   1.225   7.618
12430TIP3   OH237174   4.293   0.491   6.705
12430TIP3    H137175   4.223   0.497   6.636
12430TIP3    H237176   4.266   0.566   6.762
12431TIP3   OH237177   4.177   0.160   6.651
12431TIP3    H137178   4.128   0.221   6.594
12431TIP3    H237179   4.134   0.076   6.631
12432TIP3   OH237180   2.794   0.524   7.941
12432TIP3    H137181   2.799   0.489   7.850
12432TIP3    H237182   2.890   0.521   7.965
12433TIP3   OH237183   4.658   0.607   8.049
12433TIP3    H137184   4.596   0.651   8.108
12433TIP3    H237185   4.728   0.581   8.109
12434TIP3   OH237186   4.149   0.158   7.045
12434TIP3    H137187   4.193   0.126   7.127
12434TIP3    H237188   4.226   0.191   6.995
12435TIP3   OH237189   4.342   0.330   7.576
12435TIP3    H137190   4.434   0.366   7.570
12435TIP3    H237191   4.314   0.360   7.664
12436TIP3   OH237192   4.405   0.476   7.842
12436TIP3    H137193   4.318   0.508   7.871
12436TIP3    H237194   4.439   0.551   7.789
12437TIP3   OH237195   2.792   0.159   8.033
12437TIP3    H137196   2.840   0.166   7.949
12437TIP3    H237197   2.803   0.245   8.072
12438TIP3   OH237198   3.928   1.368   7.038
12438TIP3    H137199   3.979   1.364   6.955
12438TIP3    H237200   3.971   1.440   7.086
12439TIP3   OH237201   3.023   1.175   8.426
12439TIP3    H137202   2.930   1.150   8.412
12439TIP3    H237203   3.034   1.159   8.521
12440TIP3   OH237204   3.199   1.207   7.968
12440TIP3    H137205   3.152   1.285   7.931
12440TIP3    H237206   3.286   1.221   7.926
12441TIP3   OH237207   3.646   1.454   8.108
12441TIP3    H137208   3.687   1.454   8.197
12441TIP3    H237209   3.713   1.505   8.057
12442TIP3   OH237210   3.826   1.605   7.965
12442TIP3    H137211   3.899   1.552   7.928
12442TIP3    H237212   3.875   1.662   8.027
12443TIP3   OH237213   2.876   1.466   7.992
12443TIP3    H137214   2.786   1.500   7.972
12443TIP3    H237215   2.889   1.502   8.081
12444TIP3   OH237216   3.113   1.445   7.852
12444TIP3    H137217   3.026   1.457   7.897
12444TIP3    H237218   3.093   1.478   7.762
12445TIP3   OH237219   3.539   1.475   7.647
12445TIP3    H137220   3.467   1.496   7.585
12445TIP3    H237221   3.551   1.561   7.692
12446TIP3   OH237222   3.807   1.410   7.695
12446TIP3    H137223   3.712   1.430   7.679
12446TIP3    H237224   3.850   1.490   7.662
12447TIP3   OH237225   4.015   1.604   7.616
12447TIP3    H137226   4.001   1.688   7.568
12447TIP3    H237227   4.041   1.543   7.544
12448TIP3   OH237228   2.787   1.258   7.738
12448TIP3    H137229   2.814   1.235   7.830
12448TIP3    H237230   2.860   1.215   7.688
12449TIP3   OH237231   2.982   1.131   7.595
12449TIP3    H137232   2.997   1.047   7.644
12449TIP3    H237233   3.073   1.167   7.592
12450TIP3   OH237234   3.248   1.225   7.599
12450TIP3    H137235   3.279   1.133   7.589
12450TIP3    H237236   3.293   1.248   7.683
12451TIP3   OH237237   2.575   1.033   7.131
12451TIP3    H137238   2.490   1.000   7.096
12451TIP3    H237239   2.565   1.127   7.112
12452TIP3   OH237240   3.348   1.222   6.711
12452TIP3    H137241   3.435   1.247   6.672
12452TIP3    H237242   3.327   1.147   6.651
12453TIP3   OH237243   4.079   1.345   6.802
12453TIP3    H137244   4.064   1.248   6.794
12453TIP3    H237245   4.021   1.377   6.729
12454TIP3   OH237246   2.651   1.056   6.768
12454TIP3    H137247   2.655   1.082   6.861
12454TIP3    H237248   2.739   1.014   6.754
12455TIP3   OH237249   4.296   1.493   7.984
12455TIP3    H137250   4.216   1.453   7.947
12455TIP3    H237251   4.268   1.586   7.994
12456TIP3   OH237252   5.561   0.854   6.757
12456TIP3    H137253   5.534   0.947   6.740
12456TIP3    H237254   5.481   0.807   6.727
12457TIP3   OH237255   5.552   0.855   7.139
12457TIP3    H137256   5.584   0.835   7.229
12457TIP3    H237257   5.513   0.770   7.114
12458TIP3   OH237258   4.855   0.752   7.500
12458TIP3    H137259   4.887   0.685   7.563
12458TIP3    H237260   4.928   0.815   7.502
12459TIP3   OH237261   5.802   1.156   6.822
12459TIP3    H137262   5.788   1.087   6.888
12459TIP3    H237263   5.829   1.232   6.876
12460TIP3   OH237264   4.825   1.160   7.223
12460TIP3    H137265   4.819   1.062   7.229
12460TIP3    H237266   4.922   1.171   7.223
12461TIP3   OH237267   4.536   0.349   7.024
12461TIP3    H137268   4.504   0.433   7.059
12461TIP3    H237269   4.462   0.318   6.968
12462TIP3   OH237270   4.598   0.641   7.171
12462TIP3    H137271   4.645   0.569   7.218
12462TIP3    H237272   4.670   0.683   7.122
12463TIP3   OH237273   5.444   1.619   6.834
12463TIP3    H137274   5.495   1.548   6.789
12463TIP3    H237275   5.439   1.587   6.924
12464TIP3   OH237276   5.358   1.080   7.188
12464TIP3    H137277   5.397   1.002   7.145
12464TIP3    H237278   5.441   1.126   7.212
12465TIP3   OH237279   5.771   0.601   7.218
12465TIP3    H137280   5.810   0.526   7.265
12465TIP3    H237281   5.747   0.563   7.131
12466TIP3   OH237282   4.740   0.441   7.291
12466TIP3    H137283   4.820   0.419   7.343
12466TIP3    H237284   4.760   0.386   7.212
12467TIP3   OH237285   5.183   0.643   7.087
12467TIP3    H137286   5.275   0.612   7.100
12467TIP3    H237287   5.139   0.560   7.058
12468TIP3   OH237288   6.433   0.603   7.367
12468TIP3    H137289   6.353   0.657   7.352
12468TIP3    H237290   6.445   0.608   7.463
12469TIP3   OH237291   5.454   1.079   6.626
12469TIP3    H137292   5.407   1.057   6.545
12469TIP3    H237293   5.410   1.162   6.652
12470TIP3   OH237294   5.212   0.999   7.415
12470TIP3    H137295   5.149   1.064   7.454
12470TIP3    H237296   5.253   1.051   7.344
12471TIP3   OH237297   4.977   0.348   7.385
12471TIP3    H137298   5.037   0.415   7.423
12471TIP3    H237299   5.029   0.312   7.312
12472TIP3   OH237300   5.037   1.194   7.513
12472TIP3    H137301   5.012   1.281   7.476
12472TIP3    H237302   4.959   1.178   7.570
12473TIP3   OH237303   4.425   0.884   6.749
12473TIP3    H137304   4.393   0.909   6.661
12473TIP3    H237305   4.462   0.968   6.783
12474TIP3   OH237306   5.874   1.400   6.988
12474TIP3    H137307   5.785   1.390   7.029
12474TIP3    H237308   5.864   1.486   6.943
12475TIP3   OH237309   5.576   1.443   6.664
12475TIP3    H137310   5.628   1.363   6.641
12475TIP3    H237311   5.635   1.511   6.623
12476TIP3   OH237312   5.721   1.228   6.568
12476TIP3    H137313   5.672   1.151   6.537
12476TIP3    H237314   5.756   1.196   6.653
12477TIP3   OH237315   6.100   1.314   7.331
12477TIP3    H137316   6.086   1.235   7.275
12477TIP3    H237317   6.082   1.387   7.268
12478TIP3   OH237318   5.388   0.706   6.588
12478TIP3    H137319   5.308   0.757   6.567
12478TIP3    H237320   5.433   0.702   6.502
12479TIP3   OH237321   5.343   0.497   6.309
12479TIP3    H137322   5.419   0.541   6.351
12479TIP3    H237323   5.389   0.427   6.259
12480TIP3   OH237324   6.297   0.959   7.179
12480TIP3    H137325   6.211   1.006   7.185
12480TIP3    H237326   6.321   0.977   7.086
12481TIP3   OH237327   5.739   0.789   6.560
12481TIP3    H137328   5.684   0.813   6.638
12481TIP3    H237329   5.822   0.762   6.605
12482TIP3   OH237330   4.972   0.788   6.979
12482TIP3    H137331   4.929   0.729   6.913
12482TIP3    H237332   5.047   0.732   7.009
12483TIP3   OH237333   5.102   1.196   7.127
12483TIP3    H137334   5.082   1.151   7.043
12483TIP3    H237335   5.192   1.163   7.146
12484TIP3   OH237336   5.109   0.755   7.332
12484TIP3    H137337   5.142   0.733   7.243
12484TIP3    H237338   5.153   0.840   7.352
12485TIP3   OH237339   5.634   1.396   7.110
12485TIP3    H137340   5.615   1.476   7.162
12485TIP3    H237341   5.617   1.323   7.173
12486TIP3   OH237342   5.243   1.316   7.655
12486TIP3    H137343   5.182   1.378   7.702
12486TIP3    H237344   5.179   1.262   7.606
12487TIP3   OH237345   5.583   0.637   6.390
12487TIP3    H137346   5.641   0.697   6.442
12487TIP3    H237347   5.608   0.663   6.298
12488TIP3   OH237348   4.987   0.883   7.747
12488TIP3    H137349   4.990   0.964   7.801
12488TIP3    H237350   4.896   0.853   7.766
12489TIP3   OH237351   5.320   1.329   6.661
12489TIP3    H137352   5.401   1.379   6.681
12489TIP3    H237353   5.262   1.397   6.626
12490TIP3   OH237354   5.037   1.484   7.743
12490TIP3    H137355   5.003   1.482   7.652
12490TIP3    H237356   4.957   1.462   7.796
12491TIP3   OH237357   4.834   0.636   6.784
12491TIP3    H137358   4.764   0.668   6.724
12491TIP3    H237359   4.814   0.543   6.793
12492TIP3   OH237360   5.892   1.255   5.982
12492TIP3    H137361   5.900   1.352   5.969
12492TIP3    H237362   5.985   1.226   5.970
12493TIP3   OH237363   4.628   1.014   7.677
12493TIP3    H137364   4.553   0.980   7.627
12493TIP3    H237365   4.658   0.936   7.727
12494TIP3   OH237366   4.472   1.207   7.319
12494TIP3    H137367   4.568   1.196   7.313
12494TIP3    H237368   4.464   1.282   7.379
12495TIP3   OH237369   6.334   1.658   7.377
12495TIP3    H137370   6.334   1.561   7.390
12495TIP3    H237371   6.251   1.682   7.423
12496TIP3   OH237372   5.442   1.444   7.514
12496TIP3    H137373   5.440   1.537   7.546
12496TIP3    H237374   5.370   1.404   7.566
12497TIP3   OH237375   5.197   1.571   6.465
12497TIP3    H137376   5.156   1.558   6.378
12497TIP3    H237377   5.170   1.661   6.488
12498TIP3   OH237378   4.620   1.445   6.847
12498TIP3    H137379   4.678   1.437   6.926
12498TIP3    H237380   4.578   1.357   6.851
12499TIP3   OH237381   5.402   1.473   6.105
12499TIP3    H137382   5.462   1.404   6.070
12499TIP3    H237383   5.436   1.484   6.197
12500TIP3   OH237384   5.452   1.522   6.376
12500TIP3    H137385   5.365   1.530   6.420
12500TIP3    H237386   5.507   1.489   6.448
12501TIP3   OH237387   6.222   0.788   7.647
12501TIP3    H137388   6.128   0.805   7.667
12501TIP3    H237389   6.220   0.692   7.640
12502TIP3   OH237390   4.822   1.202   7.680
12502TIP3    H137391   4.867   1.182   7.765
12502TIP3    H237392   4.749   1.136   7.682
12503TIP3   OH237393   5.657   0.686   6.131
12503TIP3    H137394   5.620   0.667   6.043
12503TIP3    H237395   5.731   0.745   6.109
12504TIP3   OH237396   5.155   0.531   7.484
12504TIP3    H137397   5.105   0.558   7.563
12504TIP3    H237398   5.142   0.612   7.428
12505TIP3   OH237399   5.023   0.443   6.989
12505TIP3    H137400   4.946   0.392   7.020
12505TIP3    H237401   5.045   0.396   6.906
12506TIP3   OH237402   5.531   0.509   6.717
12506TIP3    H137403   5.478   0.582   6.679
12506TIP3    H237404   5.579   0.476   6.638
12507TIP3   OH237405   5.682   0.530   6.964
12507TIP3    H137406   5.626   0.566   6.892
12507TIP3    H237407   5.725   0.457   6.917
12508TIP3   OH237408   4.967   0.576   7.685
12508TIP3    H137409   4.993   0.635   7.758
12508TIP3    H237410   4.936   0.497   7.731
12509TIP3   OH237411   5.656   0.783   7.383
12509TIP3    H137412   5.703   0.717   7.327
12509TIP3    H237413   5.712   0.783   7.462
12510TIP3   OH237414   4.796   0.293   7.062
12510TIP3    H137415   4.702   0.313   7.041
12510TIP3    H237416   4.799   0.199   7.045
12511TIP3   OH237417   5.080   0.312   6.753
12511TIP3    H137418   5.167   0.293   6.714
12511TIP3    H237419   5.021   0.307   6.676
12512TIP3   OH237420   4.903   0.333   6.534
12512TIP3    H137421   4.844   0.284   6.474
12512TIP3    H237422   4.963   0.372   6.467
12513TIP3   OH237423   6.023   2.008   7.475
12513TIP3    H137424   6.018   2.028   7.380
12513TIP3    H237425   6.105   2.057   7.500
12514TIP3   OH237426   4.970   1.116   7.909
12514TIP3    H137427   5.050   1.149   7.955
12514TIP3    H237428   4.929   1.063   7.979
12515TIP3   OH237429   5.450   0.579   7.150
12515TIP3    H137430   5.521   0.537   7.100
12515TIP3    H237431   5.457   0.537   7.237
12516TIP3   OH237432   5.421   0.444   7.475
12516TIP3    H137433   5.338   0.495   7.470
12516TIP3    H237434   5.482   0.507   7.519
12517TIP3   OH237435   5.159   0.859   6.536
12517TIP3    H137436   5.087   0.793   6.527
12517TIP3    H237437   5.142   0.893   6.628
12518TIP3   OH237438   6.061   1.096   7.168
12518TIP3    H137439   6.083   1.146   7.086
12518TIP3    H237440   5.975   1.054   7.145
12519TIP3   OH237441   5.558   1.179   7.535
12519TIP3    H137442   5.586   1.157   7.624
12519TIP3    H237443   5.519   1.268   7.545
12520TIP3   OH237444   5.678   0.392   6.496
12520TIP3    H137445   5.775   0.403   6.506
12520TIP3    H237446   5.655   0.471   6.443
12521TIP3   OH237447   4.849   0.877   7.213
12521TIP3    H137448   4.893   0.850   7.130
12521TIP3    H237449   4.893   0.820   7.278
12522TIP3   OH237450   5.305   1.008   6.358
12522TIP3    H137451   5.257   1.094   6.364
12522TIP3    H237452   5.252   0.952   6.419
12523TIP3   OH237453   4.730   0.805   7.828
12523TIP3    H137454   4.757   0.800   7.921
12523TIP3    H237455   4.660   0.738   7.825
12524TIP3   OH237456   5.457   0.916   7.850
12524TIP3    H137457   5.394   0.862   7.800
12524TIP3    H237458   5.540   0.869   7.831
12525TIP3   OH237459   5.720   1.444   7.430
12525TIP3    H137460   5.624   1.437   7.443
12525TIP3    H237461   5.746   1.492   7.511
12526TIP3   OH237462   6.133   0.507   6.338
12526TIP3    H137463   6.075   0.458   6.276
12526TIP3    H237464   6.128   0.596   6.297
12527TIP3   OH237465   6.350   1.369   7.420
12527TIP3    H137466   6.252   1.362   7.414
12527TIP3    H237467   6.375   1.338   7.330
12528TIP3   OH237468   5.830   1.329   6.248
12528TIP3    H137469   5.804   1.262   6.312
12528TIP3    H237470   5.842   1.278   6.166
12529TIP3   OH237471   5.825   0.960   7.082
12529TIP3    H137472   5.733   0.933   7.098
12529TIP3    H237473   5.861   0.879   7.040
12530TIP3   OH237474   4.955   1.183   6.837
12530TIP3    H137475   4.958   1.264   6.785
12530TIP3    H237476   4.860   1.171   6.852
12531TIP3   OH237477   4.518   0.485   6.544
12531TIP3    H137478   4.567   0.568   6.561
12531TIP3    H237479   4.442   0.495   6.604
12532TIP3   OH237480   5.093   0.949   6.782
12532TIP3    H137481   5.057   1.037   6.802
12532TIP3    H237482   5.059   0.897   6.857
12533TIP3   OH237483   5.221   1.533   7.305
12533TIP3    H137484   5.259   1.607   7.253
12533TIP3    H237485   5.300   1.500   7.351
12534TIP3   OH237486   4.868   1.428   6.693
12534TIP3    H137487   4.784   1.440   6.740
12534TIP3    H237488   4.907   1.517   6.700
12535TIP3   OH237489   5.612   1.163   7.268
12535TIP3    H137490   5.600   1.160   7.365
12535TIP3    H237491   5.693   1.112   7.257
12536TIP3   OH237492   5.585   1.054   6.149
12536TIP3    H137493   5.639   1.030   6.228
12536TIP3    H237494   5.497   1.030   6.181
12537TIP3   OH237495   5.858   1.697   7.320
12537TIP3    H137496   5.781   1.637   7.315
12537TIP3    H237497   5.841   1.758   7.245
12538TIP3   OH237498   5.925   1.531   5.969
12538TIP3    H137499   5.964   1.605   5.919
12538TIP3    H237500   5.845   1.575   6.003
12539TIP3   OH237501   5.746   0.985   6.362
12539TIP3    H137502   5.735   0.922   6.436
12539TIP3    H237503   5.844   0.985   6.354
12540TIP3   OH237504   4.660   1.390   7.468
12540TIP3    H137505   4.712   1.315   7.502
12540TIP3    H237506   4.688   1.459   7.528
12541TIP3   OH237507   4.950   1.037   6.151
12541TIP3    H137508   4.966   0.946   6.121
12541TIP3    H237509   4.932   1.024   6.246
12542TIP3   OH237510   4.894   1.042   6.425
12542TIP3    H137511   4.970   1.013   6.478
12542TIP3    H237512   4.902   1.139   6.430
12543TIP3   OH237513   4.627   0.732   6.622
12543TIP3    H137514   4.565   0.780   6.680
12543TIP3    H237515   4.649   0.801   6.557
12544TIP3   OH237516   5.160   1.236   6.368
12544TIP3    H137517   5.076   1.266   6.406
12544TIP3    H237518   5.182   1.312   6.312
12545TIP3   OH237519   5.376   0.294   6.791
12545TIP3    H137520   5.418   0.379   6.767
12545TIP3    H237521   5.330   0.318   6.873
12546TIP3   OH237522   5.610   0.596   7.629
12546TIP3    H137523   5.646   0.670   7.679
12546TIP3    H237524   5.692   0.556   7.596
12547TIP3   OH237525   4.904   1.315   6.438
12547TIP3    H137526   4.877   1.385   6.375
12547TIP3    H237527   4.890   1.359   6.525
12548TIP3   OH237528   5.911   0.720   6.958
12548TIP3    H137529   5.839   0.661   6.985
12548TIP3    H237530   5.988   0.679   7.005
12549TIP3   OH237531   4.625   0.947   6.429
12549TIP3    H137532   4.697   1.012   6.439
12549TIP3    H237533   4.668   0.889   6.363
12550TIP3   OH237534   4.540   0.192   6.551
12550TIP3    H137535   4.590   0.275   6.552
12550TIP3    H237536   4.456   0.221   6.587
12551TIP3   OH237537   5.881   1.671   6.911
12551TIP3    H137538   5.837   1.719   6.837
12551TIP3    H237539   5.974   1.692   6.889
12552TIP3   OH237540   4.497   1.161   6.815
12552TIP3    H137541   4.424   1.188   6.871
12552TIP3    H237542   4.473   1.201   6.729
12553TIP3   OH237543   4.651   1.700   7.889
12553TIP3    H137544   4.738   1.698   7.935
12553TIP3    H237545   4.629   1.605   7.888
12554TIP3   OH237546   5.134   1.664   7.934
12554TIP3    H137547   5.228   1.643   7.940
12554TIP3    H237548   5.107   1.606   7.861
12555TIP3   OH237549   5.114   1.240   6.061
12555TIP3    H137550   5.059   1.169   6.101
12555TIP3    H237551   5.190   1.188   6.030
12556TIP3   OH237552   5.770   1.572   7.670
12556TIP3    H137553   5.763   1.500   7.737
12556TIP3    H237554   5.850   1.620   7.700
12557TIP3   OH237555   5.551   1.281   5.973
12557TIP3    H137556   5.596   1.218   6.033
12557TIP3    H237557   5.608   1.280   5.895
12558TIP3   OH237558   4.759   0.757   6.285
12558TIP3    H137559   4.815   0.722   6.357
12558TIP3    H237560   4.825   0.762   6.213
12559TIP3   OH237561   5.388   1.193   7.865
12559TIP3    H137562   5.349   1.209   7.776
12559TIP3    H237563   5.422   1.101   7.857
12560TIP3   OH237564   5.267   0.958   6.090
12560TIP3    H137565   5.272   0.970   6.187
12560TIP3    H237566   5.269   0.860   6.085
12561TIP3   OH237567   5.877   1.199   7.461
12561TIP3    H137568   5.956   1.243   7.425
12561TIP3    H237569   5.810   1.268   7.449
12562TIP3   OH237570   4.916   0.831   8.055
12562TIP3    H137571   4.992   0.774   8.071
12562TIP3    H237572   4.904   0.871   8.143
12563TIP3   OH237573   4.965   0.662   6.505
12563TIP3    H137574   4.945   0.619   6.590
12563TIP3    H237575   5.003   0.587   6.453
12564TIP3   OH237576   5.231   0.757   7.708
12564TIP3    H137577   5.150   0.813   7.708
12564TIP3    H237578   5.289   0.798   7.645
12565TIP3   OH237579   5.066   0.457   6.348
12565TIP3    H137580   5.042   0.457   6.253
12565TIP3    H237581   5.164   0.460   6.341
12566TIP3   OH237582   5.758   1.126   7.862
12566TIP3    H137583   5.832   1.095   7.807
12566TIP3    H237584   5.758   1.061   7.935
12567TIP3   OH237585   5.892   0.785   6.007
12567TIP3    H137586   5.868   0.741   5.923
12567TIP3    H237587   5.860   0.876   5.988
12568TIP3   OH237588   5.262   0.535   7.855
12568TIP3    H137589   5.359   0.515   7.853
12568TIP3    H237590   5.256   0.614   7.793
12569TIP3   OH237591   5.413   0.847   7.532
12569TIP3    H137592   5.490   0.832   7.474
12569TIP3    H237593   5.356   0.906   7.479
12570TIP3   OH237594   6.012   1.084   7.673
12570TIP3    H137595   5.950   1.107   7.600
12570TIP3    H237596   6.096   1.084   7.624
12571TIP3   OH237597   5.208   0.647   8.103
12571TIP3    H137598   5.136   0.582   8.102
12571TIP3    H237599   5.250   0.624   8.018
12572TIP3   OH237600   5.643   0.692   7.933
12572TIP3    H137601   5.675   0.675   8.022
12572TIP3    H237602   5.718   0.661   7.879
12573TIP3   OH237603   4.875   1.519   6.252
12573TIP3    H137604   4.970   1.512   6.233
12573TIP3    H237605   4.847   1.566   6.171
12574TIP3   OH237606   4.358   0.899   6.470
12574TIP3    H137607   4.452   0.920   6.452
12574TIP3    H237608   4.350   0.810   6.428
12575TIP3   OH237609   4.295   1.510   6.838
12575TIP3    H137610   4.211   1.459   6.828
12575TIP3    H237611   4.331   1.467   6.919
12576TIP3   OH237612   4.399   1.377   7.062
12576TIP3    H137613   4.387   1.299   7.119
12576TIP3    H237614   4.454   1.431   7.122
12577TIP3   OH237615   6.132   1.772   6.866
12577TIP3    H137616   6.167   1.789   6.955
12577TIP3    H237617   6.206   1.794   6.808
12578TIP3   OH237618   6.166   1.787   7.149
12578TIP3    H137619   6.116   1.703   7.143
12578TIP3    H237620   6.239   1.758   7.205
12579TIP3   OH237621   6.211   1.460   7.722
12579TIP3    H137622   6.136   1.466   7.785
12579TIP3    H237623   6.250   1.549   7.728
12580TIP3   OH237624   6.027   0.970   6.341
12580TIP3    H137625   6.094   1.036   6.314
12580TIP3    H237626   6.069   0.933   6.421
12581TIP3   OH237627   6.154   0.837   6.546
12581TIP3    H137628   6.087   0.797   6.605
12581TIP3    H237629   6.217   0.877   6.609
12582TIP3   OH237630   6.209   1.233   6.978
12582TIP3    H137631   6.261   1.167   6.929
12582TIP3    H237632   6.199   1.305   6.913
12583TIP3   OH237633   6.038   1.536   7.170
12583TIP3    H137634   5.966   1.573   7.224
12583TIP3    H237635   5.989   1.487   7.101
12584TIP3   OH237636   6.089   0.743   6.192
12584TIP3    H137637   6.019   0.754   6.123
12584TIP3    H237638   6.066   0.819   6.250
12585TIP3   OH237639   5.973   0.413   6.135
12585TIP3    H137640   5.925   0.487   6.096
12585TIP3    H237641   5.925   0.338   6.101
12586TIP3   OH237642   5.968   0.697   6.694
12586TIP3    H137643   5.980   0.601   6.698
12586TIP3    H237644   5.951   0.718   6.789
12587TIP3   OH237645   4.591   0.773   7.433
12587TIP3    H137646   4.594   0.740   7.341
12587TIP3    H237647   4.687   0.774   7.454
12588TIP3   OH237648   6.263   1.118   7.549
12588TIP3    H137649   6.331   1.049   7.538
12588TIP3    H237650   6.288   1.184   7.484
12589TIP3   OH237651   6.449   0.916   7.559
12589TIP3    H137652   6.371   0.866   7.592
12589TIP3    H237653   6.521   0.861   7.592
12590TIP3   OH237654   5.948   0.409   6.536
12590TIP3    H137655   5.994   0.375   6.616
12590TIP3    H237656   6.021   0.447   6.484
12591TIP3   OH237657   6.127   0.613   7.080
12591TIP3    H137658   6.218   0.626   7.045
12591TIP3    H237659   6.143   0.633   7.174
12592TIP3   OH237660   6.198   0.733   7.319
12592TIP3    H137661   6.124   0.754   7.377
12592TIP3    H237662   6.221   0.818   7.278
12593TIP3   OH237663   4.598   0.427   7.531
12593TIP3    H137664   4.641   0.422   7.443
12593TIP3    H237665   4.613   0.519   7.556
12594TIP3   OH237666   5.723   1.620   6.523
12594TIP3    H137667   5.775   1.612   6.440
12594TIP3    H237668   5.765   1.696   6.565
12595TIP3   OH237669   4.815   1.440   7.911
12595TIP3    H137670   4.726   1.405   7.891
12595TIP3    H237671   4.824   1.419   8.005
12596TIP3   OH237672   4.997   1.465   7.457
12596TIP3    H137673   4.951   1.542   7.417
12596TIP3    H237674   5.084   1.478   7.412
12597TIP3   OH237675   5.440   1.709   7.598
12597TIP3    H137676   5.483   1.710   7.686
12597TIP3    H237677   5.506   1.758   7.544
12598TIP3   OH237678   5.624   1.856   7.462
12598TIP3    H137679   5.694   1.809   7.415
12598TIP3    H237680   5.677   1.915   7.520
12599TIP3   OH237681   4.669   1.724   7.477
12599TIP3    H137682   4.580   1.760   7.460
12599TIP3    H237683   4.684   1.755   7.567
12600TIP3   OH237684   4.909   1.698   7.340
12600TIP3    H137685   4.821   1.713   7.382
12600TIP3    H237686   4.893   1.733   7.250
12601TIP3   OH237687   5.327   1.740   7.123
12601TIP3    H137688   5.294   1.780   7.041
12601TIP3    H237689   5.346   1.821   7.176
12602TIP3   OH237690   5.594   1.673   7.185
12602TIP3    H137691   5.499   1.689   7.168
12602TIP3    H237692   5.633   1.753   7.147
12603TIP3   OH237693   5.821   1.861   7.104
12603TIP3    H137694   5.798   1.942   7.053
12603TIP3    H237695   5.839   1.797   7.033
12604TIP3   OH237696   4.586   1.514   7.228
12604TIP3    H137697   4.612   1.487   7.318
12604TIP3    H237698   4.658   1.469   7.177
12605TIP3   OH237699   4.774   1.389   7.071
12605TIP3    H137700   4.788   1.305   7.121
12605TIP3    H237701   4.865   1.425   7.073
12606TIP3   OH237702   5.038   1.472   7.095
12606TIP3    H137703   5.073   1.382   7.085
12606TIP3    H237704   5.089   1.501   7.173
12607TIP3   OH237705   4.368   1.300   6.618
12607TIP3    H137706   4.308   1.258   6.553
12607TIP3    H237707   4.304   1.349   6.669
12608TIP3   OH237708   5.142   1.477   6.198
12608TIP3    H137709   5.231   1.499   6.163
12608TIP3    H237710   5.121   1.402   6.139
12609TIP3   OH237711   5.866   1.596   6.288
12609TIP3    H137712   5.856   1.498   6.278
12609TIP3    H237713   5.818   1.627   6.209
12610TIP3   OH237714   4.455   1.308   6.257
12610TIP3    H137715   4.465   1.320   6.351
12610TIP3    H237716   4.541   1.267   6.232
12611TIP3   OH237717   6.089   1.739   7.480
12611TIP3    H137718   6.011   1.706   7.431
12611TIP3    H237719   6.066   1.834   7.484
12612TIP3   OH237720   7.355   1.112   6.247
12612TIP3    H137721   7.327   1.204   6.225
12612TIP3    H237722   7.279   1.063   6.211
12613TIP3   OH237723   7.358   1.110   6.621
12613TIP3    H137724   7.380   1.066   6.704
12613TIP3    H237725   7.312   1.039   6.573
12614TIP3   OH237726   6.655   1.007   6.986
12614TIP3    H137727   6.689   0.943   7.051
12614TIP3    H237728   6.725   1.074   6.988
12615TIP3   OH237729   7.599   1.415   6.306
12615TIP3    H137730   7.581   1.347   6.373
12615TIP3    H237731   7.627   1.491   6.359
12616TIP3   OH237732   6.625   1.417   6.719
12616TIP3    H137733   6.619   1.319   6.719
12616TIP3    H237734   6.721   1.428   6.710
12617TIP3   OH237735   6.327   0.610   6.507
12617TIP3    H137736   6.279   0.693   6.525
12617TIP3    H237737   6.263   0.564   6.449
12618TIP3   OH237738   6.395   0.904   6.673
12618TIP3    H137739   6.444   0.828   6.710
12618TIP3    H237740   6.453   0.932   6.601
12619TIP3   OH237741   7.247   1.877   6.321
12619TIP3    H137742   7.295   1.803   6.279
12619TIP3    H237743   7.241   1.849   6.413
12620TIP3   OH237744   7.149   1.332   6.676
12620TIP3    H137745   7.186   1.261   6.623
12620TIP3    H237746   7.232   1.376   6.704
12621TIP3   OH237747   7.564   0.852   6.707
12621TIP3    H137748   7.601   0.767   6.732
12621TIP3    H237749   7.532   0.835   6.616
12622TIP3   OH237750   6.544   0.698   6.779
12622TIP3    H137751   6.620   0.669   6.833
12622TIP3    H237752   6.558   0.643   6.700
12623TIP3   OH237753   6.978   0.899   6.575
12623TIP3    H137754   7.068   0.864   6.591
12623TIP3    H237755   6.932   0.817   6.545
12624TIP3   OH237756   8.213   0.836   6.864
12624TIP3    H137757   8.152   0.908   6.838
12624TIP3    H237758   8.263   0.875   6.938
12625TIP3   OH237759   7.251   1.334   6.113
12625TIP3    H137760   7.203   1.312   6.032
12625TIP3    H237761   7.206   1.418   6.139
12626TIP3   OH237762   7.011   1.254   6.910
12626TIP3    H137763   6.945   1.319   6.945
12626TIP3    H237764   7.046   1.302   6.832
12627TIP3   OH237765   6.786   0.600   6.880
12627TIP3    H137766   6.848   0.673   6.897
12627TIP3    H237767   6.814   0.568   6.794
12628TIP3   OH237768   6.835   1.448   6.999
12628TIP3    H137769   6.813   1.534   6.960
12628TIP3    H237770   6.755   1.435   7.055
12629TIP3   OH237771   6.229   1.141   6.236
12629TIP3    H137772   6.188   1.170   6.152
12629TIP3    H237773   6.261   1.226   6.273
12630TIP3   OH237774   7.672   1.655   6.472
12630TIP3    H137775   7.583   1.650   6.516
12630TIP3    H237776   7.664   1.742   6.429
12631TIP3   OH237777   7.375   1.701   6.151
12631TIP3    H137778   7.424   1.619   6.127
12631TIP3    H237779   7.433   1.768   6.109
12632TIP3   OH237780   7.516   1.486   6.053
12632TIP3    H137781   7.468   1.409   6.020
12632TIP3    H237782   7.552   1.453   6.138
12633TIP3   OH237783   7.897   1.565   6.828
12633TIP3    H137784   7.875   1.490   6.769
12633TIP3    H237785   7.872   1.642   6.773
12634TIP3   OH237786   7.188   0.965   6.077
12634TIP3    H137787   7.105   1.013   6.057
12634TIP3    H237788   7.229   0.959   5.989
12635TIP3   OH237789   7.139   0.754   5.796
12635TIP3    H137790   7.216   0.797   5.836
12635TIP3    H237791   7.183   0.682   5.746
12636TIP3   OH237792   8.088   1.205   6.666
12636TIP3    H137793   8.005   1.257   6.669
12636TIP3    H237794   8.119   1.227   6.576
12637TIP3   OH237795   7.533   1.046   6.048
12637TIP3    H137796   7.479   1.071   6.127
12637TIP3    H237797   7.617   1.020   6.092
12638TIP3   OH237798   7.774   1.091   6.960
12638TIP3    H137799   7.765   1.179   7.000
12638TIP3    H237800   7.687   1.086   6.913
12639TIP3   OH237801   6.766   1.043   6.465
12639TIP3    H137802   6.722   0.987   6.398
12639TIP3    H237803   6.841   0.987   6.492
12640TIP3   OH237804   6.894   1.450   6.618
12640TIP3    H137805   6.873   1.417   6.529
12640TIP3    H237806   6.985   1.416   6.632
12641TIP3   OH237807   6.918   1.006   6.825
12641TIP3    H137808   6.937   0.987   6.731
12641TIP3    H237809   6.947   1.099   6.835
12642TIP3   OH237810   7.434   1.658   6.599
12642TIP3    H137811   7.401   1.743   6.633
12642TIP3    H237812   7.394   1.593   6.659
12643TIP3   OH237813   7.037   1.559   7.159
12643TIP3    H137814   6.977   1.629   7.194
12643TIP3    H237815   6.974   1.511   7.101
12644TIP3   OH237816   7.379   0.893   5.876
12644TIP3    H137817   7.436   0.954   5.929
12644TIP3    H237818   7.404   0.918   5.785
12645TIP3   OH237819   6.785   1.136   7.239
12645TIP3    H137820   6.791   1.219   7.289
12645TIP3    H237821   6.693   1.110   7.259
12646TIP3   OH237822   7.119   1.582   6.148
12646TIP3    H137823   7.195   1.638   6.168
12646TIP3    H237824   7.055   1.645   6.113
12647TIP3   OH237825   6.835   1.739   7.231
12647TIP3    H137826   6.801   1.741   7.139
12647TIP3    H237827   6.754   1.718   7.282
12648TIP3   OH237828   6.631   0.893   6.270
12648TIP3    H137829   6.560   0.929   6.212
12648TIP3    H237830   6.605   0.801   6.281
12649TIP3   OH237831   7.688   1.511   5.468
12649TIP3    H137832   7.696   1.608   5.456
12649TIP3    H237833   7.781   1.483   5.457
12650TIP3   OH237834   6.414   1.268   7.177
12650TIP3    H137835   6.346   1.249   7.109
12650TIP3    H237836   6.449   1.180   7.198
12651TIP3   OH237837   6.268   1.464   6.806
12651TIP3    H137838   6.364   1.455   6.796
12651TIP3    H237839   6.262   1.540   6.866
12652TIP3   OH237840   8.133   1.915   6.866
12652TIP3    H137841   8.129   1.819   6.878
12652TIP3    H237842   8.049   1.941   6.911
12653TIP3   OH237843   7.253   1.699   7.010
12653TIP3    H137844   7.235   1.795   7.020
12653TIP3    H237845   7.174   1.660   7.052
12654TIP3   OH237846   6.999   1.830   5.950
12654TIP3    H137847   6.951   1.814   5.868
12654TIP3    H237848   6.966   1.918   5.977
12655TIP3   OH237849   6.435   1.678   6.335
12655TIP3    H137850   6.484   1.671   6.419
12655TIP3    H237851   6.379   1.600   6.340
12656TIP3   OH237852   7.199   1.731   5.591
12656TIP3    H137853   7.259   1.661   5.556
12656TIP3    H237854   7.233   1.741   5.683
12657TIP3   OH237855   7.250   1.778   5.861
12657TIP3    H137856   7.161   1.789   5.902
12657TIP3    H237857   7.300   1.740   5.935
12658TIP3   OH237858   8.022   1.039   7.149
12658TIP3    H137859   7.955   1.060   7.082
12658TIP3    H237860   8.052   0.951   7.121
12659TIP3   OH237861   6.618   1.452   7.165
12659TIP3    H137862   6.668   1.435   7.247
12659TIP3    H237863   6.544   1.389   7.172
12660TIP3   OH237864   7.679   0.907   7.150
12660TIP3    H137865   7.736   0.829   7.144
12660TIP3    H237866   7.709   0.963   7.076
12661TIP3   OH237867   7.454   0.943   5.618
12661TIP3    H137868   7.416   0.923   5.530
12661TIP3    H237869   7.527   1.002   5.595
12662TIP3   OH237870   6.962   0.789   6.978
12662TIP3    H137871   6.900   0.808   7.051
12662TIP3    H237872   6.946   0.867   6.920
12663TIP3   OH237873   6.820   0.700   6.477
12663TIP3    H137874   6.742   0.648   6.506
12663TIP3    H237875   6.842   0.655   6.393
12664TIP3   OH237876   7.331   0.769   6.208
12664TIP3    H137877   7.277   0.841   6.167
12664TIP3    H237878   7.375   0.732   6.130
12665TIP3   OH237879   7.526   1.135   7.269
12665TIP3    H137880   7.494   1.076   7.341
12665TIP3    H237881   7.616   1.098   7.266
12666TIP3   OH237882   7.486   0.796   6.447
12666TIP3    H137883   7.426   0.825   6.374
12666TIP3    H237884   7.518   0.712   6.409
12667TIP3   OH237885   6.773   0.829   7.176
12667TIP3    H137886   6.780   0.885   7.254
12667TIP3    H237887   6.717   0.756   7.207
12668TIP3   OH237888   7.512   1.042   6.888
12668TIP3    H137889   7.531   0.974   6.819
12668TIP3    H237890   7.461   0.990   6.952
12669TIP3   OH237891   6.590   0.553   6.549
12669TIP3    H137892   6.496   0.573   6.527
12669TIP3    H237893   6.592   0.457   6.536
12670TIP3   OH237894   6.880   0.575   6.238
12670TIP3    H137895   6.962   0.547   6.196
12670TIP3    H237896   6.816   0.568   6.164
12671TIP3   OH237897   6.700   0.589   6.021
12671TIP3    H137898   6.640   0.540   5.961
12671TIP3    H237899   6.760   0.628   5.954
12672TIP3   OH237900   7.824   2.262   6.964
12672TIP3    H137901   7.819   2.289   6.870
12672TIP3    H237902   7.900   2.315   6.995
12673TIP3   OH237903   6.780   1.375   7.385
12673TIP3    H137904   6.859   1.406   7.434
12673TIP3    H237905   6.715   1.371   7.459
12674TIP3   OH237906   7.247   0.831   6.653
12674TIP3    H137907   7.303   0.779   6.594
12674TIP3    H237908   7.241   0.773   6.731
12675TIP3   OH237909   7.228   0.717   6.942
12675TIP3    H137910   7.136   0.748   6.953
12675TIP3    H237911   7.278   0.776   7.003
12676TIP3   OH237912   6.958   1.115   6.026
12676TIP3    H137913   6.885   1.050   6.015
12676TIP3    H237914   6.938   1.149   6.117
12677TIP3   OH237915   7.854   1.350   6.657
12677TIP3    H137916   7.882   1.403   6.579
12677TIP3    H237917   7.771   1.309   6.626
12678TIP3   OH237918   7.475   0.649   5.985
12678TIP3    H137919   7.572   0.661   5.995
12678TIP3    H237920   7.450   0.727   5.931
12679TIP3   OH237921   6.654   1.140   6.703
12679TIP3    H137922   6.690   1.109   6.617
12679TIP3    H237923   6.680   1.069   6.763
12680TIP3   OH237924   7.101   1.265   5.846
12680TIP3    H137925   7.053   1.351   5.852
12680TIP3    H237926   7.047   1.210   5.907
12681TIP3   OH237927   6.532   1.052   7.313
12681TIP3    H137928   6.544   1.037   7.409
12681TIP3    H237929   6.457   0.993   7.293
12682TIP3   OH237930   7.244   1.173   7.329
12682TIP3    H137931   7.170   1.119   7.292
12682TIP3    H237932   7.319   1.132   7.283
12683TIP3   OH237933   7.510   1.655   6.939
12683TIP3    H137934   7.414   1.674   6.950
12683TIP3    H237935   7.545   1.726   6.996
12684TIP3   OH237936   7.928   0.763   5.825
12684TIP3    H137937   7.871   0.715   5.762
12684TIP3    H237938   7.923   0.852   5.784
12685TIP3   OH237939   8.147   1.619   6.910
12685TIP3    H137940   8.050   1.615   6.899
12685TIP3    H237941   8.175   1.591   6.820
12686TIP3   OH237942   7.628   1.585   5.735
12686TIP3    H137943   7.600   1.518   5.798
12686TIP3    H237944   7.638   1.536   5.652
12687TIP3   OH237945   7.620   1.213   6.580
12687TIP3    H137946   7.527   1.185   6.589
12687TIP3    H237947   7.656   1.135   6.532
12688TIP3   OH237948   6.750   1.440   6.324
12688TIP3    H137949   6.751   1.524   6.275
12688TIP3    H237950   6.656   1.428   6.338
12689TIP3   OH237951   6.314   0.743   6.030
12689TIP3    H137952   6.362   0.826   6.049
12689TIP3    H237953   6.238   0.751   6.091
12690TIP3   OH237954   6.890   1.207   6.271
12690TIP3    H137955   6.853   1.296   6.289
12690TIP3    H237956   6.852   1.156   6.345
12691TIP3   OH237957   6.669   1.682   6.178
12691TIP3    H137958   6.584   1.690   6.224
12691TIP3    H237959   6.701   1.775   6.184
12692TIP3   OH237960   7.403   1.417   6.758
12692TIP3    H137961   7.443   1.473   6.826
12692TIP3    H237962   7.479   1.372   6.718
12693TIP3   OH237963   7.382   1.310   5.636
12693TIP3    H137964   7.434   1.286   5.715
12693TIP3    H237965   7.292   1.287   5.665
12694TIP3   OH237966   7.651   1.950   6.800
12694TIP3    H137967   7.566   1.904   6.787
12694TIP3    H237968   7.643   2.019   6.730
12695TIP3   OH237969   7.721   1.787   5.456
12695TIP3    H137970   7.759   1.861   5.405
12695TIP3    H237971   7.641   1.832   5.490
12696TIP3   OH237972   7.542   1.243   5.850
12696TIP3    H137973   7.531   1.180   5.923
12696TIP3    H237974   7.640   1.243   5.841
12697TIP3   OH237975   6.453   1.649   6.958
12697TIP3    H137976   6.507   1.572   6.984
12697TIP3    H237977   6.493   1.718   7.012
12698TIP3   OH237978   6.748   1.293   5.636
12698TIP3    H137979   6.762   1.200   5.608
12698TIP3    H237980   6.729   1.282   5.731
12699TIP3   OH237981   6.693   1.298   5.907
12699TIP3    H137982   6.763   1.271   5.968
12699TIP3    H237983   6.697   1.396   5.916
12700TIP3   OH237984   6.425   0.990   6.110
12700TIP3    H137985   6.361   1.036   6.168
12700TIP3    H237986   6.442   1.060   6.044
12701TIP3   OH237987   6.959   1.495   5.855
12701TIP3    H137988   6.872   1.521   5.893
12701TIP3    H237989   6.976   1.571   5.798
12702TIP3   OH237990   7.176   0.550   6.272
12702TIP3    H137991   7.214   0.638   6.253
12702TIP3    H237992   7.122   0.568   6.350
12703TIP3   OH237993   7.410   0.874   7.093
12703TIP3    H137994   7.416   0.945   7.157
12703TIP3    H237995   7.501   0.839   7.100
12704TIP3   OH237996   6.703   1.571   5.925
12704TIP3    H137997   6.672   1.641   5.863
12704TIP3    H237998   6.687   1.614   6.012
12705TIP3   OH237999   7.707   0.978   6.448
12705TIP3    H138000   7.636   0.913   6.459
12705TIP3    H238001   7.783   0.935   6.495
12706TIP3   OH238002   6.420   1.201   5.917
12706TIP3    H138003   6.485   1.273   5.927
12706TIP3    H238004   6.467   1.147   5.850
12707TIP3   OH238005   6.336   0.450   6.037
12707TIP3    H138006   6.384   0.535   6.035
12707TIP3    H238007   6.256   0.477   6.084
12708TIP3   OH238008   7.678   1.925   6.397
12708TIP3    H138009   7.634   1.972   6.322
12708TIP3    H238010   7.771   1.946   6.375
12709TIP3   OH238011   6.290   1.413   6.305
12709TIP3    H138012   6.221   1.445   6.363
12709TIP3    H238013   6.265   1.455   6.220
12710TIP3   OH238014   6.450   1.955   7.378
12710TIP3    H138015   6.536   1.954   7.425
12710TIP3    H238016   6.429   1.860   7.375
12711TIP3   OH238017   6.926   1.921   7.424
12711TIP3    H138018   7.023   1.913   7.426
12711TIP3    H238019   6.904   1.863   7.348
12712TIP3   OH238020   6.910   1.497   5.547
12712TIP3    H138021   6.854   1.426   5.587
12712TIP3    H238022   6.986   1.443   5.518
12713TIP3   OH238023   7.568   1.823   7.169
12713TIP3    H138024   7.582   1.747   7.227
12713TIP3    H238025   7.646   1.880   7.188
12714TIP3   OH238026   7.347   1.537   5.460
12714TIP3    H138027   7.392   1.474   5.520
12714TIP3    H238028   7.405   1.537   5.381
12715TIP3   OH238029   6.579   1.364   7.577
12715TIP3    H138030   6.596   1.268   7.585
12715TIP3    H238031   6.492   1.366   7.533
12716TIP3   OH238032   6.556   1.014   5.770
12716TIP3    H138033   6.610   0.980   5.843
12716TIP3    H238034   6.624   1.019   5.699
12717TIP3   OH238035   7.212   1.449   7.340
12717TIP3    H138036   7.153   1.474   7.265
12717TIP3    H238037   7.209   1.351   7.337
12718TIP3   OH238038   7.066   1.215   5.577
12718TIP3    H138039   7.068   1.227   5.674
12718TIP3    H238040   7.066   1.117   5.572
12719TIP3   OH238041   6.704   1.099   7.558
12719TIP3    H138042   6.770   1.030   7.545
12719TIP3    H238043   6.728   1.129   7.648
12720TIP3   OH238044   6.764   0.918   5.993
12720TIP3    H138045   6.739   0.876   6.077
12720TIP3    H238046   6.800   0.843   5.942
12721TIP3   OH238047   7.031   1.031   7.201
12721TIP3    H138048   6.943   1.072   7.214
12721TIP3    H238049   7.047   1.048   7.107
12722TIP3   OH238050   6.862   0.713   5.834
12722TIP3    H138051   6.837   0.714   5.740
12722TIP3    H238052   6.960   0.717   5.827
12723TIP3   OH238053   7.689   1.041   5.493
12723TIP3    H138054   7.664   0.998   5.409
12723TIP3    H238055   7.657   1.132   5.474
12724TIP3   OH238056   7.114   0.825   7.355
12724TIP3    H138057   7.112   0.744   7.301
12724TIP3    H238058   7.079   0.893   7.293
12725TIP3   OH238059   7.236   1.135   7.012
12725TIP3    H138060   7.266   1.100   6.928
12725TIP3    H238061   7.157   1.186   6.985
12726TIP3   OH238062   7.769   1.075   7.400
12726TIP3    H138063   7.803   0.988   7.423
12726TIP3    H238064   7.849   1.130   7.397
12727TIP3   OH238065   7.783   1.345   7.102
12727TIP3    H138066   7.784   1.423   7.045
12727TIP3    H238067   7.879   1.324   7.099
12728TIP3   OH238068   7.006   0.915   7.591
12728TIP3    H138069   6.941   0.843   7.598
12728TIP3    H238070   7.052   0.888   7.510
12729TIP3   OH238071   7.461   0.941   7.446
12729TIP3    H138072   7.429   0.927   7.537
12729TIP3    H238073   7.492   0.852   7.424
12730TIP3   OH238074   6.671   1.773   5.736
12730TIP3    H138075   6.767   1.768   5.718
12730TIP3    H238076   6.642   1.823   5.658
12731TIP3   OH238077   6.151   1.156   5.952
12731TIP3    H138078   6.246   1.178   5.940
12731TIP3    H238079   6.147   1.067   5.912
12732TIP3   OH238080   6.067   1.768   6.367
12732TIP3    H138081   6.000   1.706   6.331
12732TIP3    H238082   6.111   1.710   6.433
12733TIP3   OH238083   6.203   1.618   6.553
12733TIP3    H138084   6.190   1.545   6.616
12733TIP3    H238085   6.256   1.679   6.607
12734TIP3   OH238086   7.931   2.016   6.354
12734TIP3    H138087   7.954   2.052   6.441
12734TIP3    H238088   7.990   2.067   6.295
12735TIP3   OH238089   7.958   2.039   6.636
12735TIP3    H138090   7.915   1.951   6.631
12735TIP3    H238091   8.034   2.017   6.692
12736TIP3   OH238092   8.003   1.713   7.212
12736TIP3    H138093   7.931   1.726   7.277
12736TIP3    H238094   8.046   1.801   7.211
12737TIP3   OH238095   7.823   1.227   5.827
12737TIP3    H138096   7.890   1.293   5.800
12737TIP3    H238097   7.866   1.190   5.908
12738TIP3   OH238098   7.950   1.094   6.032
12738TIP3    H138099   7.884   1.054   6.092
12738TIP3    H238100   8.015   1.133   6.093
12739TIP3   OH238101   8.003   1.486   6.468
12739TIP3    H138102   8.055   1.422   6.415
12739TIP3    H238103   7.994   1.561   6.406
12740TIP3   OH238104   7.834   1.785   6.665
12740TIP3    H138105   7.761   1.832   6.711
12740TIP3    H238106   7.786   1.740   6.593
12741TIP3   OH238107   7.885   1.000   5.679
12741TIP3    H138108   7.815   1.010   5.610
12741TIP3    H238109   7.862   1.076   5.736
12742TIP3   OH238110   7.770   0.670   5.622
12742TIP3    H138111   7.721   0.743   5.583
12742TIP3    H238112   7.721   0.594   5.589
12743TIP3   OH238113   7.764   0.955   6.182
12743TIP3    H138114   7.772   0.859   6.182
12743TIP3    H238115   7.748   0.974   6.277
12744TIP3   OH238116   6.389   1.027   6.923
12744TIP3    H138117   6.386   0.995   6.830
12744TIP3    H238118   6.486   1.028   6.939
12745TIP3   OH238119   8.051   1.367   7.041
12745TIP3    H138120   8.125   1.305   7.024
12745TIP3    H238121   8.069   1.438   6.976
12746TIP3   OH238122   8.241   1.170   7.045
12746TIP3    H138123   8.176   1.120   7.098
12746TIP3    H238124   8.325   1.137   7.080
12747TIP3   OH238125   7.745   0.670   6.025
12747TIP3    H138126   7.791   0.635   6.104
12747TIP3    H238127   7.819   0.704   5.971
12748TIP3   OH238128   7.926   0.876   6.574
12748TIP3    H138129   8.013   0.886   6.531
12748TIP3    H238130   7.949   0.896   6.666
12749TIP3   OH238131   7.992   0.996   6.818
12749TIP3    H138132   7.909   1.038   6.848
12749TIP3    H238133   8.029   1.067   6.760
12750TIP3   OH238134   6.379   0.682   7.001
12750TIP3    H138135   6.429   0.680   6.917
12750TIP3    H238136   6.404   0.768   7.037
12751TIP3   OH238137   7.514   1.884   6.010
12751TIP3    H138138   7.566   1.873   5.928
12751TIP3    H238139   7.564   1.953   6.058
12752TIP3   OH238140   6.613   1.693   7.397
12752TIP3    H138141   6.522   1.663   7.378
12752TIP3    H238142   6.623   1.668   7.490
12753TIP3   OH238143   6.800   1.719   6.948
12753TIP3    H138144   6.743   1.781   6.897
12753TIP3    H238145   6.886   1.752   6.920
12754TIP3   OH238146   7.236   1.969   7.090
12754TIP3    H138147   7.292   1.985   7.168
12754TIP3    H238148   7.288   2.013   7.019
12755TIP3   OH238149   7.436   2.100   6.953
12755TIP3    H138150   7.513   2.062   6.908
12755TIP3    H238151   7.476   2.170   7.007
12756TIP3   OH238152   6.459   1.984   6.972
12756TIP3    H138153   6.377   2.032   6.950
12756TIP3    H238154   6.473   2.012   7.063
12757TIP3   OH238155   6.676   1.912   6.809
12757TIP3    H138156   6.603   1.956   6.857
12757TIP3    H238157   6.698   1.977   6.740
12758TIP3   OH238158   7.381   1.924   6.676
12758TIP3    H138159   7.289   1.942   6.709
12758TIP3    H238160   7.403   2.011   6.640
12759TIP3   OH238161   7.620   2.122   6.591
12759TIP3    H138162   7.596   2.204   6.543
12759TIP3    H238163   7.632   2.058   6.518
12760TIP3   OH238164   6.377   1.772   6.715
12760TIP3    H138165   6.411   1.749   6.805
12760TIP3    H238166   6.450   1.733   6.662
12761TIP3   OH238167   6.568   1.644   6.568
12761TIP3    H138168   6.587   1.562   6.619
12761TIP3    H238169   6.659   1.683   6.563
12762TIP3   OH238170   6.828   1.731   6.570
12762TIP3    H138171   6.875   1.647   6.579
12762TIP3    H238172   6.871   1.787   6.636
12763TIP3   OH238173   6.169   1.544   6.102
12763TIP3    H138174   6.083   1.512   6.069
12763TIP3    H238175   6.158   1.639   6.087
12764TIP3   OH238176   6.939   1.733   5.685
12764TIP3    H138177   7.028   1.756   5.649
12764TIP3    H238178   6.918   1.658   5.625
12765TIP3   OH238179   7.661   1.852   5.778
12765TIP3    H138180   7.652   1.755   5.766
12765TIP3    H238181   7.613   1.884   5.698
12766TIP3   OH238182   6.244   1.570   5.742
12766TIP3    H138183   6.244   1.595   5.836
12766TIP3    H238184   6.332   1.529   5.731
12767TIP3   OH238185   7.884   1.994   6.965
12767TIP3    H138186   7.806   1.964   6.915
12767TIP3    H238187   7.866   2.091   6.968
12768TIP3   OH238188   9.153   1.367   5.725
12768TIP3    H138189   9.130   1.462   5.718
12768TIP3    H238190   9.069   1.326   5.699
12769TIP3   OH238191   9.135   1.360   6.113
12769TIP3    H138192   9.175   1.344   6.201
12769TIP3    H238193   9.097   1.273   6.094
12770TIP3   OH238194   8.449   1.267   6.479
12770TIP3    H138195   8.486   1.201   6.541
12770TIP3    H238196   8.529   1.320   6.461
12771TIP3   OH238197   9.391   1.670   5.794
12771TIP3    H138198   9.392   1.602   5.863
12771TIP3    H238199   9.425   1.746   5.846
12772TIP3   OH238200   8.422   1.672   6.203
12772TIP3    H138201   8.413   1.575   6.205
12772TIP3    H238202   8.518   1.681   6.197
12773TIP3   OH238203   8.121   0.864   5.995
12773TIP3    H138204   8.076   0.948   6.011
12773TIP3    H238205   8.057   0.820   5.936
12774TIP3   OH238206   8.189   1.160   6.160
12774TIP3    H138207   8.239   1.084   6.197
12774TIP3    H238208   8.250   1.193   6.093
12775TIP3   OH238209   9.047   2.133   5.811
12775TIP3    H138210   9.087   2.057   5.764
12775TIP3    H238211   9.038   2.097   5.900
12776TIP3   OH238212   8.949   1.592   6.163
12776TIP3    H138213   8.989   1.514   6.121
12776TIP3    H238214   9.032   1.640   6.184
12777TIP3   OH238215   9.365   1.113   6.189
12777TIP3    H138216   9.393   1.030   6.229
12777TIP3    H238217   9.338   1.087   6.099
12778TIP3   OH238218   8.334   0.953   6.266
12778TIP3    H138219   8.415   0.929   6.317
12778TIP3    H238220   8.351   0.900   6.186
12779TIP3   OH238221   8.774   1.155   6.066
12779TIP3    H138222   8.866   1.124   6.077
12779TIP3    H238223   8.730   1.073   6.034
12780TIP3   OH238224   9.058   1.603   5.589
12780TIP3    H138225   9.000   1.569   5.519
12780TIP3    H238226   9.004   1.678   5.621
12781TIP3   OH238227   8.804   1.513   6.389
12781TIP3    H138228   8.742   1.579   6.427
12781TIP3    H238229   8.845   1.563   6.316
12782TIP3   OH238230   8.573   0.861   6.363
12782TIP3    H138231   8.639   0.930   6.388
12782TIP3    H238232   8.615   0.819   6.287
12783TIP3   OH238233   8.631   1.707   6.486
12783TIP3    H138234   8.605   1.794   6.447
12783TIP3    H238235   8.552   1.691   6.542
12784TIP3   OH238236   8.025   1.398   5.722
12784TIP3    H138237   7.984   1.427   5.639
12784TIP3    H238238   8.056   1.483   5.760
12785TIP3   OH238239   9.451   1.899   5.951
12785TIP3    H138240   9.360   1.898   5.990
12785TIP3    H238241   9.455   1.988   5.913
12786TIP3   OH238242   9.163   1.949   5.637
12786TIP3    H138243   9.222   1.873   5.620
12786TIP3    H238244   9.219   2.023   5.606
12787TIP3   OH238245   9.312   1.728   5.537
12787TIP3    H138246   9.233   1.672   5.539
12787TIP3    H238247   9.353   1.704   5.624
12788TIP3   OH238248   8.975   1.222   5.565
12788TIP3    H138249   8.894   1.272   5.540
12788TIP3    H238250   9.021   1.216   5.479
12789TIP3   OH238251   8.937   1.012   5.279
12789TIP3    H138252   9.012   1.056   5.323
12789TIP3    H238253   8.982   0.938   5.234
12790TIP3   OH238254   9.341   1.296   5.545
12790TIP3    H138255   9.273   1.323   5.611
12790TIP3    H238256   9.420   1.302   5.600
12791TIP3   OH238257   9.565   1.345   6.432
12791TIP3    H138258   9.567   1.420   6.493
12791TIP3    H238259   9.484   1.360   6.382
12792TIP3   OH238260   8.565   1.301   5.951
12792TIP3    H138261   8.521   1.243   5.885
12792TIP3    H238262   8.638   1.244   5.982
12793TIP3   OH238263   8.692   1.712   6.100
12793TIP3    H138264   8.672   1.668   6.016
12793TIP3    H238265   8.782   1.677   6.119
12794TIP3   OH238266   8.697   1.269   6.309
12794TIP3    H138267   8.730   1.244   6.220
12794TIP3    H238268   8.744   1.354   6.325
12795TIP3   OH238269   9.213   1.912   6.080
12795TIP3    H138270   9.207   1.990   6.138
12795TIP3    H238271   9.206   1.837   6.142
12796TIP3   OH238272   8.836   1.828   6.630
12796TIP3    H138273   8.775   1.890   6.676
12796TIP3    H238274   8.771   1.774   6.580
12797TIP3   OH238275   9.168   1.153   5.370
12797TIP3    H138276   9.236   1.202   5.421
12797TIP3    H238277   9.200   1.170   5.278
12798TIP3   OH238278   8.583   1.395   6.727
12798TIP3    H138279   8.587   1.479   6.778
12798TIP3    H238280   8.489   1.372   6.737
12799TIP3   OH238281   8.910   1.837   5.637
12799TIP3    H138282   8.993   1.887   5.650
12799TIP3    H238283   8.851   1.903   5.599
12800TIP3   OH238284   8.630   1.996   6.717
12800TIP3    H138285   8.595   1.996   6.626
12800TIP3    H238286   8.551   1.974   6.770
12801TIP3   OH238287   8.428   1.151   5.755
12801TIP3    H138288   8.356   1.184   5.698
12801TIP3    H238289   8.404   1.059   5.769
12802TIP3   OH238290   8.209   1.528   6.663
12802TIP3    H138291   8.143   1.508   6.595
12802TIP3    H238292   8.247   1.440   6.684
12803TIP3   OH238293   8.063   1.718   6.299
12803TIP3    H138294   8.159   1.715   6.289
12803TIP3    H238295   8.051   1.799   6.350
12804TIP3   OH238296   9.033   1.957   6.487
12804TIP3    H138297   9.032   2.049   6.519
12804TIP3    H238298   8.962   1.917   6.542
12805TIP3   OH238299   8.795   2.086   5.438
12805TIP3    H138300   8.748   2.068   5.355
12805TIP3    H238301   8.762   2.175   5.463
12806TIP3   OH238302   8.233   1.935   5.823
12806TIP3    H138303   8.281   1.926   5.908
12806TIP3    H238304   8.174   1.858   5.827
12807TIP3   OH238305   8.998   1.989   5.080
12807TIP3    H138306   9.058   1.919   5.046
12807TIP3    H238307   9.030   1.999   5.172
12808TIP3   OH238308   9.046   2.036   5.350
12808TIP3    H138309   8.957   2.045   5.391
12808TIP3    H238310   9.095   1.996   5.424
12809TIP3   OH238311   8.414   1.710   6.652
12809TIP3    H138312   8.464   1.694   6.735
12809TIP3    H238313   8.340   1.647   6.659
12810TIP3   OH238314   9.246   1.197   5.108
12810TIP3    H138315   9.221   1.179   5.015
12810TIP3    H238316   9.291   1.282   5.100
12811TIP3   OH238317   8.749   1.047   6.459
12811TIP3    H138318   8.692   1.071   6.534
12811TIP3    H238319   8.737   1.127   6.402
12812TIP3   OH238320   8.614   0.960   5.962
12812TIP3    H138321   8.539   0.906   5.994
12812TIP3    H238322   8.638   0.912   5.880
12813TIP3   OH238323   9.122   1.027   5.682
12813TIP3    H138324   9.057   1.098   5.662
12813TIP3    H238325   9.175   1.031   5.602
12814TIP3   OH238326   9.298   1.324   6.739
12814TIP3    H138327   9.300   1.293   6.832
12814TIP3    H238328   9.379   1.376   6.733
12815TIP3   OH238329   9.261   1.038   5.944
12815TIP3    H138330   9.219   1.085   5.869
12815TIP3    H238331   9.303   0.964   5.899
12816TIP3   OH238332   8.568   1.087   6.660
12816TIP3    H138333   8.588   1.143   6.736
12816TIP3    H238334   8.529   1.008   6.699
12817TIP3   OH238335   9.265   1.301   6.355
12817TIP3    H138336   9.308   1.233   6.298
12817TIP3    H238337   9.271   1.258   6.441
12818TIP3   OH238338   8.386   0.810   6.037
12818TIP3    H138339   8.291   0.827   6.014
12818TIP3    H238340   8.391   0.715   6.022
12819TIP3   OH238341   8.675   0.830   5.726
12819TIP3    H138342   8.759   0.804   5.687
12819TIP3    H238343   8.613   0.823   5.650
12820TIP3   OH238344   8.496   0.846   5.507
12820TIP3    H138345   8.435   0.797   5.447
12820TIP3    H238346   8.556   0.885   5.441
12821TIP3   OH238347   9.609   2.529   6.448
12821TIP3    H138348   9.614   2.545   6.352
12821TIP3    H238349   9.683   2.582   6.480
12822TIP3   OH238350   8.575   1.632   6.874
12822TIP3    H138351   8.656   1.662   6.920
12822TIP3    H238352   8.511   1.635   6.948
12823TIP3   OH238353   9.042   1.088   6.127
12823TIP3    H138354   9.114   1.049   6.074
12823TIP3    H238355   9.042   1.033   6.206
12824TIP3   OH238356   9.010   0.958   6.451
12824TIP3    H138357   8.928   1.008   6.442
12824TIP3    H238358   9.070   1.022   6.496
12825TIP3   OH238359   8.750   1.374   5.511
12825TIP3    H138360   8.679   1.307   5.501
12825TIP3    H238361   8.732   1.407   5.603
12826TIP3   OH238362   9.157   1.690   6.509
12826TIP3    H138363   9.180   1.672   6.601
12826TIP3    H238364   9.116   1.778   6.514
12827TIP3   OH238365   8.445   1.393   6.186
12827TIP3    H138366   8.484   1.367   6.100
12827TIP3    H238367   8.489   1.330   6.246
12828TIP3   OH238368   8.896   1.521   5.331
12828TIP3    H138369   8.850   1.608   5.337
12828TIP3    H238370   8.841   1.467   5.392
12829TIP3   OH238371   8.325   1.316   6.801
12829TIP3    H138372   8.349   1.302   6.895
12829TIP3    H238373   8.255   1.250   6.788
12830TIP3   OH238374   9.047   1.428   6.819
12830TIP3    H138375   8.980   1.372   6.776
12830TIP3    H238376   9.127   1.404   6.769
12831TIP3   OH238377   9.310   1.950   6.406
12831TIP3    H138378   9.213   1.949   6.419
12831TIP3    H238379   9.338   2.004   6.482
12832TIP3   OH238380   9.433   1.815   5.199
12832TIP3    H138381   9.418   1.794   5.293
12832TIP3    H238382   9.362   1.766   5.157
12833TIP3   OH238383   9.385   1.483   6.063
12833TIP3    H138384   9.302   1.431   6.064
12833TIP3    H238385   9.453   1.417   6.048
12834TIP3   OH238386   8.546   1.698   5.811
12834TIP3    H138387   8.545   1.780   5.758
12834TIP3    H238388   8.451   1.682   5.824
12835TIP3   OH238389   8.109   1.000   5.515
12835TIP3    H138390   8.157   1.083   5.535
12835TIP3    H238391   8.034   1.007   5.578
12836TIP3   OH238392   8.686   1.465   5.756
12836TIP3    H138393   8.649   1.553   5.776
12836TIP3    H238394   8.651   1.412   5.831
12837TIP3   OH238395   8.815   2.043   6.282
12837TIP3    H138396   8.857   2.115   6.231
12837TIP3    H238397   8.892   2.006   6.329
12838TIP3   OH238398   8.465   1.938   5.664
12838TIP3    H138399   8.379   1.946   5.711
12838TIP3    H238400   8.497   2.030   5.668
12839TIP3   OH238401   9.203   1.678   6.235
12839TIP3    H138402   9.203   1.669   6.333
12839TIP3    H238403   9.280   1.624   6.209
12840TIP3   OH238404   9.170   1.573   5.128
12840TIP3    H138405   9.228   1.540   5.201
12840TIP3    H238406   9.083   1.550   5.162
12841TIP3   OH238407   9.439   2.211   6.294
12841TIP3    H138408   9.360   2.156   6.278
12841TIP3    H238409   9.434   2.274   6.219
12842TIP3   OH238410   9.342   1.484   5.328
12842TIP3    H138411   9.330   1.424   5.403
12842TIP3    H238412   9.419   1.536   5.359
12843TIP3   OH238413   8.254   1.905   6.440
12843TIP3    H138414   8.308   1.831   6.473
12843TIP3    H238415   8.281   1.976   6.500
12844TIP3   OH238416   8.545   1.549   5.122
12844TIP3    H138417   8.558   1.456   5.096
12844TIP3    H238418   8.525   1.539   5.218
12845TIP3   OH238419   8.490   1.555   5.394
12845TIP3    H138420   8.559   1.526   5.455
12845TIP3    H238421   8.494   1.653   5.402
12846TIP3   OH238422   8.220   1.246   5.596
12846TIP3    H138423   8.157   1.292   5.655
12846TIP3    H238424   8.237   1.317   5.531
12847TIP3   OH238425   8.756   1.752   5.343
12847TIP3    H138426   8.669   1.777   5.380
12847TIP3    H238427   8.772   1.827   5.283
12848TIP3   OH238428   8.972   0.806   5.756
12848TIP3    H138429   9.011   0.894   5.739
12848TIP3    H238430   8.924   0.820   5.839
12849TIP3   OH238431   9.194   1.112   6.593
12849TIP3    H138432   9.229   1.186   6.647
12849TIP3    H238433   9.275   1.066   6.563
12850TIP3   OH238434   8.499   1.827   5.412
12850TIP3    H138435   8.469   1.897   5.349
12850TIP3    H238436   8.483   1.870   5.498
12851TIP3   OH238437   8.216   1.458   5.403
12851TIP3    H138438   8.281   1.530   5.414
12851TIP3    H238439   8.263   1.403   5.337
12852TIP3   OH238440   8.132   0.707   5.523
12852TIP3    H138441   8.180   0.792   5.522
12852TIP3    H238442   8.052   0.733   5.570
12853TIP3   OH238443   9.489   2.189   5.896
12853TIP3    H138444   9.457   2.241   5.819
12853TIP3    H238445   9.567   2.141   5.858
12854TIP3   OH238446   8.087   1.670   5.791
12854TIP3    H138447   8.017   1.702   5.850
12854TIP3    H238448   8.060   1.712   5.706
12855TIP3   OH238449   8.244   2.214   6.863
12855TIP3    H138450   8.331   2.214   6.910
12855TIP3    H238451   8.224   2.119   6.862
12856TIP3   OH238452   8.726   2.178   6.908
12856TIP3    H138453   8.821   2.158   6.914
12856TIP3    H238454   8.700   2.119   6.834
12857TIP3   OH238455   8.706   1.754   5.035
12857TIP3    H138456   8.650   1.683   5.074
12857TIP3    H238457   8.782   1.701   5.003
12858TIP3   OH238458   9.361   2.087   6.643
12858TIP3    H138459   9.353   2.014   6.708
12858TIP3    H238460   9.439   2.135   6.674
12859TIP3   OH238461   9.145   1.791   4.959
12859TIP3    H138462   9.175   1.708   5.001
12859TIP3    H238463   9.184   1.788   4.869
12860TIP3   OH238464   8.375   1.619   7.065
12860TIP3    H138465   8.392   1.523   7.070
12860TIP3    H238466   8.289   1.621   7.019
12861TIP3   OH238467   8.352   1.270   5.257
12861TIP3    H138468   8.406   1.236   5.330
12861TIP3    H238469   8.421   1.275   5.187
12862TIP3   OH238470   8.982   1.705   6.838
12862TIP3    H138471   8.941   1.722   6.750
12862TIP3    H238472   9.013   1.612   6.829
12863TIP3   OH238473   8.861   1.469   5.063
12863TIP3    H138474   8.863   1.482   5.160
12863TIP3    H238475   8.859   1.371   5.059
12864TIP3   OH238476   9.480   1.720   6.438
12864TIP3    H138477   9.532   1.754   6.364
12864TIP3    H238478   9.403   1.778   6.435
12865TIP3   OH238479   8.491   1.343   7.048
12865TIP3    H138480   8.572   1.297   7.024
12865TIP3    H238481   8.517   1.379   7.136
12866TIP3   OH238482   8.560   1.175   5.480
12866TIP3    H138483   8.535   1.135   5.565
12866TIP3    H238484   8.595   1.099   5.430
12867TIP3   OH238485   8.826   1.279   6.688
12867TIP3    H138486   8.744   1.332   6.684
12867TIP3    H238487   8.876   1.309   6.608
12868TIP3   OH238488   8.659   0.970   5.321
12868TIP3    H138489   8.634   0.970   5.226
12868TIP3    H238490   8.756   0.975   5.314
12869TIP3   OH238491   9.344   1.637   6.837
12869TIP3    H138492   9.437   1.637   6.808
12869TIP3    H238493   9.349   1.580   6.916
12870TIP3   OH238494   8.895   1.075   6.837
12870TIP3    H138495   8.918   1.003   6.772
12870TIP3    H238496   8.866   1.145   6.778
12871TIP3   OH238497   9.001   1.357   6.495
12871TIP3    H138498   9.082   1.361   6.441
12871TIP3    H238499   8.944   1.423   6.451
12872TIP3   OH238500   9.618   1.571   6.618
12872TIP3    H138501   9.558   1.627   6.564
12872TIP3    H238502   9.703   1.592   6.575
12873TIP3   OH238503   8.797   1.166   7.072
12873TIP3    H138504   8.732   1.094   7.076
12873TIP3    H238505   8.845   1.140   6.991
12874TIP3   OH238506   9.299   1.187   6.978
12874TIP3    H138507   9.210   1.175   7.014
12874TIP3    H238508   9.312   1.102   6.931
12875TIP3   OH238509   8.468   2.030   5.224
12875TIP3    H138510   8.563   2.025   5.205
12875TIP3    H238511   8.438   2.080   5.145
12876TIP3   OH238512   7.948   1.413   5.439
12876TIP3    H138513   8.043   1.435   5.427
12876TIP3    H238514   7.943   1.324   5.399
12877TIP3   OH238515   7.864   2.024   5.853
12877TIP3    H138516   7.796   1.963   5.817
12877TIP3    H238517   7.907   1.967   5.919
12878TIP3   OH238518   8.000   1.875   6.040
12878TIP3    H138519   7.985   1.803   6.103
12878TIP3    H238520   8.050   1.937   6.096
12879TIP3   OH238521   9.605   1.990   6.173
12879TIP3    H138522   9.538   2.054   6.202
12879TIP3    H238523   9.563   1.947   6.097
12880TIP3   OH238524   8.185   1.277   6.415
12880TIP3    H138525   8.184   1.249   6.321
12880TIP3    H238526   8.282   1.284   6.430
12881TIP3   OH238527   8.179   0.940   6.494
12881TIP3    H138528   8.224   0.927   6.408
12881TIP3    H238529   8.202   1.032   6.512
12882TIP3   OH238530   9.288   2.161   5.527
12882TIP3    H138531   9.324   2.131   5.440
12882TIP3    H238532   9.363   2.208   5.564
12883TIP3   OH238533   8.411   1.945   6.883
12883TIP3    H138534   8.318   1.919   6.867
12883TIP3    H238535   8.419   1.930   6.978
12884TIP3   OH238536   8.589   1.979   6.431
12884TIP3    H138537   8.540   2.054   6.391
12884TIP3    H238538   8.675   1.993   6.386
12885TIP3   OH238539   9.034   2.224   6.570
12885TIP3    H138540   9.077   2.225   6.658
12885TIP3    H238541   9.100   2.273   6.516
12886TIP3   OH238542   9.212   2.375   6.426
12886TIP3    H138543   9.283   2.323   6.384
12886TIP3    H238544   9.264   2.431   6.487
12887TIP3   OH238545   8.265   2.236   6.454
12887TIP3    H138546   8.175   2.269   6.431
12887TIP3    H238547   8.275   2.274   6.542
12888TIP3   OH238548   8.501   2.215   6.312
12888TIP3    H138549   8.415   2.227   6.357
12888TIP3    H238550   8.481   2.247   6.222
12889TIP3   OH238551   8.927   2.244   6.109
12889TIP3    H138552   8.856   2.264   6.045
12889TIP3    H238553   8.939   2.331   6.153
12890TIP3   OH238554   9.194   2.182   6.163
12890TIP3    H138555   9.101   2.201   6.140
12890TIP3    H238556   9.240   2.257   6.121
12891TIP3   OH238557   9.396   2.373   6.078
12891TIP3    H138558   9.384   2.457   6.030
12891TIP3    H238559   9.433   2.314   6.009
12892TIP3   OH238560   8.177   2.030   6.198
12892TIP3    H138561   8.202   2.004   6.289
12892TIP3    H238562   8.249   1.985   6.148
12893TIP3   OH238563   8.371   1.900   6.056
12893TIP3    H138564   8.386   1.816   6.105
12893TIP3    H238565   8.462   1.937   6.052
12894TIP3   OH238566   8.637   1.996   6.059
12894TIP3    H138567   8.668   1.904   6.047
12894TIP3    H238568   8.681   2.017   6.143
12895TIP3   OH238569   7.965   1.801   5.589
12895TIP3    H138570   7.879   1.769   5.556
12895TIP3    H238571   7.954   1.896   5.573
12896TIP3   OH238572   8.736   1.990   5.172
12896TIP3    H138573   8.824   2.012   5.136
12896TIP3    H238574   8.714   1.915   5.113
12897TIP3   OH238575   9.386   2.077   5.294
12897TIP3    H138576   9.424   1.995   5.257
12897TIP3    H238577   9.364   2.126   5.212
12898TIP3   OH238578   8.039   1.826   5.228
12898TIP3    H138579   8.038   1.852   5.322
12898TIP3    H238580   8.128   1.786   5.218
12899TIP3   OH238581   9.649   2.258   6.469
12899TIP3    H138582   9.587   2.217   6.405
12899TIP3    H238583   9.625   2.353   6.456
12900TIP3   OH238584   1.606   2.157   7.420
12900TIP3    H138585   1.577   2.248   7.402
12900TIP3    H238586   1.526   2.108   7.394
12901TIP3   OH238587   1.604   2.155   7.803
12901TIP3    H138588   1.636   2.130   7.891
12901TIP3    H238589   1.560   2.073   7.774
12902TIP3   OH238590   0.944   2.090   8.178
12902TIP3    H138591   0.976   2.009   8.221
12902TIP3    H238592   1.027   2.132   8.151
12903TIP3   OH238593   1.847   2.458   7.484
12903TIP3    H138594   1.832   2.390   7.551
12903TIP3    H238595   1.875   2.534   7.539
12904TIP3   OH238596   0.873   2.457   7.892
12904TIP3    H138597   0.866   2.360   7.896
12904TIP3    H238598   0.969   2.468   7.886
12905TIP3   OH238599   1.494   2.920   7.498
12905TIP3    H138600   1.542   2.847   7.454
12905TIP3    H238601   1.484   2.888   7.588
12906TIP3   OH238602   1.401   2.381   7.852
12906TIP3    H138603   1.439   2.305   7.806
12906TIP3    H238604   1.485   2.427   7.876
12907TIP3   OH238605   2.414   1.703   7.849
12907TIP3    H138606   2.443   1.785   7.894
12907TIP3    H238607   2.436   1.723   7.757
12908TIP3   OH238608   1.819   1.885   7.882
12908TIP3    H138609   1.857   1.798   7.903
12908TIP3    H238610   1.783   1.869   7.793
12909TIP3   OH238611   1.848   1.632   7.471
12909TIP3    H138612   1.920   1.617   7.537
12909TIP3    H238613   1.899   1.670   7.398
12910TIP3   OH238614   1.240   1.954   7.748
12910TIP3    H138615   1.332   1.925   7.766
12910TIP3    H238616   1.200   1.867   7.722
12911TIP3   OH238617   2.487   1.909   8.019
12911TIP3    H138618   2.404   1.957   8.001
12911TIP3    H238619   2.503   1.934   8.111
12912TIP3   OH238620   1.498   2.380   7.290
12912TIP3    H138621   1.450   2.358   7.209
12912TIP3    H238622   1.454   2.463   7.316
12913TIP3   OH238623   1.256   2.303   8.079
12913TIP3    H138624   1.195   2.369   8.116
12913TIP3    H238625   1.299   2.353   8.007
12914TIP3   OH238626   2.058   1.634   7.645
12914TIP3    H138627   2.039   1.596   7.732
12914TIP3    H238628   2.109   1.714   7.669
12915TIP3   OH238629   1.081   2.495   8.179
12915TIP3    H138630   1.056   2.582   8.141
12915TIP3    H238631   0.999   2.474   8.230
12916TIP3   OH238632   0.518   2.197   7.400
12916TIP3    H138633   0.440   2.224   7.349
12916TIP3    H238634   0.523   2.267   7.466
12917TIP3   OH238635   1.918   2.701   7.651
12917TIP3    H138636   1.828   2.692   7.691
12917TIP3    H238637   1.909   2.788   7.607
12918TIP3   OH238638   2.207   1.599   8.012
12918TIP3    H138639   2.121   1.634   7.985
12918TIP3    H238640   2.267   1.635   7.943
12919TIP3   OH238641   1.621   2.745   7.327
12919TIP3    H138642   1.672   2.664   7.305
12919TIP3    H238643   1.681   2.812   7.286
12920TIP3   OH238644   1.765   2.531   7.231
12920TIP3    H138645   1.717   2.453   7.199
12920TIP3    H238646   1.800   2.498   7.317
12921TIP3   OH238647   2.143   2.614   7.996
12921TIP3    H138648   2.132   2.537   7.937
12921TIP3    H238649   2.125   2.689   7.935
12922TIP3   OH238650   1.433   2.006   7.252
12922TIP3    H138651   1.353   2.058   7.232
12922TIP3    H238652   1.480   2.008   7.167
12923TIP3   OH238653   1.395   1.794   6.966
12923TIP3    H138654   1.460   1.844   7.018
12923TIP3    H238655   1.454   1.731   6.920
12924TIP3   OH238656   2.338   2.251   7.840
12924TIP3    H138657   2.255   2.303   7.846
12924TIP3    H238658   2.368   2.276   7.750
12925TIP3   OH238659   1.782   2.090   7.224
12925TIP3    H138660   1.727   2.114   7.302
12925TIP3    H238661   1.866   2.065   7.268
12926TIP3   OH238662   2.017   2.130   8.137
12926TIP3    H138663   2.014   2.213   8.187
12926TIP3    H238664   1.930   2.133   8.092
12927TIP3   OH238665   1.027   2.103   7.652
12927TIP3    H138666   0.985   2.048   7.582
12927TIP3    H238667   1.102   2.046   7.679
12928TIP3   OH238668   1.142   2.495   7.792
12928TIP3    H138669   1.123   2.455   7.707
12928TIP3    H238670   1.233   2.464   7.810
12929TIP3   OH238671   1.143   2.076   7.972
12929TIP3    H138672   1.183   2.044   7.888
12929TIP3    H238673   1.198   2.154   7.995
12930TIP3   OH238674   1.678   2.697   7.772
12930TIP3    H138675   1.661   2.778   7.824
12930TIP3    H238676   1.661   2.625   7.836
12931TIP3   OH238677   1.288   2.616   8.321
12931TIP3    H138678   1.226   2.679   8.364
12931TIP3    H238679   1.225   2.562   8.270
12932TIP3   OH238680   1.624   1.947   7.050
12932TIP3    H138681   1.682   2.008   7.103
12932TIP3    H238682   1.650   1.972   6.958
12933TIP3   OH238683   1.048   2.184   8.428
12933TIP3    H138684   1.036   2.268   8.475
12933TIP3    H238685   0.960   2.167   8.391
12934TIP3   OH238686   1.366   2.628   7.323
12934TIP3    H138687   1.445   2.681   7.343
12934TIP3    H238688   1.304   2.694   7.290
12935TIP3   OH238689   1.083   2.785   8.405
12935TIP3    H138690   1.050   2.790   8.313
12935TIP3    H238691   1.002   2.762   8.455
12936TIP3   OH238692   2.139   1.190   7.099
12936TIP3    H138693   2.057   1.212   7.149
12936TIP3    H238694   2.153   1.273   7.049
12937TIP3   OH238695   0.920   1.962   7.440
12937TIP3    H138696   0.845   2.008   7.399
12937TIP3    H238697   0.878   1.876   7.460
12938TIP3   OH238698   1.937   2.556   6.645
12938TIP3    H138699   1.945   2.653   6.633
12938TIP3    H238700   2.030   2.527   6.634
12939TIP3   OH238701   0.504   2.508   7.993
12939TIP3    H138702   0.594   2.479   7.974
12939TIP3    H238703   0.524   2.589   8.044
12940TIP3   OH238704   2.381   2.959   8.042
12940TIP3    H138705   2.379   2.862   8.056
12940TIP3    H238706   2.297   2.984   8.088
12941TIP3   OH238707   1.488   2.743   8.178
12941TIP3    H138708   1.486   2.837   8.207
12941TIP3    H238709   1.414   2.705   8.230
12942TIP3   OH238710   1.247   2.875   7.128
12942TIP3    H138711   1.200   2.860   7.044
12942TIP3    H238712   1.215   2.963   7.155
12943TIP3   OH238713   0.685   2.723   7.512
12943TIP3    H138714   0.736   2.717   7.597
12943TIP3    H238715   0.627   2.646   7.522
12944TIP3   OH238716   1.448   2.775   6.768
12944TIP3    H138717   1.507   2.705   6.733
12944TIP3    H238718   1.482   2.785   6.859
12945TIP3   OH238719   1.498   2.822   7.038
12945TIP3    H138720   1.410   2.833   7.080
12945TIP3    H238721   1.550   2.786   7.111
12946TIP3   OH238722   2.271   2.091   8.314
12946TIP3    H138723   2.188   2.101   8.267
12946TIP3    H238724   2.286   1.995   8.308
12947TIP3   OH238725   0.859   2.477   8.349
12947TIP3    H138726   0.919   2.476   8.427
12947TIP3    H238727   0.783   2.428   8.384
12948TIP3   OH238728   1.790   1.430   8.335
12948TIP3    H138729   1.877   1.408   8.375
12948TIP3    H238730   1.737   1.444   8.414
12949TIP3   OH238731   2.037   1.865   8.235
12949TIP3    H138732   1.989   1.861   8.321
12949TIP3    H238733   2.014   1.954   8.202
12950TIP3   OH238734   1.697   1.994   6.794
12950TIP3    H138735   1.666   1.969   6.705
12950TIP3    H238736   1.778   2.043   6.772
12951TIP3   OH238737   1.402   1.375   7.098
12951TIP3    H138738   1.376   1.382   7.193
12951TIP3    H238739   1.387   1.281   7.086
12952TIP3   OH238740   1.248   1.875   8.128
12952TIP3    H138741   1.176   1.861   8.192
12952TIP3    H238742   1.208   1.939   8.067
12953TIP3   OH238743   1.119   1.727   7.665
12953TIP3    H138744   1.034   1.688   7.692
12953TIP3    H238745   1.123   1.691   7.573
12954TIP3   OH238746   1.578   1.814   7.386
12954TIP3    H138747   1.522   1.884   7.345
12954TIP3    H238748   1.629   1.782   7.309
12955TIP3   OH238749   1.747   2.088   8.474
12955TIP3    H138750   1.731   2.016   8.538
12955TIP3    H238751   1.841   2.106   8.492
12956TIP3   OH238752   1.732   1.837   7.625
12956TIP3    H138753   1.670   1.868   7.556
12956TIP3    H238754   1.762   1.755   7.581
12957TIP3   OH238755   1.743   2.085   8.045
12957TIP3    H138756   1.775   2.013   7.987
12957TIP3    H238757   1.714   2.033   8.123
12958TIP3   OH238758   1.416   1.558   7.715
12958TIP3    H138759   1.327   1.568   7.753
12958TIP3    H238760   1.472   1.559   7.794
12959TIP3   OH238761   1.114   1.623   7.414
12959TIP3    H138762   1.208   1.621   7.392
12959TIP3    H238763   1.069   1.629   7.328
12960TIP3   OH238764   1.900   1.619   7.918
12960TIP3    H138765   1.873   1.633   8.012
12960TIP3    H238766   1.829   1.558   7.889
12961TIP3   OH238767   0.945   1.637   7.194
12961TIP3    H138768   0.893   1.559   7.168
12961TIP3    H238769   0.992   1.662   7.112
12962TIP3   OH238770   2.071   3.309   8.140
12962TIP3    H138771   2.067   3.334   8.046
12962TIP3    H238772   2.148   3.360   8.171
12963TIP3   OH238773   1.017   2.421   8.573
12963TIP3    H138774   1.105   2.449   8.607
12963TIP3    H238775   0.967   2.423   8.655
12964TIP3   OH238776   1.497   1.878   7.821
12964TIP3    H138777   1.566   1.830   7.773
12964TIP3    H238778   1.500   1.834   7.909
12965TIP3   OH238779   1.486   1.763   8.083
12965TIP3    H138780   1.402   1.805   8.111
12965TIP3    H238781   1.547   1.801   8.149
12966TIP3   OH238782   1.205   2.160   7.201
12966TIP3    H138783   1.132   2.095   7.190
12966TIP3    H238784   1.187   2.194   7.292
12967TIP3   OH238785   2.106   2.396   7.831
12967TIP3    H138786   2.129   2.447   7.750
12967TIP3    H238787   2.020   2.355   7.806
12968TIP3   OH238788   1.659   1.474   7.060
12968TIP3    H138789   1.562   1.462   7.071
12968TIP3    H238790   1.673   1.567   7.086
12969TIP3   OH238791   1.606   2.480   8.197
12969TIP3    H138792   1.626   2.455   8.288
12969TIP3    H238793   1.568   2.569   8.207
12970TIP3   OH238794   1.734   1.718   7.164
12970TIP3    H138795   1.829   1.726   7.183
12970TIP3    H238796   1.715   1.800   7.115
12971TIP3   OH238797   0.891   2.179   7.883
12971TIP3    H138798   0.927   2.154   7.795
12971TIP3    H238799   0.960   2.141   7.940
12972TIP3   OH238800   1.348   2.309   7.020
12972TIP3    H138801   1.301   2.395   7.026
12972TIP3    H238802   1.295   2.255   7.083
12973TIP3   OH238803   1.504   2.220   8.507
12973TIP3    H138804   1.447   2.164   8.453
12973TIP3    H238805   1.592   2.185   8.484
12974TIP3   OH238806   1.766   2.738   8.096
12974TIP3    H138807   1.670   2.736   8.107
12974TIP3    H238808   1.792   2.792   8.174
12975TIP3   OH238809   2.175   1.811   7.004
12975TIP3    H138810   2.112   1.766   6.942
12975TIP3    H238811   2.172   1.900   6.964
12976TIP3   OH238812   2.394   2.668   8.084
12976TIP3    H138813   2.296   2.663   8.076
12976TIP3    H238814   2.419   2.638   7.994
12977TIP3   OH238815   1.875   2.630   6.911
12977TIP3    H138816   1.849   2.562   6.976
12977TIP3    H238817   1.887   2.580   6.829
12978TIP3   OH238818   1.871   2.259   7.749
12978TIP3    H138819   1.778   2.234   7.763
12978TIP3    H238820   1.905   2.179   7.705
12979TIP3   OH238821   0.999   2.486   7.500
12979TIP3    H138822   0.999   2.569   7.449
12979TIP3    H238823   0.905   2.473   7.516
12980TIP3   OH238824   1.138   2.254   7.444
12980TIP3    H138825   1.101   2.342   7.463
12980TIP3    H238826   1.108   2.203   7.522
12981TIP3   OH238827   1.267   2.829   7.972
12981TIP3    H138828   1.304   2.905   7.922
12981TIP3    H238829   1.347   2.797   8.018
12982TIP3   OH238830   0.918   2.726   7.353
12982TIP3    H138831   0.833   2.736   7.401
12982TIP3    H238832   0.951   2.818   7.358
12983TIP3   OH238833   1.656   2.464   7.930
12983TIP3    H138834   1.646   2.463   8.028
12983TIP3    H238835   1.736   2.411   7.918
12984TIP3   OH238836   1.630   2.356   6.814
12984TIP3    H138837   1.685   2.331   6.892
12984TIP3    H238838   1.542   2.332   6.846
12985TIP3   OH238839   1.904   2.998   7.980
12985TIP3    H138840   1.824   2.942   7.972
12985TIP3    H238841   1.890   3.063   7.908
12986TIP3   OH238842   1.970   2.832   6.633
12986TIP3    H138843   2.008   2.906   6.583
12986TIP3    H238844   1.890   2.876   6.667
12987TIP3   OH238845   1.791   2.287   7.026
12987TIP3    H138846   1.781   2.224   7.101
12987TIP3    H238847   1.888   2.288   7.017
12988TIP3   OH238848   0.697   2.685   8.134
12988TIP3    H138849   0.766   2.625   8.166
12988TIP3    H238850   0.719   2.767   8.180
12989TIP3   OH238851   0.995   2.338   6.813
12989TIP3    H138852   1.013   2.246   6.787
12989TIP3    H238853   0.978   2.328   6.908
12990TIP3   OH238854   0.941   2.341   7.085
12990TIP3    H138855   1.012   2.315   7.145
12990TIP3    H238856   0.944   2.439   7.093
12991TIP3   OH238857   0.686   2.018   7.291
12991TIP3    H138858   0.627   2.073   7.347
12991TIP3    H238859   0.707   2.083   7.222
12992TIP3   OH238860   1.833   1.662   8.178
12992TIP3    H138861   1.905   1.709   8.222
12992TIP3    H238862   1.814   1.588   8.239
12993TIP3   OH238863   1.716   1.424   7.340
12993TIP3    H138864   1.697   1.451   7.248
12993TIP3    H238865   1.751   1.507   7.379
12994TIP3   OH238866   1.206   2.539   7.031
12994TIP3    H138867   1.120   2.565   7.070
12994TIP3    H238868   1.226   2.617   6.978
12995TIP3   OH238869   1.398   1.615   7.449
12995TIP3    H138870   1.462   1.688   7.435
12995TIP3    H238871   1.401   1.608   7.547
12996TIP3   OH238872   1.674   1.924   8.252
12996TIP3    H138873   1.680   1.980   8.332
12996TIP3    H238874   1.726   1.846   8.279
12997TIP3   OH238875   1.552   1.331   7.548
12997TIP3    H138876   1.525   1.405   7.604
12997TIP3    H238877   1.608   1.374   7.481
12998TIP3   OH238878   0.949   2.614   7.102
12998TIP3    H138879   0.920   2.685   7.040
12998TIP3    H238880   0.935   2.658   7.188
12999TIP3   OH238881   2.304   1.823   8.236
12999TIP3    H138882   2.206   1.821   8.243
12999TIP3    H238883   2.316   1.783   8.149
13000TIP3   OH238884   1.957   2.017   7.623
13000TIP3    H138885   1.880   1.959   7.638
13000TIP3    H238886   2.028   1.970   7.673
13001TIP3   OH238887   0.663   2.248   7.088
13001TIP3    H138888   0.728   2.318   7.106
13001TIP3    H238889   0.715   2.195   7.024
13002TIP3   OH238890   1.925   2.972   7.573
13002TIP3    H138891   1.882   3.018   7.498
13002TIP3    H238892   2.020   2.991   7.552
13003TIP3   OH238893   0.541   2.469   7.501
13003TIP3    H138894   0.455   2.503   7.529
13003TIP3    H238895   0.539   2.491   7.406
13004TIP3   OH238896   0.718   3.012   8.532
13004TIP3    H138897   0.792   3.013   8.596
13004TIP3    H238898   0.679   2.925   8.547
13005TIP3   OH238899   1.176   2.967   8.598
13005TIP3    H138900   1.272   2.953   8.602
13005TIP3    H238901   1.152   2.910   8.522
13006TIP3   OH238902   1.158   2.542   6.723
13006TIP3    H138903   1.103   2.471   6.764
13006TIP3    H238904   1.235   2.489   6.695
13007TIP3   OH238905   1.814   2.877   8.333
13007TIP3    H138906   1.808   2.803   8.398
13007TIP3    H238907   1.895   2.923   8.361
13008TIP3   OH238908   1.595   2.581   6.636
13008TIP3    H138909   1.640   2.519   6.696
13008TIP3    H238910   1.654   2.581   6.558
13009TIP3   OH238911   0.810   2.054   6.950
13009TIP3    H138912   0.866   2.026   7.025
13009TIP3    H238913   0.878   2.060   6.879
13010TIP3   OH238914   1.440   2.493   8.524
13010TIP3    H138915   1.396   2.508   8.437
13010TIP3    H238916   1.469   2.400   8.516
13011TIP3   OH238917   1.311   2.256   6.752
13011TIP3    H138918   1.316   2.270   6.849
13011TIP3    H238919   1.312   2.158   6.748
13012TIP3   OH238920   1.928   2.501   8.133
13012TIP3    H138921   2.002   2.546   8.089
13012TIP3    H238922   1.856   2.566   8.120
13013TIP3   OH238923   1.007   1.962   7.160
13013TIP3    H138924   0.988   1.933   7.251
13013TIP3    H238925   1.045   1.880   7.121
13014TIP3   OH238926   1.269   2.025   8.399
13014TIP3    H138927   1.201   2.096   8.406
13014TIP3    H238928   1.321   2.053   8.321
13015TIP3   OH238929   1.116   1.747   7.004
13015TIP3    H138930   1.093   1.758   6.910
13015TIP3    H238931   1.214   1.759   7.001
13016TIP3   OH238932   1.800   2.428   8.532
13016TIP3    H138933   1.878   2.401   8.483
13016TIP3    H238934   1.798   2.362   8.604
13017TIP3   OH238935   1.935   2.087   6.672
13017TIP3    H138936   1.913   2.041   6.588
13017TIP3    H238937   1.902   2.177   6.650
13018TIP3   OH238938   1.446   1.826   8.499
13018TIP3    H138939   1.389   1.755   8.465
13018TIP3    H238940   1.382   1.900   8.491
13019TIP3   OH238941   1.436   2.144   8.216
13019TIP3    H138942   1.514   2.138   8.160
13019TIP3    H238943   1.379   2.207   8.166
13020TIP3   OH238944   2.014   2.103   8.579
13020TIP3    H138945   2.062   2.025   8.610
13020TIP3    H238946   2.086   2.161   8.549
13021TIP3   OH238947   2.057   2.358   8.322
13021TIP3    H138948   2.000   2.411   8.262
13021TIP3    H238949   2.145   2.377   8.282
13022TIP3   OH238950   1.683   1.870   8.625
13022TIP3    H138951   1.647   1.894   8.711
13022TIP3    H238952   1.600   1.848   8.576
13023TIP3   OH238953   1.902   1.809   8.462
13023TIP3    H138954   1.833   1.820   8.531
13023TIP3    H238955   1.981   1.784   8.516
13024TIP3   OH238956   2.130   1.752   8.611
13024TIP3    H138957   2.147   1.659   8.637
13024TIP3    H238958   2.119   1.796   8.698
13025TIP3   OH238959   0.919   2.814   6.911
13025TIP3    H138960   1.015   2.811   6.895
13025TIP3    H238961   0.891   2.868   6.834
13026TIP3   OH238962   0.399   2.173   7.140
13026TIP3    H138963   0.488   2.215   7.133
13026TIP3    H238964   0.419   2.084   7.106
13027TIP3   OH238965   0.324   2.804   7.528
13027TIP3    H138966   0.235   2.769   7.528
13027TIP3    H238967   0.364   2.758   7.606
13028TIP3   OH238968   0.439   2.672   7.735
13028TIP3    H138969   0.447   2.595   7.792
13028TIP3    H238970   0.496   2.735   7.785
13029TIP3   OH238971   2.179   3.061   7.530
13029TIP3    H138972   2.202   3.096   7.619
13029TIP3    H238973   2.238   3.112   7.473
13030TIP3   OH238974   2.207   3.083   7.812
13030TIP3    H138975   2.163   2.995   7.808
13030TIP3    H238976   2.282   3.062   7.869
13031TIP3   OH238977   2.254   2.761   8.385
13031TIP3    H138978   2.180   2.770   8.447
13031TIP3    H238979   2.296   2.850   8.390
13032TIP3   OH238980   2.071   2.273   7.005
13032TIP3    H138981   2.138   2.338   6.977
13032TIP3    H238982   2.113   2.235   7.085
13033TIP3   OH238983   2.197   2.141   7.209
13033TIP3    H138984   2.131   2.099   7.269
13033TIP3    H238985   2.262   2.179   7.272
13034TIP3   OH238986   2.252   2.533   7.641
13034TIP3    H138987   2.305   2.468   7.591
13034TIP3    H238988   2.244   2.607   7.578
13035TIP3   OH238989   2.083   2.833   7.836
13035TIP3    H138990   2.011   2.876   7.887
13035TIP3    H238991   2.032   2.786   7.766
13036TIP3   OH238992   2.136   2.049   6.855
13036TIP3    H138993   2.064   2.052   6.788
13036TIP3    H238994   2.109   2.124   6.912
13037TIP3   OH238995   2.006   1.722   6.810
13037TIP3    H138996   1.964   1.761   6.733
13037TIP3    H238997   1.981   1.628   6.801
13038TIP3   OH238998   2.012   1.998   7.355
13038TIP3    H138999   2.019   1.901   7.351
13038TIP3    H239000   1.997   2.013   7.451
13039TIP3   OH239001   2.301   2.422   8.213
13039TIP3    H139002   2.373   2.356   8.204
13039TIP3    H239003   2.328   2.491   8.150
13040TIP3   OH239004   2.487   2.228   8.228
13040TIP3    H139005   2.412   2.178   8.267
13040TIP3    H239006   2.560   2.164   8.243
13041TIP3   OH239007   1.950   1.456   6.796
13041TIP3    H139008   2.027   1.426   6.849
13041TIP3    H239009   1.879   1.396   6.822
13042TIP3   OH239010   2.007   1.714   7.250
13042TIP3    H139011   2.048   1.625   7.265
13042TIP3    H239012   2.066   1.747   7.181
13043TIP3   OH239013   2.169   1.886   7.745
13043TIP3    H139014   2.255   1.913   7.705
13043TIP3    H239015   2.181   1.924   7.834
13044TIP3   OH239016   2.237   2.031   7.976
13044TIP3    H139017   2.160   2.065   8.026
13044TIP3    H239018   2.270   2.112   7.932
13045TIP3   OH239019   2.677   1.611   8.531
13045TIP3    H139020   2.745   1.555   8.489
13045TIP3    H239021   2.660   1.678   8.462
13046TIP3   OH239022   2.118   1.465   7.287
13046TIP3    H139023   2.166   1.449   7.371
13046TIP3    H239024   2.057   1.388   7.286
13047TIP3   OH239025   2.563   1.766   8.336
13047TIP3    H139026   2.477   1.804   8.362
13047TIP3    H239027   2.532   1.691   8.281
13048TIP3   OH239028   2.197   1.399   6.920
13048TIP3    H139029   2.238   1.327   6.868
13048TIP3    H239030   2.265   1.469   6.916
13049TIP3   OH239031   1.761   2.929   7.186
13049TIP3    H139032   1.816   2.919   7.105
13049TIP3    H239033   1.810   2.997   7.235
13050TIP3   OH239034   0.860   2.719   8.565
13050TIP3    H139035   0.777   2.673   8.549
13050TIP3    H239036   0.863   2.730   8.660
13051TIP3   OH239037   1.041   2.765   8.121
13051TIP3    H139038   0.993   2.842   8.082
13051TIP3    H239039   1.126   2.779   8.075
13052TIP3   OH239040   1.486   3.009   8.257
13052TIP3    H139041   1.528   3.015   8.345
13052TIP3    H239042   1.549   3.060   8.202
13053TIP3   OH239043   1.666   3.160   8.120
13053TIP3    H139044   1.737   3.113   8.075
13053TIP3    H239045   1.717   3.220   8.179
13054TIP3   OH239046   2.461   1.525   8.216
13054TIP3    H139047   2.369   1.518   8.185
13054TIP3    H239048   2.493   1.433   8.206
13055TIP3   OH239049   0.715   3.014   8.150
13055TIP3    H139050   0.626   3.050   8.127
13055TIP3    H239051   0.731   3.064   8.231
13056TIP3   OH239052   0.951   2.993   8.000
13056TIP3    H139053   0.866   3.013   8.044
13056TIP3    H239054   0.937   3.032   7.911
13057TIP3   OH239055   1.379   3.032   7.799
13057TIP3    H139056   1.308   3.051   7.734
13057TIP3    H239057   1.389   3.119   7.842
13058TIP3   OH239058   1.647   2.970   7.850
13058TIP3    H139059   1.552   2.988   7.832
13058TIP3    H239060   1.689   3.048   7.811
13059TIP3   OH239061   1.857   3.162   7.767
13059TIP3    H139062   1.842   3.247   7.721
13059TIP3    H239063   1.881   3.103   7.693
13060TIP3   OH239064   0.625   2.811   7.883
13060TIP3    H139065   0.648   2.799   7.977
13060TIP3    H239066   0.703   2.770   7.840
13061TIP3   OH239067   0.824   2.686   7.743
13061TIP3    H139068   0.843   2.604   7.794
13061TIP3    H239069   0.914   2.727   7.739
13062TIP3   OH239070   1.087   2.780   7.748
13062TIP3    H139071   1.122   2.689   7.742
13062TIP3    H239072   1.128   2.809   7.831
13063TIP3   OH239073   1.676   1.438   7.836
13063TIP3    H139074   1.629   1.355   7.851
13063TIP3    H239075   1.751   1.408   7.781
13064TIP3   OH239076   2.187   1.312   7.738
13064TIP3    H139077   2.226   1.369   7.668
13064TIP3    H239078   2.094   1.340   7.737
13065TIP3   OH239079   2.282   1.420   7.505
13065TIP3    H139080   2.357   1.369   7.465
13065TIP3    H239081   2.315   1.512   7.491
13066TIP3   OH239082   1.904   1.325   7.718
13066TIP3    H139083   1.895   1.292   7.628
13066TIP3    H239084   1.887   1.244   7.771
13067TIP3   OH239085   1.933   1.253   7.276
13067TIP3    H139086   1.849   1.302   7.292
13067TIP3    H239087   1.913   1.168   7.319
13068TIP3   OH239088   0.401   2.587   7.289
13068TIP3    H139089   0.349   2.552   7.217
13068TIP3    H239090   0.396   2.683   7.270
13069TIP3   OH239091   1.342   1.366   7.362
13069TIP3    H139092   1.383   1.322   7.438
13069TIP3    H239093   1.355   1.460   7.389
13070TIP3   OH239094   1.188   2.777   6.862
13070TIP3    H139095   1.277   2.800   6.827
13070TIP3    H239096   1.167   2.702   6.802
13071TIP3   OH239097   1.910   2.897   6.954
13071TIP3    H139098   1.900   2.800   6.943
13071TIP3    H239099   1.862   2.929   6.875
13072TIP3   OH239100   0.490   2.607   6.922
13072TIP3    H139101   0.496   2.655   7.006
13072TIP3    H239102   0.581   2.572   6.910
13073TIP3   OH239103   2.200   1.481   8.654
13073TIP3    H139104   2.227   1.419   8.724
13073TIP3    H239105   2.282   1.485   8.601
13074TIP3   OH239106   2.133   3.040   8.143
13074TIP3    H139107   2.055   3.009   8.093
13074TIP3    H239108   2.115   3.136   8.146
13075TIP3   OH239109   3.402   2.413   6.907
13075TIP3    H139110   3.373   2.505   6.889
13075TIP3    H239111   3.325   2.364   6.876
13076TIP3   OH239112   3.399   2.412   7.290
13076TIP3    H139113   3.431   2.386   7.378
13076TIP3    H239114   3.357   2.330   7.259
13077TIP3   OH239115   2.699   2.307   7.654
13077TIP3    H139116   2.728   2.240   7.718
13077TIP3    H239117   2.776   2.365   7.652
13078TIP3   OH239118   3.642   2.718   6.970
13078TIP3    H139119   3.628   2.647   7.034
13078TIP3    H239120   3.672   2.792   7.027
13079TIP3   OH239121   2.669   2.718   7.378
13079TIP3    H139122   2.661   2.620   7.381
13079TIP3    H239123   2.766   2.726   7.377
13080TIP3   OH239124   2.377   1.921   7.164
13080TIP3    H139125   2.329   2.004   7.181
13080TIP3    H239126   2.306   1.867   7.126
13081TIP3   OH239127   2.436   2.208   7.336
13081TIP3    H139128   2.484   2.131   7.373
13081TIP3    H239129   2.496   2.238   7.268
13082TIP3   OH239130   3.290   3.176   6.986
13082TIP3    H139131   3.339   3.104   6.941
13082TIP3    H239132   3.284   3.143   7.076
13083TIP3   OH239133   3.198   2.639   7.337
13083TIP3    H139134   3.237   2.561   7.293
13083TIP3    H239135   3.281   2.684   7.362
13084TIP3   OH239136   4.209   1.961   7.336
13084TIP3    H139137   4.240   2.041   7.384
13084TIP3    H239138   4.228   1.987   7.244
13085TIP3   OH239139   3.612   2.141   7.370
13085TIP3    H139140   3.652   2.055   7.391
13085TIP3    H239141   3.579   2.124   7.279
13086TIP3   OH239142   2.949   1.799   7.335
13086TIP3    H139143   2.928   1.872   7.273
13086TIP3    H239144   2.900   1.726   7.291
13087TIP3   OH239145   3.645   1.893   6.960
13087TIP3    H139146   3.718   1.873   7.022
13087TIP3    H239147   3.695   1.925   6.883
13088TIP3   OH239148   2.582   2.002   7.442
13088TIP3    H139149   2.664   1.982   7.491
13088TIP3    H239150   2.595   1.946   7.363
13089TIP3   OH239151   3.023   2.200   7.234
13089TIP3    H139152   3.116   2.174   7.249
13089TIP3    H239153   2.984   2.115   7.204
13090TIP3   OH239154   4.283   2.166   7.505
13090TIP3    H139155   4.199   2.213   7.488
13090TIP3    H239156   4.298   2.191   7.598
13091TIP3   OH239157   2.945   1.782   7.769
13091TIP3    H139158   2.884   1.820   7.703
13091TIP3    H239159   2.894   1.799   7.851
13092TIP3   OH239160   3.299   2.639   6.774
13092TIP3    H139161   3.245   2.610   6.700
13092TIP3    H239162   3.252   2.721   6.800
13093TIP3   OH239163   3.051   2.558   7.565
13093TIP3    H139164   2.989   2.624   7.603
13093TIP3    H239165   3.093   2.610   7.493
13094TIP3   OH239166   3.859   1.890   7.132
13094TIP3    H139167   3.835   1.848   7.216
13094TIP3    H239168   3.905   1.971   7.161
13095TIP3   OH239169   2.815   1.898   7.554
13095TIP3    H139170   2.877   1.970   7.578
13095TIP3    H239171   2.865   1.857   7.479
13096TIP3   OH239172   2.879   2.752   7.662
13096TIP3    H139173   2.853   2.839   7.625
13096TIP3    H239174   2.800   2.736   7.719
13097TIP3   OH239175   2.275   2.442   6.899
13097TIP3    H139176   2.232   2.471   6.816
13097TIP3    H239177   2.305   2.527   6.936
13098TIP3   OH239178   3.713   2.957   7.137
13098TIP3    H139179   3.623   2.949   7.178
13098TIP3    H239180   3.705   3.045   7.094
13099TIP3   OH239181   4.004   1.858   7.501
13099TIP3    H139182   3.916   1.889   7.472
13099TIP3    H239183   4.062   1.892   7.430
13100TIP3   OH239184   3.300   1.502   7.483
13100TIP3    H139185   3.287   1.407   7.502
13100TIP3    H239186   3.223   1.540   7.531
13101TIP3   OH239187   3.417   3.003   6.813
13101TIP3    H139188   3.468   2.921   6.793
13101TIP3    H239189   3.477   3.069   6.771
13102TIP3   OH239190   3.562   2.787   6.715
13102TIP3    H139191   3.507   2.712   6.692
13102TIP3    H239192   3.599   2.757   6.801
13103TIP3   OH239193   3.939   2.871   7.483
13103TIP3    H139194   3.928   2.793   7.424
13103TIP3    H239195   3.922   2.946   7.421
13104TIP3   OH239196   3.231   2.265   6.740
13104TIP3    H139197   3.150   2.315   6.716
13104TIP3    H239198   3.277   2.258   6.654
13105TIP3   OH239199   3.189   2.050   6.456
13105TIP3    H139200   3.258   2.099   6.503
13105TIP3    H239201   3.244   1.985   6.408
13106TIP3   OH239202   4.134   2.506   7.325
13106TIP3    H139203   4.051   2.559   7.332
13106TIP3    H239204   4.164   2.532   7.236
13107TIP3   OH239205   3.579   2.350   6.709
13107TIP3    H139206   3.524   2.373   6.787
13107TIP3    H239207   3.662   2.323   6.752
13108TIP3   OH239208   3.813   2.387   7.623
13108TIP3    H139209   3.811   2.470   7.674
13108TIP3    H239210   3.726   2.391   7.578
13109TIP3   OH239211   2.812   2.346   7.127
13109TIP3    H139212   2.770   2.287   7.061
13109TIP3    H239213   2.888   2.291   7.157
13110TIP3   OH239214   2.942   2.758   7.275
13110TIP3    H139215   2.920   2.712   7.193
13110TIP3    H239216   3.032   2.724   7.295
13111TIP3   OH239217   2.948   2.315   7.482
13111TIP3    H139218   2.981   2.295   7.392
13111TIP3    H239219   2.991   2.402   7.502
13112TIP3   OH239220   3.472   2.953   7.259
13112TIP3    H139221   3.459   3.034   7.312
13112TIP3    H239222   3.457   2.881   7.323
13113TIP3   OH239223   3.085   2.873   7.806
13113TIP3    H139224   3.025   2.935   7.853
13113TIP3    H239225   3.019   2.819   7.757
13114TIP3   OH239226   3.417   2.208   6.537
13114TIP3    H139227   3.477   2.266   6.589
13114TIP3    H239228   3.443   2.232   6.445
13115TIP3   OH239229   2.838   2.430   7.906
13115TIP3    H139230   2.843   2.516   7.952
13115TIP3    H239231   2.744   2.409   7.919
13116TIP3   OH239232   3.163   2.883   6.808
13116TIP3    H139233   3.241   2.937   6.830
13116TIP3    H239234   3.099   2.949   6.779
13117TIP3   OH239235   2.879   3.040   7.893
13117TIP3    H139236   2.843   3.040   7.803
13117TIP3    H239237   2.800   3.019   7.947
13118TIP3   OH239238   3.939   1.450   6.592
13118TIP3    H139239   3.852   1.467   6.634
13118TIP3    H239240   3.948   1.529   6.534
13119TIP3   OH239241   2.678   2.188   6.932
13119TIP3    H139242   2.610   2.232   6.876
13119TIP3    H239243   2.638   2.101   6.946
13120TIP3   OH239244   3.736   2.821   6.118
13120TIP3    H139245   3.749   2.919   6.120
13120TIP3    H239246   3.829   2.790   6.111
13121TIP3   OH239247   2.458   2.571   7.840
13121TIP3    H139248   2.391   2.549   7.772
13121TIP3    H239249   2.495   2.484   7.864
13122TIP3   OH239250   2.312   2.765   7.472
13122TIP3    H139251   2.408   2.761   7.466
13122TIP3    H239252   2.299   2.844   7.526
13123TIP3   OH239253   4.177   3.215   7.529
13123TIP3    H139254   4.175   3.119   7.543
13123TIP3    H239255   4.094   3.241   7.574
13124TIP3   OH239256   3.282   3.001   7.663
13124TIP3    H139257   3.281   3.094   7.696
13124TIP3    H239258   3.211   2.962   7.718
13125TIP3   OH239259   3.044   3.134   6.615
13125TIP3    H139260   2.990   3.117   6.535
13125TIP3    H239261   3.011   3.221   6.644
13126TIP3   OH239262   2.482   2.980   6.999
13126TIP3    H139263   2.529   2.971   7.085
13126TIP3    H239264   2.423   2.903   7.004
13127TIP3   OH239265   3.264   3.013   6.257
13127TIP3    H139266   3.287   2.925   6.290
13127TIP3    H239267   3.281   3.064   6.339
13128TIP3   OH239268   3.292   3.081   6.522
13128TIP3    H139269   3.205   3.091   6.566
13128TIP3    H239270   3.345   3.043   6.594
13129TIP3   OH239271   4.067   2.347   7.803
13129TIP3    H139272   3.984   2.358   7.753
13129TIP3    H239273   4.082   2.251   7.793
13130TIP3   OH239274   2.663   2.754   7.828
13130TIP3    H139275   2.712   2.738   7.911
13130TIP3    H239276   2.589   2.691   7.836
13131TIP3   OH239277   3.062   1.578   7.612
13131TIP3    H139278   2.973   1.548   7.586
13131TIP3    H239279   3.037   1.660   7.660
13132TIP3   OH239280   3.596   1.693   7.807
13132TIP3    H139281   3.665   1.665   7.871
13132TIP3    H239282   3.513   1.673   7.855
13133TIP3   OH239283   3.835   2.123   7.726
13133TIP3    H139284   3.786   2.118   7.811
13133TIP3    H239285   3.810   2.210   7.691
13134TIP3   OH239286   3.494   2.261   6.284
13134TIP3    H139287   3.459   2.228   6.199
13134TIP3    H239288   3.579   2.300   6.256
13135TIP3   OH239289   3.203   1.628   6.583
13135TIP3    H139290   3.171   1.623   6.675
13135TIP3    H239291   3.169   1.544   6.548
13136TIP3   OH239292   2.994   2.093   7.632
13136TIP3    H139293   2.944   2.114   7.713
13136TIP3    H239294   2.978   2.174   7.578
13137TIP3   OH239295   2.877   1.980   7.145
13137TIP3    H139296   2.785   1.953   7.163
13137TIP3    H239297   2.890   1.939   7.057
13138TIP3   OH239298   3.369   2.065   6.874
13138TIP3    H139299   3.317   2.136   6.831
13138TIP3    H239300   3.424   2.034   6.800
13139TIP3   OH239301   3.543   2.344   7.959
13139TIP3    H139302   3.520   2.271   8.021
13139TIP3    H239303   3.637   2.358   7.982
13140TIP3   OH239304   3.525   2.094   7.112
13140TIP3    H139305   3.464   2.122   7.041
13140TIP3    H239306   3.560   2.013   7.069
13141TIP3   OH239307   2.813   2.122   7.840
13141TIP3    H139308   2.840   2.185   7.908
13141TIP3    H239309   2.801   2.040   7.892
13142TIP3   OH239310   2.862   1.599   6.550
13142TIP3    H139311   2.855   1.597   6.647
13142TIP3    H239312   2.784   1.651   6.526
13143TIP3   OH239313   2.406   1.643   7.420
13143TIP3    H139314   2.480   1.676   7.475
13143TIP3    H239315   2.449   1.613   7.340
13144TIP3   OH239316   2.378   1.625   6.940
13144TIP3    H139317   2.424   1.663   6.862
13144TIP3    H239318   2.317   1.699   6.961
13145TIP3   OH239319   3.536   2.340   7.534
13145TIP3    H139320   3.569   2.268   7.476
13145TIP3    H239321   3.507   2.288   7.612
13146TIP3   OH239322   3.206   1.802   7.207
13146TIP3    H139323   3.123   1.800   7.259
13146TIP3    H239324   3.273   1.800   7.276
13147TIP3   OH239325   2.640   1.858   7.214
13147TIP3    H139326   2.545   1.865   7.187
13147TIP3    H239327   2.663   1.766   7.191
13148TIP3   OH239328   2.908   1.854   6.903
13148TIP3    H139329   3.002   1.868   6.882
13148TIP3    H239330   2.862   1.876   6.819
13149TIP3   OH239331   3.696   1.877   7.405
13149TIP3    H139332   3.665   1.889   7.498
13149TIP3    H239333   3.628   1.816   7.372
13150TIP3   OH239334   2.750   1.888   6.681
13150TIP3    H139335   2.678   1.843   6.633
13150TIP3    H239336   2.802   1.924   6.607
13151TIP3   OH239337   3.868   3.566   7.628
13151TIP3    H139338   3.865   3.591   7.533
13151TIP3    H239339   3.945   3.616   7.659
13152TIP3   OH239340   2.825   2.677   8.049
13152TIP3    H139341   2.904   2.707   8.097
13152TIP3    H239342   2.760   2.675   8.122
13153TIP3   OH239343   3.288   2.130   7.304
13153TIP3    H139344   3.360   2.089   7.255
13153TIP3    H239345   3.295   2.088   7.392
13154TIP3   OH239346   2.810   1.618   7.182
13154TIP3    H139347   2.777   1.539   7.229
13154TIP3    H239348   2.861   1.579   7.110
13155TIP3   OH239349   3.265   2.028   7.592
13155TIP3    H139350   3.175   2.063   7.608
13155TIP3    H239351   3.322   2.088   7.644
13156TIP3   OH239352   3.002   2.419   6.686
13156TIP3    H139353   2.931   2.353   6.676
13156TIP3    H239354   2.984   2.452   6.778
13157TIP3   OH239355   3.902   2.653   7.318
13157TIP3    H139356   3.926   2.703   7.237
13157TIP3    H239357   3.817   2.612   7.293
13158TIP3   OH239358   3.459   1.727   6.564
13158TIP3    H139359   3.362   1.710   6.563
13158TIP3    H239360   3.466   1.823   6.578
13159TIP3   OH239361   3.401   2.736   7.685
13159TIP3    H139362   3.424   2.713   7.776
13159TIP3    H239363   3.362   2.824   7.694
13160TIP3   OH239364   3.529   1.981   6.657
13160TIP3    H139365   3.626   1.984   6.670
13160TIP3    H239366   3.512   2.058   6.601
13161TIP3   OH239367   2.694   2.439   7.364
13161TIP3    H139368   2.733   2.410   7.280
13161TIP3    H239369   2.734   2.378   7.428
13162TIP3   OH239370   3.143   2.567   6.502
13162TIP3    H139371   3.097   2.653   6.513
13162TIP3    H239372   3.093   2.511   6.565
13163TIP3   OH239373   2.575   2.359   7.978
13163TIP3    H139374   2.595   2.346   8.072
13163TIP3    H239375   2.505   2.293   7.963
13164TIP3   OH239376   3.300   2.474   7.997
13164TIP3    H139377   3.240   2.414   7.950
13164TIP3    H239378   3.387   2.440   7.969
13165TIP3   OH239379   3.561   2.996   7.581
13165TIP3    H139380   3.465   2.994   7.594
13165TIP3    H239381   3.589   3.047   7.659
13166TIP3   OH239382   3.975   2.066   6.489
13166TIP3    H139383   3.912   2.019   6.429
13166TIP3    H239384   3.971   2.153   6.446
13167TIP3   OH239385   4.190   2.925   7.572
13167TIP3    H139386   4.092   2.919   7.563
13167TIP3    H239387   4.215   2.895   7.481
13168TIP3   OH239388   3.657   2.886   6.394
13168TIP3    H139389   3.643   2.826   6.469
13168TIP3    H239390   3.686   2.827   6.323
13169TIP3   OH239391   3.667   2.516   7.236
13169TIP3    H139392   3.574   2.491   7.250
13169TIP3    H239393   3.701   2.436   7.191
13170TIP3   OH239394   2.794   2.742   6.985
13170TIP3    H139395   2.791   2.825   6.935
13170TIP3    H239396   2.700   2.728   7.003
13171TIP3   OH239397   2.358   2.048   6.692
13171TIP3    H139398   2.404   2.131   6.714
13171TIP3    H239399   2.281   2.052   6.753
13172TIP3   OH239400   2.934   2.509   6.932
13172TIP3    H139401   2.897   2.598   6.951
13172TIP3    H239402   2.899   2.458   7.007
13173TIP3   OH239403   3.064   3.087   7.458
13173TIP3    H139404   3.105   3.160   7.409
13173TIP3    H239405   3.140   3.052   7.508
13174TIP3   OH239406   2.713   2.982   6.841
13174TIP3    H139407   2.628   2.990   6.888
13174TIP3    H239408   2.745   3.075   6.845
13175TIP3   OH239409   3.452   2.720   7.417
13175TIP3    H139410   3.442   2.720   7.515
13175TIP3    H239411   3.533   2.668   7.406
13176TIP3   OH239412   3.402   2.616   6.304
13176TIP3    H139413   3.469   2.598   6.375
13176TIP3    H239414   3.325   2.576   6.347
13177TIP3   OH239415   3.701   3.254   7.468
13177TIP3    H139416   3.622   3.197   7.461
13177TIP3    H239417   3.685   3.319   7.396
13178TIP3   OH239418   3.765   3.093   6.121
13178TIP3    H139419   3.809   3.164   6.071
13178TIP3    H239420   3.688   3.143   6.155
13179TIP3   OH239421   2.786   1.864   7.985
13179TIP3    H139422   2.690   1.869   8.002
13179TIP3    H239423   2.816   1.808   8.059
13180TIP3   OH239424   3.586   2.546   6.505
13180TIP3    H139425   3.572   2.484   6.579
13180TIP3    H239426   3.683   2.545   6.501
13181TIP3   OH239427   2.503   2.949   7.617
13181TIP3    H139428   2.556   2.875   7.653
13181TIP3    H239429   2.528   3.020   7.677
13182TIP3   OH239430   2.791   2.595   6.299
13182TIP3    H139431   2.805   2.503   6.272
13182TIP3    H239432   2.774   2.584   6.395
13183TIP3   OH239433   2.739   2.600   6.570
13183TIP3    H139434   2.806   2.570   6.633
13183TIP3    H239435   2.742   2.697   6.581
13184TIP3   OH239436   2.473   2.293   6.775
13184TIP3    H139437   2.407   2.337   6.833
13184TIP3    H239438   2.486   2.362   6.708
13185TIP3   OH239439   3.625   1.927   7.665
13185TIP3    H139440   3.703   1.967   7.708
13185TIP3    H239441   3.609   1.848   7.720
13186TIP3   OH239442   3.502   1.680   6.837
13186TIP3    H139443   3.487   1.699   6.742
13186TIP3    H239444   3.541   1.764   6.868
13187TIP3   OH239445   3.004   2.800   6.517
13187TIP3    H139446   2.918   2.819   6.559
13187TIP3    H239447   3.016   2.881   6.466
13188TIP3   OH239448   3.191   1.861   6.935
13188TIP3    H139449   3.257   1.932   6.917
13188TIP3    H239450   3.197   1.853   7.033
13189TIP3   OH239451   3.463   2.179   7.742
13189TIP3    H139452   3.482   2.233   7.821
13189TIP3    H239453   3.516   2.100   7.758
13190TIP3   OH239454   3.336   1.587   7.038
13190TIP3    H139455   3.328   1.665   7.096
13190TIP3    H239456   3.397   1.622   6.969
13191TIP3   OH239457   2.749   2.872   6.589
13191TIP3    H139458   2.717   2.941   6.527
13191TIP3    H239459   2.731   2.915   6.676
13192TIP3   OH239460   2.847   1.586   6.827
13192TIP3    H139461   2.846   1.676   6.863
13192TIP3    H239462   2.943   1.566   6.834
13193TIP3   OH239463   4.102   2.080   7.723
13193TIP3    H139464   4.004   2.078   7.731
13193TIP3    H239465   4.112   2.035   7.638
13194TIP3   OH239466   3.753   2.273   7.110
13194TIP3    H139467   3.676   2.215   7.123
13194TIP3    H239468   3.824   2.226   7.159
13195TIP3   OH239469   2.465   2.502   6.581
13195TIP3    H139470   2.530   2.573   6.590
13195TIP3    H239471   2.512   2.447   6.514
13196TIP3   OH239472   2.410   1.778   6.715
13196TIP3    H139473   2.409   1.876   6.711
13196TIP3    H239474   2.327   1.756   6.671
13197TIP3   OH239475   3.721   3.229   7.060
13197TIP3    H139476   3.679   3.275   6.984
13197TIP3    H239477   3.815   3.248   7.040
13198TIP3   OH239478   2.797   1.498   7.588
13198TIP3    H139479   2.766   1.464   7.502
13198TIP3    H239480   2.787   1.420   7.646
13199TIP3   OH239481   2.335   2.714   6.967
13199TIP3    H139482   2.268   2.746   7.028
13199TIP3    H239483   2.307   2.756   6.883
13200TIP3   OH239484   2.493   3.258   8.040
13200TIP3    H139485   2.579   3.257   8.087
13200TIP3    H239486   2.472   3.163   8.038
13201TIP3   OH239487   2.974   3.222   8.085
13201TIP3    H139488   3.069   3.203   8.091
13201TIP3    H239489   2.949   3.163   8.011
13202TIP3   OH239490   2.957   2.794   6.210
13202TIP3    H139491   2.892   2.734   6.253
13202TIP3    H239492   3.029   2.730   6.198
13203TIP3   OH239493   3.614   3.128   7.817
13203TIP3    H139494   3.605   3.059   7.886
13203TIP3    H239495   3.691   3.179   7.848
13204TIP3   OH239496   2.624   2.665   8.240
13204TIP3    H139497   2.640   2.569   8.246
13204TIP3    H239498   2.536   2.667   8.196
13205TIP3   OH239499   2.602   2.316   6.433
13205TIP3    H139500   2.655   2.281   6.506
13205TIP3    H239501   2.670   2.319   6.362
13206TIP3   OH239502   3.231   2.750   8.013
13206TIP3    H139503   3.189   2.766   7.927
13206TIP3    H239504   3.262   2.657   8.006
13207TIP3   OH239505   3.098   2.513   6.235
13207TIP3    H139506   3.103   2.525   6.332
13207TIP3    H239507   3.107   2.415   6.231
13208TIP3   OH239508   3.724   2.757   7.619
13208TIP3    H139509   3.798   2.803   7.576
13208TIP3    H239510   3.652   2.822   7.607
13209TIP3   OH239511   2.744   2.400   8.221
13209TIP3    H139512   2.817   2.340   8.202
13209TIP3    H239513   2.768   2.432   8.310
13210TIP3   OH239514   2.810   2.220   6.655
13210TIP3    H139515   2.782   2.179   6.738
13210TIP3    H239516   2.846   2.143   6.605
13211TIP3   OH239517   3.077   2.283   7.883
13211TIP3    H139518   3.000   2.343   7.885
13211TIP3    H239519   3.127   2.317   7.805
13212TIP3   OH239520   2.909   2.013   6.496
13212TIP3    H139521   2.884   2.014   6.402
13212TIP3    H239522   3.007   2.016   6.490
13213TIP3   OH239523   3.595   2.685   8.018
13213TIP3    H139524   3.675   2.660   7.970
13213TIP3    H239525   3.590   2.619   8.089
13214TIP3   OH239526   3.723   2.354   6.157
13214TIP3    H139527   3.705   2.294   6.082
13214TIP3    H239528   3.723   2.439   6.111
13215TIP3   OH239529   3.201   2.072   8.010
13215TIP3    H139530   3.201   1.991   7.954
13215TIP3    H239531   3.156   2.137   7.952
13216TIP3   OH239532   3.203   1.858   7.816
13216TIP3    H139533   3.231   1.898   7.732
13216TIP3    H239534   3.110   1.835   7.799
13217TIP3   OH239535   3.230   2.392   7.689
13217TIP3    H139536   3.314   2.402   7.643
13217TIP3    H239537   3.174   2.460   7.645
13218TIP3   OH239538   3.812   2.360   8.071
13218TIP3    H139539   3.860   2.276   8.084
13218TIP3    H239540   3.882   2.417   8.037
13219TIP3   OH239541   3.854   2.613   7.807
13219TIP3    H139542   3.796   2.667   7.748
13219TIP3    H239543   3.941   2.634   7.767
13220TIP3   OH239544   3.078   2.184   8.239
13220TIP3    H139545   3.010   2.116   8.256
13220TIP3    H239546   3.113   2.156   8.153
13221TIP3   OH239547   3.336   1.620   7.882
13221TIP3    H139548   3.286   1.703   7.862
13221TIP3    H239549   3.266   1.553   7.873
13222TIP3   OH239550   3.462   2.126   8.100
13222TIP3    H139551   3.450   2.112   8.196
13222TIP3    H239552   3.372   2.101   8.070
13223TIP3   OH239553   3.701   2.074   7.955
13223TIP3    H139554   3.626   2.076   8.017
13223TIP3    H239555   3.774   2.043   8.012
13224TIP3   OH239556   3.931   2.016   8.105
13224TIP3    H139557   3.943   1.920   8.123
13224TIP3    H239558   3.926   2.054   8.196
13225TIP3   OH239559   2.919   1.963   8.292
13225TIP3    H139560   2.924   1.871   8.260
13225TIP3    H239561   2.956   1.952   8.383
13226TIP3   OH239562   3.432   1.633   8.140
13226TIP3    H139563   3.498   1.561   8.137
13226TIP3    H239564   3.391   1.624   8.051
13227TIP3   OH239565   3.498   1.848   8.298
13227TIP3    H139566   3.475   1.776   8.235
13227TIP3    H239567   3.418   1.905   8.293
13228TIP3   OH239568   2.716   3.074   6.400
13228TIP3    H139569   2.811   3.072   6.380
13228TIP3    H239570   2.684   3.124   6.323
13229TIP3   OH239571   2.196   2.457   6.615
13229TIP3    H139572   2.291   2.478   6.603
13229TIP3    H239573   2.191   2.368   6.575
13230TIP3   OH239574   2.114   3.068   7.029
13230TIP3    H139575   2.045   3.008   6.994
13230TIP3    H239576   2.156   3.011   7.096
13231TIP3   OH239577   2.249   2.919   7.217
13231TIP3    H139578   2.234   2.847   7.281
13231TIP3    H239579   2.298   2.982   7.272
13232TIP3   OH239580   3.973   3.321   7.017
13232TIP3    H139581   3.999   3.353   7.105
13232TIP3    H239582   4.037   3.366   6.959
13233TIP3   OH239583   4.003   3.340   7.298
13233TIP3    H139584   3.960   3.252   7.295
13233TIP3    H239585   4.078   3.320   7.355
13234TIP3   OH239586   4.050   3.017   7.872
13234TIP3    H139587   3.977   3.026   7.937
13234TIP3    H239588   4.091   3.106   7.877
13235TIP3   OH239589   3.867   2.533   6.492
13235TIP3    H139590   3.937   2.595   6.465
13235TIP3    H239591   3.907   2.492   6.571
13236TIP3   OH239592   3.993   2.397   6.694
13236TIP3    H139593   3.927   2.355   6.754
13236TIP3    H239594   4.058   2.435   6.756
13237TIP3   OH239595   4.047   2.790   7.127
13237TIP3    H139596   4.101   2.725   7.078
13237TIP3    H239597   4.041   2.864   7.064
13238TIP3   OH239598   3.879   3.090   7.323
13238TIP3    H139599   3.808   3.132   7.375
13238TIP3    H239600   3.828   3.042   7.253
13239TIP3   OH239601   3.931   2.307   6.341
13239TIP3    H139602   3.856   2.308   6.279
13239TIP3    H239603   3.905   2.382   6.399
13240TIP3   OH239604   3.799   1.984   6.297
13240TIP3    H139605   3.765   2.007   6.210
13240TIP3    H239606   3.778   1.888   6.299
13241TIP3   OH239607   3.808   2.254   6.841
13241TIP3    H139608   3.812   2.157   6.833
13241TIP3    H239609   3.793   2.267   6.937
13242TIP3   OH239610   2.434   2.327   7.589
13242TIP3    H139611   2.432   2.297   7.496
13242TIP3    H239612   2.531   2.329   7.606
13243TIP3   OH239613   4.097   2.679   7.699
13243TIP3    H139614   4.170   2.613   7.690
13243TIP3    H239615   4.125   2.749   7.637
13244TIP3   OH239616   4.282   2.484   7.715
13244TIP3    H139617   4.207   2.434   7.754
13244TIP3    H239618   4.355   2.420   7.730
13245TIP3   OH239619   3.742   1.719   6.292
13245TIP3    H139620   3.815   1.677   6.341
13245TIP3    H239621   3.670   1.653   6.297
13246TIP3   OH239622   3.805   1.974   6.737
13246TIP3    H139623   3.840   1.883   6.755
13246TIP3    H239624   3.864   2.000   6.664
13247TIP3   OH239625   3.965   2.143   7.232
13247TIP3    H139626   4.051   2.170   7.192
13247TIP3    H239627   3.977   2.180   7.321
13248TIP3   OH239628   4.033   2.288   7.463
13248TIP3    H139629   3.956   2.321   7.513
13248TIP3    H239630   4.066   2.369   7.419
13249TIP3   OH239631   2.653   2.016   8.262
13249TIP3    H139632   2.751   2.009   8.267
13249TIP3    H239633   2.628   1.931   8.304
13250TIP3   OH239634   4.487   1.881   8.020
13250TIP3    H139635   4.545   1.813   7.979
13250TIP3    H239636   4.459   1.933   7.943
13251TIP3   OH239637   3.894   1.724   6.790
13251TIP3    H139638   3.953   1.701   6.864
13251TIP3    H239639   3.842   1.642   6.779
13252TIP3   OH239640   2.612   1.706   7.593
13252TIP3    H139641   2.675   1.632   7.605
13252TIP3    H239642   2.674   1.781   7.588
13253TIP3   OH239643   2.415   1.979   7.667
13253TIP3    H139644   2.465   1.976   7.583
13253TIP3    H239645   2.443   2.065   7.702
13254TIP3   OH239646   4.357   2.019   7.825
13254TIP3    H139647   4.271   2.058   7.847
13254TIP3    H239648   4.328   1.946   7.767
13255TIP3   OH239649   4.000   1.653   6.409
13255TIP3    H139650   4.039   1.585   6.350
13255TIP3    H239651   4.068   1.722   6.409
13256TIP3   OH239652   2.399   1.481   7.167
13256TIP3    H139653   2.306   1.481   7.195
13256TIP3    H239654   2.396   1.541   7.090
13257TIP3   OH239655   3.555   3.187   6.670
13257TIP3    H139656   3.612   3.177   6.592
13257TIP3    H239657   3.604   3.253   6.723
13258TIP3   OH239658   2.618   1.562   7.981
13258TIP3    H139659   2.570   1.559   8.066
13258TIP3    H239660   2.551   1.602   7.923
13259TIP3   OH239661   2.659   2.991   8.059
13259TIP3    H139662   2.567   2.964   8.043
13259TIP3    H239663   2.668   2.972   8.153
13260TIP3   OH239664   2.837   3.023   7.607
13260TIP3    H139665   2.788   3.098   7.568
13260TIP3    H239666   2.923   3.038   7.562
13261TIP3   OH239667   3.282   3.268   7.745
13261TIP3    H139668   3.324   3.269   7.834
13261TIP3    H239669   3.348   3.319   7.693
13262TIP3   OH239670   3.462   3.419   7.604
13262TIP3    H139671   3.534   3.369   7.564
13262TIP3    H239672   3.512   3.477   7.665
13263TIP3   OH239673   4.257   1.781   7.704
13263TIP3    H139674   4.165   1.771   7.673
13263TIP3    H239675   4.290   1.688   7.693
13264TIP3   OH239676   2.513   3.280   7.631
13264TIP3    H139677   2.424   3.313   7.608
13264TIP3    H239678   2.524   3.320   7.718
13265TIP3   OH239679   2.749   3.258   7.488
13265TIP3    H139680   2.663   3.271   7.534
13265TIP3    H239681   2.729   3.293   7.399
13266TIP3   OH239682   3.177   3.288   7.285
13266TIP3    H139683   3.105   3.309   7.222
13266TIP3    H239684   3.188   3.375   7.329
13267TIP3   OH239685   3.445   3.226   7.336
13267TIP3    H139686   3.350   3.245   7.318
13267TIP3    H239687   3.488   3.304   7.298
13268TIP3   OH239688   3.652   3.419   7.254
13268TIP3    H139689   3.638   3.503   7.206
13268TIP3    H239690   3.678   3.359   7.180
13269TIP3   OH239691   2.426   3.074   7.374
13269TIP3    H139692   2.450   3.049   7.466
13269TIP3    H239693   2.498   3.030   7.325
13270TIP3   OH239694   2.620   2.945   7.232
13270TIP3    H139695   2.634   2.861   7.282
13270TIP3    H239696   2.710   2.982   7.229
13271TIP3   OH239697   2.886   3.039   7.235
13271TIP3    H139698   2.917   2.947   7.226
13271TIP3    H239699   2.929   3.063   7.320
13272TIP3   OH239700   3.460   1.697   7.323
13272TIP3    H139701   3.416   1.628   7.376
13272TIP3    H239702   3.532   1.648   7.280
13273TIP3   OH239703   3.981   1.572   7.227
13273TIP3    H139704   4.018   1.627   7.154
13273TIP3    H239705   3.886   1.594   7.224
13274TIP3   OH239706   4.082   1.668   6.989
13274TIP3    H139707   4.160   1.625   6.951
13274TIP3    H239708   4.107   1.762   6.977
13275TIP3   OH239709   2.709   1.405   7.339
13275TIP3    H139710   2.617   1.372   7.340
13275TIP3    H239711   2.758   1.320   7.336
13276TIP3   OH239712   2.494   1.275   6.987
13276TIP3    H139713   2.526   1.332   6.915
13276TIP3    H239714   2.468   1.341   7.054
13277TIP3   OH239715   3.153   1.438   7.220
13277TIP3    H139716   3.211   1.487   7.160
13277TIP3    H239717   3.176   1.475   7.306
13278TIP3   OH239718   3.700   1.584   7.204
13278TIP3    H139719   3.691   1.550   7.115
13278TIP3    H239720   3.686   1.503   7.258
13279TIP3   OH239721   3.728   1.503   6.767
13279TIP3    H139722   3.642   1.547   6.773
13279TIP3    H239723   3.710   1.418   6.812
13280TIP3   OH239724   2.214   2.845   6.765
13280TIP3    H139725   2.128   2.813   6.732
13280TIP3    H239726   2.202   2.941   6.751
13281TIP3   OH239727   2.613   1.434   6.751
13281TIP3    H139728   2.661   1.371   6.693
13281TIP3    H239729   2.686   1.488   6.786
13282TIP3   OH239730   3.125   1.610   6.850
13282TIP3    H139731   3.185   1.562   6.910
13282TIP3    H239732   3.147   1.702   6.875
13283TIP3   OH239733   2.986   3.033   6.346
13283TIP3    H139734   3.069   3.063   6.305
13283TIP3    H239735   2.964   2.957   6.288
13284TIP3   OH239736   3.704   3.152   6.440
13284TIP3    H139737   3.691   3.055   6.427
13284TIP3    H239738   3.658   3.187   6.361
13285TIP3   OH239739   2.918   1.686   8.229
13285TIP3    H139740   2.882   1.617   8.287
13285TIP3    H239741   3.012   1.686   8.258
13286TIP3   OH239742   3.167   1.682   8.348
13286TIP3    H139743   3.252   1.655   8.312
13286TIP3    H239744   3.152   1.613   8.416
13287TIP3   OH239745   2.288   2.873   6.405
13287TIP3    H139746   2.285   2.897   6.499
13287TIP3    H239747   2.377   2.832   6.397
13288TIP3   OH239748   3.990   1.745   8.137
13288TIP3    H139749   4.009   1.712   8.228
13288TIP3    H239750   4.078   1.741   8.096
13289TIP3   OH239751   3.930   3.297   7.629
13289TIP3    H139752   3.851   3.266   7.581
13289TIP3    H239753   3.911   3.393   7.633
13290TIP3   OH239754   5.197   2.670   6.394
13290TIP3    H139755   5.168   2.761   6.375
13290TIP3    H239756   5.120   2.620   6.365
13291TIP3   OH239757   5.192   2.667   6.779
13291TIP3    H139758   5.227   2.638   6.865
13291TIP3    H239759   5.156   2.584   6.744
13292TIP3   OH239760   4.494   2.564   7.143
13292TIP3    H139761   4.523   2.498   7.208
13292TIP3    H239762   4.573   2.619   7.136
13293TIP3   OH239763   5.438   2.972   6.458
13293TIP3    H139764   5.425   2.902   6.524
13293TIP3    H239765   5.468   3.046   6.513
13294TIP3   OH239766   4.465   2.973   6.865
13294TIP3    H139767   4.457   2.875   6.868
13294TIP3    H239768   4.562   2.983   6.861
13295TIP3   OH239769   4.171   2.173   6.656
13295TIP3    H139770   4.124   2.258   6.669
13295TIP3    H239771   4.102   2.124   6.606
13296TIP3   OH239772   4.231   2.463   6.821
13296TIP3    H139773   4.282   2.388   6.860
13296TIP3    H239774   4.295   2.502   6.760
13297TIP3   OH239775   5.087   3.433   6.474
13297TIP3    H139776   5.133   3.362   6.425
13297TIP3    H239777   5.083   3.396   6.563
13298TIP3   OH239778   4.994   2.895   6.825
13298TIP3    H139779   5.033   2.817   6.781
13298TIP3    H239780   5.077   2.941   6.848
13299TIP3   OH239781   6.012   2.243   6.820
13299TIP3    H139782   5.975   2.331   6.800
13299TIP3    H239783   6.049   2.222   6.732
13300TIP3   OH239784   5.410   2.380   6.867
13300TIP3    H139785   5.382   2.291   6.898
13300TIP3    H239786   5.380   2.372   6.774
13301TIP3   OH239787   4.733   2.052   6.825
13301TIP3    H139788   4.728   2.125   6.760
13301TIP3    H239789   4.681   1.983   6.783
13302TIP3   OH239790   5.436   2.144   6.440
13302TIP3    H139791   5.503   2.131   6.511
13302TIP3    H239792   5.492   2.183   6.371
13303TIP3   OH239793   4.379   2.258   6.927
13303TIP3    H139794   4.461   2.243   6.979
13303TIP3    H239795   4.396   2.200   6.851
13304TIP3   OH239796   4.822   2.456   6.724
13304TIP3    H139797   4.916   2.432   6.739
13304TIP3    H239798   4.786   2.370   6.693
13305TIP3   OH239799   4.741   2.043   7.258
13305TIP3    H139800   4.681   2.083   7.192
13305TIP3    H239801   4.691   2.059   7.340
13306TIP3   OH239802   5.087   2.891   6.265
13306TIP3    H139803   5.045   2.872   6.180
13306TIP3    H239804   5.043   2.975   6.290
13307TIP3   OH239805   4.848   2.814   7.052
13307TIP3    H139806   4.786   2.881   7.089
13307TIP3    H239807   4.891   2.865   6.980
13308TIP3   OH239808   5.645   2.151   6.612
13308TIP3    H139809   5.645   2.082   6.679
13308TIP3    H239810   5.697   2.222   6.651
13309TIP3   OH239811   4.610   2.157   7.043
13309TIP3    H139812   4.671   2.230   7.068
13309TIP3    H239813   4.662   2.117   6.969
13310TIP3   OH239814   4.675   3.009   7.149
13310TIP3    H139815   4.650   3.096   7.111
13310TIP3    H239816   4.596   2.993   7.206
13311TIP3   OH239817   4.071   2.700   6.386
13311TIP3    H139818   4.033   2.731   6.303
13311TIP3    H239819   4.104   2.784   6.426
13312TIP3   OH239820   5.509   3.214   6.626
13312TIP3    H139821   5.419   3.206   6.664
13312TIP3    H239822   5.502   3.300   6.580
13313TIP3   OH239823   5.810   2.118   6.996
13313TIP3    H139824   5.720   2.153   6.986
13313TIP3    H239825   5.854   2.146   6.914
13314TIP3   OH239826   5.059   1.727   6.940
13314TIP3    H139827   5.075   1.648   6.994
13314TIP3    H239828   5.018   1.788   7.003
13315TIP3   OH239829   5.210   3.260   6.299
13315TIP3    H139830   5.261   3.178   6.278
13315TIP3    H239831   5.272   3.326   6.259
13316TIP3   OH239832   5.353   3.045   6.207
13316TIP3    H139833   5.317   2.965   6.168
13316TIP3    H239834   5.390   3.011   6.291
13317TIP3   OH239835   5.735   3.126   6.970
13317TIP3    H139836   5.724   3.050   6.909
13317TIP3    H239837   5.717   3.202   6.910
13318TIP3   OH239838   5.026   2.521   6.226
13318TIP3    H139839   4.947   2.574   6.203
13318TIP3    H239840   5.074   2.518   6.141
13319TIP3   OH239841   4.985   2.306   5.943
13319TIP3    H139842   5.052   2.356   5.992
13319TIP3    H239843   5.043   2.243   5.895
13320TIP3   OH239844   5.932   2.763   6.816
13320TIP3    H139845   5.847   2.813   6.821
13320TIP3    H239846   5.962   2.788   6.726
13321TIP3   OH239847   5.375   2.603   6.198
13321TIP3    H139848   5.320   2.627   6.276
13321TIP3    H239849   5.459   2.578   6.242
13322TIP3   OH239850   5.612   2.649   7.098
13322TIP3    H139851   5.603   2.731   7.150
13322TIP3    H239852   5.524   2.646   7.056
13323TIP3   OH239853   4.608   2.601   6.616
13323TIP3    H139854   4.568   2.543   6.548
13323TIP3    H239855   4.686   2.548   6.645
13324TIP3   OH239856   4.736   3.012   6.764
13324TIP3    H139857   4.718   2.971   6.678
13324TIP3    H239858   4.827   2.979   6.783
13325TIP3   OH239859   4.739   2.575   6.967
13325TIP3    H139860   4.778   2.549   6.881
13325TIP3    H239861   4.786   2.659   6.988
13326TIP3   OH239862   5.267   3.211   6.746
13326TIP3    H139863   5.255   3.291   6.800
13326TIP3    H239864   5.253   3.138   6.809
13327TIP3   OH239865   4.881   3.129   7.294
13327TIP3    H139866   4.821   3.191   7.339
13327TIP3    H239867   4.816   3.076   7.244
13328TIP3   OH239868   5.214   2.463   6.024
13328TIP3    H139869   5.274   2.521   6.076
13328TIP3    H239870   5.241   2.485   5.932
13329TIP3   OH239871   4.635   2.687   7.394
13329TIP3    H139872   4.639   2.774   7.438
13329TIP3    H239873   4.540   2.666   7.405
13330TIP3   OH239874   4.957   3.142   6.300
13330TIP3    H139875   5.038   3.193   6.315
13330TIP3    H239876   4.898   3.207   6.260
13331TIP3   OH239877   4.675   3.297   7.380
13331TIP3    H139878   4.640   3.297   7.289
13331TIP3    H239879   4.595   3.276   7.433
13332TIP3   OH239880   5.730   1.702   6.072
13332TIP3    H139881   5.649   1.722   6.123
13332TIP3    H239882   5.743   1.786   6.023
13333TIP3   OH239883   4.472   2.442   6.421
13333TIP3    H139884   4.409   2.490   6.363
13333TIP3    H239885   4.429   2.356   6.428
13334TIP3   OH239886   5.529   3.070   5.620
13334TIP3    H139887   5.538   3.167   5.607
13334TIP3    H239888   5.622   3.041   5.608
13335TIP3   OH239889   4.254   2.828   7.327
13335TIP3    H139890   4.188   2.805   7.258
13335TIP3    H239891   4.291   2.741   7.352
13336TIP3   OH239892   4.108   3.022   6.958
13336TIP3    H139893   4.205   3.015   6.951
13336TIP3    H239894   4.099   3.100   7.014
13337TIP3   OH239895   5.974   3.473   7.018
13337TIP3    H139896   5.970   3.376   7.030
13337TIP3    H239897   5.890   3.499   7.062
13338TIP3   OH239898   5.078   3.258   7.150
13338TIP3    H139899   5.077   3.351   7.182
13338TIP3    H239900   5.007   3.219   7.205
13339TIP3   OH239901   4.838   3.386   6.103
13339TIP3    H139902   4.794   3.370   6.017
13339TIP3    H239903   4.808   3.476   6.126
13340TIP3   OH239904   4.276   3.236   6.487
13340TIP3    H139905   4.327   3.229   6.571
13340TIP3    H239906   4.218   3.159   6.496
13341TIP3   OH239907   5.040   3.287   5.742
13341TIP3    H139908   5.099   3.218   5.706
13341TIP3    H239909   5.075   3.298   5.833
13342TIP3   OH239910   5.090   3.336   6.012
13342TIP3    H139911   5.002   3.345   6.056
13342TIP3    H239912   5.143   3.298   6.084
13343TIP3   OH239913   5.874   2.577   7.276
13343TIP3    H139914   5.813   2.638   7.231
13343TIP3    H239915   5.812   2.503   7.290
13344TIP3   OH239916   4.459   3.011   7.315
13344TIP3    H139917   4.509   2.995   7.398
13344TIP3    H239918   4.385   2.948   7.323
13345TIP3   OH239919   4.852   1.835   7.109
13345TIP3    H139920   4.763   1.808   7.081
13345TIP3    H239921   4.832   1.920   7.151
13346TIP3   OH239922   5.399   1.931   7.300
13346TIP3    H139923   5.464   1.916   7.371
13346TIP3    H239924   5.313   1.927   7.346
13347TIP3   OH239925   5.681   2.399   7.239
13347TIP3    H139926   5.611   2.366   7.300
13347TIP3    H239927   5.628   2.455   7.179
13348TIP3   OH239928   5.290   2.508   5.768
13348TIP3    H139929   5.258   2.483   5.680
13348TIP3    H239930   5.372   2.556   5.745
13349TIP3   OH239931   5.003   1.884   6.071
13349TIP3    H139932   4.971   1.881   6.164
13349TIP3    H239933   4.966   1.801   6.038
13350TIP3   OH239934   4.779   2.354   7.122
13350TIP3    H139935   4.730   2.379   7.203
13350TIP3    H239936   4.767   2.435   7.067
13351TIP3   OH239937   4.674   2.235   6.634
13351TIP3    H139938   4.579   2.217   6.646
13351TIP3    H239939   4.688   2.199   6.543
13352TIP3   OH239940   5.162   2.319   6.358
13352TIP3    H139941   5.112   2.392   6.316
13352TIP3    H239942   5.220   2.290   6.286
13353TIP3   OH239943   5.338   2.603   7.450
13353TIP3    H139944   5.315   2.528   7.510
13353TIP3    H239945   5.433   2.612   7.468
13354TIP3   OH239946   5.330   2.358   6.595
13354TIP3    H139947   5.262   2.379   6.527
13354TIP3    H239948   5.354   2.269   6.564
13355TIP3   OH239949   4.603   2.381   7.332
13355TIP3    H139950   4.638   2.442   7.398
13355TIP3    H239951   4.597   2.298   7.382
13356TIP3   OH239952   4.659   1.857   6.038
13356TIP3    H139953   4.649   1.853   6.135
13356TIP3    H239954   4.579   1.906   6.013
13357TIP3   OH239955   4.217   1.886   6.902
13357TIP3    H139956   4.274   1.928   6.971
13357TIP3    H239957   4.229   1.945   6.828
13358TIP3   OH239958   4.200   1.886   6.447
13358TIP3    H139959   4.228   1.921   6.360
13358TIP3    H239960   4.125   1.946   6.465
13359TIP3   OH239961   5.337   2.592   7.019
13359TIP3    H139962   5.369   2.519   6.961
13359TIP3    H239963   5.307   2.539   7.096
13360TIP3   OH239964   5.012   2.058   6.705
13360TIP3    H139965   4.938   2.054   6.768
13360TIP3    H239966   5.088   2.067   6.768
13361TIP3   OH239967   4.427   2.106   6.698
13361TIP3    H139968   4.335   2.134   6.676
13361TIP3    H239969   4.432   2.023   6.649
13362TIP3   OH239970   4.702   2.106   6.393
13362TIP3    H139971   4.797   2.123   6.377
13362TIP3    H239972   4.660   2.133   6.308
13363TIP3   OH239973   4.547   2.143   6.169
13363TIP3    H139974   4.476   2.098   6.119
13363TIP3    H239975   4.599   2.180   6.095
13364TIP3   OH239976   5.663   3.822   7.114
13364TIP3    H139977   5.662   3.847   7.020
13364TIP3    H239978   5.743   3.870   7.145
13365TIP3   OH239979   4.620   2.933   7.536
13365TIP3    H139980   4.700   2.963   7.583
13365TIP3    H239981   4.556   2.932   7.609
13366TIP3   OH239982   5.085   2.382   6.796
13366TIP3    H139983   5.152   2.326   6.756
13366TIP3    H239984   5.082   2.341   6.886
13367TIP3   OH239985   4.612   1.793   6.668
13367TIP3    H139986   4.703   1.775   6.697
13367TIP3    H239987   4.629   1.840   6.585
13368TIP3   OH239988   5.049   2.308   7.071
13368TIP3    H139989   4.961   2.335   7.104
13368TIP3    H239990   5.112   2.352   7.131
13369TIP3   OH239991   4.796   2.675   6.173
13369TIP3    H139992   4.724   2.609   6.164
13369TIP3    H239993   4.779   2.708   6.265
13370TIP3   OH239994   5.699   2.909   6.805
13370TIP3    H139995   5.723   2.959   6.724
13370TIP3    H239996   5.614   2.867   6.779
13371TIP3   OH239997   5.255   1.988   6.034
13371TIP3    H139998   5.159   1.970   6.046
13371TIP3    H239999   5.265   2.081   6.062
13372TIP3   OH240000   5.197   2.992   7.172
13372TIP3    H140001   5.219   2.970   7.264
13372TIP3    H240002   5.159   3.081   7.180
13373TIP3   OH240003   5.325   2.233   6.140
13373TIP3    H140004   5.421   2.239   6.158
13373TIP3    H240005   5.308   2.314   6.088
13374TIP3   OH240006   4.486   2.691   6.851
13374TIP3    H140007   4.528   2.667   6.766
13374TIP3    H240008   4.536   2.637   6.914
13375TIP3   OH240009   4.942   2.823   5.995
13375TIP3    H140010   4.895   2.909   6.001
13375TIP3    H240011   4.889   2.768   6.056
13376TIP3   OH240012   4.370   2.617   7.465
13376TIP3    H140013   4.392   2.604   7.560
13376TIP3    H240014   4.303   2.549   7.451
13377TIP3   OH240015   5.095   2.731   7.485
13377TIP3    H140016   5.037   2.674   7.433
13377TIP3    H240017   5.184   2.697   7.459
13378TIP3   OH240018   5.357   3.250   7.069
13378TIP3    H140019   5.261   3.250   7.081
13378TIP3    H240020   5.385   3.303   7.147
13379TIP3   OH240021   5.768   2.324   5.977
13379TIP3    H140022   5.705   2.279   5.915
13379TIP3    H240023   5.764   2.413   5.937
13380TIP3   OH240024   5.985   3.179   7.059
13380TIP3    H140025   5.887   3.176   7.048
13380TIP3    H240026   6.012   3.151   6.969
13381TIP3   OH240027   5.465   3.143   5.884
13381TIP3    H140028   5.443   3.072   5.947
13381TIP3    H240029   5.480   3.095   5.801
13382TIP3   OH240030   5.463   2.771   6.724
13382TIP3    H140031   5.370   2.746   6.736
13382TIP3    H240032   5.498   2.691   6.679
13383TIP3   OH240033   4.591   2.999   6.476
13383TIP3    H140034   4.593   3.081   6.422
13383TIP3    H240035   4.497   2.986   6.487
13384TIP3   OH240036   4.155   2.304   6.180
13384TIP3    H140037   4.201   2.387   6.201
13384TIP3    H240038   4.078   2.308   6.241
13385TIP3   OH240039   4.727   2.764   6.419
13385TIP3    H140040   4.694   2.854   6.438
13385TIP3    H240041   4.694   2.715   6.496
13386TIP3   OH240042   4.860   3.344   6.945
13386TIP3    H140043   4.901   3.416   6.895
13386TIP3    H240044   4.936   3.308   6.993
13387TIP3   OH240045   4.510   3.239   6.328
13387TIP3    H140046   4.425   3.248   6.375
13387TIP3    H240047   4.543   3.332   6.331
13388TIP3   OH240048   5.248   2.978   6.904
13388TIP3    H140049   5.239   2.976   7.002
13388TIP3    H240050   5.327   2.924   6.890
13389TIP3   OH240051   5.223   2.869   5.787
13389TIP3    H140052   5.277   2.845   5.866
13389TIP3    H240053   5.135   2.844   5.818
13390TIP3   OH240054   5.497   3.511   6.954
13390TIP3    H140055   5.417   3.456   6.946
13390TIP3    H240056   5.482   3.576   6.882
13391TIP3   OH240057   5.562   3.345   5.607
13391TIP3    H140058   5.601   3.419   5.556
13391TIP3    H240059   5.482   3.391   5.640
13392TIP3   OH240060   4.582   2.123   7.473
13392TIP3    H140061   4.486   2.126   7.488
13392TIP3    H240062   4.611   2.063   7.544
13393TIP3   OH240063   5.383   2.804   6.003
13393TIP3    H140064   5.373   2.738   6.075
13393TIP3    H240065   5.480   2.801   5.991
13394TIP3   OH240066   4.298   3.205   7.105
13394TIP3    H140067   4.352   3.132   7.138
13394TIP3    H240068   4.325   3.277   7.163
13395TIP3   OH240069   4.587   2.851   5.787
13395TIP3    H140070   4.604   2.760   5.759
13395TIP3    H240071   4.569   2.839   5.882
13396TIP3   OH240072   4.532   2.855   6.061
13396TIP3    H140073   4.607   2.829   6.116
13396TIP3    H240074   4.537   2.953   6.067
13397TIP3   OH240075   4.270   2.549   6.263
13397TIP3    H140076   4.205   2.595   6.320
13397TIP3    H240077   4.286   2.618   6.196
13398TIP3   OH240078   5.299   1.937   6.318
13398TIP3    H140079   5.289   1.962   6.224
13398TIP3    H240080   5.339   2.018   6.357
13399TIP3   OH240081   4.798   3.052   6.007
13399TIP3    H140082   4.712   3.081   6.043
13399TIP3    H240083   4.818   3.126   5.947
13400TIP3   OH240084   4.982   2.119   6.429
13400TIP3    H140085   5.049   2.188   6.407
13400TIP3    H240086   4.999   2.108   6.525
13401TIP3   OH240087   5.265   2.436   7.234
13401TIP3    H140088   5.281   2.497   7.309
13401TIP3    H240089   5.317   2.359   7.261
13402TIP3   OH240090   5.131   1.841   6.521
13402TIP3    H140091   5.135   1.907   6.592
13402TIP3    H240092   5.192   1.880   6.455
13403TIP3   OH240093   4.541   3.128   6.075
13403TIP3    H140094   4.513   3.199   6.012
13403TIP3    H240095   4.527   3.172   6.161
13404TIP3   OH240096   4.646   1.842   6.322
13404TIP3    H140097   4.649   1.937   6.343
13404TIP3    H240098   4.742   1.822   6.325
13405TIP3   OH240099   5.551   2.529   6.601
13405TIP3    H140100   5.472   2.471   6.608
13405TIP3    H240101   5.619   2.476   6.649
13406TIP3   OH240102   4.258   2.760   6.067
13406TIP3    H140103   4.325   2.829   6.078
13406TIP3    H240104   4.305   2.704   6.001
13407TIP3   OH240105   4.201   2.032   6.211
13407TIP3    H140106   4.200   2.129   6.199
13407TIP3    H240107   4.128   2.003   6.155
13408TIP3   OH240108   5.517   3.485   6.547
13408TIP3    H140109   5.475   3.532   6.472
13408TIP3    H240110   5.612   3.505   6.527
13409TIP3   OH240111   4.586   1.746   7.078
13409TIP3    H140112   4.567   1.686   7.006
13409TIP3    H240113   4.590   1.683   7.153
13410TIP3   OH240114   4.131   2.967   6.455
13410TIP3    H140115   4.064   3.004   6.514
13410TIP3    H240116   4.108   3.011   6.370
13411TIP3   OH240117   4.289   3.515   7.527
13411TIP3    H140118   4.375   3.515   7.573
13411TIP3    H240119   4.269   3.420   7.525
13412TIP3   OH240120   4.770   3.479   7.572
13412TIP3    H140121   4.865   3.461   7.578
13412TIP3    H240122   4.745   3.420   7.498
13413TIP3   OH240123   4.751   3.055   5.699
13413TIP3    H140124   4.696   2.983   5.737
13413TIP3    H240125   4.827   3.003   5.666
13414TIP3   OH240126   5.409   3.386   7.305
13414TIP3    H140127   5.401   3.316   7.373
13414TIP3    H240128   5.487   3.437   7.335
13415TIP3   OH240129   5.188   3.095   5.610
13415TIP3    H140130   5.233   3.033   5.670
13415TIP3    H240131   5.246   3.096   5.531
13416TIP3   OH240132   4.420   2.921   7.727
13416TIP3    H140133   4.436   2.825   7.732
13416TIP3    H240134   4.332   2.923   7.683
13417TIP3   OH240135   4.395   2.571   5.921
13417TIP3    H140136   4.452   2.538   5.993
13417TIP3    H240137   4.462   2.576   5.849
13418TIP3   OH240138   5.027   3.006   7.501
13418TIP3    H140139   4.986   3.023   7.414
13418TIP3    H240140   5.057   2.913   7.492
13419TIP3   OH240141   4.904   2.770   5.727
13419TIP3    H140142   4.909   2.783   5.824
13419TIP3    H240143   4.906   2.671   5.722
13420TIP3   OH240144   5.520   3.014   7.110
13420TIP3    H140145   5.594   3.059   7.063
13420TIP3    H240146   5.449   3.079   7.095
13421TIP3   OH240147   4.539   2.655   7.708
13421TIP3    H140148   4.614   2.599   7.686
13421TIP3    H240149   4.565   2.688   7.797
13422TIP3   OH240150   4.602   2.475   6.141
13422TIP3    H140151   4.580   2.432   6.225
13422TIP3    H240152   4.641   2.401   6.090
13423TIP3   OH240153   4.870   2.537   7.369
13423TIP3    H140154   4.795   2.600   7.371
13423TIP3    H240155   4.923   2.573   7.294
13424TIP3   OH240156   4.705   2.269   5.984
13424TIP3    H140157   4.680   2.273   5.889
13424TIP3    H240158   4.803   2.273   5.976
13425TIP3   OH240159   5.391   2.942   7.506
13425TIP3    H140160   5.468   2.915   7.456
13425TIP3    H240161   5.386   2.874   7.575
13426TIP3   OH240162   5.527   2.600   5.646
13426TIP3    H140163   5.506   2.554   5.562
13426TIP3    H240164   5.495   2.690   5.623
13427TIP3   OH240165   4.996   2.327   7.496
13427TIP3    H140166   4.999   2.248   7.438
13427TIP3    H240167   4.952   2.392   7.438
13428TIP3   OH240168   5.002   2.119   7.297
13428TIP3    H140169   5.034   2.145   7.209
13428TIP3    H240170   4.909   2.096   7.279
13429TIP3   OH240171   5.027   2.652   7.183
13429TIP3    H140172   5.108   2.650   7.130
13429TIP3    H240173   4.972   2.717   7.135
13430TIP3   OH240174   5.606   2.617   7.561
13430TIP3    H140175   5.649   2.531   7.564
13430TIP3    H240176   5.676   2.675   7.529
13431TIP3   OH240177   5.653   2.870   7.295
13431TIP3    H140178   5.592   2.922   7.237
13431TIP3    H240179   5.739   2.894   7.253
13432TIP3   OH240180   4.874   2.440   7.727
13432TIP3    H140181   4.806   2.371   7.741
13432TIP3    H240182   4.909   2.414   7.639
13433TIP3   OH240183   5.130   1.883   7.378
13433TIP3    H140184   5.085   1.964   7.346
13433TIP3    H240185   5.064   1.813   7.359
13434TIP3   OH240186   5.256   2.382   7.586
13434TIP3    H140187   5.244   2.369   7.682
13434TIP3    H240188   5.167   2.357   7.555
13435TIP3   OH240189   5.501   2.337   7.439
13435TIP3    H140190   5.424   2.332   7.499
13435TIP3    H240191   5.572   2.298   7.494
13436TIP3   OH240192   5.739   2.276   7.592
13436TIP3    H140193   5.746   2.180   7.609
13436TIP3    H240194   5.729   2.313   7.683
13437TIP3   OH240195   4.714   2.220   7.780
13437TIP3    H140196   4.720   2.129   7.746
13437TIP3    H240197   4.751   2.207   7.870
13438TIP3   OH240198   5.226   1.887   7.633
13438TIP3    H140199   5.293   1.816   7.625
13438TIP3    H240200   5.186   1.884   7.543
13439TIP3   OH240201   5.293   2.103   7.788
13439TIP3    H140202   5.272   2.031   7.725
13439TIP3    H240203   5.214   2.161   7.780
13440TIP3   OH240204   4.512   3.330   5.887
13440TIP3    H140205   4.608   3.325   5.869
13440TIP3    H240206   4.484   3.381   5.808
13441TIP3   OH240207   3.989   2.713   6.101
13441TIP3    H140208   4.084   2.738   6.090
13441TIP3    H240209   3.989   2.623   6.063
13442TIP3   OH240210   3.908   3.324   6.517
13442TIP3    H140211   3.841   3.262   6.482
13442TIP3    H240212   3.952   3.267   6.584
13443TIP3   OH240213   4.044   3.174   6.704
13443TIP3    H140214   4.033   3.103   6.769
13443TIP3    H240215   4.095   3.238   6.757
13444TIP3   OH240216   5.769   3.578   6.504
13444TIP3    H140217   5.797   3.613   6.590
13444TIP3    H240218   5.833   3.620   6.444
13445TIP3   OH240219   5.797   3.598   6.787
13445TIP3    H140220   5.757   3.509   6.782
13445TIP3    H240221   5.876   3.578   6.839
13446TIP3   OH240222   5.847   3.272   7.361
13446TIP3    H140223   5.773   3.283   7.424
13446TIP3    H240224   5.888   3.362   7.363
13447TIP3   OH240225   5.662   2.787   5.979
13447TIP3    H140226   5.730   2.851   5.950
13447TIP3    H240227   5.705   2.748   6.058
13448TIP3   OH240228   5.789   2.654   6.182
13448TIP3    H140229   5.724   2.612   6.242
13448TIP3    H240230   5.855   2.692   6.244
13449TIP3   OH240231   5.845   3.046   6.615
13449TIP3    H140232   5.896   2.982   6.563
13449TIP3    H240233   5.838   3.122   6.553
13450TIP3   OH240234   5.675   3.345   6.812
13450TIP3    H140235   5.604   3.390   6.861
13450TIP3    H240236   5.625   3.299   6.741
13451TIP3   OH240237   5.728   2.562   5.829
13451TIP3    H140238   5.656   2.565   5.762
13451TIP3    H240239   5.701   2.638   5.885
13452TIP3   OH240240   5.599   2.235   5.783
13452TIP3    H140241   5.555   2.273   5.706
13452TIP3    H240242   5.575   2.140   5.775
13453TIP3   OH240243   5.604   2.511   6.330
13453TIP3    H140244   5.610   2.414   6.323
13453TIP3    H240245   5.589   2.523   6.427
13454TIP3   OH240246   4.230   2.585   7.075
13454TIP3    H140247   4.229   2.555   6.982
13454TIP3    H240248   4.327   2.586   7.093
13455TIP3   OH240249   5.898   2.931   7.186
13455TIP3    H140250   5.967   2.866   7.161
13455TIP3    H240251   5.915   3.004   7.125
13456TIP3   OH240252   6.083   2.727   7.185
13456TIP3    H140253   6.020   2.672   7.236
13456TIP3    H240254   6.157   2.739   7.245
13457TIP3   OH240255   5.543   1.969   5.768
13457TIP3    H140256   5.618   1.939   5.824
13457TIP3    H240257   5.470   1.910   5.794
13458TIP3   OH240258   5.600   2.227   6.223
13458TIP3    H140259   5.639   2.138   6.239
13458TIP3    H240260   5.660   2.259   6.153
13459TIP3   OH240261   5.768   2.397   6.723
13459TIP3    H140262   5.848   2.432   6.679
13459TIP3    H240263   5.774   2.442   6.810
13460TIP3   OH240264   5.835   2.536   6.956
13460TIP3    H140265   5.756   2.575   6.999
13460TIP3    H240266   5.872   2.615   6.912
13461TIP3   OH240267   4.448   2.271   7.750
13461TIP3    H140268   4.545   2.264   7.753
13461TIP3    H240269   4.423   2.185   7.791
13462TIP3   OH240270   6.270   2.135   7.483
13462TIP3    H140271   6.326   2.055   7.469
13462TIP3    H240272   6.314   2.196   7.423
13463TIP3   OH240273   5.708   1.976   6.261
13463TIP3    H140274   5.756   1.961   6.345
13463TIP3    H240275   5.647   1.900   6.260
13464TIP3   OH240276   4.411   1.966   7.077
13464TIP3    H140277   4.471   1.890   7.091
13464TIP3    H240278   4.474   2.040   7.074
13465TIP3   OH240279   4.212   2.235   7.153
13465TIP3    H140280   4.264   2.237   7.070
13465TIP3    H240281   4.237   2.318   7.194
13466TIP3   OH240282   5.789   1.912   5.894
13466TIP3    H140283   5.830   1.840   5.842
13466TIP3    H240284   5.858   1.982   5.889
13467TIP3   OH240285   5.353   3.444   6.161
13467TIP3    H140286   5.405   3.431   6.079
13467TIP3    H240287   5.407   3.510   6.207
13468TIP3   OH240288   4.414   1.823   7.469
13468TIP3    H140289   4.365   1.813   7.552
13468TIP3    H240290   4.345   1.859   7.410
13469TIP3   OH240291   4.455   3.248   7.546
13469TIP3    H140292   4.363   3.220   7.529
13469TIP3    H240293   4.465   3.229   7.640
13470TIP3   OH240294   4.633   3.280   7.094
13470TIP3    H140295   4.586   3.356   7.055
13470TIP3    H240296   4.719   3.293   7.049
13471TIP3   OH240297   5.078   3.525   7.232
13471TIP3    H140298   5.120   3.526   7.321
13471TIP3    H240299   5.144   3.575   7.180
13472TIP3   OH240300   5.257   3.676   7.091
13472TIP3    H140301   5.329   3.626   7.049
13472TIP3    H240302   5.309   3.734   7.152
13473TIP3   OH240303   6.039   2.042   7.187
13473TIP3    H140304   5.950   2.021   7.154
13473TIP3    H240305   6.079   1.952   7.184
13474TIP3   OH240306   4.309   3.536   7.118
13474TIP3    H140307   4.220   3.570   7.095
13474TIP3    H240308   4.321   3.575   7.205
13475TIP3   OH240309   4.546   3.515   6.976
13475TIP3    H140310   4.459   3.528   7.020
13475TIP3    H240311   4.527   3.549   6.886
13476TIP3   OH240312   4.972   3.544   6.774
13476TIP3    H140313   4.903   3.565   6.707
13476TIP3    H240314   4.985   3.632   6.816
13477TIP3   OH240315   5.241   3.483   6.825
13477TIP3    H140316   5.147   3.501   6.805
13477TIP3    H240317   5.285   3.558   6.783
13478TIP3   OH240318   5.446   3.675   6.740
13478TIP3    H140319   5.433   3.760   6.692
13478TIP3    H240320   5.474   3.616   6.666
13479TIP3   OH240321   4.221   3.330   6.862
13479TIP3    H140322   4.247   3.305   6.953
13479TIP3    H240323   4.293   3.286   6.812
13480TIP3   OH240324   4.415   3.202   6.719
13480TIP3    H140325   4.431   3.118   6.768
13480TIP3    H240326   4.506   3.239   6.715
13481TIP3   OH240327   4.680   3.296   6.724
13481TIP3    H140328   4.713   3.205   6.711
13481TIP3    H240329   4.725   3.319   6.807
13482TIP3   OH240330   5.794   1.840   6.719
13482TIP3    H140331   5.823   1.886   6.637
13482TIP3    H240332   5.696   1.840   6.707
13483TIP3   OH240333   5.875   1.935   6.477
13483TIP3    H140334   5.948   1.882   6.438
13483TIP3    H240335   5.909   2.026   6.461
13484TIP3   OH240336   4.922   1.712   6.708
13484TIP3    H140337   4.989   1.750   6.649
13484TIP3    H240338   4.971   1.721   6.794
13485TIP3   OH240339   5.530   1.829   6.681
13485TIP3    H140340   5.462   1.828   6.613
13485TIP3    H240341   5.490   1.769   6.748
13486TIP3   OH240342   5.525   1.763   6.252
13486TIP3    H140343   5.439   1.807   6.267
13486TIP3    H240344   5.512   1.679   6.301
13487TIP3   OH240345   4.008   3.103   6.256
13487TIP3    H140346   3.922   3.075   6.220
13487TIP3    H240347   4.002   3.198   6.241
13488TIP3   OH240348   4.416   1.704   6.223
13488TIP3    H140349   4.460   1.630   6.175
13488TIP3    H240350   4.492   1.748   6.266
13489TIP3   OH240351   4.921   1.869   6.338
13489TIP3    H140352   4.985   1.823   6.396
13489TIP3    H240353   4.943   1.961   6.363
13490TIP3   OH240354   4.781   3.291   5.836
13490TIP3    H140355   4.869   3.314   5.801
13490TIP3    H240356   4.759   3.216   5.776
13491TIP3   OH240357   5.499   3.409   5.929
13491TIP3    H140358   5.490   3.312   5.916
13491TIP3    H240359   5.455   3.442   5.848
13492TIP3   OH240360   4.713   1.944   7.718
13492TIP3    H140361   4.679   1.873   7.774
13492TIP3    H240362   4.808   1.943   7.744
13493TIP3   OH240363   4.963   1.941   7.836
13493TIP3    H140364   5.046   1.915   7.794
13493TIP3    H240365   4.951   1.871   7.903
13494TIP3   OH240366   4.083   3.125   5.893
13494TIP3    H140367   4.091   3.155   5.984
13494TIP3    H240368   4.172   3.084   5.878
13495TIP3   OH240369   5.789   2.005   7.626
13495TIP3    H140370   5.807   1.971   7.717
13495TIP3    H240371   5.877   1.997   7.584
13496TIP3   OH240372   5.726   3.554   7.117
13496TIP3    H140373   5.647   3.523   7.067
13496TIP3    H240374   5.708   3.650   7.120
13497TIP3   OH240375   6.993   2.926   5.881
13497TIP3    H140376   6.966   3.018   5.862
13497TIP3    H240377   6.915   2.877   5.851
13498TIP3   OH240378   6.992   2.924   6.263
13498TIP3    H140379   7.024   2.899   6.351
13498TIP3    H240380   6.950   2.842   6.233
13499TIP3   OH240381   6.290   2.823   6.633
13499TIP3    H140382   6.323   2.755   6.694
13499TIP3    H240383   6.371   2.874   6.616
13500TIP3   OH240384   7.236   3.227   5.945
13500TIP3    H140385   7.220   3.161   6.013
13500TIP3    H240386   7.263   3.304   5.997
13501TIP3   OH240387   6.262   3.230   6.354
13501TIP3    H140388   6.254   3.132   6.356
13501TIP3    H240389   6.358   3.240   6.346
13502TIP3   OH240390   5.969   2.434   6.138
13502TIP3    H140391   5.921   2.517   6.153
13502TIP3    H240392   5.898   2.380   6.099
13503TIP3   OH240393   6.027   2.720   6.310
13503TIP3    H140394   6.077   2.643   6.346
13503TIP3    H240395   6.089   2.754   6.244
13504TIP3   OH240396   6.876   3.686   5.957
13504TIP3    H140397   6.928   3.616   5.912
13504TIP3    H240398   6.878   3.658   6.049
13505TIP3   OH240399   6.790   3.151   6.312
13505TIP3    H140400   6.830   3.075   6.266
13505TIP3    H240401   6.873   3.197   6.337
13506TIP3   OH240402   7.805   2.472   6.310
13506TIP3    H140403   7.833   2.555   6.353
13506TIP3    H240404   7.823   2.493   6.216
13507TIP3   OH240405   7.206   2.654   6.344
13507TIP3    H140406   7.245   2.567   6.364
13507TIP3    H240407   7.171   2.639   6.254
13508TIP3   OH240408   6.537   2.313   6.310
13508TIP3    H140409   6.520   2.385   6.246
13508TIP3    H240410   6.492   2.239   6.265
13509TIP3   OH240411   7.235   2.403   5.931
13509TIP3    H140412   7.306   2.387   5.997
13509TIP3    H240413   7.288   2.439   5.858
13510TIP3   OH240414   6.172   2.513   6.418
13510TIP3    H140415   6.257   2.495   6.464
13510TIP3    H240416   6.186   2.459   6.337
13511TIP3   OH240417   6.615   2.712   6.211
13511TIP3    H140418   6.709   2.688   6.224
13511TIP3    H240419   6.577   2.628   6.178
13512TIP3   OH240420   7.877   2.680   6.479
13512TIP3    H140421   7.793   2.727   6.459
13512TIP3    H240422   7.890   2.706   6.571
13513TIP3   OH240423   6.536   2.290   6.744
13513TIP3    H140424   6.481   2.330   6.674
13513TIP3    H240425   6.493   2.325   6.824
13514TIP3   OH240426   6.886   3.149   5.751
13514TIP3    H140427   6.840   3.130   5.668
13514TIP3    H240428   6.843   3.233   5.777
13515TIP3   OH240429   6.644   3.071   6.539
13515TIP3    H140430   6.582   3.138   6.575
13515TIP3    H240431   6.687   3.121   6.466
13516TIP3   OH240432   7.446   2.405   6.103
13516TIP3    H140433   7.429   2.360   6.187
13516TIP3    H240434   7.497   2.483   6.132
13517TIP3   OH240435   6.407   2.409   6.529
13517TIP3    H140436   6.469   2.482   6.552
13517TIP3    H240437   6.456   2.369   6.454
13518TIP3   OH240438   6.471   3.266   6.636
13518TIP3    H140439   6.447   3.352   6.596
13518TIP3    H240440   6.392   3.251   6.692
13519TIP3   OH240441   5.866   2.956   5.873
13519TIP3    H140442   5.825   2.985   5.790
13519TIP3    H240443   5.897   3.040   5.911
13520TIP3   OH240444   7.306   3.470   6.111
13520TIP3    H140445   7.217   3.462   6.151
13520TIP3    H240446   7.299   3.557   6.066
13521TIP3   OH240447   7.596   2.373   6.476
13521TIP3    H140448   7.508   2.401   6.445
13521TIP3    H240449   7.654   2.405   6.404
13522TIP3   OH240450   6.876   2.027   6.426
13522TIP3    H140451   6.918   1.956   6.476
13522TIP3    H240452   6.809   2.058   6.491
13523TIP3   OH240453   7.010   3.514   5.788
13523TIP3    H140454   7.061   3.433   5.764
13523TIP3    H240455   7.068   3.582   5.747
13524TIP3   OH240456   7.154   3.299   5.691
13524TIP3    H140457   7.105   3.222   5.660
13524TIP3    H240458   7.189   3.266   5.777
13525TIP3   OH240459   7.532   3.383   6.457
13525TIP3    H140460   7.520   3.307   6.397
13525TIP3    H240461   7.512   3.459   6.397
13526TIP3   OH240462   6.822   2.776   5.713
13526TIP3    H140463   6.742   2.829   5.692
13526TIP3    H240464   6.869   2.776   5.628
13527TIP3   OH240465   6.781   2.563   5.428
13527TIP3    H140466   6.847   2.613   5.479
13527TIP3    H240467   6.839   2.500   5.381
13528TIP3   OH240468   7.727   3.021   6.301
13528TIP3    H140469   7.644   3.072   6.306
13528TIP3    H240470   7.756   3.046   6.210
13529TIP3   OH240471   7.171   2.859   5.685
13529TIP3    H140472   7.116   2.884   5.763
13529TIP3    H240473   7.255   2.835   5.730
13530TIP3   OH240474   7.406   2.900   6.596
13530TIP3    H140475   7.402   2.984   6.646
13530TIP3    H240476   7.319   2.903   6.551
13531TIP3   OH240477   6.403   2.858   6.102
13531TIP3    H140478   6.363   2.800   6.034
13531TIP3    H240479   6.480   2.805   6.132
13532TIP3   OH240480   6.531   3.265   6.253
13532TIP3    H140481   6.513   3.227   6.165
13532TIP3    H240482   6.622   3.233   6.270
13533TIP3   OH240483   6.536   2.831   6.456
13533TIP3    H140484   6.571   2.807   6.368
13533TIP3    H240485   6.582   2.915   6.475
13534TIP3   OH240486   7.066   3.466   6.233
13534TIP3    H140487   7.050   3.548   6.283
13534TIP3    H240488   7.049   3.396   6.298
13535TIP3   OH240489   6.677   3.384   6.781
13535TIP3    H140490   6.617   3.448   6.826
13535TIP3    H240491   6.612   3.332   6.730
13536TIP3   OH240492   7.012   2.718   5.511
13536TIP3    H140493   7.070   2.778   5.563
13536TIP3    H240494   7.038   2.741   5.419
13537TIP3   OH240495   6.433   2.941   6.885
13537TIP3    H140496   6.436   3.031   6.925
13537TIP3    H240497   6.337   2.924   6.888
13538TIP3   OH240498   6.754   3.398   5.785
13538TIP3    H140499   6.833   3.451   5.804
13538TIP3    H240500   6.692   3.465   5.753
13539TIP3   OH240501   6.472   3.553   6.866
13539TIP3    H140502   6.437   3.555   6.775
13539TIP3    H240503   6.392   3.531   6.919
13540TIP3   OH240504   7.526   1.959   5.559
13540TIP3    H140505   7.445   1.979   5.610
13540TIP3    H240506   7.540   2.043   5.511
13541TIP3   OH240507   6.270   2.701   5.905
13541TIP3    H140508   6.203   2.745   5.849
13541TIP3    H240509   6.230   2.615   5.919
13542TIP3   OH240510   7.324   3.326   5.105
13542TIP3    H140511   7.333   3.423   5.094
13542TIP3    H240512   7.418   3.298   5.094
13543TIP3   OH240513   6.048   3.087   6.813
13543TIP3    H140514   5.983   3.065   6.743
13543TIP3    H240515   6.087   3.000   6.835
13544TIP3   OH240516   5.905   3.277   6.449
13544TIP3    H140517   6.000   3.271   6.437
13544TIP3    H240518   5.897   3.357   6.502
13545TIP3   OH240519   7.770   3.729   6.503
13545TIP3    H140520   7.767   3.633   6.517
13545TIP3    H240521   7.686   3.755   6.548
13546TIP3   OH240522   6.876   3.514   6.638
13546TIP3    H140523   6.875   3.607   6.669
13546TIP3    H240524   6.804   3.475   6.692
13547TIP3   OH240525   6.627   3.664   5.575
13547TIP3    H140526   6.594   3.623   5.493
13547TIP3    H240527   6.604   3.757   5.553
13548TIP3   OH240528   6.072   3.493   5.973
13548TIP3    H140529   6.123   3.485   6.057
13548TIP3    H240530   6.014   3.416   5.981
13549TIP3   OH240531   6.839   3.547   5.225
13549TIP3    H140532   6.899   3.476   5.193
13549TIP3    H240533   6.867   3.557   5.318
13550TIP3   OH240534   6.882   3.592   5.497
13550TIP3    H140535   6.795   3.612   5.539
13550TIP3    H240536   6.933   3.560   5.573
13551TIP3   OH240537   7.659   2.860   6.777
13551TIP3    H140538   7.577   2.873   6.727
13551TIP3    H240539   7.674   2.764   6.766
13552TIP3   OH240540   6.256   3.267   6.802
13552TIP3    H140541   6.304   3.251   6.885
13552TIP3    H240542   6.180   3.205   6.810
13553TIP3   OH240543   6.655   2.092   6.590
13553TIP3    H140544   6.567   2.058   6.563
13553TIP3    H240545   6.627   2.170   6.641
13554TIP3   OH240546   7.431   2.638   6.701
13554TIP3    H140547   7.378   2.633   6.784
13554TIP3    H240548   7.403   2.723   6.663
13555TIP3   OH240549   7.086   2.763   5.254
13555TIP3    H140550   7.054   2.738   5.165
13555TIP3    H240551   7.166   2.814   5.232
13556TIP3   OH240552   6.800   2.140   5.558
13556TIP3    H140553   6.768   2.137   5.650
13556TIP3    H240554   6.761   2.057   5.524
13557TIP3   OH240555   6.584   2.605   6.602
13557TIP3    H140556   6.542   2.631   6.687
13557TIP3    H240557   6.571   2.687   6.549
13558TIP3   OH240558   6.469   2.493   6.118
13558TIP3    H140559   6.377   2.466   6.136
13558TIP3    H240560   6.483   2.452   6.030
13559TIP3   OH240561   6.961   2.578   5.846
13559TIP3    H140562   6.908   2.649   5.805
13559TIP3    H240563   7.015   2.548   5.771
13560TIP3   OH240564   7.136   2.857   6.934
13560TIP3    H140565   7.113   2.784   6.996
13560TIP3    H240566   7.230   2.871   6.955
13561TIP3   OH240567   7.120   2.607   6.085
13561TIP3    H140568   7.058   2.637   6.016
13561TIP3    H240569   7.151   2.525   6.042
13562TIP3   OH240570   6.405   2.638   6.819
13562TIP3    H140571   6.446   2.705   6.877
13562TIP3    H240572   6.401   2.561   6.878
13563TIP3   OH240573   6.454   2.112   5.523
13563TIP3    H140574   6.448   2.110   5.620
13563TIP3    H240575   6.376   2.166   5.500
13564TIP3   OH240576   6.001   2.159   6.395
13564TIP3    H140577   6.077   2.190   6.447
13564TIP3    H240578   6.039   2.126   6.313
13565TIP3   OH240579   5.970   2.138   5.913
13565TIP3    H140580   6.017   2.176   5.836
13565TIP3    H240581   5.910   2.212   5.934
13566TIP3   OH240582   7.129   2.853   6.508
13566TIP3    H140583   7.162   2.781   6.449
13566TIP3    H240584   7.099   2.799   6.585
13567TIP3   OH240585   6.797   2.319   6.181
13567TIP3    H140586   6.717   2.312   6.236
13567TIP3    H240587   6.868   2.307   6.246
13568TIP3   OH240588   6.231   2.370   6.190
13568TIP3    H140589   6.137   2.376   6.161
13568TIP3    H240590   6.256   2.279   6.165
13569TIP3   OH240591   6.501   2.366   5.877
13569TIP3    H140592   6.595   2.381   5.857
13569TIP3    H240593   6.455   2.389   5.793
13570TIP3   OH240594   7.288   2.390   6.381
13570TIP3    H140595   7.256   2.400   6.473
13570TIP3    H240596   7.222   2.328   6.346
13571TIP3   OH240597   6.342   2.400   5.655
13571TIP3    H140598   6.270   2.357   5.607
13571TIP3    H240599   6.394   2.437   5.580
13572TIP3   OH240600   7.459   4.077   6.602
13572TIP3    H140601   7.455   4.099   6.507
13572TIP3    H240602   7.536   4.129   6.631
13573TIP3   OH240603   6.416   3.186   7.025
13573TIP3    H140604   6.497   3.219   7.070
13573TIP3    H240605   6.351   3.194   7.098
13574TIP3   OH240606   6.879   2.646   6.278
13574TIP3    H140607   6.950   2.598   6.233
13574TIP3    H240608   6.881   2.605   6.368
13575TIP3   OH240609   6.401   2.131   6.155
13575TIP3    H140610   6.369   2.052   6.204
13575TIP3    H240611   6.460   2.092   6.089
13576TIP3   OH240612   6.862   2.554   6.546
13576TIP3    H140613   6.771   2.569   6.578
13576TIP3    H240614   6.916   2.601   6.612
13577TIP3   OH240615   6.594   2.930   5.661
13577TIP3    H140616   6.521   2.866   5.651
13577TIP3    H240617   6.576   2.965   5.752
13578TIP3   OH240618   7.494   3.166   6.292
13578TIP3    H140619   7.518   3.216   6.211
13578TIP3    H240620   7.409   3.125   6.267
13579TIP3   OH240621   7.051   2.244   5.520
13579TIP3    H140622   6.955   2.226   5.532
13579TIP3    H240623   7.061   2.338   5.548
13580TIP3   OH240624   6.990   3.247   6.661
13580TIP3    H140625   7.018   3.231   6.751
13580TIP3    H240626   6.956   3.338   6.665
13581TIP3   OH240627   7.121   2.489   5.627
13581TIP3    H140628   7.217   2.496   5.645
13581TIP3    H240629   7.103   2.571   5.576
13582TIP3   OH240630   6.283   2.949   6.338
13582TIP3    H140631   6.323   2.924   6.252
13582TIP3    H240632   6.332   2.891   6.398
13583TIP3   OH240633   6.737   3.079   5.480
13583TIP3    H140634   6.690   3.166   5.485
13583TIP3    H240635   6.684   3.026   5.543
13584TIP3   OH240636   6.164   2.877   6.951
13584TIP3    H140637   6.188   2.852   7.042
13584TIP3    H240638   6.097   2.810   6.930
13585TIP3   OH240639   6.893   2.986   6.972
13585TIP3    H140640   6.836   2.931   6.916
13585TIP3    H240641   6.982   2.954   6.945
13586TIP3   OH240642   7.154   3.502   6.558
13586TIP3    H140643   7.057   3.507   6.568
13586TIP3    H240644   7.182   3.558   6.634
13587TIP3   OH240645   7.564   2.580   5.464
13587TIP3    H140646   7.502   2.536   5.402
13587TIP3    H240647   7.560   2.670   5.424
13588TIP3   OH240648   7.782   3.437   6.545
13588TIP3    H140649   7.684   3.433   6.537
13588TIP3    H240650   7.808   3.408   6.455
13589TIP3   OH240651   7.265   3.400   5.372
13589TIP3    H140652   7.237   3.334   5.436
13589TIP3    H240653   7.275   3.349   5.290
13590TIP3   OH240654   7.260   3.028   6.211
13590TIP3    H140655   7.166   3.004   6.224
13590TIP3    H240656   7.293   2.949   6.165
13591TIP3   OH240657   6.388   3.256   5.962
13591TIP3    H140658   6.389   3.338   5.909
13591TIP3    H240659   6.293   3.244   5.974
13592TIP3   OH240660   5.950   2.561   5.666
13592TIP3    H140661   5.996   2.644   5.687
13592TIP3    H240662   5.873   2.566   5.728
13593TIP3   OH240663   6.524   3.021   5.906
13593TIP3    H140664   6.490   3.111   5.924
13593TIP3    H240665   6.489   2.972   5.982
13594TIP3   OH240666   6.656   3.600   6.432
13594TIP3    H140667   6.695   3.674   6.380
13594TIP3    H240668   6.734   3.568   6.479
13595TIP3   OH240669   6.308   3.495   5.816
13595TIP3    H140670   6.222   3.506   5.861
13595TIP3    H240671   6.342   3.587   5.819
13596TIP3   OH240672   7.043   3.233   6.392
13596TIP3    H140673   7.034   3.231   6.490
13596TIP3    H240674   7.125   3.183   6.380
13597TIP3   OH240675   7.019   3.124   5.274
13597TIP3    H140676   7.073   3.099   5.352
13597TIP3    H240677   6.930   3.103   5.307
13598TIP3   OH240678   7.294   3.766   6.440
13598TIP3    H140679   7.212   3.713   6.431
13598TIP3    H240680   7.280   3.833   6.368
13599TIP3   OH240681   7.358   3.602   5.094
13599TIP3    H140682   7.395   3.676   5.043
13599TIP3    H240683   7.278   3.646   5.129
13600TIP3   OH240684   6.377   2.370   6.961
13600TIP3    H140685   6.311   2.306   6.932
13600TIP3    H240686   6.421   2.322   7.033
13601TIP3   OH240687   7.179   3.056   5.487
13601TIP3    H140688   7.170   2.993   5.562
13601TIP3    H240689   7.277   3.057   5.478
13602TIP3   OH240690   6.093   3.463   6.593
13602TIP3    H140691   6.149   3.390   6.625
13602TIP3    H240692   6.124   3.536   6.646
13603TIP3   OH240693   6.380   3.106   5.271
13603TIP3    H140694   6.402   3.014   5.247
13603TIP3    H240695   6.365   3.097   5.368
13604TIP3   OH240696   6.331   3.112   5.544
13604TIP3    H140697   6.402   3.087   5.604
13604TIP3    H240698   6.333   3.210   5.552
13605TIP3   OH240699   6.064   2.806   5.749
13605TIP3    H140700   5.999   2.851   5.806
13605TIP3    H240701   6.080   2.875   5.682
13606TIP3   OH240702   7.215   2.434   6.643
13606TIP3    H140703   7.292   2.468   6.691
13606TIP3    H240704   7.185   2.360   6.698
13607TIP3   OH240705   7.098   2.193   5.804
13607TIP3    H140706   7.083   2.219   5.712
13607TIP3    H240707   7.136   2.275   5.843
13608TIP3   OH240708   6.594   3.308   5.491
13608TIP3    H140709   6.508   3.333   5.529
13608TIP3    H240710   6.613   3.389   5.440
13609TIP3   OH240711   6.783   2.374   5.909
13609TIP3    H140712   6.848   2.446   5.892
13609TIP3    H240713   6.789   2.365   6.006
13610TIP3   OH240714   7.055   2.693   6.717
13610TIP3    H140715   7.075   2.748   6.796
13610TIP3    H240716   7.110   2.614   6.733
13611TIP3   OH240717   6.930   2.099   6.009
13611TIP3    H140718   6.929   2.172   6.074
13611TIP3    H240719   6.990   2.136   5.941
13612TIP3   OH240720   6.336   3.383   5.562
13612TIP3    H140721   6.312   3.455   5.498
13612TIP3    H240722   6.324   3.429   5.647
13613TIP3   OH240723   6.441   2.099   5.798
13613TIP3    H140724   6.438   2.188   5.837
13613TIP3    H240725   6.537   2.080   5.808
13614TIP3   OH240726   7.696   2.591   6.696
13614TIP3    H140727   7.598   2.592   6.705
13614TIP3    H240728   7.703   2.549   6.609
13615TIP3   OH240729   7.346   2.786   6.084
13615TIP3    H140730   7.269   2.728   6.098
13615TIP3    H240731   7.416   2.739   6.133
13616TIP3   OH240732   6.057   3.016   5.554
13616TIP3    H140733   6.121   3.088   5.566
13616TIP3    H240734   6.105   2.962   5.488
13617TIP3   OH240735   6.002   2.291   5.687
13617TIP3    H140736   6.002   2.389   5.684
13617TIP3    H240737   5.917   2.269   5.647
13618TIP3   OH240738   7.315   3.739   6.033
13618TIP3    H140739   7.271   3.785   5.957
13618TIP3    H240740   7.409   3.758   6.011
13619TIP3   OH240741   6.383   2.012   6.564
13619TIP3    H140742   6.359   1.977   6.476
13619TIP3    H240743   6.380   1.932   6.620
13620TIP3   OH240744   5.926   3.224   5.942
13620TIP3    H140745   5.857   3.259   5.999
13620TIP3    H240746   5.904   3.267   5.857
13621TIP3   OH240747   6.085   3.772   7.015
13621TIP3    H140748   6.172   3.773   7.062
13621TIP3    H240749   6.067   3.676   7.013
13622TIP3   OH240750   6.564   3.734   7.061
13622TIP3    H140751   6.660   3.723   7.066
13622TIP3    H240752   6.542   3.676   6.985
13623TIP3   OH240753   6.542   3.308   5.176
13623TIP3    H140754   6.489   3.239   5.220
13623TIP3    H240755   6.622   3.257   5.155
13624TIP3   OH240756   7.207   3.641   6.791
13624TIP3    H140757   7.198   3.572   6.860
13624TIP3    H240758   7.283   3.694   6.822
13625TIP3   OH240759   6.984   3.349   5.096
13625TIP3    H140760   7.030   3.288   5.157
13625TIP3    H240761   7.043   3.351   5.018
13626TIP3   OH240762   6.214   3.178   7.214
13626TIP3    H140763   6.226   3.082   7.222
13626TIP3    H240764   6.127   3.183   7.169
13627TIP3   OH240765   6.193   2.828   5.407
13627TIP3    H140766   6.248   2.796   5.481
13627TIP3    H240767   6.261   2.832   5.336
13628TIP3   OH240768   6.822   3.262   6.988
13628TIP3    H140769   6.783   3.281   6.901
13628TIP3    H240770   6.854   3.170   6.978
13629TIP3   OH240771   6.699   3.027   5.213
13629TIP3    H140772   6.705   3.040   5.310
13629TIP3    H240773   6.700   2.929   5.208
13630TIP3   OH240774   7.316   3.271   6.594
13630TIP3    H140775   7.391   3.315   6.550
13630TIP3    H240776   7.246   3.338   6.581
13631TIP3   OH240777   6.332   2.885   7.208
13631TIP3    H140778   6.418   2.861   7.170
13631TIP3    H240779   6.361   2.935   7.287
13632TIP3   OH240780   6.399   2.732   5.628
13632TIP3    H140781   6.374   2.692   5.713
13632TIP3    H240782   6.436   2.656   5.579
13633TIP3   OH240783   6.663   2.792   6.853
13633TIP3    H140784   6.591   2.858   6.857
13633TIP3    H240785   6.718   2.827   6.779
13634TIP3   OH240786   6.502   2.525   5.470
13634TIP3    H140787   6.476   2.529   5.375
13634TIP3    H240788   6.599   2.530   5.463
13635TIP3   OH240789   7.186   3.198   6.992
13635TIP3    H140790   7.266   3.175   6.943
13635TIP3    H240791   7.184   3.131   7.062
13636TIP3   OH240792   7.324   2.856   5.132
13636TIP3    H140793   7.302   2.811   5.049
13636TIP3    H240794   7.291   2.947   5.110
13637TIP3   OH240795   6.790   2.590   6.990
13637TIP3    H140796   6.793   2.511   6.931
13637TIP3    H240797   6.748   2.655   6.929
13638TIP3   OH240798   6.786   2.398   6.798
13638TIP3    H140799   6.834   2.392   6.715
13638TIP3    H240800   6.707   2.343   6.779
13639TIP3   OH240801   6.822   2.909   6.670
13639TIP3    H140802   6.904   2.912   6.620
13639TIP3    H240803   6.767   2.974   6.622
13640TIP3   OH240804   7.405   2.873   7.045
13640TIP3    H140805   7.454   2.790   7.054
13640TIP3    H240806   7.472   2.933   7.011
13641TIP3   OH240807   7.446   3.126   6.781
13641TIP3    H140808   7.388   3.180   6.722
13641TIP3    H240809   7.533   3.147   6.741
13642TIP3   OH240810   6.666   2.698   7.215
13642TIP3    H140811   6.597   2.630   7.229
13642TIP3    H240812   6.703   2.670   7.129
13643TIP3   OH240813   7.054   2.638   7.074
13643TIP3    H140814   7.041   2.626   7.169
13643TIP3    H240815   6.964   2.614   7.043
13644TIP3   OH240816   7.292   2.586   6.927
13644TIP3    H140817   7.217   2.588   6.990
13644TIP3    H240818   7.366   2.557   6.984
13645TIP3   OH240819   7.524   2.532   7.079
13645TIP3    H140820   7.537   2.436   7.096
13645TIP3    H240821   7.519   2.569   7.170
13646TIP3   OH240822   6.504   2.482   7.272
13646TIP3    H140823   6.510   2.394   7.233
13646TIP3    H240824   6.542   2.467   7.361
13647TIP3   OH240825   7.021   2.140   7.090
13647TIP3    H140826   7.091   2.072   7.098
13647TIP3    H240827   7.003   2.129   6.995
13648TIP3   OH240828   7.083   2.350   7.271
13648TIP3    H140829   7.065   2.285   7.200
13648TIP3    H240830   7.008   2.412   7.262
13649TIP3   OH240831   6.307   3.583   5.373
13649TIP3    H140832   6.404   3.594   5.369
13649TIP3    H240833   6.284   3.633   5.292
13650TIP3   OH240834   5.788   2.970   5.588
13650TIP3    H140835   5.884   2.992   5.577
13650TIP3    H240836   5.784   2.881   5.549
13651TIP3   OH240837   5.703   3.581   6.004
13651TIP3    H140838   5.636   3.519   5.968
13651TIP3    H240839   5.748   3.524   6.070
13652TIP3   OH240840   5.840   3.432   6.190
13652TIP3    H140841   5.828   3.360   6.254
13652TIP3    H240842   5.892   3.494   6.243
13653TIP3   OH240843   7.571   3.825   5.992
13653TIP3    H140844   7.590   3.864   6.079
13653TIP3    H240845   7.618   3.885   5.933
13654TIP3   OH240846   7.595   3.855   6.273
13654TIP3    H140847   7.551   3.767   6.267
13654TIP3    H240848   7.669   3.833   6.331
13655TIP3   OH240849   7.643   3.529   6.846
13655TIP3    H140850   7.569   3.538   6.910
13655TIP3    H240851   7.683   3.618   6.850
13656TIP3   OH240852   7.459   3.042   5.465
13656TIP3    H140853   7.526   3.108   5.438
13656TIP3    H240854   7.502   3.004   5.545
13657TIP3   OH240855   7.587   2.910   5.669
13657TIP3    H140856   7.520   2.868   5.728
13657TIP3    H240857   7.650   2.949   5.733
13658TIP3   OH240858   7.641   3.303   6.103
13658TIP3    H140859   7.693   3.239   6.051
13658TIP3    H240860   7.633   3.378   6.042
13659TIP3   OH240861   7.471   3.603   6.298
13659TIP3    H140862   7.400   3.648   6.347
13659TIP3    H240863   7.421   3.557   6.227
13660TIP3   OH240864   7.524   2.818   5.316
13660TIP3    H140865   7.453   2.822   5.249
13660TIP3    H240866   7.497   2.894   5.372
13661TIP3   OH240867   7.397   2.490   5.270
13661TIP3    H140868   7.351   2.531   5.195
13661TIP3    H240869   7.371   2.396   5.259
13662TIP3   OH240870   7.401   2.768   5.816
13662TIP3    H140871   7.407   2.671   5.811
13662TIP3    H240872   7.386   2.782   5.912
13663TIP3   OH240873   6.026   2.836   6.564
13663TIP3    H140874   6.025   2.809   6.470
13663TIP3    H240875   6.123   2.841   6.580
13664TIP3   OH240876   7.689   3.192   6.673
13664TIP3    H140877   7.762   3.127   6.663
13664TIP3    H240878   7.715   3.262   6.611
13665TIP3   OH240879   7.875   2.997   6.687
13665TIP3    H140880   7.800   2.948   6.727
13665TIP3    H240881   7.947   2.933   6.702
13666TIP3   OH240882   7.339   2.224   5.254
13666TIP3    H140883   7.413   2.195   5.311
13666TIP3    H240884   7.265   2.167   5.281
13667TIP3   OH240885   7.396   2.483   5.711
13667TIP3    H140886   7.436   2.394   5.726
13667TIP3    H240887   7.455   2.516   5.641
13668TIP3   OH240888   7.558   2.656   6.206
13668TIP3    H140889   7.644   2.682   6.166
13668TIP3    H240890   7.570   2.694   6.295
13669TIP3   OH240891   7.627   2.801   6.437
13669TIP3    H140892   7.549   2.835   6.486
13669TIP3    H240893   7.659   2.883   6.393
13670TIP3   OH240894   8.080   2.393   6.994
13670TIP3    H140895   8.138   2.328   6.950
13670TIP3    H240896   8.049   2.447   6.918
13671TIP3   OH240897   7.506   2.233   5.747
13671TIP3    H140898   7.553   2.218   5.832
13671TIP3    H240899   7.444   2.157   5.747
13672TIP3   OH240900   6.203   2.221   6.579
13672TIP3    H140901   6.265   2.144   6.580
13672TIP3    H240902   6.266   2.293   6.563
13673TIP3   OH240903   6.013   2.493   6.651
13673TIP3    H140904   6.060   2.482   6.566
13673TIP3    H240905   6.035   2.585   6.671
13674TIP3   OH240906   7.950   2.531   6.801
13674TIP3    H140907   7.864   2.574   6.822
13674TIP3    H240908   7.918   2.461   6.741
13675TIP3   OH240909   7.586   2.169   5.381
13675TIP3    H140910   7.626   2.097   5.329
13675TIP3    H240911   7.653   2.239   5.376
13676TIP3   OH240912   5.991   1.999   6.144
13676TIP3    H140913   5.897   1.994   6.169
13676TIP3    H240914   5.988   2.056   6.064
13677TIP3   OH240915   7.152   3.694   5.647
13677TIP3    H140916   7.207   3.690   5.567
13677TIP3    H240917   7.192   3.767   5.696
13678TIP3   OH240918   6.213   2.127   6.977
13678TIP3    H140919   6.163   2.074   7.041
13678TIP3    H240920   6.146   2.140   6.906
13679TIP3   OH240921   6.252   3.500   7.032
13679TIP3    H140922   6.159   3.476   7.017
13679TIP3    H240923   6.260   3.491   7.128
13680TIP3   OH240924   6.429   3.536   6.580
13680TIP3    H140925   6.383   3.613   6.541
13680TIP3    H240926   6.516   3.550   6.536
13681TIP3   OH240927   6.873   3.780   6.718
13681TIP3    H140928   6.916   3.782   6.807
13681TIP3    H240929   6.939   3.831   6.666
13682TIP3   OH240930   7.053   3.931   6.579
13682TIP3    H140931   7.125   3.885   6.534
13682TIP3    H240932   7.104   3.989   6.640
13683TIP3   OH240933   7.849   2.295   6.677
13683TIP3    H140934   7.757   2.289   6.644
13683TIP3    H240935   7.878   2.202   6.665
13684TIP3   OH240936   6.104   3.790   6.607
13684TIP3    H140937   6.016   3.825   6.582
13684TIP3    H240938   6.118   3.836   6.690
13685TIP3   OH240939   6.341   3.769   6.462
13685TIP3    H140940   6.254   3.784   6.506
13685TIP3    H240941   6.324   3.804   6.372
13686TIP3   OH240942   6.767   3.800   6.261
13686TIP3    H140943   6.703   3.821   6.191
13686TIP3    H240944   6.782   3.888   6.301
13687TIP3   OH240945   7.036   3.739   6.310
13687TIP3    H140946   6.942   3.758   6.293
13687TIP3    H240947   7.079   3.816   6.270
13688TIP3   OH240948   7.244   3.927   6.227
13688TIP3    H140949   7.228   4.013   6.180
13688TIP3    H240950   7.269   3.869   6.152
13689TIP3   OH240951   6.016   3.586   6.349
13689TIP3    H140952   6.043   3.562   6.440
13689TIP3    H240953   6.089   3.544   6.298
13690TIP3   OH240954   6.210   3.458   6.206
13690TIP3    H140955   6.228   3.375   6.255
13690TIP3    H240956   6.301   3.497   6.202
13691TIP3   OH240957   6.474   3.552   6.212
13691TIP3    H140958   6.509   3.462   6.199
13691TIP3    H240959   6.521   3.577   6.293
13692TIP3   OH240960   7.048   2.210   6.290
13692TIP3    H140961   7.002   2.147   6.348
13692TIP3    H240962   7.123   2.157   6.258
13693TIP3   OH240963   7.578   2.087   6.201
13693TIP3    H140964   7.612   2.141   6.127
13693TIP3    H240965   7.482   2.106   6.197
13694TIP3   OH240966   7.671   2.190   5.965
13694TIP3    H140967   7.745   2.140   5.925
13694TIP3    H240968   7.704   2.282   5.951
13695TIP3   OH240969   6.302   1.919   6.313
13695TIP3    H140970   6.210   1.885   6.315
13695TIP3    H240971   6.352   1.834   6.309
13696TIP3   OH240972   6.085   1.789   5.959
13696TIP3    H140973   6.117   1.846   5.888
13696TIP3    H240974   6.060   1.853   6.028
13697TIP3   OH240975   6.743   1.952   6.195
13697TIP3    H140976   6.801   2.003   6.137
13697TIP3    H240977   6.778   1.977   6.283
13698TIP3   OH240978   7.297   2.098   6.177
13698TIP3    H140979   7.286   2.061   6.089
13698TIP3    H240980   7.281   2.018   6.234
13699TIP3   OH240981   7.322   2.020   5.739
13699TIP3    H140982   7.236   2.064   5.753
13699TIP3    H240983   7.307   1.935   5.786
13700TIP3   OH240984   5.805   3.359   5.741
13700TIP3    H140985   5.720   3.328   5.707
13700TIP3    H240986   5.797   3.454   5.725
13701TIP3   OH240987   6.205   1.949   5.723
13701TIP3    H140988   6.254   1.885   5.667
13701TIP3    H240989   6.278   2.002   5.760
13702TIP3   OH240990   6.719   2.123   5.823
13702TIP3    H140991   6.777   2.077   5.885
13702TIP3    H240992   6.739   2.216   5.849
13703TIP3   OH240993   6.580   3.534   5.332
13703TIP3    H140994   6.657   3.579   5.291
13703TIP3    H240995   6.560   3.467   5.264
13704TIP3   OH240996   7.300   3.668   5.413
13704TIP3    H140997   7.289   3.570   5.403
13704TIP3    H240998   7.250   3.700   5.336
13705TIP3   OH240999   6.500   2.195   7.212
13705TIP3    H141000   6.479   2.116   7.264
13705TIP3    H241001   6.596   2.202   7.231
13706TIP3   OH241002   6.754   2.199   7.320
13706TIP3    H141003   6.837   2.177   7.275
13706TIP3    H241004   6.748   2.127   7.387
13707TIP3   OH241005   5.879   3.384   5.380
13707TIP3    H141006   5.879   3.413   5.472
13707TIP3    H241007   5.969   3.344   5.370
13708TIP3   OH241008   7.587   2.265   7.115
13708TIP3    H141009   7.605   2.231   7.205
13708TIP3    H241010   7.675   2.255   7.072
13709TIP3   OH241011   7.523   3.810   6.602
13709TIP3    H141012   7.444   3.778   6.553
13709TIP3    H241013   7.503   3.905   6.607
13710TIP3   OH241014   8.793   3.185   5.368
13710TIP3    H141015   8.761   3.275   5.346
13710TIP3    H241016   8.717   3.132   5.339
13711TIP3   OH241017   8.790   3.181   5.749
13711TIP3    H141018   8.817   3.152   5.838
13711TIP3    H241019   8.746   3.102   5.714
13712TIP3   OH241020   8.089   3.077   6.113
13712TIP3    H141021   8.118   3.009   6.176
13712TIP3    H241022   8.163   3.138   6.114
13713TIP3   OH241023   9.038   3.479   5.433
13713TIP3    H141024   9.003   3.423   5.502
13713TIP3    H241025   9.061   3.560   5.482
13714TIP3   OH241026   8.059   3.488   5.839
13714TIP3    H141027   8.049   3.390   5.842
13714TIP3    H241028   8.156   3.496   5.836
13715TIP3   OH241029   7.767   2.691   5.625
13715TIP3    H141030   7.718   2.774   5.641
13715TIP3    H241031   7.695   2.637   5.587
13716TIP3   OH241032   7.825   2.978   5.797
13716TIP3    H141033   7.873   2.901   5.834
13716TIP3    H241034   7.883   3.007   5.726
13717TIP3   OH241035   8.680   3.948   5.447
13717TIP3    H141036   8.727   3.876   5.400
13717TIP3    H241037   8.670   3.912   5.535
13718TIP3   OH241038   8.585   3.410   5.798
13718TIP3    H141039   8.621   3.334   5.748
13718TIP3    H241040   8.670   3.452   5.824
13719TIP3   OH241041   9.507   2.786   5.777
13719TIP3    H141042   9.569   2.819   5.847
13719TIP3    H241043   9.574   2.754   5.714
13720TIP3   OH241044   9.019   2.920   5.818
13720TIP3    H141045   9.045   2.830   5.844
13720TIP3    H241046   8.978   2.903   5.731
13721TIP3   OH241047   8.338   2.569   5.795
13721TIP3    H141048   8.316   2.642   5.733
13721TIP3    H241049   8.289   2.496   5.752
13722TIP3   OH241050   9.032   2.662   5.418
13722TIP3    H141051   9.103   2.648   5.484
13722TIP3    H241052   9.084   2.694   5.342
13723TIP3   OH241053   7.970   2.772   5.903
13723TIP3    H141054   8.053   2.752   5.951
13723TIP3    H241055   7.983   2.715   5.824
13724TIP3   OH241056   8.412   2.969   5.694
13724TIP3    H141057   8.505   2.943   5.709
13724TIP3    H241058   8.372   2.885   5.663
13725TIP3   OH241059   9.663   2.945   5.954
13725TIP3    H141060   9.576   2.979   5.979
13725TIP3    H241061   9.715   2.964   6.035
13726TIP3   OH241062   8.334   2.553   6.231
13726TIP3    H141063   8.273   2.590   6.163
13726TIP3    H241064   8.282   2.570   6.312
13727TIP3   OH241065   8.681   3.403   5.240
13727TIP3    H141066   8.638   3.384   5.156
13727TIP3    H241067   8.637   3.488   5.264
13728TIP3   OH241068   8.440   3.328   6.026
13728TIP3    H141069   8.377   3.393   6.065
13728TIP3    H241070   8.480   3.380   5.954
13729TIP3   OH241071   9.242   2.663   5.594
13729TIP3    H141072   9.216   2.605   5.667
13729TIP3    H241073   9.335   2.682   5.614
13730TIP3   OH241074   8.204   2.668   6.015
13730TIP3    H141075   8.266   2.740   6.038
13730TIP3    H241076   8.254   2.627   5.940
13731TIP3   OH241077   8.268   3.521   6.123
13731TIP3    H141078   8.242   3.608   6.085
13731TIP3    H241079   8.189   3.505   6.179
13732TIP3   OH241080   7.664   3.212   5.359
13732TIP3    H141081   7.620   3.240   5.277
13732TIP3    H241082   7.693   3.298   5.396
13733TIP3   OH241083   9.103   3.725   5.596
13733TIP3    H141084   9.015   3.718   5.639
13733TIP3    H241085   9.095   3.812   5.552
13734TIP3   OH241086   9.379   2.630   5.972
13734TIP3    H141087   9.285   2.646   5.949
13734TIP3    H241088   9.424   2.672   5.897
13735TIP3   OH241089   8.689   2.272   5.944
13735TIP3    H141090   8.676   2.177   5.962
13735TIP3    H241091   8.612   2.310   5.991
13736TIP3   OH241092   8.807   3.774   5.277
13736TIP3    H141093   8.855   3.691   5.253
13736TIP3    H241094   8.866   3.839   5.234
13737TIP3   OH241095   8.947   3.558   5.181
13737TIP3    H141096   8.912   3.481   5.136
13737TIP3    H241097   8.984   3.519   5.263
13738TIP3   OH241098   9.326   3.641   5.942
13738TIP3    H141099   9.311   3.565   5.882
13738TIP3    H241100   9.306   3.717   5.883
13739TIP3   OH241101   8.621   3.035   5.201
13739TIP3    H141102   8.540   3.086   5.181
13739TIP3    H241103   8.664   3.032   5.113
13740TIP3   OH241104   8.578   2.818   4.916
13740TIP3    H141105   8.646   2.870   4.963
13740TIP3    H241106   8.636   2.755   4.868
13741TIP3   OH241107   9.504   3.261   5.755
13741TIP3    H141108   9.439   3.332   5.773
13741TIP3    H241109   9.561   3.304   5.687
13742TIP3   OH241110   8.966   3.117   5.168
13742TIP3    H141111   8.910   3.142   5.245
13742TIP3    H241112   9.050   3.094   5.212
13743TIP3   OH241113   9.197   3.159   6.087
13743TIP3    H141114   9.198   3.241   6.140
13743TIP3    H241115   9.108   3.163   6.046
13744TIP3   OH241116   8.199   3.114   5.588
13744TIP3    H141117   8.157   3.057   5.520
13744TIP3    H241118   8.276   3.060   5.616
13745TIP3   OH241119   8.329   3.528   5.736
13745TIP3    H141120   8.307   3.485   5.652
13745TIP3    H241121   8.419   3.492   5.754
13746TIP3   OH241122   8.341   3.084   5.943
13746TIP3    H141123   8.370   3.066   5.852
13746TIP3    H241124   8.380   3.172   5.962
13747TIP3   OH241125   8.866   3.722   5.721
13747TIP3    H141126   8.847   3.804   5.770
13747TIP3    H241127   8.845   3.652   5.787
13748TIP3   OH241128   8.473   3.642   6.266
13748TIP3    H141129   8.414   3.704   6.313
13748TIP3    H241130   8.407   3.589   6.217
13749TIP3   OH241131   8.806   2.973   4.995
13749TIP3    H141132   8.864   3.034   5.046
13749TIP3    H241133   8.832   2.996   4.903
13750TIP3   OH241134   8.227   3.198   6.367
13750TIP3    H141135   8.232   3.285   6.411
13750TIP3    H241136   8.132   3.178   6.380
13751TIP3   OH241137   8.552   3.653   5.273
13751TIP3    H141138   8.628   3.710   5.291
13751TIP3    H241139   8.488   3.714   5.233
13752TIP3   OH241140   8.268   3.810   6.354
13752TIP3    H141141   8.232   3.810   6.264
13752TIP3    H241142   8.189   3.788   6.408
13753TIP3   OH241143   9.334   2.235   5.076
13753TIP3    H141144   9.242   2.250   5.109
13753TIP3    H241145   9.337   2.297   5.001
13754TIP3   OH241146   8.066   2.957   5.392
13754TIP3    H141147   7.999   3.003   5.336
13754TIP3    H241148   8.023   2.872   5.407
13755TIP3   OH241149   9.121   3.584   4.594
13755TIP3    H141150   9.129   3.681   4.579
13755TIP3    H241151   9.214   3.556   4.583
13756TIP3   OH241152   7.847   3.341   6.301
13756TIP3    H141153   7.779   3.321   6.232
13756TIP3    H241154   7.883   3.253   6.323
13757TIP3   OH241155   7.699   3.533   5.935
13757TIP3    H141156   7.796   3.536   5.928
13757TIP3    H241157   7.682   3.615   5.984
13758TIP3   OH241158   9.560   3.990   5.985
13758TIP3    H141159   9.562   3.894   6.002
13758TIP3    H241160   9.478   4.015   6.034
13759TIP3   OH241161   8.671   3.770   6.124
13759TIP3    H141162   8.670   3.863   6.156
13759TIP3    H241163   8.599   3.731   6.178
13760TIP3   OH241164   8.433   3.901   5.075
13760TIP3    H141165   8.385   3.882   4.992
13760TIP3    H241166   8.399   3.989   5.100
13761TIP3   OH241167   7.870   3.750   5.459
13761TIP3    H141168   7.917   3.741   5.545
13761TIP3    H241169   7.808   3.676   5.465
13762TIP3   OH241170   8.633   3.803   4.715
13762TIP3    H141171   8.692   3.732   4.679
13762TIP3    H241172   8.667   3.811   4.807
13763TIP3   OH241173   8.684   3.850   4.985
13763TIP3    H141174   8.595   3.860   5.026
13763TIP3    H241175   8.733   3.809   5.058
13764TIP3   OH241176   9.464   3.123   6.250
13764TIP3    H141177   9.371   3.129   6.225
13764TIP3    H241178   9.479   3.026   6.246
13765TIP3   OH241179   8.052   3.523   6.288
13765TIP3    H141180   8.100   3.508   6.372
13765TIP3    H241181   7.977   3.460   6.296
13766TIP3   OH241182   8.451   2.348   6.073
13766TIP3    H141183   8.362   2.317   6.046
13766TIP3    H241184   8.425   2.430   6.120
13767TIP3   OH241185   8.984   2.463   6.267
13767TIP3    H141186   9.053   2.435   6.331
13767TIP3    H241187   8.901   2.442   6.315
13768TIP3   OH241188   9.220   2.895   6.186
13768TIP3    H141189   9.172   2.886   6.272
13768TIP3    H241190   9.190   2.982   6.155
13769TIP3   OH241191   8.883   3.024   4.742
13769TIP3    H141192   8.849   2.997   4.654
13769TIP3    H241193   8.966   3.068   4.717
13770TIP3   OH241194   8.596   2.396   5.044
13770TIP3    H141195   8.563   2.393   5.136
13770TIP3    H241196   8.557   2.314   5.010
13771TIP3   OH241197   8.384   2.862   6.093
13771TIP3    H141198   8.332   2.883   6.173
13771TIP3    H241199   8.368   2.943   6.039
13772TIP3   OH241200   8.266   2.749   5.606
13772TIP3    H141201   8.173   2.724   5.624
13772TIP3    H241202   8.279   2.709   5.517
13773TIP3   OH241203   8.759   2.836   5.333
13773TIP3    H141204   8.705   2.907   5.290
13773TIP3    H241205   8.812   2.804   5.258
13774TIP3   OH241206   8.932   3.113   6.418
13774TIP3    H141207   8.909   3.041   6.481
13774TIP3    H241208   9.025   3.129   6.442
13775TIP3   OH241209   8.906   2.861   5.573
13775TIP3    H141210   8.847   2.888   5.500
13775TIP3    H241211   8.945   2.782   5.531
13776TIP3   OH241212   8.203   2.892   6.300
13776TIP3    H141213   8.224   2.957   6.369
13776TIP3    H241214   8.190   2.810   6.352
13777TIP3   OH241215   8.251   2.369   5.010
13777TIP3    H141216   8.242   2.367   5.107
13777TIP3    H241217   8.173   2.423   4.986
13778TIP3   OH241218   7.795   2.414   5.880
13778TIP3    H141219   7.869   2.446   5.935
13778TIP3    H241220   7.837   2.382   5.799
13779TIP3   OH241221   7.767   2.395   5.400
13779TIP3    H141222   7.812   2.434   5.322
13779TIP3    H241223   7.706   2.468   5.421
13780TIP3   OH241224   8.931   3.109   5.994
13780TIP3    H141225   8.965   3.037   5.936
13780TIP3    H241226   8.899   3.056   6.071
13781TIP3   OH241227   8.594   2.573   5.667
13781TIP3    H141228   8.511   2.571   5.719
13781TIP3    H241229   8.661   2.568   5.737
13782TIP3   OH241230   8.028   2.628   5.675
13782TIP3    H141231   7.934   2.636   5.648
13782TIP3    H241232   8.050   2.536   5.652
13783TIP3   OH241233   8.297   2.623   5.364
13783TIP3    H141234   8.391   2.639   5.341
13783TIP3    H241235   8.249   2.646   5.281
13784TIP3   OH241236   9.081   2.650   5.868
13784TIP3    H141237   9.048   2.661   5.960
13784TIP3    H241238   9.015   2.587   5.833
13785TIP3   OH241239   8.140   2.656   5.143
13785TIP3    H141240   8.067   2.613   5.095
13785TIP3    H241241   8.191   2.693   5.067
13786TIP3   OH241242   9.256   4.335   6.088
13786TIP3    H141243   9.254   4.361   5.994
13786TIP3    H241244   9.334   4.386   6.120
13787TIP3   OH241245   8.214   3.445   6.509
13787TIP3    H141246   8.293   3.476   6.558
13787TIP3    H241247   8.148   3.445   6.582
13788TIP3   OH241248   8.678   2.902   5.768
13788TIP3    H141249   8.748   2.859   5.717
13788TIP3    H241250   8.682   2.856   5.854
13789TIP3   OH241251   8.200   2.387   5.644
13789TIP3    H141252   8.165   2.308   5.691
13789TIP3    H241253   8.249   2.347   5.571
13790TIP3   OH241254   8.654   2.799   6.050
13790TIP3    H141255   8.563   2.832   6.067
13790TIP3    H241256   8.709   2.859   6.104
13791TIP3   OH241257   8.391   3.186   5.150
13791TIP3    H141258   8.318   3.122   5.139
13791TIP3    H241259   8.372   3.221   5.241
13792TIP3   OH241260   9.286   3.424   5.775
13792TIP3    H141261   9.308   3.475   5.693
13792TIP3    H241262   9.197   3.389   5.755
13793TIP3   OH241263   8.848   2.498   5.015
13793TIP3    H141264   8.751   2.482   5.020
13793TIP3    H241265   8.856   2.594   5.035
13794TIP3   OH241266   8.792   3.508   6.146
13794TIP3    H141267   8.811   3.483   6.237
13794TIP3    H241268   8.750   3.595   6.155
13795TIP3   OH241269   8.919   2.748   5.116
13795TIP3    H141270   9.016   2.754   5.123
13795TIP3    H241271   8.898   2.826   5.059
13796TIP3   OH241272   8.084   3.210   5.826
13796TIP3    H141273   8.121   3.180   5.741
13796TIP3    H241274   8.120   3.145   5.889
13797TIP3   OH241275   8.535   3.336   4.971
13797TIP3    H141276   8.488   3.423   4.976
13797TIP3    H241277   8.481   3.282   5.032
13798TIP3   OH241278   7.964   3.127   6.437
13798TIP3    H141279   7.982   3.115   6.533
13798TIP3    H241280   7.893   3.063   6.422
13799TIP3   OH241281   8.689   3.244   6.458
13799TIP3    H141282   8.628   3.184   6.412
13799TIP3    H241283   8.776   3.209   6.429
13800TIP3   OH241284   8.950   3.762   6.043
13800TIP3    H141285   8.854   3.763   6.056
13800TIP3    H241286   8.979   3.815   6.120
13801TIP3   OH241287   9.350   2.830   4.965
13801TIP3    H141288   9.292   2.785   4.899
13801TIP3    H241289   9.375   2.905   4.908
13802TIP3   OH241290   9.578   3.682   6.026
13802TIP3    H141291   9.480   3.685   6.020
13802TIP3    H241292   9.599   3.654   5.934
13803TIP3   OH241293   9.060   3.656   4.859
13803TIP3    H141294   9.035   3.584   4.918
13803TIP3    H241295   9.074   3.611   4.774
13804TIP3   OH241296   9.048   3.277   5.701
13804TIP3    H141297   8.953   3.279   5.723
13804TIP3    H241298   9.053   3.187   5.667
13805TIP3   OH241299   8.183   3.512   5.448
13805TIP3    H141300   8.181   3.594   5.395
13805TIP3    H241301   8.089   3.497   5.463
13806TIP3   OH241302   7.747   2.817   5.153
13806TIP3    H141303   7.792   2.902   5.174
13806TIP3    H241304   7.670   2.822   5.214
13807TIP3   OH241305   8.323   3.279   5.395
13807TIP3    H141306   8.286   3.368   5.412
13807TIP3    H241307   8.285   3.229   5.469
13808TIP3   OH241308   8.452   3.857   5.919
13808TIP3    H141309   8.493   3.930   5.869
13808TIP3    H241310   8.529   3.823   5.969
13809TIP3   OH241311   8.103   3.751   5.302
13809TIP3    H141312   8.017   3.759   5.348
13809TIP3    H241313   8.134   3.844   5.305
13810TIP3   OH241314   8.841   3.487   5.880
13810TIP3    H141315   8.825   3.492   5.977
13810TIP3    H241316   8.926   3.442   5.879
13811TIP3   OH241317   8.815   3.384   4.760
13811TIP3    H141318   8.867   3.360   4.840
13811TIP3    H241319   8.726   3.357   4.788
13812TIP3   OH241320   9.090   4.023   5.926
13812TIP3    H141321   9.009   3.968   5.919
13812TIP3    H241322   9.074   4.089   5.855
13813TIP3   OH241323   9.153   3.859   4.580
13813TIP3    H141324   9.186   3.932   4.525
13813TIP3    H241325   9.073   3.903   4.617
13814TIP3   OH241326   8.174   2.634   6.446
13814TIP3    H141327   8.077   2.640   6.460
13814TIP3    H241328   8.201   2.576   6.519
13815TIP3   OH241329   8.973   3.323   4.979
13815TIP3    H141330   8.964   3.252   5.046
13815TIP3    H241331   9.069   3.319   4.962
13816TIP3   OH241332   7.894   3.719   6.076
13816TIP3    H141333   7.945   3.645   6.113
13816TIP3    H241334   7.915   3.789   6.138
13817TIP3   OH241335   8.182   3.364   4.759
13817TIP3    H141336   8.195   3.272   4.732
13817TIP3    H241337   8.162   3.353   4.855
13818TIP3   OH241338   8.128   3.369   5.031
13818TIP3    H141339   8.197   3.343   5.093
13818TIP3    H241340   8.130   3.467   5.039
13819TIP3   OH241341   7.862   3.063   5.236
13819TIP3    H141342   7.796   3.107   5.293
13819TIP3    H241343   7.875   3.132   5.168
13820TIP3   OH241344   9.012   2.698   6.127
13820TIP3    H141345   9.090   2.736   6.171
13820TIP3    H241346   8.996   2.617   6.181
13821TIP3   OH241347   8.889   2.451   5.293
13821TIP3    H141348   8.875   2.472   5.199
13821TIP3    H241349   8.927   2.534   5.328
13822TIP3   OH241350   8.393   3.567   4.981
13822TIP3    H141351   8.306   3.592   5.017
13822TIP3    H241352   8.408   3.640   4.919
13823TIP3   OH241353   8.582   2.630   5.395
13823TIP3    H141354   8.646   2.703   5.378
13823TIP3    H241355   8.585   2.623   5.493
13824TIP3   OH241356   8.853   2.950   6.201
13824TIP3    H141357   8.870   3.004   6.280
13824TIP3    H241358   8.904   2.869   6.220
13825TIP3   OH241359   8.724   2.357   5.498
13825TIP3    H141360   8.718   2.434   5.557
13825TIP3    H241361   8.784   2.392   5.428
13826TIP3   OH241362   8.137   3.642   5.049
13826TIP3    H141363   8.106   3.711   4.986
13826TIP3    H241364   8.119   3.685   5.135
13827TIP3   OH241365   8.236   2.355   5.287
13827TIP3    H141366   8.234   2.446   5.323
13827TIP3    H241367   8.332   2.338   5.295
13828TIP3   OH241368   9.486   2.854   6.174
13828TIP3    H141369   9.388   2.852   6.185
13828TIP3    H241370   9.496   2.790   6.104
13829TIP3   OH241371   7.853   3.271   5.042
13829TIP3    H141372   7.916   3.344   5.051
13829TIP3    H241373   7.900   3.218   4.974
13830TIP3   OH241374   7.798   2.548   5.174
13830TIP3    H141375   7.798   2.645   5.171
13830TIP3    H241376   7.713   2.527   5.134
13831TIP3   OH241377   9.111   3.996   5.520
13831TIP3    H141378   9.067   4.043   5.446
13831TIP3    H241379   9.205   4.017   5.500
13832TIP3   OH241380   8.187   2.268   6.048
13832TIP3    H141381   8.155   2.234   5.961
13832TIP3    H241382   8.176   2.189   6.105
13833TIP3   OH241383   7.723   3.482   5.428
13833TIP3    H141384   7.656   3.516   5.489
13833TIP3    H241385   7.695   3.525   5.344
13834TIP3   OH241386   7.881   4.028   6.500
13834TIP3    H141387   7.967   4.027   6.547
13834TIP3    H241388   7.859   3.934   6.499
13835TIP3   OH241389   8.365   3.993   6.544
13835TIP3    H141390   8.459   3.971   6.551
13835TIP3    H241391   8.337   3.934   6.471
13836TIP3   OH241392   8.345   3.568   4.672
13836TIP3    H141393   8.288   3.497   4.710
13836TIP3    H241394   8.420   3.515   4.640
13837TIP3   OH241395   9.005   3.897   6.276
13837TIP3    H141396   8.994   3.829   6.346
13837TIP3    H241397   9.080   3.949   6.309
13838TIP3   OH241398   8.780   3.609   4.585
13838TIP3    H141399   8.825   3.545   4.643
13838TIP3    H241400   8.835   3.607   4.504
13839TIP3   OH241401   8.012   3.434   6.700
13839TIP3    H141402   8.027   3.338   6.706
13839TIP3    H241403   7.924   3.437   6.656
13840TIP3   OH241404   7.989   3.085   4.893
13840TIP3    H141405   8.044   3.053   4.966
13840TIP3    H241406   8.057   3.090   4.822
13841TIP3   OH241407   8.621   3.520   6.473
13841TIP3    H141408   8.577   3.536   6.388
13841TIP3    H241409   8.650   3.427   6.465
13842TIP3   OH241410   8.500   3.284   4.701
13842TIP3    H141411   8.501   3.296   4.798
13842TIP3    H241412   8.499   3.186   4.696
13843TIP3   OH241413   9.111   3.524   6.075
13843TIP3    H141414   9.185   3.575   6.037
13843TIP3    H241415   9.039   3.589   6.069
13844TIP3   OH241416   8.132   3.168   6.683
13844TIP3    H141417   8.206   3.110   6.663
13844TIP3    H241418   8.157   3.202   6.771
13845TIP3   OH241419   8.199   2.989   5.117
13845TIP3    H141420   8.169   2.948   5.200
13845TIP3    H241421   8.233   2.912   5.067
13846TIP3   OH241422   8.467   3.054   6.346
13846TIP3    H141423   8.388   3.112   6.347
13846TIP3    H241424   8.515   3.088   6.267
13847TIP3   OH241425   8.298   2.781   4.956
13847TIP3    H141426   8.271   2.786   4.862
13847TIP3    H241427   8.395   2.786   4.949
13848TIP3   OH241428   8.982   3.454   6.478
13848TIP3    H141429   9.067   3.433   6.437
13848TIP3    H241430   8.977   3.389   6.550
13849TIP3   OH241431   9.119   3.113   4.619
13849TIP3    H141432   9.098   3.066   4.536
13849TIP3    H241433   9.086   3.203   4.596
13850TIP3   OH241434   8.590   2.841   6.469
13850TIP3    H141435   8.589   2.762   6.413
13850TIP3    H241436   8.545   2.908   6.413
13851TIP3   OH241437   8.592   2.628   6.276
13851TIP3    H141438   8.618   2.668   6.191
13851TIP3    H241439   8.498   2.605   6.259
13852TIP3   OH241440   8.619   3.163   6.150
13852TIP3    H141441   8.701   3.174   6.101
13852TIP3    H241442   8.560   3.229   6.107
13853TIP3   OH241443   9.202   3.129   6.531
13853TIP3    H141444   9.251   3.047   6.547
13853TIP3    H241445   9.273   3.190   6.507
13854TIP3   OH241446   9.243   3.381   6.263
13854TIP3    H141447   9.184   3.435   6.206
13854TIP3    H241448   9.331   3.402   6.223
13855TIP3   OH241449   8.468   2.952   6.701
13855TIP3    H141450   8.399   2.885   6.716
13855TIP3    H241451   8.502   2.927   6.613
13856TIP3   OH241452   8.724   2.391   6.344
13856TIP3    H141453   8.674   2.473   6.322
13856TIP3    H241454   8.655   2.323   6.333
13857TIP3   OH241455   8.851   2.896   6.561
13857TIP3    H141456   8.839   2.883   6.656
13857TIP3    H241457   8.761   2.871   6.530
13858TIP3   OH241458   9.088   2.841   6.414
13858TIP3    H141459   9.014   2.845   6.477
13858TIP3    H241460   9.162   2.812   6.472
13859TIP3   OH241461   9.318   2.785   6.565
13859TIP3    H141462   9.329   2.690   6.584
13859TIP3    H241463   9.313   2.824   6.655
13860TIP3   OH241464   8.307   2.733   6.753
13860TIP3    H141465   8.312   2.641   6.719
13860TIP3    H241466   8.342   2.721   6.844
13861TIP3   OH241467   8.819   2.401   6.602
13861TIP3    H141468   8.886   2.330   6.596
13861TIP3    H241469   8.779   2.395   6.513
13862TIP3   OH241470   8.885   2.616   6.761
13862TIP3    H141471   8.863   2.545   6.697
13862TIP3    H241472   8.806   2.674   6.755
13863TIP3   OH241473   8.105   3.844   4.861
13863TIP3    H141474   8.201   3.840   4.841
13863TIP3    H241475   8.074   3.894   4.783
13864TIP3   OH241476   7.584   3.226   5.076
13864TIP3    H141477   7.679   3.248   5.064
13864TIP3    H241478   7.579   3.137   5.036
13865TIP3   OH241479   7.506   3.838   5.487
13865TIP3    H141480   7.434   3.779   5.453
13865TIP3    H241481   7.545   3.780   5.555
13866TIP3   OH241482   7.639   3.688   5.676
13866TIP3    H141483   7.620   3.618   5.740
13866TIP3    H241484   7.687   3.752   5.733
13867TIP3   OH241485   9.365   4.085   5.479
13867TIP3    H141486   9.390   4.123   5.565
13867TIP3    H241487   9.423   4.135   5.419
13868TIP3   OH241488   9.391   4.111   5.761
13868TIP3    H141489   9.350   4.022   5.757
13868TIP3    H241490   9.467   4.091   5.817
13869TIP3   OH241491   9.438   3.787   6.331
13869TIP3    H141492   9.365   3.795   6.396
13869TIP3    H241493   9.479   3.875   6.336
13870TIP3   OH241494   9.247   3.304   4.950
13870TIP3    H141495   9.314   3.370   4.924
13870TIP3    H241496   9.291   3.262   5.027
13871TIP3   OH241497   9.366   3.166   5.154
13871TIP3    H141498   9.303   3.121   5.213
13871TIP3    H241499   9.429   3.207   5.217
13872TIP3   OH241500   9.434   3.553   5.582
13872TIP3    H141501   9.483   3.509   5.512
13872TIP3    H241502   9.419   3.640   5.541
13873TIP3   OH241503   9.266   3.859   5.784
13873TIP3    H141504   9.198   3.906   5.836
13873TIP3    H241505   9.213   3.816   5.714
13874TIP3   OH241506   9.325   3.083   4.797
13874TIP3    H141507   9.249   3.078   4.734
13874TIP3    H241508   9.293   3.156   4.854
13875TIP3   OH241509   9.178   2.750   4.770
13875TIP3    H141510   9.164   2.787   4.682
13875TIP3    H241511   9.156   2.656   4.755
13876TIP3   OH241512   9.195   3.013   5.310
13876TIP3    H141513   9.206   2.922   5.276
13876TIP3    H241514   9.148   2.998   5.393
13877TIP3   OH241515   7.823   3.095   6.050
13877TIP3    H141516   7.820   3.066   5.957
13877TIP3    H241517   7.920   3.097   6.066
13878TIP3   OH241518   9.487   3.446   6.155
13878TIP3    H141519   9.564   3.386   6.151
13878TIP3    H241520   9.516   3.522   6.101
13879TIP3   OH241521   9.683   3.262   6.177
13879TIP3    H141522   9.605   3.214   6.213
13879TIP3    H241523   9.750   3.191   6.188
13880TIP3   OH241524   9.130   2.484   4.748
13880TIP3    H141525   9.206   2.447   4.796
13880TIP3    H241526   9.057   2.422   4.766
13881TIP3   OH241527   9.201   2.749   5.197
13881TIP3    H141528   9.237   2.658   5.214
13881TIP3    H241529   9.253   2.774   5.119
13882TIP3   OH241530   9.405   3.068   5.932
13882TIP3    H141531   9.329   3.086   5.991
13882TIP3    H241532   9.448   3.156   5.931
13883TIP3   OH241533   8.040   2.784   6.724
13883TIP3    H141534   8.138   2.777   6.726
13883TIP3    H241535   8.016   2.698   6.765
13884TIP3   OH241536   9.295   2.493   5.247
13884TIP3    H141537   9.335   2.473   5.333
13884TIP3    H241538   9.235   2.416   5.236
13885TIP3   OH241539   8.002   2.476   6.053
13885TIP3    H141540   8.064   2.401   6.064
13885TIP3    H241541   8.063   2.551   6.048
13886TIP3   OH241542   7.805   2.749   6.129
13886TIP3    H141543   7.854   2.746   6.044
13886TIP3    H241544   7.830   2.836   6.161
13887TIP3   OH241545   9.731   2.777   6.302
13887TIP3    H141546   9.653   2.831   6.325
13887TIP3    H241547   9.691   2.715   6.237
13888TIP3   OH241548   9.381   2.408   4.857
13888TIP3    H141549   9.426   2.323   4.838
13888TIP3    H241550   9.435   2.469   4.802
13889TIP3   OH241551   7.788   2.252   5.628
13889TIP3    H141552   7.695   2.250   5.656
13889TIP3    H241553   7.784   2.312   5.550
13890TIP3   OH241554   8.948   3.955   5.135
13890TIP3    H141555   8.999   3.943   5.052
13890TIP3    H241556   8.999   4.024   5.180
13891TIP3   OH241557   8.007   2.332   6.442
13891TIP3    H141558   7.957   2.328   6.525
13891TIP3    H241559   7.941   2.372   6.383
13892TIP3   OH241560   8.048   3.759   6.521
13892TIP3    H141561   7.956   3.734   6.503
13892TIP3    H241562   8.055   3.742   6.616
13893TIP3   OH241563   8.227   3.792   6.068
13893TIP3    H141564   8.175   3.866   6.030
13893TIP3    H241565   8.311   3.808   6.022
13894TIP3   OH241566   8.671   4.036   6.205
13894TIP3    H141567   8.712   4.038   6.294
13894TIP3    H241568   8.737   4.089   6.154
13895TIP3   OH241569   8.850   4.189   6.065
13895TIP3    H141570   8.922   4.139   6.025
13895TIP3    H241571   8.900   4.247   6.126
13896TIP3   OH241572   9.633   2.552   6.170
13896TIP3    H141573   9.547   2.539   6.126
13896TIP3    H241574   9.679   2.470   6.144
13897TIP3   OH241575   7.903   4.051   6.091
13897TIP3    H141576   7.813   4.082   6.066
13897TIP3    H241577   7.909   4.086   6.180
13898TIP3   OH241578   8.139   4.029   5.949
13898TIP3    H141579   8.053   4.041   5.995
13898TIP3    H241580   8.118   4.062   5.859
13899TIP3   OH241581   8.565   4.058   5.746
13899TIP3    H141582   8.494   4.077   5.682
13899TIP3    H241583   8.576   4.145   5.789
13900TIP3   OH241584   8.833   3.995   5.796
13900TIP3    H141585   8.739   4.013   5.778
13900TIP3    H241586   8.876   4.073   5.757
13901TIP3   OH241587   9.040   4.189   5.713
13901TIP3    H141588   9.026   4.274   5.667
13901TIP3    H241589   9.066   4.130   5.639
13902TIP3   OH241590   7.816   3.845   5.834
13902TIP3    H141591   7.838   3.819   5.925
13902TIP3    H241592   7.888   3.799   5.785
13903TIP3   OH241593   8.008   3.714   5.692
13903TIP3    H141594   8.023   3.631   5.743
13903TIP3    H241595   8.099   3.751   5.688
13904TIP3   OH241596   8.274   3.810   5.695
13904TIP3    H141597   8.305   3.718   5.685
13904TIP3    H241598   8.317   3.832   5.780
13905TIP3   OH241599   8.849   2.466   5.783
13905TIP3    H141600   8.805   2.397   5.835
13905TIP3    H241601   8.921   2.417   5.739
13906TIP3   OH241602   9.372   2.359   5.713
13906TIP3    H141603   9.404   2.399   5.630
13906TIP3    H241604   9.276   2.357   5.698
13907TIP3   OH241605   9.461   2.449   5.473
13907TIP3    H141606   9.540   2.401   5.442
13907TIP3    H241607   9.489   2.542   5.456
13908TIP3   OH241608   8.098   2.175   5.799
13908TIP3    H141609   8.006   2.142   5.801
13908TIP3    H241610   8.147   2.090   5.796
13909TIP3   OH241611   7.884   2.045   5.447
13909TIP3    H141612   7.913   2.103   5.375
13909TIP3    H241613   7.855   2.109   5.515
13910TIP3   OH241614   8.542   2.207   5.680
13910TIP3    H141615   8.600   2.257   5.621
13910TIP3    H241616   8.563   2.245   5.766
13911TIP3   OH241617   9.088   2.355   5.664
13911TIP3    H141618   9.096   2.312   5.577
13911TIP3    H241619   9.075   2.276   5.722
13912TIP3   OH241620   9.108   2.281   5.230
13912TIP3    H141621   9.021   2.323   5.245
13912TIP3    H241622   9.095   2.195   5.275
13913TIP3   OH241623   7.603   3.615   5.226
13913TIP3    H141624   7.517   3.583   5.193
13913TIP3    H241625   7.591   3.710   5.213
13914TIP3   OH241626   8.001   2.204   5.210
13914TIP3    H141627   8.050   2.142   5.154
13914TIP3    H241628   8.074   2.259   5.247
13915TIP3   OH241629   8.514   2.380   5.309
13915TIP3    H141630   8.573   2.333   5.371
13915TIP3    H241631   8.535   2.472   5.335
13916TIP3   OH241632   8.374   3.804   4.809
13916TIP3    H141633   8.462   3.827   4.773
13916TIP3    H241634   8.351   3.729   4.749
13917TIP3   OH241635   9.094   3.923   4.902
13917TIP3    H141636   9.085   3.825   4.891
13917TIP3    H241637   9.046   3.955   4.823
13918TIP3   OH241638   8.306   2.456   6.690
13918TIP3    H141639   8.270   2.387   6.748
13918TIP3    H241640   8.400   2.456   6.718
13919TIP3   OH241641   8.555   2.453   6.810
13919TIP3    H141642   8.640   2.427   6.770
13919TIP3    H241643   8.542   2.382   6.876
13920TIP3   OH241644   7.676   3.641   4.865
13920TIP3    H141645   7.673   3.667   4.959
13920TIP3    H241646   7.766   3.601   4.857
13921TIP3   OH241647   9.376   2.515   6.599
13921TIP3    H141648   9.398   2.483   6.689
13921TIP3    H241649   9.464   2.512   6.554
13922TIP3   OH241650   9.317   4.067   6.091
13922TIP3    H141651   9.237   4.036   6.042
13922TIP3    H241652   9.298   4.163   6.095
13923TIP3   OH241653   9.538   2.947   5.131
13923TIP3    H141654   9.474   3.020   5.125
13923TIP3    H241655   9.491   2.880   5.077
13924TIP3   OH241656   9.596   3.236   5.291
13924TIP3    H141657   9.637   3.153   5.318
13924TIP3    H241658   9.632   3.243   5.201
13925TIP3   OH241659   9.449   3.474   4.870
13925TIP3    H141660   9.434   3.479   4.774
13925TIP3    H241661   9.483   3.564   4.889
13926TIP3   OH241662   9.638   3.584   5.777
13926TIP3    H141663   9.569   3.556   5.713
13926TIP3    H241664   9.673   3.499   5.811
13927TIP3   OH241665   9.502   3.790   5.429
13927TIP3    H141666   9.598   3.799   5.421
13927TIP3    H241667   9.479   3.872   5.474
13928TIP3   OH241668   9.634   4.013   4.967
13928TIP3    H141669   9.691   4.007   5.046
13928TIP3    H241670   9.589   3.927   4.969
13929TIP3   OH241671   9.785   3.808   5.797
13929TIP3    H141672   9.817   3.788   5.886
13929TIP3    H241673   9.721   3.735   5.783
13930TIP3   OH241674   9.550   2.696   5.402
13930TIP3    H141675   9.633   2.729   5.439
13930TIP3    H241676   9.558   2.720   5.309
13931TIP3   OH241677   9.734   3.374   5.921
13931TIP3    H141678   9.779   3.370   6.007
13931TIP3    H241679   9.684   3.292   5.923
13932TIP3   OH241680   9.524   3.143   4.617
13932TIP3    H141681   9.595   3.137   4.682
13932TIP3    H241682   9.446   3.122   4.673
13933TIP3   OH241683   9.684   3.980   5.572
13933TIP3    H141684   9.724   3.913   5.629
13933TIP3    H241685   9.710   4.062   5.616
13934TIP3   OH241686   9.517   3.742   4.918
13934TIP3    H141687   9.440   3.769   4.968
13934TIP3    H241688   9.498   3.784   4.831
13935TIP3   OH241689   9.673   4.279   5.988
13935TIP3    H141690   9.763   4.269   6.024
13935TIP3    H241691   9.647   4.186   5.983
13936TIP3   OH241692   9.808   3.717   6.173
13936TIP3    H141693   9.836   3.637   6.221
13936TIP3    H241694   9.723   3.691   6.132
13937TIP3   OH241695   9.381   3.484   4.569
13937TIP3    H141696   9.478   3.475   4.571
13937TIP3    H241697   9.358   3.402   4.520
13938TIP3   OH241698   9.295   4.097   4.978
13938TIP3    H141699   9.228   4.034   4.942
13938TIP3    H241700   9.340   4.040   5.043
13939TIP3   OH241701   9.424   3.946   5.169
13939TIP3    H141702   9.413   3.874   5.232
13939TIP3    H241703   9.481   4.007   5.221
13940TIP3   OH241704   9.651   3.353   5.537
13940TIP3    H141705   9.626   3.320   5.448
13940TIP3    H241706   9.730   3.405   5.517
13941TIP3   OH241707   9.820   3.027   6.187
13941TIP3    H141708   9.911   3.062   6.202
13941TIP3    H241709   9.817   2.952   6.249
13942TIP3   OH241710   9.593   3.022   5.586
13942TIP3    H141711   9.645   2.940   5.590
13942TIP3    H241712   9.657   3.088   5.618
13943TIP3   OH241713   9.543   2.563   5.100
13943TIP3    H141714   9.447   2.548   5.107
13943TIP3    H241715   9.553   2.581   5.006
13944TIP3   OH241716   9.839   4.024   6.027
13944TIP3    H141717   9.755   3.992   5.992
13944TIP3    H241718   9.842   3.984   6.115
13945TIP3   OH241719   9.688   4.298   5.582
13945TIP3    H141720   9.601   4.336   5.557
13945TIP3    H241721   9.708   4.352   5.660
13946TIP3   OH241722   9.937   4.283   5.445
13946TIP3    H141723   9.846   4.290   5.479
13946TIP3    H241724   9.929   4.319   5.355
13947TIP3   OH241725   9.612   4.098   5.319
13947TIP3    H141726   9.638   4.078   5.412
13947TIP3    H241727   9.691   4.063   5.272
13948TIP3   OH241728   9.820   3.987   5.168
13948TIP3    H141729   9.846   3.894   5.169
13948TIP3    H241730   9.908   4.031   5.178
13949TIP3   OH241731   9.398   3.870   4.713
13949TIP3    H141732   9.311   3.838   4.680
13949TIP3    H241733   9.387   3.965   4.698
13950TIP3   OH241734   9.512   3.921   4.368
13950TIP3    H141735   9.467   3.939   4.452
13950TIP3    H241736   9.545   3.831   4.383
13951TIP3   OH241737   1.243   3.970   7.056
13951TIP3    H141738   1.215   4.063   7.039
13951TIP3    H241739   1.163   3.922   7.031
13952TIP3   OH241740   1.236   3.970   7.440
13952TIP3    H141741   1.275   3.949   7.527
13952TIP3    H241742   1.196   3.885   7.415
13953TIP3   OH241743   0.532   3.866   7.805
13953TIP3    H141744   0.558   3.794   7.865
13953TIP3    H241745   0.616   3.914   7.797
13954TIP3   OH241746   1.482   4.274   7.122
13954TIP3    H141747   1.471   4.204   7.188
13954TIP3    H241748   1.514   4.348   7.177
13955TIP3   OH241749   0.517   4.275   7.529
13955TIP3    H141750   0.502   4.178   7.532
13955TIP3    H241751   0.614   4.278   7.529
13956TIP3   OH241752   0.160   3.473   7.318
13956TIP3    H141753   0.174   3.566   7.337
13956TIP3    H241754   0.166   3.433   7.405
13957TIP3   OH241755   0.281   3.759   7.477
13957TIP3    H141756   0.330   3.688   7.524
13957TIP3    H241757   0.350   3.801   7.424
13958TIP3   OH241758   1.132   4.734   7.140
13958TIP3    H141759   1.177   4.664   7.088
13958TIP3    H241760   1.133   4.695   7.228
13959TIP3   OH241761   1.040   4.199   7.486
13959TIP3    H141762   1.078   4.119   7.444
13959TIP3    H241763   1.124   4.243   7.511
13960TIP3   OH241764   2.054   3.517   7.486
13960TIP3    H141765   2.081   3.599   7.532
13960TIP3    H241766   2.070   3.540   7.394
13961TIP3   OH241767   1.456   3.698   7.517
13961TIP3    H141768   1.494   3.612   7.542
13961TIP3    H241769   1.422   3.680   7.428
13962TIP3   OH241770   0.795   3.350   7.479
13962TIP3    H141771   0.770   3.430   7.429
13962TIP3    H241772   0.736   3.284   7.437
13963TIP3   OH241773   1.484   3.446   7.108
13963TIP3    H141774   1.555   3.430   7.174
13963TIP3    H241775   1.537   3.484   7.035
13964TIP3   OH241776   0.424   3.557   7.587
13964TIP3    H141777   0.502   3.541   7.644
13964TIP3    H241778   0.447   3.499   7.513
13965TIP3   OH241779   0.864   3.759   7.384
13965TIP3    H141780   0.957   3.733   7.400
13965TIP3    H241781   0.824   3.673   7.357
13966TIP3   OH241782   2.125   3.724   7.657
13966TIP3    H141783   2.042   3.772   7.637
13966TIP3    H241784   2.143   3.756   7.747
13967TIP3   OH241785   1.135   4.194   6.926
13967TIP3    H141786   1.088   4.172   6.845
13967TIP3    H241787   1.090   4.277   6.952
13968TIP3   OH241788   0.899   4.118   7.716
13968TIP3    H141789   0.834   4.180   7.754
13968TIP3    H241790   0.938   4.171   7.644
13969TIP3   OH241791   1.695   3.449   7.281
13969TIP3    H141792   1.671   3.409   7.366
13969TIP3    H241793   1.745   3.528   7.309
13970TIP3   OH241794   0.649   3.448   7.698
13970TIP3    H141795   0.708   3.516   7.738
13970TIP3    H241796   0.714   3.404   7.640
13971TIP3   OH241797   0.723   4.308   7.811
13971TIP3    H141798   0.696   4.395   7.775
13971TIP3    H241799   0.645   4.291   7.868
13972TIP3   OH241800   0.169   4.024   6.995
13972TIP3    H141801   0.082   4.054   6.963
13972TIP3    H241802   0.175   4.069   7.081
13973TIP3   OH241803   1.551   4.515   7.286
13973TIP3    H141804   1.462   4.506   7.327
13973TIP3    H241805   1.543   4.603   7.245
13974TIP3   OH241806   1.846   3.414   7.652
13974TIP3    H141807   1.758   3.445   7.625
13974TIP3    H241808   1.903   3.448   7.580
13975TIP3   OH241809   1.149   3.060   7.631
13975TIP3    H141810   1.124   2.968   7.650
13975TIP3    H241811   1.077   3.107   7.679
13976TIP3   OH241812   1.254   4.563   6.961
13976TIP3    H141813   1.305   4.480   6.944
13976TIP3    H241814   1.316   4.628   6.921
13977TIP3   OH241815   1.400   4.347   6.870
13977TIP3    H141816   1.353   4.269   6.838
13977TIP3    H241817   1.436   4.314   6.955
13978TIP3   OH241818   1.776   4.432   7.634
13978TIP3    H141819   1.777   4.354   7.576
13978TIP3    H241820   1.771   4.506   7.570
13979TIP3   OH241821   1.069   3.820   6.889
13979TIP3    H141822   0.990   3.873   6.868
13979TIP3    H241823   1.117   3.821   6.804
13980TIP3   OH241824   1.030   3.607   6.605
13980TIP3    H141825   1.096   3.657   6.656
13980TIP3    H241826   1.088   3.544   6.558
13981TIP3   OH241827   1.974   4.059   7.474
13981TIP3    H141828   1.895   4.117   7.485
13981TIP3    H241829   2.005   4.091   7.387
13982TIP3   OH241830   1.420   3.904   6.861
13982TIP3    H141831   1.365   3.929   6.938
13982TIP3    H241832   1.504   3.879   6.906
13983TIP3   OH241833   1.654   3.946   7.771
13983TIP3    H141834   1.651   4.030   7.820
13983TIP3    H241835   1.566   3.948   7.726
13984TIP3   OH241836   0.655   3.904   7.276
13984TIP3    H141837   0.614   3.844   7.211
13984TIP3    H241838   0.731   3.851   7.309
13985TIP3   OH241839   0.787   4.319   7.423
13985TIP3    H141840   0.764   4.270   7.343
13985TIP3    H241841   0.876   4.284   7.443
13986TIP3   OH241842   0.778   3.888   7.625
13986TIP3    H141843   0.820   3.856   7.543
13986TIP3    H241844   0.831   3.967   7.649
13987TIP3   OH241845   1.310   4.512   7.409
13987TIP3    H141846   1.302   4.590   7.466
13987TIP3    H241847   1.298   4.438   7.472
13988TIP3   OH241848   0.926   4.432   7.955
13988TIP3    H141849   0.867   4.494   8.002
13988TIP3    H241850   0.861   4.377   7.907
13989TIP3   OH241851   1.261   3.762   6.688
13989TIP3    H141852   1.319   3.822   6.740
13989TIP3    H241853   1.287   3.786   6.596
13990TIP3   OH241854   0.692   3.995   8.051
13990TIP3    H141855   0.691   4.082   8.094
13990TIP3    H241856   0.598   3.969   8.062
13991TIP3   OH241857   1.002   4.442   6.963
13991TIP3    H141858   1.082   4.495   6.979
13991TIP3    H241859   0.941   4.506   6.924
13992TIP3   OH241860   0.724   4.602   8.043
13992TIP3    H141861   0.685   4.594   7.954
13992TIP3    H241862   0.655   4.563   8.100
13993TIP3   OH241863   1.775   3.003   6.736
13993TIP3    H141864   1.694   3.023   6.787
13993TIP3    H241865   1.788   3.088   6.688
13994TIP3   OH241866   0.524   3.743   7.083
13994TIP3    H141867   0.459   3.784   7.021
13994TIP3    H241868   0.481   3.659   7.103
13995TIP3   OH241869   1.574   4.371   6.283
13995TIP3    H141870   1.581   4.468   6.270
13995TIP3    H241871   1.666   4.343   6.270
13996TIP3   OH241872   0.301   4.145   7.987
13996TIP3    H141873   0.256   4.097   7.916
13996TIP3    H241874   0.341   4.070   8.036
13997TIP3   OH241875   2.000   4.815   7.663
13997TIP3    H141876   2.054   4.735   7.653
13997TIP3    H241877   1.930   4.788   7.725
13998TIP3   OH241878   1.120   4.562   7.811
13998TIP3    H141879   1.120   4.654   7.846
13998TIP3    H241880   1.051   4.521   7.867
13999TIP3   OH241881   0.883   4.688   6.765
13999TIP3    H141882   0.839   4.670   6.680
13999TIP3    H241883   0.852   4.778   6.787
14000TIP3   OH241884   0.358   4.530   7.123
14000TIP3    H141885   0.381   4.499   7.213
14000TIP3    H241886   0.277   4.482   7.100
14001TIP3   OH241887   1.085   4.590   6.406
14001TIP3    H141888   1.144   4.520   6.370
14001TIP3    H241889   1.119   4.599   6.497
14002TIP3   OH241890   1.135   4.637   6.676
14002TIP3    H141891   1.047   4.646   6.718
14002TIP3    H241892   1.186   4.598   6.749
14003TIP3   OH241893   1.905   3.902   7.956
14003TIP3    H141894   1.825   3.917   7.904
14003TIP3    H241895   1.919   3.806   7.943
14004TIP3   OH241896   0.509   4.320   7.978
14004TIP3    H141897   0.556   4.309   8.063
14004TIP3    H241898   0.440   4.251   7.985
14005TIP3   OH241899   0.908   3.118   7.757
14005TIP3    H141900   0.811   3.125   7.747
14005TIP3    H241901   0.934   3.210   7.781
14006TIP3   OH241902   1.435   3.250   7.958
14006TIP3    H141903   1.499   3.224   8.026
14006TIP3    H241904   1.348   3.235   8.002
14007TIP3   OH241905   1.682   3.685   7.881
14007TIP3    H141906   1.626   3.678   7.961
14007TIP3    H241907   1.648   3.766   7.839
14008TIP3   OH241908   1.336   3.808   6.431
14008TIP3    H141909   1.303   3.784   6.343
14008TIP3    H241910   1.415   3.859   6.408
14009TIP3   OH241911   1.048   3.185   6.734
14009TIP3    H141912   1.017   3.183   6.827
14009TIP3    H241913   1.009   3.102   6.702
14010TIP3   OH241914   0.806   3.655   7.765
14010TIP3    H141915   0.783   3.674   7.857
14010TIP3    H241916   0.800   3.742   7.722
14011TIP3   OH241917   0.717   3.538   7.295
14011TIP3    H141918   0.624   3.513   7.313
14011TIP3    H241919   0.730   3.495   7.208
14012TIP3   OH241920   1.209   3.622   7.023
14012TIP3    H141921   1.156   3.694   6.982
14012TIP3    H241922   1.263   3.592   6.947
14013TIP3   OH241923   1.384   3.910   8.125
14013TIP3    H141924   1.362   3.832   8.182
14013TIP3    H241925   1.480   3.914   8.136
14014TIP3   OH241926   1.368   3.650   7.261
14014TIP3    H141927   1.306   3.681   7.192
14014TIP3    H241928   1.399   3.568   7.218
14015TIP3   OH241929   0.650   3.684   7.995
14015TIP3    H141930   0.684   3.739   8.066
14015TIP3    H241931   0.649   3.596   8.037
14016TIP3   OH241932   0.703   3.156   6.699
14016TIP3    H141933   0.696   3.155   6.797
14016TIP3    H241934   0.625   3.211   6.677
14017TIP3   OH241935   0.245   3.221   7.534
14017TIP3    H141936   0.298   3.251   7.612
14017TIP3    H241937   0.299   3.146   7.506
14018TIP3   OH241938   0.234   3.213   7.108
14018TIP3    H141939   0.266   3.230   7.017
14018TIP3    H241940   0.187   3.296   7.125
14019TIP3   OH241941   1.381   3.906   7.672
14019TIP3    H141942   1.414   3.830   7.618
14019TIP3    H241943   1.361   3.859   7.756
14020TIP3   OH241944   1.046   3.358   7.358
14020TIP3    H141945   0.962   3.356   7.409
14020TIP3    H241946   1.111   3.358   7.430
14021TIP3   OH241947   0.476   3.411   7.353
14021TIP3    H141948   0.386   3.393   7.324
14021TIP3    H241949   0.518   3.323   7.346
14022TIP3   OH241950   0.749   3.408   7.054
14022TIP3    H141951   0.843   3.426   7.036
14022TIP3    H241952   0.704   3.434   6.970
14023TIP3   OH241953   1.538   3.432   7.549
14023TIP3    H141954   1.512   3.445   7.644
14023TIP3    H241955   1.466   3.374   7.520
14024TIP3   OH241956   0.589   3.446   6.830
14024TIP3    H141957   0.520   3.400   6.779
14024TIP3    H241958   0.643   3.483   6.757
14025TIP3   OH241959   1.708   5.126   7.777
14025TIP3    H141960   1.709   5.149   7.682
14025TIP3    H241961   1.787   5.173   7.809
14026TIP3   OH241962   0.673   4.234   8.196
14026TIP3    H141963   0.751   4.265   8.245
14026TIP3    H241964   0.605   4.239   8.266
14027TIP3   OH241965   1.130   3.693   7.449
14027TIP3    H141966   1.201   3.646   7.403
14027TIP3    H241967   1.135   3.656   7.538
14028TIP3   OH241968   0.641   3.178   7.330
14028TIP3    H141969   0.611   3.099   7.380
14028TIP3    H241970   0.704   3.140   7.268
14029TIP3   OH241971   0.842   3.975   6.838
14029TIP3    H141972   0.770   3.910   6.827
14029TIP3    H241973   0.824   4.009   6.929
14030TIP3   OH241974   1.745   4.211   7.469
14030TIP3    H141975   1.769   4.261   7.388
14030TIP3    H241976   1.659   4.171   7.444
14031TIP3   OH241977   1.299   3.289   6.695
14031TIP3    H141978   1.203   3.272   6.709
14031TIP3    H241979   1.310   3.382   6.725
14032TIP3   OH241980   1.245   4.297   7.833
14032TIP3    H141981   1.263   4.266   7.923
14032TIP3    H241982   1.203   4.383   7.848
14033TIP3   OH241983   1.370   3.533   6.803
14033TIP3    H141984   1.466   3.541   6.822
14033TIP3    H241985   1.352   3.615   6.753
14034TIP3   OH241986   0.531   3.997   7.510
14034TIP3    H141987   0.576   3.968   7.429
14034TIP3    H241988   0.575   3.943   7.578
14035TIP3   OH241989   0.987   4.124   6.659
14035TIP3    H141990   0.939   4.210   6.665
14035TIP3    H241991   0.933   4.069   6.720
14036TIP3   OH241992   0.434   3.936   8.129
14036TIP3    H141993   0.450   3.915   8.222
14036TIP3    H241994   0.349   3.890   8.111
14037TIP3   OH241995   1.137   4.033   8.150
14037TIP3    H141996   1.078   3.977   8.098
14037TIP3    H241997   1.225   3.998   8.123
14038TIP3   OH241998   1.400   4.559   7.728
14038TIP3    H141999   1.305   4.552   7.744
14038TIP3    H242000   1.430   4.607   7.808
14039TIP3   OH242001   1.813   3.624   6.640
14039TIP3    H142002   1.750   3.580   6.578
14039TIP3    H242003   1.809   3.714   6.601
14040TIP3   OH242004   2.032   4.471   7.731
14040TIP3    H142005   1.936   4.480   7.715
14040TIP3    H242006   2.062   4.455   7.638
14041TIP3   OH242007   1.513   4.444   6.549
14041TIP3    H142008   1.486   4.377   6.613
14041TIP3    H242009   1.523   4.394   6.466
14042TIP3   OH242010   1.507   4.075   7.384
14042TIP3    H142011   1.415   4.048   7.400
14042TIP3    H242012   1.542   3.994   7.341
14043TIP3   OH242013   0.640   4.302   7.136
14043TIP3    H142014   0.642   4.382   7.081
14043TIP3    H242015   0.546   4.289   7.151
14044TIP3   OH242016   0.199   3.608   6.848
14044TIP3    H142017   0.267   3.678   6.855
14044TIP3    H242018   0.130   3.649   6.903
14045TIP3   OH242019   0.774   4.066   7.081
14045TIP3    H142020   0.740   4.156   7.102
14045TIP3    H242021   0.740   4.015   7.157
14046TIP3   OH242022   0.905   4.646   7.608
14046TIP3    H142023   0.951   4.717   7.558
14046TIP3    H242024   0.980   4.608   7.658
14047TIP3   OH242025   0.584   4.545   6.980
14047TIP3    H142026   0.499   4.549   7.028
14047TIP3    H242027   0.611   4.639   6.983
14048TIP3   OH242028   1.294   4.279   7.566
14048TIP3    H142029   1.284   4.279   7.664
14048TIP3    H242030   1.374   4.225   7.555
14049TIP3   OH242031   1.268   4.171   6.450
14049TIP3    H142032   1.321   4.146   6.529
14049TIP3    H242033   1.179   4.146   6.479
14050TIP3   OH242034   1.539   4.814   7.620
14050TIP3    H142035   1.463   4.754   7.613
14050TIP3    H242036   1.523   4.876   7.546
14051TIP3   OH242037   1.607   4.648   6.270
14051TIP3    H142038   1.641   4.722   6.218
14051TIP3    H242039   1.526   4.690   6.305
14052TIP3   OH242040   0.630   3.451   8.162
14052TIP3    H142041   0.538   3.423   8.156
14052TIP3    H242042   0.674   3.370   8.191
14053TIP3   OH242043   1.428   4.102   6.664
14053TIP3    H142044   1.417   4.039   6.738
14053TIP3    H242045   1.525   4.102   6.655
14054TIP3   OH242046   0.360   4.531   7.761
14054TIP3    H142047   0.394   4.440   7.759
14054TIP3    H242048   0.384   4.556   7.851
14055TIP3   OH242049   0.634   4.152   6.450
14055TIP3    H142050   0.647   4.061   6.421
14055TIP3    H242051   0.615   4.140   6.545
14056TIP3   OH242052   0.582   4.157   6.724
14056TIP3    H142053   0.654   4.131   6.782
14056TIP3    H242054   0.586   4.255   6.729
14057TIP3   OH242055   0.338   3.837   6.903
14057TIP3    H142056   0.273   3.894   6.952
14057TIP3    H242057   0.360   3.900   6.833
14058TIP3   OH242058   1.475   3.478   7.807
14058TIP3    H142059   1.535   3.525   7.866
14058TIP3    H242060   1.443   3.405   7.863
14059TIP3   OH242061   1.348   3.237   6.981
14059TIP3    H142062   1.332   3.264   6.889
14059TIP3    H242063   1.385   3.319   7.021
14060TIP3   OH242064   0.845   4.354   6.671
14060TIP3    H142065   0.758   4.381   6.706
14060TIP3    H242066   0.861   4.426   6.608
14061TIP3   OH242067   1.031   3.418   7.086
14061TIP3    H142068   1.096   3.490   7.070
14061TIP3    H242069   1.037   3.409   7.184
14062TIP3   OH242070   1.336   3.759   7.889
14062TIP3    H142071   1.332   3.796   7.979
14062TIP3    H242072   1.328   3.664   7.904
14063TIP3   OH242073   1.177   3.144   7.187
14063TIP3    H142074   1.173   3.218   7.251
14063TIP3    H242075   1.238   3.182   7.120
14064TIP3   OH242076   0.587   4.428   6.733
14064TIP3    H142077   0.557   4.500   6.672
14064TIP3    H242078   0.582   4.474   6.820
14065TIP3   OH242079   0.690   3.143   6.975
14065TIP3    H142080   0.686   3.232   7.014
14065TIP3    H242081   0.786   3.125   6.985
14066TIP3   OH242082   1.945   3.634   7.875
14066TIP3    H142083   1.847   3.636   7.884
14066TIP3    H242084   1.953   3.600   7.785
14067TIP3   OH242085   1.595   3.831   7.260
14067TIP3    H142086   1.518   3.773   7.276
14067TIP3    H242087   1.665   3.785   7.310
14068TIP3   OH242088   0.318   4.069   6.720
14068TIP3    H142089   0.394   4.128   6.735
14068TIP3    H242090   0.357   4.010   6.652
14069TIP3   OH242091   0.248   3.335   6.864
14069TIP3    H142092   0.250   3.433   6.867
14069TIP3    H242093   0.175   3.318   6.804
14070TIP3   OH242094   1.560   4.787   7.210
14070TIP3    H142095   1.520   4.835   7.134
14070TIP3    H242096   1.655   4.805   7.192
14071TIP3   OH242097   0.629   3.055   7.744
14071TIP3    H142098   0.605   3.022   7.655
14071TIP3    H242099   0.622   2.974   7.798
14072TIP3   OH242100   0.199   4.248   7.157
14072TIP3    H142101   0.117   4.292   7.133
14072TIP3    H242102   0.248   4.258   7.075
14073TIP3   OH242103   0.809   4.791   8.231
14073TIP3    H142104   0.902   4.768   8.246
14073TIP3    H242105   0.786   4.726   8.161
14074TIP3   OH242106   0.797   4.356   6.363
14074TIP3    H142107   0.740   4.285   6.401
14074TIP3    H242108   0.872   4.304   6.329
14075TIP3   OH242109   1.453   4.687   7.968
14075TIP3    H142110   1.444   4.617   8.036
14075TIP3    H242111   1.531   4.737   7.999
14076TIP3   OH242112   1.233   4.397   6.274
14076TIP3    H142113   1.277   4.332   6.333
14076TIP3    H242114   1.290   4.396   6.195
14077TIP3   OH242115   0.482   4.206   8.395
14077TIP3    H142116   0.519   4.116   8.396
14077TIP3    H242117   0.388   4.184   8.379
14078TIP3   OH242118   0.446   3.871   6.585
14078TIP3    H142119   0.503   3.839   6.657
14078TIP3    H242120   0.512   3.877   6.512
14079TIP3   OH242121   1.072   4.306   8.163
14079TIP3    H142122   1.031   4.321   8.076
14079TIP3    H242123   1.102   4.213   8.157
14080TIP3   OH242124   0.952   4.071   6.390
14080TIP3    H142125   0.954   4.084   6.487
14080TIP3    H242126   0.950   3.973   6.385
14081TIP3   OH242127   1.565   4.314   7.771
14081TIP3    H142128   1.640   4.359   7.726
14081TIP3    H242129   1.494   4.379   7.756
14082TIP3   OH242130   0.573   3.940   8.387
14082TIP3    H142131   0.652   3.896   8.354
14082TIP3    H242132   0.603   3.974   8.474
14083TIP3   OH242133   0.649   3.777   6.804
14083TIP3    H142134   0.623   3.738   6.890
14083TIP3    H242135   0.685   3.700   6.757
14084TIP3   OH242136   0.919   3.842   8.040
14084TIP3    H142137   0.841   3.901   8.036
14084TIP3    H242138   0.969   3.872   7.960
14085TIP3   OH242139   0.750   3.569   6.646
14085TIP3    H142140   0.724   3.575   6.552
14085TIP3    H242141   0.848   3.575   6.639
14086TIP3   OH242142   1.438   4.245   8.169
14086TIP3    H142143   1.514   4.217   8.117
14086TIP3    H242144   1.430   4.174   8.234
14087TIP3   OH242145   1.574   3.902   6.308
14087TIP3    H142146   1.550   3.856   6.225
14087TIP3    H242147   1.540   3.992   6.286
14088TIP3   OH242148   1.044   3.627   8.153
14088TIP3    H142149   1.034   3.551   8.094
14088TIP3    H242150   0.999   3.697   8.100
14089TIP3   OH242151   1.075   3.958   7.853
14089TIP3    H142152   1.153   3.948   7.797
14089TIP3    H242153   1.020   4.021   7.802
14090TIP3   OH242154   1.657   3.918   8.224
14090TIP3    H142155   1.705   3.834   8.224
14090TIP3    H242156   1.721   3.979   8.185
14091TIP3   OH242157   1.694   4.171   7.959
14091TIP3    H142158   1.637   4.225   7.899
14091TIP3    H242159   1.782   4.191   7.919
14092TIP3   OH242160   0.921   3.741   8.390
14092TIP3    H142161   0.853   3.672   8.404
14092TIP3    H242162   0.952   3.720   8.300
14093TIP3   OH242163   1.180   3.172   8.041
14093TIP3    H142164   1.142   3.246   7.986
14093TIP3    H242165   1.108   3.108   8.030
14094TIP3   OH242166   1.302   3.681   8.249
14094TIP3    H142167   1.283   3.670   8.344
14094TIP3    H242168   1.214   3.657   8.213
14095TIP3   OH242169   1.543   3.631   8.107
14095TIP3    H142170   1.466   3.633   8.167
14095TIP3    H242171   1.615   3.601   8.166
14096TIP3   OH242172   1.776   3.575   8.259
14096TIP3    H142173   1.785   3.479   8.276
14096TIP3    H242174   1.769   3.613   8.349
14097TIP3   OH242175   0.753   3.531   8.441
14097TIP3    H142176   0.758   3.445   8.397
14097TIP3    H242177   0.797   3.510   8.527
14098TIP3   OH242178   1.269   3.187   8.297
14098TIP3    H142179   1.335   3.116   8.284
14098TIP3    H242180   1.228   3.188   8.208
14099TIP3   OH242181   1.337   3.406   8.448
14099TIP3    H142182   1.313   3.335   8.385
14099TIP3    H242183   1.259   3.466   8.442
14100TIP3   OH242184   0.557   4.634   6.551
14100TIP3    H142185   0.653   4.628   6.533
14100TIP3    H242186   0.529   4.683   6.471
14101TIP3   OH242187   0.049   4.034   6.705
14101TIP3    H142188   0.143   4.045   6.731
14101TIP3    H242189   0.043   3.937   6.696
14102TIP3   OH242190   1.814   4.877   7.170
14102TIP3    H142191   1.839   4.907   7.259
14102TIP3    H242192   1.873   4.930   7.113
14103TIP3   OH242193   1.848   4.898   7.447
14103TIP3    H142194   1.805   4.810   7.447
14103TIP3    H242195   1.919   4.879   7.512
14104TIP3   OH242196   1.891   4.574   8.027
14104TIP3    H142197   1.817   4.584   8.090
14104TIP3    H242198   1.930   4.663   8.027
14105TIP3   OH242199   1.708   4.087   6.642
14105TIP3    H142200   1.777   4.152   6.616
14105TIP3    H242201   1.750   4.048   6.723
14106TIP3   OH242202   1.834   3.954   6.846
14106TIP3    H142203   1.769   3.913   6.906
14106TIP3    H242204   1.899   3.993   6.908
14107TIP3   OH242205   1.876   4.340   7.265
14107TIP3    H142206   1.938   4.280   7.221
14107TIP3    H242207   1.873   4.417   7.205
14108TIP3   OH242208   1.719   4.650   7.468
14108TIP3    H142209   1.650   4.686   7.527
14108TIP3    H242210   1.667   4.598   7.404
14109TIP3   OH242211   1.773   3.863   6.492
14109TIP3    H142212   1.701   3.867   6.425
14109TIP3    H242213   1.746   3.938   6.549
14110TIP3   OH242214   1.646   3.535   6.444
14110TIP3    H142215   1.598   3.575   6.371
14110TIP3    H242216   1.620   3.441   6.436
14111TIP3   OH242217   1.649   3.812   6.992
14111TIP3    H142218   1.656   3.715   6.989
14111TIP3    H242219   1.634   3.828   7.089
14112TIP3   OH242220   0.275   3.929   7.714
14112TIP3    H142221   0.275   3.875   7.633
14112TIP3    H242222   0.365   3.911   7.749
14113TIP3   OH242223   1.936   4.236   7.849
14113TIP3    H142224   2.010   4.172   7.839
14113TIP3    H242225   1.965   4.310   7.792
14114TIP3   OH242226   2.120   4.040   7.865
14114TIP3    H142227   2.046   3.989   7.906
14114TIP3    H242228   2.194   3.978   7.880
14115TIP3   OH242229   1.588   3.269   6.430
14115TIP3    H142230   1.662   3.240   6.487
14115TIP3    H242231   1.514   3.212   6.458
14116TIP3   OH242232   1.644   3.527   6.887
14116TIP3    H142233   1.685   3.438   6.903
14116TIP3    H242234   1.704   3.561   6.818
14117TIP3   OH242235   1.807   3.700   7.382
14117TIP3    H142236   1.893   3.727   7.343
14117TIP3    H242237   1.818   3.738   7.472
14118TIP3   OH242238   1.874   3.844   7.614
14118TIP3    H142239   1.797   3.879   7.664
14118TIP3    H242240   1.906   3.925   7.569
14119TIP3   OH242241   0.475   3.552   8.437
14119TIP3    H142242   0.561   3.576   8.399
14119TIP3    H242243   0.502   3.475   8.487
14120TIP3   OH242244   2.329   3.437   8.172
14120TIP3    H142245   2.387   3.372   8.127
14120TIP3    H242246   2.297   3.491   8.096
14121TIP3   OH242247   1.755   3.277   6.924
14121TIP3    H142248   1.802   3.263   7.008
14121TIP3    H242249   1.693   3.201   6.924
14122TIP3   OH242250   0.447   3.259   7.726
14122TIP3    H142251   0.511   3.189   7.746
14122TIP3    H242252   0.506   3.337   7.732
14123TIP3   OH242253   0.272   3.543   7.831
14123TIP3    H142254   0.316   3.533   7.745
14123TIP3    H242255   0.265   3.639   7.841
14124TIP3   OH242256   2.198   3.575   7.979
14124TIP3    H142257   2.112   3.618   7.997
14124TIP3    H242258   2.167   3.505   7.918
14125TIP3   OH242259   1.834   3.214   6.557
14125TIP3    H142260   1.875   3.141   6.506
14125TIP3    H242261   1.902   3.283   6.553
14126TIP3   OH242262   0.229   3.021   7.294
14126TIP3    H142263   0.159   3.062   7.346
14126TIP3    H242264   0.242   3.090   7.225
14127TIP3   OH242265   1.398   4.746   6.824
14127TIP3    H142266   1.451   4.733   6.742
14127TIP3    H242267   1.452   4.810   6.873
14128TIP3   OH242268   0.458   3.129   8.148
14128TIP3    H142269   0.393   3.120   8.218
14128TIP3    H242270   0.405   3.165   8.075
14129TIP3   OH242271   0.533   4.515   8.215
14129TIP3    H142272   0.449   4.562   8.203
14129TIP3    H242273   0.535   4.504   8.312
14130TIP3   OH242274   0.681   4.579   7.758
14130TIP3    H142275   0.634   4.655   7.720
14130TIP3    H242276   0.768   4.592   7.715
14131TIP3   OH242277   1.122   4.829   7.896
14131TIP3    H142278   1.165   4.826   7.984
14131TIP3    H242279   1.190   4.877   7.844
14132TIP3   OH242280   1.303   4.978   7.752
14132TIP3    H142281   1.374   4.926   7.713
14132TIP3    H242282   1.354   5.035   7.814
14133TIP3   OH242283   2.097   3.340   7.854
14133TIP3    H142284   2.006   3.337   7.819
14133TIP3    H242285   2.125   3.246   7.842
14134TIP3   OH242286   0.586   4.818   7.645
14134TIP3    H142287   0.500   4.825   7.689
14134TIP3    H242288   0.567   4.854   7.557
14135TIP3   OH242289   1.017   4.846   7.438
14135TIP3    H142290   0.953   4.870   7.368
14135TIP3    H242291   1.032   4.933   7.482
14136TIP3   OH242292   1.286   4.785   7.487
14136TIP3    H142293   1.192   4.803   7.467
14136TIP3    H242294   1.330   4.861   7.447
14137TIP3   OH242295   1.490   4.976   7.403
14137TIP3    H142296   1.478   5.061   7.355
14137TIP3    H242297   1.518   4.916   7.331
14138TIP3   OH242298   0.312   4.657   7.520
14138TIP3    H142299   0.338   4.619   7.608
14138TIP3    H242300   0.369   4.600   7.463
14139TIP3   OH242301   0.465   4.489   7.373
14139TIP3    H142302   0.477   4.408   7.428
14139TIP3    H242303   0.556   4.523   7.370
14140TIP3   OH242304   0.730   4.599   7.388
14140TIP3    H142305   0.760   4.507   7.374
14140TIP3    H242306   0.777   4.617   7.472
14141TIP3   OH242307   1.302   3.255   7.468
14141TIP3    H142308   1.257   3.193   7.529
14141TIP3    H242309   1.375   3.200   7.433
14142TIP3   OH242310   1.826   3.130   7.375
14142TIP3    H142311   1.861   3.186   7.303
14142TIP3    H242312   1.731   3.152   7.374
14143TIP3   OH242313   1.920   3.235   7.140
14143TIP3    H142314   1.995   3.185   7.101
14143TIP3    H242315   1.952   3.327   7.127
14144TIP3   OH242316   0.550   2.962   7.486
14144TIP3    H142317   0.459   2.924   7.486
14144TIP3    H242318   0.602   2.879   7.485
14145TIP3   OH242319   0.351   2.826   7.144
14145TIP3    H142320   0.365   2.884   7.068
14145TIP3    H242321   0.310   2.888   7.208
14146TIP3   OH242322   0.993   2.994   7.371
14146TIP3    H142323   1.052   3.047   7.316
14146TIP3    H242324   1.007   3.034   7.458
14147TIP3   OH242325   1.545   3.141   7.354
14147TIP3    H142326   1.536   3.105   7.265
14147TIP3    H242327   1.530   3.061   7.409
14148TIP3   OH242328   1.570   3.065   6.915
14148TIP3    H142329   1.485   3.110   6.931
14148TIP3    H242330   1.555   2.980   6.963
14149TIP3   OH242331   0.455   2.996   6.896
14149TIP3    H142332   0.505   2.932   6.842
14149TIP3    H242333   0.526   3.048   6.936
14150TIP3   OH242334   0.968   3.167   7.000
14150TIP3    H142335   1.028   3.123   7.063
14150TIP3    H242336   0.986   3.260   7.025
14151TIP3   OH242337   0.825   4.592   6.500
14151TIP3    H142338   0.914   4.615   6.463
14151TIP3    H242339   0.803   4.518   6.440
14152TIP3   OH242340   1.546   4.711   6.592
14152TIP3    H142341   1.537   4.613   6.580
14152TIP3    H242342   1.499   4.743   6.512
14153TIP3   OH242343   0.757   3.241   8.379
14153TIP3    H142344   0.724   3.168   8.435
14153TIP3    H242345   0.850   3.245   8.410
14154TIP3   OH242346   1.010   3.237   8.501
14154TIP3    H142347   1.091   3.216   8.454
14154TIP3    H242348   0.999   3.160   8.560
14155TIP3   OH242349   0.148   4.436   6.603
14155TIP3    H142350   0.168   4.530   6.612
14155TIP3    H242351   0.230   4.398   6.564
14156TIP3   OH242352   1.833   3.303   8.288
14156TIP3    H142353   1.853   3.271   8.378
14156TIP3    H242354   1.921   3.299   8.245
14157TIP3   OH242355   1.751   4.852   7.797
14157TIP3    H142356   1.678   4.825   7.738
14157TIP3    H242357   1.745   4.949   7.789
14158TIP3   OH242358   3.038   4.226   6.545
14158TIP3    H142359   3.011   4.319   6.527
14158TIP3    H242360   2.958   4.179   6.517
14159TIP3   OH242361   3.038   4.225   6.926
14159TIP3    H142362   3.069   4.202   7.015
14159TIP3    H242363   2.993   4.143   6.898
14160TIP3   OH242364   2.338   4.122   7.286
14160TIP3    H142365   2.366   4.055   7.352
14160TIP3    H242366   2.404   4.190   7.302
14161TIP3   OH242367   3.279   4.529   6.609
14161TIP3    H142368   3.266   4.461   6.676
14161TIP3    H242369   3.309   4.605   6.662
14162TIP3   OH242370   2.304   4.531   7.006
14162TIP3    H142371   2.295   4.433   7.013
14162TIP3    H242372   2.399   4.542   7.022
14163TIP3   OH242373   2.016   3.736   6.800
14163TIP3    H142374   1.968   3.819   6.819
14163TIP3    H242375   1.943   3.682   6.764
14164TIP3   OH242376   2.072   4.022   6.972
14164TIP3    H142377   2.121   3.945   7.011
14164TIP3    H242378   2.136   4.057   6.910
14165TIP3   OH242379   2.927   4.991   6.623
14165TIP3    H142380   2.975   4.919   6.577
14165TIP3    H242381   2.922   4.956   6.713
14166TIP3   OH242382   2.835   4.453   6.973
14166TIP3    H142383   2.875   4.376   6.929
14166TIP3    H242384   2.918   4.499   7.000
14167TIP3   OH242385   3.848   3.773   6.973
14167TIP3    H142386   3.877   3.856   7.018
14167TIP3    H242387   3.870   3.794   6.880
14168TIP3   OH242388   3.248   3.955   7.007
14168TIP3    H142389   3.290   3.869   7.029
14168TIP3    H242390   3.217   3.938   6.917
14169TIP3   OH242391   2.587   3.614   6.972
14169TIP3    H142392   2.565   3.687   6.911
14169TIP3    H242393   2.536   3.541   6.929
14170TIP3   OH242394   3.280   3.703   6.595
14170TIP3    H142395   3.351   3.688   6.661
14170TIP3    H242396   3.332   3.741   6.522
14171TIP3   OH242397   2.219   3.817   7.079
14171TIP3    H142398   2.301   3.798   7.128
14171TIP3    H242399   2.233   3.760   7.001
14172TIP3   OH242400   2.662   4.014   6.866
14172TIP3    H142401   2.754   3.987   6.885
14172TIP3    H242402   2.621   3.929   6.839
14173TIP3   OH242403   3.920   3.980   7.144
14173TIP3    H142404   3.837   4.028   7.124
14173TIP3    H242405   3.938   4.010   7.234
14174TIP3   OH242406   2.582   3.597   7.407
14174TIP3    H142407   2.522   3.636   7.341
14174TIP3    H242408   2.530   3.615   7.489
14175TIP3   OH242409   2.930   4.449   6.414
14175TIP3    H142410   2.886   4.430   6.330
14175TIP3    H242411   2.887   4.533   6.440
14176TIP3   OH242412   2.681   4.376   7.207
14176TIP3    H142413   2.616   4.437   7.248
14176TIP3    H242414   2.721   4.432   7.138
14177TIP3   OH242415   3.490   3.706   6.768
14177TIP3    H142416   3.473   3.665   6.853
14177TIP3    H242417   3.542   3.785   6.794
14178TIP3   OH242418   2.453   3.713   7.191
14178TIP3    H142419   2.513   3.786   7.216
14178TIP3    H242420   2.503   3.673   7.117
14179TIP3   OH242421   2.498   4.564   7.316
14179TIP3    H142422   2.481   4.654   7.281
14179TIP3    H242423   2.426   4.562   7.383
14180TIP3   OH242424   1.913   4.257   6.535
14180TIP3    H142425   1.867   4.288   6.456
14180TIP3    H242426   1.943   4.342   6.575
14181TIP3   OH242427   3.350   4.772   6.774
14181TIP3    H142428   3.261   4.763   6.815
14181TIP3    H242429   3.342   4.859   6.731
14182TIP3   OH242430   3.642   3.670   7.137
14182TIP3    H142431   3.555   3.703   7.109
14182TIP3    H242432   3.701   3.705   7.067
14183TIP3   OH242433   2.938   3.317   7.121
14183TIP3    H142434   2.924   3.222   7.140
14183TIP3    H242435   2.861   3.355   7.168
14184TIP3   OH242436   3.053   4.818   6.449
14184TIP3    H142437   3.103   4.736   6.429
14184TIP3    H242438   3.114   4.884   6.409
14185TIP3   OH242439   3.196   4.603   6.355
14185TIP3    H142440   3.152   4.524   6.322
14185TIP3    H242441   3.233   4.569   6.440
14186TIP3   OH242442   3.577   4.685   7.120
14186TIP3    H142443   3.565   4.608   7.061
14186TIP3    H242444   3.559   4.760   7.059
14187TIP3   OH242445   2.865   4.076   6.376
14187TIP3    H142446   2.786   4.130   6.356
14187TIP3    H242447   2.913   4.080   6.291
14188TIP3   OH242448   2.826   3.865   6.090
14188TIP3    H142449   2.891   3.914   6.144
14188TIP3    H242450   2.885   3.802   6.045
14189TIP3   OH242451   3.772   4.321   6.963
14189TIP3    H142452   3.689   4.373   6.969
14189TIP3    H242453   3.802   4.346   6.873
14190TIP3   OH242454   3.215   4.157   6.350
14190TIP3    H142455   3.161   4.183   6.428
14190TIP3    H242456   3.300   4.134   6.394
14191TIP3   OH242457   3.450   4.201   7.261
14191TIP3    H142458   3.449   4.283   7.312
14191TIP3    H242459   3.363   4.206   7.216
14192TIP3   OH242460   2.449   4.159   6.764
14192TIP3    H142461   2.409   4.100   6.697
14192TIP3    H242462   2.526   4.106   6.794
14193TIP3   OH242463   2.585   4.578   6.909
14193TIP3    H142464   2.559   4.526   6.832
14193TIP3    H242465   2.673   4.541   6.930
14194TIP3   OH242466   2.592   4.129   7.117
14194TIP3    H142467   2.623   4.114   7.026
14194TIP3    H242468   2.628   4.217   7.140
14195TIP3   OH242469   3.109   4.767   6.896
14195TIP3    H142470   3.096   4.848   6.949
14195TIP3    H242471   3.094   4.695   6.960
14196TIP3   OH242472   2.717   4.687   7.439
14196TIP3    H142473   2.654   4.750   7.481
14196TIP3    H242474   2.653   4.628   7.395
14197TIP3   OH242475   3.059   4.018   6.174
14197TIP3    H142476   3.115   4.077   6.229
14197TIP3    H242477   3.092   4.040   6.084
14198TIP3   OH242478   2.476   4.237   7.537
14198TIP3    H142479   2.487   4.321   7.588
14198TIP3    H242480   2.381   4.222   7.554
14199TIP3   OH242481   2.800   4.699   6.446
14199TIP3    H142482   2.879   4.751   6.466
14199TIP3    H242483   2.737   4.766   6.415
14200TIP3   OH242484   2.535   4.863   7.540
14200TIP3    H142485   2.516   4.882   7.447
14200TIP3    H242486   2.453   4.812   7.559
14201TIP3   OH242487   3.569   3.260   6.221
14201TIP3    H142488   3.489   3.283   6.274
14201TIP3    H242489   3.585   3.344   6.174
14202TIP3   OH242490   2.317   4.000   6.564
14202TIP3    H142491   2.247   4.045   6.512
14202TIP3    H242492   2.274   3.917   6.587
14203TIP3   OH242493   2.066   4.366   7.487
14203TIP3    H142494   2.027   4.347   7.400
14203TIP3    H242495   2.133   4.297   7.499
14204TIP3   OH242496   1.950   4.580   7.103
14204TIP3    H142497   2.046   4.568   7.115
14204TIP3    H242498   1.929   4.648   7.169
14205TIP3   OH242499   3.815   5.030   7.165
14205TIP3    H142500   3.813   4.934   7.180
14205TIP3    H242501   3.731   5.056   7.211
14206TIP3   OH242502   2.919   4.815   7.298
14206TIP3    H142503   2.918   4.907   7.332
14206TIP3    H242504   2.846   4.775   7.350
14207TIP3   OH242505   2.676   4.943   6.251
14207TIP3    H142506   2.636   4.932   6.163
14207TIP3    H242507   2.648   5.033   6.277
14208TIP3   OH242508   2.119   4.793   6.636
14208TIP3    H142509   2.167   4.786   6.722
14208TIP3    H242510   2.060   4.717   6.643
14209TIP3   OH242511   2.878   4.840   5.902
14209TIP3    H142512   2.946   4.787   5.855
14209TIP3    H242513   2.920   4.851   5.990
14210TIP3   OH242514   2.933   4.897   6.170
14210TIP3    H142515   2.844   4.904   6.211
14210TIP3    H242516   2.985   4.857   6.241
14211TIP3   OH242517   3.705   4.161   7.440
14211TIP3    H142518   3.622   4.175   7.392
14211TIP3    H242519   3.718   4.064   7.430
14212TIP3   OH242520   2.700   3.393   7.249
14212TIP3    H142521   2.610   3.362   7.224
14212TIP3    H242522   2.675   3.475   7.297
14213TIP3   OH242523   3.233   3.506   7.444
14213TIP3    H142524   3.301   3.480   7.510
14213TIP3    H242525   3.149   3.488   7.491
14214TIP3   OH242526   3.472   3.937   7.363
14214TIP3    H142527   3.423   3.933   7.447
14214TIP3    H242528   3.448   4.025   7.328
14215TIP3   OH242529   3.142   4.073   5.919
14215TIP3    H142530   3.107   4.041   5.834
14215TIP3    H242531   3.147   4.169   5.906
14216TIP3   OH242532   2.847   3.440   6.222
14216TIP3    H142533   2.813   3.438   6.314
14216TIP3    H242534   2.804   3.359   6.188
14217TIP3   OH242535   2.631   3.907   7.268
14217TIP3    H142536   2.580   3.929   7.349
14217TIP3    H242537   2.616   3.989   7.215
14218TIP3   OH242538   2.515   3.793   6.782
14218TIP3    H142539   2.422   3.767   6.801
14218TIP3    H242540   2.526   3.751   6.694
14219TIP3   OH242541   3.005   3.879   6.509
14219TIP3    H142542   2.952   3.951   6.469
14219TIP3    H242543   3.060   3.850   6.434
14220TIP3   OH242544   3.180   4.155   7.592
14220TIP3    H142545   3.159   4.084   7.657
14220TIP3    H242546   3.272   4.175   7.618
14221TIP3   OH242547   3.163   3.907   6.750
14221TIP3    H142548   3.103   3.940   6.680
14221TIP3    H242549   3.194   3.826   6.706
14222TIP3   OH242550   2.452   3.936   7.476
14222TIP3    H142551   2.465   4.006   7.542
14222TIP3    H242552   2.439   3.857   7.532
14223TIP3   OH242553   2.501   3.414   6.187
14223TIP3    H142554   2.492   3.412   6.284
14223TIP3    H242555   2.422   3.466   6.163
14224TIP3   OH242556   2.043   3.459   7.055
14224TIP3    H142557   2.117   3.491   7.112
14224TIP3    H242558   2.088   3.426   6.976
14225TIP3   OH242559   2.016   3.440   6.576
14225TIP3    H142560   2.062   3.479   6.499
14225TIP3    H242561   1.955   3.513   6.598
14226TIP3   OH242562   3.172   4.155   7.171
14226TIP3    H142563   3.206   4.082   7.113
14226TIP3    H242564   3.142   4.103   7.249
14227TIP3   OH242565   2.841   3.613   6.843
14227TIP3    H142566   2.759   3.614   6.895
14227TIP3    H242567   2.909   3.616   6.912
14228TIP3   OH242568   2.277   3.673   6.850
14228TIP3    H142569   2.182   3.681   6.825
14228TIP3    H242570   2.298   3.580   6.829
14229TIP3   OH242571   2.546   3.666   6.540
14229TIP3    H142572   2.639   3.684   6.519
14229TIP3    H242573   2.498   3.690   6.458
14230TIP3   OH242574   3.334   3.691   7.042
14230TIP3    H142575   3.304   3.704   7.135
14230TIP3    H242576   3.265   3.631   7.009
14231TIP3   OH242577   2.388   3.701   6.319
14231TIP3    H142578   2.314   3.658   6.273
14231TIP3    H242579   2.438   3.737   6.244
14232TIP3   OH242580   3.505   5.380   7.265
14232TIP3    H142581   3.503   5.404   7.170
14232TIP3    H242582   3.582   5.430   7.297
14233TIP3   OH242583   2.487   4.458   7.704
14233TIP3    H142584   2.539   4.532   7.735
14233TIP3    H242585   2.397   4.495   7.707
14234TIP3   OH242586   2.924   3.943   6.941
14234TIP3    H142587   3.000   3.905   6.894
14234TIP3    H242588   2.932   3.904   7.030
14235TIP3   OH242589   2.447   3.431   6.820
14235TIP3    H142590   2.412   3.353   6.868
14235TIP3    H242591   2.498   3.390   6.750
14236TIP3   OH242592   2.902   3.842   7.231
14236TIP3    H142593   2.812   3.878   7.245
14236TIP3    H242594   2.958   3.903   7.282
14237TIP3   OH242595   2.638   4.232   6.324
14237TIP3    H142596   2.566   4.166   6.315
14237TIP3    H242597   2.621   4.266   6.415
14238TIP3   OH242598   3.540   4.467   6.955
14238TIP3    H142599   3.563   4.518   6.874
14238TIP3    H242600   3.454   4.427   6.930
14239TIP3   OH242601   3.095   3.546   6.180
14239TIP3    H142602   3.000   3.528   6.195
14239TIP3    H242603   3.107   3.638   6.211
14240TIP3   OH242604   3.038   4.549   7.324
14240TIP3    H142605   3.070   4.531   7.413
14240TIP3    H242606   3.002   4.639   7.332
14241TIP3   OH242607   3.167   3.789   6.290
14241TIP3    H142608   3.263   3.796   6.308
14241TIP3    H242609   3.149   3.871   6.240
14242TIP3   OH242610   2.329   4.251   7.003
14242TIP3    H142611   2.371   4.221   6.920
14242TIP3    H242612   2.368   4.192   7.069
14243TIP3   OH242613   2.788   4.380   6.145
14243TIP3    H142614   2.739   4.465   6.150
14243TIP3    H242615   2.734   4.325   6.205
14244TIP3   OH242616   2.221   4.163   7.611
14244TIP3    H142617   2.236   4.161   7.707
14244TIP3    H242618   2.140   4.109   7.602
14245TIP3   OH242619   2.938   4.283   7.636
14245TIP3    H142620   2.877   4.225   7.589
14245TIP3    H242621   3.025   4.250   7.605
14246TIP3   OH242622   3.198   4.809   7.219
14246TIP3    H142623   3.102   4.808   7.232
14246TIP3    H242624   3.227   4.860   7.297
14247TIP3   OH242625   3.606   3.880   6.129
14247TIP3    H142626   3.544   3.838   6.066
14247TIP3    H242627   3.607   3.970   6.088
14248TIP3   OH242628   3.827   4.739   7.209
14248TIP3    H142629   3.729   4.734   7.201
14248TIP3    H242630   3.852   4.709   7.119
14249TIP3   OH242631   3.322   4.694   6.027
14249TIP3    H142632   3.287   4.645   6.103
14249TIP3    H242633   3.288   4.643   5.953
14250TIP3   OH242634   3.304   4.331   6.872
14250TIP3    H142635   3.211   4.306   6.887
14250TIP3    H242636   3.338   4.250   6.828
14251TIP3   OH242637   2.430   4.554   6.619
14251TIP3    H142638   2.429   4.639   6.570
14251TIP3    H242639   2.338   4.545   6.644
14252TIP3   OH242640   1.995   3.862   6.330
14252TIP3    H142641   2.040   3.946   6.353
14252TIP3    H242642   1.918   3.866   6.391
14253TIP3   OH242643   2.570   4.322   6.569
14253TIP3    H142644   2.534   4.411   6.586
14253TIP3    H242645   2.535   4.272   6.645
14254TIP3   OH242646   2.707   4.906   7.087
14254TIP3    H142647   2.751   4.978   7.038
14254TIP3    H242648   2.780   4.869   7.138
14255TIP3   OH242649   2.350   4.797   6.475
14255TIP3    H142650   2.265   4.805   6.524
14255TIP3    H242651   2.382   4.890   6.481
14256TIP3   OH242652   3.089   4.534   7.055
14256TIP3    H142653   3.077   4.534   7.153
14256TIP3    H242654   3.171   4.485   7.045
14257TIP3   OH242655   3.041   4.434   5.963
14257TIP3    H142656   3.107   4.410   6.031
14257TIP3    H242657   2.958   4.415   6.008
14258TIP3   OH242658   3.338   5.068   7.104
14258TIP3    H142659   3.259   5.011   7.099
14258TIP3    H242660   3.321   5.133   7.032
14259TIP3   OH242661   2.423   3.677   7.623
14259TIP3    H142662   2.327   3.684   7.638
14259TIP3    H242663   2.450   3.619   7.697
14260TIP3   OH242664   3.224   4.354   6.155
14260TIP3    H142665   3.218   4.290   6.229
14260TIP3    H242666   3.321   4.359   6.143
14261TIP3   OH242667   2.403   4.400   5.933
14261TIP3    H142668   2.462   4.326   5.909
14261TIP3    H242669   2.401   4.391   6.031
14262TIP3   OH242670   2.374   4.414   6.209
14262TIP3    H142671   2.446   4.383   6.266
14262TIP3    H242672   2.382   4.512   6.220
14263TIP3   OH242673   2.110   4.107   6.412
14263TIP3    H142674   2.043   4.150   6.471
14263TIP3    H242675   2.124   4.178   6.347
14264TIP3   OH242676   3.264   3.740   7.301
14264TIP3    H142677   3.339   3.783   7.346
14264TIP3    H242678   3.247   3.661   7.357
14265TIP3   OH242679   3.147   3.493   6.467
14265TIP3    H142680   3.129   3.521   6.376
14265TIP3    H242681   3.183   3.575   6.507
14266TIP3   OH242682   2.638   4.605   6.157
14266TIP3    H142683   2.556   4.641   6.195
14266TIP3    H242684   2.665   4.678   6.099
14267TIP3   OH242685   2.830   3.674   6.571
14267TIP3    H142686   2.893   3.747   6.555
14267TIP3    H242687   2.833   3.666   6.669
14268TIP3   OH242688   3.099   3.993   7.379
14268TIP3    H142689   3.118   4.050   7.456
14268TIP3    H242690   3.154   3.915   7.398
14269TIP3   OH242691   2.974   3.402   6.674
14269TIP3    H142692   2.966   3.477   6.736
14269TIP3    H242693   3.035   3.439   6.607
14270TIP3   OH242694   2.377   4.686   6.225
14270TIP3    H142695   2.354   4.762   6.166
14270TIP3    H242696   2.365   4.727   6.313
14271TIP3   OH242697   2.486   3.400   6.463
14271TIP3    H142698   2.482   3.490   6.501
14271TIP3    H242699   2.582   3.382   6.472
14272TIP3   OH242700   3.739   3.893   7.361
14272TIP3    H142701   3.641   3.891   7.368
14272TIP3    H242702   3.750   3.856   7.273
14273TIP3   OH242703   3.390   4.088   6.748
14273TIP3    H142704   3.314   4.029   6.763
14273TIP3    H242705   3.462   4.042   6.797
14274TIP3   OH242706   2.104   4.320   6.216
14274TIP3    H142707   2.176   4.383   6.237
14274TIP3    H242708   2.151   4.262   6.153
14275TIP3   OH242709   2.048   3.592   6.348
14275TIP3    H142710   2.046   3.690   6.347
14275TIP3    H242711   1.960   3.570   6.315
14276TIP3   OH242712   3.358   5.043   6.697
14276TIP3    H142713   3.316   5.091   6.622
14276TIP3    H242714   3.452   5.062   6.677
14277TIP3   OH242715   2.436   3.312   7.224
14277TIP3    H142716   2.403   3.278   7.138
14277TIP3    H242717   2.425   3.234   7.282
14278TIP3   OH242718   1.971   4.527   6.603
14278TIP3    H142719   1.906   4.560   6.667
14278TIP3    H242720   1.942   4.571   6.520
14279TIP3   OH242721   2.126   5.066   7.673
14279TIP3    H142722   2.211   5.049   7.716
14279TIP3    H242723   2.091   4.974   7.663
14280TIP3   OH242724   2.591   4.613   5.858
14280TIP3    H142725   2.556   4.530   5.896
14280TIP3    H242726   2.664   4.579   5.804
14281TIP3   OH242727   3.250   4.946   7.454
14281TIP3    H142728   3.235   4.873   7.518
14281TIP3    H242729   3.328   4.991   7.490
14282TIP3   OH242730   3.060   4.666   5.777
14282TIP3    H142731   3.059   4.576   5.814
14282TIP3    H242732   3.038   4.651   5.685
14283TIP3   OH242733   2.255   4.483   7.887
14283TIP3    H142734   2.282   4.391   7.872
14283TIP3    H242735   2.174   4.488   7.830
14284TIP3   OH242736   2.240   4.133   6.072
14284TIP3    H142737   2.292   4.096   6.146
14284TIP3    H242738   2.309   4.134   6.002
14285TIP3   OH242739   2.854   4.548   7.648
14285TIP3    H142740   2.827   4.569   7.557
14285TIP3    H242741   2.894   4.459   7.640
14286TIP3   OH242742   2.684   4.315   5.892
14286TIP3    H142743   2.732   4.340   5.973
14286TIP3    H242744   2.719   4.225   5.878
14287TIP3   OH242745   3.360   4.571   7.255
14287TIP3    H142746   3.435   4.617   7.213
14287TIP3    H242747   3.290   4.637   7.245
14288TIP3   OH242748   2.376   4.201   7.862
14288TIP3    H142749   2.460   4.163   7.835
14288TIP3    H242750   2.401   4.244   7.947
14289TIP3   OH242751   2.443   4.034   6.292
14289TIP3    H142752   2.416   3.996   6.377
14289TIP3    H242753   2.480   3.956   6.245
14290TIP3   OH242754   2.718   4.099   7.523
14290TIP3    H142755   2.637   4.155   7.524
14290TIP3    H242756   2.764   4.133   7.442
14291TIP3   OH242757   2.546   3.826   6.133
14291TIP3    H142758   2.520   3.829   6.039
14291TIP3    H242759   2.644   3.832   6.126
14292TIP3   OH242760   3.226   4.492   7.655
14292TIP3    H142761   3.313   4.480   7.614
14292TIP3    H242762   3.229   4.429   7.730
14293TIP3   OH242763   2.839   3.886   7.646
14293TIP3    H142764   2.837   3.807   7.589
14293TIP3    H242765   2.794   3.953   7.590
14294TIP3   OH242766   2.841   3.670   7.453
14294TIP3    H142767   2.867   3.714   7.369
14294TIP3    H242768   2.746   3.650   7.435
14295TIP3   OH242769   2.866   4.207   7.323
14295TIP3    H142770   2.950   4.222   7.278
14295TIP3    H242771   2.808   4.275   7.283
14296TIP3   OH242772   3.450   4.174   7.708
14296TIP3    H142773   3.502   4.093   7.718
14296TIP3    H242774   3.516   4.237   7.676
14297TIP3   OH242775   3.492   4.425   7.441
14297TIP3    H142776   3.432   4.479   7.384
14297TIP3    H242777   3.579   4.448   7.401
14298TIP3   OH242778   2.718   3.996   7.880
14298TIP3    H142779   2.647   3.930   7.892
14298TIP3    H242780   2.750   3.973   7.790
14299TIP3   OH242781   2.972   3.435   7.520
14299TIP3    H142782   2.924   3.517   7.498
14299TIP3    H242783   2.902   3.367   7.510
14300TIP3   OH242784   3.100   3.939   7.737
14300TIP3    H142785   3.087   3.928   7.833
14300TIP3    H242786   3.010   3.916   7.706
14301TIP3   OH242787   3.337   3.884   7.590
14301TIP3    H142788   3.262   3.891   7.653
14301TIP3    H242789   3.410   3.857   7.649
14302TIP3   OH242790   3.568   3.830   7.743
14302TIP3    H142791   3.579   3.735   7.761
14302TIP3    H242792   3.563   3.869   7.832
14303TIP3   OH242793   2.554   3.777   7.930
14303TIP3    H142794   2.561   3.686   7.896
14303TIP3    H242795   2.590   3.766   8.021
14304TIP3   OH242796   3.067   3.445   7.778
14304TIP3    H142797   3.134   3.374   7.772
14304TIP3    H242798   3.027   3.439   7.689
14305TIP3   OH242799   3.133   3.660   7.938
14305TIP3    H142800   3.110   3.590   7.873
14305TIP3    H242801   3.055   3.719   7.932
14306TIP3   OH242802   2.351   4.880   6.033
14306TIP3    H142803   2.448   4.881   6.017
14306TIP3    H242804   2.321   4.938   5.960
14307TIP3   OH242805   1.833   4.273   6.247
14307TIP3    H142806   1.929   4.293   6.238
14307TIP3    H242807   1.829   4.182   6.211
14308TIP3   OH242808   1.750   4.882   6.668
14308TIP3    H142809   1.681   4.821   6.633
14308TIP3    H242810   1.793   4.824   6.735
14309TIP3   OH242811   1.886   4.731   6.854
14309TIP3    H142812   1.877   4.659   6.919
14309TIP3    H242813   1.935   4.796   6.909
14310TIP3   OH242814   3.611   5.135   6.654
14310TIP3    H142815   3.638   5.167   6.742
14310TIP3    H242816   3.674   5.179   6.596
14311TIP3   OH242817   3.641   5.155   6.936
14311TIP3    H142818   3.597   5.068   6.932
14311TIP3    H242819   3.715   5.133   6.994
14312TIP3   OH242820   3.686   4.830   7.511
14312TIP3    H142821   3.612   4.839   7.575
14312TIP3    H242822   3.726   4.919   7.515
14313TIP3   OH242823   3.504   4.342   6.128
14313TIP3    H142824   3.567   4.410   6.099
14313TIP3    H242825   3.549   4.308   6.208
14314TIP3   OH242826   3.631   4.211   6.332
14314TIP3    H142827   3.566   4.171   6.393
14314TIP3    H242828   3.697   4.250   6.394
14315TIP3   OH242829   3.685   4.604   6.765
14315TIP3    H142830   3.738   4.540   6.714
14315TIP3    H242831   3.679   4.679   6.703
14316TIP3   OH242832   3.516   4.905   6.960
14316TIP3    H142833   3.445   4.947   7.012
14316TIP3    H242834   3.465   4.857   6.891
14317TIP3   OH242835   3.570   4.119   5.982
14317TIP3    H142836   3.491   4.119   5.926
14317TIP3    H242837   3.551   4.197   6.038
14318TIP3   OH242838   3.437   3.795   5.933
14318TIP3    H142839   3.405   3.828   5.848
14318TIP3    H242840   3.414   3.699   5.926
14319TIP3   OH242841   3.445   4.069   6.480
14319TIP3    H142842   3.454   3.972   6.476
14319TIP3    H242843   3.431   4.084   6.576
14320TIP3   OH242844   2.073   4.145   7.225
14320TIP3    H142845   2.070   4.113   7.133
14320TIP3    H242846   2.170   4.144   7.242
14321TIP3   OH242847   3.734   4.494   7.336
14321TIP3    H142848   3.807   4.428   7.326
14321TIP3    H242849   3.762   4.564   7.275
14322TIP3   OH242850   3.919   4.298   7.350
14322TIP3    H142851   3.845   4.249   7.392
14322TIP3    H242852   3.992   4.234   7.366
14323TIP3   OH242853   3.384   3.528   5.919
14323TIP3    H142854   3.460   3.498   5.972
14323TIP3    H242855   3.312   3.469   5.946
14324TIP3   OH242856   3.440   3.784   6.374
14324TIP3    H142857   3.482   3.695   6.389
14324TIP3    H242858   3.499   3.819   6.305
14325TIP3   OH242859   3.602   3.957   6.869
14325TIP3    H142860   3.689   3.984   6.829
14325TIP3    H242861   3.615   3.995   6.958
14326TIP3   OH242862   3.671   4.102   7.101
14326TIP3    H142863   3.593   4.136   7.150
14326TIP3    H242864   3.703   4.183   7.056
14327TIP3   OH242865   2.287   3.826   7.898
14327TIP3    H142866   2.384   3.822   7.901
14327TIP3    H242867   2.264   3.741   7.942
14328TIP3   OH242868   4.124   3.694   7.658
14328TIP3    H142869   4.183   3.628   7.615
14328TIP3    H242870   4.094   3.748   7.582
14329TIP3   OH242871   3.550   3.534   6.411
14329TIP3    H142872   3.599   3.520   6.495
14329TIP3    H242873   3.489   3.458   6.412
14330TIP3   OH242874   2.250   3.519   7.227
14330TIP3    H142875   2.314   3.446   7.240
14330TIP3    H242876   2.311   3.596   7.225
14331TIP3   OH242877   2.054   3.792   7.305
14331TIP3    H142878   2.104   3.793   7.221
14331TIP3    H242879   2.075   3.879   7.342
14332TIP3   OH242880   3.994   3.833   7.464
14332TIP3    H142881   3.908   3.875   7.486
14332TIP3    H242882   3.963   3.762   7.405
14333TIP3   OH242883   3.630   3.470   6.044
14333TIP3    H142884   3.675   3.399   5.993
14333TIP3    H242885   3.696   3.541   6.043
14334TIP3   OH242886   2.036   3.294   6.803
14334TIP3    H142887   1.944   3.294   6.834
14334TIP3    H242888   2.032   3.356   6.726
14335TIP3   OH242889   3.197   5.001   6.310
14335TIP3    H142890   3.246   4.988   6.227
14335TIP3    H242891   3.251   5.067   6.356
14336TIP3   OH242892   2.256   3.375   7.619
14336TIP3    H142893   2.206   3.373   7.702
14336TIP3    H242894   2.190   3.416   7.559
14337TIP3   OH242895   2.495   4.837   7.248
14337TIP3    H142896   2.431   4.904   7.218
14337TIP3    H242897   2.571   4.859   7.190
14338TIP3   OH242898   2.919   5.080   7.387
14338TIP3    H142899   2.960   5.078   7.476
14338TIP3    H242900   2.985   5.132   7.336
14339TIP3   OH242901   3.098   5.233   7.242
14339TIP3    H142902   3.170   5.183   7.202
14339TIP3    H242903   3.149   5.292   7.303
14340TIP3   OH242904   3.893   3.596   7.341
14340TIP3    H142905   3.802   3.590   7.308
14340TIP3    H242906   3.923   3.503   7.329
14341TIP3   OH242907   2.148   5.093   7.250
14341TIP3    H142908   2.060   5.136   7.244
14341TIP3    H242909   2.157   5.085   7.346
14342TIP3   OH242910   2.390   5.076   7.125
14342TIP3    H142911   2.304   5.089   7.170
14342TIP3    H242912   2.370   5.109   7.035
14343TIP3   OH242913   2.815   5.105   6.920
14343TIP3    H142914   2.743   5.124   6.858
14343TIP3    H242915   2.826   5.192   6.965
14344TIP3   OH242916   3.082   5.041   6.974
14344TIP3    H142917   2.988   5.059   6.954
14344TIP3    H242918   3.125   5.118   6.934
14345TIP3   OH242919   3.289   5.234   6.890
14345TIP3    H142920   3.275   5.318   6.842
14345TIP3    H242921   3.315   5.173   6.817
14346TIP3   OH242922   2.062   4.893   7.008
14346TIP3    H142923   2.100   4.901   7.097
14346TIP3    H242924   2.133   4.842   6.962
14347TIP3   OH242925   2.257   4.761   6.868
14347TIP3    H142926   2.270   4.675   6.915
14347TIP3    H242927   2.348   4.796   6.866
14348TIP3   OH242928   2.523   4.853   6.872
14348TIP3    H142929   2.554   4.761   6.865
14348TIP3    H242930   2.568   4.879   6.955
14349TIP3   OH242931   3.097   3.510   6.958
14349TIP3    H142932   3.053   3.442   7.013
14349TIP3    H242933   3.171   3.461   6.918
14350TIP3   OH242934   3.620   3.384   6.860
14350TIP3    H142935   3.657   3.441   6.789
14350TIP3    H242936   3.526   3.411   6.860
14351TIP3   OH242937   3.716   3.491   6.627
14351TIP3    H142938   3.790   3.440   6.589
14351TIP3    H242939   3.749   3.583   6.614
14352TIP3   OH242940   2.347   3.219   6.975
14352TIP3    H142941   2.254   3.186   6.978
14352TIP3    H242942   2.396   3.134   6.972
14353TIP3   OH242943   2.131   3.090   6.623
14353TIP3    H142944   2.161   3.149   6.552
14353TIP3    H242945   2.103   3.154   6.692
14354TIP3   OH242946   2.791   3.251   6.856
14354TIP3    H142947   2.849   3.304   6.800
14354TIP3    H242948   2.807   3.289   6.943
14355TIP3   OH242949   3.336   3.399   6.842
14355TIP3    H142950   3.334   3.361   6.754
14355TIP3    H242951   3.323   3.319   6.898
14356TIP3   OH242952   3.364   3.321   6.401
14356TIP3    H142953   3.282   3.370   6.420
14356TIP3    H242954   3.351   3.241   6.455
14357TIP3   OH242955   1.853   4.659   6.400
14357TIP3    H142956   1.766   4.628   6.368
14357TIP3    H242957   1.840   4.755   6.389
14358TIP3   OH242958   2.250   3.250   6.386
14358TIP3    H142959   2.299   3.187   6.331
14358TIP3    H242960   2.322   3.304   6.424
14359TIP3   OH242961   2.764   3.424   6.486
14359TIP3    H142962   2.822   3.379   6.550
14359TIP3    H242963   2.783   3.517   6.511
14360TIP3   OH242964   2.618   4.855   5.980
14360TIP3    H142965   2.711   4.871   5.950
14360TIP3    H242966   2.602   4.773   5.928
14361TIP3   OH242967   3.341   4.965   6.075
14361TIP3    H142968   3.338   4.868   6.059
14361TIP3    H242969   3.298   4.998   5.993
14362TIP3   OH242970   2.554   3.500   7.866
14362TIP3    H142971   2.519   3.431   7.925
14362TIP3    H242972   2.648   3.501   7.895
14363TIP3   OH242973   2.803   3.498   7.987
14363TIP3    H142974   2.888   3.473   7.948
14363TIP3    H242975   2.791   3.427   8.053
14364TIP3   OH242976   1.924   4.697   6.051
14364TIP3    H142977   1.903   4.723   6.142
14364TIP3    H242978   2.012   4.657   6.059
14365TIP3   OH242979   3.628   3.558   7.774
14365TIP3    H142980   3.647   3.528   7.865
14365TIP3    H242981   3.717   3.554   7.733
14366TIP3   OH242982   3.569   5.112   7.264
14366TIP3    H142983   3.489   5.079   7.218
14366TIP3    H242984   3.548   5.207   7.271
14367TIP3   OH242985   4.833   4.482   6.034
14367TIP3    H142986   4.804   4.574   6.013
14367TIP3    H242987   4.756   4.433   6.000
14368TIP3   OH242988   4.832   4.485   6.414
14368TIP3    H142989   4.864   4.455   6.501
14368TIP3    H242990   4.791   4.405   6.378
14369TIP3   OH242991   4.132   4.379   6.779
14369TIP3    H142992   4.163   4.311   6.842
14369TIP3    H242993   4.210   4.435   6.773
14370TIP3   OH242994   5.076   4.785   6.095
14370TIP3    H142995   5.062   4.716   6.161
14370TIP3    H242996   5.105   4.860   6.150
14371TIP3   OH242997   4.103   4.788   6.504
14371TIP3    H142998   4.094   4.690   6.506
14371TIP3    H242999   4.200   4.797   6.497
14372TIP3   OH243000   3.810   3.990   6.288
14372TIP3    H143001   3.765   4.074   6.305
14372TIP3    H243002   3.737   3.938   6.250
14373TIP3   OH243003   3.869   4.278   6.459
14373TIP3    H143004   3.919   4.202   6.496
14373TIP3    H243005   3.930   4.313   6.394
14374TIP3   OH243006   4.725   5.249   6.112
14374TIP3    H143007   4.770   5.178   6.062
14374TIP3    H243008   4.718   5.209   6.200
14375TIP3   OH243009   4.631   4.710   6.463
14375TIP3    H143010   4.669   4.634   6.416
14375TIP3    H243011   4.715   4.755   6.487
14376TIP3   OH243012   5.643   4.029   6.459
14376TIP3    H143013   5.673   4.112   6.503
14376TIP3    H243014   5.669   4.046   6.367
14377TIP3   OH243015   5.042   4.211   6.495
14377TIP3    H143016   5.086   4.126   6.515
14377TIP3    H243017   5.013   4.195   6.403
14378TIP3   OH243018   4.381   3.870   6.460
14378TIP3    H143019   4.362   3.943   6.398
14378TIP3    H243020   4.332   3.798   6.415
14379TIP3   OH243021   5.076   3.962   6.082
14379TIP3    H143022   5.148   3.946   6.147
14379TIP3    H243023   5.128   3.997   6.007
14380TIP3   OH243024   4.015   4.073   6.566
14380TIP3    H143025   4.098   4.054   6.615
14380TIP3    H243026   4.029   4.017   6.487
14381TIP3   OH243027   4.456   4.270   6.360
14381TIP3    H143028   4.550   4.245   6.372
14381TIP3    H243029   4.418   4.186   6.327
14382TIP3   OH243030   5.717   4.235   6.632
14382TIP3    H143031   5.634   4.284   6.612
14382TIP3    H243032   5.738   4.269   6.720
14383TIP3   OH243033   4.378   3.854   6.894
14383TIP3    H143034   4.318   3.891   6.826
14383TIP3    H243035   4.326   3.872   6.975
14384TIP3   OH243036   4.720   4.701   5.905
14384TIP3    H143037   4.687   4.686   5.815
14384TIP3    H243038   4.678   4.787   5.927
14385TIP3   OH243039   4.485   4.629   6.689
14385TIP3    H143040   4.423   4.695   6.726
14385TIP3    H243041   4.527   4.679   6.616
14386TIP3   OH243042   5.285   3.964   6.254
14386TIP3    H143043   5.277   3.917   6.338
14386TIP3    H243044   5.340   4.041   6.279
14387TIP3   OH243045   4.248   3.969   6.679
14387TIP3    H143046   4.310   4.042   6.702
14387TIP3    H243047   4.298   3.929   6.603
14388TIP3   OH243048   4.312   4.823   6.787
14388TIP3    H143049   4.287   4.909   6.748
14388TIP3    H243050   4.233   4.807   6.843
14389TIP3   OH243051   3.706   4.510   6.030
14389TIP3    H143052   3.671   4.527   5.940
14389TIP3    H243053   3.736   4.599   6.058
14390TIP3   OH243054   5.147   5.030   6.264
14390TIP3    H143055   5.057   5.020   6.303
14390TIP3    H243056   5.138   5.115   6.218
14391TIP3   OH243057   5.438   3.928   6.625
14391TIP3    H143058   5.351   3.959   6.594
14391TIP3    H243059   5.498   3.961   6.555
14392TIP3   OH243060   4.734   3.573   6.607
14392TIP3    H143061   4.721   3.478   6.625
14392TIP3    H243062   4.657   3.611   6.654
14393TIP3   OH243063   4.847   5.077   5.937
14393TIP3    H143064   4.895   4.993   5.917
14393TIP3    H243065   4.909   5.141   5.896
14394TIP3   OH243066   4.986   4.861   5.844
14394TIP3    H143067   4.968   4.781   5.792
14394TIP3    H243068   5.023   4.823   5.927
14395TIP3   OH243069   5.372   4.942   6.606
14395TIP3    H143070   5.361   4.864   6.547
14395TIP3    H243071   5.356   5.016   6.544
14396TIP3   OH243072   4.664   4.335   5.863
14396TIP3    H143073   4.585   4.388   5.843
14396TIP3    H243074   4.711   4.336   5.778
14397TIP3   OH243075   4.623   4.121   5.578
14397TIP3    H143076   4.689   4.172   5.629
14397TIP3    H243077   4.682   4.058   5.532
14398TIP3   OH243078   5.567   4.578   6.451
14398TIP3    H143079   5.484   4.631   6.456
14398TIP3    H243080   5.598   4.602   6.361
14399TIP3   OH243081   5.010   4.414   5.836
14399TIP3    H143082   4.957   4.440   5.915
14399TIP3    H243083   5.095   4.391   5.879
14400TIP3   OH243084   5.246   4.457   6.748
14400TIP3    H143085   5.244   4.541   6.798
14400TIP3    H243086   5.160   4.462   6.702
14401TIP3   OH243087   4.243   4.415   6.254
14401TIP3    H143088   4.203   4.358   6.185
14401TIP3    H243089   4.321   4.362   6.281
14402TIP3   OH243090   4.373   4.827   6.401
14402TIP3    H143091   4.352   4.788   6.315
14402TIP3    H243092   4.463   4.792   6.418
14403TIP3   OH243093   4.380   4.387   6.606
14403TIP3    H143094   4.413   4.365   6.517
14403TIP3    H243095   4.424   4.473   6.625
14404TIP3   OH243096   4.905   5.025   6.383
14404TIP3    H143097   4.892   5.104   6.438
14404TIP3    H243098   4.890   4.951   6.446
14405TIP3   OH243099   4.518   4.944   6.931
14405TIP3    H143100   4.457   5.006   6.977
14405TIP3    H243101   4.453   4.890   6.881
14406TIP3   OH243102   4.853   4.276   5.658
14406TIP3    H143103   4.911   4.335   5.711
14406TIP3    H243104   4.882   4.299   5.567
14407TIP3   OH243105   4.272   4.499   7.032
14407TIP3    H143106   4.277   4.587   7.075
14407TIP3    H243107   4.177   4.480   7.042
14408TIP3   OH243108   4.595   4.957   5.935
14408TIP3    H143109   4.675   5.008   5.952
14408TIP3    H243110   4.533   5.023   5.901
14409TIP3   OH243111   4.312   5.112   7.018
14409TIP3    H143112   4.277   5.111   6.927
14409TIP3    H243113   4.233   5.090   7.071
14410TIP3   OH243114   5.367   3.517   5.709
14410TIP3    H143115   5.287   3.538   5.760
14410TIP3    H243116   5.382   3.600   5.660
14411TIP3   OH243117   4.111   4.258   6.056
14411TIP3    H143118   4.046   4.306   6.000
14411TIP3    H243119   4.067   4.174   6.068
14412TIP3   OH243120   3.891   4.642   6.964
14412TIP3    H143121   3.825   4.620   6.895
14412TIP3    H243122   3.928   4.555   6.988
14413TIP3   OH243123   3.745   4.834   6.598
14413TIP3    H143124   3.841   4.830   6.587
14413TIP3    H243125   3.735   4.914   6.652
14414TIP3   OH243126   5.608   5.287   6.650
14414TIP3    H143127   5.609   5.190   6.664
14414TIP3    H243128   5.525   5.311   6.698
14415TIP3   OH243129   4.716   5.072   6.788
14415TIP3    H143130   4.714   5.165   6.820
14415TIP3    H243131   4.644   5.033   6.842
14416TIP3   OH243132   4.475   5.201   5.739
14416TIP3    H143133   4.429   5.186   5.654
14416TIP3    H243134   4.444   5.290   5.765
14417TIP3   OH243135   3.915   5.052   6.124
14417TIP3    H143136   3.962   5.041   6.209
14417TIP3    H243137   3.857   4.973   6.124
14418TIP3   OH243138   4.671   5.095   5.387
14418TIP3    H143139   4.736   5.039   5.339
14418TIP3    H243140   4.716   5.105   5.473
14419TIP3   OH243141   4.730   5.155   5.655
14419TIP3    H143142   4.642   5.163   5.697
14419TIP3    H243143   4.780   5.108   5.723
14420TIP3   OH243144   5.499   4.417   6.928
14420TIP3    H143145   5.419   4.429   6.874
14420TIP3    H243146   5.515   4.321   6.918
14421TIP3   OH243147   4.096   4.825   6.953
14421TIP3    H143148   4.145   4.809   7.035
14421TIP3    H243149   4.022   4.762   6.960
14422TIP3   OH243150   4.495   3.648   6.737
14422TIP3    H143151   4.406   3.619   6.711
14422TIP3    H243152   4.472   3.731   6.783
14423TIP3   OH243153   5.030   3.764   6.931
14423TIP3    H143154   5.098   3.736   6.995
14423TIP3    H243155   4.946   3.744   6.978
14424TIP3   OH243156   5.266   4.192   6.848
14424TIP3    H143157   5.218   4.190   6.933
14424TIP3    H243158   5.244   4.280   6.813
14425TIP3   OH243159   4.929   4.327   5.401
14425TIP3    H143160   4.909   4.294   5.311
14425TIP3    H243161   4.978   4.408   5.379
14426TIP3   OH243162   4.638   3.699   5.707
14426TIP3    H143163   4.607   3.696   5.800
14426TIP3    H243164   4.602   3.614   5.674
14427TIP3   OH243165   4.426   4.164   6.755
14427TIP3    H143166   4.377   4.186   6.836
14427TIP3    H243167   4.411   4.246   6.701
14428TIP3   OH243168   4.312   4.050   6.269
14428TIP3    H143169   4.219   4.025   6.287
14428TIP3    H243170   4.325   4.010   6.180
14429TIP3   OH243171   4.801   4.135   5.996
14429TIP3    H143172   4.749   4.207   5.954
14429TIP3    H243173   4.857   4.106   5.922
14430TIP3   OH243174   4.976   4.415   7.083
14430TIP3    H143175   4.955   4.342   7.145
14430TIP3    H243176   5.070   4.429   7.104
14431TIP3   OH243177   4.958   4.165   6.236
14431TIP3    H143178   4.899   4.195   6.165
14431TIP3    H243179   4.992   4.083   6.193
14432TIP3   OH243180   4.246   4.194   6.964
14432TIP3    H143181   4.273   4.258   7.031
14432TIP3    H243182   4.236   4.112   7.017
14433TIP3   OH243183   4.293   3.669   5.674
14433TIP3    H143184   4.288   3.669   5.771
14433TIP3    H243185   4.217   3.725   5.651
14434TIP3   OH243186   3.841   3.714   6.543
14434TIP3    H143187   3.913   3.749   6.600
14434TIP3    H243188   3.888   3.686   6.464
14435TIP3   OH243189   3.810   3.695   6.064
14435TIP3    H143190   3.856   3.733   5.986
14435TIP3    H243191   3.751   3.770   6.086
14436TIP3   OH243192   4.968   4.411   6.659
14436TIP3    H143193   5.001   4.339   6.600
14436TIP3    H243194   4.939   4.358   6.736
14437TIP3   OH243195   4.638   3.872   6.330
14437TIP3    H143196   4.557   3.871   6.385
14437TIP3    H243197   4.707   3.871   6.398
14438TIP3   OH243198   4.073   3.929   6.339
14438TIP3    H143199   3.979   3.936   6.311
14438TIP3    H243200   4.097   3.838   6.314
14439TIP3   OH243201   4.342   3.923   6.027
14439TIP3    H143202   4.436   3.940   6.008
14439TIP3    H243203   4.296   3.947   5.944
14440TIP3   OH243204   5.130   3.949   6.533
14440TIP3    H143205   5.096   3.961   6.624
14440TIP3    H243206   5.064   3.888   6.496
14441TIP3   OH243207   4.184   3.956   5.805
14441TIP3    H143208   4.112   3.914   5.754
14441TIP3    H243209   4.237   3.995   5.732
14442TIP3   OH243210   5.300   5.637   6.751
14442TIP3    H143211   5.298   5.660   6.656
14442TIP3    H243212   5.378   5.687   6.782
14443TIP3   OH243213   4.258   4.747   7.173
14443TIP3    H143214   4.337   4.778   7.221
14443TIP3    H243215   4.193   4.746   7.245
14444TIP3   OH243216   4.721   4.199   6.427
14444TIP3    H143217   4.796   4.163   6.376
14444TIP3    H243218   4.733   4.158   6.514
14445TIP3   OH243219   4.243   3.690   6.306
14445TIP3    H143220   4.211   3.609   6.352
14445TIP3    H243221   4.297   3.652   6.235
14446TIP3   OH243222   4.698   4.096   6.721
14446TIP3    H143223   4.609   4.134   6.732
14446TIP3    H243224   4.756   4.158   6.769
14447TIP3   OH243225   4.434   4.488   5.812
14447TIP3    H143226   4.361   4.424   5.802
14447TIP3    H243227   4.416   4.523   5.903
14448TIP3   OH243228   5.335   4.725   6.442
14448TIP3    H143229   5.359   4.774   6.361
14448TIP3    H243230   5.250   4.683   6.416
14449TIP3   OH243231   4.893   3.800   5.676
14449TIP3    H143232   4.796   3.786   5.682
14449TIP3    H243233   4.904   3.894   5.698
14450TIP3   OH243234   4.834   4.806   6.810
14450TIP3    H143235   4.858   4.786   6.901
14450TIP3    H243236   4.795   4.895   6.817
14451TIP3   OH243237   4.963   4.048   5.778
14451TIP3    H143238   5.059   4.054   5.793
14451TIP3    H243239   4.945   4.128   5.724
14452TIP3   OH243240   4.125   4.508   6.489
14452TIP3    H143241   4.164   4.482   6.403
14452TIP3    H243242   4.170   4.448   6.550
14453TIP3   OH243243   4.584   4.636   5.632
14453TIP3    H143244   4.534   4.721   5.633
14453TIP3    H243245   4.529   4.581   5.692
14454TIP3   OH243246   4.008   4.430   7.102
14454TIP3    H143247   4.028   4.417   7.196
14454TIP3    H243248   3.938   4.364   7.087
14455TIP3   OH243249   4.733   4.545   7.122
14455TIP3    H143250   4.674   4.486   7.072
14455TIP3    H243251   4.821   4.511   7.094
14456TIP3   OH243252   4.994   5.068   6.705
14456TIP3    H143253   4.898   5.065   6.718
14456TIP3    H243254   5.022   5.119   6.784
14457TIP3   OH243255   5.403   4.141   5.613
14457TIP3    H143256   5.341   4.095   5.552
14457TIP3    H243257   5.399   4.229   5.571
14458TIP3   OH243258   5.623   4.997   6.694
14458TIP3    H143259   5.525   4.991   6.686
14458TIP3    H243260   5.649   4.966   6.605
14459TIP3   OH243261   5.117   4.951   5.511
14459TIP3    H143262   5.082   4.887   5.575
14459TIP3    H243263   5.104   4.904   5.427
14460TIP3   OH243264   5.100   4.587   6.362
14460TIP3    H143265   5.007   4.562   6.374
14460TIP3    H243266   5.135   4.507   6.316
14461TIP3   OH243267   4.229   4.815   6.117
14461TIP3    H143268   4.229   4.894   6.060
14461TIP3    H243269   4.135   4.795   6.120
14462TIP3   OH243270   3.796   4.118   5.818
14462TIP3    H143271   3.841   4.204   5.834
14462TIP3    H243272   3.719   4.126   5.878
14463TIP3   OH243273   4.366   4.579   6.059
14463TIP3    H143274   4.332   4.669   6.075
14463TIP3    H243275   4.328   4.530   6.134
14464TIP3   OH243276   4.497   5.158   6.583
14464TIP3    H143277   4.538   5.230   6.532
14464TIP3    H243278   4.574   5.122   6.630
14465TIP3   OH243279   4.147   5.054   5.965
14465TIP3    H143280   4.061   5.061   6.012
14465TIP3    H243281   4.178   5.147   5.969
14466TIP3   OH243282   4.886   4.793   6.541
14466TIP3    H143283   4.876   4.790   6.639
14466TIP3    H243284   4.965   4.739   6.528
14467TIP3   OH243285   4.840   4.697   5.440
14467TIP3    H143286   4.907   4.668   5.505
14467TIP3    H243287   4.758   4.665   5.481
14468TIP3   OH243288   5.133   5.326   6.593
14468TIP3    H143289   5.055   5.269   6.586
14468TIP3    H243290   5.118   5.390   6.520
14469TIP3   OH243291   5.202   5.182   5.251
14469TIP3    H143292   5.239   5.265   5.219
14469TIP3    H243293   5.115   5.211   5.285
14470TIP3   OH243294   4.219   3.936   7.110
14470TIP3    H143295   4.123   3.940   7.124
14470TIP3    H243296   4.247   3.877   7.182
14471TIP3   OH243297   5.019   4.624   5.650
14471TIP3    H143298   5.013   4.552   5.716
14471TIP3    H243299   5.114   4.619   5.627
14472TIP3   OH243300   3.936   5.020   6.742
14472TIP3    H143301   3.988   4.946   6.773
14472TIP3    H243302   3.963   5.090   6.803
14473TIP3   OH243303   4.156   4.675   5.722
14473TIP3    H143304   4.245   4.643   5.741
14473TIP3    H243305   4.171   4.770   5.707
14474TIP3   OH243306   3.907   4.364   5.899
14474TIP3    H143307   3.840   4.409   5.956
14474TIP3    H243308   3.920   4.433   5.831
14475TIP3   OH243309   5.055   4.001   6.792
14475TIP3    H143310   5.136   4.040   6.829
14475TIP3    H243311   5.043   3.920   6.846
14476TIP3   OH243312   4.936   3.752   5.956
14476TIP3    H143313   4.923   3.775   5.862
14476TIP3    H243314   4.976   3.834   5.993
14477TIP3   OH243315   4.437   4.864   5.637
14477TIP3    H143316   4.350   4.891   5.675
14477TIP3    H243317   4.468   4.949   5.604
14478TIP3   OH243318   4.624   3.931   6.058
14478TIP3    H143319   4.689   4.003   6.040
14478TIP3    H243320   4.630   3.924   6.156
14479TIP3   OH243321   4.894   4.249   6.867
14479TIP3    H143322   4.916   4.303   6.945
14479TIP3    H243323   4.950   4.171   6.879
14480TIP3   OH243324   4.769   3.657   6.160
14480TIP3    H143325   4.764   3.733   6.221
14480TIP3    H243326   4.830   3.693   6.091
14481TIP3   OH243327   4.187   4.949   5.710
14481TIP3    H143328   4.149   5.017   5.650
14481TIP3    H243329   4.166   4.986   5.799
14482TIP3   OH243330   4.281   3.657   5.950
14482TIP3    H143331   4.279   3.748   5.986
14482TIP3    H243332   4.377   3.639   5.959
14483TIP3   OH243333   5.534   4.151   6.850
14483TIP3    H143334   5.436   4.147   6.853
14483TIP3    H243335   5.550   4.114   6.761
14484TIP3   OH243336   5.186   4.345   6.236
14484TIP3    H143337   5.111   4.284   6.247
14484TIP3    H243338   5.258   4.298   6.283
14485TIP3   OH243339   3.900   4.576   5.706
14485TIP3    H143340   3.976   4.636   5.723
14485TIP3    H243341   3.941   4.521   5.636
14486TIP3   OH243342   3.842   3.848   5.840
14486TIP3    H143343   3.847   3.945   5.836
14486TIP3    H243344   3.761   3.831   5.790
14487TIP3   OH243345   5.154   5.301   6.185
14487TIP3    H143346   5.111   5.349   6.110
14487TIP3    H243347   5.248   5.319   6.164
14488TIP3   OH243348   4.230   3.569   6.712
14488TIP3    H143349   4.200   3.536   6.625
14488TIP3    H243350   4.220   3.491   6.770
14489TIP3   OH243351   3.771   4.788   6.093
14489TIP3    H143352   3.698   4.818   6.147
14489TIP3    H243353   3.748   4.829   6.007
14490TIP3   OH243354   3.926   5.329   7.163
14490TIP3    H143355   4.012   5.328   7.210
14490TIP3    H243356   3.904   5.234   7.163
14491TIP3   OH243357   4.409   5.294   7.208
14491TIP3    H143358   4.503   5.273   7.214
14491TIP3    H243359   4.382   5.235   7.135
14492TIP3   OH243360   5.046   5.201   6.942
14492TIP3    H143361   5.038   5.130   7.010
14492TIP3    H243362   5.124   5.250   6.973
14493TIP3   OH243363   4.853   4.931   5.264
14493TIP3    H143364   4.862   4.845   5.310
14493TIP3    H243365   4.854   4.903   5.171
14494TIP3   OH243366   4.057   4.736   7.364
14494TIP3    H143367   4.072   4.640   7.370
14494TIP3    H243368   3.969   4.739   7.321
14495TIP3   OH243369   4.037   4.389   5.560
14495TIP3    H143370   4.096   4.362   5.633
14495TIP3    H243371   4.101   4.396   5.486
14496TIP3   OH243372   4.664   4.820   7.137
14496TIP3    H143373   4.623   4.837   7.051
14496TIP3    H243374   4.695   4.728   7.129
14497TIP3   OH243375   4.490   4.571   5.366
14497TIP3    H143376   4.527   4.599   5.451
14497TIP3    H243377   4.518   4.478   5.363
14498TIP3   OH243378   5.157   4.829   6.744
14498TIP3    H143379   5.232   4.873   6.700
14498TIP3    H243380   5.086   4.894   6.729
14499TIP3   OH243381   4.176   4.469   7.346
14499TIP3    H143382   4.252   4.414   7.325
14499TIP3    H243383   4.201   4.503   7.435
14500TIP3   OH243384   4.241   4.289   5.779
14500TIP3    H143385   4.215   4.250   5.863
14500TIP3    H243386   4.278   4.213   5.730
14501TIP3   OH243387   4.511   4.353   7.007
14501TIP3    H143388   4.433   4.414   7.009
14501TIP3    H243389   4.561   4.388   6.930
14502TIP3   OH243390   4.344   4.082   5.621
14502TIP3    H143391   4.318   4.085   5.527
14502TIP3    H243392   4.441   4.088   5.614
14503TIP3   OH243393   5.028   4.756   7.142
14503TIP3    H143394   5.108   4.731   7.093
14503TIP3    H243395   5.025   4.689   7.212
14504TIP3   OH243396   4.634   4.142   7.134
14504TIP3    H143397   4.634   4.063   7.077
14504TIP3    H243398   4.590   4.208   7.076
14505TIP3   OH243399   4.637   3.928   6.942
14505TIP3    H143400   4.665   3.970   6.858
14505TIP3    H243401   4.543   3.906   6.922
14506TIP3   OH243402   4.664   4.464   6.814
14506TIP3    H143403   4.747   4.473   6.767
14506TIP3    H243404   4.608   4.531   6.769
14507TIP3   OH243405   5.247   4.431   7.196
14507TIP3    H143406   5.295   4.347   7.205
14507TIP3    H243407   5.315   4.489   7.160
14508TIP3   OH243408   5.287   4.685   6.932
14508TIP3    H143409   5.230   4.738   6.872
14508TIP3    H243410   5.375   4.704   6.892
14509TIP3   OH243411   4.512   4.254   7.365
14509TIP3    H143412   4.443   4.186   7.379
14509TIP3    H243413   4.546   4.229   7.277
14510TIP3   OH243414   4.769   3.692   7.008
14510TIP3    H143415   4.720   3.774   6.986
14510TIP3    H243416   4.700   3.624   6.997
14511TIP3   OH243417   4.895   4.197   7.225
14511TIP3    H143418   4.883   4.184   7.320
14511TIP3    H243419   4.805   4.172   7.194
14512TIP3   OH243420   5.134   4.147   7.079
14512TIP3    H143421   5.059   4.148   7.142
14512TIP3    H243422   5.208   4.116   7.135
14513TIP3   OH243423   5.360   4.086   7.230
14513TIP3    H143424   5.375   3.991   7.248
14513TIP3    H243425   5.359   4.125   7.320
14514TIP3   OH243426   4.351   4.034   7.417
14514TIP3    H143427   4.358   3.943   7.383
14514TIP3    H243428   4.387   4.022   7.507
14515TIP3   OH243429   4.863   3.701   7.266
14515TIP3    H143430   4.931   3.631   7.260
14515TIP3    H243431   4.824   3.696   7.177
14516TIP3   OH243432   4.929   3.916   7.425
14516TIP3    H143433   4.907   3.846   7.361
14516TIP3    H243434   4.851   3.976   7.418
14517TIP3   OH243435   4.143   5.144   5.515
14517TIP3    H143436   4.240   5.142   5.507
14517TIP3    H243437   4.122   5.201   5.439
14518TIP3   OH243438   3.640   4.511   5.763
14518TIP3    H143439   3.725   4.547   5.730
14518TIP3    H243440   3.628   4.434   5.704
14519TIP3   OH243441   3.542   5.141   6.156
14519TIP3    H143442   3.478   5.078   6.116
14519TIP3    H243443   3.588   5.082   6.220
14520TIP3   OH243444   3.680   4.992   6.341
14520TIP3    H143445   3.669   4.918   6.402
14520TIP3    H243446   3.731   5.053   6.397
14521TIP3   OH243447   5.407   5.393   6.141
14521TIP3    H143448   5.435   5.423   6.229
14521TIP3    H243449   5.471   5.436   6.083
14522TIP3   OH243450   5.438   5.412   6.423
14522TIP3    H143451   5.392   5.325   6.418
14522TIP3    H243452   5.512   5.387   6.481
14523TIP3   OH243453   5.482   5.089   6.996
14523TIP3    H143454   5.410   5.097   7.061
14523TIP3    H243455   5.524   5.177   7.001
14524TIP3   OH243456   5.297   4.598   5.619
14524TIP3    H143457   5.364   4.662   5.587
14524TIP3    H243458   5.344   4.559   5.696
14525TIP3   OH243459   5.429   4.468   5.821
14525TIP3    H143460   5.362   4.427   5.881
14525TIP3    H243461   5.494   4.505   5.884
14526TIP3   OH243462   5.481   4.860   6.252
14526TIP3    H143463   5.534   4.794   6.204
14526TIP3    H243464   5.474   4.933   6.187
14527TIP3   OH243465   5.313   5.162   6.446
14527TIP3    H143466   5.240   5.202   6.498
14527TIP3    H243467   5.264   5.114   6.377
14528TIP3   OH243468   5.356   4.381   5.454
14528TIP3    H143469   5.304   4.402   5.374
14528TIP3    H243470   5.329   4.454   5.512
14529TIP3   OH243471   5.234   4.048   5.423
14529TIP3    H143472   5.199   4.091   5.344
14529TIP3    H243473   5.208   3.954   5.407
14530TIP3   OH243474   5.241   4.326   5.967
14530TIP3    H143475   5.250   4.229   5.961
14530TIP3    H243476   5.227   4.339   6.064
14531TIP3   OH243477   3.867   4.397   6.713
14531TIP3    H143478   3.866   4.368   6.620
14531TIP3    H243479   3.964   4.400   6.729
14532TIP3   OH243480   5.530   4.750   6.823
14532TIP3    H143481   5.602   4.684   6.815
14532TIP3    H243482   5.558   4.818   6.759
14533TIP3   OH243483   5.715   4.555   6.842
14533TIP3    H143484   5.640   4.504   6.880
14533TIP3    H243485   5.788   4.491   6.855
14534TIP3   OH243486   5.181   3.780   5.404
14534TIP3    H143487   5.256   3.753   5.461
14534TIP3    H243488   5.109   3.723   5.433
14535TIP3   OH243489   5.237   4.041   5.861
14535TIP3    H143490   5.278   3.953   5.876
14535TIP3    H243491   5.295   4.075   5.791
14536TIP3   OH243492   5.398   4.216   6.356
14536TIP3    H143493   5.484   4.241   6.315
14536TIP3    H243494   5.413   4.252   6.445
14537TIP3   OH243495   5.468   4.359   6.589
14537TIP3    H143496   5.390   4.394   6.636
14537TIP3    H243497   5.501   4.439   6.542
14538TIP3   OH243498   4.084   4.084   7.385
14538TIP3    H143499   4.182   4.079   7.389
14538TIP3    H243500   4.060   3.999   7.428
14539TIP3   OH243501   5.916   3.947   7.144
14539TIP3    H143502   5.978   3.884   7.102
14539TIP3    H243503   5.890   4.004   7.069
14540TIP3   OH243504   5.346   3.792   5.899
14540TIP3    H143505   5.395   3.776   5.982
14540TIP3    H243506   5.286   3.714   5.898
14541TIP3   OH243507   4.045   3.777   6.718
14541TIP3    H143508   4.108   3.703   6.728
14541TIP3    H243509   4.107   3.853   6.712
14542TIP3   OH243510   3.849   4.050   6.791
14542TIP3    H143511   3.899   4.047   6.707
14542TIP3    H243512   3.875   4.136   6.826
14543TIP3   OH243513   5.790   4.090   6.950
14543TIP3    H143514   5.703   4.130   6.969
14543TIP3    H243515   5.762   4.018   6.891
14544TIP3   OH243516   5.427   3.726   5.532
14544TIP3    H143517   5.469   3.655   5.480
14544TIP3    H243518   5.493   3.798   5.528
14545TIP3   OH243519   3.831   3.547   6.288
14545TIP3    H143520   3.740   3.552   6.320
14545TIP3    H243521   3.830   3.610   6.213
14546TIP3   OH243522   4.992   5.259   5.798
14546TIP3    H143523   5.041   5.241   5.715
14546TIP3    H243524   5.050   5.323   5.842
14547TIP3   OH243525   4.052   3.634   7.106
14547TIP3    H143526   4.002   3.630   7.189
14547TIP3    H243527   3.985   3.673   7.046
14548TIP3   OH243528   4.092   5.062   7.184
14548TIP3    H143529   4.000   5.035   7.166
14548TIP3    H243530   4.101   5.043   7.278
14549TIP3   OH243531   4.270   5.094   6.732
14549TIP3    H143532   4.222   5.170   6.692
14549TIP3    H243533   4.356   5.108   6.687
14550TIP3   OH243534   4.715   5.339   6.869
14550TIP3    H143535   4.757   5.340   6.958
14550TIP3    H243536   4.781   5.390   6.817
14551TIP3   OH243537   4.894   5.491   6.728
14551TIP3    H143538   4.964   5.440   6.686
14551TIP3    H243539   4.946   5.548   6.789
14552TIP3   OH243540   5.688   3.853   6.829
14552TIP3    H143541   5.598   3.847   6.793
14552TIP3    H243542   5.720   3.760   6.816
14553TIP3   OH243543   3.947   5.352   6.754
14553TIP3    H143544   3.857   5.386   6.731
14553TIP3    H243545   3.956   5.387   6.843
14554TIP3   OH243546   4.184   5.331   6.613
14554TIP3    H143547   4.097   5.343   6.657
14554TIP3    H243548   4.164   5.362   6.523
14555TIP3   OH243549   4.609   5.359   6.411
14555TIP3    H143550   4.540   5.378   6.345
14555TIP3    H243551   4.621   5.446   6.453
14556TIP3   OH243552   4.878   5.299   6.463
14556TIP3    H143553   4.783   5.315   6.443
14556TIP3    H243554   4.920   5.374   6.419
14557TIP3   OH243555   5.087   5.491   6.377
14557TIP3    H143556   5.072   5.575   6.329
14557TIP3    H243557   5.112   5.430   6.305
14558TIP3   OH243558   3.858   5.145   6.500
14558TIP3    H143559   3.885   5.119   6.591
14558TIP3    H243560   3.930   5.101   6.449
14559TIP3   OH243561   4.052   5.017   6.358
14559TIP3    H143562   4.068   4.932   6.406
14559TIP3    H243563   4.143   5.053   6.352
14560TIP3   OH243564   4.319   5.112   6.359
14560TIP3    H143565   4.349   5.020   6.346
14560TIP3    H243566   4.363   5.132   6.444
14561TIP3   OH243567   4.892   3.767   6.444
14561TIP3    H143568   4.851   3.697   6.497
14561TIP3    H243569   4.967   3.721   6.403
14562TIP3   OH243570   5.416   3.646   6.352
14562TIP3    H143571   5.454   3.698   6.278
14562TIP3    H243572   5.322   3.668   6.346
14563TIP3   OH243573   5.512   3.747   6.116
14563TIP3    H143574   5.585   3.696   6.076
14563TIP3    H243575   5.546   3.838   6.101
14564TIP3   OH243576   4.143   3.476   6.463
14564TIP3    H143577   4.051   3.443   6.465
14564TIP3    H243578   4.192   3.391   6.460
14565TIP3   OH243579   3.922   3.345   6.108
14565TIP3    H143580   3.958   3.403   6.038
14565TIP3    H243581   3.898   3.411   6.177
14566TIP3   OH243582   4.585   3.509   6.345
14566TIP3    H143583   4.642   3.557   6.283
14566TIP3    H243584   4.611   3.547   6.430
14567TIP3   OH243585   5.131   3.656   6.329
14567TIP3    H143586   5.133   3.619   6.239
14567TIP3    H243587   5.118   3.574   6.383
14568TIP3   OH243588   5.163   3.578   5.890
14568TIP3    H143589   5.076   3.621   5.902
14568TIP3    H243590   5.148   3.493   5.936
14569TIP3   OH243591   3.642   4.924   5.896
14569TIP3    H143592   3.568   4.873   5.864
14569TIP3    H243593   3.625   5.012   5.857
14570TIP3   OH243594   4.046   3.503   5.876
14570TIP3    H143595   4.096   3.443   5.817
14570TIP3    H243596   4.118   3.560   5.911
14571TIP3   OH243597   4.558   3.680   5.974
14571TIP3    H143598   4.620   3.635   6.034
14571TIP3    H243599   4.579   3.773   5.998
14572TIP3   OH243600   4.415   5.109   5.473
14572TIP3    H143601   4.509   5.123   5.444
14572TIP3    H243602   4.393   5.035   5.416
14573TIP3   OH243603   5.137   5.220   5.566
14573TIP3    H143604   5.136   5.123   5.549
14573TIP3    H243605   5.092   5.252   5.485
14574TIP3   OH243606   4.350   3.757   7.353
14574TIP3    H143607   4.315   3.687   7.411
14574TIP3    H243608   4.445   3.757   7.381
14575TIP3   OH243609   4.599   3.755   7.473
14575TIP3    H143610   4.684   3.730   7.434
14575TIP3    H243611   4.587   3.684   7.540
14576TIP3   OH243612   5.425   3.816   7.261
14576TIP3    H143613   5.444   3.785   7.352
14576TIP3    H243614   5.514   3.812   7.219
14577TIP3   OH243615   5.363   5.368   6.754
14577TIP3    H143616   5.284   5.336   6.705
14577TIP3    H243617   5.342   5.464   6.758
14578TIP3   OH243618   6.634   4.747   5.516
14578TIP3    H143619   6.598   4.835   5.494
14578TIP3    H243620   6.559   4.689   5.496
14579TIP3   OH243621   6.615   4.745   5.902
14579TIP3    H143622   6.651   4.720   5.990
14579TIP3    H243623   6.590   4.658   5.867
14580TIP3   OH243624   5.927   4.637   6.269
14580TIP3    H143625   5.957   4.569   6.331
14580TIP3    H243626   6.010   4.684   6.252
14581TIP3   OH243627   6.871   5.045   5.582
14581TIP3    H143628   6.858   4.969   5.641
14581TIP3    H243629   6.903   5.113   5.644
14582TIP3   OH243630   5.899   5.045   5.990
14582TIP3    H143631   5.890   4.947   5.991
14582TIP3    H243632   5.996   5.053   5.987
14583TIP3   OH243633   5.604   4.246   5.776
14583TIP3    H143634   5.558   4.330   5.791
14583TIP3    H243635   5.533   4.195   5.733
14584TIP3   OH243636   5.666   4.536   5.949
14584TIP3    H143637   5.715   4.458   5.984
14584TIP3    H243638   5.725   4.564   5.878
14585TIP3   OH243639   6.521   5.504   5.599
14585TIP3    H143640   6.567   5.434   5.549
14585TIP3    H243641   6.517   5.465   5.687
14586TIP3   OH243642   6.428   4.967   5.949
14586TIP3    H143643   6.466   4.885   5.911
14586TIP3    H243644   6.512   5.012   5.971
14587TIP3   OH243645   7.451   4.286   5.949
14587TIP3    H143646   7.463   4.370   5.998
14587TIP3    H243647   7.451   4.318   5.857
14588TIP3   OH243648   6.834   4.476   5.980
14588TIP3    H143649   6.885   4.397   6.006
14588TIP3    H243650   6.806   4.451   5.890
14589TIP3   OH243651   6.161   4.131   5.955
14589TIP3    H143652   6.156   4.201   5.887
14589TIP3    H243653   6.123   4.056   5.904
14590TIP3   OH243654   6.876   4.225   5.596
14590TIP3    H143655   6.959   4.205   5.644
14590TIP3    H243656   6.904   4.227   5.504
14591TIP3   OH243657   5.811   4.328   6.053
14591TIP3    H143658   5.894   4.310   6.101
14591TIP3    H243659   5.826   4.274   5.973
14592TIP3   OH243660   6.251   4.527   5.850
14592TIP3    H143661   6.346   4.503   5.861
14592TIP3    H243662   6.214   4.443   5.816
14593TIP3   OH243663   7.518   4.497   6.123
14593TIP3    H143664   7.419   4.505   6.119
14593TIP3    H243665   7.530   4.525   6.214
14594TIP3   OH243666   6.173   4.110   6.381
14594TIP3    H143667   6.114   4.148   6.313
14594TIP3    H243668   6.122   4.130   6.462
14595TIP3   OH243669   6.523   4.967   5.386
14595TIP3    H143670   6.476   4.935   5.308
14595TIP3    H243671   6.474   5.048   5.408
14596TIP3   OH243672   6.282   4.885   6.174
14596TIP3    H143673   6.220   4.951   6.212
14596TIP3    H243674   6.325   4.936   6.103
14597TIP3   OH243675   7.100   4.213   5.752
14597TIP3    H143676   7.061   4.183   5.835
14597TIP3    H243677   7.140   4.298   5.778
14598TIP3   OH243678   6.040   4.228   6.172
14598TIP3    H143679   6.105   4.299   6.192
14598TIP3    H243680   6.085   4.187   6.094
14599TIP3   OH243681   6.108   5.081   6.274
14599TIP3    H143682   6.081   5.167   6.237
14599TIP3    H243683   6.030   5.063   6.331
14600TIP3   OH243684   5.503   4.767   5.513
14600TIP3    H143685   5.457   4.795   5.432
14600TIP3    H243686   5.537   4.851   5.548
14601TIP3   OH243687   6.942   5.288   5.752
14601TIP3    H143688   6.852   5.276   5.790
14601TIP3    H243689   6.931   5.374   5.706
14602TIP3   OH243690   7.238   4.171   6.107
14602TIP3    H143691   7.184   4.250   6.127
14602TIP3    H243692   7.298   4.210   6.041
14603TIP3   OH243693   6.529   3.827   6.094
14603TIP3    H143694   6.514   3.732   6.111
14603TIP3    H243695   6.453   3.867   6.140
14604TIP3   OH243696   6.643   5.333   5.422
14604TIP3    H143697   6.693   5.249   5.406
14604TIP3    H243698   6.706   5.397   5.382
14605TIP3   OH243699   6.787   5.118   5.331
14605TIP3    H143700   6.744   5.038   5.298
14605TIP3    H243701   6.825   5.085   5.415
14606TIP3   OH243702   7.170   5.199   6.093
14606TIP3    H143703   7.158   5.118   6.038
14606TIP3    H243704   7.155   5.270   6.027
14607TIP3   OH243705   6.454   4.592   5.346
14607TIP3    H143706   6.377   4.646   5.319
14607TIP3    H243707   6.507   4.588   5.264
14608TIP3   OH243708   6.417   4.377   5.065
14608TIP3    H143709   6.484   4.424   5.117
14608TIP3    H243710   6.473   4.309   5.023
14609TIP3   OH243711   7.386   4.850   5.937
14609TIP3    H143712   7.291   4.866   5.956
14609TIP3    H243713   7.390   4.868   5.842
14610TIP3   OH243714   6.810   4.677   5.320
14610TIP3    H143715   6.754   4.698   5.399
14610TIP3    H243716   6.891   4.646   5.366
14611TIP3   OH243717   6.042   4.674   5.738
14611TIP3    H143718   6.000   4.615   5.672
14611TIP3    H243719   6.117   4.619   5.770
14612TIP3   OH243720   6.173   5.088   5.885
14612TIP3    H143721   6.150   5.039   5.805
14612TIP3    H243722   6.262   5.052   5.905
14613TIP3   OH243723   6.171   4.645   6.093
14613TIP3    H143724   6.208   4.618   6.006
14613TIP3    H243725   6.220   4.728   6.112
14614TIP3   OH243726   6.699   5.282   5.869
14614TIP3    H143727   6.691   5.358   5.930
14614TIP3    H243728   6.688   5.205   5.929
14615TIP3   OH243729   6.314   5.204   6.415
14615TIP3    H143730   6.252   5.264   6.463
14615TIP3    H243731   6.249   5.148   6.367
14616TIP3   OH243732   6.647   4.536   5.150
14616TIP3    H143733   6.708   4.591   5.204
14616TIP3    H243734   6.675   4.559   5.059
14617TIP3   OH243735   6.069   4.759   6.519
14617TIP3    H143736   6.072   4.846   6.565
14617TIP3    H243737   5.974   4.738   6.526
14618TIP3   OH243738   6.390   5.214   5.419
14618TIP3    H143739   6.472   5.262   5.440
14618TIP3    H243740   6.329   5.283   5.392
14619TIP3   OH243741   6.107   5.372   6.505
14619TIP3    H143742   6.073   5.368   6.413
14619TIP3    H243743   6.027   5.349   6.558
14620TIP3   OH243744   7.162   3.773   5.197
14620TIP3    H143745   7.081   3.793   5.248
14620TIP3    H243746   7.176   3.858   5.150
14621TIP3   OH243747   5.906   4.518   5.542
14621TIP3    H143748   5.839   4.561   5.486
14621TIP3    H243749   5.867   4.430   5.554
14622TIP3   OH243750   5.687   4.901   6.450
14622TIP3    H143751   5.623   4.876   6.381
14622TIP3    H243752   5.725   4.814   6.476
14623TIP3   OH243753   5.541   5.092   6.083
14623TIP3    H143754   5.637   5.082   6.074
14623TIP3    H243755   5.534   5.170   6.139
14624TIP3   OH243756   7.405   5.543   6.136
14624TIP3    H143757   7.406   5.447   6.151
14624TIP3    H243758   7.322   5.567   6.185
14625TIP3   OH243759   6.509   5.332   6.272
14625TIP3    H143760   6.508   5.424   6.308
14625TIP3    H243761   6.439   5.291   6.327
14626TIP3   OH243762   6.265   5.458   5.219
14626TIP3    H143763   6.218   5.447   5.135
14626TIP3    H243764   6.240   5.548   5.248
14627TIP3   OH243765   5.712   5.307   5.610
14627TIP3    H143766   5.756   5.296   5.697
14627TIP3    H243767   5.660   5.225   5.606
14628TIP3   OH243768   6.457   5.353   4.877
14628TIP3    H143769   6.524   5.301   4.826
14628TIP3    H243770   6.503   5.364   4.962
14629TIP3   OH243771   6.524   5.410   5.142
14629TIP3    H143772   6.437   5.415   5.187
14629TIP3    H243773   6.579   5.367   5.210
14630TIP3   OH243774   7.289   4.674   6.415
14630TIP3    H143775   7.223   4.705   6.351
14630TIP3    H243776   7.285   4.580   6.392
14631TIP3   OH243777   5.891   5.085   6.442
14631TIP3    H143778   5.942   5.064   6.522
14631TIP3    H243779   5.818   5.019   6.447
14632TIP3   OH243780   6.291   3.903   6.225
14632TIP3    H143781   6.201   3.875   6.198
14632TIP3    H243782   6.270   3.988   6.267
14633TIP3   OH243783   6.826   4.020   6.417
14633TIP3    H143784   6.894   3.995   6.482
14633TIP3    H243785   6.742   4.002   6.463
14634TIP3   OH243786   6.724   4.582   4.891
14634TIP3    H143787   6.693   4.552   4.804
14634TIP3    H243788   6.808   4.627   4.867
14635TIP3   OH243789   6.220   4.423   6.242
14635TIP3    H143790   6.173   4.447   6.324
14635TIP3    H243791   6.205   4.503   6.187
14636TIP3   OH243792   6.108   4.308   5.755
14636TIP3    H143793   6.016   4.279   5.771
14636TIP3    H243794   6.126   4.264   5.669
14637TIP3   OH243795   6.622   4.424   5.486
14637TIP3    H143796   6.552   4.473   5.439
14637TIP3    H243797   6.639   4.348   5.429
14638TIP3   OH243798   6.770   4.675   6.574
14638TIP3    H143799   6.751   4.599   6.634
14638TIP3    H243800   6.867   4.682   6.583
14639TIP3   OH243801   6.749   4.426   5.726
14639TIP3    H143802   6.696   4.446   5.645
14639TIP3    H243803   6.790   4.343   5.692
14640TIP3   OH243804   6.038   4.452   6.453
14640TIP3    H143805   6.080   4.511   6.518
14640TIP3    H243806   6.032   4.369   6.503
14641TIP3   OH243807   6.095   3.927   5.157
14641TIP3    H143808   6.090   3.926   5.255
14641TIP3    H243809   6.016   3.981   5.137
14642TIP3   OH243810   5.636   3.970   6.033
14642TIP3    H143811   5.710   4.005   6.087
14642TIP3    H243812   5.680   3.943   5.951
14643TIP3   OH243813   5.606   3.954   5.550
14643TIP3    H143814   5.651   3.992   5.471
14643TIP3    H243815   5.546   4.027   5.571
14644TIP3   OH243816   6.727   4.669   6.138
14644TIP3    H143817   6.781   4.606   6.084
14644TIP3    H243818   6.739   4.628   6.226
14645TIP3   OH243819   6.414   4.093   5.839
14645TIP3    H143820   6.348   4.123   5.903
14645TIP3    H243821   6.497   4.127   5.875
14646TIP3   OH243822   5.868   4.185   5.825
14646TIP3    H143823   5.773   4.190   5.797
14646TIP3    H243824   5.894   4.094   5.802
14647TIP3   OH243825   6.147   4.177   5.512
14647TIP3    H143826   6.238   4.187   5.482
14647TIP3    H243827   6.094   4.202   5.433
14648TIP3   OH243828   6.911   4.208   6.007
14648TIP3    H143829   6.893   4.221   6.103
14648TIP3    H243830   6.842   4.143   5.984
14649TIP3   OH243831   5.982   4.214   5.295
14649TIP3    H143832   5.909   4.171   5.247
14649TIP3    H243833   6.033   4.251   5.220
14650TIP3   OH243834   7.095   5.896   6.239
14650TIP3    H143835   7.096   5.916   6.144
14650TIP3    H243836   7.177   5.940   6.269
14651TIP3   OH243837   6.053   5.007   6.660
14651TIP3    H143838   6.134   5.034   6.708
14651TIP3    H243839   5.989   5.003   6.734
14652TIP3   OH243840   6.515   4.455   5.910
14652TIP3    H143841   6.587   4.423   5.853
14652TIP3    H243842   6.539   4.418   5.996
14653TIP3   OH243843   6.036   3.948   5.790
14653TIP3    H143844   6.008   3.867   5.837
14653TIP3    H243845   6.104   3.915   5.730
14654TIP3   OH243846   6.493   4.347   6.216
14654TIP3    H143847   6.408   4.393   6.222
14654TIP3    H243848   6.556   4.409   6.259
14655TIP3   OH243849   6.225   4.751   5.294
14655TIP3    H143850   6.158   4.680   5.287
14655TIP3    H243851   6.211   4.781   5.388
14656TIP3   OH243852   7.132   4.982   5.932
14656TIP3    H143853   7.157   5.026   5.848
14656TIP3    H243854   7.049   4.935   5.907
14657TIP3   OH243855   6.657   4.072   5.138
14657TIP3    H143856   6.620   4.021   5.214
14657TIP3    H243857   6.699   4.146   5.187
14658TIP3   OH243858   6.630   5.066   6.294
14658TIP3    H143859   6.657   5.035   6.381
14658TIP3    H243860   6.589   5.152   6.311
14659TIP3   OH243861   6.770   4.297   5.248
14659TIP3    H143862   6.860   4.309   5.283
14659TIP3    H243863   6.745   4.386   5.218
14660TIP3   OH243864   5.923   4.768   5.974
14660TIP3    H143865   5.961   4.739   5.888
14660TIP3    H243866   5.968   4.708   6.035
14661TIP3   OH243867   6.376   4.891   5.112
14661TIP3    H143868   6.329   4.977   5.121
14661TIP3    H243869   6.323   4.835   5.173
14662TIP3   OH243870   5.801   4.692   6.590
14662TIP3    H143871   5.826   4.675   6.684
14662TIP3    H243872   5.737   4.620   6.574
14663TIP3   OH243873   6.529   4.803   6.608
14663TIP3    H143874   6.473   4.745   6.553
14663TIP3    H243875   6.618   4.769   6.584
14664TIP3   OH243876   6.789   5.340   6.185
14664TIP3    H143877   6.695   5.323   6.201
14664TIP3    H243878   6.815   5.381   6.269
14665TIP3   OH243879   7.203   4.392   5.099
14665TIP3    H143880   7.139   4.349   5.038
14665TIP3    H243881   7.199   4.482   5.060
14666TIP3   OH243882   7.420   5.259   6.178
14666TIP3    H143883   7.323   5.248   6.174
14666TIP3    H243884   7.445   5.223   6.090
14667TIP3   OH243885   6.914   5.211   5.013
14667TIP3    H143886   6.876   5.147   5.075
14667TIP3    H243887   6.900   5.170   4.927
14668TIP3   OH243888   6.896   4.846   5.840
14668TIP3    H143889   6.805   4.817   5.859
14668TIP3    H243890   6.933   4.764   5.802
14669TIP3   OH243891   6.022   5.071   5.601
14669TIP3    H143892   6.020   5.152   5.548
14669TIP3    H243893   5.929   5.049   5.610
14670TIP3   OH243894   5.590   4.374   5.299
14670TIP3    H143895   5.633   4.460   5.317
14670TIP3    H243896   5.507   4.383   5.350
14671TIP3   OH243897   6.162   4.838   5.543
14671TIP3    H143898   6.126   4.925   5.566
14671TIP3    H243899   6.130   4.783   5.617
14672TIP3   OH243900   6.293   5.415   6.070
14672TIP3    H143901   6.338   5.485   6.019
14672TIP3    H243902   6.368   5.376   6.118
14673TIP3   OH243903   5.939   5.311   5.450
14673TIP3    H143904   5.855   5.316   5.500
14673TIP3    H243905   5.970   5.404   5.457
14674TIP3   OH243906   6.686   5.051   6.026
14674TIP3    H143907   6.673   5.046   6.124
14674TIP3    H243908   6.759   4.990   6.014
14675TIP3   OH243909   6.657   4.948   4.907
14675TIP3    H143910   6.711   4.920   4.985
14675TIP3    H243911   6.570   4.918   4.936
14676TIP3   OH243912   6.929   5.585   6.084
14676TIP3    H143913   6.855   5.521   6.081
14676TIP3    H243914   6.909   5.643   6.008
14677TIP3   OH243915   6.993   5.434   4.745
14677TIP3    H143916   7.034   5.499   4.686
14677TIP3    H243917   6.909   5.478   4.766
14678TIP3   OH243918   6.016   4.194   6.597
14678TIP3    H143919   5.919   4.196   6.611
14678TIP3    H243920   6.045   4.135   6.668
14679TIP3   OH243921   6.817   4.876   5.124
14679TIP3    H143922   6.804   4.811   5.197
14679TIP3    H243923   6.914   4.872   5.116
14680TIP3   OH243924   5.732   5.278   6.229
14680TIP3    H143925   5.783   5.200   6.256
14680TIP3    H243926   5.763   5.343   6.293
14681TIP3   OH243927   6.026   4.936   4.909
14681TIP3    H143928   6.094   4.868   4.898
14681TIP3    H243929   5.998   4.924   5.002
14682TIP3   OH243930   5.971   4.930   5.185
14682TIP3    H143931   6.041   4.891   5.239
14682TIP3    H243932   5.987   5.026   5.195
14683TIP3   OH243933   5.704   4.623   5.385
14683TIP3    H143934   5.636   4.664   5.443
14683TIP3    H243935   5.710   4.694   5.317
14684TIP3   OH243936   6.856   4.261   6.276
14684TIP3    H143937   6.928   4.303   6.325
14684TIP3    H243938   6.841   4.180   6.328
14685TIP3   OH243939   6.236   5.122   5.127
14685TIP3    H143940   6.151   5.151   5.166
14685TIP3    H243941   6.268   5.203   5.087
14686TIP3   OH243942   6.686   4.501   6.362
14686TIP3    H143943   6.714   4.554   6.438
14686TIP3    H243944   6.751   4.428   6.363
14687TIP3   OH243945   5.989   5.209   5.205
14687TIP3    H143946   5.928   5.268   5.161
14687TIP3    H243947   5.974   5.235   5.299
14688TIP3   OH243948   6.084   3.914   5.433
14688TIP3    H143949   6.087   4.003   5.473
14688TIP3    H243950   6.174   3.883   5.449
14689TIP3   OH243951   6.981   4.603   5.719
14689TIP3    H143952   6.904   4.545   5.733
14689TIP3    H243953   7.051   4.556   5.771
14690TIP3   OH243954   5.704   4.834   5.204
14690TIP3    H143955   5.780   4.895   5.203
14690TIP3    H243956   5.728   4.777   5.128
14691TIP3   OH243957   5.637   4.105   5.324
14691TIP3    H143958   5.640   4.203   5.319
14691TIP3    H243959   5.554   4.089   5.277
14692TIP3   OH243960   6.949   5.560   5.671
14692TIP3    H143961   6.908   5.608   5.596
14692TIP3    H243962   7.044   5.577   5.651
14693TIP3   OH243963   6.024   3.827   6.200
14693TIP3    H143964   5.996   3.793   6.112
14693TIP3    H243965   6.015   3.747   6.256
14694TIP3   OH243966   5.573   5.055   5.583
14694TIP3    H143967   5.496   5.074   5.638
14694TIP3    H243968   5.541   5.086   5.495
14695TIP3   OH243969   5.721   5.585   6.651
14695TIP3    H143970   5.809   5.581   6.695
14695TIP3    H243971   5.699   5.490   6.648
14696TIP3   OH243972   6.208   5.552   6.692
14696TIP3    H143973   6.300   5.522   6.700
14696TIP3    H243974   6.178   5.494   6.620
14697TIP3   OH243975   6.838   5.459   6.431
14697TIP3    H143976   6.831   5.386   6.497
14697TIP3    H243977   6.920   5.504   6.460
14698TIP3   OH243978   6.629   5.191   4.736
14698TIP3    H143979   6.638   5.104   4.780
14698TIP3    H243980   6.657   5.172   4.645
14699TIP3   OH243981   5.852   4.993   6.851
14699TIP3    H143982   5.870   4.897   6.858
14699TIP3    H243983   5.765   4.993   6.806
14700TIP3   OH243984   5.828   4.643   5.047
14700TIP3    H143985   5.882   4.612   5.121
14700TIP3    H243986   5.888   4.631   4.972
14701TIP3   OH243987   6.458   5.076   6.625
14701TIP3    H143988   6.421   5.090   6.536
14701TIP3    H243989   6.492   4.984   6.619
14702TIP3   OH243990   6.290   4.826   4.850
14702TIP3    H143991   6.325   4.853   4.937
14702TIP3    H243992   6.326   4.735   4.844
14703TIP3   OH243993   6.952   5.088   6.236
14703TIP3    H143994   7.029   5.128   6.191
14703TIP3    H243995   6.881   5.150   6.212
14704TIP3   OH243996   5.972   4.726   6.831
14704TIP3    H143997   6.049   4.671   6.808
14704TIP3    H243998   5.998   4.758   6.920
14705TIP3   OH243999   6.041   4.547   5.266
14705TIP3    H144000   6.011   4.508   5.349
14705TIP3    H244001   6.076   4.469   5.218
14706TIP3   OH244002   6.303   4.607   6.490
14706TIP3    H144003   6.230   4.672   6.493
14706TIP3    H244004   6.358   4.642   6.417
14707TIP3   OH244005   6.139   4.340   5.109
14707TIP3    H144006   6.111   4.343   5.015
14707TIP3    H244007   6.236   4.345   5.099
14708TIP3   OH244008   6.828   5.015   6.626
14708TIP3    H144009   6.902   4.985   6.572
14708TIP3    H244010   6.823   4.946   6.694
14709TIP3   OH244011   6.961   4.673   4.770
14709TIP3    H144012   6.948   4.626   4.685
14709TIP3    H244013   6.929   4.762   4.744
14710TIP3   OH244014   6.427   4.398   6.622
14710TIP3    H144015   6.433   4.318   6.565
14710TIP3    H244016   6.388   4.463   6.561
14711TIP3   OH244017   6.432   4.183   6.432
14711TIP3    H144018   6.463   4.227   6.350
14711TIP3    H244019   6.339   4.162   6.409
14712TIP3   OH244020   6.462   4.721   6.305
14712TIP3    H144021   6.545   4.712   6.254
14712TIP3    H244022   6.412   4.786   6.252
14713TIP3   OH244023   7.044   4.689   6.684
14713TIP3    H144024   7.086   4.602   6.680
14713TIP3    H244025   7.108   4.745   6.637
14714TIP3   OH244026   7.081   4.950   6.435
14714TIP3    H144027   7.021   4.983   6.365
14714TIP3    H244028   7.166   4.959   6.387
14715TIP3   OH244029   6.306   4.512   6.850
14715TIP3    H144030   6.239   4.442   6.865
14715TIP3    H244031   6.342   4.485   6.764
14716TIP3   OH244032   6.565   3.949   6.497
14716TIP3    H144033   6.518   4.031   6.473
14716TIP3    H244034   6.496   3.881   6.482
14717TIP3   OH244035   6.690   4.455   6.714
14717TIP3    H144036   6.677   4.441   6.809
14717TIP3    H244037   6.601   4.429   6.681
14718TIP3   OH244038   6.922   4.396   6.559
14718TIP3    H144039   6.853   4.400   6.627
14718TIP3    H244040   7.002   4.372   6.609
14719TIP3   OH244041   7.175   4.347   6.719
14719TIP3    H144042   7.176   4.251   6.736
14719TIP3    H244043   7.160   4.385   6.809
14720TIP3   OH244044   6.146   4.291   6.905
14720TIP3    H144045   6.156   4.201   6.869
14720TIP3    H244046   6.184   4.279   6.995
14721TIP3   OH244047   6.657   3.956   6.755
14721TIP3    H144048   6.726   3.887   6.747
14721TIP3    H244049   6.619   3.953   6.665
14722TIP3   OH244050   6.724   4.172   6.913
14722TIP3    H144051   6.702   4.102   6.848
14722TIP3    H244052   6.647   4.233   6.905
14723TIP3   OH244053   5.340   5.397   5.639
14723TIP3    H144054   5.273   5.334   5.604
14723TIP3    H244055   5.385   5.341   5.706
14724TIP3   OH244056   5.474   5.253   5.830
14724TIP3    H144057   5.464   5.175   5.887
14724TIP3    H244058   5.527   5.310   5.888
14725TIP3   OH244059   7.201   5.655   5.627
14725TIP3    H144060   7.231   5.678   5.717
14725TIP3    H244061   7.272   5.690   5.571
14726TIP3   OH244062   7.235   5.668   5.909
14726TIP3    H144063   7.188   5.582   5.905
14726TIP3    H244064   7.307   5.643   5.969
14727TIP3   OH244065   7.279   5.347   6.482
14727TIP3    H144066   7.206   5.353   6.547
14727TIP3    H244067   7.321   5.435   6.490
14728TIP3   OH244068   7.100   4.860   5.103
14728TIP3    H144069   7.172   4.922   5.084
14728TIP3    H244070   7.135   4.816   5.184
14729TIP3   OH244071   7.221   4.726   5.308
14729TIP3    H144072   7.156   4.680   5.366
14729TIP3    H244073   7.284   4.762   5.372
14730TIP3   OH244074   7.278   5.119   5.738
14730TIP3    H144075   7.333   5.052   5.693
14730TIP3    H244076   7.267   5.186   5.668
14731TIP3   OH244077   7.109   5.421   5.930
14731TIP3    H144078   7.037   5.454   5.987
14731TIP3    H244079   7.060   5.369   5.863
14732TIP3   OH244080   7.163   4.634   4.952
14732TIP3    H144081   7.090   4.635   4.886
14732TIP3    H244082   7.135   4.708   5.010
14733TIP3   OH244083   7.036   4.304   4.903
14733TIP3    H144084   6.987   4.342   4.829
14733TIP3    H244085   7.009   4.210   4.897
14734TIP3   OH244086   7.038   4.579   5.451
14734TIP3    H144087   7.039   4.482   5.446
14734TIP3    H244088   7.023   4.593   5.548
14735TIP3   OH244089   5.663   4.657   6.200
14735TIP3    H144090   5.662   4.624   6.108
14735TIP3    H244091   5.760   4.658   6.218
14736TIP3   OH244092   7.327   5.007   6.313
14736TIP3    H144093   7.396   4.938   6.302
14736TIP3    H244094   7.348   5.069   6.243
14737TIP3   OH244095   7.511   4.811   6.330
14737TIP3    H144096   7.435   4.759   6.364
14737TIP3    H244097   7.583   4.745   6.342
14738TIP3   OH244098   6.978   4.036   4.888
14738TIP3    H144099   7.050   4.010   4.949
14738TIP3    H244100   6.901   3.985   4.919
14739TIP3   OH244101   7.036   4.299   5.345
14739TIP3    H144102   7.074   4.211   5.364
14739TIP3    H244103   7.096   4.328   5.274
14740TIP3   OH244104   7.188   4.472   5.849
14740TIP3    H144105   7.277   4.505   5.825
14740TIP3    H244106   7.189   4.483   5.947
14741TIP3   OH244107   5.879   4.341   6.872
14741TIP3    H144108   5.977   4.336   6.875
14741TIP3    H244109   5.857   4.256   6.915
14742TIP3   OH244110   7.717   4.211   6.627
14742TIP3    H144111   7.775   4.143   6.587
14742TIP3    H244112   7.689   4.263   6.549
14743TIP3   OH244113   7.144   4.047   5.383
14743TIP3    H144114   7.190   4.033   5.469
14743TIP3    H244115   7.079   3.974   5.385
14744TIP3   OH244116   5.840   4.035   6.209
14744TIP3    H144117   5.903   3.960   6.216
14744TIP3    H244118   5.903   4.110   6.201
14745TIP3   OH244119   5.644   4.308   6.277
14745TIP3    H144120   5.694   4.300   6.193
14745TIP3    H244121   5.677   4.392   6.311
14746TIP3   OH244122   7.582   4.352   6.435
14746TIP3    H144123   7.508   4.386   6.489
14746TIP3    H244124   7.539   4.282   6.382
14747TIP3   OH244125   7.223   3.984   5.018
14747TIP3    H144126   7.264   3.911   4.967
14747TIP3    H244127   7.291   4.053   5.014
14748TIP3   OH244128   5.628   3.808   5.776
14748TIP3    H144129   5.535   3.809   5.804
14748TIP3    H244130   5.626   3.869   5.700
14749TIP3   OH244131   6.784   5.520   5.284
14749TIP3    H144132   6.834   5.502   5.201
14749TIP3    H244133   6.846   5.577   5.332
14750TIP3   OH244134   5.848   3.890   6.594
14750TIP3    H144135   5.797   3.887   6.676
14750TIP3    H244136   5.782   3.929   6.533
14751TIP3   OH244137   5.887   5.325   6.672
14751TIP3    H144138   5.797   5.292   6.653
14751TIP3    H244139   5.900   5.295   6.763
14752TIP3   OH244140   6.066   5.352   6.219
14752TIP3    H144141   6.019   5.428   6.179
14752TIP3    H244142   6.152   5.364   6.176
14753TIP3   OH244143   6.512   5.599   6.360
14753TIP3    H144144   6.556   5.596   6.447
14753TIP3    H244145   6.579   5.646   6.306
14754TIP3   OH244146   6.690   5.748   6.214
14754TIP3    H144147   6.759   5.694   6.172
14754TIP3    H244148   6.744   5.804   6.274
14755TIP3   OH244149   7.480   4.114   6.319
14755TIP3    H144150   7.394   4.117   6.273
14755TIP3    H244151   7.507   4.021   6.302
14756TIP3   OH244152   5.743   5.612   6.238
14756TIP3    H144153   5.654   5.645   6.217
14756TIP3    H244154   5.750   5.638   6.331
14757TIP3   OH244155   5.980   5.589   6.100
14757TIP3    H144156   5.893   5.601   6.144
14757TIP3    H244157   5.959   5.619   6.009
14758TIP3   OH244158   6.405   5.617   5.896
14758TIP3    H144159   6.334   5.637   5.832
14758TIP3    H244160   6.417   5.704   5.940
14759TIP3   OH244161   6.674   5.558   5.950
14759TIP3    H144162   6.580   5.572   5.927
14759TIP3    H244163   6.717   5.633   5.906
14760TIP3   OH244164   6.883   5.748   5.864
14760TIP3    H144165   6.869   5.831   5.814
14760TIP3    H244166   6.908   5.686   5.793
14761TIP3   OH244167   5.656   5.403   5.988
14761TIP3    H144168   5.682   5.375   6.079
14761TIP3    H244169   5.727   5.357   5.937
14762TIP3   OH244170   5.849   5.273   5.845
14762TIP3    H144171   5.863   5.188   5.892
14762TIP3    H244172   5.940   5.307   5.840
14763TIP3   OH244173   6.117   5.367   5.846
14763TIP3    H144174   6.146   5.275   5.835
14763TIP3    H244175   6.161   5.388   5.930
14764TIP3   OH244176   6.698   4.030   5.952
14764TIP3    H144177   6.644   3.957   5.988
14764TIP3    H244178   6.752   3.986   5.885
14765TIP3   OH244179   7.217   3.893   5.832
14765TIP3    H144180   7.251   3.956   5.765
14765TIP3    H244181   7.123   3.920   5.837
14766TIP3   OH244182   7.311   4.005   5.598
14766TIP3    H144183   7.387   3.958   5.558
14766TIP3    H244184   7.339   4.099   5.589
14767TIP3   OH244185   5.939   3.733   5.951
14767TIP3    H144186   5.847   3.700   5.952
14767TIP3    H244187   5.988   3.648   5.946
14768TIP3   OH244188   5.724   3.602   5.596
14768TIP3    H144189   5.755   3.661   5.525
14768TIP3    H244190   5.696   3.667   5.664
14769TIP3   OH244191   6.373   3.766   5.839
14769TIP3    H144192   6.408   3.826   5.771
14769TIP3    H244193   6.409   3.807   5.919
14770TIP3   OH244194   6.939   3.909   5.815
14770TIP3    H144195   6.915   3.886   5.725
14770TIP3    H244196   6.914   3.829   5.866
14771TIP3   OH244197   6.955   3.835   5.375
14771TIP3    H144198   6.863   3.868   5.372
14771TIP3    H244199   6.942   3.751   5.424
14772TIP3   OH244200   5.443   5.170   5.380
14772TIP3    H144201   5.360   5.132   5.345
14772TIP3    H244202   5.430   5.262   5.356
14773TIP3   OH244203   5.843   3.762   5.362
14773TIP3    H144204   5.895   3.702   5.305
14773TIP3    H244205   5.914   3.820   5.398
14774TIP3   OH244206   6.195   5.375   4.939
14774TIP3    H144207   6.291   5.382   4.918
14774TIP3    H244208   6.177   5.287   4.906
14775TIP3   OH244209   6.930   5.481   5.053
14775TIP3    H144210   6.932   5.384   5.040
14775TIP3    H244211   6.894   5.509   4.967
14776TIP3   OH244212   6.146   4.011   6.839
14776TIP3    H144213   6.112   3.942   6.898
14776TIP3    H244214   6.240   4.013   6.866
14777TIP3   OH244215   6.394   4.010   6.959
14777TIP3    H144216   6.480   3.990   6.918
14777TIP3    H244217   6.386   3.938   7.025
14778TIP3   OH244218   7.219   4.071   6.748
14778TIP3    H144219   7.239   4.041   6.840
14778TIP3    H244220   7.308   4.067   6.707
14779TIP3   OH244221   7.160   5.626   6.240
14779TIP3    H144222   7.081   5.593   6.193
14779TIP3    H244223   7.138   5.721   6.245
14780TIP3   OH244224   8.427   4.999   5.004
14780TIP3    H144225   8.398   5.090   4.984
14780TIP3    H244226   8.350   4.948   4.973
14781TIP3   OH244227   8.426   4.996   5.387
14781TIP3    H144228   8.457   4.969   5.475
14781TIP3    H244229   8.382   4.915   5.356
14782TIP3   OH244230   7.724   4.892   5.747
14782TIP3    H144231   7.750   4.823   5.811
14782TIP3    H244232   7.800   4.951   5.752
14783TIP3   OH244233   8.669   5.301   5.068
14783TIP3    H144234   8.652   5.231   5.132
14783TIP3    H244235   8.697   5.375   5.124
14784TIP3   OH244236   7.695   5.304   5.477
14784TIP3    H144237   7.686   5.206   5.479
14784TIP3    H244238   7.792   5.312   5.474
14785TIP3   OH244239   7.405   4.510   5.260
14785TIP3    H144240   7.353   4.590   5.278
14785TIP3    H244241   7.335   4.450   5.230
14786TIP3   OH244242   7.463   4.792   5.432
14786TIP3    H144243   7.509   4.715   5.471
14786TIP3    H244244   7.522   4.815   5.359
14787TIP3   OH244245   8.319   5.763   5.086
14787TIP3    H144246   8.364   5.691   5.037
14787TIP3    H244247   8.310   5.724   5.173
14788TIP3   OH244248   8.223   5.224   5.435
14788TIP3    H144249   8.261   5.147   5.389
14788TIP3    H244250   8.307   5.268   5.460
14789TIP3   OH244251   9.235   4.544   5.433
14789TIP3    H144252   9.265   4.626   5.477
14789TIP3    H244253   9.258   4.563   5.340
14790TIP3   OH244254   8.638   4.725   5.467
14790TIP3    H144255   8.678   4.639   5.488
14790TIP3    H244256   8.605   4.709   5.377
14791TIP3   OH244257   7.976   4.384   5.432
14791TIP3    H144258   7.952   4.457   5.371
14791TIP3    H244259   7.926   4.310   5.390
14792TIP3   OH244260   8.668   4.474   5.056
14792TIP3    H144261   8.740   4.458   5.121
14792TIP3    H244262   8.720   4.510   4.982
14793TIP3   OH244263   7.608   4.588   5.540
14793TIP3    H144264   7.689   4.566   5.589
14793TIP3    H244265   7.619   4.529   5.462
14794TIP3   OH244266   8.049   4.784   5.330
14794TIP3    H144267   8.142   4.757   5.346
14794TIP3    H244268   8.008   4.700   5.300
14795TIP3   OH244269   9.309   4.750   5.604
14795TIP3    H144270   9.225   4.798   5.585
14795TIP3    H244271   9.327   4.779   5.694
14796TIP3   OH244272   7.971   4.368   5.868
14796TIP3    H144273   7.910   4.404   5.801
14796TIP3    H244274   7.918   4.384   5.949
14797TIP3   OH244275   8.324   5.223   4.870
14797TIP3    H144276   8.273   5.197   4.792
14797TIP3    H244277   8.275   5.303   4.898
14798TIP3   OH244278   8.078   5.143   5.663
14798TIP3    H144279   8.014   5.207   5.702
14798TIP3    H244280   8.118   5.195   5.591
14799TIP3   OH244281   8.879   4.477   5.227
14799TIP3    H144282   8.864   4.431   5.311
14799TIP3    H244283   8.931   4.554   5.256
14800TIP3   OH244284   7.842   4.483   5.652
14800TIP3    H144285   7.905   4.555   5.675
14800TIP3    H244286   7.891   4.442   5.577
14801TIP3   OH244287   7.905   5.336   5.761
14801TIP3    H144288   7.878   5.422   5.724
14801TIP3    H244289   7.826   5.318   5.817
14802TIP3   OH244290   7.312   5.037   5.001
14802TIP3    H144291   7.254   5.089   4.945
14802TIP3    H244292   7.352   5.109   5.054
14803TIP3   OH244293   8.739   5.542   5.235
14803TIP3    H144294   8.649   5.533   5.276
14803TIP3    H244295   8.729   5.629   5.192
14804TIP3   OH244296   9.030   4.442   5.599
14804TIP3    H144297   8.942   4.471   5.569
14804TIP3    H244298   9.088   4.475   5.528
14805TIP3   OH244299   8.328   4.087   5.584
14805TIP3    H144300   8.312   3.992   5.599
14805TIP3    H244301   8.250   4.125   5.629
14806TIP3   OH244302   8.442   5.589   4.910
14806TIP3    H144303   8.492   5.507   4.892
14806TIP3    H244304   8.503   5.654   4.868
14807TIP3   OH244305   8.586   5.373   4.814
14807TIP3    H144306   8.530   5.298   4.788
14807TIP3    H244307   8.623   5.340   4.899
14808TIP3   OH244308   8.965   5.455   5.580
14808TIP3    H144309   8.953   5.377   5.521
14808TIP3    H244310   8.947   5.530   5.519
14809TIP3   OH244311   8.257   4.848   4.837
14809TIP3    H144312   8.176   4.899   4.818
14809TIP3    H244313   8.300   4.846   4.750
14810TIP3   OH244314   8.215   4.633   4.553
14810TIP3    H144315   8.282   4.684   4.602
14810TIP3    H244316   8.273   4.569   4.506
14811TIP3   OH244317   9.160   5.091   5.424
14811TIP3    H144318   9.077   5.143   5.430
14811TIP3    H244319   9.189   5.116   5.334
14812TIP3   OH244320   8.605   4.933   4.808
14812TIP3    H144321   8.549   4.957   4.885
14812TIP3    H244322   8.687   4.906   4.854
14813TIP3   OH244323   8.839   4.970   5.721
14813TIP3    H144324   8.836   5.054   5.771
14813TIP3    H244325   8.752   4.974   5.676
14814TIP3   OH244326   7.837   4.929   5.224
14814TIP3    H144327   7.794   4.870   5.158
14814TIP3    H244328   7.913   4.875   5.254
14815TIP3   OH244329   7.968   5.344   5.372
14815TIP3    H144330   7.944   5.299   5.290
14815TIP3    H244331   8.056   5.308   5.391
14816TIP3   OH244332   7.979   4.898   5.580
14816TIP3    H144333   8.008   4.879   5.489
14816TIP3    H244334   8.018   4.986   5.599
14817TIP3   OH244335   8.498   5.537   5.357
14817TIP3    H144336   8.485   5.617   5.411
14817TIP3    H244337   8.483   5.464   5.420
14818TIP3   OH244338   8.111   5.456   5.905
14818TIP3    H144339   8.051   5.518   5.951
14818TIP3    H244340   8.046   5.402   5.856
14819TIP3   OH244341   8.447   4.788   4.635
14819TIP3    H144342   8.504   4.849   4.686
14819TIP3    H244343   8.472   4.812   4.542
14820TIP3   OH244344   7.863   5.013   6.003
14820TIP3    H144345   7.867   5.100   6.048
14820TIP3    H244346   7.769   4.991   6.019
14821TIP3   OH244347   8.189   5.466   4.913
14821TIP3    H144348   8.265   5.525   4.928
14821TIP3    H244349   8.126   5.523   4.867
14822TIP3   OH244350   7.905   5.623   5.991
14822TIP3    H144351   7.868   5.621   5.900
14822TIP3    H244352   7.825   5.603   6.045
14823TIP3   OH244353   8.960   4.030   4.684
14823TIP3    H144354   8.878   4.050   4.734
14823TIP3    H244355   8.972   4.114   4.635
14824TIP3   OH244356   7.701   4.770   5.032
14824TIP3    H144357   7.634   4.810   4.974
14824TIP3    H244358   7.663   4.683   5.048
14825TIP3   OH244359   8.745   5.406   4.229
14825TIP3    H144360   8.740   5.504   4.222
14825TIP3    H244361   8.836   5.392   4.201
14826TIP3   OH244362   7.484   5.154   5.936
14826TIP3    H144363   7.415   5.131   5.872
14826TIP3    H244364   7.519   5.066   5.961
14827TIP3   OH244365   7.338   5.354   5.560
14827TIP3    H144366   7.433   5.338   5.560
14827TIP3    H244367   7.331   5.425   5.627
14828TIP3   OH244368   9.205   5.799   5.630
14828TIP3    H144369   9.204   5.702   5.645
14828TIP3    H244370   9.120   5.824   5.672
14829TIP3   OH244371   8.307   5.586   5.760
14829TIP3    H144372   8.306   5.679   5.793
14829TIP3    H244373   8.236   5.546   5.816
14830TIP3   OH244374   8.071   5.717   4.711
14830TIP3    H144375   8.021   5.692   4.631
14830TIP3    H244376   8.034   5.804   4.733
14831TIP3   OH244377   7.506   5.566   5.098
14831TIP3    H144378   7.553   5.553   5.183
14831TIP3    H244379   7.451   5.486   5.096
14832TIP3   OH244380   8.271   5.620   4.353
14832TIP3    H144381   8.329   5.549   4.318
14832TIP3    H244382   8.302   5.626   4.446
14833TIP3   OH244383   8.322   5.664   4.623
14833TIP3    H144384   8.231   5.675   4.661
14833TIP3    H244385   8.367   5.619   4.697
14834TIP3   OH244386   9.093   4.931   5.901
14834TIP3    H144387   9.010   4.943   5.851
14834TIP3    H244388   9.107   4.834   5.891
14835TIP3   OH244389   7.687   5.339   5.925
14835TIP3    H144390   7.737   5.321   6.008
14835TIP3    H244391   7.614   5.274   5.932
14836TIP3   OH244392   8.089   4.163   5.710
14836TIP3    H144393   8.000   4.131   5.684
14836TIP3    H244394   8.062   4.245   5.757
14837TIP3   OH244395   8.621   4.277   5.905
14837TIP3    H144396   8.688   4.250   5.970
14837TIP3    H244397   8.537   4.258   5.951
14838TIP3   OH244398   8.862   4.707   5.823
14838TIP3    H144399   8.811   4.703   5.908
14838TIP3    H244400   8.836   4.794   5.787
14839TIP3   OH244401   8.523   4.836   4.379
14839TIP3    H144402   8.487   4.810   4.292
14839TIP3    H244403   8.603   4.886   4.353
14840TIP3   OH244404   8.235   4.210   4.682
14840TIP3    H144405   8.200   4.208   4.773
14840TIP3    H244406   8.194   4.128   4.647
14841TIP3   OH244407   8.022   4.677   5.731
14841TIP3    H144408   7.969   4.697   5.811
14841TIP3    H244409   8.006   4.758   5.677
14842TIP3   OH244410   7.903   4.564   5.242
14842TIP3    H144411   7.811   4.537   5.261
14842TIP3    H244412   7.915   4.523   5.154
14843TIP3   OH244413   8.395   4.650   4.971
14843TIP3    H144414   8.342   4.721   4.929
14843TIP3    H244415   8.448   4.618   4.896
14844TIP3   OH244416   8.569   4.929   6.059
14844TIP3    H144417   8.546   4.855   6.120
14844TIP3    H244418   8.663   4.942   6.081
14845TIP3   OH244419   8.552   4.678   5.209
14845TIP3    H144420   8.490   4.707   5.139
14845TIP3    H244421   8.584   4.596   5.166
14846TIP3   OH244422   7.841   4.706   5.936
14846TIP3    H144423   7.854   4.771   6.007
14846TIP3    H244424   7.823   4.624   5.986
14847TIP3   OH244425   7.889   4.184   4.647
14847TIP3    H144426   7.880   4.181   4.744
14847TIP3    H244427   7.811   4.237   4.623
14848TIP3   OH244428   7.432   4.231   5.511
14848TIP3    H144429   7.506   4.260   5.569
14848TIP3    H244430   7.477   4.192   5.435
14849TIP3   OH244431   7.405   4.210   5.037
14849TIP3    H144432   7.450   4.250   4.959
14849TIP3    H244433   7.343   4.282   5.059
14850TIP3   OH244434   8.563   4.925   5.632
14850TIP3    H144435   8.595   4.852   5.573
14850TIP3    H244436   8.532   4.872   5.709
14851TIP3   OH244437   8.231   4.385   5.304
14851TIP3    H144438   8.147   4.384   5.354
14851TIP3    H244439   8.297   4.385   5.376
14852TIP3   OH244440   7.666   4.443   5.310
14852TIP3    H144441   7.571   4.452   5.285
14852TIP3    H244442   7.685   4.350   5.291
14853TIP3   OH244443   7.935   4.438   5.001
14853TIP3    H144444   8.028   4.454   4.977
14853TIP3    H244445   7.886   4.460   4.918
14854TIP3   OH244446   8.722   4.461   5.504
14854TIP3    H144447   8.690   4.474   5.596
14854TIP3    H244448   8.654   4.400   5.470
14855TIP3   OH244449   7.777   4.472   4.781
14855TIP3    H144450   7.704   4.427   4.734
14855TIP3    H244451   7.827   4.508   4.705
14856TIP3   OH244452   8.875   6.135   5.711
14856TIP3    H144453   8.888   6.165   5.619
14856TIP3    H244454   8.936   6.197   5.757
14857TIP3   OH244455   7.847   5.262   6.143
14857TIP3    H144456   7.925   5.296   6.191
14857TIP3    H244457   7.783   5.256   6.217
14858TIP3   OH244458   8.313   4.715   5.403
14858TIP3    H144459   8.386   4.673   5.354
14858TIP3    H244460   8.320   4.673   5.490
14859TIP3   OH244461   7.838   4.201   5.281
14859TIP3    H144462   7.801   4.123   5.329
14859TIP3    H244463   7.884   4.159   5.208
14860TIP3   OH244464   8.291   4.612   5.689
14860TIP3    H144465   8.200   4.646   5.705
14860TIP3    H244466   8.346   4.673   5.741
14861TIP3   OH244467   8.030   4.999   4.788
14861TIP3    H144468   7.956   4.937   4.774
14861TIP3    H244469   8.009   5.034   4.879
14862TIP3   OH244470   8.928   5.237   5.415
14862TIP3    H144471   8.951   5.287   5.334
14862TIP3    H244472   8.842   5.196   5.391
14863TIP3   OH244473   8.485   4.314   4.647
14863TIP3    H144474   8.388   4.295   4.657
14863TIP3    H244475   8.493   4.408   4.673
14864TIP3   OH244476   8.428   5.321   5.782
14864TIP3    H144477   8.449   5.297   5.873
14864TIP3    H244478   8.387   5.409   5.792
14865TIP3   OH244479   8.554   4.560   4.753
14865TIP3    H144480   8.650   4.568   4.768
14865TIP3    H244481   8.535   4.641   4.701
14866TIP3   OH244482   7.723   5.028   5.462
14866TIP3    H144483   7.760   4.994   5.379
14866TIP3    H244484   7.752   4.962   5.527
14867TIP3   OH244485   8.173   5.152   4.611
14867TIP3    H144486   8.126   5.239   4.617
14867TIP3    H244487   8.116   5.096   4.669
14868TIP3   OH244488   7.604   4.941   6.076
14868TIP3    H144489   7.608   4.919   6.171
14868TIP3    H244490   7.531   4.884   6.045
14869TIP3   OH244491   8.324   5.057   6.101
14869TIP3    H144492   8.262   4.998   6.054
14869TIP3    H244493   8.410   5.022   6.070
14870TIP3   OH244494   8.586   5.580   5.677
14870TIP3    H144495   8.490   5.578   5.692
14870TIP3    H244496   8.616   5.630   5.756
14871TIP3   OH244497   8.997   4.649   4.587
14871TIP3    H144498   8.935   4.605   4.525
14871TIP3    H244499   8.994   4.739   4.548
14872TIP3   OH244500   9.215   5.507   5.670
14872TIP3    H144501   9.117   5.503   5.662
14872TIP3    H244502   9.240   5.478   5.580
14873TIP3   OH244503   8.708   5.467   4.504
14873TIP3    H144504   8.666   5.408   4.569
14873TIP3    H244505   8.697   5.417   4.421
14874TIP3   OH244506   8.693   5.100   5.333
14874TIP3    H144507   8.600   5.075   5.348
14874TIP3    H244508   8.726   5.020   5.289
14875TIP3   OH244509   7.820   5.328   5.087
14875TIP3    H144510   7.818   5.408   5.032
14875TIP3    H244511   7.726   5.309   5.096
14876TIP3   OH244512   7.379   4.633   4.781
14876TIP3    H144513   7.429   4.713   4.808
14876TIP3    H244514   7.305   4.635   4.846
14877TIP3   OH244515   7.960   5.094   5.032
14877TIP3    H144516   7.924   5.183   5.050
14877TIP3    H244517   7.923   5.042   5.106
14878TIP3   OH244518   8.089   5.671   5.557
14878TIP3    H144519   8.133   5.743   5.506
14878TIP3    H244520   8.165   5.635   5.606
14879TIP3   OH244521   7.740   5.567   4.941
14879TIP3    H144522   7.653   5.573   4.986
14879TIP3    H244523   7.768   5.661   4.942
14880TIP3   OH244524   8.478   5.305   5.514
14880TIP3    H144525   8.468   5.304   5.612
14880TIP3    H244526   8.558   5.251   5.504
14881TIP3   OH244527   8.450   5.202   4.395
14881TIP3    H144528   8.500   5.174   4.475
14881TIP3    H244529   8.361   5.171   4.418
14882TIP3   OH244530   8.728   5.835   5.564
14882TIP3    H144531   8.647   5.780   5.558
14882TIP3    H244532   8.710   5.902   5.494
14883TIP3   OH244533   8.789   5.678   4.217
14883TIP3    H144534   8.825   5.751   4.163
14883TIP3    H244535   8.709   5.723   4.252
14884TIP3   OH244536   7.808   4.449   6.083
14884TIP3    H144537   7.711   4.455   6.094
14884TIP3    H244538   7.832   4.388   6.154
14885TIP3   OH244539   8.612   5.129   4.609
14885TIP3    H144540   8.600   5.067   4.683
14885TIP3    H244541   8.710   5.129   4.602
14886TIP3   OH244542   7.528   5.534   5.716
14886TIP3    H144543   7.578   5.456   5.744
14886TIP3    H244544   7.556   5.598   5.783
14887TIP3   OH244545   7.825   5.180   4.398
14887TIP3    H144546   7.826   5.088   4.365
14887TIP3    H244547   7.802   5.165   4.493
14888TIP3   OH244548   7.776   5.176   4.669
14888TIP3    H144549   7.840   5.161   4.739
14888TIP3    H244550   7.762   5.273   4.673
14889TIP3   OH244551   7.501   4.874   4.871
14889TIP3    H144552   7.439   4.929   4.923
14889TIP3    H244553   7.540   4.939   4.811
14890TIP3   OH244554   8.650   4.512   5.763
14890TIP3    H144555   8.728   4.551   5.806
14890TIP3    H244556   8.634   4.432   5.818
14891TIP3   OH244557   8.530   4.264   4.929
14891TIP3    H144558   8.515   4.288   4.836
14891TIP3    H244559   8.567   4.347   4.966
14892TIP3   OH244560   8.035   5.385   4.623
14892TIP3    H144561   7.945   5.404   4.655
14892TIP3    H244562   8.039   5.444   4.547
14893TIP3   OH244563   8.220   4.444   5.032
14893TIP3    H144564   8.283   4.517   5.016
14893TIP3    H244565   8.222   4.437   5.130
14894TIP3   OH244566   8.488   4.764   5.839
14894TIP3    H144567   8.506   4.818   5.919
14894TIP3    H244568   8.542   4.685   5.855
14895TIP3   OH244569   8.362   4.172   5.136
14895TIP3    H144570   8.352   4.250   5.193
14895TIP3    H244571   8.423   4.207   5.067
14896TIP3   OH244572   7.777   5.454   4.686
14896TIP3    H144573   7.741   5.519   4.622
14896TIP3    H244574   7.757   5.497   4.771
14897TIP3   OH244575   7.874   4.170   4.924
14897TIP3    H144576   7.870   4.260   4.961
14897TIP3    H244577   7.970   4.152   4.932
14898TIP3   OH244578   9.128   4.663   5.821
14898TIP3    H144579   9.030   4.662   5.829
14898TIP3    H244580   9.139   4.624   5.734
14899TIP3   OH244581   8.779   4.858   5.207
14899TIP3    H144582   8.702   4.799   5.221
14899TIP3    H244583   8.850   4.811   5.256
14900TIP3   OH244584   7.435   4.364   4.810
14900TIP3    H144585   7.433   4.462   4.802
14900TIP3    H244586   7.351   4.340   4.771
14901TIP3   OH244587   8.746   5.815   5.158
14901TIP3    H144588   8.704   5.862   5.083
14901TIP3    H244589   8.841   5.834   5.137
14902TIP3   OH244590   7.828   4.081   5.684
14902TIP3    H144591   7.792   4.049   5.599
14902TIP3    H244592   7.814   4.003   5.742
14903TIP3   OH244593   7.366   5.304   5.070
14903TIP3    H144594   7.293   5.333   5.126
14903TIP3    H244595   7.337   5.340   4.983
14904TIP3   OH244596   7.518   5.843   6.137
14904TIP3    H144597   7.604   5.842   6.184
14904TIP3    H244598   7.497   5.748   6.136
14905TIP3   OH244599   7.998   5.811   6.178
14905TIP3    H144600   8.092   5.793   6.192
14905TIP3    H244601   7.977   5.747   6.107
14906TIP3   OH244602   7.987   5.382   4.316
14906TIP3    H144603   7.924   5.314   4.350
14906TIP3    H244604   8.055   5.324   4.278
14907TIP3   OH244605   8.642   5.711   5.912
14907TIP3    H144606   8.631   5.643   5.983
14907TIP3    H244607   8.716   5.764   5.945
14908TIP3   OH244608   8.420   5.426   4.225
14908TIP3    H144609   8.455   5.353   4.280
14908TIP3    H244610   8.472   5.418   4.143
14909TIP3   OH244611   7.649   5.248   6.337
14909TIP3    H144612   7.666   5.152   6.341
14909TIP3    H244613   7.561   5.251   6.293
14910TIP3   OH244614   7.622   4.880   4.531
14910TIP3    H144615   7.683   4.869   4.605
14910TIP3    H244616   7.686   4.900   4.459
14911TIP3   OH244617   8.258   5.332   6.112
14911TIP3    H144618   8.216   5.350   6.025
14911TIP3    H244619   8.287   5.239   6.103
14912TIP3   OH244620   8.147   5.100   4.338
14912TIP3    H144621   8.138   5.112   4.435
14912TIP3    H244622   8.139   5.003   4.331
14913TIP3   OH244623   8.749   5.341   5.717
14913TIP3    H144624   8.824   5.388   5.674
14913TIP3    H244625   8.678   5.406   5.704
14914TIP3   OH244626   7.771   4.989   6.321
14914TIP3    H144627   7.835   4.920   6.303
14914TIP3    H244628   7.797   5.018   6.411
14915TIP3   OH244629   7.837   4.803   4.757
14915TIP3    H144630   7.809   4.758   4.838
14915TIP3    H244631   7.869   4.728   4.702
14916TIP3   OH244632   8.107   4.872   5.986
14916TIP3    H144633   8.025   4.926   5.984
14916TIP3    H244634   8.153   4.904   5.905
14917TIP3   OH244635   7.934   4.597   4.594
14917TIP3    H144636   7.907   4.603   4.500
14917TIP3    H244637   8.031   4.602   4.585
14918TIP3   OH244638   8.620   5.271   6.115
14918TIP3    H144639   8.701   5.248   6.067
14918TIP3    H244640   8.618   5.203   6.185
14919TIP3   OH244641   8.762   4.930   4.255
14919TIP3    H144642   8.742   4.882   4.172
14919TIP3    H244643   8.725   5.018   4.231
14920TIP3   OH244644   8.229   4.656   6.106
14920TIP3    H144645   8.225   4.576   6.050
14920TIP3    H244646   8.183   4.723   6.050
14921TIP3   OH244647   8.229   4.441   5.914
14921TIP3    H144648   8.255   4.483   5.829
14921TIP3    H244649   8.135   4.419   5.897
14922TIP3   OH244650   8.258   4.978   5.787
14922TIP3    H144651   8.340   4.988   5.737
14922TIP3    H244652   8.200   5.044   5.743
14923TIP3   OH244653   8.837   4.945   6.170
14923TIP3    H144654   8.886   4.863   6.179
14923TIP3    H244655   8.904   5.006   6.137
14924TIP3   OH244656   8.879   5.197   5.904
14924TIP3    H144657   8.821   5.250   5.845
14924TIP3    H244658   8.967   5.218   5.864
14925TIP3   OH244659   8.107   4.767   6.338
14925TIP3    H144660   8.037   4.699   6.352
14925TIP3    H244661   8.139   4.743   6.249
14926TIP3   OH244662   8.361   4.205   5.981
14926TIP3    H144663   8.312   4.287   5.959
14926TIP3    H244664   8.291   4.137   5.970
14927TIP3   OH244665   8.488   4.709   6.198
14927TIP3    H144666   8.472   4.696   6.293
14927TIP3    H244667   8.398   4.686   6.164
14928TIP3   OH244668   8.726   4.658   6.052
14928TIP3    H144669   8.651   4.661   6.114
14928TIP3    H244670   8.800   4.629   6.110
14929TIP3   OH244671   8.956   4.599   6.203
14929TIP3    H144672   8.968   4.504   6.222
14929TIP3    H244673   8.951   4.638   6.293
14930TIP3   OH244674   7.947   4.547   6.389
14930TIP3    H144675   7.949   4.456   6.354
14930TIP3    H244676   7.981   4.533   6.480
14931TIP3   OH244677   8.457   4.216   6.238
14931TIP3    H144678   8.523   4.144   6.232
14931TIP3    H244679   8.416   4.210   6.150
14932TIP3   OH244680   8.523   4.431   6.397
14932TIP3    H144681   8.501   4.359   6.333
14932TIP3    H244682   8.444   4.489   6.390
14933TIP3   OH244683   7.745   5.671   4.505
14933TIP3    H144684   7.838   5.659   4.481
14933TIP3    H244685   7.708   5.698   4.419
14934TIP3   OH244686   7.133   5.655   5.131
14934TIP3    H144687   7.071   5.592   5.091
14934TIP3    H244688   7.180   5.597   5.195
14935TIP3   OH244689   7.271   5.506   5.316
14935TIP3    H144690   7.263   5.430   5.377
14935TIP3    H244691   7.323   5.566   5.372
14936TIP3   OH244692   8.998   5.910   5.112
14936TIP3    H144693   9.023   5.932   5.203
14936TIP3    H244694   9.070   5.949   5.060
14937TIP3   OH244695   9.032   5.919   5.390
14937TIP3    H144696   8.991   5.829   5.396
14937TIP3    H244697   9.106   5.909   5.451
14938TIP3   OH244698   9.074   5.598   5.969
14938TIP3    H144699   9.001   5.608   6.034
14938TIP3    H244700   9.116   5.687   5.974
14939TIP3   OH244701   8.897   5.116   4.592
14939TIP3    H144702   8.972   5.176   4.576
14939TIP3    H244703   8.929   5.069   4.673
14940TIP3   OH244704   9.018   4.982   4.795
14940TIP3    H144705   8.953   4.938   4.854
14940TIP3    H244706   9.083   5.019   4.858
14941TIP3   OH244707   9.073   5.374   5.225
14941TIP3    H144708   9.128   5.309   5.176
14941TIP3    H244709   9.064   5.447   5.160
14942TIP3   OH244710   8.905   5.673   5.421
14942TIP3    H144711   8.835   5.717   5.473
14942TIP3    H244712   8.853   5.626   5.352
14943TIP3   OH244713   8.959   4.890   4.441
14943TIP3    H144714   8.887   4.891   4.373
14943TIP3    H244715   8.930   4.965   4.496
14944TIP3   OH244716   8.830   4.563   4.391
14944TIP3    H144717   8.783   4.598   4.316
14944TIP3    H244718   8.805   4.468   4.386
14945TIP3   OH244719   8.834   4.838   4.939
14945TIP3    H144720   8.840   4.741   4.934
14945TIP3    H244721   8.820   4.852   5.036
14946TIP3   OH244722   7.459   4.922   5.676
14946TIP3    H144723   7.459   4.884   5.586
14946TIP3    H244724   7.554   4.916   5.699
14947TIP3   OH244725   9.122   5.263   5.796
14947TIP3    H144726   9.195   5.197   5.787
14947TIP3    H244727   9.151   5.334   5.736
14948TIP3   OH244728   9.307   5.068   5.811
14948TIP3    H144729   9.233   5.018   5.852
14948TIP3    H244730   9.380   5.005   5.826
14949TIP3   OH244731   8.771   4.298   4.383
14949TIP3    H144732   8.844   4.265   4.438
14949TIP3    H244733   8.696   4.239   4.404
14950TIP3   OH244734   8.830   4.554   4.835
14950TIP3    H144735   8.870   4.465   4.851
14950TIP3    H244736   8.889   4.586   4.764
14951TIP3   OH244737   8.991   4.728   5.330
14951TIP3    H144738   9.077   4.754   5.290
14951TIP3    H244739   9.004   4.765   5.419
14952TIP3   OH244740   9.060   4.872   5.562
14952TIP3    H144741   8.982   4.906   5.610
14952TIP3    H244742   9.092   4.953   5.517
14953TIP3   OH244743   7.681   4.603   6.367
14953TIP3    H144744   7.778   4.591   6.365
14953TIP3    H244745   7.653   4.515   6.400
14954TIP3   OH244746   9.513   4.464   6.119
14954TIP3    H144747   9.571   4.397   6.076
14954TIP3    H244748   9.483   4.518   6.042
14955TIP3   OH244749   8.939   4.304   4.871
14955TIP3    H144750   8.986   4.289   4.956
14955TIP3    H244751   8.878   4.228   4.871
14956TIP3   OH244752   7.641   4.288   5.679
14956TIP3    H144753   7.703   4.215   5.698
14956TIP3    H244754   7.700   4.365   5.684
14957TIP3   OH244755   7.442   4.561   5.770
14957TIP3    H144756   7.489   4.564   5.685
14957TIP3    H244757   7.467   4.645   5.811
14958TIP3   OH244758   9.382   4.603   5.925
14958TIP3    H144759   9.296   4.644   5.945
14958TIP3    H244760   9.353   4.532   5.864
14959TIP3   OH244761   9.019   4.239   4.505
14959TIP3    H144762   9.057   4.166   4.451
14959TIP3    H244763   9.087   4.308   4.497
14960TIP3   OH244764   7.425   4.063   5.264
14960TIP3    H144765   7.333   4.063   5.296
14960TIP3    H244766   7.419   4.125   5.188
14961TIP3   OH244767   8.586   5.773   4.772
14961TIP3    H144768   8.636   5.758   4.690
14961TIP3    H244769   8.641   5.838   4.818
14962TIP3   OH244770   7.645   4.143   6.081
14962TIP3    H144771   7.594   4.145   6.163
14962TIP3    H244772   7.582   4.188   6.020
14963TIP3   OH244773   7.684   5.578   6.158
14963TIP3    H144774   7.593   5.547   6.140
14963TIP3    H244775   7.695   5.554   6.251
14964TIP3   OH244776   7.862   5.607   5.705
14964TIP3    H144777   7.815   5.683   5.666
14964TIP3    H244778   7.949   5.620   5.661
14965TIP3   OH244779   8.307   5.854   5.840
14965TIP3    H144780   8.348   5.852   5.929
14965TIP3    H244781   8.375   5.904   5.790
14966TIP3   OH244782   8.488   6.006   5.699
14966TIP3    H144783   8.561   5.953   5.663
14966TIP3    H244784   8.537   6.063   5.762
14967TIP3   OH244785   9.282   4.366   5.802
14967TIP3    H144786   9.191   4.360   5.768
14967TIP3    H244787   9.312   4.273   5.790
14968TIP3   OH244788   7.540   5.871   5.724
14968TIP3    H144789   7.449   5.903   5.706
14968TIP3    H244790   7.549   5.895   5.816
14969TIP3   OH244791   7.777   5.846   5.587
14969TIP3    H144792   7.690   5.857   5.631
14969TIP3    H244793   7.756   5.873   5.496
14970TIP3   OH244794   8.202   5.873   5.383
14970TIP3    H144795   8.131   5.893   5.319
14970TIP3    H244796   8.214   5.959   5.428
14971TIP3   OH244797   8.470   5.810   5.435
14971TIP3    H144798   8.376   5.828   5.415
14971TIP3    H244799   8.514   5.888   5.396
14972TIP3   OH244800   8.675   6.004   5.350
14972TIP3    H144801   8.660   6.088   5.301
14972TIP3    H244802   8.702   5.943   5.279
14973TIP3   OH244803   7.452   5.661   5.476
14973TIP3    H144804   7.479   5.632   5.566
14973TIP3    H244805   7.521   5.615   5.423
14974TIP3   OH244806   7.644   5.531   5.331
14974TIP3    H144807   7.658   5.446   5.380
14974TIP3    H244808   7.735   5.565   5.326
14975TIP3   OH244809   7.913   5.626   5.333
14975TIP3    H144810   7.941   5.534   5.320
14975TIP3    H244811   7.957   5.644   5.418
14976TIP3   OH244812   8.488   4.281   5.423
14976TIP3    H144813   8.442   4.213   5.475
14976TIP3    H244814   8.558   4.231   5.377
14977TIP3   OH244815   9.011   4.159   5.326
14977TIP3    H144816   9.046   4.213   5.252
14977TIP3    H244817   8.915   4.178   5.320
14978TIP3   OH244818   9.104   4.263   5.090
14978TIP3    H144819   9.178   4.211   5.050
14978TIP3    H244820   9.136   4.355   5.075
14979TIP3   OH244821   7.736   3.990   5.435
14979TIP3    H144822   7.643   3.957   5.438
14979TIP3    H244823   7.784   3.905   5.432
14980TIP3   OH244824   7.521   3.859   5.084
14980TIP3    H144825   7.549   3.919   5.013
14980TIP3    H244826   7.491   3.923   5.152
14981TIP3   OH244827   8.180   4.020   5.316
14981TIP3    H144828   8.238   4.072   5.259
14981TIP3    H244829   8.195   4.061   5.402
14982TIP3   OH244830   8.729   4.169   5.300
14982TIP3    H144831   8.721   4.132   5.211
14982TIP3    H244832   8.713   4.089   5.356
14983TIP3   OH244833   8.755   4.092   4.863
14983TIP3    H144834   8.669   4.135   4.876
14983TIP3    H244835   8.740   4.006   4.910
14984TIP3   OH244836   7.235   5.425   4.871
14984TIP3    H144837   7.151   5.392   4.833
14984TIP3    H244838   7.232   5.515   4.834
14985TIP3   OH244839   7.638   4.020   4.846
14985TIP3    H144840   7.687   3.956   4.791
14985TIP3    H244841   7.711   4.073   4.884
14986TIP3   OH244842   8.151   4.194   4.946
14986TIP3    H144843   8.210   4.147   5.008
14986TIP3    H244844   8.173   4.286   4.972
14987TIP3   OH244845   8.009   5.622   4.444
14987TIP3    H144846   8.098   5.643   4.408
14987TIP3    H244847   7.987   5.545   4.386
14988TIP3   OH244848   8.732   5.737   4.539
14988TIP3    H144849   8.726   5.639   4.529
14988TIP3    H244850   8.683   5.767   4.461
14989TIP3   OH244851   7.943   4.272   6.330
14989TIP3    H144852   7.907   4.201   6.385
14989TIP3    H244853   8.037   4.271   6.357
14990TIP3   OH244854   8.193   4.268   6.449
14990TIP3    H144855   8.277   4.240   6.409
14990TIP3    H244856   8.178   4.198   6.515
14991TIP3   OH244857   9.017   4.328   6.235
14991TIP3    H144858   9.036   4.298   6.326
14991TIP3    H244859   9.106   4.324   6.194
14992TIP3   OH244860   8.958   5.877   5.727
14992TIP3    H144861   8.878   5.846   5.680
14992TIP3    H244862   8.938   5.973   5.728
14993TIP3   OH244863   9.522   5.148   5.237
14993TIP3    H144864   9.551   5.077   5.298
14993TIP3    H244865   9.595   5.210   5.245
14994TIP3   OH244866   9.481   5.559   4.966
14994TIP3    H144867   9.479   5.461   4.969
14994TIP3    H244868   9.577   5.573   4.957
14995TIP3   OH244869   9.199   4.764   4.747
14995TIP3    H144870   9.149   4.845   4.765
14995TIP3    H244871   9.128   4.707   4.713
14996TIP3   OH244872   9.257   5.049   4.920
14996TIP3    H144873   9.304   4.972   4.959
14996TIP3    H244874   9.320   5.078   4.853
14997TIP3   OH244875   9.997   5.963   4.597
14997TIP3    H144876  10.078   5.981   4.546
14997TIP3    H244877  10.034   5.955   4.686
14998TIP3   OH244878   9.969   5.495   4.917
14998TIP3    H144879   9.979   5.435   4.841
14998TIP3    H244880  10.063   5.499   4.945
14999TIP3   OH244881   9.752   4.642   4.931
14999TIP3    H144882   9.753   4.709   4.859
14999TIP3    H244883   9.721   4.564   4.882
15000TIP3   OH244884   9.403   4.844   5.025
15000TIP3    H144885   9.483   4.823   5.077
15000TIP3    H244886   9.417   4.786   4.948
15001TIP3   OH244887   9.806   5.058   4.802
15001TIP3    H144888   9.899   5.037   4.822
15001TIP3    H244889   9.772   4.970   4.777
15002TIP3   OH244890   9.761   4.622   5.360
15002TIP3    H144891   9.702   4.659   5.291
15002TIP3    H244892   9.709   4.641   5.441
15003TIP3   OH244893   9.843   5.406   5.141
15003TIP3    H144894   9.788   5.476   5.184
15003TIP3    H244895   9.887   5.457   5.070
15004TIP3   OH244896   9.628   4.740   5.147
15004TIP3    H144897   9.693   4.811   5.168
15004TIP3    H244898   9.675   4.698   5.071
15005TIP3   OH244899   9.694   5.602   5.250
15005TIP3    H144900   9.669   5.691   5.216
15005TIP3    H244901   9.616   5.584   5.306
15006TIP3   OH244902   9.109   5.291   4.480
15006TIP3    H144903   9.024   5.326   4.450
15006TIP3    H244904   9.145   5.369   4.527
15007TIP3   OH244905   9.604   5.203   4.696
15007TIP3    H144906   9.569   5.140   4.630
15007TIP3    H244907   9.681   5.152   4.732
15008TIP3   OH244908   9.732   5.614   4.849
15008TIP3    H144909   9.718   5.570   4.764
15008TIP3    H244910   9.818   5.578   4.878
15009TIP3   OH244911   9.775   5.153   5.067
15009TIP3    H144912   9.793   5.144   4.972
15009TIP3    H244913   9.802   5.246   5.086
15010TIP3   OH244914   9.904   5.715   5.394
15010TIP3    H144915   9.842   5.777   5.440
15010TIP3    H244916   9.839   5.662   5.343
15011TIP3   OH244917   9.654   5.275   5.490
15011TIP3    H144918   9.659   5.361   5.536
15011TIP3    H244919   9.560   5.252   5.506
15012TIP3   OH244920   9.955   5.755   4.420
15012TIP3    H144921   9.959   5.822   4.491
15012TIP3    H244922   9.894   5.797   4.358
15013TIP3   OH244923   9.701   5.881   5.479
15013TIP3    H144924   9.662   5.883   5.389
15013TIP3    H244925   9.623   5.857   5.534
15014TIP3   OH244926   9.495   5.019   4.510
15014TIP3    H144927   9.425   5.059   4.455
15014TIP3    H244928   9.453   4.937   4.538
15015TIP3   OH244929   9.278   5.411   5.425
15015TIP3    H144930   9.212   5.388   5.357
15015TIP3    H244931   9.316   5.324   5.450
15016TIP3   OH244932   9.135   5.608   5.052
15016TIP3    H144933   9.231   5.599   5.048
15016TIP3    H244934   9.125   5.682   5.113
15017TIP3   OH244935  10.085   5.848   5.240
15017TIP3    H144936  10.094   5.937   5.279
15017TIP3    H244937  10.019   5.806   5.300
15018TIP3   OH244938   9.833   5.963   4.214
15018TIP3    H144939   9.822   5.956   4.118
15018TIP3    H244940   9.837   6.059   4.229
15019TIP3   OH244941   9.300   5.821   4.586
15019TIP3    H144942   9.355   5.813   4.667
15019TIP3    H244943   9.236   5.750   4.603
15020TIP3   OH244944   9.480   5.595   5.413
15020TIP3    H144945   9.528   5.585   5.498
15020TIP3    H244946   9.408   5.530   5.423
15021TIP3   OH244947   9.871   4.416   5.210
15021TIP3    H144948   9.783   4.389   5.179
15021TIP3    H244949   9.848   4.499   5.257
15022TIP3   OH244950   9.818   4.925   5.208
15022TIP3    H144951   9.773   4.948   5.291
15022TIP3    H244952   9.809   5.009   5.158
15023TIP3   OH244953   9.697   4.817   4.724
15023TIP3    H144954   9.608   4.786   4.752
15023TIP3    H244955   9.697   4.788   4.630
15024TIP3   OH244956   9.633   4.958   5.421
15024TIP3    H144957   9.666   5.019   5.489
15024TIP3    H244958   9.621   4.876   5.473
15025TIP3   OH244959   9.677   4.466   4.140
15025TIP3    H144960   9.630   4.424   4.213
15025TIP3    H244961   9.606   4.481   4.075
15026TIP3   OH244962   9.227   4.487   5.002
15026TIP3    H144963   9.301   4.517   5.058
15026TIP3    H244964   9.270   4.450   4.924
15027TIP3   OH244965   9.203   4.468   4.525
15027TIP3    H144966   9.244   4.508   4.446
15027TIP3    H244967   9.139   4.538   4.547
15028TIP3   OH244968   9.460   4.700   4.795
15028TIP3    H144969   9.365   4.707   4.772
15028TIP3    H244970   9.480   4.606   4.781
15029TIP3   OH244971   9.710   4.719   4.465
15029TIP3    H144972   9.779   4.733   4.398
15029TIP3    H244973   9.631   4.728   4.408
15030TIP3   OH244974   9.544   4.733   4.260
15030TIP3    H144975   9.478   4.686   4.206
15030TIP3    H244976   9.609   4.755   4.191
15031TIP3   OH244977   9.647   5.516   5.634
15031TIP3    H144978   9.725   5.548   5.684
15031TIP3    H244979   9.580   5.519   5.705
15032TIP3   OH244980   9.634   4.456   4.760
15032TIP3    H144981   9.594   4.386   4.816
15032TIP3    H244982   9.677   4.404   4.692
15033TIP3   OH244983   9.778   5.278   4.268
15033TIP3    H144984   9.728   5.195   4.275
15033TIP3    H244985   9.806   5.296   4.360
15034TIP3   OH244986  10.174   5.579   5.288
15034TIP3    H144987  10.209   5.559   5.376
15034TIP3    H244988  10.149   5.673   5.295
15035TIP3   OH244989   9.514   5.283   4.953
15035TIP3    H144990   9.545   5.254   4.865
15035TIP3    H244991   9.551   5.217   5.013
15036TIP3   OH244992   9.396   5.200   5.563
15036TIP3    H144993   9.418   5.187   5.657
15036TIP3    H244994   9.328   5.133   5.548
15037TIP3   OH244995  10.087   5.272   5.605
15037TIP3    H144996  10.001   5.236   5.574
15037TIP3    H244997  10.145   5.199   5.578
15038TIP3   OH244998   9.617   5.581   4.570
15038TIP3    H144999   9.621   5.662   4.515
15038TIP3    H245000   9.522   5.572   4.582
15039TIP3   OH245001   9.174   4.889   4.271
15039TIP3    H145002   9.222   4.970   4.297
15039TIP3    H245003   9.099   4.891   4.335
15040TIP3   OH245004   9.785   5.361   4.545
15040TIP3    H145005   9.734   5.445   4.539
15040TIP3    H245006   9.724   5.307   4.599
15041TIP3   OH245007   9.885   5.924   5.042
15041TIP3    H145008   9.925   5.999   4.993
15041TIP3    H245009   9.961   5.893   5.095
15042TIP3   OH245010   9.535   5.823   4.425
15042TIP3    H145011   9.450   5.833   4.472
15042TIP3    H245012   9.569   5.915   4.427
15043TIP3   OH245013   9.606   4.706   5.575
15043TIP3    H145014   9.510   4.709   5.587
15043TIP3    H245015   9.633   4.642   5.644
15044TIP3   OH245016   9.323   5.791   5.203
15044TIP3    H145017   9.377   5.719   5.239
15044TIP3    H245018   9.344   5.862   5.265
15045TIP3   OH245019   9.610   5.432   3.884
15045TIP3    H145020   9.638   5.342   3.861
15045TIP3    H245021   9.602   5.425   3.981
15046TIP3   OH245022   9.565   5.429   4.155
15046TIP3    H145023   9.650   5.401   4.194
15046TIP3    H245024   9.564   5.526   4.173
15047TIP3   OH245025   9.299   5.135   4.352
15047TIP3    H145026   9.233   5.186   4.405
15047TIP3    H245027   9.358   5.204   4.320
15048TIP3   OH245028   9.813   5.661   4.110
15048TIP3    H145029   9.725   5.678   4.147
15048TIP3    H245030   9.830   5.743   4.063
15049TIP3   OH245031   9.548   5.711   4.171
15049TIP3    H145032   9.527   5.786   4.111
15049TIP3    H245033   9.543   5.755   4.259
15050TIP3   OH245034   9.666   4.426   4.421
15050TIP3    H145035   9.632   4.510   4.457
15050TIP3    H245036   9.751   4.456   4.384
15051TIP3   OH245037   9.232   4.620   4.301
15051TIP3    H145038   9.227   4.718   4.291
15051TIP3    H245039   9.152   4.592   4.255
15052TIP3   OH245040   9.606   4.338   5.173
15052TIP3    H145041   9.582   4.303   5.085
15052TIP3    H245042   9.604   4.259   5.229
15053TIP3   OH245043   9.153   5.551   4.556
15053TIP3    H145044   9.087   5.588   4.615
15053TIP3    H245045   9.131   5.595   4.471
15054TIP3   OH245046   9.332   6.091   5.585
15054TIP3    H145047   9.399   6.107   5.654
15054TIP3    H245048   9.291   6.010   5.617
15055TIP3   OH245049   9.799   6.068   5.663
15055TIP3    H145050   9.891   6.042   5.678
15055TIP3    H245051   9.772   6.005   5.594
15056TIP3   OH245052   9.764   5.648   3.798
15056TIP3    H145053   9.714   5.572   3.836
15056TIP3    H245054   9.856   5.617   3.812
15057TIP3   OH245055   9.445   5.505   5.825
15057TIP3    H145056   9.461   5.409   5.830
15057TIP3    H245057   9.358   5.508   5.781
15058TIP3   OH245058   9.402   5.165   4.021
15058TIP3    H145059   9.459   5.136   4.095
15058TIP3    H245060   9.470   5.162   3.949
15059TIP3   OH245061  10.041   5.582   5.598
15059TIP3    H145062  10.006   5.609   5.511
15059TIP3    H245063  10.050   5.486   5.590
15060TIP3   OH245064   9.567   5.236   5.806
15060TIP3    H145065   9.645   5.182   5.787
15060TIP3    H245066   9.590   5.272   5.894
15061TIP3   OH245067   9.618   5.050   4.245
15061TIP3    H145068   9.594   5.011   4.331
15061TIP3    H245069   9.655   4.973   4.196
15062TIP3   OH245070   9.873   5.119   5.484
15062TIP3    H145071   9.794   5.178   5.486
15062TIP3    H245072   9.920   5.157   5.406
15063TIP3   OH245073   9.727   4.848   4.088
15063TIP3    H145074   9.689   4.840   3.998
15063TIP3    H245075   9.819   4.871   4.067
15064TIP3   OH245076   9.989   4.913   5.617
15064TIP3    H145077  10.012   4.831   5.568
15064TIP3    H245078   9.935   4.962   5.552
15065TIP3   OH245079  10.008   4.724   5.416
15065TIP3    H145080  10.056   4.702   5.335
15065TIP3    H245081   9.923   4.677   5.402
15066TIP3   OH245082   9.998   5.244   5.290
15066TIP3    H145083  10.064   5.220   5.224
15066TIP3    H245084   9.948   5.314   5.243
15067TIP3   OH245085   9.870   5.043   5.823
15067TIP3    H145086   9.813   4.966   5.843
15067TIP3    H245087   9.915   5.010   5.742
15068TIP3   OH245088   9.738   4.807   5.879
15068TIP3    H145089   9.750   4.721   5.836
15068TIP3    H245090   9.773   4.789   5.969
15069TIP3   OH245091   9.534   5.911   3.977
15069TIP3    H145092   9.631   5.911   3.970
15069TIP3    H245093   9.512   5.968   3.901
15070TIP3   OH245094   8.935   5.908   4.615
15070TIP3    H145095   8.866   5.847   4.579
15070TIP3    H245096   8.978   5.850   4.682
15071TIP3   OH245097   9.073   5.757   4.800
15071TIP3    H145098   9.060   5.687   4.865
15071TIP3    H245099   9.121   5.821   4.854
15072TIP3   OH245100   9.256   5.170   5.173
15072TIP3    H145101   9.255   5.138   5.080
15072TIP3    H245102   9.353   5.170   5.190
15073TIP3   OH245103   9.471   4.854   5.846
15073TIP3    H145104   9.569   4.849   5.849
15073TIP3    H245105   9.448   4.769   5.889
15074TIP3   OH245106   9.430   4.548   5.178
15074TIP3    H145107   9.491   4.472   5.188
15074TIP3    H245108   9.493   4.622   5.175
15075TIP3   OH245109   9.237   4.821   5.251
15075TIP3    H145110   9.287   4.816   5.168
15075TIP3    H245111   9.267   4.905   5.287
15076TIP3   OH245112   9.221   4.324   4.754
15076TIP3    H145113   9.128   4.320   4.781
15076TIP3    H245114   9.217   4.383   4.675
15077TIP3   OH245115   9.436   4.403   5.565
15077TIP3    H145116   9.388   4.401   5.649
15077TIP3    H245117   9.369   4.443   5.506
15078TIP3   OH245118   9.487   5.815   5.643
15078TIP3    H145119   9.392   5.804   5.626
15078TIP3    H245120   9.490   5.815   5.740
15079TIP3   OH245121   9.657   5.866   5.190
15079TIP3    H145122   9.610   5.943   5.152
15079TIP3    H245123   9.743   5.879   5.145
15080TIP3   OH245124  10.120   6.114   5.323
15080TIP3    H145125  10.139   6.107   5.419
15080TIP3    H245126  10.198   6.161   5.292
15081TIP3   OH245127   9.336   6.123   5.216
15081TIP3    H145128   9.246   6.159   5.199
15081TIP3    H245129   9.350   6.150   5.307
15082TIP3   OH245130   9.572   6.102   5.074
15082TIP3    H145131   9.486   6.114   5.121
15082TIP3    H245132   9.551   6.133   4.984
15083TIP3   OH245133   9.980   6.130   4.869
15083TIP3    H145134   9.913   6.149   4.800
15083TIP3    H245135   9.993   6.218   4.909
15084TIP3   OH245136  10.248   6.092   4.907
15084TIP3    H145137  10.151   6.086   4.892
15084TIP3    H245138  10.267   6.182   4.879
15085TIP3   OH245139   9.247   5.915   4.960
15085TIP3    H145140   9.274   5.889   5.051
15085TIP3    H245141   9.319   5.871   4.909
15086TIP3   OH245142   9.440   5.786   4.815
15086TIP3    H145143   9.454   5.703   4.866
15086TIP3    H245144   9.531   5.823   4.813
15087TIP3   OH245145   9.703   5.888   4.820
15087TIP3    H145146   9.727   5.794   4.808
15087TIP3    H245147   9.749   5.907   4.903
15088TIP3   OH245148   9.524   4.255   4.915
15088TIP3    H145149   9.430   4.225   4.919
15088TIP3    H245150   9.568   4.167   4.921
15089TIP3   OH245151   9.320   4.116   4.569
15089TIP3    H145152   9.343   4.178   4.498
15089TIP3    H245153   9.289   4.176   4.640
15090TIP3   OH245154   9.034   5.680   4.348
15090TIP3    H145155   8.943   5.660   4.316
15090TIP3    H245156   9.034   5.776   4.337
15091TIP3   OH245157   9.428   4.281   4.338
15091TIP3    H145158   9.465   4.212   4.280
15091TIP3    H245159   9.507   4.319   4.380
15092TIP3   OH245160   9.810   5.884   3.936
15092TIP3    H145161   9.906   5.895   3.924
15092TIP3    H245162   9.789   5.810   3.874
15093TIP3   OH245163   9.705   4.520   5.791
15093TIP3    H145164   9.668   4.457   5.855
15093TIP3    H245165   9.798   4.523   5.823
15094TIP3   OH245166   9.939   4.529   5.928
15094TIP3    H145167  10.036   4.536   5.918
15094TIP3    H245168   9.936   4.458   5.995
15095TIP3   OH245169   9.105   5.687   3.998
15095TIP3    H145170   9.104   5.739   4.080
15095TIP3    H245171   9.200   5.667   3.986
15096TIP3   OH245172   0.878   5.783   6.698
15096TIP3    H145173   0.851   5.875   6.679
15096TIP3    H245174   0.801   5.735   6.663
15097TIP3   OH245175   0.887   5.780   7.072
15097TIP3    H145176   0.913   5.757   7.163
15097TIP3    H245177   0.841   5.700   7.043
15098TIP3   OH245178   1.119   6.089   6.759
15098TIP3    H145179   1.107   6.019   6.824
15098TIP3    H245180   1.151   6.163   6.815
15099TIP3   OH245181   0.762   6.547   6.771
15099TIP3    H145182   0.814   6.474   6.733
15099TIP3    H245183   0.750   6.519   6.863
15100TIP3   OH245184   0.664   5.954   7.102
15100TIP3    H145185   0.746   5.909   7.074
15100TIP3    H245186   0.701   6.035   7.141
15101TIP3   OH245187   1.688   5.332   7.123
15101TIP3    H145188   1.717   5.414   7.168
15101TIP3    H245189   1.711   5.352   7.031
15102TIP3   OH245190   1.084   5.512   7.160
15102TIP3    H145191   1.130   5.429   7.180
15102TIP3    H245192   1.057   5.497   7.067
15103TIP3   OH245193   0.461   5.166   7.129
15103TIP3    H145194   0.423   5.245   7.086
15103TIP3    H245195   0.422   5.096   7.072
15104TIP3   OH245196   1.121   5.264   6.746
15104TIP3    H145197   1.193   5.248   6.811
15104TIP3    H245198   1.172   5.298   6.671
15105TIP3   OH245199   0.501   5.580   7.039
15105TIP3    H145200   0.595   5.551   7.041
15105TIP3    H245201   0.458   5.505   6.995
15106TIP3   OH245202   1.762   5.538   7.293
15106TIP3    H145203   1.678   5.586   7.277
15106TIP3    H245204   1.781   5.567   7.384
15107TIP3   OH245205   0.767   6.003   6.569
15107TIP3    H145206   0.734   5.983   6.481
15107TIP3    H245207   0.726   6.089   6.587
15108TIP3   OH245208   1.331   5.265   6.918
15108TIP3    H145209   1.322   5.218   7.002
15108TIP3    H245210   1.384   5.343   6.943
15109TIP3   OH245211   1.191   6.330   6.925
15109TIP3    H145212   1.102   6.321   6.966
15109TIP3    H245213   1.183   6.417   6.882
15110TIP3   OH245214   1.482   5.229   7.287
15110TIP3    H145215   1.395   5.263   7.257
15110TIP3    H245216   1.543   5.263   7.218
15111TIP3   OH245217   0.775   4.868   7.266
15111TIP3    H145218   0.774   4.773   7.285
15111TIP3    H245219   0.709   4.900   7.329
15112TIP3   OH245220   0.895   6.378   6.600
15112TIP3    H145221   0.944   6.294   6.579
15112TIP3    H245222   0.957   6.443   6.562
15113TIP3   OH245223   1.031   6.163   6.509
15113TIP3    H145224   1.013   6.083   6.458
15113TIP3    H245225   1.069   6.127   6.592
15114TIP3   OH245226   1.416   6.243   7.270
15114TIP3    H145227   1.406   6.166   7.211
15114TIP3    H245228   1.400   6.318   7.208
15115TIP3   OH245229   0.710   5.635   6.527
15115TIP3    H145230   0.631   5.685   6.500
15115TIP3    H245231   0.759   5.630   6.443
15116TIP3   OH245232   0.667   5.424   6.237
15116TIP3    H145233   0.736   5.470   6.288
15116TIP3    H245234   0.723   5.359   6.189
15117TIP3   OH245235   1.612   5.879   7.114
15117TIP3    H145236   1.529   5.931   7.120
15117TIP3    H245237   1.642   5.904   7.024
15118TIP3   OH245238   1.056   5.719   6.499
15118TIP3    H145239   1.002   5.742   6.578
15118TIP3    H245240   1.141   5.693   6.542
15119TIP3   OH245241   1.291   5.758   7.413
15119TIP3    H145242   1.292   5.839   7.467
15119TIP3    H245243   1.207   5.769   7.364
15120TIP3   OH245244   0.433   5.672   7.285
15120TIP3    H145245   0.464   5.642   7.196
15120TIP3    H245246   0.480   5.756   7.295
15121TIP3   OH245247   0.951   6.326   7.047
15121TIP3    H145248   0.936   6.403   7.105
15121TIP3    H245249   0.934   6.250   7.107
15122TIP3   OH245250   0.895   5.580   6.324
15122TIP3    H145251   0.957   5.638   6.375
15122TIP3    H245252   0.922   5.602   6.231
15123TIP3   OH245253   0.644   6.257   6.600
15123TIP3    H145254   0.729   6.299   6.622
15123TIP3    H245255   0.585   6.331   6.594
15124TIP3   OH245256   1.412   4.817   6.373
15124TIP3    H145257   1.331   4.838   6.424
15124TIP3    H245258   1.426   4.901   6.324
15125TIP3   OH245259   1.654   6.587   7.314
15125TIP3    H145260   1.654   6.491   7.331
15125TIP3    H245261   1.572   6.613   7.361
15126TIP3   OH245262   0.781   6.353   7.462
15126TIP3    H145263   0.786   6.446   7.492
15126TIP3    H245264   0.687   6.343   7.442
15127TIP3   OH245265   0.551   6.543   6.399
15127TIP3    H145266   0.517   6.479   6.334
15127TIP3    H245267   0.473   6.560   6.454
15128TIP3   OH245268   0.746   6.420   6.049
15128TIP3    H145269   0.792   6.347   6.000
15128TIP3    H245270   0.777   6.400   6.139
15129TIP3   OH245271   0.793   6.449   6.318
15129TIP3    H145272   0.719   6.437   6.381
15129TIP3    H245273   0.867   6.414   6.370
15130TIP3   OH245274   1.547   5.718   7.590
15130TIP3    H145275   1.464   5.730   7.541
15130TIP3    H245276   1.562   5.622   7.581
15131TIP3   OH245277   0.524   4.957   7.405
15131TIP3    H145278   0.466   4.917   7.339
15131TIP3    H245279   0.534   5.047   7.371
15132TIP3   OH245280   1.077   5.064   7.594
15132TIP3    H145281   1.148   5.038   7.657
15132TIP3    H245282   0.995   5.044   7.644
15133TIP3   OH245283   1.309   5.492   7.509
15133TIP3    H145284   1.263   5.490   7.597
15133TIP3    H245285   1.290   5.582   7.478
15134TIP3   OH245286   0.967   5.630   6.066
15134TIP3    H145287   0.938   5.598   5.979
15134TIP3    H245288   1.050   5.675   6.042
15135TIP3   OH245289   0.686   4.999   6.370
15135TIP3    H145290   0.654   4.994   6.462
15135TIP3    H245291   0.646   4.918   6.335
15136TIP3   OH245292   0.452   5.445   7.430
15136TIP3    H145293   0.420   5.489   7.509
15136TIP3    H245294   0.447   5.520   7.366
15137TIP3   OH245295   0.347   5.339   6.938
15137TIP3    H145296   0.255   5.360   6.919
15137TIP3    H245297   0.373   5.298   6.852
15138TIP3   OH245298   0.846   5.436   6.660
15138TIP3    H145299   0.795   5.508   6.617
15138TIP3    H245300   0.903   5.405   6.586
15139TIP3   OH245301   1.024   5.714   7.744
15139TIP3    H145302   1.002   5.642   7.808
15139TIP3    H245303   1.117   5.731   7.767
15140TIP3   OH245304   1.001   5.465   6.900
15140TIP3    H145305   0.944   5.496   6.828
15140TIP3    H245306   1.036   5.384   6.857
15141TIP3   OH245307   0.345   4.974   6.339
15141TIP3    H145308   0.333   4.972   6.436
15141TIP3    H245309   0.256   4.987   6.306
15142TIP3   OH245310   1.002   5.711   7.322
15142TIP3    H145311   1.041   5.641   7.264
15142TIP3    H245312   0.984   5.658   7.402
15143TIP3   OH245313   0.699   5.178   6.988
15143TIP3    H145314   0.620   5.179   7.045
15143TIP3    H245315   0.771   5.171   7.054
15144TIP3   OH245316   0.392   5.233   6.687
15144TIP3    H145317   0.489   5.245   6.673
15144TIP3    H245318   0.353   5.266   6.604
15145TIP3   OH245319   1.175   5.251   7.196
15145TIP3    H145320   1.141   5.263   7.288
15145TIP3    H245321   1.110   5.189   7.160
15146TIP3   OH245322   0.213   5.287   6.465
15146TIP3    H145323   0.177   5.198   6.446
15146TIP3    H245324   0.272   5.303   6.388
15147TIP3   OH245325   1.345   6.940   7.415
15147TIP3    H145326   1.345   6.963   7.320
15147TIP3    H245327   1.424   6.986   7.447
15148TIP3   OH245328   0.768   5.500   7.087
15148TIP3    H145329   0.841   5.467   7.033
15148TIP3    H245330   0.786   5.459   7.173
15149TIP3   OH245331   0.326   4.990   6.972
15149TIP3    H145332   0.258   4.919   6.985
15149TIP3    H245333   0.367   4.961   6.890
15150TIP3   OH245334   0.743   5.393   7.392
15150TIP3    H145335   0.657   5.438   7.396
15150TIP3    H245336   0.804   5.457   7.435
15151TIP3   OH245337   0.485   5.785   6.461
15151TIP3    H145338   0.411   5.720   6.459
15151TIP3    H245339   0.474   5.822   6.553
15152TIP3   OH245340   1.380   6.026   7.105
15152TIP3    H145341   1.404   6.076   7.024
15152TIP3    H245342   1.295   5.984   7.080
15153TIP3   OH245343   0.940   5.098   6.346
15153TIP3    H145344   0.842   5.084   6.346
15153TIP3    H245345   0.947   5.195   6.357
15154TIP3   OH245346   0.873   6.095   7.479
15154TIP3    H145347   0.910   6.091   7.568
15154TIP3    H245348   0.839   6.187   7.476
15155TIP3   OH245349   1.007   5.352   6.444
15155TIP3    H145350   1.103   5.356   6.457
15155TIP3    H245351   0.989   5.428   6.386
15156TIP3   OH245352   0.627   5.938   6.290
15156TIP3    H145353   0.589   6.026   6.308
15156TIP3    H245354   0.574   5.881   6.350
15157TIP3   OH245355   0.790   5.851   7.793
15157TIP3    H145356   0.735   5.780   7.755
15157TIP3    H245357   0.879   5.823   7.762
15158TIP3   OH245358   1.044   6.368   7.368
15158TIP3    H145359   0.949   6.360   7.387
15158TIP3    H245360   1.072   6.420   7.447
15159TIP3   OH245361   1.450   5.440   6.277
15159TIP3    H145362   1.387   5.396   6.216
15159TIP3    H245363   1.446   5.530   6.237
15160TIP3   OH245364   1.667   6.296   7.359
15160TIP3    H145365   1.569   6.292   7.351
15160TIP3    H245366   1.692   6.267   7.269
15161TIP3   OH245367   1.145   6.256   6.166
15161TIP3    H145368   1.139   6.179   6.223
15161TIP3    H245369   1.197   6.221   6.089
15162TIP3   OH245370   1.147   5.888   7.024
15162TIP3    H145371   1.053   5.863   7.035
15162TIP3    H245372   1.181   5.808   6.978
15163TIP3   OH245373   0.455   5.883   6.709
15163TIP3    H145374   0.443   5.975   6.733
15163TIP3    H245375   0.414   5.838   6.784
15164TIP3   OH245376   0.933   6.094   7.206
15164TIP3    H145377   0.918   6.088   7.303
15164TIP3    H245378   1.014   6.042   7.196
15165TIP3   OH245379   0.906   5.996   6.090
15165TIP3    H145380   0.959   5.969   6.168
15165TIP3    H245381   0.821   5.955   6.111
15166TIP3   OH245382   1.179   6.626   7.257
15166TIP3    H145383   1.101   6.568   7.252
15166TIP3    H245384   1.161   6.690   7.184
15167TIP3   OH245385   1.237   6.493   5.938
15167TIP3    H145386   1.285   6.526   5.861
15167TIP3    H245387   1.150   6.529   5.924
15168TIP3   OH245388   1.064   5.924   6.310
15168TIP3    H145389   1.056   5.853   6.377
15168TIP3    H245390   1.160   5.919   6.291
15169TIP3   OH245391   0.328   5.938   6.119
15169TIP3    H145392   0.340   5.854   6.069
15169TIP3    H245393   0.291   5.903   6.201
15170TIP3   OH245394   1.097   5.303   7.455
15170TIP3    H145395   1.178   5.344   7.491
15170TIP3    H245396   1.089   5.222   7.510
15171TIP3   OH245397   0.979   5.054   6.621
15171TIP3    H145398   0.966   5.075   6.527
15171TIP3    H245399   1.019   5.137   6.655
15172TIP3   OH245400   0.494   6.177   6.312
15172TIP3    H145401   0.400   6.162   6.326
15172TIP3    H245402   0.499   6.187   6.215
15173TIP3   OH245403   0.667   5.236   6.721
15173TIP3    H145404   0.733   5.305   6.701
15173TIP3    H245405   0.680   5.225   6.818
15174TIP3   OH245406   0.935   5.551   7.532
15174TIP3    H145407   0.961   5.605   7.610
15174TIP3    H245408   0.993   5.474   7.542
15175TIP3   OH245409   0.816   4.959   6.825
15175TIP3    H145410   0.811   5.036   6.884
15175TIP3    H245411   0.877   4.994   6.755
15176TIP3   OH245412   0.334   4.974   6.626
15176TIP3    H145413   0.356   5.062   6.662
15176TIP3    H245414   0.424   4.936   6.624
15177TIP3   OH245415   1.578   5.452   7.510
15177TIP3    H145416   1.480   5.448   7.516
15177TIP3    H245417   1.592   5.410   7.424
15178TIP3   OH245418   1.230   5.646   6.899
15178TIP3    H145419   1.155   5.586   6.911
15178TIP3    H245420   1.303   5.599   6.946
15179TIP3   OH245421   1.199   6.601   6.847
15179TIP3    H145422   1.159   6.649   6.771
15179TIP3    H245423   1.294   6.620   6.828
15180TIP3   OH245424   0.479   6.157   6.034
15180TIP3    H145425   0.427   6.076   6.052
15180TIP3    H245426   0.531   6.128   5.956
15181TIP3   OH245427   1.100   6.499   7.603
15181TIP3    H145428   1.092   6.427   7.671
15181TIP3    H245429   1.176   6.550   7.637
15182TIP3   OH245430   0.869   6.220   5.912
15182TIP3    H145431   0.912   6.155   5.972
15182TIP3    H245432   0.925   6.212   5.831
15183TIP3   OH245433   0.727   6.127   7.792
15183TIP3    H145434   0.664   6.111   7.722
15183TIP3    H245435   0.760   6.036   7.808
15184TIP3   OH245436   0.610   5.865   6.022
15184TIP3    H145437   0.607   5.886   6.118
15184TIP3    H245438   0.569   5.778   6.018
15185TIP3   OH245439   1.200   6.131   7.405
15185TIP3    H145440   1.277   6.174   7.363
15185TIP3    H245441   1.132   6.200   7.391
15186TIP3   OH245442   0.296   5.586   6.446
15186TIP3    H145443   0.263   5.529   6.515
15186TIP3    H245444   0.329   5.520   6.381
15187TIP3   OH245445   0.631   5.660   7.662
15187TIP3    H145446   0.545   5.706   7.663
15187TIP3    H245447   0.665   5.690   7.575
15188TIP3   OH245448   0.387   5.382   6.281
15188TIP3    H145449   0.360   5.374   6.186
15188TIP3    H245450   0.484   5.386   6.267
15189TIP3   OH245451   1.071   6.049   7.805
15189TIP3    H145452   1.157   6.035   7.763
15189TIP3    H245453   1.075   5.987   7.880
15190TIP3   OH245454   1.206   5.717   5.947
15190TIP3    H145455   1.183   5.673   5.863
15190TIP3    H245456   1.184   5.809   5.924
15191TIP3   OH245457   0.686   5.426   7.810
15191TIP3    H145458   0.682   5.353   7.746
15191TIP3    H245459   0.661   5.504   7.756
15192TIP3   OH245460   0.671   5.221   7.598
15192TIP3    H145461   0.714   5.269   7.524
15192TIP3    H245462   0.578   5.233   7.576
15193TIP3   OH245463   0.708   5.784   7.430
15193TIP3    H145464   0.800   5.765   7.403
15193TIP3    H245465   0.704   5.879   7.417
15194TIP3   OH245466   1.289   5.732   7.857
15194TIP3    H145467   1.340   5.651   7.874
15194TIP3    H245468   1.359   5.794   7.831
15195TIP3   OH245469   1.332   5.982   7.589
15195TIP3    H145470   1.274   6.038   7.532
15195TIP3    H245471   1.420   6.004   7.550
15196TIP3   OH245472   0.814   4.992   7.670
15196TIP3    H145473   0.762   5.072   7.648
15196TIP3    H245474   0.747   4.922   7.665
15197TIP3   OH245475   0.942   5.499   7.890
15197TIP3    H145476   0.936   5.490   7.987
15197TIP3    H245477   0.851   5.470   7.866
15198TIP3   OH245478   1.177   5.444   7.740
15198TIP3    H145479   1.104   5.448   7.805
15198TIP3    H245480   1.253   5.417   7.796
15199TIP3   OH245481   1.401   5.386   7.892
15199TIP3    H145482   1.418   5.291   7.911
15199TIP3    H245483   1.400   5.426   7.982
15200TIP3   OH245484   0.907   5.003   7.929
15200TIP3    H145485   0.976   4.935   7.927
15200TIP3    H245486   0.871   4.995   7.839
15201TIP3   OH245487   0.974   5.217   8.089
15201TIP3    H145488   0.952   5.146   8.024
15201TIP3    H245489   0.899   5.279   8.079
15202TIP3   OH245490   1.450   6.696   6.805
15202TIP3    H145491   1.479   6.725   6.893
15202TIP3    H245492   1.517   6.736   6.747
15203TIP3   OH245493   1.483   6.711   7.086
15203TIP3    H145494   1.438   6.624   7.083
15203TIP3    H245495   1.556   6.689   7.146
15204TIP3   OH245496   1.523   6.394   7.654
15204TIP3    H145497   1.455   6.400   7.724
15204TIP3    H245498   1.568   6.480   7.664
15205TIP3   OH245499   1.340   5.903   6.280
15205TIP3    H145500   1.404   5.965   6.241
15205TIP3    H245501   1.391   5.867   6.356
15206TIP3   OH245502   1.473   5.770   6.483
15206TIP3    H145503   1.406   5.729   6.541
15206TIP3    H245504   1.537   5.808   6.546
15207TIP3   OH245505   1.525   6.161   6.914
15207TIP3    H145506   1.579   6.096   6.866
15207TIP3    H245507   1.519   6.235   6.851
15208TIP3   OH245508   1.357   6.463   7.109
15208TIP3    H145509   1.286   6.503   7.163
15208TIP3    H245510   1.306   6.414   7.041
15209TIP3   OH245511   1.408   5.677   6.130
15209TIP3    H145512   1.337   5.681   6.062
15209TIP3    H245513   1.382   5.755   6.183
15210TIP3   OH245514   1.281   5.349   6.086
15210TIP3    H145515   1.241   5.391   6.009
15210TIP3    H245516   1.253   5.256   6.073
15211TIP3   OH245517   1.285   5.627   6.630
15211TIP3    H145518   1.294   5.531   6.624
15211TIP3    H245519   1.272   5.641   6.726
15212TIP3   OH245520   1.574   6.050   7.481
15212TIP3    H145521   1.648   5.985   7.475
15212TIP3    H245522   1.605   6.121   7.423
15213TIP3   OH245523   1.760   5.856   7.499
15213TIP3    H145524   1.687   5.806   7.540
15213TIP3    H245525   1.834   5.793   7.515
15214TIP3   OH245526   1.226   5.082   6.066
15214TIP3    H145527   1.298   5.054   6.126
15214TIP3    H245528   1.150   5.028   6.093
15215TIP3   OH245529   1.282   5.342   6.525
15215TIP3    H145530   1.323   5.253   6.539
15215TIP3    H245531   1.340   5.376   6.454
15216TIP3   OH245532   1.443   5.517   7.019
15216TIP3    H145533   1.529   5.542   6.978
15216TIP3    H245534   1.457   5.554   7.109
15217TIP3   OH245535   1.511   5.660   7.251
15217TIP3    H145536   1.435   5.695   7.300
15217TIP3    H245537   1.545   5.741   7.206
15218TIP3   OH245538   1.969   5.250   7.807
15218TIP3    H145539   2.023   5.181   7.762
15218TIP3    H245540   1.939   5.304   7.732
15219TIP3   OH245541   1.391   5.092   6.562
15219TIP3    H145542   1.440   5.076   6.646
15219TIP3    H245543   1.330   5.016   6.561
15220TIP3   OH245544   1.837   5.390   7.615
15220TIP3    H145545   1.753   5.431   7.645
15220TIP3    H245546   1.802   5.320   7.556
15221TIP3   OH245547   1.472   5.027   6.197
15221TIP3    H145548   1.512   4.957   6.142
15221TIP3    H245549   1.538   5.099   6.190
15222TIP3   OH245550   1.024   6.572   6.454
15222TIP3    H145551   1.085   6.551   6.380
15222TIP3    H245552   1.083   6.626   6.511
15223TIP3   OH245553   0.797   6.612   7.540
15223TIP3    H145554   0.804   6.649   7.630
15223TIP3    H245555   0.838   6.682   7.487
15224TIP3   OH245556   0.938   6.800   7.389
15224TIP3    H145557   1.004   6.740   7.352
15224TIP3    H245558   0.993   6.851   7.453
15225TIP3   OH245559   1.735   5.152   7.491
15225TIP3    H145560   1.644   5.141   7.459
15225TIP3    H245561   1.770   5.060   7.482
15226TIP3   OH245562   0.659   6.689   7.036
15226TIP3    H145563   0.562   6.698   7.039
15226TIP3    H245564   0.685   6.765   7.092
15227TIP3   OH245565   0.921   6.605   7.124
15227TIP3    H145566   0.832   6.622   7.089
15227TIP3    H245567   0.972   6.678   7.085
15228TIP3   OH245568   1.128   6.789   7.041
15228TIP3    H145569   1.118   6.875   6.994
15228TIP3    H245570   1.157   6.730   6.968
15229TIP3   OH245571   0.937   5.068   7.108
15229TIP3    H145572   0.897   4.994   7.158
15229TIP3    H245573   1.013   5.024   7.064
15230TIP3   OH245574   1.461   4.948   7.014
15230TIP3    H145575   1.498   5.000   6.939
15230TIP3    H245576   1.366   4.969   7.009
15231TIP3   OH245577   1.557   5.049   6.779
15231TIP3    H145578   1.631   4.998   6.739
15231TIP3    H245579   1.590   5.140   6.764
15232TIP3   OH245580   0.638   4.816   7.008
15232TIP3    H145581   0.693   4.864   6.944
15232TIP3    H245582   0.677   4.844   7.093
15233TIP3   OH245583   1.174   4.956   6.992
15233TIP3    H145584   1.179   4.918   6.904
15233TIP3    H245585   1.163   4.876   7.048
15234TIP3   OH245586   1.208   4.878   6.554
15234TIP3    H145587   1.121   4.920   6.563
15234TIP3    H245588   1.193   4.794   6.601
15235TIP3   OH245589   0.127   4.727   6.579
15235TIP3    H145590   0.124   4.711   6.484
15235TIP3    H245591   0.149   4.820   6.584
15236TIP3   OH245592   0.610   4.982   6.637
15236TIP3    H145593   0.671   4.936   6.697
15236TIP3    H245594   0.633   5.075   6.660
15237TIP3   OH245595   0.478   6.433   6.156
15237TIP3    H145596   0.558   6.402   6.110
15237TIP3    H245597   0.409   6.400   6.094
15238TIP3   OH245598   1.176   6.519   6.233
15238TIP3    H145599   1.173   6.422   6.213
15238TIP3    H245600   1.156   6.553   6.145
15239TIP3   OH245601   0.640   5.029   8.123
15239TIP3    H145602   0.725   5.023   8.076
15239TIP3    H245603   0.657   4.972   8.199
15240TIP3   OH245604   1.469   5.117   7.924
15240TIP3    H145605   1.489   5.086   8.015
15240TIP3    H245606   1.558   5.113   7.882
15241TIP3   OH245607   1.409   6.671   7.415
15241TIP3    H145608   1.330   6.638   7.369
15241TIP3    H245609   1.388   6.766   7.421
15242TIP3   OH245610   2.675   6.042   6.182
15242TIP3    H145611   2.646   6.133   6.162
15242TIP3    H245612   2.597   5.992   6.151
15243TIP3   OH245613   2.675   6.042   6.564
15243TIP3    H145614   2.706   6.013   6.652
15243TIP3    H245615   2.632   5.961   6.531
15244TIP3   OH245616   1.973   5.936   6.928
15244TIP3    H145617   2.003   5.868   6.992
15244TIP3    H245618   2.050   5.994   6.926
15245TIP3   OH245619   2.917   6.343   6.246
15245TIP3    H145620   2.902   6.274   6.311
15245TIP3    H245621   2.946   6.418   6.301
15246TIP3   OH245622   1.944   6.347   6.655
15246TIP3    H145623   1.935   6.249   6.656
15246TIP3    H245624   2.040   6.355   6.649
15247TIP3   OH245625   1.651   5.548   6.439
15247TIP3    H145626   1.604   5.632   6.454
15247TIP3    H245627   1.580   5.496   6.398
15248TIP3   OH245628   1.710   5.838   6.612
15248TIP3    H145629   1.759   5.760   6.647
15248TIP3    H245630   1.768   5.867   6.540
15249TIP3   OH245631   2.568   6.808   6.263
15249TIP3    H145632   2.612   6.737   6.212
15249TIP3    H245633   2.558   6.766   6.349
15250TIP3   OH245634   2.472   6.268   6.612
15250TIP3    H145635   2.509   6.191   6.566
15250TIP3    H245636   2.556   6.313   6.636
15251TIP3   OH245637   3.485   5.588   6.610
15251TIP3    H145638   3.515   5.671   6.653
15251TIP3    H245639   3.507   5.606   6.517
15252TIP3   OH245640   2.885   5.770   6.645
15252TIP3    H145641   2.927   5.684   6.665
15252TIP3    H245642   2.854   5.753   6.554
15253TIP3   OH245643   2.223   5.428   6.609
15253TIP3    H145644   2.202   5.501   6.547
15253TIP3    H245645   2.173   5.355   6.566
15254TIP3   OH245646   2.916   5.518   6.231
15254TIP3    H145647   2.988   5.503   6.297
15254TIP3    H245648   2.969   5.554   6.158
15255TIP3   OH245649   1.856   5.631   6.717
15255TIP3    H145650   1.939   5.611   6.765
15255TIP3    H245651   1.869   5.575   6.637
15256TIP3   OH245652   2.297   5.828   6.509
15256TIP3    H145653   2.391   5.802   6.523
15256TIP3    H245654   2.258   5.744   6.477
15257TIP3   OH245655   3.559   5.795   6.779
15257TIP3    H145656   3.475   5.842   6.760
15257TIP3    H245657   3.572   5.820   6.872
15258TIP3   OH245658   2.220   5.411   7.043
15258TIP3    H145659   2.159   5.449   6.977
15258TIP3    H245660   2.168   5.427   7.125
15259TIP3   OH245661   2.567   6.263   6.051
15259TIP3    H145662   2.522   6.243   5.969
15259TIP3    H245663   2.522   6.346   6.077
15260TIP3   OH245664   2.326   6.187   6.839
15260TIP3    H145665   2.263   6.252   6.877
15260TIP3    H245666   2.367   6.238   6.767
15261TIP3   OH245667   3.126   5.522   6.404
15261TIP3    H145668   3.116   5.475   6.488
15261TIP3    H245669   3.180   5.599   6.431
15262TIP3   OH245670   2.090   5.527   6.828
15262TIP3    H145671   2.152   5.599   6.852
15262TIP3    H245672   2.139   5.486   6.754
15263TIP3   OH245673   2.153   6.380   6.937
15263TIP3    H145674   2.127   6.467   6.899
15263TIP3    H245675   2.075   6.364   6.994
15264TIP3   OH245676   1.538   6.067   6.160
15264TIP3    H145677   1.491   6.093   6.078
15264TIP3    H245678   1.573   6.153   6.190
15265TIP3   OH245679   2.988   6.587   6.414
15265TIP3    H145680   2.898   6.578   6.454
15265TIP3    H245681   2.978   6.673   6.368
15266TIP3   OH245682   3.278   5.488   6.776
15266TIP3    H145683   3.191   5.517   6.745
15266TIP3    H245684   3.338   5.520   6.705
15267TIP3   OH245685   2.575   5.130   6.758
15267TIP3    H145686   2.561   5.036   6.777
15267TIP3    H245687   2.498   5.169   6.805
15268TIP3   OH245688   2.689   6.633   6.088
15268TIP3    H145689   2.738   6.550   6.068
15268TIP3    H245690   2.752   6.698   6.047
15269TIP3   OH245691   2.832   6.419   5.994
15269TIP3    H145692   2.792   6.340   5.955
15269TIP3    H245693   2.868   6.383   6.078
15270TIP3   OH245694   3.213   6.501   6.756
15270TIP3    H145695   3.202   6.423   6.698
15270TIP3    H245696   3.197   6.575   6.693
15271TIP3   OH245697   2.506   5.892   6.014
15271TIP3    H145698   2.425   5.944   5.996
15271TIP3    H245699   2.550   5.893   5.928
15272TIP3   OH245700   2.465   5.677   5.729
15272TIP3    H145701   2.529   5.729   5.780
15272TIP3    H245702   2.525   5.616   5.682
15273TIP3   OH245703   3.409   6.137   6.601
15273TIP3    H145704   3.325   6.188   6.607
15273TIP3    H245705   3.438   6.161   6.511
15274TIP3   OH245706   2.852   5.975   5.985
15274TIP3    H145707   2.797   6.000   6.064
15274TIP3    H245708   2.936   5.951   6.029
15275TIP3   OH245709   3.088   6.015   6.898
15275TIP3    H145710   3.084   6.099   6.948
15275TIP3    H245711   3.001   6.019   6.852
15276TIP3   OH245712   2.084   5.974   6.402
15276TIP3    H145713   2.043   5.916   6.334
15276TIP3    H245714   2.161   5.920   6.430
15277TIP3   OH245715   2.214   6.387   6.550
15277TIP3    H145716   2.192   6.345   6.466
15277TIP3    H245717   2.304   6.351   6.568
15278TIP3   OH245718   2.223   5.944   6.757
15278TIP3    H145719   2.255   5.923   6.666
15278TIP3    H245720   2.265   6.030   6.776
15279TIP3   OH245721   2.747   6.583   6.534
15279TIP3    H145722   2.734   6.661   6.590
15279TIP3    H245723   2.732   6.508   6.596
15280TIP3   OH245724   2.359   6.502   7.080
15280TIP3    H145725   2.299   6.564   7.127
15280TIP3    H245726   2.293   6.448   7.031
15281TIP3   OH245727   2.694   5.832   5.811
15281TIP3    H145728   2.752   5.893   5.863
15281TIP3    H245729   2.720   5.856   5.719
15282TIP3   OH245730   2.113   6.059   7.180
15282TIP3    H145731   2.118   6.145   7.226
15282TIP3    H245732   2.018   6.038   7.193
15283TIP3   OH245733   2.436   6.513   6.090
15283TIP3    H145734   2.515   6.568   6.103
15283TIP3    H245735   2.375   6.572   6.045
15284TIP3   OH245736   2.153   6.670   7.168
15284TIP3    H145737   2.117   6.668   7.078
15284TIP3    H245738   2.074   6.648   7.223
15285TIP3   OH245739   3.211   5.082   5.864
15285TIP3    H145740   3.127   5.100   5.911
15285TIP3    H245741   3.222   5.161   5.808
15286TIP3   OH245742   1.952   5.817   6.204
15286TIP3    H145743   1.886   5.866   6.151
15286TIP3    H245744   1.906   5.733   6.218
15287TIP3   OH245745   3.008   6.447   5.408
15287TIP3    H145746   3.015   6.543   5.391
15287TIP3    H245747   3.100   6.417   5.395
15288TIP3   OH245748   1.732   6.200   7.114
15288TIP3    H145749   1.667   6.176   7.046
15288TIP3    H245750   1.770   6.113   7.139
15289TIP3   OH245751   1.587   6.392   6.747
15289TIP3    H145752   1.682   6.385   6.737
15289TIP3    H245753   1.579   6.471   6.803
15290TIP3   OH245754   3.445   6.835   6.793
15290TIP3    H145755   3.448   6.740   6.814
15290TIP3    H245756   3.367   6.863   6.845
15291TIP3   OH245757   2.556   6.631   6.937
15291TIP3    H145758   2.555   6.723   6.970
15291TIP3    H245759   2.484   6.590   6.991
15292TIP3   OH245760   2.319   6.760   5.889
15292TIP3    H145761   2.271   6.738   5.807
15292TIP3    H245762   2.285   6.848   5.911
15293TIP3   OH245763   1.756   6.610   6.273
15293TIP3    H145764   1.801   6.598   6.360
15293TIP3    H245765   1.705   6.527   6.267
15294TIP3   OH245766   2.517   6.660   5.530
15294TIP3    H145767   2.576   6.591   5.492
15294TIP3    H245768   2.552   6.669   5.621
15295TIP3   OH245769   2.570   6.704   5.799
15295TIP3    H145770   2.481   6.717   5.840
15295TIP3    H245771   2.618   6.662   5.872
15296TIP3   OH245772   3.341   5.976   7.077
15296TIP3    H145773   3.259   5.987   7.027
15296TIP3    H245774   3.356   5.880   7.067
15297TIP3   OH245775   1.937   6.384   7.103
15297TIP3    H145776   1.987   6.367   7.186
15297TIP3    H245777   1.863   6.320   7.111
15298TIP3   OH245778   2.336   5.208   6.885
15298TIP3    H145779   2.246   5.178   6.859
15298TIP3    H245780   2.311   5.289   6.933
15299TIP3   OH245781   2.870   5.322   7.082
15299TIP3    H145782   2.939   5.294   7.146
15299TIP3    H245783   2.787   5.302   7.128
15300TIP3   OH245784   3.110   5.751   7.001
15300TIP3    H145785   3.060   5.747   7.085
15300TIP3    H245786   3.084   5.838   6.965
15301TIP3   OH245787   2.768   5.879   5.555
15301TIP3    H145788   2.736   5.855   5.466
15301TIP3    H245789   2.849   5.928   5.532
15302TIP3   OH245790   2.480   5.256   5.859
15302TIP3    H145791   2.451   5.261   5.952
15302TIP3    H245792   2.445   5.169   5.835
15303TIP3   OH245793   2.268   5.722   6.906
15303TIP3    H145794   2.218   5.743   6.987
15303TIP3    H245795   2.252   5.803   6.853
15304TIP3   OH245796   2.152   5.608   6.419
15304TIP3    H145797   2.059   5.584   6.437
15304TIP3    H245798   2.164   5.567   6.331
15305TIP3   OH245799   2.642   5.693   6.147
15305TIP3    H145800   2.590   5.765   6.106
15305TIP3    H245801   2.697   5.664   6.072
15306TIP3   OH245802   2.817   5.973   7.234
15306TIP3    H145803   2.794   5.900   7.296
15306TIP3    H245804   2.911   5.986   7.256
15307TIP3   OH245805   2.800   5.722   6.386
15307TIP3    H145806   2.740   5.752   6.316
15307TIP3    H245807   2.833   5.641   6.343
15308TIP3   OH245808   2.087   5.751   7.115
15308TIP3    H145809   2.113   5.814   7.183
15308TIP3    H245810   2.076   5.668   7.166
15309TIP3   OH245811   2.135   5.242   5.829
15309TIP3    H145812   2.121   5.244   5.926
15309TIP3    H245813   2.057   5.293   5.800
15310TIP3   OH245814   1.681   5.272   6.695
15310TIP3    H145815   1.755   5.306   6.749
15310TIP3    H245816   1.724   5.243   6.613
15311TIP3   OH245817   1.653   5.255   6.214
15311TIP3    H145818   1.696   5.295   6.135
15311TIP3    H245819   1.591   5.328   6.235
15312TIP3   OH245820   2.811   5.969   6.809
15312TIP3    H145821   2.843   5.897   6.751
15312TIP3    H245822   2.781   5.916   6.886
15313TIP3   OH245823   2.478   5.429   6.480
15313TIP3    H145824   2.396   5.429   6.534
15313TIP3    H245825   2.547   5.428   6.549
15314TIP3   OH245826   1.913   5.487   6.489
15314TIP3    H145827   1.819   5.495   6.462
15314TIP3    H245828   1.936   5.395   6.465
15315TIP3   OH245829   2.184   5.479   6.178
15315TIP3    H145830   2.277   5.500   6.157
15315TIP3    H245831   2.135   5.504   6.096
15316TIP3   OH245832   2.971   5.506   6.682
15316TIP3    H145833   2.938   5.519   6.774
15316TIP3    H245834   2.905   5.445   6.647
15317TIP3   OH245835   2.028   5.511   5.957
15317TIP3    H145836   1.951   5.474   5.911
15317TIP3    H245837   2.077   5.550   5.882
15318TIP3   OH245838   3.135   7.193   6.895
15318TIP3    H145839   3.136   7.213   6.799
15318TIP3    H245840   3.188   7.265   6.931
15319TIP3   OH245841   2.099   6.306   7.322
15319TIP3    H145842   2.178   6.336   7.372
15319TIP3    H245843   2.034   6.302   7.395
15320TIP3   OH245844   2.562   5.758   6.579
15320TIP3    H145845   2.636   5.719   6.530
15320TIP3    H245846   2.570   5.717   6.666
15321TIP3   OH245847   2.084   5.246   6.458
15321TIP3    H145848   2.049   5.168   6.505
15321TIP3    H245849   2.138   5.206   6.388
15322TIP3   OH245850   2.539   5.656   6.867
15322TIP3    H145851   2.449   5.691   6.882
15322TIP3    H245852   2.596   5.717   6.918
15323TIP3   OH245853   2.280   6.045   5.966
15323TIP3    H145854   2.207   5.981   5.952
15323TIP3    H245855   2.259   6.080   6.056
15324TIP3   OH245856   3.176   6.283   6.593
15324TIP3    H145857   3.200   6.332   6.511
15324TIP3    H245858   3.091   6.240   6.568
15325TIP3   OH245859   2.732   5.362   5.819
15325TIP3    H145860   2.635   5.348   5.833
15325TIP3    H245861   2.745   5.455   5.848
15326TIP3   OH245862   2.679   6.367   6.959
15326TIP3    H145863   2.697   6.341   7.050
15326TIP3    H245864   2.635   6.453   6.969
15327TIP3   OH245865   2.804   5.604   5.927
15327TIP3    H145866   2.900   5.612   5.945
15327TIP3    H245867   2.785   5.685   5.876
15328TIP3   OH245868   1.969   6.069   6.639
15328TIP3    H145869   2.006   6.040   6.554
15328TIP3    H245870   2.008   6.006   6.701
15329TIP3   OH245871   2.420   6.196   5.785
15329TIP3    H145872   2.373   6.283   5.790
15329TIP3    H245873   2.365   6.141   5.845
15330TIP3   OH245874   1.850   5.989   7.252
15330TIP3    H145875   1.871   5.977   7.346
15330TIP3    H245876   1.781   5.921   7.239
15331TIP3   OH245877   2.574   6.104   7.271
15331TIP3    H145878   2.514   6.043   7.225
15331TIP3    H245879   2.661   6.068   7.243
15332TIP3   OH245880   2.835   6.630   6.852
15332TIP3    H145881   2.740   6.622   6.867
15332TIP3    H245882   2.863   6.678   6.933
15333TIP3   OH245883   3.245   5.697   5.765
15333TIP3    H145884   3.183   5.653   5.703
15333TIP3    H245885   3.243   5.786   5.725
15334TIP3   OH245886   3.463   6.552   6.846
15334TIP3    H145887   3.365   6.547   6.837
15334TIP3    H245888   3.490   6.523   6.756
15335TIP3   OH245889   2.947   6.517   5.674
15335TIP3    H145890   2.920   6.447   5.734
15335TIP3    H245891   2.958   6.470   5.589
15336TIP3   OH245892   2.942   6.145   6.511
15336TIP3    H145893   2.848   6.119   6.524
15336TIP3    H245894   2.976   6.065   6.466
15337TIP3   OH245895   2.069   6.372   6.265
15337TIP3    H145896   2.067   6.453   6.211
15337TIP3    H245897   1.975   6.351   6.271
15338TIP3   OH245898   1.635   5.674   5.966
15338TIP3    H145899   1.675   5.763   5.978
15338TIP3    H245900   1.555   5.684   6.023
15339TIP3   OH245901   2.208   6.139   6.209
15339TIP3    H145902   2.173   6.228   6.227
15339TIP3    H245903   2.170   6.088   6.283
15340TIP3   OH245904   2.338   6.716   6.733
15340TIP3    H145905   2.380   6.787   6.682
15340TIP3    H245906   2.414   6.680   6.782
15341TIP3   OH245907   1.988   6.611   6.117
15341TIP3    H145908   1.902   6.619   6.163
15341TIP3    H245909   2.018   6.705   6.119
15342TIP3   OH245910   2.727   6.350   6.691
15342TIP3    H145911   2.717   6.349   6.789
15342TIP3    H245912   2.806   6.295   6.679
15343TIP3   OH245913   2.701   6.243   5.574
15343TIP3    H145914   2.753   6.218   5.653
15343TIP3    H245915   2.612   6.217   5.602
15344TIP3   OH245916   2.974   6.884   6.744
15344TIP3    H145917   2.897   6.825   6.739
15344TIP3    H245918   2.956   6.946   6.670
15345TIP3   OH245919   3.029   6.736   5.384
15345TIP3    H145920   3.088   6.808   5.356
15345TIP3    H245921   2.944   6.779   5.363
15346TIP3   OH245922   2.061   5.493   7.260
15346TIP3    H145923   1.965   5.498   7.276
15346TIP3    H245924   2.091   5.436   7.333
15347TIP3   OH245925   2.861   6.176   5.791
15347TIP3    H145926   2.851   6.110   5.862
15347TIP3    H245927   2.958   6.174   5.778
15348TIP3   OH245928   1.776   6.578   6.892
15348TIP3    H145929   1.829   6.502   6.922
15348TIP3    H245930   1.803   6.645   6.956
15349TIP3   OH245931   2.068   6.223   5.566
15349TIP3    H145932   2.079   6.129   5.541
15349TIP3    H245933   2.056   6.215   5.663
15350TIP3   OH245934   2.033   6.231   5.835
15350TIP3    H145935   2.078   6.199   5.914
15350TIP3    H245936   2.028   6.327   5.850
15351TIP3   OH245937   1.748   5.922   6.053
15351TIP3    H145938   1.673   5.962   6.102
15351TIP3    H245939   1.759   5.993   5.986
15352TIP3   OH245940   2.898   5.557   6.941
15352TIP3    H145941   2.977   5.596   6.982
15352TIP3    H245942   2.883   5.477   6.996
15353TIP3   OH245943   2.776   5.311   6.106
15353TIP3    H145944   2.766   5.337   6.012
15353TIP3    H245945   2.817   5.391   6.145
15354TIP3   OH245946   2.283   6.430   5.796
15354TIP3    H145947   2.194   6.451   5.831
15354TIP3    H245948   2.293   6.500   5.730
15355TIP3   OH245949   2.466   5.488   6.208
15355TIP3    H145950   2.530   5.560   6.191
15355TIP3    H245951   2.471   5.480   6.306
15356TIP3   OH245952   2.736   5.808   7.016
15356TIP3    H145953   2.756   5.862   7.096
15356TIP3    H245954   2.790   5.729   7.031
15357TIP3   OH245955   2.611   5.215   6.310
15357TIP3    H145956   2.606   5.290   6.372
15357TIP3    H245957   2.671   5.252   6.242
15358TIP3   OH245958   2.024   6.502   5.863
15358TIP3    H145959   1.991   6.570   5.800
15358TIP3    H245960   2.005   6.544   5.949
15359TIP3   OH245961   2.123   5.215   6.102
15359TIP3    H145962   2.117   5.305   6.139
15359TIP3    H245963   2.219   5.199   6.111
15360TIP3   OH245964   3.377   5.708   6.996
15360TIP3    H145965   3.279   5.707   7.005
15360TIP3    H245966   3.386   5.665   6.911
15361TIP3   OH245967   3.027   5.903   6.385
15361TIP3    H145968   2.951   5.843   6.398
15361TIP3    H245969   3.099   5.856   6.433
15362TIP3   OH245970   1.758   6.130   5.877
15362TIP3    H145971   1.803   6.213   5.860
15362TIP3    H245972   1.777   6.080   5.796
15363TIP3   OH245973   1.685   5.406   5.987
15363TIP3    H145974   1.686   5.504   5.985
15363TIP3    H245975   1.601   5.388   5.943
15364TIP3   OH245976   2.994   6.860   6.335
15364TIP3    H145977   2.951   6.908   6.261
15364TIP3    H245978   3.088   6.878   6.313
15365TIP3   OH245979   2.072   5.128   6.859
15365TIP3    H145980   2.040   5.094   6.773
15365TIP3    H245981   2.061   5.050   6.917
15366TIP3   OH245982   1.621   6.357   6.246
15366TIP3    H145983   1.540   6.378   6.295
15366TIP3    H245984   1.595   6.386   6.156
15367TIP3   OH245985   1.767   6.887   7.313
15367TIP3    H145986   1.853   6.885   7.360
15367TIP3    H245987   1.745   6.792   7.313
15368TIP3   OH245988   2.251   6.854   7.355
15368TIP3    H145989   2.344   6.829   7.365
15368TIP3    H245990   2.223   6.793   7.284
15369TIP3   OH245991   2.231   6.428   5.487
15369TIP3    H145992   2.173   6.356   5.522
15369TIP3    H245993   2.305   6.375   5.455
15370TIP3   OH245994   2.889   6.757   7.091
15370TIP3    H145995   2.878   6.687   7.160
15370TIP3    H245996   2.966   6.807   7.124
15371TIP3   OH245997   2.666   6.469   5.399
15371TIP3    H145998   2.710   6.404   5.457
15371TIP3    H245999   2.722   6.466   5.318
15372TIP3   OH246000   1.899   6.294   7.512
15372TIP3    H146001   1.913   6.198   7.525
15372TIP3    H246002   1.810   6.295   7.470
15373TIP3   OH246003   1.875   5.943   5.701
15373TIP3    H146004   1.925   5.921   5.781
15373TIP3    H246005   1.946   5.947   5.634
15374TIP3   OH246006   2.507   6.379   7.287
15374TIP3    H146007   2.463   6.394   7.201
15374TIP3    H246008   2.536   6.285   7.280
15375TIP3   OH246009   2.388   6.143   5.514
15375TIP3    H146010   2.387   6.155   5.611
15375TIP3    H246011   2.383   6.045   5.509
15376TIP3   OH246012   2.999   6.386   6.894
15376TIP3    H146013   3.072   6.433   6.850
15376TIP3    H246014   2.926   6.448   6.881
15377TIP3   OH246015   2.018   6.027   7.494
15377TIP3    H146016   2.088   5.962   7.480
15377TIP3    H246017   2.044   6.060   7.583
15378TIP3   OH246018   2.090   5.847   5.933
15378TIP3    H146019   2.053   5.809   6.014
15378TIP3    H246020   2.119   5.769   5.883
15379TIP3   OH246021   2.352   5.912   7.158
15379TIP3    H146022   2.274   5.971   7.160
15379TIP3    H246023   2.401   5.947   7.080
15380TIP3   OH246024   2.183   5.636   5.770
15380TIP3    H146025   2.156   5.647   5.676
15380TIP3    H246026   2.280   5.647   5.762
15381TIP3   OH246027   2.870   6.315   7.292
15381TIP3    H146028   2.949   6.288   7.245
15381TIP3    H246029   2.864   6.248   7.363
15382TIP3   OH246030   3.004   5.971   5.434
15382TIP3    H146031   2.984   5.926   5.350
15382TIP3    H246032   2.973   6.062   5.411
15383TIP3   OH246033   2.477   5.700   7.283
15383TIP3    H146034   2.475   5.620   7.227
15383TIP3    H246035   2.431   5.766   7.226
15384TIP3   OH246036   2.478   5.486   7.091
15384TIP3    H146037   2.505   5.527   7.006
15384TIP3    H246038   2.384   5.464   7.073
15385TIP3   OH246039   2.505   6.022   6.964
15385TIP3    H146040   2.588   6.031   6.916
15385TIP3    H246041   2.448   6.088   6.919
15386TIP3   OH246042   3.086   5.988   7.345
15386TIP3    H146043   3.134   5.905   7.359
15386TIP3    H246044   3.156   6.046   7.310
15387TIP3   OH246045   3.129   6.242   7.082
15387TIP3    H146046   3.071   6.295   7.023
15387TIP3    H246047   3.216   6.262   7.042
15388TIP3   OH246048   2.355   5.812   7.513
15388TIP3    H146049   2.284   5.747   7.530
15388TIP3    H246050   2.388   5.783   7.426
15389TIP3   OH246051   2.611   5.250   7.159
15389TIP3    H146052   2.561   5.332   7.137
15389TIP3    H246053   2.541   5.182   7.148
15390TIP3   OH246054   2.736   5.755   7.375
15390TIP3    H146055   2.724   5.742   7.470
15390TIP3    H246056   2.646   5.730   7.344
15391TIP3   OH246057   2.975   5.703   7.229
15391TIP3    H146058   2.900   5.705   7.292
15391TIP3    H246059   3.048   5.672   7.286
15392TIP3   OH246060   3.206   5.644   7.380
15392TIP3    H146061   3.217   5.548   7.398
15392TIP3    H246062   3.200   5.683   7.470
15393TIP3   OH246063   2.192   5.593   7.566
15393TIP3    H146064   2.195   5.501   7.535
15393TIP3    H246065   2.226   5.583   7.657
15394TIP3   OH246066   2.702   5.258   7.418
15394TIP3    H146067   2.771   5.189   7.411
15394TIP3    H246068   2.663   5.253   7.328
15395TIP3   OH246069   2.770   5.477   7.573
15395TIP3    H146070   2.747   5.405   7.510
15395TIP3    H246071   2.691   5.535   7.567
15396TIP3   OH246072   1.991   6.708   5.677
15396TIP3    H146073   2.086   6.701   5.656
15396TIP3    H246074   1.960   6.753   5.597
15397TIP3   OH246075   1.381   6.697   6.307
15397TIP3    H146076   1.320   6.630   6.270
15397TIP3    H246077   1.430   6.643   6.373
15398TIP3   OH246078   1.517   6.554   6.495
15398TIP3    H146079   1.512   6.475   6.551
15398TIP3    H246080   1.571   6.612   6.551
15399TIP3   OH246081   3.247   6.951   6.292
15399TIP3    H146082   3.280   6.979   6.379
15399TIP3    H246083   3.312   6.989   6.231
15400TIP3   OH246084   3.289   6.963   6.575
15400TIP3    H146085   3.238   6.880   6.566
15400TIP3    H246086   3.355   6.932   6.640
15401TIP3   OH246087   3.324   6.647   7.147
15401TIP3    H146088   3.251   6.655   7.211
15401TIP3    H246089   3.365   6.736   7.152
15402TIP3   OH246090   3.140   6.159   5.767
15402TIP3    H146091   3.208   6.223   5.737
15402TIP3    H246092   3.184   6.120   5.846
15403TIP3   OH246093   3.268   6.026   5.970
15403TIP3    H146094   3.202   5.984   6.030
15403TIP3    H246095   3.333   6.064   6.033
15404TIP3   OH246096   3.322   6.418   6.402
15404TIP3    H146097   3.375   6.352   6.354
15404TIP3    H246098   3.314   6.491   6.337
15405TIP3   OH246099   3.153   6.721   6.595
15405TIP3    H146100   3.081   6.759   6.649
15405TIP3    H246101   3.103   6.672   6.526
15406TIP3   OH246102   3.206   5.934   5.617
15406TIP3    H146103   3.135   5.937   5.549
15406TIP3    H246104   3.178   6.010   5.672
15407TIP3   OH246105   3.077   5.610   5.572
15407TIP3    H146106   3.035   5.647   5.494
15407TIP3    H246107   3.052   5.515   5.563
15408TIP3   OH246108   3.082   5.883   6.117
15408TIP3    H146109   3.090   5.787   6.111
15408TIP3    H246110   3.068   5.897   6.213
15409TIP3   OH246111   1.708   5.957   6.863
15409TIP3    H146112   1.706   5.926   6.771
15409TIP3    H246113   1.805   5.958   6.880
15410TIP3   OH246114   3.372   6.308   6.973
15410TIP3    H146115   3.444   6.241   6.964
15410TIP3    H246116   3.400   6.377   6.911
15411TIP3   OH246117   3.556   6.113   6.989
15411TIP3    H146118   3.482   6.063   7.028
15411TIP3    H246119   3.629   6.049   7.004
15412TIP3   OH246120   3.021   5.345   5.560
15412TIP3    H146121   3.100   5.311   5.605
15412TIP3    H246122   2.952   5.280   5.582
15413TIP3   OH246123   3.077   5.599   6.011
15413TIP3    H146124   3.118   5.511   6.027
15413TIP3    H246125   3.136   5.632   5.941
15414TIP3   OH246126   3.240   5.773   6.506
15414TIP3    H146127   3.326   5.799   6.466
15414TIP3    H246128   3.253   5.810   6.596
15415TIP3   OH246129   3.309   5.917   6.738
15415TIP3    H146130   3.231   5.951   6.787
15415TIP3    H246131   3.341   5.998   6.693
15416TIP3   OH246132   1.924   5.641   7.532
15416TIP3    H146133   2.022   5.639   7.539
15416TIP3    H246134   1.902   5.557   7.577
15417TIP3   OH246135   3.762   5.510   7.295
15417TIP3    H146136   3.820   5.443   7.252
15417TIP3    H246137   3.732   5.563   7.218
15418TIP3   OH246138   3.186   5.350   6.049
15418TIP3    H146139   3.235   5.334   6.133
15418TIP3    H246140   3.128   5.272   6.047
15419TIP3   OH246141   1.886   5.336   6.868
15419TIP3    H146142   1.949   5.261   6.879
15419TIP3    H246143   1.948   5.410   6.862
15420TIP3   OH246144   1.689   5.608   6.941
15420TIP3    H146145   1.739   5.605   6.857
15420TIP3    H246146   1.718   5.693   6.976
15421TIP3   OH246147   3.631   5.648   7.100
15421TIP3    H146148   3.545   5.688   7.121
15421TIP3    H246149   3.601   5.575   7.041
15422TIP3   OH246150   3.272   5.285   5.671
15422TIP3    H146151   3.333   5.219   5.635
15422TIP3    H246152   3.330   5.363   5.675
15423TIP3   OH246153   1.673   5.109   6.440
15423TIP3    H146154   1.580   5.109   6.469
15423TIP3    H246155   1.670   5.170   6.363
15424TIP3   OH246156   2.838   6.814   5.953
15424TIP3    H146157   2.880   6.800   5.865
15424TIP3    H246158   2.892   6.885   5.989
15425TIP3   OH246159   1.892   5.192   7.256
15425TIP3    H146160   1.844   5.186   7.340
15425TIP3    H246161   1.824   5.231   7.198
15426TIP3   OH246162   1.933   6.622   7.336
15426TIP3    H146163   1.842   6.593   7.318
15426TIP3    H246164   1.943   6.598   7.429
15427TIP3   OH246165   2.111   6.652   6.882
15427TIP3    H146166   2.062   6.727   6.843
15427TIP3    H246167   2.197   6.666   6.838
15428TIP3   OH246168   2.556   6.897   7.019
15428TIP3    H146169   2.598   6.897   7.108
15428TIP3    H246170   2.622   6.948   6.968
15429TIP3   OH246171   2.734   7.050   6.876
15429TIP3    H146172   2.804   6.996   6.837
15429TIP3    H246173   2.786   7.105   6.939
15430TIP3   OH246174   3.530   5.410   6.978
15430TIP3    H146175   3.439   5.403   6.945
15430TIP3    H246176   3.561   5.317   6.967
15431TIP3   OH246177   1.788   6.912   6.903
15431TIP3    H146178   1.698   6.945   6.881
15431TIP3    H246179   1.796   6.942   6.994
15432TIP3   OH246180   2.025   6.890   6.764
15432TIP3    H146181   1.938   6.902   6.808
15432TIP3    H246182   2.004   6.920   6.673
15433TIP3   OH246183   2.450   6.917   6.561
15433TIP3    H146184   2.380   6.935   6.496
15433TIP3    H246185   2.461   7.004   6.603
15434TIP3   OH246186   2.718   6.858   6.613
15434TIP3    H146187   2.624   6.872   6.593
15434TIP3    H246188   2.759   6.933   6.567
15435TIP3   OH246189   2.930   7.051   6.527
15435TIP3    H146190   2.912   7.133   6.477
15435TIP3    H246191   2.952   6.988   6.454
15436TIP3   OH246192   1.699   6.703   6.652
15436TIP3    H146193   1.727   6.677   6.742
15436TIP3    H246194   1.770   6.659   6.600
15437TIP3   OH246195   1.892   6.575   6.509
15437TIP3    H146196   1.908   6.490   6.556
15437TIP3    H246197   1.983   6.610   6.502
15438TIP3   OH246198   2.161   6.671   6.509
15438TIP3    H146199   2.190   6.579   6.495
15438TIP3    H246200   2.204   6.689   6.594
15439TIP3   OH246201   2.733   5.324   6.594
15439TIP3    H146202   2.691   5.255   6.649
15439TIP3    H246203   2.808   5.277   6.554
15440TIP3   OH246204   3.258   5.205   6.503
15440TIP3    H146205   3.294   5.257   6.428
15440TIP3    H246206   3.162   5.225   6.496
15441TIP3   OH246207   3.352   5.307   6.267
15441TIP3    H146208   3.425   5.254   6.227
15441TIP3    H246209   3.386   5.398   6.252
15442TIP3   OH246210   1.984   5.033   6.612
15442TIP3    H146211   1.892   5.001   6.615
15442TIP3    H246212   2.033   4.948   6.610
15443TIP3   OH246213   1.772   4.904   6.259
15443TIP3    H146214   1.798   4.965   6.187
15443TIP3    H246215   1.741   4.966   6.327
15444TIP3   OH246216   2.427   5.066   6.494
15444TIP3    H146217   2.486   5.117   6.436
15444TIP3    H246218   2.447   5.103   6.580
15445TIP3   OH246219   2.973   5.213   6.478
15445TIP3    H146220   2.974   5.175   6.389
15445TIP3    H246221   2.960   5.133   6.534
15446TIP3   OH246222   3.001   5.137   6.041
15446TIP3    H146223   2.914   5.178   6.056
15446TIP3    H246224   2.990   5.051   6.087
15447TIP3   OH246225   1.493   6.472   6.039
15447TIP3    H146226   1.418   6.416   6.011
15447TIP3    H246227   1.459   6.560   6.014
15448TIP3   OH246228   1.885   5.065   6.027
15448TIP3    H146229   1.935   5.005   5.969
15448TIP3    H246230   1.956   5.121   6.064
15449TIP3   OH246231   2.402   5.237   6.123
15449TIP3    H146232   2.462   5.194   6.186
15449TIP3    H246233   2.419   5.331   6.148
15450TIP3   OH246234   2.258   6.664   5.623
15450TIP3    H146235   2.347   6.685   5.587
15450TIP3    H246236   2.235   6.589   5.563
15451TIP3   OH246237   2.971   6.785   5.712
15451TIP3    H146238   2.968   6.686   5.702
15451TIP3    H246239   2.922   6.811   5.633
15452TIP3   OH246240   2.188   5.322   7.506
15452TIP3    H146241   2.153   5.245   7.553
15452TIP3    H246242   2.283   5.318   7.533
15453TIP3   OH246243   2.438   5.314   7.623
15453TIP3    H146244   2.521   5.289   7.579
15453TIP3    H246245   2.428   5.244   7.690
15454TIP3   OH246246   1.567   6.509   5.681
15454TIP3    H146247   1.560   6.513   5.777
15454TIP3    H246248   1.652   6.461   5.668
15455TIP3   OH246249   3.265   5.373   7.412
15455TIP3    H146250   3.283   5.343   7.504
15455TIP3    H246251   3.354   5.367   7.372
15456TIP3   OH246252   3.204   6.924   6.905
15456TIP3    H146253   3.126   6.891   6.857
15456TIP3    H246254   3.183   7.020   6.906
15457TIP3   OH246255   4.470   6.298   5.669
15457TIP3    H146256   4.442   6.390   5.649
15457TIP3    H246257   4.393   6.249   5.636
15458TIP3   OH246258   4.471   6.297   6.050
15458TIP3    H146259   4.501   6.270   6.138
15458TIP3    H246260   4.428   6.217   6.017
15459TIP3   OH246261   3.768   6.194   6.417
15459TIP3    H146262   3.799   6.126   6.479
15459TIP3    H246263   3.848   6.248   6.408
15460TIP3   OH246264   4.714   6.599   5.733
15460TIP3    H146265   4.698   6.533   5.800
15460TIP3    H246266   4.742   6.676   5.785
15461TIP3   OH246267   3.739   6.604   6.145
15461TIP3    H146268   3.732   6.506   6.144
15461TIP3    H246269   3.836   6.613   6.134
15462TIP3   OH246270   3.447   5.806   5.926
15462TIP3    H146271   3.399   5.890   5.941
15462TIP3    H246272   3.377   5.752   5.887
15463TIP3   OH246273   3.506   6.094   6.098
15463TIP3    H146274   3.555   6.016   6.134
15463TIP3    H246275   3.565   6.123   6.028
15464TIP3   OH246276   4.362   7.062   5.750
15464TIP3    H146277   4.407   6.991   5.699
15464TIP3    H246278   4.359   7.024   5.838
15465TIP3   OH246279   4.268   6.524   6.100
15465TIP3    H146280   4.306   6.449   6.052
15465TIP3    H246281   4.351   6.570   6.124
15466TIP3   OH246282   5.282   5.845   6.097
15466TIP3    H146283   5.311   5.928   6.140
15466TIP3    H246284   5.300   5.865   6.004
15467TIP3   OH246285   4.681   6.026   6.132
15467TIP3    H146286   4.723   5.940   6.151
15467TIP3    H246287   4.650   6.010   6.041
15468TIP3   OH246288   4.019   5.685   6.096
15468TIP3    H146289   3.998   5.757   6.034
15468TIP3    H246290   3.970   5.611   6.053
15469TIP3   OH246291   4.712   5.776   5.719
15469TIP3    H146292   4.784   5.760   5.784
15469TIP3    H246293   4.765   5.811   5.645
15470TIP3   OH246294   3.652   5.887   6.203
15470TIP3    H146295   3.735   5.867   6.251
15470TIP3    H246296   3.665   5.831   6.124
15471TIP3   OH246297   4.093   6.084   5.997
15471TIP3    H146298   4.186   6.059   6.010
15471TIP3    H246299   4.054   6.001   5.965
15472TIP3   OH246300   5.356   6.053   6.266
15472TIP3    H146301   5.272   6.100   6.245
15472TIP3    H246302   5.365   6.076   6.359
15473TIP3   OH246303   4.015   5.668   6.531
15473TIP3    H146304   3.955   5.705   6.464
15473TIP3    H246305   3.963   5.686   6.612
15474TIP3   OH246306   4.362   6.519   5.537
15474TIP3    H146307   4.321   6.502   5.451
15474TIP3    H246308   4.317   6.602   5.564
15475TIP3   OH246309   4.122   6.443   6.326
15475TIP3    H146310   4.060   6.510   6.364
15475TIP3    H246311   4.164   6.494   6.254
15476TIP3   OH246312   4.923   5.779   5.890
15476TIP3    H146313   4.912   5.729   5.973
15476TIP3    H246314   4.975   5.856   5.919
15477TIP3   OH246315   3.886   5.783   6.315
15477TIP3    H146316   3.948   5.856   6.339
15477TIP3    H246317   3.935   5.743   6.240
15478TIP3   OH246318   3.950   6.638   6.424
15478TIP3    H146319   3.924   6.723   6.384
15478TIP3    H246320   3.871   6.622   6.481
15479TIP3   OH246321   3.344   6.327   5.660
15479TIP3    H146322   3.304   6.354   5.575
15479TIP3    H246323   3.375   6.413   5.695
15480TIP3   OH246324   4.783   6.842   5.899
15480TIP3    H146325   4.694   6.835   5.938
15480TIP3    H246326   4.776   6.929   5.854
15481TIP3   OH246327   5.075   5.746   6.264
15481TIP3    H146328   4.987   5.772   6.232
15481TIP3    H246329   5.133   5.776   6.191
15482TIP3   OH246330   4.371   5.387   6.245
15482TIP3    H146331   4.358   5.292   6.263
15482TIP3    H246332   4.294   5.425   6.292
15483TIP3   OH246333   4.485   6.889   5.573
15483TIP3    H146334   4.535   6.807   5.553
15483TIP3    H246335   4.546   6.955   5.533
15484TIP3   OH246336   4.628   6.674   5.481
15484TIP3    H146337   4.587   6.596   5.443
15484TIP3    H246338   4.664   6.639   5.565
15485TIP3   OH246339   5.010   6.755   6.245
15485TIP3    H146340   4.998   6.679   6.184
15485TIP3    H246341   4.991   6.831   6.185
15486TIP3   OH246342   4.300   6.149   5.500
15486TIP3    H146343   4.220   6.202   5.481
15486TIP3    H246344   4.346   6.150   5.414
15487TIP3   OH246345   4.261   5.934   5.217
15487TIP3    H146346   4.326   5.986   5.267
15487TIP3    H246347   4.320   5.871   5.170
15488TIP3   OH246348   5.206   6.394   6.089
15488TIP3    H146349   5.122   6.445   6.094
15488TIP3    H246350   5.235   6.418   5.998
15489TIP3   OH246351   4.649   6.231   5.473
15489TIP3    H146352   4.593   6.257   5.550
15489TIP3    H246353   4.733   6.207   5.518
15490TIP3   OH246354   4.884   6.272   6.384
15490TIP3    H146355   4.881   6.356   6.433
15490TIP3    H246356   4.797   6.275   6.339
15491TIP3   OH246357   3.880   6.230   5.890
15491TIP3    H146358   3.839   6.173   5.822
15491TIP3    H246359   3.957   6.177   5.918
15492TIP3   OH246360   4.008   6.639   6.040
15492TIP3    H146361   3.989   6.602   5.952
15492TIP3    H246362   4.098   6.606   6.056
15493TIP3   OH246363   4.017   6.201   6.244
15493TIP3    H146364   4.050   6.180   6.154
15493TIP3    H246365   4.061   6.287   6.263
15494TIP3   OH246366   4.542   6.839   6.020
15494TIP3    H146367   4.529   6.920   6.072
15494TIP3    H246368   4.527   6.767   6.085
15495TIP3   OH246369   4.156   6.758   6.568
15495TIP3    H146370   4.096   6.821   6.614
15495TIP3    H246371   4.090   6.705   6.519
15496TIP3   OH246372   4.490   6.090   5.298
15496TIP3    H146373   4.547   6.151   5.350
15496TIP3    H246374   4.516   6.113   5.206
15497TIP3   OH246375   3.910   6.314   6.669
15497TIP3    H146376   3.914   6.402   6.713
15497TIP3    H246377   3.814   6.295   6.679
15498TIP3   OH246378   4.232   6.770   5.581
15498TIP3    H146379   4.312   6.825   5.590
15498TIP3    H246380   4.173   6.827   5.530
15499TIP3   OH246381   3.949   6.925   6.653
15499TIP3    H146382   3.915   6.924   6.561
15499TIP3    H246383   3.869   6.902   6.705
15500TIP3   OH246384   5.001   5.338   5.348
15500TIP3    H146385   4.919   5.353   5.400
15500TIP3    H246386   5.011   5.423   5.300
15501TIP3   OH246387   3.747   6.073   5.695
15501TIP3    H146388   3.682   6.118   5.637
15501TIP3    H246389   3.705   5.987   5.706
15502TIP3   OH246390   4.804   6.698   4.893
15502TIP3    H146391   4.811   6.796   4.880
15502TIP3    H246392   4.897   6.671   4.883
15503TIP3   OH246393   3.528   6.457   6.601
15503TIP3    H146394   3.462   6.434   6.532
15503TIP3    H246395   3.566   6.370   6.626
15504TIP3   OH246396   3.382   6.648   6.233
15504TIP3    H146397   3.477   6.640   6.220
15504TIP3    H246398   3.375   6.727   6.289
15505TIP3   OH246399   5.250   7.102   6.293
15505TIP3    H146400   5.245   7.006   6.305
15505TIP3    H246401   5.166   7.129   6.336
15506TIP3   OH246402   4.353   6.888   6.424
15506TIP3    H146403   4.352   6.980   6.456
15506TIP3    H246404   4.282   6.848   6.479
15507TIP3   OH246405   4.113   7.015   5.376
15507TIP3    H146406   4.069   6.993   5.292
15507TIP3    H246407   4.080   7.104   5.396
15508TIP3   OH246408   3.550   6.866   5.761
15508TIP3    H146409   3.599   6.855   5.846
15508TIP3    H246410   3.496   6.785   5.761
15509TIP3   OH246411   4.315   6.921   5.016
15509TIP3    H146412   4.374   6.851   4.980
15509TIP3    H246413   4.347   6.927   5.109
15510TIP3   OH246414   4.365   6.966   5.287
15510TIP3    H146415   4.276   6.974   5.327
15510TIP3    H246416   4.415   6.925   5.359
15511TIP3   OH246417   5.138   6.232   6.564
15511TIP3    H146418   5.056   6.246   6.514
15511TIP3    H246419   5.152   6.137   6.552
15512TIP3   OH246420   3.733   6.640   6.589
15512TIP3    H146421   3.782   6.625   6.672
15512TIP3    H246422   3.659   6.577   6.597
15513TIP3   OH246423   4.133   5.463   6.373
15513TIP3    H146424   4.043   5.432   6.347
15513TIP3    H246425   4.107   5.545   6.420
15514TIP3   OH246426   4.666   5.579   6.568
15514TIP3    H146427   4.734   5.550   6.633
15514TIP3    H246428   4.582   5.558   6.615
15515TIP3   OH246429   4.907   6.009   6.488
15515TIP3    H146430   4.856   6.005   6.572
15515TIP3    H246431   4.881   6.095   6.451
15516TIP3   OH246432   4.564   6.133   5.041
15516TIP3    H146433   4.532   6.109   4.952
15516TIP3    H246434   4.641   6.189   5.019
15517TIP3   OH246435   4.277   5.514   5.345
15517TIP3    H146436   4.246   5.510   5.438
15517TIP3    H246437   4.238   5.431   5.311
15518TIP3   OH246438   4.064   5.979   6.392
15518TIP3    H146439   4.014   6.000   6.474
15518TIP3    H246440   4.049   6.060   6.339
15519TIP3   OH246441   3.948   5.865   5.906
15519TIP3    H146442   3.855   5.839   5.924
15519TIP3    H246443   3.961   5.824   5.817
15520TIP3   OH246444   4.438   5.950   5.634
15520TIP3    H146445   4.385   6.022   5.592
15520TIP3    H246446   4.493   5.921   5.560
15521TIP3   OH246447   4.613   6.229   6.720
15521TIP3    H146448   4.591   6.156   6.782
15521TIP3    H246449   4.707   6.243   6.742
15522TIP3   OH246450   4.596   5.979   5.873
15522TIP3    H146451   4.535   6.010   5.803
15522TIP3    H246452   4.628   5.898   5.830
15523TIP3   OH246453   3.883   6.008   6.601
15523TIP3    H146454   3.911   6.071   6.669
15523TIP3    H246455   3.872   5.926   6.653
15524TIP3   OH246456   3.933   5.484   5.312
15524TIP3    H146457   3.923   5.485   5.409
15524TIP3    H246458   3.856   5.539   5.286
15525TIP3   OH246459   3.476   5.531   6.182
15525TIP3    H146460   3.552   5.561   6.235
15525TIP3    H246461   3.516   5.497   6.101
15526TIP3   OH246462   3.446   5.510   5.700
15526TIP3    H146463   3.492   5.548   5.622
15526TIP3    H246464   3.387   5.585   5.722
15527TIP3   OH246465   4.607   6.225   6.296
15527TIP3    H146466   4.639   6.153   6.237
15527TIP3    H246467   4.577   6.172   6.373
15528TIP3   OH246468   4.275   5.687   5.967
15528TIP3    H146469   4.193   5.686   6.020
15528TIP3    H246470   4.343   5.686   6.037
15529TIP3   OH246471   3.710   5.743   5.976
15529TIP3    H146472   3.615   5.750   5.949
15529TIP3    H246473   3.732   5.651   5.953
15530TIP3   OH246474   3.979   5.738   5.664
15530TIP3    H146475   4.073   5.756   5.643
15530TIP3    H246476   3.932   5.761   5.581
15531TIP3   OH246477   4.768   5.762   6.169
15531TIP3    H146478   4.734   5.775   6.261
15531TIP3    H246479   4.702   5.701   6.133
15532TIP3   OH246480   3.822   5.771   5.443
15532TIP3    H146481   3.749   5.728   5.394
15532TIP3    H246482   3.873   5.809   5.369
15533TIP3   OH246483   4.940   7.449   6.388
15533TIP3    H146484   4.937   7.478   6.295
15533TIP3    H246485   5.010   7.506   6.424
15534TIP3   OH246486   3.894   6.562   6.810
15534TIP3    H146487   3.974   6.592   6.858
15534TIP3    H246488   3.830   6.562   6.883
15535TIP3   OH246489   4.358   6.015   6.065
15535TIP3    H146490   4.431   5.976   6.015
15535TIP3    H246491   4.367   5.972   6.152
15536TIP3   OH246492   3.881   5.503   5.944
15536TIP3    H146493   3.846   5.424   5.991
15536TIP3    H246494   3.933   5.462   5.873
15537TIP3   OH246495   4.335   5.912   6.355
15537TIP3    H146496   4.245   5.948   6.369
15537TIP3    H246497   4.392   5.973   6.405
15538TIP3   OH246498   4.071   6.301   5.452
15538TIP3    H146499   3.998   6.237   5.439
15538TIP3    H246500   4.051   6.336   5.542
15539TIP3   OH246501   4.973   6.538   6.079
15539TIP3    H146502   4.996   6.589   5.998
15539TIP3    H246503   4.887   6.497   6.054
15540TIP3   OH246504   4.527   5.622   5.322
15540TIP3    H146505   4.430   5.606   5.328
15540TIP3    H246506   4.536   5.717   5.346
15541TIP3   OH246507   4.469   6.619   6.448
15541TIP3    H146508   4.496   6.602   6.538
15541TIP3    H246509   4.434   6.710   6.453
15542TIP3   OH246510   4.600   5.867   5.418
15542TIP3    H146511   4.697   5.873   5.433
15542TIP3    H246512   4.581   5.947   5.366
15543TIP3   OH246513   3.763   6.326   6.126
15543TIP3    H146514   3.801   6.297   6.040
15543TIP3    H246515   3.805   6.263   6.187
15544TIP3   OH246516   4.220   6.454   5.280
15544TIP3    H146517   4.174   6.540   5.285
15544TIP3    H246518   4.163   6.399   5.338
15545TIP3   OH246519   3.644   6.246   6.739
15545TIP3    H146520   3.664   6.232   6.834
15545TIP3    H246521   3.576   6.179   6.723
15546TIP3   OH246522   4.370   6.359   6.759
15546TIP3    H146523   4.311   6.300   6.710
15546TIP3    H246524   4.458   6.325   6.730
15547TIP3   OH246525   4.631   6.875   6.345
15547TIP3    H146526   4.535   6.879   6.356
15547TIP3    H246527   4.660   6.930   6.421
15548TIP3   OH246528   5.045   5.951   5.249
15548TIP3    H146529   4.982   5.908   5.187
15548TIP3    H246530   5.040   6.041   5.212
15549TIP3   OH246531   5.260   6.808   6.333
15549TIP3    H146532   5.162   6.805   6.325
15549TIP3    H246533   5.286   6.780   6.243
15550TIP3   OH246534   4.745   6.770   5.160
15550TIP3    H146535   4.714   6.702   5.220
15550TIP3    H246536   4.753   6.724   5.075
15551TIP3   OH246537   4.738   6.401   5.999
15551TIP3    H146538   4.644   6.376   6.011
15551TIP3    H246539   4.771   6.321   5.953
15552TIP3   OH246540   3.866   6.630   5.754
15552TIP3    H146541   3.868   6.709   5.698
15552TIP3    H246542   3.771   6.610   5.755
15553TIP3   OH246543   3.429   5.932   5.454
15553TIP3    H146544   3.475   6.017   5.473
15553TIP3    H246545   3.352   5.938   5.514
15554TIP3   OH246546   4.003   6.394   5.696
15554TIP3    H146547   3.970   6.484   5.714
15554TIP3    H246548   3.965   6.345   5.771
15555TIP3   OH246549   4.134   6.972   6.220
15555TIP3    H146550   4.176   7.045   6.169
15555TIP3    H246551   4.211   6.938   6.268
15556TIP3   OH246552   3.785   6.868   5.604
15556TIP3    H146553   3.699   6.877   5.649
15556TIP3    H246554   3.817   6.961   5.605
15557TIP3   OH246555   4.522   6.605   6.179
15557TIP3    H146556   4.512   6.604   6.277
15557TIP3    H246557   4.603   6.555   6.166
15558TIP3   OH246558   4.499   6.499   5.056
15558TIP3    H146559   4.544   6.474   5.140
15558TIP3    H246560   4.408   6.472   5.074
15559TIP3   OH246561   4.772   7.138   6.226
15559TIP3    H146562   4.690   7.085   6.218
15559TIP3    H246563   4.758   7.205   6.156
15560TIP3   OH246564   4.837   6.975   4.881
15560TIP3    H146565   4.877   7.050   4.834
15560TIP3    H246566   4.756   7.019   4.913
15561TIP3   OH246567   3.856   5.751   6.747
15561TIP3    H146568   3.759   5.755   6.760
15561TIP3    H246569   3.883   5.691   6.818
15562TIP3   OH246570   4.656   6.431   5.277
15562TIP3    H146571   4.647   6.367   5.350
15562TIP3    H246572   4.753   6.430   5.265
15563TIP3   OH246573   3.578   6.843   6.386
15563TIP3    H146574   3.618   6.755   6.388
15563TIP3    H246575   3.618   6.880   6.466
15564TIP3   OH246576   3.854   6.493   5.064
15564TIP3    H146577   3.872   6.414   5.010
15564TIP3    H246578   3.839   6.456   5.152
15565TIP3   OH246579   3.804   6.482   5.347
15565TIP3    H146580   3.885   6.461   5.396
15565TIP3    H246581   3.809   6.580   5.341
15566TIP3   OH246582   3.544   6.178   5.536
15566TIP3    H146583   3.478   6.224   5.592
15566TIP3    H246584   3.560   6.246   5.468
15567TIP3   OH246585   4.694   5.815   6.428
15567TIP3    H146586   4.774   5.852   6.469
15567TIP3    H246587   4.679   5.734   6.482
15568TIP3   OH246588   4.573   5.566   5.596
15568TIP3    H146589   4.560   5.590   5.502
15568TIP3    H246590   4.612   5.648   5.632
15569TIP3   OH246591   4.078   6.682   5.291
15569TIP3    H146592   3.989   6.714   5.318
15569TIP3    H246593   4.083   6.717   5.200
15570TIP3   OH246594   4.262   5.745   5.695
15570TIP3    H146595   4.326   5.818   5.678
15570TIP3    H246596   4.267   5.738   5.793
15571TIP3   OH246597   4.532   6.064   6.503
15571TIP3    H146598   4.553   6.118   6.582
15571TIP3    H246599   4.586   5.985   6.517
15572TIP3   OH246600   4.406   5.472   5.798
15572TIP3    H146601   4.400   5.549   5.858
15572TIP3    H246602   4.467   5.508   5.729
15573TIP3   OH246603   3.818   6.757   5.348
15573TIP3    H146604   3.788   6.826   5.284
15573TIP3    H246605   3.803   6.801   5.433
15574TIP3   OH246606   3.919   5.472   5.588
15574TIP3    H146607   3.915   5.562   5.625
15574TIP3    H246608   4.015   5.454   5.597
15575TIP3   OH246609   5.174   5.964   6.482
15575TIP3    H146610   5.076   5.964   6.492
15575TIP3    H246611   5.181   5.920   6.397
15576TIP3   OH246612   4.823   6.158   5.872
15576TIP3    H146613   4.747   6.100   5.885
15576TIP3    H246614   4.894   6.111   5.920
15577TIP3   OH246615   3.534   6.388   5.342
15577TIP3    H146616   3.605   6.454   5.352
15577TIP3    H246617   3.577   6.332   5.274
15578TIP3   OH246618   3.480   5.663   5.476
15578TIP3    H146619   3.480   5.761   5.472
15578TIP3    H246620   3.397   5.641   5.431
15579TIP3   OH246621   4.792   7.113   5.821
15579TIP3    H146622   4.749   7.160   5.746
15579TIP3    H246623   4.886   7.133   5.800
15580TIP3   OH246624   3.868   5.383   6.349
15580TIP3    H146625   3.837   5.349   6.262
15580TIP3    H246626   3.857   5.305   6.406
15581TIP3   OH246627   3.408   6.605   5.730
15581TIP3    H146628   3.334   6.634   5.783
15581TIP3    H246629   3.384   6.642   5.642
15582TIP3   OH246630   4.033   7.109   6.846
15582TIP3    H146631   4.129   7.101   6.857
15582TIP3    H246632   4.018   7.047   6.772
15583TIP3   OH246633   4.047   6.678   5.005
15583TIP3    H146634   3.972   6.616   5.022
15583TIP3    H246635   4.089   6.635   4.930
15584TIP3   OH246636   4.684   7.013   6.578
15584TIP3    H146637   4.676   6.945   6.648
15584TIP3    H246638   4.760   7.066   6.608
15585TIP3   OH246639   4.470   6.731   4.890
15585TIP3    H146640   4.510   6.662   4.947
15585TIP3    H246641   4.523   6.726   4.809
15586TIP3   OH246642   3.694   6.550   7.002
15586TIP3    H146643   3.711   6.454   7.006
15586TIP3    H246644   3.606   6.552   6.957
15587TIP3   OH246645   3.668   6.201   5.195
15587TIP3    H146646   3.727   6.170   5.265
15587TIP3    H246647   3.733   6.208   5.121
15588TIP3   OH246648   4.301   6.634   6.775
15588TIP3    H146649   4.261   6.652   6.688
15588TIP3    H246650   4.332   6.541   6.766
15589TIP3   OH246651   4.201   6.402   5.003
15589TIP3    H146652   4.191   6.415   5.099
15589TIP3    H246653   4.177   6.308   4.993
15590TIP3   OH246654   4.794   6.643   6.381
15590TIP3    H146655   4.869   6.687   6.337
15590TIP3    H246656   4.724   6.710   6.368
15591TIP3   OH246657   3.813   6.285   6.983
15591TIP3    H146658   3.887   6.228   6.961
15591TIP3    H246659   3.839   6.317   7.072
15592TIP3   OH246660   3.880   6.103   5.418
15592TIP3    H146661   3.852   6.060   5.500
15592TIP3    H246662   3.915   6.028   5.366
15593TIP3   OH246663   4.148   6.168   6.645
15593TIP3    H146664   4.070   6.228   6.646
15593TIP3    H246665   4.198   6.202   6.567
15594TIP3   OH246666   3.979   5.896   5.258
15594TIP3    H146667   3.952   5.903   5.164
15594TIP3    H246668   4.077   5.904   5.249
15595TIP3   OH246669   4.664   6.570   6.779
15595TIP3    H146670   4.744   6.547   6.730
15595TIP3    H246671   4.662   6.503   6.850
15596TIP3   OH246672   4.805   6.228   4.919
15596TIP3    H146673   4.779   6.183   4.836
15596TIP3    H246674   4.772   6.319   4.898
15597TIP3   OH246675   4.272   5.957   6.771
15597TIP3    H146676   4.271   5.877   6.714
15597TIP3    H246677   4.228   6.023   6.713
15598TIP3   OH246678   4.274   5.743   6.578
15598TIP3    H146679   4.301   5.784   6.494
15598TIP3    H246680   4.180   5.720   6.560
15599TIP3   OH246681   4.301   6.278   6.451
15599TIP3    H146682   4.385   6.289   6.405
15599TIP3    H246683   4.244   6.345   6.407
15600TIP3   OH246684   4.883   6.246   6.833
15600TIP3    H146685   4.932   6.163   6.841
15600TIP3    H246686   4.950   6.306   6.797
15601TIP3   OH246687   4.924   6.498   6.568
15601TIP3    H146688   4.865   6.552   6.510
15601TIP3    H246689   5.011   6.519   6.528
15602TIP3   OH246690   4.149   6.068   7.002
15602TIP3    H146691   4.081   6.000   7.016
15602TIP3    H246692   4.183   6.043   6.914
15603TIP3   OH246693   4.406   5.507   6.645
15603TIP3    H146694   4.357   5.588   6.623
15603TIP3    H246695   4.337   5.438   6.634
15604TIP3   OH246696   4.532   6.011   6.861
15604TIP3    H146697   4.519   5.998   6.957
15604TIP3    H246698   4.443   5.986   6.830
15605TIP3   OH246699   4.771   5.960   6.716
15605TIP3    H146700   4.696   5.962   6.778
15605TIP3    H246701   4.844   5.929   6.774
15606TIP3   OH246702   5.004   5.902   6.867
15606TIP3    H146703   5.014   5.806   6.885
15606TIP3    H246704   4.997   5.940   6.957
15607TIP3   OH246705   3.989   5.849   7.054
15607TIP3    H146706   3.994   5.757   7.020
15607TIP3    H246707   4.025   5.836   7.144
15608TIP3   OH246708   4.501   5.517   6.903
15608TIP3    H146709   4.568   5.445   6.897
15608TIP3    H246710   4.461   5.511   6.814
15609TIP3   OH246711   4.567   5.732   7.062
15609TIP3    H146712   4.545   5.660   6.997
15609TIP3    H246713   4.488   5.790   7.055
15610TIP3   OH246714   3.788   6.964   5.163
15610TIP3    H146715   3.883   6.955   5.144
15610TIP3    H246716   3.759   7.009   5.082
15611TIP3   OH246717   3.266   6.343   5.379
15611TIP3    H146718   3.361   6.365   5.364
15611TIP3    H246719   3.261   6.254   5.338
15612TIP3   OH246720   3.179   6.954   5.793
15612TIP3    H146721   3.113   6.892   5.754
15612TIP3    H246722   3.224   6.896   5.857
15613TIP3   OH246723   3.316   6.807   5.980
15613TIP3    H146724   3.306   6.731   6.039
15613TIP3    H246725   3.369   6.866   6.036
15614TIP3   OH246726   5.045   7.203   5.778
15614TIP3    H146727   5.069   7.240   5.864
15614TIP3    H246728   5.105   7.251   5.718
15615TIP3   OH246729   5.071   7.225   6.059
15615TIP3    H146730   5.031   7.136   6.056
15615TIP3    H246731   5.149   7.208   6.114
15616TIP3   OH246732   5.122   6.901   6.635
15616TIP3    H146733   5.047   6.911   6.697
15616TIP3    H246734   5.161   6.991   6.637
15617TIP3   OH246735   4.937   6.414   5.253
15617TIP3    H146736   5.003   6.480   5.224
15617TIP3    H246737   4.981   6.377   5.332
15618TIP3   OH246738   5.065   6.281   5.457
15618TIP3    H146739   4.998   6.241   5.516
15618TIP3    H246740   5.128   6.322   5.520
15619TIP3   OH246741   5.120   6.676   5.891
15619TIP3    H146742   5.170   6.612   5.837
15619TIP3    H246743   5.112   6.752   5.830
15620TIP3   OH246744   4.950   6.973   6.086
15620TIP3    H146745   4.879   7.020   6.135
15620TIP3    H246746   4.899   6.928   6.015
15621TIP3   OH246747   5.003   6.189   5.103
15621TIP3    H146748   4.932   6.193   5.035
15621TIP3    H246749   4.976   6.266   5.159
15622TIP3   OH246750   4.878   5.864   5.055
15622TIP3    H146751   4.826   5.905   4.985
15622TIP3    H246752   4.852   5.770   5.045
15623TIP3   OH246753   4.879   6.140   5.604
15623TIP3    H146754   4.885   6.043   5.599
15623TIP3    H246755   4.864   6.154   5.700
15624TIP3   OH246756   3.504   6.214   6.350
15624TIP3    H146757   3.502   6.182   6.257
15624TIP3    H246758   3.601   6.215   6.367
15625TIP3   OH246759   5.167   6.564   6.461
15625TIP3    H146760   5.240   6.499   6.450
15625TIP3    H246761   5.191   6.634   6.399
15626TIP3   OH246762   5.353   6.369   6.475
15626TIP3    H146763   5.278   6.321   6.515
15626TIP3    H246764   5.425   6.305   6.491
15627TIP3   OH246765   4.821   5.599   5.039
15627TIP3    H146766   4.893   5.566   5.096
15627TIP3    H246767   4.747   5.539   5.059
15628TIP3   OH246768   4.875   5.855   5.499
15628TIP3    H146769   4.915   5.766   5.514
15628TIP3    H246770   4.933   5.888   5.429
15629TIP3   OH246771   5.037   6.029   5.994
15629TIP3    H146772   5.122   6.055   5.953
15629TIP3    H246773   5.049   6.066   6.083
15630TIP3   OH246774   5.105   6.174   6.225
15630TIP3    H146775   5.027   6.207   6.273
15630TIP3    H246776   5.137   6.255   6.180
15631TIP3   OH246777   3.722   5.900   7.026
15631TIP3    H146778   3.820   5.893   7.027
15631TIP3    H246779   3.698   5.815   7.066
15632TIP3   OH246780   5.561   5.768   6.782
15632TIP3    H146781   5.617   5.700   6.739
15632TIP3    H246782   5.529   5.819   6.704
15633TIP3   OH246783   4.985   5.605   5.535
15633TIP3    H146784   5.031   5.589   5.620
15633TIP3    H246785   4.923   5.529   5.533
15634TIP3   OH246786   3.683   5.592   6.356
15634TIP3    H146787   3.745   5.517   6.365
15634TIP3    H246788   3.745   5.666   6.349
15635TIP3   OH246789   3.486   5.865   6.428
15635TIP3    H146790   3.535   5.859   6.344
15635TIP3    H246791   3.516   5.951   6.461
15636TIP3   OH246792   5.427   5.904   6.587
15636TIP3    H146793   5.341   5.945   6.607
15636TIP3    H246794   5.398   5.832   6.528
15637TIP3   OH246795   5.066   5.543   5.167
15637TIP3    H146796   5.108   5.473   5.113
15637TIP3    H246797   5.130   5.616   5.162
15638TIP3   OH246798   3.470   5.373   5.932
15638TIP3    H146799   3.376   5.366   5.958
15638TIP3    H246800   3.465   5.430   5.852
15639TIP3   OH246801   4.628   7.072   5.436
15639TIP3    H146802   4.679   7.060   5.353
15639TIP3    H246803   4.681   7.139   5.482
15640TIP3   OH246804   3.690   5.450   6.744
15640TIP3    H146805   3.639   5.444   6.826
15640TIP3    H246806   3.623   5.487   6.684
15641TIP3   OH246807   3.725   6.877   6.814
15641TIP3    H146808   3.630   6.860   6.801
15641TIP3    H246809   3.735   6.861   6.909
15642TIP3   OH246810   3.906   6.909   6.367
15642TIP3    H146811   3.861   6.986   6.326
15642TIP3    H246812   3.994   6.921   6.325
15643TIP3   OH246813   4.351   7.155   6.506
15643TIP3    H146814   4.393   7.155   6.594
15643TIP3    H246815   4.417   7.205   6.454
15644TIP3   OH246816   4.531   7.305   6.365
15644TIP3    H146817   4.604   7.257   6.324
15644TIP3    H246818   4.581   7.365   6.426
15645TIP3   OH246819   5.326   5.666   6.465
15645TIP3    H146820   5.235   5.659   6.431
15645TIP3    H246821   5.358   5.573   6.454
15646TIP3   OH246822   3.589   7.196   6.402
15646TIP3    H146823   3.500   7.228   6.377
15646TIP3    H246824   3.567   7.120   6.456
15647TIP3   OH246825   3.818   7.144   6.250
15647TIP3    H146826   3.737   7.173   6.296
15647TIP3    H246827   3.801   7.174   6.159
15648TIP3   OH246828   4.245   7.172   6.049
15648TIP3    H146829   4.179   7.194   5.981
15648TIP3    H246830   4.260   7.259   6.091
15649TIP3   OH246831   4.515   7.110   6.099
15649TIP3    H146832   4.422   7.130   6.079
15649TIP3    H246833   4.560   7.186   6.058
15650TIP3   OH246834   4.719   7.302   6.014
15650TIP3    H146835   4.707   7.388   5.968
15650TIP3    H246836   4.747   7.244   5.940
15651TIP3   OH246837   3.496   6.958   6.142
15651TIP3    H146838   3.527   6.929   6.231
15651TIP3    H246839   3.567   6.918   6.087
15652TIP3   OH246840   3.688   6.832   5.996
15652TIP3    H146841   3.705   6.747   6.042
15652TIP3    H246842   3.778   6.869   5.989
15653TIP3   OH246843   3.954   6.926   5.998
15653TIP3    H146844   3.986   6.836   5.982
15653TIP3    H246845   4.002   6.946   6.081
15654TIP3   OH246846   4.531   5.581   6.083
15654TIP3    H146847   4.488   5.512   6.136
15654TIP3    H246848   4.604   5.533   6.040
15655TIP3   OH246849   5.054   5.465   5.991
15655TIP3    H146850   5.090   5.515   5.915
15655TIP3    H246851   4.958   5.480   5.982
15656TIP3   OH246852   5.149   5.563   5.753
15656TIP3    H146853   5.222   5.511   5.714
15656TIP3    H246854   5.182   5.654   5.738
15657TIP3   OH246855   3.779   5.291   6.100
15657TIP3    H146856   3.687   5.258   6.101
15657TIP3    H246857   3.828   5.206   6.096
15658TIP3   OH246858   3.561   5.165   5.752
15658TIP3    H146859   3.599   5.223   5.685
15658TIP3    H246860   3.535   5.228   5.822
15659TIP3   OH246861   4.223   5.324   5.980
15659TIP3    H146862   4.282   5.373   5.922
15659TIP3    H246863   4.245   5.361   6.067
15660TIP3   OH246864   4.771   5.469   5.964
15660TIP3    H146865   4.771   5.430   5.876
15660TIP3    H246866   4.757   5.390   6.021
15661TIP3   OH246867   4.798   5.394   5.528
15661TIP3    H146868   4.711   5.434   5.542
15661TIP3    H246869   4.786   5.308   5.574
15662TIP3   OH246870   3.278   6.731   5.529
15662TIP3    H146871   3.191   6.700   5.498
15662TIP3    H246872   3.273   6.825   5.503
15663TIP3   OH246873   3.683   5.322   5.508
15663TIP3    H146874   3.734   5.258   5.456
15663TIP3    H246875   3.754   5.376   5.548
15664TIP3   OH246876   4.197   5.494   5.610
15664TIP3    H146877   4.257   5.450   5.673
15664TIP3    H246878   4.216   5.587   5.635
15665TIP3   OH246879   4.053   6.930   5.106
15665TIP3    H146880   4.143   6.947   5.073
15665TIP3    H246881   4.035   6.848   5.054
15666TIP3   OH246882   4.773   7.038   5.203
15666TIP3    H146883   4.765   6.940   5.190
15666TIP3    H246884   4.728   7.070   5.122
15667TIP3   OH246885   3.987   5.573   6.992
15667TIP3    H146886   3.952   5.502   7.048
15667TIP3    H246887   4.082   5.572   7.019
15668TIP3   OH246888   4.237   5.569   7.111
15668TIP3    H146889   4.321   5.543   7.071
15668TIP3    H246890   4.224   5.499   7.178
15669TIP3   OH246891   3.359   6.760   5.162
15669TIP3    H146892   3.362   6.784   5.256
15669TIP3    H246893   3.447   6.717   5.149
15670TIP3   OH246894   5.062   5.630   6.898
15670TIP3    H146895   5.080   5.599   6.989
15670TIP3    H246896   5.150   5.625   6.857
15671TIP3   OH246897   5.002   7.182   6.389
15671TIP3    H146898   4.922   7.152   6.341
15671TIP3    H246899   4.984   7.278   6.393
15672TIP3   OH246900   6.265   6.554   5.157
15672TIP3    H146901   6.239   6.646   5.136
15672TIP3    H246902   6.188   6.507   5.123
15673TIP3   OH246903   6.269   6.554   5.536
15673TIP3    H146904   6.299   6.522   5.623
15673TIP3    H246905   6.224   6.476   5.500
15674TIP3   OH246906   5.567   6.449   5.900
15674TIP3    H146907   5.599   6.383   5.964
15674TIP3    H246908   5.641   6.511   5.900
15675TIP3   OH246909   6.512   6.855   5.219
15675TIP3    H146910   6.493   6.794   5.291
15675TIP3    H246911   6.536   6.936   5.268
15676TIP3   OH246912   5.537   6.859   5.630
15676TIP3    H146913   5.529   6.762   5.632
15676TIP3    H246914   5.634   6.869   5.617
15677TIP3   OH246915   5.245   6.063   5.412
15677TIP3    H146916   5.197   6.146   5.429
15677TIP3    H246917   5.173   6.009   5.375
15678TIP3   OH246918   5.302   6.351   5.585
15678TIP3    H146919   5.352   6.274   5.620
15678TIP3    H246920   5.362   6.384   5.516
15679TIP3   OH246921   6.152   7.320   5.230
15679TIP3    H146922   6.204   7.246   5.193
15679TIP3    H246923   6.147   7.298   5.324
15680TIP3   OH246924   6.066   6.778   5.588
15680TIP3    H146925   6.104   6.705   5.537
15680TIP3    H246926   6.148   6.826   5.611
15681TIP3   OH246927   7.076   6.101   5.585
15681TIP3    H146928   7.106   6.183   5.630
15681TIP3    H246929   7.092   6.123   5.492
15682TIP3   OH246930   6.477   6.284   5.618
15682TIP3    H146931   6.519   6.199   5.640
15682TIP3    H246932   6.446   6.267   5.528
15683TIP3   OH246933   5.814   5.941   5.583
15683TIP3    H146934   5.794   6.014   5.520
15683TIP3    H246935   5.763   5.868   5.541
15684TIP3   OH246936   6.507   6.030   5.204
15684TIP3    H146937   6.578   6.015   5.271
15684TIP3    H246938   6.561   6.067   5.132
15685TIP3   OH246939   5.449   6.144   5.690
15685TIP3    H146940   5.531   6.124   5.738
15685TIP3    H246941   5.461   6.087   5.611
15686TIP3   OH246942   5.890   6.341   5.482
15686TIP3    H146943   5.983   6.315   5.497
15686TIP3    H246944   5.850   6.256   5.450
15687TIP3   OH246945   7.152   6.309   5.751
15687TIP3    H146946   7.067   6.356   5.734
15687TIP3    H246947   7.162   6.328   5.846
15688TIP3   OH246948   5.812   5.925   6.018
15688TIP3    H146949   5.751   5.962   5.951
15688TIP3    H246950   5.760   5.941   6.099
15689TIP3   OH246951   6.160   6.777   5.025
15689TIP3    H146952   6.116   6.761   4.939
15689TIP3    H246953   6.118   6.861   5.051
15690TIP3   OH246954   5.921   6.701   5.813
15690TIP3    H146955   5.857   6.767   5.850
15690TIP3    H246956   5.954   6.749   5.734
15691TIP3   OH246957   6.716   6.037   5.377
15691TIP3    H146958   6.711   5.983   5.458
15691TIP3    H246959   6.771   6.112   5.406
15692TIP3   OH246960   5.683   6.040   5.802
15692TIP3    H146961   5.745   6.113   5.826
15692TIP3    H246962   5.732   5.999   5.728
15693TIP3   OH246963   5.752   6.894   5.914
15693TIP3    H146964   5.728   6.979   5.872
15693TIP3    H246965   5.671   6.880   5.967
15694TIP3   OH246966   5.141   6.583   5.147
15694TIP3    H146967   5.099   6.612   5.064
15694TIP3    H246968   5.171   6.669   5.185
15695TIP3   OH246969   6.575   7.091   5.382
15695TIP3    H146970   6.487   7.095   5.426
15695TIP3    H246971   6.576   7.179   5.338
15696TIP3   OH246972   6.869   6.003   5.751
15696TIP3    H146973   6.782   6.030   5.719
15696TIP3    H246974   6.929   6.034   5.679
15697TIP3   OH246975   6.166   5.643   5.730
15697TIP3    H146976   6.156   5.548   5.751
15697TIP3    H246977   6.089   5.681   5.778
15698TIP3   OH246978   6.286   7.142   5.063
15698TIP3    H146979   6.338   7.062   5.037
15698TIP3    H246980   6.344   7.211   5.024
15699TIP3   OH246981   6.429   6.927   4.965
15699TIP3    H146982   6.379   6.851   4.932
15699TIP3    H246983   6.464   6.893   5.050
15700TIP3   OH246984   6.804   7.014   5.731
15700TIP3    H146985   6.791   6.942   5.667
15700TIP3    H246986   6.776   7.093   5.680
15701TIP3   OH246987   6.096   6.404   4.987
15701TIP3    H146988   6.017   6.459   4.969
15701TIP3    H246989   6.142   6.408   4.901
15702TIP3   OH246990   6.059   6.181   4.710
15702TIP3    H146991   6.121   6.241   4.756
15702TIP3    H246992   6.122   6.128   4.657
15703TIP3   OH246993   7.000   6.650   5.575
15703TIP3    H146994   6.916   6.702   5.580
15703TIP3    H246995   7.031   6.675   5.485
15704TIP3   OH246996   6.444   6.487   4.961
15704TIP3    H146997   6.389   6.513   5.038
15704TIP3    H246998   6.528   6.465   5.006
15705TIP3   OH246999   6.681   6.527   5.871
15705TIP3    H147000   6.681   6.610   5.923
15705TIP3    H247001   6.595   6.534   5.826
15706TIP3   OH247002   5.675   6.484   5.377
15706TIP3    H147003   5.636   6.428   5.307
15706TIP3    H247004   5.754   6.433   5.404
15707TIP3   OH247005   5.802   6.886   5.529
15707TIP3    H147006   5.784   6.859   5.438
15707TIP3    H247007   5.895   6.859   5.541
15708TIP3   OH247008   5.821   6.456   5.731
15708TIP3    H147009   5.847   6.438   5.639
15708TIP3    H247010   5.856   6.546   5.747
15709TIP3   OH247011   6.342   7.103   5.522
15709TIP3    H147012   6.348   7.175   5.586
15709TIP3    H247013   6.319   7.027   5.577
15710TIP3   OH247014   5.946   7.015   6.081
15710TIP3    H147015   5.876   7.078   6.109
15710TIP3    H247016   5.893   6.957   6.023
15711TIP3   OH247017   6.288   6.342   4.786
15711TIP3    H147018   6.344   6.405   4.836
15711TIP3    H247019   6.312   6.366   4.693
15712TIP3   OH247020   5.706   6.569   6.156
15712TIP3    H147021   5.709   6.657   6.199
15712TIP3    H247022   5.610   6.549   6.166
15713TIP3   OH247023   6.029   7.026   5.062
15713TIP3    H147024   6.107   7.083   5.080
15713TIP3    H247025   5.967   7.090   5.024
15714TIP3   OH247026   5.744   7.187   6.141
15714TIP3    H147027   5.710   7.188   6.050
15714TIP3    H247028   5.664   7.162   6.193
15715TIP3   OH247029   6.794   5.597   4.832
15715TIP3    H147030   6.715   5.616   4.887
15715TIP3    H247031   6.808   5.681   4.785
15716TIP3   OH247032   5.546   6.327   5.175
15716TIP3    H147033   5.480   6.376   5.121
15716TIP3    H247034   5.495   6.248   5.198
15717TIP3   OH247035   6.599   6.956   4.379
15717TIP3    H147036   6.607   7.053   4.368
15717TIP3    H247037   6.692   6.928   4.370
15718TIP3   OH247038   5.324   6.713   6.089
15718TIP3    H147039   5.257   6.694   6.020
15718TIP3    H247040   5.360   6.624   6.109
15719TIP3   OH247041   5.179   6.905   5.725
15719TIP3    H147042   5.275   6.905   5.712
15719TIP3    H247043   5.166   6.987   5.775
15720TIP3   OH247044   7.039   7.359   5.780
15720TIP3    H147045   7.034   7.263   5.790
15720TIP3    H247046   6.951   7.384   5.818
15721TIP3   OH247047   6.146   7.126   5.918
15721TIP3    H147048   6.164   7.220   5.934
15721TIP3    H247049   6.071   7.108   5.978
15722TIP3   OH247050   5.912   7.271   4.864
15722TIP3    H147051   5.862   7.262   4.780
15722TIP3    H247052   5.884   7.359   4.895
15723TIP3   OH247053   5.347   7.121   5.245
15723TIP3    H147054   5.398   7.114   5.329
15723TIP3    H247055   5.284   7.048   5.257
15724TIP3   OH247056   6.110   7.174   4.502
15724TIP3    H147057   6.170   7.105   4.467
15724TIP3    H247058   6.144   7.185   4.594
15725TIP3   OH247059   6.162   7.220   4.772
15725TIP3    H147060   6.073   7.232   4.812
15725TIP3    H247061   6.213   7.189   4.848
15726TIP3   OH247062   6.935   6.489   6.051
15726TIP3    H147063   6.852   6.502   6.002
15726TIP3    H247064   6.950   6.393   6.039
15727TIP3   OH247065   5.531   6.893   6.073
15727TIP3    H147066   5.577   6.880   6.159
15727TIP3    H247067   5.455   6.833   6.082
15728TIP3   OH247068   5.928   5.721   5.859
15728TIP3    H147069   5.839   5.689   5.834
15728TIP3    H247070   5.902   5.801   5.908
15729TIP3   OH247071   6.463   5.836   6.055
15729TIP3    H147072   6.532   5.806   6.118
15729TIP3    H247073   6.380   5.814   6.102
15730TIP3   OH247074   6.701   6.264   5.973
15730TIP3    H147075   6.652   6.261   6.058
15730TIP3    H247076   6.678   6.352   5.938
15731TIP3   OH247077   6.365   6.385   4.530
15731TIP3    H147078   6.324   6.369   4.443
15731TIP3    H247079   6.438   6.443   4.505
15732TIP3   OH247080   6.052   5.760   4.828
15732TIP3    H147081   6.038   5.780   4.923
15732TIP3    H247082   6.127   5.701   4.831
15733TIP3   OH247083   5.863   6.235   5.881
15733TIP3    H147084   5.809   6.255   5.961
15733TIP3    H247085   5.846   6.316   5.827
15734TIP3   OH247086   5.745   6.120   5.392
15734TIP3    H147087   5.651   6.096   5.411
15734TIP3    H247088   5.756   6.078   5.304
15735TIP3   OH247089   6.233   6.204   5.118
15735TIP3    H147090   6.180   6.278   5.079
15735TIP3    H247091   6.289   6.178   5.043
15736TIP3   OH247092   6.410   6.490   6.212
15736TIP3    H147093   6.390   6.414   6.271
15736TIP3    H247094   6.505   6.502   6.231
15737TIP3   OH247095   6.392   6.236   5.360
15737TIP3    H147096   6.332   6.267   5.290
15737TIP3    H247097   6.424   6.154   5.316
15738TIP3   OH247098   5.683   6.264   6.089
15738TIP3    H147099   5.696   6.330   6.159
15738TIP3    H247100   5.669   6.182   6.139
15739TIP3   OH247101   5.723   5.702   4.806
15739TIP3    H147102   5.712   5.734   4.899
15739TIP3    H247103   5.657   5.761   4.762
15740TIP3   OH247104   5.272   5.787   5.667
15740TIP3    H147105   5.348   5.818   5.722
15740TIP3    H247106   5.314   5.752   5.587
15741TIP3   OH247107   5.248   5.769   5.184
15741TIP3    H147108   5.288   5.812   5.105
15741TIP3    H247109   5.185   5.838   5.210
15742TIP3   OH247110   6.399   6.482   5.784
15742TIP3    H147111   6.436   6.412   5.725
15742TIP3    H247112   6.373   6.428   5.861
15743TIP3   OH247113   6.069   5.943   5.452
15743TIP3    H147114   5.988   5.943   5.507
15743TIP3    H247115   6.139   5.940   5.520
15744TIP3   OH247116   5.506   6.000   5.461
15744TIP3    H147117   5.411   6.009   5.436
15744TIP3    H247118   5.526   5.907   5.441
15745TIP3   OH247119   5.778   5.990   5.152
15745TIP3    H147120   5.870   6.015   5.133
15745TIP3    H247121   5.729   6.016   5.070
15746TIP3   OH247122   6.564   6.022   5.657
15746TIP3    H147123   6.529   6.032   5.749
15746TIP3    H247124   6.500   5.959   5.621
15747TIP3   OH247125   5.623   6.018   4.930
15747TIP3    H147126   5.549   5.980   4.880
15747TIP3    H247127   5.672   6.062   4.857
15748TIP3   OH247128   6.732   7.700   5.873
15748TIP3    H147129   6.725   7.726   5.779
15748TIP3    H247130   6.803   7.758   5.905
15749TIP3   OH247131   5.689   6.816   6.298
15749TIP3    H147132   5.762   6.856   6.348
15749TIP3    H247133   5.620   6.814   6.367
15750TIP3   OH247134   6.155   6.271   5.553
15750TIP3    H147135   6.228   6.232   5.504
15750TIP3    H247136   6.162   6.227   5.640
15751TIP3   OH247137   5.675   5.757   5.432
15751TIP3    H147138   5.638   5.681   5.481
15751TIP3    H247139   5.739   5.714   5.374
15752TIP3   OH247140   6.132   6.169   5.837
15752TIP3    H147141   6.041   6.202   5.855
15752TIP3    H247142   6.188   6.227   5.892
15753TIP3   OH247143   5.870   6.557   4.939
15753TIP3    H147144   5.795   6.495   4.926
15753TIP3    H247145   5.849   6.593   5.029
15754TIP3   OH247146   6.767   6.794   5.566
15754TIP3    H147147   6.792   6.845   5.485
15754TIP3    H247148   6.681   6.754   5.540
15755TIP3   OH247149   6.319   5.874   4.793
15755TIP3    H147150   6.223   5.886   4.792
15755TIP3    H247151   6.350   5.965   4.815
15756TIP3   OH247152   6.266   6.892   5.995
15756TIP3    H147153   6.203   6.837   5.950
15756TIP3    H247154   6.244   6.981   5.959
15757TIP3   OH247155   6.399   6.114   4.896
15757TIP3    H147156   6.494   6.127   4.916
15757TIP3    H247157   6.376   6.196   4.848
15758TIP3   OH247158   5.561   6.580   5.614
15758TIP3    H147159   5.598   6.553   5.528
15758TIP3    H247160   5.598   6.514   5.675
15759TIP3   OH247161   6.016   6.710   4.763
15759TIP3    H147162   5.967   6.795   4.764
15759TIP3    H247163   5.959   6.655   4.822
15760TIP3   OH247164   5.443   6.497   6.224
15760TIP3    H147165   5.458   6.485   6.320
15760TIP3    H247166   5.370   6.435   6.207
15761TIP3   OH247167   6.192   6.652   6.236
15761TIP3    H147168   6.115   6.606   6.199
15761TIP3    H247169   6.262   6.587   6.214
15762TIP3   OH247170   6.842   6.211   4.738
15762TIP3    H147171   6.779   6.165   4.677
15762TIP3    H247172   6.836   6.300   4.698
15763TIP3   OH247173   7.054   7.065   5.819
15763TIP3    H147174   6.956   7.061   5.808
15763TIP3    H247175   7.081   7.037   5.729
15764TIP3   OH247176   6.542   7.028   4.647
15764TIP3    H147177   6.509   6.961   4.709
15764TIP3    H247178   6.549   6.979   4.563
15765TIP3   OH247179   6.531   6.656   5.488
15765TIP3    H147180   6.438   6.629   5.498
15765TIP3    H247181   6.568   6.579   5.441
15766TIP3   OH247182   5.663   6.884   5.237
15766TIP3    H147183   5.665   6.967   5.184
15766TIP3    H247184   5.568   6.874   5.249
15767TIP3   OH247185   5.226   6.189   4.941
15767TIP3    H147186   5.270   6.274   4.960
15767TIP3    H247187   5.148   6.195   5.001
15768TIP3   OH247188   5.799   6.650   5.183
15768TIP3    H147189   5.765   6.741   5.197
15768TIP3    H247190   5.760   6.603   5.259
15769TIP3   OH247191   5.931   7.228   5.706
15769TIP3    H147192   5.965   7.301   5.649
15769TIP3    H247193   6.013   7.199   5.747
15770TIP3   OH247194   5.585   7.119   5.091
15770TIP3    H147195   5.498   7.134   5.133
15770TIP3    H247196   5.622   7.210   5.096
15771TIP3   OH247197   6.321   6.859   5.676
15771TIP3    H147198   6.344   6.860   5.769
15771TIP3    H247199   6.397   6.812   5.638
15772TIP3   OH247200   6.293   6.754   4.546
15772TIP3    H147201   6.344   6.729   4.627
15772TIP3    H247202   6.203   6.731   4.573
15773TIP3   OH247203   6.633   7.231   4.368
15773TIP3    H147204   6.672   7.306   4.319
15773TIP3    H247205   6.552   7.276   4.402
15774TIP3   OH247206   5.651   6.007   6.234
15774TIP3    H147207   5.555   6.011   6.246
15774TIP3    H247208   5.678   5.946   6.304
15775TIP3   OH247209   6.452   6.685   4.762
15775TIP3    H147210   6.444   6.621   4.836
15775TIP3    H247211   6.549   6.687   4.751
15776TIP3   OH247212   5.368   7.092   5.865
15776TIP3    H147213   5.424   7.021   5.901
15776TIP3    H247214   5.395   7.167   5.919
15777TIP3   OH247215   5.659   6.737   4.547
15777TIP3    H147216   5.674   6.645   4.520
15777TIP3    H247217   5.640   6.727   4.643
15778TIP3   OH247218   5.606   6.741   4.820
15778TIP3    H147219   5.677   6.720   4.881
15778TIP3    H247220   5.606   6.839   4.824
15779TIP3   OH247221   5.340   6.435   5.024
15779TIP3    H147222   5.274   6.481   5.080
15779TIP3    H247223   5.353   6.504   4.956
15780TIP3   OH247224   6.488   6.073   5.917
15780TIP3    H147225   6.570   6.109   5.953
15780TIP3    H247226   6.475   5.992   5.970
15781TIP3   OH247227   6.366   5.826   5.077
15781TIP3    H147228   6.361   5.855   4.985
15781TIP3    H247229   6.409   5.903   5.120
15782TIP3   OH247230   5.869   6.937   4.767
15782TIP3    H147231   5.783   6.965   4.804
15782TIP3    H247232   5.889   7.013   4.711
15783TIP3   OH247233   6.058   5.998   5.179
15783TIP3    H147234   6.122   6.071   5.162
15783TIP3    H247235   6.063   5.991   5.277
15784TIP3   OH247236   6.327   6.319   5.990
15784TIP3    H147237   6.349   6.369   6.071
15784TIP3    H247238   6.382   6.240   5.999
15785TIP3   OH247239   6.204   5.729   5.283
15785TIP3    H147240   6.203   5.801   5.349
15785TIP3    H247241   6.265   5.767   5.216
15786TIP3   OH247242   5.612   7.012   4.836
15786TIP3    H147243   5.583   7.083   4.773
15786TIP3    H247244   5.598   7.057   4.922
15787TIP3   OH247245   5.723   5.725   5.081
15787TIP3    H147246   5.704   5.814   5.117
15787TIP3    H247247   5.819   5.722   5.098
15788TIP3   OH247248   6.968   6.222   5.967
15788TIP3    H147249   6.870   6.222   5.977
15788TIP3    H247250   6.976   6.171   5.886
15789TIP3   OH247251   6.620   6.415   5.358
15789TIP3    H147252   6.543   6.356   5.372
15789TIP3    H247253   6.691   6.368   5.407
15790TIP3   OH247254   5.331   6.644   4.831
15790TIP3    H147255   5.393   6.718   4.839
15790TIP3    H247256   5.377   6.592   4.762
15791TIP3   OH247257   5.276   5.920   4.958
15791TIP3    H147258   5.277   6.018   4.957
15791TIP3    H247259   5.187   5.902   4.927
15792TIP3   OH247260   6.590   7.352   5.297
15792TIP3    H147261   6.546   7.409   5.231
15792TIP3    H247262   6.682   7.382   5.285
15793TIP3   OH247263   5.664   5.639   5.835
15793TIP3    H147264   5.632   5.604   5.749
15793TIP3    H247265   5.654   5.561   5.894
15794TIP3   OH247266   5.199   6.849   5.216
15794TIP3    H147267   5.131   6.886   5.273
15794TIP3    H247268   5.179   6.894   5.132
15795TIP3   OH247269   5.360   7.400   6.286
15795TIP3    H147270   5.445   7.401   6.335
15795TIP3    H247271   5.338   7.305   6.287
15796TIP3   OH247272   5.840   7.357   6.346
15796TIP3    H147273   5.930   7.387   6.331
15796TIP3    H247274   5.818   7.309   6.264
15797TIP3   OH247275   5.824   6.940   4.458
15797TIP3    H147276   5.768   6.869   4.498
15797TIP3    H247277   5.899   6.887   4.426
15798TIP3   OH247278   6.478   7.259   6.126
15798TIP3    H147279   6.486   7.214   6.041
15798TIP3    H247280   6.531   7.337   6.106
15799TIP3   OH247281   6.260   6.981   4.372
15799TIP3    H147282   6.305   6.917   4.430
15799TIP3    H247283   6.316   6.981   4.292
15800TIP3   OH247284   5.489   6.805   6.488
15800TIP3    H147285   5.503   6.709   6.492
15800TIP3    H247286   5.401   6.810   6.445
15801TIP3   OH247287   5.464   6.455   4.682
15801TIP3    H147288   5.523   6.430   4.755
15801TIP3    H247289   5.530   6.460   4.609
15802TIP3   OH247290   5.978   6.659   4.492
15802TIP3    H147291   5.980   6.669   4.589
15802TIP3    H247292   5.977   6.561   4.485
15803TIP3   OH247293   6.587   6.900   5.867
15803TIP3    H147294   6.665   6.944   5.827
15803TIP3    H247295   6.524   6.972   5.861
15804TIP3   OH247296   5.609   6.541   6.472
15804TIP3    H147297   5.681   6.481   6.452
15804TIP3    H247298   5.635   6.575   6.559
15805TIP3   OH247299   5.675   6.360   4.903
15805TIP3    H147300   5.646   6.322   4.988
15805TIP3    H247301   5.710   6.283   4.855
15806TIP3   OH247302   5.950   6.434   6.138
15806TIP3    H147303   5.866   6.485   6.138
15806TIP3    H247304   5.996   6.469   6.059
15807TIP3   OH247305   5.777   6.148   4.745
15807TIP3    H147306   5.749   6.159   4.652
15807TIP3    H247307   5.874   6.160   4.737
15808TIP3   OH247308   6.603   6.484   4.404
15808TIP3    H147309   6.573   6.439   4.322
15808TIP3    H247310   6.570   6.574   4.384
15809TIP3   OH247311   6.068   6.213   6.258
15809TIP3    H147312   6.067   6.133   6.201
15809TIP3    H247313   6.025   6.280   6.200
15810TIP3   OH247314   6.069   6.002   6.066
15810TIP3    H147315   6.097   6.039   5.980
15810TIP3    H247316   5.976   5.977   6.048
15811TIP3   OH247317   6.108   6.555   5.944
15811TIP3    H147318   6.177   6.538   5.879
15811TIP3    H247319   6.042   6.606   5.892
15812TIP3   OH247320   6.676   6.503   6.320
15812TIP3    H147321   6.727   6.421   6.328
15812TIP3    H247322   6.744   6.564   6.287
15813TIP3   OH247323   6.723   6.749   6.050
15813TIP3    H147324   6.666   6.806   5.994
15813TIP3    H247325   6.812   6.773   6.014
15814TIP3   OH247326   5.948   6.324   6.488
15814TIP3    H147327   5.878   6.258   6.503
15814TIP3    H247328   5.979   6.298   6.399
15815TIP3   OH247329   6.202   5.764   6.132
15815TIP3    H147330   6.152   5.845   6.110
15815TIP3    H247331   6.134   5.695   6.121
15816TIP3   OH247332   6.326   6.271   6.349
15816TIP3    H147333   6.315   6.254   6.444
15816TIP3    H247334   6.237   6.244   6.317
15817TIP3   OH247335   6.567   6.220   6.204
15817TIP3    H147336   6.493   6.217   6.266
15817TIP3    H247337   6.642   6.188   6.258
15818TIP3   OH247338   6.793   6.158   6.354
15818TIP3    H147339   6.809   6.062   6.370
15818TIP3    H247340   6.793   6.195   6.444
15819TIP3   OH247341   5.786   6.106   6.541
15819TIP3    H147342   5.789   6.015   6.506
15819TIP3    H247343   5.821   6.092   6.631
15820TIP3   OH247344   6.297   5.775   6.389
15820TIP3    H147345   6.365   5.704   6.385
15820TIP3    H247346   6.258   5.767   6.300
15821TIP3   OH247347   6.363   5.988   6.549
15821TIP3    H147348   6.343   5.916   6.485
15821TIP3    H247349   6.283   6.045   6.541
15822TIP3   OH247350   5.581   7.210   4.644
15822TIP3    H147351   5.678   7.209   4.629
15822TIP3    H247352   5.554   7.266   4.570
15823TIP3   OH247353   5.063   6.599   4.865
15823TIP3    H147354   5.158   6.621   4.852
15823TIP3    H247355   5.058   6.510   4.823
15824TIP3   OH247356   4.976   7.209   5.279
15824TIP3    H147357   4.909   7.147   5.243
15824TIP3    H247358   5.021   7.152   5.344
15825TIP3   OH247359   5.116   7.060   5.462
15825TIP3    H147360   5.101   6.990   5.528
15825TIP3    H247361   5.166   7.124   5.516
15826TIP3   OH247362   6.845   7.450   5.266
15826TIP3    H147363   6.859   7.488   5.354
15826TIP3    H247364   6.889   7.515   5.209
15827TIP3   OH247365   6.875   7.482   5.545
15827TIP3    H147366   6.814   7.406   5.545
15827TIP3    H247367   6.943   7.450   5.606
15828TIP3   OH247368   6.916   7.158   6.124
15828TIP3    H147369   6.840   7.162   6.186
15828TIP3    H247370   6.950   7.249   6.130
15829TIP3   OH247371   6.732   6.672   4.738
15829TIP3    H147372   6.797   6.739   4.709
15829TIP3    H247373   6.777   6.635   4.817
15830TIP3   OH247374   6.859   6.540   4.945
15830TIP3    H147375   6.789   6.497   4.998
15830TIP3    H247376   6.908   6.590   5.012
15831TIP3   OH247377   6.917   6.931   5.379
15831TIP3    H147378   6.964   6.876   5.315
15831TIP3    H247379   6.905   7.013   5.328
15832TIP3   OH247380   6.732   7.239   5.577
15832TIP3    H147381   6.658   7.262   5.638
15832TIP3    H247382   6.683   7.196   5.504
15833TIP3   OH247383   6.798   6.447   4.591
15833TIP3    H147384   6.728   6.449   4.521
15833TIP3    H247385   6.770   6.524   4.643
15834TIP3   OH247386   6.672   6.120   4.546
15834TIP3    H147387   6.625   6.164   4.474
15834TIP3    H247388   6.645   6.027   4.532
15835TIP3   OH247389   6.676   6.397   5.090
15835TIP3    H147390   6.681   6.300   5.084
15835TIP3    H247391   6.660   6.410   5.187
15836TIP3   OH247392   5.301   6.465   5.839
15836TIP3    H147393   5.298   6.438   5.745
15836TIP3    H247394   5.398   6.469   5.853
15837TIP3   OH247395   6.965   6.821   5.947
15837TIP3    H147396   7.038   6.756   5.937
15837TIP3    H247397   6.990   6.892   5.886
15838TIP3   OH247398   7.150   6.626   5.960
15838TIP3    H147399   7.075   6.576   6.001
15838TIP3    H247400   7.222   6.562   5.976
15839TIP3   OH247401   6.614   5.854   4.534
15839TIP3    H147402   6.698   5.830   4.579
15839TIP3    H247403   6.553   5.788   4.568
15840TIP3   OH247404   6.670   6.113   4.986
15840TIP3    H147405   6.711   6.024   5.002
15840TIP3    H247406   6.729   6.146   4.915
15841TIP3   OH247407   6.834   6.287   5.481
15841TIP3    H147408   6.922   6.312   5.445
15841TIP3    H247409   6.843   6.324   5.571
15842TIP3   OH247410   6.900   6.430   5.711
15842TIP3    H147411   6.823   6.464   5.761
15842TIP3    H247412   6.933   6.512   5.668
15843TIP3   OH247413   5.519   6.157   6.515
15843TIP3    H147414   5.617   6.149   6.514
15843TIP3    H247415   5.494   6.071   6.553
15844TIP3   OH247416   7.349   6.020   6.267
15844TIP3    H147417   7.410   5.954   6.227
15844TIP3    H247418   7.325   6.075   6.190
15845TIP3   OH247419   6.777   5.863   5.023
15845TIP3    H147420   6.828   5.847   5.106
15845TIP3    H247421   6.719   5.784   5.023
15846TIP3   OH247422   5.480   5.848   5.839
15846TIP3    H147423   5.542   5.773   5.851
15846TIP3    H247424   5.542   5.923   5.836
15847TIP3   OH247425   5.283   6.122   5.916
15847TIP3    H147426   5.332   6.118   5.831
15847TIP3    H247427   5.307   6.210   5.947
15848TIP3   OH247428   7.224   6.162   6.070
15848TIP3    H147429   7.138   6.201   6.094
15848TIP3    H247430   7.195   6.087   6.015
15849TIP3   OH247431   6.861   5.802   4.652
15849TIP3    H147432   6.904   5.728   4.603
15849TIP3    H247433   6.930   5.871   4.648
15850TIP3   OH247434   5.265   5.628   5.416
15850TIP3    H147435   5.172   5.622   5.445
15850TIP3    H247436   5.259   5.687   5.339
15851TIP3   OH247437   6.427   7.323   4.923
15851TIP3    H147438   6.480   7.318   4.840
15851TIP3    H247439   6.470   7.397   4.969
15852TIP3   OH247440   5.487   5.708   6.232
15852TIP3    H147441   5.435   5.700   6.314
15852TIP3    H247442   5.419   5.744   6.171
15853TIP3   OH247443   5.529   7.123   6.308
15853TIP3    H147444   5.435   7.104   6.290
15853TIP3    H247445   5.530   7.121   6.405
15854TIP3   OH247446   5.708   7.165   5.856
15854TIP3    H147447   5.657   7.240   5.817
15854TIP3    H247448   5.792   7.181   5.808
15855TIP3   OH247449   6.168   7.411   5.979
15855TIP3    H147450   6.198   7.417   6.073
15855TIP3    H247451   6.252   7.425   5.932
15856TIP3   OH247452   7.123   5.921   5.952
15856TIP3    H147453   7.031   5.910   5.921
15856TIP3    H247454   7.157   5.829   5.942
15857TIP3   OH247455   5.378   7.418   5.883
15857TIP3    H147456   5.290   7.452   5.856
15857TIP3    H247457   5.390   7.466   5.966
15858TIP3   OH247458   5.615   7.396   5.738
15858TIP3    H147459   5.528   7.412   5.780
15858TIP3    H247460   5.599   7.431   5.647
15859TIP3   OH247461   6.032   7.419   5.540
15859TIP3    H147462   5.968   7.447   5.472
15859TIP3    H247463   6.070   7.504   5.567
15860TIP3   OH247464   6.565   7.586   5.489
15860TIP3    H147465   6.515   7.655   5.442
15860TIP3    H247466   6.537   7.504   5.444
15861TIP3   OH247467   5.290   7.216   5.622
15861TIP3    H147468   5.317   7.191   5.713
15861TIP3    H247469   5.363   7.173   5.571
15862TIP3   OH247470   5.483   7.086   5.480
15862TIP3    H147471   5.501   7.004   5.531
15862TIP3    H247472   5.572   7.126   5.476
15863TIP3   OH247473   5.743   7.179   5.487
15863TIP3    H147474   5.785   7.093   5.474
15863TIP3    H247475   5.792   7.212   5.564
15864TIP3   OH247476   6.323   5.834   5.563
15864TIP3    H147477   6.283   5.767   5.621
15864TIP3    H247478   6.401   5.789   5.527
15865TIP3   OH247479   6.850   5.724   5.477
15865TIP3    H147480   6.886   5.772   5.399
15865TIP3    H247481   6.754   5.738   5.468
15866TIP3   OH247482   6.944   5.823   5.240
15866TIP3    H147483   7.016   5.768   5.202
15866TIP3    H247484   6.980   5.913   5.224
15867TIP3   OH247485   5.576   5.546   5.585
15867TIP3    H147486   5.484   5.513   5.589
15867TIP3    H247487   5.624   5.461   5.584
15868TIP3   OH247488   5.359   5.428   5.239
15868TIP3    H147489   5.370   5.496   5.171
15868TIP3    H247490   5.329   5.482   5.315
15869TIP3   OH247491   6.015   5.584   5.464
15869TIP3    H147492   6.081   5.632   5.411
15869TIP3    H247493   6.036   5.615   5.553
15870TIP3   OH247494   6.565   5.725   5.451
15870TIP3    H147495   6.573   5.683   5.365
15870TIP3    H247496   6.553   5.646   5.509
15871TIP3   OH247497   6.591   5.651   5.015
15871TIP3    H147498   6.505   5.691   5.034
15871TIP3    H247499   6.583   5.565   5.062
15872TIP3   OH247500   5.080   6.987   5.016
15872TIP3    H147501   4.994   6.957   4.982
15872TIP3    H247502   5.071   7.083   5.000
15873TIP3   OH247503   5.477   5.587   4.988
15873TIP3    H147504   5.524   5.506   5.004
15873TIP3    H247505   5.530   5.652   5.038
15874TIP3   OH247506   6.000   5.746   5.099
15874TIP3    H147507   6.062   5.710   5.165
15874TIP3    H247508   6.010   5.841   5.122
15875TIP3   OH247509   5.850   7.176   4.596
15875TIP3    H147510   5.939   7.200   4.561
15875TIP3    H247511   5.830   7.100   4.536
15876TIP3   OH247512   6.572   7.296   4.688
15876TIP3    H147513   6.563   7.198   4.676
15876TIP3    H247514   6.525   7.329   4.609
15877TIP3   OH247515   5.784   5.832   6.482
15877TIP3    H147516   5.749   5.759   6.535
15877TIP3    H247517   5.878   5.830   6.507
15878TIP3   OH247518   6.035   5.828   6.599
15878TIP3    H147519   6.117   5.797   6.557
15878TIP3    H247520   6.021   5.757   6.666
15879TIP3   OH247521   5.153   7.011   4.653
15879TIP3    H147522   5.155   7.041   4.745
15879TIP3    H247523   5.243   6.972   4.642
15880TIP3   OH247524   6.858   5.888   6.386
15880TIP3    H147525   6.877   5.855   6.476
15880TIP3    H247526   6.946   5.882   6.343
15881TIP3   OH247527   6.791   7.431   5.874
15881TIP3    H147528   6.708   7.387   5.845
15881TIP3    H247529   6.764   7.525   5.871
15882TIP3   OH247530   8.062   6.810   4.644
15882TIP3    H147531   8.035   6.902   4.625
15882TIP3    H247532   7.986   6.762   4.606
15883TIP3   OH247533   8.060   6.811   5.024
15883TIP3    H147534   8.094   6.787   5.113
15883TIP3    H247535   8.025   6.727   4.992
15884TIP3   OH247536   7.378   6.688   5.379
15884TIP3    H147537   7.397   6.629   5.454
15884TIP3    H247538   7.423   6.769   5.408
15885TIP3   OH247539   8.306   7.112   4.707
15885TIP3    H147540   8.291   7.047   4.777
15885TIP3    H247541   8.334   7.190   4.757
15886TIP3   OH247542   7.334   7.117   5.115
15886TIP3    H147543   7.322   7.020   5.118
15886TIP3    H247544   7.430   7.124   5.104
15887TIP3   OH247545   7.038   6.330   4.913
15887TIP3    H147546   6.978   6.407   4.913
15887TIP3    H247547   6.981   6.265   4.869
15888TIP3   OH247548   7.110   6.601   5.068
15888TIP3    H147549   7.124   6.508   5.049
15888TIP3    H247550   7.141   6.645   4.988
15889TIP3   OH247551   7.953   7.576   4.720
15889TIP3    H147552   8.000   7.504   4.674
15889TIP3    H247553   7.946   7.542   4.810
15890TIP3   OH247554   7.862   7.032   5.074
15890TIP3    H147555   7.907   6.960   5.026
15890TIP3    H247556   7.941   7.082   5.101
15891TIP3   OH247557   8.877   6.373   5.067
15891TIP3    H147558   8.939   6.447   5.069
15891TIP3    H247559   8.881   6.352   4.973
15892TIP3   OH247560   8.277   6.538   5.105
15892TIP3    H147561   8.316   6.451   5.125
15892TIP3    H247562   8.244   6.523   5.014
15893TIP3   OH247563   7.600   6.217   5.080
15893TIP3    H147564   7.583   6.265   4.997
15893TIP3    H247565   7.559   6.131   5.056
15894TIP3   OH247566   8.304   6.292   4.693
15894TIP3    H147567   8.377   6.274   4.757
15894TIP3    H247568   8.356   6.325   4.617
15895TIP3   OH247569   7.689   6.576   4.977
15895TIP3    H147570   7.787   6.563   4.984
15895TIP3    H247571   7.664   6.504   4.915
15896TIP3   OH247572   7.610   6.185   5.500
15896TIP3    H147573   7.546   6.222   5.438
15896TIP3    H247574   7.563   6.197   5.585
15897TIP3   OH247575   7.953   7.031   4.513
15897TIP3    H147576   7.913   7.016   4.426
15897TIP3    H247577   7.912   7.116   4.539
15898TIP3   OH247578   7.706   6.954   5.298
15898TIP3    H147579   7.647   7.022   5.337
15898TIP3    H247580   7.752   7.005   5.228
15899TIP3   OH247581   8.516   6.290   4.863
15899TIP3    H147582   8.505   6.239   4.944
15899TIP3    H247583   8.569   6.366   4.893
15900TIP3   OH247584   7.539   7.150   5.397
15900TIP3    H147585   7.517   7.236   5.357
15900TIP3    H247586   7.460   7.139   5.454
15901TIP3   OH247587   6.937   6.840   4.634
15901TIP3    H147588   6.895   6.867   4.551
15901TIP3    H247589   6.965   6.927   4.670
15902TIP3   OH247590   8.375   7.355   4.871
15902TIP3    H147591   8.286   7.348   4.912
15902TIP3    H247592   8.368   7.442   4.827
15903TIP3   OH247593   8.658   6.260   5.231
15903TIP3    H147594   8.569   6.278   5.197
15903TIP3    H247595   8.717   6.290   5.160
15904TIP3   OH247596   7.963   5.899   5.217
15904TIP3    H147597   7.953   5.804   5.237
15904TIP3    H247598   7.885   5.935   5.265
15905TIP3   OH247599   8.079   7.401   4.548
15905TIP3    H147600   8.129   7.320   4.526
15905TIP3    H247601   8.139   7.468   4.508
15906TIP3   OH247602   8.221   7.186   4.454
15906TIP3    H147603   8.184   7.107   4.414
15906TIP3    H247604   8.257   7.151   4.539
15907TIP3   OH247605   8.598   7.268   5.217
15907TIP3    H147606   8.591   7.191   5.156
15907TIP3    H247607   8.582   7.344   5.156
15908TIP3   OH247608   7.894   6.663   4.475
15908TIP3    H147609   7.814   6.716   4.453
15908TIP3    H247610   7.939   6.661   4.389
15909TIP3   OH247611   7.852   6.447   4.192
15909TIP3    H147612   7.920   6.499   4.238
15909TIP3    H247613   7.909   6.384   4.144
15910TIP3   OH247614   8.802   6.891   5.063
15910TIP3    H147615   8.717   6.938   5.077
15910TIP3    H247616   8.828   6.926   4.975
15911TIP3   OH247617   8.240   6.745   4.447
15911TIP3    H147618   8.186   6.770   4.525
15911TIP3    H247619   8.325   6.721   4.490
15912TIP3   OH247620   8.471   6.783   5.360
15912TIP3    H147621   8.476   6.870   5.403
15912TIP3    H247622   8.390   6.794   5.306
15913TIP3   OH247623   7.470   6.734   4.872
15913TIP3    H147624   7.424   6.687   4.799
15913TIP3    H247625   7.554   6.685   4.879
15914TIP3   OH247626   7.599   7.143   5.015
15914TIP3    H147627   7.584   7.119   4.922
15914TIP3    H247628   7.692   7.115   5.030
15915TIP3   OH247629   7.611   6.723   5.195
15915TIP3    H147630   7.665   6.722   5.114
15915TIP3    H247631   7.643   6.806   5.237
15916TIP3   OH247632   8.136   7.351   4.994
15916TIP3    H147633   8.120   7.434   5.043
15916TIP3    H247634   8.119   7.282   5.061
15917TIP3   OH247635   7.747   7.270   5.542
15917TIP3    H147636   7.688   7.333   5.588
15917TIP3    H247637   7.681   7.218   5.491
15918TIP3   OH247638   8.081   6.603   4.272
15918TIP3    H147639   8.140   6.664   4.323
15918TIP3    H247640   8.108   6.626   4.179
15919TIP3   OH247641   7.493   6.829   5.630
15919TIP3    H147642   7.504   6.915   5.676
15919TIP3    H247643   7.402   6.807   5.659
15920TIP3   OH247644   7.825   7.283   4.549
15920TIP3    H147645   7.904   7.337   4.564
15920TIP3    H247646   7.763   7.345   4.509
15921TIP3   OH247647   7.542   7.440   5.627
15921TIP3    H147648   7.510   7.442   5.534
15921TIP3    H247649   7.460   7.419   5.676
15922TIP3   OH247650   8.597   5.844   4.321
15922TIP3    H147651   8.515   5.863   4.371
15922TIP3    H247652   8.610   5.927   4.272
15923TIP3   OH247653   7.335   6.588   4.675
15923TIP3    H147654   7.273   6.635   4.615
15923TIP3    H247655   7.299   6.499   4.673
15924TIP3   OH247656   8.395   7.211   3.869
15924TIP3    H147657   8.402   7.308   3.852
15924TIP3    H247658   8.488   7.184   3.857
15925TIP3   OH247659   7.122   6.969   5.574
15925TIP3    H147660   7.052   6.952   5.508
15925TIP3    H247661   7.153   6.880   5.598
15926TIP3   OH247662   6.975   7.161   5.217
15926TIP3    H147663   7.070   7.174   5.205
15926TIP3    H247664   6.949   7.245   5.257
15927TIP3   OH247665   8.838   7.613   5.263
15927TIP3    H147666   8.837   7.517   5.280
15927TIP3    H247667   8.756   7.640   5.308
15928TIP3   OH247668   7.946   7.400   5.398
15928TIP3    H147669   7.945   7.493   5.430
15928TIP3    H247670   7.875   7.360   5.453
15929TIP3   OH247671   7.708   7.529   4.350
15929TIP3    H147672   7.660   7.514   4.267
15929TIP3    H247673   7.674   7.617   4.378
15930TIP3   OH247674   7.144   7.376   4.732
15930TIP3    H147675   7.193   7.369   4.817
15930TIP3    H247676   7.075   7.310   4.745
15931TIP3   OH247677   7.907   7.430   3.989
15931TIP3    H147678   7.966   7.361   3.953
15931TIP3    H247679   7.942   7.441   4.080
15932TIP3   OH247680   7.958   7.478   4.259
15932TIP3    H147681   7.870   7.489   4.300
15932TIP3    H247682   8.009   7.441   4.333
15933TIP3   OH247683   8.728   6.723   5.517
15933TIP3    H147684   8.645   6.773   5.506
15933TIP3    H247685   8.710   6.669   5.595
15934TIP3   OH247686   7.325   7.155   5.568
15934TIP3    H147687   7.378   7.131   5.647
15934TIP3    H247688   7.251   7.091   5.572
15935TIP3   OH247689   7.725   5.976   5.344
15935TIP3    H147690   7.636   5.944   5.320
15935TIP3    H247691   7.700   6.058   5.392
15936TIP3   OH247692   8.258   6.092   5.542
15936TIP3    H147693   8.328   6.064   5.604
15936TIP3    H247694   8.176   6.070   5.590
15937TIP3   OH247695   8.533   6.531   5.451
15937TIP3    H147696   8.483   6.509   5.532
15937TIP3    H247697   8.487   6.613   5.423
15938TIP3   OH247698   8.158   6.648   4.016
15938TIP3    H147699   8.124   6.624   3.928
15938TIP3    H247700   8.237   6.700   3.992
15939TIP3   OH247701   7.869   6.023   4.318
15939TIP3    H147702   7.835   6.020   4.409
15939TIP3    H247703   7.832   5.940   4.283
15940TIP3   OH247704   7.638   6.495   5.356
15940TIP3    H147705   7.593   6.491   5.443
15940TIP3    H247706   7.656   6.590   5.350
15941TIP3   OH247707   7.534   6.382   4.877
15941TIP3    H147708   7.442   6.347   4.890
15941TIP3    H247709   7.552   6.343   4.788
15942TIP3   OH247710   8.031   6.464   4.608
15942TIP3    H147711   7.979   6.536   4.565
15942TIP3    H247712   8.086   6.433   4.534
15943TIP3   OH247713   8.206   6.741   5.691
15943TIP3    H147714   8.185   6.670   5.755
15943TIP3    H247715   8.299   6.758   5.713
15944TIP3   OH247716   8.186   6.493   4.847
15944TIP3    H147717   8.127   6.523   4.774
15944TIP3    H247718   8.220   6.412   4.804
15945TIP3   OH247719   7.475   6.511   5.578
15945TIP3    H147720   7.503   6.579   5.642
15945TIP3    H247721   7.461   6.434   5.636
15946TIP3   OH247722   7.525   5.996   4.284
15946TIP3    H147723   7.518   5.994   4.382
15946TIP3    H247724   7.449   6.053   4.261
15947TIP3   OH247725   7.067   6.049   5.153
15947TIP3    H147726   7.149   6.071   5.201
15947TIP3    H247727   7.098   6.007   5.071
15948TIP3   OH247728   7.042   6.024   4.674
15948TIP3    H147729   7.087   6.061   4.595
15948TIP3    H247730   6.980   6.097   4.693
15949TIP3   OH247731   8.189   6.736   5.266
15949TIP3    H147732   8.229   6.665   5.210
15949TIP3    H247733   8.168   6.684   5.347
15950TIP3   OH247734   7.867   6.211   4.946
15950TIP3    H147735   7.788   6.198   5.001
15950TIP3    H247736   7.939   6.195   5.008
15951TIP3   OH247737   7.305   6.265   4.952
15951TIP3    H147738   7.208   6.272   4.938
15951TIP3    H247739   7.323   6.170   4.938
15952TIP3   OH247740   7.573   6.261   4.639
15952TIP3    H147741   7.667   6.267   4.614
15952TIP3    H247742   7.525   6.277   4.554
15953TIP3   OH247743   8.363   6.276   5.144
15953TIP3    H147744   8.330   6.287   5.236
15953TIP3    H247745   8.298   6.213   5.108
15954TIP3   OH247746   7.414   6.286   4.418
15954TIP3    H147747   7.342   6.241   4.370
15954TIP3    H247748   7.466   6.322   4.343
15955TIP3   OH247749   8.530   7.964   5.362
15955TIP3    H147750   8.527   7.990   5.268
15955TIP3    H247751   8.609   8.012   5.394
15956TIP3   OH247752   7.490   7.072   5.781
15956TIP3    H147753   7.569   7.099   5.832
15956TIP3    H247754   7.424   7.069   5.854
15957TIP3   OH247755   7.951   6.528   5.037
15957TIP3    H147756   8.023   6.489   4.985
15957TIP3    H247757   7.963   6.486   5.125
15958TIP3   OH247758   7.479   6.019   4.924
15958TIP3    H147759   7.441   5.939   4.968
15958TIP3    H247760   7.528   5.979   4.851
15959TIP3   OH247761   7.930   6.429   5.325
15959TIP3    H147762   7.844   6.466   5.349
15959TIP3    H247763   7.993   6.483   5.378
15960TIP3   OH247764   7.665   6.816   4.425
15960TIP3    H147765   7.592   6.751   4.412
15960TIP3    H247766   7.645   6.849   4.516
15961TIP3   OH247767   8.571   7.046   5.053
15961TIP3    H147768   8.596   7.097   4.974
15961TIP3    H247769   8.483   7.009   5.028
15962TIP3   OH247770   8.122   6.127   4.288
15962TIP3    H147771   8.025   6.109   4.294
15962TIP3    H247772   8.129   6.222   4.310
15963TIP3   OH247773   8.056   7.129   5.424
15963TIP3    H147774   8.093   7.118   5.513
15963TIP3    H247775   8.025   7.222   5.425
15964TIP3   OH247776   8.191   6.376   4.391
15964TIP3    H147777   8.288   6.383   4.404
15964TIP3    H247778   8.172   6.456   4.337
15965TIP3   OH247779   7.353   6.837   5.104
15965TIP3    H147780   7.387   6.810   5.016
15965TIP3    H247781   7.417   6.797   5.164
15966TIP3   OH247782   7.810   6.966   4.245
15966TIP3    H147783   7.762   7.052   4.249
15966TIP3    H247784   7.755   6.912   4.306
15967TIP3   OH247785   7.238   6.753   5.711
15967TIP3    H147786   7.258   6.744   5.807
15967TIP3    H247787   7.166   6.689   5.700
15968TIP3   OH247788   7.965   6.873   5.731
15968TIP3    H147789   7.910   6.810   5.682
15968TIP3    H247790   8.055   6.842   5.707
15969TIP3   OH247791   8.223   7.384   5.321
15969TIP3    H147792   8.126   7.393   5.331
15969TIP3    H247793   8.253   7.441   5.396
15970TIP3   OH247794   8.634   6.466   4.225
15970TIP3    H147795   8.572   6.422   4.162
15970TIP3    H247796   8.630   6.556   4.185
15971TIP3   OH247797   8.848   7.320   5.306
15971TIP3    H147798   8.750   7.317   5.295
15971TIP3    H247799   8.875   7.293   5.215
15972TIP3   OH247800   8.336   7.285   4.134
15972TIP3    H147801   8.308   7.215   4.194
15972TIP3    H247802   8.348   7.239   4.049
15973TIP3   OH247803   8.330   6.914   4.973
15973TIP3    H147804   8.236   6.891   4.985
15973TIP3    H247805   8.361   6.835   4.925
15974TIP3   OH247806   7.458   7.141   4.723
15974TIP3    H147807   7.460   7.223   4.671
15974TIP3    H247808   7.363   7.131   4.736
15975TIP3   OH247809   7.020   6.446   4.426
15975TIP3    H147810   7.065   6.531   4.445
15975TIP3    H247811   6.943   6.452   4.486
15976TIP3   OH247812   7.593   6.905   4.672
15976TIP3    H147813   7.563   6.997   4.682
15976TIP3    H247814   7.551   6.863   4.749
15977TIP3   OH247815   7.727   7.485   5.193
15977TIP3    H147816   7.765   7.559   5.142
15977TIP3    H247817   7.805   7.454   5.242
15978TIP3   OH247818   7.380   7.377   4.578
15978TIP3    H147819   7.293   7.388   4.622
15978TIP3    H247820   7.414   7.470   4.580
15979TIP3   OH247821   8.113   7.118   5.155
15979TIP3    H147822   8.104   7.116   5.252
15979TIP3    H247823   8.198   7.073   5.142
15980TIP3   OH247824   8.090   7.009   4.035
15980TIP3    H147825   8.142   6.985   4.115
15980TIP3    H247826   8.000   6.987   4.064
15981TIP3   OH247827   8.363   7.652   5.200
15981TIP3    H147828   8.281   7.599   5.190
15981TIP3    H247829   8.350   7.719   5.129
15982TIP3   OH247830   8.427   7.486   3.854
15982TIP3    H147831   8.464   7.553   3.794
15982TIP3    H247832   8.350   7.536   3.888
15983TIP3   OH247833   7.448   6.262   5.718
15983TIP3    H147834   7.353   6.266   5.736
15983TIP3    H247835   7.479   6.205   5.791
15984TIP3   OH247836   8.249   6.945   4.252
15984TIP3    H147837   8.240   6.879   4.323
15984TIP3    H247838   8.346   6.944   4.239
15985TIP3   OH247839   7.171   7.347   5.347
15985TIP3    H147840   7.223   7.279   5.391
15985TIP3    H247841   7.187   7.425   5.403
15986TIP3   OH247842   7.457   6.992   4.033
15986TIP3    H147843   7.470   6.900   4.006
15986TIP3    H247844   7.437   6.982   4.129
15987TIP3   OH247845   7.403   6.998   4.305
15987TIP3    H147846   7.474   6.975   4.366
15987TIP3    H247847   7.403   7.096   4.311
15988TIP3   OH247848   7.138   6.693   4.511
15988TIP3    H147849   7.070   6.738   4.566
15988TIP3    H247850   7.150   6.761   4.442
15989TIP3   OH247851   8.290   6.326   5.404
15989TIP3    H147852   8.361   6.360   5.459
15989TIP3    H247853   8.267   6.244   5.452
15990TIP3   OH247854   8.165   6.080   4.568
15990TIP3    H147855   8.151   6.101   4.473
15990TIP3    H247856   8.203   6.164   4.601
15991TIP3   OH247857   7.666   7.195   4.255
15991TIP3    H147858   7.580   7.222   4.291
15991TIP3    H247859   7.684   7.270   4.196
15992TIP3   OH247860   7.856   6.260   4.671
15992TIP3    H147861   7.921   6.331   4.652
15992TIP3    H247862   7.862   6.253   4.769
15993TIP3   OH247863   8.125   6.575   5.479
15993TIP3    H147864   8.146   6.633   5.556
15993TIP3    H247865   8.182   6.499   5.496
15994TIP3   OH247866   7.999   5.987   4.772
15994TIP3    H147867   7.999   6.064   4.832
15994TIP3    H247868   8.059   6.020   4.701
15995TIP3   OH247869   7.409   7.269   4.323
15995TIP3    H147870   7.380   7.339   4.260
15995TIP3    H247871   7.394   7.314   4.409
15996TIP3   OH247872   7.509   5.987   4.562
15996TIP3    H147873   7.510   6.076   4.600
15996TIP3    H247874   7.604   5.964   4.569
15997TIP3   OH247875   8.411   6.670   4.843
15997TIP3    H147876   8.332   6.613   4.854
15997TIP3    H247877   8.481   6.615   4.883
15998TIP3   OH247878   7.127   6.899   4.317
15998TIP3    H147879   7.188   6.975   4.325
15998TIP3    H247880   7.175   6.848   4.248
15999TIP3   OH247881   7.072   6.177   4.450
15999TIP3    H147882   7.071   6.275   4.444
15999TIP3    H247883   6.989   6.154   4.406
16000TIP3   OH247884   8.384   7.626   4.795
16000TIP3    H147885   8.341   7.673   4.720
16000TIP3    H247886   8.478   7.646   4.774
16001TIP3   OH247887   7.458   5.898   5.324
16001TIP3    H147888   7.429   5.861   5.237
16001TIP3    H247889   7.450   5.821   5.383
16002TIP3   OH247890   6.994   7.103   4.702
16002TIP3    H147891   6.930   7.143   4.763
16002TIP3    H247892   6.972   7.150   4.619
16003TIP3   OH247893   7.158   7.652   5.775
16003TIP3    H147894   7.238   7.627   5.822
16003TIP3    H247895   7.115   7.566   5.764
16004TIP3   OH247896   7.621   7.630   5.818
16004TIP3    H147897   7.717   7.626   5.830
16004TIP3    H247898   7.608   7.564   5.747
16005TIP3   OH247899   7.619   7.197   3.946
16005TIP3    H147900   7.563   7.125   3.984
16005TIP3    H247901   7.694   7.145   3.912
16006TIP3   OH247902   8.278   7.526   5.551
16006TIP3    H147903   8.270   7.457   5.621
16006TIP3    H247904   8.355   7.578   5.582
16007TIP3   OH247905   8.054   7.237   3.856
16007TIP3    H147906   8.103   7.177   3.914
16007TIP3    H247907   8.109   7.240   3.776
16008TIP3   OH247908   7.288   7.068   5.964
16008TIP3    H147909   7.300   6.974   5.985
16008TIP3    H247910   7.197   7.068   5.929
16009TIP3   OH247911   7.263   6.713   4.167
16009TIP3    H147912   7.319   6.683   4.240
16009TIP3    H247913   7.330   6.718   4.095
16010TIP3   OH247914   7.895   7.150   5.749
16010TIP3    H147915   7.854   7.168   5.662
16010TIP3    H247916   7.926   7.058   5.739
16011TIP3   OH247917   7.774   6.912   3.975
16011TIP3    H147918   7.776   6.925   4.072
16011TIP3    H247919   7.773   6.814   3.971
16012TIP3   OH247920   8.385   7.155   5.354
16012TIP3    H147921   8.462   7.198   5.312
16012TIP3    H247922   8.318   7.226   5.342
16013TIP3   OH247923   7.408   6.793   5.952
16013TIP3    H147924   7.484   6.735   5.938
16013TIP3    H247925   7.430   6.829   6.041
16014TIP3   OH247926   7.474   6.616   4.391
16014TIP3    H147927   7.444   6.570   4.471
16014TIP3    H247928   7.510   6.543   4.337
16015TIP3   OH247929   7.735   6.674   5.606
16015TIP3    H147930   7.663   6.740   5.615
16015TIP3    H247931   7.791   6.715   5.536
16016TIP3   OH247932   7.572   6.411   4.231
16016TIP3    H147933   7.546   6.415   4.137
16016TIP3    H247934   7.669   6.415   4.223
16017TIP3   OH247935   8.254   7.081   5.752
16017TIP3    H147936   8.340   7.065   5.712
16017TIP3    H247937   8.254   7.017   5.825
16018TIP3   OH247938   8.396   6.741   3.893
16018TIP3    H147939   8.372   6.696   3.810
16018TIP3    H247940   8.364   6.832   3.872
16019TIP3   OH247941   7.862   6.471   5.746
16019TIP3    H147942   7.866   6.390   5.692
16019TIP3    H247943   7.817   6.534   5.685
16020TIP3   OH247944   7.867   6.259   5.552
16020TIP3    H147945   7.898   6.293   5.466
16020TIP3    H247946   7.775   6.233   5.533
16021TIP3   OH247947   7.890   6.785   5.416
16021TIP3    H147948   7.978   6.801   5.381
16021TIP3    H247949   7.839   6.859   5.376
16022TIP3   OH247950   8.476   6.756   5.802
16022TIP3    H147951   8.522   6.680   5.840
16022TIP3    H247952   8.545   6.824   5.798
16023TIP3   OH247953   8.521   7.005   5.534
16023TIP3    H147954   8.458   7.060   5.481
16023TIP3    H247955   8.606   7.035   5.495
16024TIP3   OH247956   7.737   6.584   5.972
16024TIP3    H147957   7.671   6.514   5.990
16024TIP3    H247958   7.776   6.553   5.888
16025TIP3   OH247959   7.999   6.019   5.616
16025TIP3    H147960   7.948   6.101   5.598
16025TIP3    H247961   7.929   5.950   5.608
16026TIP3   OH247962   8.127   6.525   5.833
16026TIP3    H147963   8.123   6.511   5.929
16026TIP3    H247964   8.035   6.499   5.809
16027TIP3   OH247965   8.370   6.466   5.671
16027TIP3    H147966   8.296   6.473   5.735
16027TIP3    H247967   8.444   6.441   5.732
16028TIP3   OH247968   8.588   6.413   5.833
16028TIP3    H147969   8.605   6.319   5.855
16028TIP3    H247970   8.586   6.455   5.922
16029TIP3   OH247971   7.582   6.361   6.028
16029TIP3    H147972   7.587   6.269   5.996
16029TIP3    H247973   7.620   6.351   6.118
16030TIP3   OH247974   8.093   6.031   5.874
16030TIP3    H147975   8.161   5.960   5.872
16030TIP3    H247976   8.054   6.021   5.786
16031TIP3   OH247977   8.160   6.247   6.032
16031TIP3    H147978   8.138   6.174   5.970
16031TIP3    H247979   8.080   6.303   6.027
16032TIP3   OH247980   7.379   7.469   4.133
16032TIP3    H147981   7.475   7.468   4.116
16032TIP3    H247982   7.349   7.522   4.057
16033TIP3   OH247983   6.859   6.854   4.354
16033TIP3    H147984   6.954   6.877   4.339
16033TIP3    H247985   6.854   6.767   4.311
16034TIP3   OH247986   6.777   7.464   4.762
16034TIP3    H147987   6.707   7.405   4.727
16034TIP3    H247988   6.819   7.407   4.830
16035TIP3   OH247989   6.915   7.315   4.948
16035TIP3    H147990   6.891   7.250   5.015
16035TIP3    H247991   6.962   7.381   5.003
16036TIP3   OH247992   8.638   7.716   4.752
16036TIP3    H147993   8.663   7.751   4.840
16036TIP3    H247994   8.697   7.766   4.694
16037TIP3   OH247995   8.666   7.739   5.034
16037TIP3    H147996   8.624   7.650   5.030
16037TIP3    H247997   8.741   7.719   5.092
16038TIP3   OH247998   8.710   7.416   5.605
16038TIP3    H147999   8.639   7.425   5.671
16038TIP3    H248000   8.754   7.503   5.610
16039TIP3   OH248001   8.529   6.928   4.226
16039TIP3    H148002   8.595   6.994   4.197
16039TIP3    H248003   8.573   6.890   4.305
16040TIP3   OH248004   8.657   6.795   4.429
16040TIP3    H148005   8.591   6.755   4.489
16040TIP3    H248006   8.721   6.835   4.492
16041TIP3   OH248007   8.710   7.187   4.863
16041TIP3    H148008   8.762   7.125   4.810
16041TIP3    H248009   8.703   7.264   4.803
16042TIP3   OH248010   8.541   7.488   5.058
16042TIP3    H148011   8.471   7.533   5.109
16042TIP3    H248012   8.490   7.442   4.988
16043TIP3   OH248013   8.595   6.703   4.077
16043TIP3    H148014   8.523   6.706   4.009
16043TIP3    H248015   8.567   6.780   4.132
16044TIP3   OH248016   8.468   6.375   4.031
16044TIP3    H148017   8.421   6.417   3.957
16044TIP3    H248018   8.442   6.281   4.019
16045TIP3   OH248019   8.471   6.653   4.576
16045TIP3    H148020   8.477   6.556   4.569
16045TIP3    H248021   8.455   6.667   4.672
16046TIP3   OH248022   7.106   6.711   5.324
16046TIP3    H148023   7.100   6.690   5.229
16046TIP3    H248024   7.203   6.720   5.334
16047TIP3   OH248025   8.759   7.080   5.431
16047TIP3    H148026   8.832   7.015   5.421
16047TIP3    H248027   8.788   7.154   5.374
16048TIP3   OH248028   8.940   6.883   5.442
16048TIP3    H148029   8.876   6.820   5.480
16048TIP3    H248030   9.024   6.835   5.456
16049TIP3   OH248031   8.409   6.109   4.015
16049TIP3    H148032   8.481   6.079   4.074
16049TIP3    H248033   8.333   6.053   4.039
16050TIP3   OH248034   8.467   6.369   4.473
16050TIP3    H148035   8.508   6.280   4.487
16050TIP3    H248036   8.525   6.402   4.402
16051TIP3   OH248037   8.628   6.546   4.963
16051TIP3    H148038   8.719   6.564   4.930
16051TIP3    H248039   8.617   6.619   5.025
16052TIP3   OH248040   7.316   6.414   5.998
16052TIP3    H148041   7.414   6.407   6.002
16052TIP3    H248042   7.291   6.328   6.038
16053TIP3   OH248043   8.575   6.118   4.509
16053TIP3    H148044   8.624   6.101   4.593
16053TIP3    H248045   8.514   6.042   4.508
16054TIP3   OH248046   7.278   6.108   5.319
16054TIP3    H148047   7.335   6.028   5.328
16054TIP3    H248048   7.336   6.176   5.351
16055TIP3   OH248049   7.084   6.373   5.403
16055TIP3    H148050   7.113   6.358   5.313
16055TIP3    H248051   7.103   6.467   5.417
16056TIP3   OH248052   8.970   6.454   5.528
16056TIP3    H148053   8.975   6.455   5.626
16056TIP3    H248054   9.011   6.367   5.514
16057TIP3   OH248055   8.658   6.053   4.144
16057TIP3    H148056   8.699   5.983   4.089
16057TIP3    H248057   8.722   6.125   4.137
16058TIP3   OH248058   7.061   5.897   4.912
16058TIP3    H148059   6.966   5.881   4.929
16058TIP3    H248060   7.058   5.946   4.827
16059TIP3   OH248061   8.222   7.583   4.410
16059TIP3    H148062   8.273   7.572   4.327
16059TIP3    H248063   8.271   7.653   4.455
16060TIP3   OH248064   7.283   5.967   5.719
16060TIP3    H148065   7.233   5.955   5.801
16060TIP3    H248066   7.212   5.999   5.660
16061TIP3   OH248067   7.318   7.389   5.804
16061TIP3    H148068   7.229   7.373   5.766
16061TIP3    H248069   7.327   7.314   5.864
16062TIP3   OH248070   7.502   7.421   5.343
16062TIP3    H148071   7.450   7.494   5.304
16062TIP3    H248072   7.587   7.438   5.296
16063TIP3   OH248073   7.944   7.666   5.479
16063TIP3    H148074   7.986   7.668   5.567
16063TIP3    H248075   8.010   7.718   5.427
16064TIP3   OH248076   8.124   7.817   5.339
16064TIP3    H148077   8.198   7.769   5.298
16064TIP3    H248078   8.174   7.875   5.400
16065TIP3   OH248079   8.916   6.168   5.428
16065TIP3    H148080   8.822   6.155   5.407
16065TIP3    H248081   8.950   6.076   5.420
16066TIP3   OH248082   7.176   7.675   5.370
16066TIP3    H148083   7.088   7.707   5.339
16066TIP3    H248084   7.182   7.723   5.453
16067TIP3   OH248085   7.412   7.654   5.223
16067TIP3    H148086   7.325   7.669   5.268
16067TIP3    H248087   7.393   7.691   5.134
16068TIP3   OH248088   7.839   7.685   5.022
16068TIP3    H148089   7.768   7.705   4.956
16068TIP3    H248090   7.851   7.774   5.062
16069TIP3   OH248091   8.107   7.623   5.071
16069TIP3    H148092   8.013   7.642   5.054
16069TIP3    H248093   8.150   7.701   5.031
16070TIP3   OH248094   8.315   7.817   4.988
16070TIP3    H148095   8.300   7.903   4.941
16070TIP3    H248096   8.340   7.758   4.914
16071TIP3   OH248097   7.088   7.474   5.106
16071TIP3    H148098   7.111   7.448   5.197
16071TIP3    H248099   7.162   7.431   5.057
16072TIP3   OH248100   7.282   7.343   4.965
16072TIP3    H148101   7.299   7.262   5.018
16072TIP3    H248102   7.371   7.383   4.962
16073TIP3   OH248103   7.545   7.439   4.971
16073TIP3    H148104   7.582   7.350   4.959
16073TIP3    H248105   7.589   7.465   5.054
16074TIP3   OH248106   8.117   6.094   5.054
16074TIP3    H148107   8.078   6.024   5.110
16074TIP3    H248108   8.192   6.047   5.013
16075TIP3   OH248109   8.646   5.979   4.964
16075TIP3    H148110   8.681   6.028   4.886
16075TIP3    H248111   8.550   5.992   4.955
16076TIP3   OH248112   8.742   6.075   4.726
16076TIP3    H148113   8.816   6.023   4.686
16076TIP3    H248114   8.776   6.166   4.710
16077TIP3   OH248115   7.371   5.805   5.076
16077TIP3    H148116   7.280   5.771   5.076
16077TIP3    H248117   7.421   5.720   5.071
16078TIP3   OH248118   7.161   5.679   4.732
16078TIP3    H148119   7.183   5.734   4.656
16078TIP3    H248120   7.133   5.745   4.798
16079TIP3   OH248121   7.813   5.842   4.955
16079TIP3    H148122   7.875   5.886   4.894
16079TIP3    H248123   7.845   5.870   5.041
16080TIP3   OH248124   8.363   5.984   4.938
16080TIP3    H148125   8.359   5.944   4.850
16080TIP3    H248126   8.351   5.904   4.995
16081TIP3   OH248127   8.393   5.905   4.501
16081TIP3    H148128   8.305   5.946   4.511
16081TIP3    H248129   8.379   5.820   4.548
16082TIP3   OH248130   6.878   7.244   4.503
16082TIP3    H148131   6.792   7.213   4.469
16082TIP3    H248132   6.867   7.340   4.488
16083TIP3   OH248133   7.280   5.841   4.477
16083TIP3    H148134   7.332   5.761   4.464
16083TIP3    H248135   7.347   5.900   4.517
16084TIP3   OH248136   7.785   6.011   4.582
16084TIP3    H148137   7.842   5.957   4.640
16084TIP3    H248138   7.814   6.101   4.611
16085TIP3   OH248139   7.648   7.433   4.084
16085TIP3    H148140   7.736   7.456   4.048
16085TIP3    H248141   7.626   7.358   4.024
16086TIP3   OH248142   8.368   7.552   4.177
16086TIP3    H148143   8.359   7.455   4.164
16086TIP3    H248144   8.321   7.585   4.097
16087TIP3   OH248145   7.580   6.088   5.965
16087TIP3    H148146   7.545   6.016   6.021
16087TIP3    H248147   7.675   6.086   5.993
16088TIP3   OH248148   7.829   6.081   6.084
16088TIP3    H148149   7.915   6.055   6.048
16088TIP3    H248150   7.816   6.013   6.152
16089TIP3   OH248151   6.949   7.268   4.139
16089TIP3    H148152   6.948   7.299   4.231
16089TIP3    H248153   7.040   7.229   4.131
16090TIP3   OH248154   8.650   6.145   5.873
16090TIP3    H148155   8.672   6.115   5.964
16090TIP3    H248156   8.737   6.135   5.827
16091TIP3   OH248157   8.593   7.696   5.362
16091TIP3    H148158   8.513   7.665   5.315
16091TIP3    H248159   8.574   7.792   5.368
16092TIP3   OH248160   9.850   7.062   4.139
16092TIP3    H148161   9.836   7.154   4.109
16092TIP3    H248162   9.781   7.016   4.090
16093TIP3   OH248163   9.824   7.048   4.541
16093TIP3    H148164   9.901   6.991   4.557
16093TIP3    H248165   9.803   7.024   4.449
16094TIP3   OH248166   9.160   6.962   4.874
16094TIP3    H148167   9.191   6.898   4.941
16094TIP3    H248168   9.228   7.030   4.880
16095TIP3   OH248169   9.128   7.372   4.599
16095TIP3    H148170   9.120   7.274   4.602
16095TIP3    H248171   9.224   7.383   4.596
16096TIP3   OH248172   8.835   6.574   4.386
16096TIP3    H148173   8.788   6.658   4.402
16096TIP3    H248174   8.764   6.523   4.345
16097TIP3   OH248175   8.894   6.863   4.558
16097TIP3    H148176   8.944   6.786   4.594
16097TIP3    H248177   8.955   6.896   4.491
16098TIP3   OH248178   9.744   7.819   4.221
16098TIP3    H148179   9.782   7.735   4.193
16098TIP3    H248180   9.728   7.802   4.315
16099TIP3   OH248181   9.652   7.291   4.567
16099TIP3    H148182   9.694   7.210   4.532
16099TIP3    H248183   9.734   7.342   4.585
16100TIP3   OH248184  10.043   6.833   4.605
16100TIP3    H148185  10.059   6.740   4.629
16100TIP3    H248186  10.041   6.823   4.508
16101TIP3   OH248187   9.405   6.455   4.559
16101TIP3    H148188   9.387   6.528   4.495
16101TIP3    H248189   9.358   6.382   4.514
16102TIP3   OH248190  10.089   6.540   4.203
16102TIP3    H148191  10.164   6.506   4.254
16102TIP3    H248192  10.135   6.595   4.138
16103TIP3   OH248193   9.037   6.654   4.667
16103TIP3    H148194   9.122   6.637   4.713
16103TIP3    H248195   9.051   6.600   4.586
16104TIP3   OH248196   9.483   6.854   4.456
16104TIP3    H148197   9.577   6.825   4.470
16104TIP3    H248198   9.444   6.770   4.424
16105TIP3   OH248199   9.402   6.437   4.992
16105TIP3    H148200   9.342   6.475   4.925
16105TIP3    H248201   9.349   6.449   5.073
16106TIP3   OH248202   9.754   7.292   3.999
16106TIP3    H148203   9.709   7.270   3.917
16106TIP3    H248204   9.708   7.375   4.024
16107TIP3   OH248205   9.519   7.207   4.800
16107TIP3    H148206   9.455   7.272   4.836
16107TIP3    H248207   9.558   7.258   4.726
16108TIP3   OH248208   9.273   6.554   4.777
16108TIP3    H148209   9.337   6.626   4.799
16108TIP3    H248210   9.321   6.513   4.701
16109TIP3   OH248211   9.338   7.403   4.882
16109TIP3    H148212   9.316   7.490   4.843
16109TIP3    H248213   9.258   7.390   4.937
16110TIP3   OH248214   8.733   7.097   4.120
16110TIP3    H148215   8.691   7.124   4.036
16110TIP3    H248216   8.762   7.183   4.156
16111TIP3   OH248217   9.751   6.157   4.700
16111TIP3    H148218   9.746   6.061   4.716
16111TIP3    H248219   9.674   6.189   4.751
16112TIP3   OH248220   9.877   7.661   4.021
16112TIP3    H148221   9.946   7.601   4.050
16112TIP3    H248222   9.920   7.748   4.024
16113TIP3   OH248223   9.688   6.921   3.957
16113TIP3    H148224   9.605   6.972   3.946
16113TIP3    H248225   9.725   6.925   3.867
16114TIP3   OH248226   9.647   6.704   3.673
16114TIP3    H148227   9.707   6.746   3.737
16114TIP3    H248228   9.708   6.642   3.629
16115TIP3   OH248229   9.270   6.999   4.351
16115TIP3    H148230   9.229   6.942   4.282
16115TIP3    H248231   9.347   6.946   4.378
16116TIP3   OH248232   9.399   7.411   4.498
16116TIP3    H148233   9.381   7.369   4.413
16116TIP3    H248234   9.489   7.379   4.519
16117TIP3   OH248235   9.415   6.968   4.705
16117TIP3    H148236   9.443   6.949   4.613
16117TIP3    H248237   9.452   7.058   4.721
16118TIP3   OH248238   9.889   7.615   4.470
16118TIP3    H148239   9.918   7.697   4.514
16118TIP3    H248240   9.905   7.548   4.538
16119TIP3   OH248241   9.539   7.527   5.033
16119TIP3    H148242   9.478   7.591   5.076
16119TIP3    H248243   9.474   7.474   4.982
16120TIP3   OH248244   9.889   6.870   3.761
16120TIP3    H148245   9.933   6.930   3.823
16120TIP3    H248246   9.922   6.903   3.676
16121TIP3   OH248247   9.298   7.080   5.128
16121TIP3    H148248   9.306   7.169   5.168
16121TIP3    H248249   9.202   7.065   5.143
16122TIP3   OH248250   9.616   7.538   4.034
16122TIP3    H148251   9.692   7.595   4.050
16122TIP3    H248252   9.551   7.598   3.996
16123TIP3   OH248253   9.337   7.696   5.114
16123TIP3    H148254   9.300   7.696   5.024
16123TIP3    H248255   9.258   7.676   5.169
16124TIP3   OH248256   9.137   6.843   4.151
16124TIP3    H148257   9.070   6.889   4.097
16124TIP3    H248258   9.095   6.758   4.167
16125TIP3   OH248259   8.916   7.226   5.062
16125TIP3    H148260   8.850   7.203   4.993
16125TIP3    H248261   8.954   7.139   5.085
16126TIP3   OH248262   8.771   7.418   4.697
16126TIP3    H148263   8.868   7.417   4.688
16126TIP3    H248264   8.759   7.499   4.749
16127TIP3   OH248265   9.735   7.655   4.881
16127TIP3    H148266   9.737   7.748   4.915
16127TIP3    H248267   9.669   7.614   4.941
16128TIP3   OH248268   9.499   7.794   3.832
16128TIP3    H148269   9.449   7.770   3.752
16128TIP3    H248270   9.460   7.880   3.858
16129TIP3   OH248271   8.941   7.635   4.220
16129TIP3    H148272   8.988   7.626   4.306
16129TIP3    H248273   8.881   7.559   4.225
16130TIP3   OH248274   9.709   7.687   3.492
16130TIP3    H148275   9.785   7.636   3.462
16130TIP3    H248276   9.735   7.704   3.585
16131TIP3   OH248277   9.749   7.733   3.758
16131TIP3    H148278   9.659   7.747   3.794
16131TIP3    H248279   9.792   7.690   3.834
16132TIP3   OH248280   9.117   7.414   5.041
16132TIP3    H148281   9.169   7.401   5.124
16132TIP3    H248282   9.044   7.350   5.054
16133TIP3   OH248283   9.519   6.233   4.835
16133TIP3    H148284   9.430   6.202   4.807
16133TIP3    H248285   9.493   6.314   4.882
16134TIP3   OH248286  10.043   6.350   5.033
16134TIP3    H148287  10.091   6.335   5.115
16134TIP3    H248288   9.951   6.329   5.062
16135TIP3   OH248289   9.671   6.285   3.807
16135TIP3    H148290   9.641   6.283   3.900
16135TIP3    H248291   9.632   6.202   3.774
16136TIP3   OH248292   9.454   6.749   4.855
16136TIP3    H148293   9.398   6.767   4.933
16136TIP3    H248294   9.436   6.828   4.799
16137TIP3   OH248295   9.336   6.634   4.367
16137TIP3    H148296   9.243   6.608   4.385
16137TIP3    H248297   9.350   6.593   4.279
16138TIP3   OH248298   9.820   6.713   4.086
16138TIP3    H148299   9.772   6.790   4.049
16138TIP3    H248300   9.884   6.691   4.016
16139TIP3   OH248301   9.963   6.751   4.352
16139TIP3    H148302   9.935   6.796   4.271
16139TIP3    H248303  10.004   6.672   4.313
16140TIP3   OH248304   9.279   6.777   5.065
16140TIP3    H148305   9.288   6.845   5.134
16140TIP3    H248306   9.269   6.696   5.117
16141TIP3   OH248307   9.320   6.253   3.771
16141TIP3    H148308   9.315   6.253   3.868
16141TIP3    H248309   9.243   6.309   3.749
16142TIP3   OH248310   8.867   6.299   4.645
16142TIP3    H148311   8.943   6.332   4.696
16142TIP3    H248312   8.905   6.270   4.561
16143TIP3   OH248313   8.837   6.281   4.160
16143TIP3    H148314   8.883   6.319   4.083
16143TIP3    H248315   8.776   6.354   4.182
16144TIP3   OH248316   9.662   6.449   4.427
16144TIP3    H148317   9.581   6.454   4.481
16144TIP3    H248318   9.730   6.468   4.494
16145TIP3   OH248319   9.097   6.512   4.438
16145TIP3    H148320   9.003   6.519   4.409
16145TIP3    H248321   9.122   6.422   4.412
16146TIP3   OH248322   9.364   6.506   4.127
16146TIP3    H148323   9.460   6.522   4.111
16146TIP3    H248324   9.322   6.531   4.042
16147TIP3   OH248325  10.065   6.556   4.628
16147TIP3    H148326  10.068   6.552   4.725
16147TIP3    H248327  10.012   6.477   4.604
16148TIP3   OH248328   9.209   6.540   3.902
16148TIP3    H148329   9.135   6.500   3.855
16148TIP3    H248330   9.261   6.577   3.828
16149TIP3   OH248331   9.272   7.330   5.260
16149TIP3    H148332   9.348   7.306   5.317
16149TIP3    H248333   9.207   7.347   5.331
16150TIP3   OH248334   9.735   6.755   4.519
16150TIP3    H148335   9.819   6.751   4.468
16150TIP3    H248336   9.763   6.724   4.607
16151TIP3   OH248337   9.269   6.274   4.403
16151TIP3    H148338   9.237   6.194   4.450
16151TIP3    H248339   9.327   6.236   4.336
16152TIP3   OH248340   9.717   6.671   4.812
16152TIP3    H148341   9.624   6.703   4.816
16152TIP3    H248342   9.761   6.726   4.877
16153TIP3   OH248343   9.459   7.070   3.913
16153TIP3    H148344   9.385   7.006   3.901
16153TIP3    H248345   9.439   7.105   4.003
16154TIP3   OH248346   9.914   6.405   3.753
16154TIP3    H148347   9.825   6.378   3.787
16154TIP3    H248348   9.933   6.486   3.804
16155TIP3   OH248349   9.866   7.369   4.933
16155TIP3    H148350   9.849   7.377   5.029
16155TIP3    H248351   9.838   7.459   4.906
16156TIP3   OH248352  10.002   6.641   3.866
16156TIP3    H148353  10.095   6.660   3.885
16156TIP3    H248354   9.975   6.717   3.811
16157TIP3   OH248355   9.153   7.092   4.588
16157TIP3    H148356   9.191   7.065   4.502
16157TIP3    H248357   9.192   7.029   4.650
16158TIP3   OH248358   9.600   7.219   3.733
16158TIP3    H148359   9.555   7.307   3.737
16158TIP3    H248360   9.544   7.166   3.794
16159TIP3   OH248361   9.037   7.014   5.200
16159TIP3    H148362   9.059   7.004   5.295
16159TIP3    H248363   8.964   6.950   5.191
16160TIP3   OH248364   9.752   7.128   5.204
16160TIP3    H148365   9.684   7.059   5.200
16160TIP3    H248366   9.831   7.079   5.228
16161TIP3   OH248367  10.008   7.629   4.808
16161TIP3    H148368   9.915   7.655   4.811
16161TIP3    H248369  10.045   7.685   4.878
16162TIP3   OH248370   9.253   7.397   4.207
16162TIP3    H148371   9.252   7.480   4.156
16162TIP3    H248372   9.159   7.384   4.224
16163TIP3   OH248373   8.817   6.702   3.914
16163TIP3    H148374   8.862   6.787   3.934
16163TIP3    H248375   8.740   6.708   3.975
16164TIP3   OH248376   9.390   7.164   4.155
16164TIP3    H148377   9.355   7.253   4.172
16164TIP3    H248378   9.355   7.114   4.232
16165TIP3   OH248379   9.524   7.741   4.679
16165TIP3    H148380   9.567   7.813   4.630
16165TIP3    H248381   9.599   7.705   4.729
16166TIP3   OH248382   9.173   7.637   4.063
16166TIP3    H148383   9.087   7.645   4.109
16166TIP3    H248384   9.204   7.730   4.066
16167TIP3   OH248385   9.908   7.372   4.643
16167TIP3    H148386   9.918   7.390   4.738
16167TIP3    H248387   9.999   7.358   4.615
16168TIP3   OH248388   9.253   6.515   5.220
16168TIP3    H148389   9.185   6.549   5.280
16168TIP3    H248390   9.299   6.452   5.279
16169TIP3   OH248391   8.963   7.603   4.840
16169TIP3    H148392   9.016   7.531   4.876
16169TIP3    H248393   8.986   7.676   4.899
16170TIP3   OH248394   9.252   7.250   3.521
16170TIP3    H148395   9.264   7.157   3.493
16170TIP3    H248396   9.234   7.238   3.617
16171TIP3   OH248397   9.199   7.254   3.792
16171TIP3    H148398   9.267   7.229   3.857
16171TIP3    H248399   9.201   7.352   3.799
16172TIP3   OH248400   8.932   6.948   3.997
16172TIP3    H148401   8.866   6.993   4.054
16172TIP3    H248402   8.945   7.018   3.929
16173TIP3   OH248403  10.105   6.589   4.913
16173TIP3    H148404  10.124   6.641   4.993
16173TIP3    H248405  10.074   6.505   4.952
16174TIP3   OH248406   9.927   6.359   4.055
16174TIP3    H148407   9.963   6.353   3.966
16174TIP3    H248408   9.990   6.420   4.099
16175TIP3   OH248409   9.464   7.453   3.742
16175TIP3    H148410   9.377   7.479   3.778
16175TIP3    H248411   9.476   7.522   3.675
16176TIP3   OH248412   9.641   6.516   4.157
16176TIP3    H148413   9.711   6.582   4.136
16176TIP3    H248414   9.652   6.508   4.254
16177TIP3   OH248415   9.793   6.244   4.263
16177TIP3    H148416   9.778   6.324   4.316
16177TIP3    H248417   9.848   6.281   4.190
16178TIP3   OH248418   9.208   7.527   3.810
16178TIP3    H148419   9.177   7.596   3.748
16178TIP3    H248420   9.190   7.570   3.897
16179TIP3   OH248421   9.308   6.241   4.046
16179TIP3    H148422   9.304   6.331   4.085
16179TIP3    H248423   9.404   6.224   4.057
16180TIP3   OH248424   8.923   7.156   3.804
16180TIP3    H148425   8.984   7.231   3.811
16180TIP3    H248426   8.970   7.104   3.735
16181TIP3   OH248427   8.868   6.432   3.933
16181TIP3    H148428   8.869   6.530   3.932
16181TIP3    H248429   8.782   6.413   3.895
16182TIP3   OH248430   9.254   6.155   4.810
16182TIP3    H148431   9.225   6.119   4.723
16182TIP3    H248432   9.246   6.076   4.868
16183TIP3   OH248433   8.793   7.368   4.189
16183TIP3    H148434   8.725   7.402   4.248
16183TIP3    H248435   8.767   7.411   4.104
16184TIP3   OH248436   8.954   7.913   5.260
16184TIP3    H148437   9.039   7.914   5.308
16184TIP3    H248438   8.934   7.818   5.259
16185TIP3   OH248439   9.430   7.878   5.306
16185TIP3    H148440   9.527   7.872   5.308
16185TIP3    H248441   9.408   7.817   5.233
16186TIP3   OH248442   9.415   7.454   3.436
16186TIP3    H148443   9.358   7.382   3.473
16186TIP3    H248444   9.488   7.402   3.401
16187TIP3   OH248445  10.082   7.770   5.042
16187TIP3    H148446  10.067   7.699   5.109
16187TIP3    H248447  10.148   7.825   5.086
16188TIP3   OH248448   9.078   7.324   5.458
16188TIP3    H148449   9.095   7.231   5.478
16188TIP3    H248450   8.989   7.321   5.416
16189TIP3   OH248451   9.060   6.970   3.654
16189TIP3    H148452   9.115   6.940   3.728
16189TIP3    H248453   9.128   6.976   3.583
16190TIP3   OH248454   9.736   7.416   5.199
16190TIP3    H148455   9.652   7.432   5.150
16190TIP3    H248456   9.726   7.323   5.227
16191TIP3   OH248457   9.567   7.169   3.461
16191TIP3    H148458   9.580   7.185   3.557
16191TIP3    H248459   9.560   7.071   3.461
16192TIP3   OH248460   9.210   7.038   5.452
16192TIP3    H148461   9.285   6.990   5.416
16192TIP3    H248462   9.261   7.112   5.491
16193TIP3   OH248463   9.267   6.873   3.878
16193TIP3    H148464   9.239   6.835   3.962
16193TIP3    H248465   9.302   6.796   3.830
16194TIP3   OH248466   9.547   6.950   5.101
16194TIP3    H148467   9.469   6.999   5.135
16194TIP3    H248468   9.540   6.969   5.007
16195TIP3   OH248469   9.367   6.666   3.718
16195TIP3    H148470   9.340   6.674   3.624
16195TIP3    H248471   9.464   6.674   3.709
16196TIP3   OH248472  10.057   7.288   5.204
16196TIP3    H148473  10.125   7.356   5.214
16196TIP3    H248474  10.055   7.250   5.295
16197TIP3   OH248475   9.662   6.727   5.226
16197TIP3    H148476   9.657   6.645   5.173
16197TIP3    H248477   9.615   6.793   5.170
16198TIP3   OH248478   9.660   6.510   5.036
16198TIP3    H148479   9.683   6.543   4.947
16198TIP3    H248480   9.566   6.486   5.023
16199TIP3   OH248481   9.749   7.056   4.859
16199TIP3    H148482   9.722   7.049   4.766
16199TIP3    H248483   9.684   7.121   4.889
16200TIP3   OH248484  10.299   7.026   5.303
16200TIP3    H148485  10.324   6.933   5.302
16200TIP3    H248486  10.384   7.071   5.295
16201TIP3   OH248487   9.531   6.833   5.450
16201TIP3    H148488   9.467   6.763   5.474
16201TIP3    H248489   9.576   6.794   5.372
16202TIP3   OH248490   9.791   6.275   5.100
16202TIP3    H148491   9.739   6.357   5.082
16202TIP3    H248492   9.722   6.206   5.092
16203TIP3   OH248493   9.927   6.788   5.301
16203TIP3    H148494   9.925   6.795   5.398
16203TIP3    H248495   9.834   6.760   5.284
16204TIP3   OH248496  10.155   6.707   5.163
16204TIP3    H148497  10.076   6.737   5.213
16204TIP3    H248498  10.219   6.695   5.236
16205TIP3   OH248499  10.367   6.665   5.353
16205TIP3    H148500  10.412   6.591   5.394
16205TIP3    H248501  10.367   6.730   5.427
16206TIP3   OH248502   9.374   6.616   5.513
16206TIP3    H148503   9.382   6.522   5.488
16206TIP3    H248504   9.411   6.611   5.605
16207TIP3   OH248505   9.897   6.291   5.355
16207TIP3    H148506   9.957   6.214   5.353
16207TIP3    H248507   9.849   6.280   5.270
16208TIP3   OH248508   9.959   6.507   5.518
16208TIP3    H148509   9.933   6.436   5.455
16208TIP3    H248510   9.881   6.566   5.516
16209TIP3   OH248511   9.176   7.731   3.625
16209TIP3    H148512   9.270   7.729   3.599
16209TIP3    H248513   9.136   7.775   3.548
16210TIP3   OH248514   8.655   7.110   3.841
16210TIP3    H148515   8.750   7.133   3.826
16210TIP3    H248516   8.650   7.023   3.797
16211TIP3   OH248517   8.571   7.725   4.251
16211TIP3    H148518   8.504   7.664   4.215
16211TIP3    H248519   8.615   7.667   4.317
16212TIP3   OH248520   8.708   7.575   4.438
16212TIP3    H148521   8.693   7.503   4.501
16212TIP3    H248522   8.758   7.637   4.493
16213TIP3   OH248523   8.893   6.976   4.814
16213TIP3    H148524   8.890   6.950   4.719
16213TIP3    H248525   8.991   6.980   4.828
16214TIP3   OH248526   9.117   6.675   5.457
16214TIP3    H148527   9.210   6.666   5.488
16214TIP3    H248528   9.075   6.598   5.501
16215TIP3   OH248529   9.070   6.363   4.823
16215TIP3    H148530   9.132   6.287   4.830
16215TIP3    H248531   9.133   6.436   4.812
16216TIP3   OH248532   8.880   6.634   4.900
16216TIP3    H148533   8.927   6.628   4.815
16216TIP3    H248534   8.894   6.727   4.923
16217TIP3   OH248535   8.857   6.139   4.390
16217TIP3    H148536   8.763   6.135   4.415
16217TIP3    H248537   8.855   6.197   4.311
16218TIP3   OH248538   9.077   6.219   5.206
16218TIP3    H148539   9.032   6.210   5.292
16218TIP3    H248540   9.004   6.249   5.149
16219TIP3   OH248541   9.117   7.648   5.279
16219TIP3    H148542   9.024   7.620   5.268
16219TIP3    H248543   9.133   7.626   5.372
16220TIP3   OH248544   9.297   7.675   4.827
16220TIP3    H148545   9.248   7.751   4.789
16220TIP3    H248546   9.384   7.692   4.784
16221TIP3   OH248547   9.742   7.921   4.967
16221TIP3    H148548   9.780   7.928   5.057
16221TIP3    H248549   9.807   7.975   4.916
16222TIP3   OH248550   9.920   8.074   4.823
16222TIP3    H148551   9.971   8.015   4.766
16222TIP3    H248552   9.991   8.137   4.844
16223TIP3   OH248553   8.971   7.935   4.852
16223TIP3    H148554   8.882   7.969   4.830
16223TIP3    H248555   8.984   7.973   4.940
16224TIP3   OH248556   9.207   7.911   4.710
16224TIP3    H148557   9.121   7.925   4.755
16224TIP3    H248558   9.188   7.946   4.621
16225TIP3   OH248559   9.637   7.940   4.498
16225TIP3    H148560   9.558   7.961   4.444
16225TIP3    H248561   9.649   8.023   4.549
16226TIP3   OH248562   9.906   7.883   4.559
16226TIP3    H148563   9.812   7.899   4.539
16226TIP3    H248564   9.949   7.962   4.523
16227TIP3   OH248565   8.885   7.729   4.597
16227TIP3    H148566   8.911   7.704   4.688
16227TIP3    H248567   8.957   7.685   4.547
16228TIP3   OH248568   9.078   7.600   4.453
16228TIP3    H148569   9.093   7.517   4.504
16228TIP3    H248570   9.169   7.637   4.451
16229TIP3   OH248571   9.344   7.695   4.459
16229TIP3    H148572   9.376   7.603   4.448
16229TIP3    H248573   9.389   7.717   4.543
16230TIP3   OH248574   9.920   6.323   4.544
16230TIP3    H148575   9.864   6.260   4.594
16230TIP3    H248576   9.949   6.268   4.470
16231TIP3   OH248577   9.169   6.061   4.561
16231TIP3    H148578   9.077   6.028   4.563
16231TIP3    H248579   9.218   5.976   4.557
16232TIP3   OH248580   8.957   5.930   4.204
16232TIP3    H148581   8.985   5.991   4.133
16232TIP3    H248582   8.927   5.992   4.273
16233TIP3   OH248583   9.604   6.095   4.442
16233TIP3    H148584   9.665   6.135   4.377
16233TIP3    H248585   9.638   6.132   4.525
16234TIP3   OH248586   8.671   7.502   3.988
16234TIP3    H148587   8.586   7.469   3.954
16234TIP3    H248588   8.662   7.596   3.966
16235TIP3   OH248589   9.073   6.089   3.973
16235TIP3    H148590   9.123   6.029   3.915
16235TIP3    H248591   9.144   6.145   4.010
16236TIP3   OH248592   9.586   6.264   4.070
16236TIP3    H148593   9.647   6.218   4.130
16236TIP3    H248594   9.606   6.356   4.096
16237TIP3   OH248595   9.442   7.693   3.566
16237TIP3    H148596   9.532   7.713   3.531
16237TIP3    H248597   9.420   7.617   3.507
16238TIP3   OH248598   9.375   6.345   5.443
16238TIP3    H148599   9.335   6.277   5.501
16238TIP3    H248600   9.468   6.341   5.476
16239TIP3   OH248601   9.623   6.331   5.568
16239TIP3    H148602   9.711   6.303   5.541
16239TIP3    H248603   9.602   6.265   5.638
16240TIP3   OH248604   8.750   7.525   3.625
16240TIP3    H148605   8.748   7.553   3.717
16240TIP3    H248606   8.842   7.490   3.615
16241TIP3   OH248607   0.817   7.900   6.382
16241TIP3    H148608   0.868   7.840   6.437
16241TIP3    H248609   0.853   7.986   6.405
16242TIP3   OH248610   1.327   7.147   6.759
16242TIP3    H148611   1.357   7.230   6.802
16242TIP3    H248612   1.347   7.166   6.666
16243TIP3   OH248613   0.802   7.324   6.785
16243TIP3    H148614   0.832   7.234   6.807
16243TIP3    H248615   0.771   7.309   6.695
16244TIP3   OH248616   0.753   7.072   6.400
16244TIP3    H148617   0.835   7.059   6.451
16244TIP3    H248618   0.788   7.096   6.313
16245TIP3   OH248619   1.405   7.354   6.928
16245TIP3    H148620   1.321   7.399   6.907
16245TIP3    H248621   1.413   7.375   7.022
16246TIP3   OH248622   0.976   7.076   6.557
16246TIP3    H148623   0.943   7.048   6.644
16246TIP3    H248624   1.028   7.155   6.579
16247TIP3   OH248625   1.128   7.042   6.928
16247TIP3    H148626   1.043   7.084   6.912
16247TIP3    H248627   1.182   7.076   6.854
16248TIP3   OH248628   0.683   7.974   6.131
16248TIP3    H148629   0.640   7.896   6.093
16248TIP3    H248630   0.735   7.935   6.204
16249TIP3   OH248631   1.070   8.063   6.913
16249TIP3    H148632   1.034   7.982   6.874
16249TIP3    H248633   1.042   8.129   6.847
16250TIP3   OH248634   1.271   7.683   6.749
16250TIP3    H148635   1.185   7.730   6.759
16250TIP3    H248636   1.294   7.712   6.658
16251TIP3   OH248637   0.705   7.541   6.124
16251TIP3    H148638   0.642   7.564   6.197
16251TIP3    H248639   0.782   7.508   6.174
16252TIP3   OH248640   0.953   7.596   7.021
16252TIP3    H148641   0.943   7.661   7.094
16252TIP3    H248642   0.860   7.583   6.996
16253TIP3   OH248643   0.603   7.349   5.944
16253TIP3    H148644   0.607   7.419   6.012
16253TIP3    H248645   0.574   7.400   5.867
16254TIP3   OH248646   1.021   6.672   6.031
16254TIP3    H148647   0.965   6.620   5.975
16254TIP3    H248648   1.062   6.735   5.968
16255TIP3   OH248649   0.851   8.001   5.559
16255TIP3    H148650   0.863   8.098   5.548
16255TIP3    H248651   0.943   7.969   5.545
16256TIP3   OH248652   1.306   8.394   6.948
16256TIP3    H148653   1.305   8.299   6.970
16256TIP3    H248654   1.214   8.418   6.971
16257TIP3   OH248655   1.188   7.535   7.218
16257TIP3    H148656   1.100   7.544   7.179
16257TIP3    H248657   1.197   7.439   7.225
16258TIP3   OH248658   0.729   6.872   7.231
16258TIP3    H148659   0.801   6.838   7.288
16258TIP3    H248660   0.651   6.854   7.285
16259TIP3   OH248661   0.979   7.320   7.124
16259TIP3    H148662   0.944   7.311   7.215
16259TIP3    H248663   0.919   7.389   7.091
16260TIP3   OH248664   0.595   7.464   5.685
16260TIP3    H148665   0.581   7.411   5.604
16260TIP3    H248666   0.690   7.487   5.677
16261TIP3   OH248667   0.655   7.284   6.545
16261TIP3    H148668   0.575   7.305   6.493
16261TIP3    H248669   0.681   7.200   6.501
16262TIP3   OH248670   0.827   7.050   6.805
16262TIP3    H148671   0.825   7.053   6.904
16262TIP3    H248672   0.749   6.993   6.789
16263TIP3   OH248673   1.045   7.827   6.744
16263TIP3    H148674   1.063   7.883   6.666
16263TIP3    H248675   0.947   7.832   6.749
16264TIP3   OH248676   0.545   6.899   5.992
16264TIP3    H148677   0.470   6.960   5.998
16264TIP3    H248678   0.615   6.965   6.013
16265TIP3   OH248679   0.686   7.117   6.052
16265TIP3    H148680   0.765   7.158   6.092
16265TIP3    H248681   0.642   7.197   6.015
16266TIP3   OH248682   1.086   7.253   5.916
16266TIP3    H148683   1.024   7.211   5.853
16266TIP3    H248684   1.084   7.343   5.877
16267TIP3   OH248685   1.317   8.114   6.997
16267TIP3    H148686   1.218   8.107   6.991
16267TIP3    H248687   1.340   8.082   6.907
16268TIP3   OH248688   0.784   8.076   5.826
16268TIP3    H148689   0.763   8.008   5.891
16268TIP3    H248690   0.805   8.025   5.745
16269TIP3   OH248691   0.780   7.706   6.635
16269TIP3    H148692   0.713   7.663   6.690
16269TIP3    H248693   0.825   7.628   6.597
16270TIP3   OH248694   0.874   8.285   5.550
16270TIP3    H148695   0.933   8.349   5.506
16270TIP3    H248696   0.789   8.318   5.518
16271TIP3   OH248697   0.698   7.741   5.932
16271TIP3    H148698   0.685   7.669   5.998
16271TIP3    H248699   0.795   7.736   5.922
16272TIP3   OH248700   0.825   7.078   7.070
16272TIP3    H148701   0.865   7.154   7.115
16272TIP3    H248702   0.808   7.015   7.143
16273TIP3   OH248703   1.236   7.257   7.144
16273TIP3    H148704   1.139   7.271   7.142
16273TIP3    H248705   1.247   7.216   7.057
16274TIP3   OH248706   0.873   7.465   6.530
16274TIP3    H148707   0.798   7.403   6.534
16274TIP3    H248708   0.942   7.417   6.581
16275TIP3   OH248709   0.904   8.347   6.482
16275TIP3    H148710   0.821   8.394   6.461
16275TIP3    H248711   0.972   8.408   6.450
16276TIP3   OH248712   0.846   7.535   5.582
16276TIP3    H148713   0.831   7.483   5.501
16276TIP3    H248714   0.821   7.623   5.549
16277TIP3   OH248715   0.956   7.543   7.463
16277TIP3    H148716   0.985   7.472   7.521
16277TIP3    H248717   1.007   7.618   7.495
16278TIP3   OH248718   0.974   7.798   7.212
16278TIP3    H148719   0.918   7.859   7.162
16278TIP3    H248720   1.063   7.818   7.174
16279TIP3   OH248721   0.865   7.274   7.357
16279TIP3    H148722   0.786   7.258   7.410
16279TIP3    H248723   0.937   7.252   7.421
16280TIP3   OH248724   1.047   7.196   7.541
16280TIP3    H148725   1.063   7.101   7.561
16280TIP3    H248726   1.034   7.237   7.629
16281TIP3   OH248727   1.099   8.529   6.439
16281TIP3    H148728   1.119   8.571   6.523
16281TIP3    H248729   1.116   8.598   6.376
16282TIP3   OH248730   1.110   8.536   6.721
16282TIP3    H148731   1.081   8.444   6.718
16282TIP3    H248732   1.190   8.527   6.774
16283TIP3   OH248733   1.160   8.210   7.286
16283TIP3    H148734   1.112   8.207   7.369
16283TIP3    H248735   1.207   8.296   7.292
16284TIP3   OH248736   0.980   7.720   5.915
16284TIP3    H148737   1.052   7.780   5.888
16284TIP3    H248738   1.020   7.678   5.995
16285TIP3   OH248739   1.109   7.587   6.119
16285TIP3    H148740   1.043   7.541   6.176
16285TIP3    H248741   1.172   7.622   6.185
16286TIP3   OH248742   1.147   7.976   6.538
16286TIP3    H148743   1.211   7.912   6.500
16286TIP3    H248744   1.165   8.056   6.484
16287TIP3   OH248745   0.968   8.259   6.736
16287TIP3    H148746   0.915   8.327   6.779
16287TIP3    H248747   0.951   8.276   6.642
16288TIP3   OH248748   1.048   7.493   5.767
16288TIP3    H148749   0.976   7.495   5.701
16288TIP3    H248750   1.019   7.568   5.824
16289TIP3   OH248751   0.924   7.168   5.717
16289TIP3    H148752   0.881   7.202   5.638
16289TIP3    H248753   0.892   7.075   5.716
16290TIP3   OH248754   0.929   7.439   6.264
16290TIP3    H148755   0.933   7.342   6.254
16290TIP3    H248756   0.917   7.450   6.361
16291TIP3   OH248757   1.218   7.868   7.122
16291TIP3    H148758   1.288   7.799   7.114
16291TIP3    H248759   1.245   7.933   7.055
16292TIP3   OH248760   1.402   7.674   7.138
16292TIP3    H148761   1.325   7.623   7.173
16292TIP3    H248762   1.473   7.608   7.155
16293TIP3   OH248763   0.857   6.905   5.719
16293TIP3    H148764   0.940   6.871   5.756
16293TIP3    H248765   0.796   6.830   5.725
16294TIP3   OH248766   0.933   7.165   6.174
16294TIP3    H148767   0.964   7.074   6.188
16294TIP3    H248768   0.985   7.191   6.096
16295TIP3   OH248769   1.082   7.328   6.651
16295TIP3    H148770   1.169   7.355   6.614
16295TIP3    H248771   1.091   7.365   6.741
16296TIP3   OH248772   1.157   7.468   6.882
16296TIP3    H148773   1.082   7.506   6.933
16296TIP3    H248774   1.192   7.549   6.839
16297TIP3   OH248775   1.602   7.064   7.447
16297TIP3    H148776   1.661   6.998   7.404
16297TIP3    H248777   1.574   7.119   7.371
16298TIP3   OH248778   1.014   6.895   6.210
16298TIP3    H148779   1.062   6.893   6.295
16298TIP3    H248780   1.041   6.812   6.169
16299TIP3   OH248781   1.481   7.205   7.251
16299TIP3    H148782   1.393   7.245   7.267
16299TIP3    H248783   1.453   7.132   7.192
16300TIP3   OH248784   1.109   6.837   5.830
16300TIP3    H148785   1.153   6.769   5.775
16300TIP3    H248786   1.174   6.910   5.826
16301TIP3   OH248787   1.374   6.966   7.128
16301TIP3    H148788   1.282   6.961   7.096
16301TIP3    H248789   1.403   6.873   7.117
16302TIP3   OH248790   0.621   6.855   6.772
16302TIP3    H148791   0.614   6.778   6.830
16302TIP3    H248792   0.695   6.827   6.714
16303TIP3   OH248793   1.103   6.758   6.648
16303TIP3    H148794   1.141   6.815   6.577
16303TIP3    H248795   1.011   6.790   6.650
16304TIP3   OH248796   1.193   6.866   6.414
16304TIP3    H148797   1.267   6.813   6.377
16304TIP3    H248798   1.229   6.957   6.401
16305TIP3   OH248799   0.825   6.759   6.621
16305TIP3    H148800   0.853   6.714   6.541
16305TIP3    H248801   0.808   6.682   6.681
16306TIP3   OH248802   0.816   8.346   5.847
16306TIP3    H148803   0.806   8.250   5.867
16306TIP3    H248804   0.804   8.343   5.752
16307TIP3   OH248805   1.108   6.929   7.564
16307TIP3    H148806   1.128   6.896   7.655
16307TIP3    H248807   1.196   6.924   7.522
16308TIP3   OH248808   1.053   8.471   7.003
16308TIP3    H148809   0.969   8.433   7.031
16308TIP3    H248810   1.053   8.550   7.059
16309TIP3   OH248811   2.307   7.862   5.830
16309TIP3    H148812   2.278   7.949   5.796
16309TIP3    H248813   2.239   7.806   5.788
16310TIP3   OH248814   2.326   7.824   6.215
16310TIP3    H148815   2.266   7.756   6.252
16310TIP3    H248816   2.303   7.815   6.121
16311TIP3   OH248817   1.608   7.750   6.565
16311TIP3    H148818   1.639   7.682   6.628
16311TIP3    H248819   1.684   7.810   6.565
16312TIP3   OH248820   2.559   8.161   5.877
16312TIP3    H148821   2.527   8.100   5.943
16312TIP3    H248822   2.585   8.239   5.929
16313TIP3   OH248823   1.582   8.159   6.292
16313TIP3    H148824   1.575   8.061   6.294
16313TIP3    H248825   1.679   8.169   6.287
16314TIP3   OH248826   1.288   7.365   6.076
16314TIP3    H148827   1.239   7.448   6.091
16314TIP3    H248828   1.218   7.310   6.038
16315TIP3   OH248829   1.347   7.653   6.251
16315TIP3    H148830   1.395   7.575   6.286
16315TIP3    H248831   1.403   7.678   6.176
16316TIP3   OH248832   2.201   8.621   5.896
16316TIP3    H148833   2.249   8.549   5.850
16316TIP3    H248834   2.193   8.586   5.986
16317TIP3   OH248835   2.105   8.086   6.250
16317TIP3    H148836   2.134   8.017   6.190
16317TIP3    H248837   2.192   8.122   6.278
16318TIP3   OH248838   3.123   7.402   6.245
16318TIP3    H148839   3.157   7.485   6.283
16318TIP3    H248840   3.151   7.412   6.152
16319TIP3   OH248841   1.860   7.243   6.246
16319TIP3    H148842   1.839   7.314   6.183
16319TIP3    H248843   1.813   7.168   6.204
16320TIP3   OH248844   2.553   7.334   5.868
16320TIP3    H148845   2.624   7.316   5.934
16320TIP3    H248846   2.607   7.366   5.794
16321TIP3   OH248847   1.494   7.446   6.353
16321TIP3    H148848   1.576   7.424   6.401
16321TIP3    H248849   1.506   7.389   6.274
16322TIP3   OH248850   1.936   7.642   6.146
16322TIP3    H148851   2.027   7.612   6.160
16322TIP3    H248852   1.892   7.560   6.114
16323TIP3   OH248853   3.204   7.615   6.409
16323TIP3    H148854   3.117   7.655   6.393
16323TIP3    H248855   3.210   7.625   6.505
16324TIP3   OH248856   1.857   7.227   6.682
16324TIP3    H148857   1.795   7.262   6.615
16324TIP3    H248858   1.805   7.242   6.763
16325TIP3   OH248859   2.203   8.076   5.691
16325TIP3    H148860   2.161   8.058   5.605
16325TIP3    H248861   2.160   8.161   5.714
16326TIP3   OH248862   1.963   8.002   6.477
16326TIP3    H148863   1.899   8.066   6.516
16326TIP3    H248864   2.002   8.055   6.404
16327TIP3   OH248865   2.761   7.336   6.041
16327TIP3    H148866   2.757   7.280   6.119
16327TIP3    H248867   2.822   7.406   6.068
16328TIP3   OH248868   1.727   7.341   6.465
16328TIP3    H148869   1.790   7.413   6.489
16328TIP3    H248870   1.776   7.300   6.390
16329TIP3   OH248871   1.791   8.195   6.573
16329TIP3    H148872   1.765   8.281   6.535
16329TIP3    H248873   1.712   8.179   6.630
16330TIP3   OH248874   1.186   7.886   5.811
16330TIP3    H148875   1.147   7.913   5.726
16330TIP3    H248876   1.217   7.971   5.847
16331TIP3   OH248877   2.623   8.397   6.048
16331TIP3    H148878   2.534   8.394   6.089
16331TIP3    H248879   2.619   8.484   6.003
16332TIP3   OH248880   2.911   7.309   6.416
16332TIP3    H148881   2.822   7.319   6.378
16332TIP3    H248882   2.969   7.336   6.342
16333TIP3   OH248883   2.212   6.944   6.396
16333TIP3    H148884   2.199   6.849   6.414
16333TIP3    H248885   2.134   6.982   6.443
16334TIP3   OH248886   2.330   8.446   5.728
16334TIP3    H148887   2.378   8.365   5.702
16334TIP3    H248888   2.389   8.513   5.686
16335TIP3   OH248889   2.468   8.232   5.627
16335TIP3    H148890   2.431   8.152   5.587
16335TIP3    H248891   2.507   8.198   5.710
16336TIP3   OH248892   2.848   8.315   6.396
16336TIP3    H148893   2.842   8.240   6.334
16336TIP3    H248894   2.831   8.392   6.337
16337TIP3   OH248895   2.147   7.713   5.652
16337TIP3    H148896   2.064   7.761   5.633
16337TIP3    H248897   2.186   7.706   5.564
16338TIP3   OH248898   2.099   7.493   5.368
16338TIP3    H148899   2.171   7.542   5.414
16338TIP3    H248900   2.151   7.424   5.323
16339TIP3   OH248901   3.048   7.947   6.237
16339TIP3    H148902   2.968   8.003   6.241
16339TIP3    H248903   3.082   7.971   6.148
16340TIP3   OH248904   2.487   7.791   5.626
16340TIP3    H148905   2.434   7.816   5.705
16340TIP3    H248906   2.571   7.764   5.667
16341TIP3   OH248907   1.721   7.788   6.040
16341TIP3    H148908   1.677   7.731   5.973
16341TIP3    H248909   1.798   7.733   6.066
16342TIP3   OH248910   1.848   8.199   6.188
16342TIP3    H148911   1.828   8.160   6.102
16342TIP3    H248912   1.938   8.165   6.206
16343TIP3   OH248913   1.863   7.756   6.395
16343TIP3    H148914   1.890   7.739   6.303
16343TIP3    H248915   1.900   7.846   6.413
16344TIP3   OH248916   2.386   8.395   6.174
16344TIP3    H148917   2.369   8.481   6.217
16344TIP3    H248918   2.360   8.331   6.242
16345TIP3   OH248919   1.997   8.314   6.718
16345TIP3    H148920   1.938   8.377   6.764
16345TIP3    H248921   1.930   8.262   6.668
16346TIP3   OH248922   2.333   7.646   5.447
16346TIP3    H148923   2.388   7.708   5.500
16346TIP3    H248924   2.358   7.671   5.355
16347TIP3   OH248925   1.750   7.873   6.817
16347TIP3    H148926   1.755   7.960   6.863
16347TIP3    H248927   1.656   7.852   6.832
16348TIP3   OH248928   2.075   8.327   5.727
16348TIP3    H148929   2.151   8.385   5.742
16348TIP3    H248930   2.012   8.386   5.682
16349TIP3   OH248931   1.793   8.482   6.803
16349TIP3    H148932   1.755   8.484   6.713
16349TIP3    H248933   1.714   8.462   6.858
16350TIP3   OH248934   1.587   7.632   5.847
16350TIP3    H148935   1.521   7.676   5.789
16350TIP3    H248936   1.549   7.543   5.855
16351TIP3   OH248937   2.644   8.256   5.045
16351TIP3    H148938   2.651   8.353   5.030
16351TIP3    H248939   2.737   8.228   5.033
16352TIP3   OH248940   1.372   8.013   6.752
16352TIP3    H148941   1.307   7.987   6.684
16352TIP3    H248942   1.409   7.927   6.780
16353TIP3   OH248943   1.230   8.207   6.392
16353TIP3    H148944   1.325   8.199   6.376
16353TIP3    H248945   1.227   8.289   6.443
16354TIP3   OH248946   3.088   8.658   6.440
16354TIP3    H148947   3.086   8.562   6.456
16354TIP3    H248948   3.005   8.685   6.485
16355TIP3   OH248949   2.195   8.443   6.574
16355TIP3    H148950   2.194   8.536   6.606
16355TIP3    H248951   2.123   8.404   6.629
16356TIP3   OH248952   1.956   8.573   5.527
16356TIP3    H148953   1.911   8.555   5.442
16356TIP3    H248954   1.923   8.662   5.550
16357TIP3   OH248955   1.391   8.423   5.910
16357TIP3    H148956   1.445   8.412   5.992
16357TIP3    H248957   1.336   8.344   5.915
16358TIP3   OH248958   2.157   8.476   5.168
16358TIP3    H148959   2.215   8.406   5.131
16358TIP3    H248960   2.191   8.484   5.259
16359TIP3   OH248961   2.207   8.523   5.438
16359TIP3    H148962   2.118   8.534   5.477
16359TIP3    H248963   2.256   8.484   5.512
16360TIP3   OH248964   2.988   7.790   6.720
16360TIP3    H148965   2.892   7.799   6.713
16360TIP3    H248966   3.001   7.694   6.707
16361TIP3   OH248967   1.575   8.197   6.739
16361TIP3    H148968   1.624   8.181   6.822
16361TIP3    H248969   1.501   8.134   6.747
16362TIP3   OH248970   1.973   7.022   6.523
16362TIP3    H148971   1.885   6.990   6.496
16362TIP3    H248972   1.946   7.102   6.572
16363TIP3   OH248973   2.505   7.139   6.717
16363TIP3    H148974   2.574   7.109   6.780
16363TIP3    H248975   2.422   7.116   6.764
16364TIP3   OH248976   2.744   7.599   6.653
16364TIP3    H148977   2.720   7.546   6.733
16364TIP3    H248978   2.668   7.658   6.655
16365TIP3   OH248979   2.405   7.688   5.188
16365TIP3    H148980   2.376   7.667   5.098
16365TIP3    H248981   2.483   7.744   5.169
16366TIP3   OH248982   2.123   7.073   5.498
16366TIP3    H148983   2.086   7.067   5.588
16366TIP3    H248984   2.085   6.991   5.460
16367TIP3   OH248985   1.908   7.535   6.545
16367TIP3    H148986   1.855   7.555   6.625
16367TIP3    H248987   1.891   7.616   6.491
16368TIP3   OH248988   1.789   7.425   6.057
16368TIP3    H148989   1.696   7.398   6.075
16368TIP3    H248990   1.802   7.384   5.968
16369TIP3   OH248991   2.281   7.512   5.786
16369TIP3    H148992   2.227   7.581   5.741
16369TIP3    H248993   2.334   7.476   5.713
16370TIP3   OH248994   2.457   7.784   6.865
16370TIP3    H148995   2.431   7.714   6.928
16370TIP3    H248996   2.548   7.803   6.896
16371TIP3   OH248997   2.437   7.545   6.014
16371TIP3    H148998   2.374   7.558   5.940
16371TIP3    H248999   2.474   7.459   5.984
16372TIP3   OH249000   1.725   7.564   6.751
16372TIP3    H149001   1.748   7.627   6.820
16372TIP3    H249002   1.712   7.482   6.802
16373TIP3   OH249003   1.776   7.045   5.460
16373TIP3    H149004   1.766   7.040   5.557
16373TIP3    H249005   1.696   7.094   5.435
16374TIP3   OH249006   1.319   7.089   6.330
16374TIP3    H149007   1.393   7.120   6.386
16374TIP3    H249008   1.363   7.055   6.251
16375TIP3   OH249009   1.288   7.068   5.851
16375TIP3    H149010   1.334   7.105   5.773
16375TIP3    H249011   1.228   7.142   5.871
16376TIP3   OH249012   2.118   7.255   6.120
16376TIP3    H149013   2.036   7.245   6.172
16376TIP3    H249014   2.186   7.235   6.187
16377TIP3   OH249015   1.551   7.301   6.126
16377TIP3    H149016   1.457   7.308   6.098
16377TIP3    H249017   1.574   7.209   6.103
16378TIP3   OH249018   1.819   7.300   5.815
16378TIP3    H149019   1.913   7.311   5.792
16378TIP3    H249020   1.772   7.320   5.731
16379TIP3   OH249021   2.630   7.311   6.328
16379TIP3    H149022   2.583   7.335   6.410
16379TIP3    H249023   2.562   7.261   6.281
16380TIP3   OH249024   1.661   7.332   5.594
16380TIP3    H149025   1.590   7.285   5.547
16380TIP3    H249026   1.713   7.367   5.518
16381TIP3   OH249027   2.779   9.007   6.540
16381TIP3    H149028   2.777   9.029   6.445
16381TIP3    H249029   2.860   9.054   6.569
16382TIP3   OH249030   1.736   8.119   6.960
16382TIP3    H149031   1.816   8.150   7.008
16382TIP3    H249032   1.672   8.118   7.034
16383TIP3   OH249033   2.210   7.577   6.234
16383TIP3    H149034   2.273   7.532   6.176
16383TIP3    H249035   2.204   7.517   6.311
16384TIP3   OH249036   1.723   7.060   6.094
16384TIP3    H149037   1.689   6.981   6.141
16384TIP3    H249038   1.772   7.020   6.021
16385TIP3   OH249039   2.176   7.472   6.498
16385TIP3    H149040   2.084   7.503   6.517
16385TIP3    H249041   2.231   7.532   6.552
16386TIP3   OH249042   1.914   7.860   5.602
16386TIP3    H149043   1.841   7.795   5.590
16386TIP3    H249044   1.894   7.894   5.693
16387TIP3   OH249045   2.817   8.097   6.229
16387TIP3    H149046   2.847   8.148   6.150
16387TIP3    H249047   2.730   8.065   6.201
16388TIP3   OH249048   2.367   7.185   5.444
16388TIP3    H149049   2.275   7.155   5.466
16388TIP3    H249050   2.375   7.270   5.491
16389TIP3   OH249051   2.314   8.178   6.597
16389TIP3    H149052   2.333   8.157   6.689
16389TIP3    H249053   2.275   8.267   6.604
16390TIP3   OH249054   2.440   7.421   5.571
16390TIP3    H149055   2.537   7.423   5.584
16390TIP3    H249056   2.424   7.501   5.518
16391TIP3   OH249057   1.608   7.884   6.277
16391TIP3    H149058   1.643   7.853   6.191
16391TIP3    H249059   1.640   7.816   6.338
16392TIP3   OH249060   2.060   8.011   5.426
16392TIP3    H149061   2.012   8.097   5.429
16392TIP3    H249062   2.003   7.956   5.484
16393TIP3   OH249063   1.488   7.804   6.890
16393TIP3    H149064   1.504   7.787   6.985
16393TIP3    H249065   1.421   7.736   6.869
16394TIP3   OH249066   2.212   7.917   6.909
16394TIP3    H149067   2.151   7.858   6.862
16394TIP3    H249068   2.299   7.883   6.879
16395TIP3   OH249069   2.472   8.426   6.497
16395TIP3    H149070   2.376   8.436   6.510
16395TIP3    H249071   2.504   8.483   6.571
16396TIP3   OH249072   2.885   7.512   5.405
16396TIP3    H149073   2.821   7.463   5.349
16396TIP3    H249074   2.879   7.599   5.361
16397TIP3   OH249075   3.099   8.365   6.485
16397TIP3    H149076   3.001   8.362   6.476
16397TIP3    H249077   3.126   8.337   6.394
16398TIP3   OH249078   2.587   8.330   5.311
16398TIP3    H149079   2.556   8.260   5.370
16398TIP3    H249080   2.596   8.284   5.225
16399TIP3   OH249081   2.580   7.930   6.183
16399TIP3    H149082   2.484   7.929   6.167
16399TIP3    H249083   2.613   7.873   6.109
16400TIP3   OH249084   1.708   8.186   5.900
16400TIP3    H149085   1.708   8.267   5.847
16400TIP3    H249086   1.613   8.172   5.914
16401TIP3   OH249087   1.271   7.490   5.605
16401TIP3    H149088   1.316   7.575   5.625
16401TIP3    H249089   1.194   7.495   5.665
16402TIP3   OH249090   1.848   7.952   5.849
16402TIP3    H149091   1.810   8.041   5.863
16402TIP3    H249092   1.806   7.902   5.921
16403TIP3   OH249093   1.975   8.530   6.370
16403TIP3    H149094   2.014   8.604   6.320
16403TIP3    H249095   2.052   8.499   6.420
16404TIP3   OH249096   1.627   8.425   5.755
16404TIP3    H149097   1.541   8.436   5.799
16404TIP3    H249098   1.660   8.517   5.757
16405TIP3   OH249099   2.364   8.152   6.331
16405TIP3    H149100   2.347   8.163   6.428
16405TIP3    H249101   2.460   8.148   6.330
16406TIP3   OH249102   2.338   8.052   5.211
16406TIP3    H149103   2.388   8.029   5.293
16406TIP3    H249104   2.247   8.032   5.238
16407TIP3   OH249105   2.611   8.696   6.376
16407TIP3    H149106   2.529   8.645   6.366
16407TIP3    H249107   2.599   8.764   6.306
16408TIP3   OH249108   2.677   8.531   5.031
16408TIP3    H149109   2.710   8.601   4.973
16408TIP3    H249110   2.597   8.577   5.066
16409TIP3   OH249111   1.697   7.309   6.896
16409TIP3    H149112   1.600   7.313   6.910
16409TIP3    H249113   1.724   7.250   6.969
16410TIP3   OH249114   2.498   7.990   5.430
16410TIP3    H149115   2.489   7.924   5.501
16410TIP3    H249116   2.595   7.989   5.416
16411TIP3   OH249117   1.416   8.384   6.530
16411TIP3    H149118   1.473   8.317   6.570
16411TIP3    H249119   1.441   8.463   6.579
16412TIP3   OH249120   1.708   8.036   5.212
16412TIP3    H149121   1.716   7.944   5.182
16412TIP3    H249122   1.684   8.024   5.306
16413TIP3   OH249123   1.648   8.042   5.485
16413TIP3    H149124   1.722   8.018   5.542
16413TIP3    H249125   1.651   8.140   5.489
16414TIP3   OH249126   1.386   7.736   5.687
16414TIP3    H149127   1.320   7.781   5.744
16414TIP3    H249128   1.400   7.805   5.619
16415TIP3   OH249129   2.531   7.377   6.581
16415TIP3    H149130   2.612   7.399   6.628
16415TIP3    H249131   2.507   7.292   6.626
16416TIP3   OH249132   2.399   7.133   5.744
16416TIP3    H149133   2.400   7.150   5.649
16416TIP3    H249134   2.449   7.208   5.780
16417TIP3   OH249135   1.916   8.240   5.435
16417TIP3    H149136   1.829   8.268   5.468
16417TIP3    H249137   1.931   8.307   5.366
16418TIP3   OH249138   2.103   7.305   5.847
16418TIP3    H149139   2.170   7.375   5.830
16418TIP3    H249140   2.108   7.298   5.945
16419TIP3   OH249141   2.392   7.636   6.631
16419TIP3    H149142   2.396   7.683   6.717
16419TIP3    H249143   2.424   7.547   6.655
16420TIP3   OH249144   2.247   7.031   5.950
16420TIP3    H149145   2.245   7.109   6.008
16420TIP3    H249146   2.304   7.066   5.877
16421TIP3   OH249147   1.658   8.314   5.500
16421TIP3    H149148   1.630   8.384   5.436
16421TIP3    H249149   1.643   8.359   5.586
16422TIP3   OH249150   1.758   7.029   5.737
16422TIP3    H149151   1.757   7.119   5.775
16422TIP3    H249152   1.854   7.009   5.745
16423TIP3   OH249153   3.012   7.532   6.614
16423TIP3    H149154   2.915   7.533   6.626
16423TIP3    H249155   3.022   7.458   6.553
16424TIP3   OH249156   2.656   7.714   6.036
16424TIP3    H149157   2.584   7.647   6.030
16424TIP3    H249158   2.733   7.660   6.066
16425TIP3   OH249159   1.375   7.946   5.492
16425TIP3    H149160   1.441   8.017   5.500
16425TIP3    H249161   1.420   7.890   5.425
16426TIP3   OH249162   1.321   7.221   5.628
16426TIP3    H149163   1.319   7.318   5.623
16426TIP3    H249164   1.244   7.196   5.576
16427TIP3   OH249165   2.634   8.668   5.971
16427TIP3    H149166   2.590   8.717   5.898
16427TIP3    H249167   2.727   8.690   5.950
16428TIP3   OH249168   1.709   6.941   6.499
16428TIP3    H149169   1.677   6.906   6.413
16428TIP3    H249170   1.698   6.863   6.557
16429TIP3   OH249171   1.248   8.158   5.882
16429TIP3    H149172   1.175   8.191   5.935
16429TIP3    H249173   1.228   8.199   5.795
16430TIP3   OH249174   1.404   8.696   6.954
16430TIP3    H149175   1.491   8.702   6.999
16430TIP3    H249176   1.392   8.600   6.949
16431TIP3   OH249177   1.882   8.664   6.999
16431TIP3    H149178   1.978   8.655   7.004
16431TIP3    H249179   1.862   8.605   6.923
16432TIP3   OH249180   1.870   8.242   5.127
16432TIP3    H149181   1.814   8.169   5.160
16432TIP3    H249182   1.941   8.192   5.083
16433TIP3   OH249183   2.530   8.568   6.725
16433TIP3    H149184   2.519   8.502   6.797
16433TIP3    H249185   2.604   8.623   6.759
16434TIP3   OH249186   2.304   8.283   5.036
16434TIP3    H149187   2.353   8.220   5.091
16434TIP3    H249188   2.355   8.284   4.952
16435TIP3   OH249189   1.539   8.107   7.155
16435TIP3    H149190   1.556   8.011   7.159
16435TIP3    H249191   1.453   8.110   7.107
16436TIP3   OH249192   1.511   7.759   5.344
16436TIP3    H149193   1.567   7.725   5.416
16436TIP3    H249194   1.577   7.764   5.272
16437TIP3   OH249195   2.144   8.193   6.925
16437TIP3    H149196   2.099   8.210   6.839
16437TIP3    H249197   2.173   8.100   6.916
16438TIP3   OH249198   2.028   7.957   5.155
16438TIP3    H149199   2.024   7.970   5.251
16438TIP3    H249200   2.019   7.859   5.149
16439TIP3   OH249201   2.629   8.187   6.514
16439TIP3    H149202   2.708   8.237   6.483
16439TIP3    H249203   2.564   8.260   6.521
16440TIP3   OH249204   1.656   7.844   7.133
16440TIP3    H149205   1.727   7.781   7.115
16440TIP3    H249206   1.681   7.875   7.223
16441TIP3   OH249207   1.723   7.661   5.569
16441TIP3    H149208   1.693   7.617   5.650
16441TIP3    H249209   1.757   7.586   5.516
16442TIP3   OH249210   1.986   7.726   6.799
16442TIP3    H149211   1.908   7.784   6.802
16442TIP3    H249212   2.035   7.762   6.722
16443TIP3   OH249213   1.819   7.457   5.407
16443TIP3    H149214   1.792   7.459   5.313
16443TIP3    H249215   1.917   7.462   5.399
16444TIP3   OH249216   2.504   8.126   6.928
16444TIP3    H149217   2.592   8.110   6.891
16444TIP3    H249218   2.500   8.062   7.001
16445TIP3   OH249219   2.644   7.785   5.068
16445TIP3    H149220   2.624   7.745   4.981
16445TIP3    H249221   2.613   7.876   5.050
16446TIP3   OH249222   2.115   7.516   6.920
16446TIP3    H149223   2.111   7.434   6.865
16446TIP3    H249224   2.066   7.580   6.864
16447TIP3   OH249225   2.115   7.303   6.726
16447TIP3    H149226   2.140   7.338   6.639
16447TIP3    H249227   2.021   7.278   6.711
16448TIP3   OH249228   2.137   7.839   6.609
16448TIP3    H149229   2.211   7.832   6.549
16448TIP3    H249230   2.081   7.907   6.566
16449TIP3   OH249231   2.722   7.801   6.979
16449TIP3    H149232   2.773   7.722   7.005
16449TIP3    H249233   2.793   7.865   6.959
16450TIP3   OH249234   2.768   8.052   6.716
16450TIP3    H149235   2.705   8.093   6.653
16450TIP3    H249236   2.853   8.075   6.673
16451TIP3   OH249237   1.990   7.626   7.151
16451TIP3    H149238   1.922   7.558   7.167
16451TIP3    H249239   2.025   7.599   7.064
16452TIP3   OH249240   2.247   7.065   6.794
16452TIP3    H149241   2.196   7.146   6.773
16452TIP3    H249242   2.178   6.996   6.784
16453TIP3   OH249243   2.374   7.570   7.010
16453TIP3    H149244   2.364   7.557   7.106
16453TIP3    H249245   2.284   7.545   6.981
16454TIP3   OH249246   2.614   7.503   6.867
16454TIP3    H149247   2.538   7.513   6.927
16454TIP3    H249248   2.686   7.480   6.929
16455TIP3   OH249249   2.846   7.457   7.015
16455TIP3    H149250   2.854   7.362   7.035
16455TIP3    H249251   2.838   7.498   7.104
16456TIP3   OH249252   1.831   7.406   7.203
16456TIP3    H149253   1.834   7.314   7.171
16456TIP3    H249254   1.866   7.394   7.294
16457TIP3   OH249255   2.343   7.076   7.051
16457TIP3    H149256   2.409   7.004   7.047
16457TIP3    H249257   2.302   7.068   6.963
16458TIP3   OH249258   2.409   7.291   7.209
16458TIP3    H149259   2.387   7.219   7.147
16458TIP3    H249260   2.330   7.348   7.205
16459TIP3   OH249261   1.628   8.514   5.313
16459TIP3    H149262   1.723   8.513   5.294
16459TIP3    H249263   1.597   8.564   5.235
16460TIP3   OH249264   1.107   7.899   5.529
16460TIP3    H149265   1.201   7.922   5.515
16460TIP3    H249266   1.103   7.810   5.488
16461TIP3   OH249267   1.026   8.508   5.937
16461TIP3    H149268   0.957   8.448   5.903
16461TIP3    H249269   1.068   8.453   6.006
16462TIP3   OH249270   1.155   8.365   6.131
16462TIP3    H149271   1.148   8.296   6.198
16462TIP3    H249272   1.215   8.428   6.177
16463TIP3   OH249273   2.887   8.761   5.930
16463TIP3    H149274   2.912   8.798   6.016
16463TIP3    H249275   2.946   8.808   5.869
16464TIP3   OH249276   2.914   8.786   6.212
16464TIP3    H149277   2.872   8.698   6.207
16464TIP3    H249278   2.991   8.765   6.267
16465TIP3   OH249279   2.961   8.459   6.783
16465TIP3    H149280   2.888   8.469   6.848
16465TIP3    H249281   3.003   8.548   6.787
16466TIP3   OH249282   2.777   7.972   5.403
16466TIP3    H149283   2.844   8.037   5.373
16466TIP3    H249284   2.822   7.935   5.482
16467TIP3   OH249285   2.903   7.842   5.608
16467TIP3    H149286   2.840   7.799   5.669
16467TIP3    H249287   2.971   7.877   5.669
16468TIP3   OH249288   2.956   8.230   6.038
16468TIP3    H149289   3.011   8.167   5.988
16468TIP3    H249290   2.953   8.308   5.979
16469TIP3   OH249291   2.790   8.533   6.236
16469TIP3    H149292   2.720   8.579   6.286
16469TIP3    H249293   2.740   8.488   6.165
16470TIP3   OH249294   2.841   7.746   5.253
16470TIP3    H149295   2.771   7.754   5.185
16470TIP3    H249296   2.816   7.823   5.310
16471TIP3   OH249297   2.711   7.417   5.221
16471TIP3    H149298   2.686   7.467   5.143
16471TIP3    H249299   2.693   7.325   5.199
16472TIP3   OH249300   2.716   7.697   5.757
16472TIP3    H149301   2.726   7.601   5.745
16472TIP3    H249302   2.705   7.705   5.854
16473TIP3   OH249303   1.344   7.781   6.499
16473TIP3    H149304   1.341   7.745   6.408
16473TIP3    H249305   1.441   7.778   6.516
16474TIP3   OH249306   3.009   8.121   6.605
16474TIP3    H149307   3.084   8.058   6.598
16474TIP3    H249308   3.038   8.195   6.550
16475TIP3   OH249309   3.196   7.929   6.622
16475TIP3    H149310   3.125   7.879   6.668
16475TIP3    H249311   3.271   7.867   6.633
16476TIP3   OH249312   2.716   7.415   5.649
16476TIP3    H149313   2.754   7.325   5.665
16476TIP3    H249314   2.777   7.444   5.579
16477TIP3   OH249315   2.877   7.590   6.139
16477TIP3    H149316   2.964   7.613   6.098
16477TIP3    H249317   2.893   7.624   6.229
16478TIP3   OH249318   2.924   7.746   6.371
16478TIP3    H149319   2.933   7.787   6.457
16478TIP3    H249320   2.972   7.811   6.314
16479TIP3   OH249321   1.565   7.459   7.177
16479TIP3    H149322   1.663   7.452   7.178
16479TIP3    H249323   1.540   7.374   7.217
16480TIP3   OH249324   2.823   7.167   5.687
16480TIP3    H149325   2.871   7.146   5.770
16480TIP3    H249326   2.766   7.087   5.678
16481TIP3   OH249327   1.524   7.149   6.505
16481TIP3    H149328   1.585   7.074   6.516
16481TIP3    H249329   1.587   7.224   6.500
16482TIP3   OH249330   1.328   7.421   6.578
16482TIP3    H149331   1.378   7.420   6.494
16482TIP3    H249332   1.358   7.504   6.617
16483TIP3   OH249333   1.313   6.931   6.079
16483TIP3    H149334   1.220   6.937   6.103
16483TIP3    H249335   1.316   6.987   5.999
16484TIP3   OH249336   2.473   8.627   5.588
16484TIP3    H149337   2.522   8.615   5.504
16484TIP3    H249338   2.522   8.700   5.629
16485TIP3   OH249339   1.531   7.009   6.895
16485TIP3    H149340   1.480   7.000   6.977
16485TIP3    H249341   1.463   7.046   6.835
16486TIP3   OH249342   1.577   8.433   6.971
16486TIP3    H149343   1.485   8.406   6.953
16486TIP3    H249344   1.585   8.418   7.066
16487TIP3   OH249345   1.748   8.465   6.517
16487TIP3    H149346   1.700   8.541   6.479
16487TIP3    H249347   1.834   8.480   6.473
16488TIP3   OH249348   2.194   8.709   6.654
16488TIP3    H149349   2.233   8.711   6.744
16488TIP3    H249350   2.259   8.762   6.604
16489TIP3   OH249351   2.373   8.862   6.515
16489TIP3    H149352   2.447   8.813   6.475
16489TIP3    H249353   2.422   8.920   6.578
16490TIP3   OH249354   3.163   7.213   6.614
16490TIP3    H149355   3.072   7.203   6.582
16490TIP3    H249356   3.197   7.121   6.604
16491TIP3   OH249357   1.425   8.719   6.544
16491TIP3    H149358   1.338   8.755   6.517
16491TIP3    H249359   1.438   8.765   6.627
16492TIP3   OH249360   1.662   8.700   6.399
16492TIP3    H149361   1.575   8.713   6.444
16492TIP3    H249362   1.643   8.735   6.310
16493TIP3   OH249363   2.087   8.730   6.198
16493TIP3    H149364   2.018   8.750   6.131
16493TIP3    H249365   2.099   8.818   6.239
16494TIP3   OH249366   2.355   8.666   6.246
16494TIP3    H149367   2.261   8.687   6.230
16494TIP3    H249368   2.398   8.744   6.207
16495TIP3   OH249369   2.565   8.861   6.165
16495TIP3    H149370   2.548   8.946   6.118
16495TIP3    H249371   2.589   8.802   6.090
16496TIP3   OH249372   1.347   8.516   6.267
16496TIP3    H149373   1.356   8.495   6.362
16496TIP3    H249374   1.423   8.467   6.229
16497TIP3   OH249375   1.541   8.377   6.132
16497TIP3    H149376   1.556   8.296   6.186
16497TIP3    H249377   1.631   8.417   6.131
16498TIP3   OH249378   1.799   8.484   6.147
16498TIP3    H149379   1.833   8.393   6.136
16498TIP3    H249380   1.841   8.507   6.231
16499TIP3   OH249381   2.365   7.139   6.231
16499TIP3    H149382   2.327   7.068   6.287
16499TIP3    H249383   2.440   7.094   6.190
16500TIP3   OH249384   2.894   7.030   6.146
16500TIP3    H149385   2.931   7.074   6.067
16500TIP3    H249386   2.798   7.038   6.132
16501TIP3   OH249387   2.990   7.120   5.906
16501TIP3    H149388   3.062   7.068   5.864
16501TIP3    H249389   3.023   7.211   5.888
16502TIP3   OH249390   1.619   6.848   6.251
16502TIP3    H149391   1.528   6.814   6.251
16502TIP3    H249392   1.669   6.764   6.247
16503TIP3   OH249393   1.407   6.725   5.895
16503TIP3    H149394   1.443   6.780   5.824
16503TIP3    H249395   1.387   6.790   5.965
16504TIP3   OH249396   2.063   6.883   6.131
16504TIP3    H149397   2.123   6.929   6.071
16504TIP3    H249398   2.090   6.918   6.217
16505TIP3   OH249399   2.612   7.028   6.113
16505TIP3    H149400   2.610   6.990   6.024
16505TIP3    H249401   2.599   6.948   6.169
16506TIP3   OH249402   2.649   6.953   5.699
16506TIP3    H149403   2.560   6.977   5.673
16506TIP3    H249404   2.636   6.863   5.734
16507TIP3   OH249405   1.124   8.289   5.682
16507TIP3    H149406   1.038   8.259   5.648
16507TIP3    H249407   1.117   8.384   5.661
16508TIP3   OH249408   1.524   6.878   5.663
16508TIP3    H149409   1.570   6.813   5.606
16508TIP3    H249410   1.599   6.931   5.697
16509TIP3   OH249411   2.035   7.054   5.761
16509TIP3    H149412   2.094   7.004   5.819
16509TIP3    H249413   2.060   7.146   5.787
16510TIP3   OH249414   1.897   8.479   5.262
16510TIP3    H149415   1.983   8.504   5.224
16510TIP3    H249416   1.874   8.405   5.201
16511TIP3   OH249417   2.616   8.597   5.353
16511TIP3    H149418   2.608   8.500   5.341
16511TIP3    H249419   2.569   8.630   5.274
16512TIP3   OH249420   1.829   7.132   7.143
16512TIP3    H149421   1.793   7.060   7.198
16512TIP3    H249422   1.923   7.130   7.170
16513TIP3   OH249423   2.078   7.127   7.261
16513TIP3    H149424   2.163   7.097   7.223
16513TIP3    H249425   2.063   7.058   7.330
16514TIP3   OH249426   1.199   8.310   5.318
16514TIP3    H149427   1.210   8.344   5.408
16514TIP3    H249428   1.286   8.268   5.301
16515TIP3   OH249429   2.901   7.187   7.050
16515TIP3    H149430   2.919   7.155   7.141
16515TIP3    H249431   2.988   7.175   7.007
16516TIP3   OH249432   2.841   8.740   6.540
16516TIP3    H149433   2.762   8.709   6.492
16516TIP3    H249434   2.822   8.835   6.546
16517TIP3   OH249435   4.108   8.111   5.307
16517TIP3    H149436   4.080   8.203   5.288
16517TIP3    H249437   4.031   8.063   5.274
16518TIP3   OH249438   4.101   8.114   5.690
16518TIP3    H149439   4.137   8.088   5.777
16518TIP3    H249440   4.066   8.030   5.658
16519TIP3   OH249441   3.405   8.011   6.057
16519TIP3    H149442   3.437   7.943   6.118
16519TIP3    H249443   3.486   8.060   6.039
16520TIP3   OH249444   4.349   8.417   5.370
16520TIP3    H149445   4.338   8.346   5.435
16520TIP3    H249446   4.380   8.490   5.425
16521TIP3   OH249447   3.376   8.416   5.777
16521TIP3    H149448   3.369   8.318   5.779
16521TIP3    H249449   3.473   8.426   5.774
16522TIP3   OH249450   3.084   7.623   5.565
16522TIP3    H149451   3.032   7.704   5.576
16522TIP3    H249452   3.018   7.565   5.524
16523TIP3   OH249453   3.142   7.907   5.736
16523TIP3    H149454   3.191   7.830   5.771
16523TIP3    H249455   3.202   7.939   5.668
16524TIP3   OH249456   3.991   8.874   5.385
16524TIP3    H149457   4.040   8.807   5.334
16524TIP3    H249458   4.000   8.840   5.475
16525TIP3   OH249459   3.906   8.338   5.737
16525TIP3    H149460   3.946   8.260   5.694
16525TIP3    H249461   3.988   8.385   5.761
16526TIP3   OH249462   4.919   7.659   5.734
16526TIP3    H149463   4.945   7.741   5.779
16526TIP3    H249464   4.944   7.678   5.642
16527TIP3   OH249465   4.314   7.841   5.769
16527TIP3    H149466   4.360   7.757   5.791
16527TIP3    H249467   4.287   7.823   5.677
16528TIP3   OH249468   3.654   7.499   5.735
16528TIP3    H149469   3.636   7.571   5.671
16528TIP3    H249470   3.608   7.425   5.689
16529TIP3   OH249471   4.350   7.591   5.356
16529TIP3    H149472   4.422   7.575   5.422
16529TIP3    H249473   4.404   7.625   5.282
16530TIP3   OH249474   3.288   7.700   5.841
16530TIP3    H149475   3.372   7.681   5.887
16530TIP3    H249476   3.301   7.645   5.760
16531TIP3   OH249477   3.729   7.898   5.636
16531TIP3    H149478   3.824   7.874   5.647
16531TIP3    H249479   3.692   7.814   5.603
16532TIP3   OH249480   4.986   7.865   5.910
16532TIP3    H149481   4.904   7.914   5.889
16532TIP3    H249482   5.009   7.903   5.996
16533TIP3   OH249483   3.651   7.486   6.166
16533TIP3    H149484   3.594   7.519   6.095
16533TIP3    H249485   3.600   7.513   6.245
16534TIP3   OH249486   3.998   8.332   5.177
16534TIP3    H149487   3.957   8.313   5.092
16534TIP3    H249488   3.954   8.417   5.201
16535TIP3   OH249489   3.758   8.257   5.963
16535TIP3    H149490   3.697   8.325   6.000
16535TIP3    H249491   3.804   8.308   5.892
16536TIP3   OH249492   4.559   7.593   5.529
16536TIP3    H149493   4.551   7.547   5.613
16536TIP3    H249494   4.614   7.670   5.554
16537TIP3   OH249495   3.522   7.598   5.952
16537TIP3    H149496   3.584   7.670   5.974
16537TIP3    H249497   3.571   7.557   5.876
16538TIP3   OH249498   3.585   8.452   6.060
16538TIP3    H149499   3.561   8.540   6.023
16538TIP3    H249500   3.507   8.437   6.117
16539TIP3   OH249501   2.980   8.142   5.297
16539TIP3    H149502   2.940   8.169   5.212
16539TIP3    H249503   3.011   8.227   5.333
16540TIP3   OH249504   4.419   8.657   5.536
16540TIP3    H149505   4.328   8.649   5.575
16540TIP3    H249506   4.412   8.744   5.492
16541TIP3   OH249507   4.712   7.551   5.895
16541TIP3    H149508   4.626   7.590   5.870
16541TIP3    H249509   4.773   7.588   5.828
16542TIP3   OH249510   4.008   7.201   5.880
16542TIP3    H149511   3.996   7.106   5.898
16542TIP3    H249512   3.931   7.238   5.928
16543TIP3   OH249513   4.119   8.704   5.210
16543TIP3    H149514   4.170   8.622   5.191
16543TIP3    H249515   4.181   8.770   5.169
16544TIP3   OH249516   4.263   8.490   5.119
16544TIP3    H149517   4.231   8.408   5.078
16544TIP3    H249518   4.300   8.456   5.203
16545TIP3   OH249519   4.646   8.571   5.881
16545TIP3    H149520   4.636   8.493   5.822
16545TIP3    H249521   4.631   8.645   5.818
16546TIP3   OH249522   3.937   7.964   5.137
16546TIP3    H149523   3.858   8.017   5.114
16546TIP3    H249524   3.986   7.961   5.052
16547TIP3   OH249525   3.896   7.749   4.853
16547TIP3    H149526   3.964   7.800   4.903
16547TIP3    H249527   3.954   7.685   4.807
16548TIP3   OH249528   4.843   8.208   5.725
16548TIP3    H149529   4.760   8.259   5.732
16548TIP3    H249530   4.871   8.232   5.634
16549TIP3   OH249531   4.286   8.047   5.109
16549TIP3    H149532   4.232   8.071   5.188
16549TIP3    H249533   4.370   8.021   5.152
16550TIP3   OH249534   4.517   8.083   6.025
16550TIP3    H149535   4.521   8.166   6.077
16550TIP3    H249536   4.434   8.097   5.976
16551TIP3   OH249537   3.519   8.045   5.527
16551TIP3    H149538   3.477   7.987   5.460
16551TIP3    H249539   3.595   7.991   5.557
16552TIP3   OH249540   3.649   8.458   5.674
16552TIP3    H149541   3.629   8.413   5.591
16552TIP3    H249542   3.739   8.424   5.694
16553TIP3   OH249543   3.649   8.018   5.880
16553TIP3    H149544   3.686   7.993   5.793
16553TIP3    H249545   3.697   8.101   5.900
16554TIP3   OH249546   4.176   8.653   5.656
16554TIP3    H149547   4.167   8.733   5.710
16554TIP3    H249548   4.164   8.581   5.721
16555TIP3   OH249549   3.793   8.574   6.203
16555TIP3    H149550   3.733   8.635   6.251
16555TIP3    H249551   3.727   8.520   6.155
16556TIP3   OH249552   4.125   7.906   4.935
16556TIP3    H149553   4.185   7.965   4.987
16556TIP3    H249554   4.152   7.929   4.843
16557TIP3   OH249555   3.549   8.128   6.310
16557TIP3    H149556   3.553   8.217   6.352
16557TIP3    H249557   3.453   8.111   6.313
16558TIP3   OH249558   3.869   8.584   5.213
16558TIP3    H149559   3.951   8.634   5.227
16558TIP3    H249560   3.809   8.651   5.179
16559TIP3   OH249561   3.586   8.740   6.291
16559TIP3    H149562   3.551   8.740   6.200
16559TIP3    H249563   3.506   8.719   6.344
16560TIP3   OH249564   4.642   7.146   4.983
16560TIP3    H149565   4.561   7.165   5.034
16560TIP3    H249566   4.655   7.230   4.935
16561TIP3   OH249567   3.384   7.889   5.333
16561TIP3    H149568   3.317   7.931   5.275
16561TIP3    H249569   3.347   7.800   5.343
16562TIP3   OH249570   4.441   8.513   4.532
16562TIP3    H149571   4.450   8.610   4.518
16562TIP3    H249572   4.534   8.483   4.519
16563TIP3   OH249573   3.164   8.272   6.239
16563TIP3    H149574   3.104   8.248   6.166
16563TIP3    H249575   3.204   8.186   6.264
16564TIP3   OH249576   3.020   8.460   5.878
16564TIP3    H149577   3.115   8.457   5.863
16564TIP3    H249578   3.011   8.543   5.927
16565TIP3   OH249579   4.884   8.915   5.926
16565TIP3    H149580   4.884   8.818   5.942
16565TIP3    H249581   4.801   8.940   5.972
16566TIP3   OH249582   3.988   8.704   6.059
16566TIP3    H149583   3.988   8.796   6.094
16566TIP3    H249584   3.919   8.662   6.115
16567TIP3   OH249585   3.730   8.841   5.008
16567TIP3    H149586   3.700   8.796   4.926
16567TIP3    H249587   3.748   8.930   4.976
16568TIP3   OH249588   3.189   8.680   5.398
16568TIP3    H149589   3.234   8.669   5.485
16568TIP3    H249590   3.131   8.601   5.399
16569TIP3   OH249591   3.952   8.731   4.653
16569TIP3    H149592   4.011   8.662   4.616
16569TIP3    H249593   3.987   8.741   4.744
16570TIP3   OH249594   3.996   8.780   4.927
16570TIP3    H149595   3.914   8.777   4.979
16570TIP3    H249596   4.061   8.746   4.991
16571TIP3   OH249597   4.779   8.047   6.164
16571TIP3    H149598   4.684   8.063   6.157
16571TIP3    H249599   4.783   7.966   6.217
16572TIP3   OH249600   3.370   8.454   6.227
16572TIP3    H149601   3.420   8.439   6.310
16572TIP3    H249602   3.296   8.391   6.237
16573TIP3   OH249603   3.769   7.275   6.011
16573TIP3    H149604   3.680   7.246   5.984
16573TIP3    H249605   3.746   7.360   6.054
16574TIP3   OH249606   4.305   7.392   6.204
16574TIP3    H149607   4.375   7.367   6.269
16574TIP3    H249608   4.223   7.373   6.253
16575TIP3   OH249609   4.544   7.819   6.122
16575TIP3    H149610   4.496   7.818   6.208
16575TIP3    H249611   4.524   7.908   6.087
16576TIP3   OH249612   4.201   7.953   4.680
16576TIP3    H149613   4.169   7.926   4.591
16576TIP3    H249614   4.284   7.999   4.656
16577TIP3   OH249615   3.913   7.329   4.981
16577TIP3    H149616   3.882   7.324   5.073
16577TIP3    H249617   3.878   7.244   4.948
16578TIP3   OH249618   3.699   7.794   6.028
16578TIP3    H149619   3.652   7.818   6.110
16578TIP3    H249620   3.685   7.875   5.974
16579TIP3   OH249621   3.584   7.679   5.544
16579TIP3    H149622   3.492   7.651   5.561
16579TIP3    H249623   3.599   7.639   5.456
16580TIP3   OH249624   4.076   7.765   5.271
16580TIP3    H149625   4.024   7.836   5.228
16580TIP3    H249626   4.131   7.734   5.196
16581TIP3   OH249627   4.242   8.043   6.350
16581TIP3    H149628   4.227   7.971   6.415
16581TIP3    H249629   4.334   8.065   6.366
16582TIP3   OH249630   4.231   7.793   5.510
16582TIP3    H149631   4.173   7.822   5.438
16582TIP3    H249632   4.266   7.712   5.468
16583TIP3   OH249633   3.517   7.827   6.238
16583TIP3    H149634   3.557   7.891   6.299
16583TIP3    H249635   3.510   7.746   6.292
16584TIP3   OH249636   3.566   7.299   4.948
16584TIP3    H149637   3.563   7.295   5.045
16584TIP3    H249638   3.489   7.355   4.929
16585TIP3   OH249639   3.111   7.346   5.822
16585TIP3    H149640   3.192   7.375   5.869
16585TIP3    H249641   3.144   7.313   5.737
16586TIP3   OH249642   3.116   7.349   5.356
16586TIP3    H149643   3.148   7.374   5.268
16586TIP3    H249644   3.038   7.407   5.364
16587TIP3   OH249645   4.232   8.039   5.931
16587TIP3    H149646   4.271   7.969   5.874
16587TIP3    H249647   4.211   7.986   6.011
16588TIP3   OH249648   3.912   7.504   5.605
16588TIP3    H149649   3.832   7.500   5.660
16588TIP3    H249650   3.983   7.499   5.671
16589TIP3   OH249651   3.346   7.555   5.614
16589TIP3    H149652   3.252   7.562   5.585
16589TIP3    H249653   3.370   7.464   5.588
16590TIP3   OH249654   3.615   7.555   5.302
16590TIP3    H149655   3.710   7.567   5.282
16590TIP3    H249656   3.571   7.576   5.217
16591TIP3   OH249657   4.403   7.579   5.806
16591TIP3    H149658   4.371   7.590   5.898
16591TIP3    H249659   4.338   7.517   5.770
16592TIP3   OH249660   3.456   7.589   5.079
16592TIP3    H149661   3.385   7.544   5.031
16592TIP3    H249662   3.509   7.625   5.005
16593TIP3   OH249663   4.574   9.266   6.026
16593TIP3    H149664   4.571   9.293   5.932
16593TIP3    H249665   4.650   9.317   6.058
16594TIP3   OH249666   3.532   8.376   6.448
16594TIP3    H149667   3.613   8.406   6.494
16594TIP3    H249668   3.468   8.378   6.522
16595TIP3   OH249669   3.996   7.829   5.700
16595TIP3    H149670   4.069   7.793   5.648
16595TIP3    H249671   4.010   7.787   5.786
16596TIP3   OH249672   3.520   7.318   5.580
16596TIP3    H149673   3.485   7.238   5.625
16596TIP3    H249674   3.571   7.279   5.508
16597TIP3   OH249675   3.973   7.723   5.998
16597TIP3    H149676   3.885   7.765   6.008
16597TIP3    H249677   4.033   7.784   6.044
16598TIP3   OH249678   3.707   8.119   5.085
16598TIP3    H149679   3.636   8.052   5.075
16598TIP3    H249680   3.690   8.151   5.177
16599TIP3   OH249681   4.610   8.354   5.716
16599TIP3    H149682   4.634   8.403   5.634
16599TIP3    H249683   4.525   8.312   5.690
16600TIP3   OH249684   4.166   7.430   4.948
16600TIP3    H149685   4.070   7.413   4.958
16600TIP3    H249686   4.176   7.524   4.974
16601TIP3   OH249687   4.101   8.431   6.086
16601TIP3    H149688   4.142   8.415   6.172
16601TIP3    H249689   4.071   8.523   6.093
16602TIP3   OH249690   4.236   7.677   5.053
16602TIP3    H149691   4.333   7.682   5.070
16602TIP3    H249692   4.220   7.757   5.000
16603TIP3   OH249693   3.399   8.137   5.762
16603TIP3    H149694   3.437   8.111   5.676
16603TIP3    H249695   3.448   8.079   5.822
16604TIP3   OH249696   3.853   8.267   4.907
16604TIP3    H149697   3.807   8.353   4.915
16604TIP3    H249698   3.799   8.211   4.968
16605TIP3   OH249699   3.282   8.064   6.377
16605TIP3    H149700   3.307   8.052   6.471
16605TIP3    H249701   3.218   7.992   6.365
16606TIP3   OH249702   4.006   8.174   6.396
16606TIP3    H149703   3.953   8.118   6.337
16606TIP3    H249704   4.096   8.143   6.372
16607TIP3   OH249705   4.266   8.693   5.981
16607TIP3    H149706   4.170   8.696   5.993
16607TIP3    H249707   4.296   8.746   6.059
16608TIP3   OH249708   4.677   7.767   4.890
16608TIP3    H149709   4.615   7.723   4.827
16608TIP3    H249710   4.674   7.856   4.849
16609TIP3   OH249711   4.897   8.625   5.969
16609TIP3    H149712   4.799   8.619   5.963
16609TIP3    H249713   4.921   8.594   5.879
16610TIP3   OH249714   4.375   8.587   4.796
16610TIP3    H149715   4.355   8.516   4.858
16610TIP3    H249716   4.391   8.539   4.712
16611TIP3   OH249717   4.374   8.217   5.633
16611TIP3    H149718   4.281   8.191   5.647
16611TIP3    H249719   4.409   8.136   5.590
16612TIP3   OH249720   3.501   8.440   5.389
16612TIP3    H149721   3.500   8.517   5.330
16612TIP3    H249722   3.407   8.422   5.399
16613TIP3   OH249723   3.063   7.747   5.088
16613TIP3    H149724   3.112   7.830   5.109
16613TIP3    H249725   2.989   7.753   5.152
16614TIP3   OH249726   3.639   8.207   5.331
16614TIP3    H149727   3.605   8.297   5.351
16614TIP3    H249728   3.606   8.156   5.407
16615TIP3   OH249729   3.771   8.786   5.857
16615TIP3    H149730   3.814   8.858   5.807
16615TIP3    H249731   3.847   8.751   5.906
16616TIP3   OH249732   3.416   8.671   5.240
16616TIP3    H149733   3.328   8.678   5.284
16616TIP3    H249734   3.459   8.752   5.269
16617TIP3   OH249735   4.159   8.421   5.816
16617TIP3    H149736   4.149   8.417   5.914
16617TIP3    H249737   4.241   8.372   5.804
16618TIP3   OH249738   4.134   8.314   4.699
16618TIP3    H149739   4.189   8.289   4.777
16618TIP3    H249740   4.047   8.286   4.729
16619TIP3   OH249741   4.408   8.953   5.866
16619TIP3    H149742   4.328   8.898   5.858
16619TIP3    H249743   4.393   9.019   5.794
16620TIP3   OH249744   4.474   8.789   4.518
16620TIP3    H149745   4.514   8.863   4.469
16620TIP3    H249746   4.393   8.834   4.550
16621TIP3   OH249747   3.484   7.574   6.378
16621TIP3    H149748   3.388   7.590   6.386
16621TIP3    H249749   3.491   7.485   6.416
16622TIP3   OH249750   4.294   8.248   4.916
16622TIP3    H149751   4.284   8.181   4.986
16622TIP3    H249752   4.392   8.245   4.903
16623TIP3   OH249753   3.210   8.650   6.016
16623TIP3    H149754   3.264   8.576   6.048
16623TIP3    H249755   3.239   8.720   6.075
16624TIP3   OH249756   3.499   8.295   4.698
16624TIP3    H149757   3.514   8.204   4.668
16624TIP3    H249758   3.480   8.281   4.793
16625TIP3   OH249759   3.445   8.298   4.971
16625TIP3    H149760   3.519   8.270   5.027
16625TIP3    H249761   3.451   8.396   4.978
16626TIP3   OH249762   3.179   7.991   5.173
16626TIP3    H149763   3.114   8.037   5.230
16626TIP3    H249764   3.196   8.060   5.106
16627TIP3   OH249765   4.330   7.629   6.065
16627TIP3    H149766   4.409   7.671   6.104
16627TIP3    H249767   4.319   7.549   6.120
16628TIP3   OH249768   4.208   7.382   5.231
16628TIP3    H149769   4.197   7.404   5.137
16628TIP3    H249770   4.249   7.464   5.267
16629TIP3   OH249771   3.712   8.497   4.921
16629TIP3    H149772   3.625   8.524   4.954
16629TIP3    H249773   3.725   8.560   4.849
16630TIP3   OH249774   3.897   7.562   5.333
16630TIP3    H149775   3.963   7.632   5.315
16630TIP3    H249776   3.904   7.553   5.430
16631TIP3   OH249777   4.167   7.876   6.141
16631TIP3    H149778   4.188   7.931   6.219
16631TIP3    H249779   4.226   7.800   6.155
16632TIP3   OH249780   4.043   7.287   5.434
16632TIP3    H149781   4.042   7.361   5.497
16632TIP3    H249782   4.104   7.321   5.365
16633TIP3   OH249783   3.455   8.571   4.983
16633TIP3    H149784   3.425   8.641   4.921
16633TIP3    H249785   3.436   8.613   5.070
16634TIP3   OH249786   3.557   7.286   5.224
16634TIP3    H149787   3.555   7.376   5.262
16634TIP3    H249788   3.652   7.266   5.232
16635TIP3   OH249789   4.809   7.756   6.128
16635TIP3    H149790   4.712   7.768   6.131
16635TIP3    H249791   4.824   7.747   6.033
16636TIP3   OH249792   4.460   7.974   5.509
16636TIP3    H149793   4.385   7.913   5.522
16636TIP3    H249794   4.533   7.928   5.556
16637TIP3   OH249795   3.173   8.202   4.979
16637TIP3    H149796   3.240   8.272   4.988
16637TIP3    H249797   3.218   8.146   4.912
16638TIP3   OH249798   3.118   7.476   5.109
16638TIP3    H149799   3.121   7.573   5.105
16638TIP3    H249800   3.029   7.457   5.080
16639TIP3   OH249801   4.429   8.927   5.457
16639TIP3    H149802   4.388   8.973   5.381
16639TIP3    H249803   4.523   8.946   5.438
16640TIP3   OH249804   3.502   7.198   5.987
16640TIP3    H149805   3.474   7.166   5.899
16640TIP3    H249806   3.493   7.118   6.042
16641TIP3   OH249807   3.044   8.419   5.366
16641TIP3    H149808   2.973   8.448   5.424
16641TIP3    H249809   3.016   8.458   5.280
16642TIP3   OH249810   3.201   8.959   6.439
16642TIP3    H149811   3.288   8.960   6.486
16642TIP3    H249812   3.183   8.864   6.438
16643TIP3   OH249813   3.680   8.923   6.483
16643TIP3    H149814   3.775   8.906   6.493
16643TIP3    H249815   3.658   8.863   6.409
16644TIP3   OH249816   3.665   8.499   4.614
16644TIP3    H149817   3.608   8.426   4.649
16644TIP3    H249818   3.739   8.447   4.578
16645TIP3   OH249819   4.320   8.828   6.216
16645TIP3    H149820   4.312   8.758   6.285
16645TIP3    H249821   4.398   8.878   6.246
16646TIP3   OH249822   4.099   8.538   4.522
16646TIP3    H149823   4.144   8.475   4.582
16646TIP3    H249824   4.157   8.538   4.443
16647TIP3   OH249825   3.330   8.364   6.639
16647TIP3    H149826   3.347   8.269   6.644
16647TIP3    H249827   3.243   8.367   6.595
16648TIP3   OH249828   3.308   8.014   4.832
16648TIP3    H149829   3.364   7.982   4.905
16648TIP3    H249830   3.374   8.019   4.760
16649TIP3   OH249831   3.936   8.448   6.413
16649TIP3    H149832   3.901   8.466   6.324
16649TIP3    H249833   3.971   8.357   6.405
16650TIP3   OH249834   3.816   8.213   4.638
16650TIP3    H149835   3.821   8.225   4.735
16650TIP3    H249836   3.817   8.115   4.633
16651TIP3   OH249837   4.428   8.460   6.014
16651TIP3    H149838   4.507   8.501   5.973
16651TIP3    H249839   4.362   8.531   6.000
16652TIP3   OH249840   3.449   8.097   6.620
16652TIP3    H149841   3.532   8.056   6.595
16652TIP3    H249842   3.471   8.129   6.711
16653TIP3   OH249843   3.515   7.919   5.053
16653TIP3    H149844   3.491   7.876   5.137
16653TIP3    H249845   3.553   7.844   5.002
16654TIP3   OH249846   3.780   7.977   6.277
16654TIP3    H149847   3.708   8.044   6.281
16654TIP3    H249848   3.835   8.012   6.204
16655TIP3   OH249849   3.617   7.713   4.894
16655TIP3    H149850   3.592   7.716   4.800
16655TIP3    H249851   3.714   7.716   4.888
16656TIP3   OH249852   4.301   8.382   6.414
16656TIP3    H149853   4.390   8.371   6.376
16656TIP3    H249854   4.305   8.319   6.488
16657TIP3   OH249855   4.437   8.044   4.557
16657TIP3    H149856   4.417   7.997   4.474
16657TIP3    H249857   4.405   8.134   4.534
16658TIP3   OH249858   3.889   7.763   6.412
16658TIP3    H149859   3.908   7.689   6.351
16658TIP3    H249860   3.861   7.833   6.349
16659TIP3   OH249861   3.911   7.556   6.217
16659TIP3    H149862   3.941   7.599   6.134
16659TIP3    H249863   3.818   7.535   6.194
16660TIP3   OH249864   3.936   8.090   6.090
16660TIP3    H149865   4.022   8.098   6.047
16660TIP3    H249866   3.884   8.159   6.044
16661TIP3   OH249867   4.559   8.304   6.196
16661TIP3    H149868   4.503   8.364   6.141
16661TIP3    H249869   4.648   8.329   6.164
16662TIP3   OH249870   3.785   7.881   6.641
16662TIP3    H149871   3.694   7.852   6.634
16662TIP3    H249872   3.824   7.853   6.555
16663TIP3   OH249873   4.043   7.320   6.280
16663TIP3    H149874   3.995   7.403   6.258
16663TIP3    H249875   3.974   7.252   6.267
16664TIP3   OH249876   4.169   7.828   6.500
16664TIP3    H149877   4.191   7.815   6.595
16664TIP3    H249878   4.078   7.796   6.496
16665TIP3   OH249879   4.401   7.778   6.348
16665TIP3    H149880   4.327   7.778   6.411
16665TIP3    H249881   4.475   7.752   6.409
16666TIP3   OH249882   4.601   7.715   6.518
16666TIP3    H149883   4.643   7.629   6.537
16666TIP3    H249884   4.666   7.780   6.549
16667TIP3   OH249885   3.621   7.600   6.698
16667TIP3    H149886   3.690   7.620   6.633
16667TIP3    H249887   3.657   7.641   6.778
16668TIP3   OH249888   4.131   7.327   6.538
16668TIP3    H149889   4.203   7.261   6.535
16668TIP3    H249890   4.098   7.321   6.446
16669TIP3   OH249891   4.194   7.534   6.705
16669TIP3    H149892   4.175   7.469   6.635
16669TIP3    H249893   4.124   7.601   6.693
16670TIP3   OH249894   3.426   8.779   4.802
16670TIP3    H149895   3.520   8.772   4.780
16670TIP3    H249896   3.393   8.825   4.722
16671TIP3   OH249897   2.904   8.156   5.017
16671TIP3    H149898   2.999   8.178   5.002
16671TIP3    H249899   2.899   8.068   4.974
16672TIP3   OH249900   2.820   8.769   5.427
16672TIP3    H149901   2.752   8.708   5.391
16672TIP3    H249902   2.863   8.711   5.493
16673TIP3   OH249903   2.956   8.620   5.615
16673TIP3    H149904   2.940   8.547   5.676
16673TIP3    H249905   3.006   8.681   5.672
16674TIP3   OH249906   4.682   9.019   5.416
16674TIP3    H149907   4.705   9.051   5.505
16674TIP3    H249908   4.740   9.071   5.359
16675TIP3   OH249909   4.711   9.039   5.696
16675TIP3    H149910   4.669   8.950   5.693
16675TIP3    H249911   4.783   9.020   5.757
16676TIP3   OH249912   4.755   8.719   6.267
16676TIP3    H149913   4.684   8.725   6.334
16676TIP3    H249914   4.798   8.806   6.275
16677TIP3   OH249915   4.573   8.231   4.890
16677TIP3    H149916   4.642   8.294   4.862
16677TIP3    H249917   4.616   8.192   4.970
16678TIP3   OH249918   4.700   8.100   5.094
16678TIP3    H149919   4.636   8.057   5.155
16678TIP3    H249920   4.768   8.135   5.156
16679TIP3   OH249921   4.754   8.489   5.524
16679TIP3    H149922   4.809   8.424   5.477
16679TIP3    H249923   4.749   8.562   5.459
16680TIP3   OH249924   4.587   8.790   5.720
16680TIP3    H149925   4.516   8.831   5.773
16680TIP3    H249926   4.536   8.742   5.651
16681TIP3   OH249927   4.638   8.005   4.741
16681TIP3    H149928   4.567   8.009   4.674
16681TIP3    H249929   4.612   8.081   4.797
16682TIP3   OH249930   4.509   7.679   4.695
16682TIP3    H149931   4.467   7.715   4.616
16682TIP3    H249932   4.485   7.584   4.687
16683TIP3   OH249933   4.514   7.954   5.240
16683TIP3    H149934   4.525   7.858   5.235
16683TIP3    H249935   4.501   7.968   5.337
16684TIP3   OH249936   3.141   8.025   5.989
16684TIP3    H149937   3.140   7.995   5.896
16684TIP3    H249938   3.239   8.030   6.005
16685TIP3   OH249939   4.804   8.379   6.098
16685TIP3    H149940   4.876   8.312   6.091
16685TIP3    H249941   4.835   8.449   6.039
16686TIP3   OH249942   4.998   8.191   6.111
16686TIP3    H149943   4.920   8.141   6.143
16686TIP3    H249944   5.067   8.124   6.127
16687TIP3   OH249945   4.454   7.412   4.678
16687TIP3    H149946   4.530   7.383   4.733
16687TIP3    H249947   4.382   7.353   4.706
16688TIP3   OH249948   4.510   7.670   5.134
16688TIP3    H149949   4.551   7.581   5.150
16688TIP3    H249950   4.570   7.703   5.065
16689TIP3   OH249951   4.672   7.843   5.627
16689TIP3    H149952   4.759   7.869   5.587
16689TIP3    H249953   4.684   7.882   5.716
16690TIP3   OH249954   4.738   7.985   5.856
16690TIP3    H149955   4.670   8.019   5.917
16690TIP3    H249956   4.773   8.068   5.817
16691TIP3   OH249957   3.352   7.705   6.660
16691TIP3    H149958   3.446   7.678   6.661
16691TIP3    H249959   3.317   7.661   6.739
16692TIP3   OH249960   5.197   7.581   6.416
16692TIP3    H149961   5.253   7.515   6.370
16692TIP3    H249962   5.162   7.635   6.342
16693TIP3   OH249963   4.619   7.421   5.174
16693TIP3    H149964   4.669   7.405   5.256
16693TIP3    H249965   4.560   7.343   5.173
16694TIP3   OH249966   3.320   7.408   6.002
16694TIP3    H149967   3.381   7.331   6.005
16694TIP3    H249968   3.383   7.481   5.987
16695TIP3   OH249969   3.123   7.683   6.066
16695TIP3    H149970   3.171   7.668   5.982
16695TIP3    H249971   3.159   7.769   6.091
16696TIP3   OH249972   5.062   7.719   6.226
16696TIP3    H149973   4.972   7.756   6.236
16696TIP3    H249974   5.039   7.646   6.165
16697TIP3   OH249975   4.699   7.356   4.804
16697TIP3    H149976   4.744   7.284   4.755
16697TIP3    H249977   4.768   7.426   4.803
16698TIP3   OH249978   3.103   7.190   5.574
16698TIP3    H149979   3.007   7.182   5.587
16698TIP3    H249980   3.109   7.245   5.493
16699TIP3   OH249981   4.261   8.886   5.069
16699TIP3    H149982   4.319   8.876   4.990
16699TIP3    H249983   4.310   8.951   5.122
16700TIP3   OH249984   3.328   7.279   6.392
16700TIP3    H149985   3.272   7.264   6.471
16700TIP3    H249986   3.261   7.305   6.327
16701TIP3   OH249987   3.366   8.691   6.457
16701TIP3    H149988   3.273   8.664   6.443
16701TIP3    H249989   3.378   8.675   6.551
16702TIP3   OH249990   3.543   8.723   6.004
16702TIP3    H149991   3.497   8.800   5.965
16702TIP3    H249992   3.631   8.736   5.961
16703TIP3   OH249993   3.989   8.969   6.144
16703TIP3    H149994   4.032   8.969   6.232
16703TIP3    H249995   4.056   9.019   6.092
16704TIP3   OH249996   4.169   9.119   6.001
16704TIP3    H149997   4.243   9.070   5.962
16704TIP3    H249998   4.218   9.178   6.062
16705TIP3   OH249999   4.967   7.482   6.101
16705TIP3    H150000   4.875   7.484   6.070
16705TIP3    H250001   4.991   7.388   6.088
16706TIP3   OH250002   3.222   8.980   6.029
16706TIP3    H150003   3.131   9.013   6.008
16706TIP3    H250004   3.234   9.019   6.116
16707TIP3   OH250005   3.455   8.959   5.885
16707TIP3    H150006   3.370   8.970   5.932
16707TIP3    H250007   3.433   8.993   5.797
16708TIP3   OH250008   3.881   8.988   5.684
16708TIP3    H150009   3.825   9.021   5.612
16708TIP3    H250010   3.897   9.070   5.735
16709TIP3   OH250011   4.152   8.925   5.734
16709TIP3    H150012   4.059   8.946   5.715
16709TIP3    H250013   4.198   9.002   5.697
16710TIP3   OH250014   4.354   9.113   5.650
16710TIP3    H150015   4.344   9.198   5.601
16710TIP3    H250016   4.385   9.054   5.579
16711TIP3   OH250017   3.133   8.774   5.774
16711TIP3    H150018   3.158   8.749   5.865
16711TIP3    H250019   3.205   8.729   5.725
16712TIP3   OH250020   3.327   8.645   5.632
16712TIP3    H150021   3.341   8.560   5.680
16712TIP3    H250022   3.419   8.680   5.629
16713TIP3   OH250023   3.593   8.738   5.633
16713TIP3    H150024   3.625   8.646   5.624
16713TIP3    H250025   3.638   8.763   5.715
16714TIP3   OH250026   4.164   7.395   5.716
16714TIP3    H150027   4.124   7.325   5.770
16714TIP3    H250028   4.241   7.350   5.675
16715TIP3   OH250029   4.691   7.274   5.625
16715TIP3    H150030   4.728   7.327   5.552
16715TIP3    H250031   4.596   7.297   5.621
16716TIP3   OH250032   4.786   7.377   5.390
16716TIP3    H150033   4.859   7.325   5.349
16716TIP3    H250034   4.821   7.468   5.375
16717TIP3   OH250035   3.417   7.106   5.740
16717TIP3    H150036   3.324   7.074   5.737
16717TIP3    H250037   3.465   7.021   5.734
16718TIP3   OH250038   3.208   6.969   5.388
16718TIP3    H150039   3.223   7.025   5.310
16718TIP3    H250040   3.167   7.032   5.449
16719TIP3   OH250041   3.859   7.139   5.619
16719TIP3    H150042   3.916   7.186   5.556
16719TIP3    H250043   3.890   7.176   5.703
16720TIP3   OH250044   4.404   7.284   5.603
16720TIP3    H150045   4.407   7.247   5.514
16720TIP3    H250046   4.392   7.204   5.658
16721TIP3   OH250047   4.438   7.206   5.164
16721TIP3    H150048   4.350   7.247   5.175
16721TIP3    H250049   4.423   7.121   5.210
16722TIP3   OH250050   2.920   8.547   5.164
16722TIP3    H150051   2.835   8.513   5.131
16722TIP3    H250052   2.910   8.641   5.142
16723TIP3   OH250053   3.322   7.143   5.138
16723TIP3    H150054   3.372   7.074   5.090
16723TIP3    H250055   3.394   7.192   5.182
16724TIP3   OH250056   3.833   7.311   5.247
16724TIP3    H150057   3.893   7.262   5.305
16724TIP3    H250058   3.856   7.403   5.273
16725TIP3   OH250059   3.694   8.734   4.749
16725TIP3    H150060   3.783   8.756   4.713
16725TIP3    H250061   3.671   8.660   4.689
16726TIP3   OH250062   4.412   8.853   4.839
16726TIP3    H150063   4.402   8.755   4.828
16726TIP3    H250064   4.367   8.885   4.759
16727TIP3   OH250065   3.859   7.374   6.734
16727TIP3    H150066   3.940   7.368   6.682
16727TIP3    H250067   3.879   7.310   6.805
16728TIP3   OH250068   2.997   8.570   4.803
16728TIP3    H150069   2.995   8.597   4.896
16728TIP3    H250070   3.086   8.530   4.794
16729TIP3   OH250071   4.701   7.440   6.533
16729TIP3    H150072   4.720   7.415   6.626
16729TIP3    H250073   4.790   7.440   6.493
16730TIP3   OH250074   4.639   8.998   6.026
16730TIP3    H150075   4.559   8.967   5.979
16730TIP3    H250076   4.619   9.094   6.031
16731TIP3   OH250077   5.906   8.372   4.792
16731TIP3    H150078   5.875   8.462   4.772
16731TIP3    H250079   5.829   8.320   4.765
16732TIP3   OH250080   5.899   8.369   5.178
16732TIP3    H150081   5.935   8.340   5.264
16732TIP3    H250082   5.862   8.286   5.144
16733TIP3   OH250083   5.200   8.265   5.541
16733TIP3    H150084   5.230   8.197   5.604
16733TIP3    H250085   5.281   8.317   5.531
16734TIP3   OH250086   6.145   8.673   4.856
16734TIP3    H150087   6.132   8.599   4.917
16734TIP3    H250088   6.177   8.743   4.915
16735TIP3   OH250089   5.173   8.674   5.263
16735TIP3    H150090   5.163   8.576   5.264
16735TIP3    H250091   5.270   8.681   5.263
16736TIP3   OH250092   4.881   7.877   5.049
16736TIP3    H150093   4.833   7.961   5.064
16736TIP3    H250094   4.810   7.823   5.011
16737TIP3   OH250095   4.940   8.162   5.221
16737TIP3    H150096   4.988   8.085   5.258
16737TIP3    H250097   5.001   8.191   5.152
16738TIP3   OH250098   5.799   9.134   4.875
16738TIP3    H150099   5.842   9.066   4.820
16738TIP3    H250100   5.790   9.087   4.959
16739TIP3   OH250101   5.702   8.597   5.222
16739TIP3    H150102   5.737   8.516   5.181
16739TIP3    H250103   5.787   8.640   5.245
16740TIP3   OH250104   6.719   7.915   5.217
16740TIP3    H150105   6.746   7.998   5.261
16740TIP3    H250106   6.746   7.933   5.125
16741TIP3   OH250107   6.120   8.100   5.254
16741TIP3    H150108   6.157   8.012   5.275
16741TIP3    H250109   6.080   8.083   5.166
16742TIP3   OH250110   6.147   7.844   4.841
16742TIP3    H150111   6.217   7.828   4.908
16742TIP3    H250112   6.201   7.882   4.770
16743TIP3   OH250113   5.087   7.958   5.328
16743TIP3    H150114   5.172   7.940   5.372
16743TIP3    H250115   5.099   7.901   5.249
16744TIP3   OH250116   5.526   8.156   5.126
16744TIP3    H150117   5.618   8.125   5.137
16744TIP3    H250118   5.483   8.074   5.090
16745TIP3   OH250119   6.791   8.124   5.388
16745TIP3    H150120   6.706   8.169   5.368
16745TIP3    H250121   6.796   8.141   5.483
16746TIP3   OH250122   5.447   7.743   5.655
16746TIP3    H150123   5.388   7.776   5.585
16746TIP3    H250124   5.394   7.762   5.735
16747TIP3   OH250125   5.797   8.593   4.662
16747TIP3    H150126   5.751   8.567   4.582
16747TIP3    H250127   5.750   8.676   4.686
16748TIP3   OH250128   5.557   8.515   5.449
16748TIP3    H150129   5.493   8.579   5.488
16748TIP3    H250130   5.597   8.566   5.377
16749TIP3   OH250131   6.356   7.849   5.014
16749TIP3    H150132   6.338   7.802   5.096
16749TIP3    H250133   6.411   7.924   5.043
16750TIP3   OH250134   5.328   7.849   5.425
16750TIP3    H150135   5.390   7.921   5.452
16750TIP3    H250136   5.373   7.815   5.346
16751TIP3   OH250137   5.382   8.708   5.548
16751TIP3    H150138   5.355   8.794   5.511
16751TIP3    H250139   5.305   8.689   5.605
16752TIP3   OH250140   4.776   8.399   4.784
16752TIP3    H150141   4.737   8.428   4.700
16752TIP3    H250142   4.809   8.484   4.821
16753TIP3   OH250143   6.215   8.915   5.027
16753TIP3    H150144   6.124   8.906   5.065
16753TIP3    H250145   6.207   9.000   4.979
16754TIP3   OH250146   6.498   7.838   5.386
16754TIP3    H150147   6.410   7.854   5.348
16754TIP3    H250148   6.558   7.859   5.312
16755TIP3   OH250149   5.812   7.464   5.379
16755TIP3    H150150   5.786   7.370   5.373
16755TIP3    H250151   5.729   7.504   5.409
16756TIP3   OH250152   5.917   8.963   4.697
16756TIP3    H150153   5.966   8.879   4.679
16756TIP3    H250154   5.980   9.026   4.655
16757TIP3   OH250155   6.061   8.748   4.605
16757TIP3    H150156   6.021   8.668   4.568
16757TIP3    H250157   6.097   8.713   4.689
16758TIP3   OH250158   6.442   8.829   5.367
16758TIP3    H150159   6.432   8.749   5.310
16758TIP3    H250160   6.429   8.901   5.302
16759TIP3   OH250161   5.734   8.221   4.624
16759TIP3    H150162   5.653   8.272   4.601
16759TIP3    H250163   5.781   8.218   4.539
16760TIP3   OH250164   5.692   8.008   4.337
16760TIP3    H150165   5.759   8.056   4.390
16760TIP3    H250166   5.749   7.943   4.292
16761TIP3   OH250167   6.637   8.465   5.214
16761TIP3    H150168   6.555   8.518   5.216
16761TIP3    H250169   6.666   8.479   5.121
16762TIP3   OH250170   6.083   8.304   4.595
16762TIP3    H150171   6.028   8.328   4.674
16762TIP3    H250172   6.165   8.276   4.640
16763TIP3   OH250173   6.317   8.343   5.507
16763TIP3    H150174   6.313   8.426   5.558
16763TIP3    H250175   6.230   8.345   5.462
16764TIP3   OH250176   5.317   8.302   5.012
16764TIP3    H150177   5.275   8.244   4.946
16764TIP3    H250178   5.391   8.245   5.044
16765TIP3   OH250179   5.448   8.719   5.159
16765TIP3    H150180   5.423   8.671   5.079
16765TIP3    H250181   5.537   8.680   5.178
16766TIP3   OH250182   5.448   8.273   5.368
16766TIP3    H150183   5.482   8.245   5.280
16766TIP3    H250184   5.495   8.357   5.385
16767TIP3   OH250185   5.972   8.913   5.148
16767TIP3    H150186   5.968   8.985   5.213
16767TIP3    H250187   5.961   8.833   5.203
16768TIP3   OH250188   5.588   8.831   5.688
16768TIP3    H150189   5.529   8.890   5.739
16768TIP3    H250190   5.522   8.776   5.641
16769TIP3   OH250191   5.923   8.162   4.422
16769TIP3    H150192   5.982   8.221   4.475
16769TIP3    H250193   5.949   8.186   4.330
16770TIP3   OH250194   5.343   8.387   5.791
16770TIP3    H150195   5.346   8.473   5.839
16770TIP3    H250196   5.248   8.365   5.803
16771TIP3   OH250197   5.665   8.841   4.697
16771TIP3    H150198   5.745   8.894   4.712
16771TIP3    H250199   5.604   8.905   4.657
16772TIP3   OH250200   5.382   8.997   5.779
16772TIP3    H150201   5.344   8.991   5.689
16772TIP3    H250202   5.303   8.976   5.834
16773TIP3   OH250203   6.437   7.402   4.470
16773TIP3    H150204   6.356   7.422   4.521
16773TIP3    H250205   6.451   7.487   4.423
16774TIP3   OH250206   5.183   8.152   4.814
16774TIP3    H150207   5.107   8.181   4.759
16774TIP3    H250208   5.160   8.061   4.835
16775TIP3   OH250209   6.237   8.769   4.018
16775TIP3    H150210   6.246   8.866   4.004
16775TIP3    H250211   6.330   8.739   4.006
16776TIP3   OH250212   4.962   8.528   5.725
16776TIP3    H150213   4.897   8.502   5.656
16776TIP3    H250214   5.001   8.441   5.751
16777TIP3   OH250215   4.815   8.722   5.356
16777TIP3    H150216   4.911   8.715   5.350
16777TIP3    H250217   4.804   8.800   5.411
16778TIP3   OH250218   6.679   9.172   5.410
16778TIP3    H150219   6.680   9.075   5.425
16778TIP3    H250220   6.597   9.196   5.458
16779TIP3   OH250221   5.780   8.961   5.544
16779TIP3    H150222   5.783   9.051   5.582
16779TIP3    H250223   5.712   8.918   5.601
16780TIP3   OH250224   5.548   9.088   4.500
16780TIP3    H150225   5.500   9.068   4.417
16780TIP3    H250226   5.513   9.176   4.524
16781TIP3   OH250227   4.985   8.936   4.885
16781TIP3    H150228   5.032   8.927   4.970
16781TIP3    H250229   4.929   8.856   4.887
16782TIP3   OH250230   5.748   8.989   4.140
16782TIP3    H150231   5.807   8.918   4.104
16782TIP3    H250232   5.782   8.997   4.231
16783TIP3   OH250233   5.799   9.036   4.410
16783TIP3    H150234   5.710   9.046   4.451
16783TIP3    H250235   5.848   8.992   4.481
16784TIP3   OH250236   6.569   8.303   5.687
16784TIP3    H150237   6.487   8.314   5.636
16784TIP3    H250238   6.586   8.207   5.676
16785TIP3   OH250239   5.166   8.712   5.714
16785TIP3    H150240   5.216   8.695   5.796
16785TIP3    H250241   5.092   8.647   5.722
16786TIP3   OH250242   5.565   7.528   5.500
16786TIP3    H150243   5.473   7.502   5.477
16786TIP3    H250244   5.548   7.617   5.535
16787TIP3   OH250245   6.093   7.653   5.688
16787TIP3    H150246   6.149   7.629   5.762
16787TIP3    H250247   6.004   7.629   5.721
16788TIP3   OH250248   6.343   8.082   5.615
16788TIP3    H150249   6.289   8.076   5.697
16788TIP3    H250250   6.314   8.166   5.575
16789TIP3   OH250251   5.997   8.210   4.165
16789TIP3    H150252   5.965   8.183   4.077
16789TIP3    H250253   6.080   8.255   4.142
16790TIP3   OH250254   5.711   7.585   4.468
16790TIP3    H150255   5.682   7.583   4.562
16790TIP3    H250256   5.673   7.501   4.438
16791TIP3   OH250257   5.494   8.049   5.516
16791TIP3    H150258   5.444   8.070   5.597
16791TIP3    H250259   5.478   8.130   5.462
16792TIP3   OH250260   5.368   7.957   5.021
16792TIP3    H150261   5.294   7.905   5.059
16792TIP3    H250262   5.399   7.894   4.953
16793TIP3   OH250263   5.877   8.027   4.761
16793TIP3    H150264   5.820   8.094   4.718
16793TIP3    H250265   5.926   7.990   4.686
16794TIP3   OH250266   6.047   8.301   5.846
16794TIP3    H150267   6.025   8.227   5.907
16794TIP3    H250268   6.141   8.314   5.867
16795TIP3   OH250269   6.036   8.053   4.993
16795TIP3    H150270   5.972   8.077   4.924
16795TIP3    H250271   6.066   7.968   4.956
16796TIP3   OH250272   5.314   8.079   5.726
16796TIP3    H150273   5.344   8.142   5.793
16796TIP3    H250274   5.305   7.997   5.777
16797TIP3   OH250275   5.365   7.555   4.431
16797TIP3    H150276   5.363   7.553   4.529
16797TIP3    H250277   5.286   7.610   4.413
16798TIP3   OH250278   4.912   7.599   5.306
16798TIP3    H150279   4.984   7.635   5.361
16798TIP3    H250280   4.958   7.573   5.224
16799TIP3   OH250281   4.879   7.579   4.823
16799TIP3    H150282   4.931   7.617   4.749
16799TIP3    H250283   4.822   7.656   4.844
16800TIP3   OH250284   6.041   8.297   5.419
16800TIP3    H150285   6.075   8.226   5.360
16800TIP3    H250286   6.012   8.244   5.495
16801TIP3   OH250287   5.147   7.806   5.110
16801TIP3    H150288   5.057   7.810   5.072
16801TIP3    H250289   5.183   7.720   5.076
16802TIP3   OH250290   5.412   7.803   4.788
16802TIP3    H150291   5.507   7.821   4.774
16802TIP3    H250292   5.370   7.832   4.705
16803TIP3   OH250293   6.200   7.835   5.295
16803TIP3    H150294   6.164   7.848   5.385
16803TIP3    H250295   6.134   7.769   5.261
16804TIP3   OH250296   5.246   7.852   4.564
16804TIP3    H150297   5.177   7.804   4.517
16804TIP3    H250298   5.302   7.884   4.490
16805TIP3   OH250299   6.369   9.525   5.513
16805TIP3    H150300   6.372   9.544   5.417
16805TIP3    H250301   6.452   9.568   5.543
16806TIP3   OH250302   5.329   8.636   5.933
16806TIP3    H150303   5.408   8.664   5.983
16806TIP3    H250304   5.264   8.630   6.006
16807TIP3   OH250305   5.793   8.087   5.196
16807TIP3    H150306   5.845   8.028   5.140
16807TIP3    H250307   5.793   8.037   5.280
16808TIP3   OH250308   5.292   7.581   5.044
16808TIP3    H150309   5.285   7.503   5.101
16808TIP3    H250310   5.388   7.598   5.040
16809TIP3   OH250311   5.767   7.983   5.487
16809TIP3    H150312   5.677   8.021   5.496
16809TIP3    H250313   5.824   8.048   5.532
16810TIP3   OH250314   5.503   8.375   4.572
16810TIP3    H150315   5.432   8.308   4.562
16810TIP3    H250316   5.486   8.408   4.664
16811TIP3   OH250317   6.405   8.612   5.202
16811TIP3    H150318   6.430   8.658   5.120
16811TIP3    H250319   6.321   8.567   5.177
16812TIP3   OH250320   5.959   7.692   4.423
16812TIP3    H150321   5.865   7.671   4.443
16812TIP3    H250322   5.971   7.782   4.459
16813TIP3   OH250323   5.912   8.697   5.568
16813TIP3    H150324   5.930   8.663   5.657
16813TIP3    H250325   5.862   8.779   5.586
16814TIP3   OH250326   6.033   7.931   4.538
16814TIP3    H150327   6.129   7.937   4.557
16814TIP3    H250328   6.016   8.014   4.488
16815TIP3   OH250329   5.198   8.397   5.248
16815TIP3    H150330   5.237   8.366   5.163
16815TIP3    H250331   5.239   8.335   5.310
16816TIP3   OH250332   5.648   8.522   4.392
16816TIP3    H150333   5.601   8.609   4.400
16816TIP3    H250334   5.595   8.467   4.453
16817TIP3   OH250335   5.078   8.317   5.863
16817TIP3    H150336   5.096   8.304   5.958
16817TIP3    H250337   5.009   8.250   5.847
16818TIP3   OH250338   5.804   8.431   5.882
16818TIP3    H150339   5.745   8.372   5.833
16818TIP3    H250340   5.892   8.396   5.855
16819TIP3   OH250341   6.062   8.968   5.456
16819TIP3    H150342   5.969   8.950   5.477
16819TIP3    H250343   6.093   9.008   5.541
16820TIP3   OH250344   6.466   8.016   4.378
16820TIP3    H150345   6.405   7.977   4.311
16820TIP3    H250346   6.472   8.106   4.340
16821TIP3   OH250347   6.693   8.885   5.455
16821TIP3    H150348   6.596   8.876   5.448
16821TIP3    H250349   6.719   8.852   5.366
16822TIP3   OH250350   6.174   8.843   4.283
16822TIP3    H150351   6.151   8.773   4.346
16822TIP3    H250352   6.187   8.794   4.200
16823TIP3   OH250353   6.170   8.473   5.120
16823TIP3    H150354   6.078   8.445   5.134
16823TIP3    H250355   6.206   8.392   5.078
16824TIP3   OH250356   5.298   8.701   4.876
16824TIP3    H150357   5.295   8.781   4.820
16824TIP3    H250358   5.204   8.681   4.885
16825TIP3   OH250359   4.859   8.004   4.575
16825TIP3    H150360   4.907   8.086   4.598
16825TIP3    H250361   4.784   8.008   4.639
16826TIP3   OH250362   5.437   8.466   4.817
16826TIP3    H150363   5.401   8.554   4.839
16826TIP3    H250364   5.403   8.412   4.891
16827TIP3   OH250365   5.570   9.045   5.349
16827TIP3    H150366   5.621   9.099   5.286
16827TIP3    H250367   5.641   9.002   5.400
16828TIP3   OH250368   5.216   8.938   4.725
16828TIP3    H150369   5.131   8.946   4.773
16828TIP3    H250370   5.248   9.031   4.728
16829TIP3   OH250371   5.959   8.680   5.300
16829TIP3    H150372   5.949   8.677   5.398
16829TIP3    H250373   6.034   8.620   5.287
16830TIP3   OH250374   5.930   8.572   4.185
16830TIP3    H150375   5.985   8.546   4.264
16830TIP3    H250376   5.843   8.543   4.216
16831TIP3   OH250377   6.205   9.213   5.357
16831TIP3    H150378   6.130   9.151   5.357
16831TIP3    H250379   6.183   9.272   5.282
16832TIP3   OH250380   6.270   9.046   4.004
16832TIP3    H150381   6.310   9.120   3.956
16832TIP3    H250382   6.189   9.090   4.037
16833TIP3   OH250383   5.288   7.823   5.872
16833TIP3    H150384   5.192   7.828   5.888
16833TIP3    H250385   5.318   7.764   5.943
16834TIP3   OH250386   6.090   8.504   4.400
16834TIP3    H150387   6.080   8.439   4.472
16834TIP3    H250388   6.188   8.501   4.389
16835TIP3   OH250389   5.008   8.905   5.502
16835TIP3    H150390   5.059   8.830   5.535
16835TIP3    H250391   5.028   8.972   5.569
16836TIP3   OH250392   5.295   8.551   4.184
16836TIP3    H150393   5.311   8.459   4.157
16836TIP3    H250394   5.277   8.540   4.280
16837TIP3   OH250395   5.241   8.556   4.457
16837TIP3    H150396   5.312   8.525   4.514
16837TIP3    H250397   5.247   8.653   4.466
16838TIP3   OH250398   4.972   8.246   4.657
16838TIP3    H150399   4.909   8.292   4.717
16838TIP3    H250400   4.990   8.318   4.593
16839TIP3   OH250401   6.124   7.895   5.556
16839TIP3    H150402   6.211   7.922   5.591
16839TIP3    H250403   6.108   7.810   5.602
16840TIP3   OH250404   6.016   7.636   4.712
16840TIP3    H150405   5.996   7.667   4.622
16840TIP3    H250406   6.051   7.718   4.754
16841TIP3   OH250407   5.508   8.754   4.405
16841TIP3    H150408   5.421   8.780   4.442
16841TIP3    H250409   5.522   8.826   4.343
16842TIP3   OH250410   5.692   7.820   4.809
16842TIP3    H150411   5.760   7.891   4.813
16842TIP3    H250412   5.680   7.799   4.904
16843TIP3   OH250413   5.965   8.138   5.626
16843TIP3    H150414   5.991   8.186   5.707
16843TIP3    H250415   6.019   8.056   5.632
16844TIP3   OH250416   5.851   7.535   4.921
16844TIP3    H150417   5.809   7.604   4.979
16844TIP3    H250418   5.904   7.589   4.860
16845TIP3   OH250419   5.252   8.829   4.473
16845TIP3    H150420   5.221   8.899   4.411
16845TIP3    H250421   5.235   8.872   4.560
16846TIP3   OH250422   5.353   7.540   4.703
16846TIP3    H150423   5.346   7.623   4.755
16846TIP3    H250424   5.447   7.519   4.722
16847TIP3   OH250425   6.608   8.035   5.604
16847TIP3    H150426   6.510   8.037   5.616
16847TIP3    H250427   6.611   7.983   5.522
16848TIP3   OH250428   6.258   8.233   4.997
16848TIP3    H150429   6.182   8.172   5.009
16848TIP3    H250430   6.330   8.185   5.043
16849TIP3   OH250431   4.969   8.460   4.464
16849TIP3    H150432   5.037   8.528   4.475
16849TIP3    H250433   5.014   8.403   4.398
16850TIP3   OH250434   4.914   7.734   4.596
16850TIP3    H150435   4.916   7.831   4.593
16850TIP3    H250436   4.826   7.714   4.563
16851TIP3   OH250437   6.223   9.188   4.945
16851TIP3    H150438   6.182   9.237   4.871
16851TIP3    H250439   6.318   9.206   4.926
16852TIP3   OH250440   5.297   7.457   5.477
16852TIP3    H150441   5.270   7.425   5.388
16852TIP3    H250442   5.288   7.377   5.532
16853TIP3   OH250443   4.841   8.674   4.853
16853TIP3    H150444   4.771   8.704   4.912
16853TIP3    H250445   4.812   8.714   4.768
16854TIP3   OH250446   4.997   9.215   5.922
16854TIP3    H150447   5.082   9.214   5.972
16854TIP3    H250448   4.974   9.120   5.924
16855TIP3   OH250449   5.483   9.191   5.952
16855TIP3    H150450   5.571   9.161   5.979
16855TIP3    H250451   5.456   9.120   5.891
16856TIP3   OH250452   5.459   8.754   4.097
16856TIP3    H150453   5.402   8.684   4.136
16856TIP3    H250454   5.535   8.701   4.067
16857TIP3   OH250455   6.119   9.084   5.699
16857TIP3    H150456   6.107   9.015   5.769
16857TIP3    H250457   6.196   9.133   5.733
16858TIP3   OH250458   5.896   8.795   4.009
16858TIP3    H150459   5.937   8.730   4.069
16858TIP3    H250460   5.955   8.793   3.931
16859TIP3   OH250461   5.128   8.622   6.124
16859TIP3    H150462   5.145   8.526   6.132
16859TIP3    H250463   5.039   8.622   6.082
16860TIP3   OH250464   5.104   8.272   4.319
16860TIP3    H150465   5.158   8.237   4.392
16860TIP3    H250466   5.173   8.276   4.249
16861TIP3   OH250467   5.736   8.705   5.898
16861TIP3    H150468   5.693   8.718   5.811
16861TIP3    H250469   5.767   8.612   5.893
16862TIP3   OH250470   5.613   8.470   4.124
16862TIP3    H150471   5.616   8.482   4.221
16862TIP3    H250472   5.613   8.371   4.119
16863TIP3   OH250473   6.229   8.713   5.506
16863TIP3    H150474   6.302   8.759   5.461
16863TIP3    H250475   6.155   8.773   5.490
16864TIP3   OH250476   5.252   8.361   6.104
16864TIP3    H150477   5.321   8.296   6.088
16864TIP3    H250478   5.275   8.391   6.195
16865TIP3   OH250479   5.311   8.176   4.539
16865TIP3    H150480   5.285   8.139   4.625
16865TIP3    H250481   5.347   8.098   4.493
16866TIP3   OH250482   5.580   8.239   5.769
16866TIP3    H150483   5.503   8.299   5.771
16866TIP3    H250484   5.631   8.273   5.693
16867TIP3   OH250485   5.413   7.968   4.380
16867TIP3    H150486   5.388   7.973   4.285
16867TIP3    H250487   5.511   7.973   4.374
16868TIP3   OH250488   6.099   8.643   5.902
16868TIP3    H150489   6.180   8.617   5.856
16868TIP3    H250490   6.094   8.577   5.973
16869TIP3   OH250491   6.233   8.301   4.043
16869TIP3    H150492   6.212   8.254   3.960
16869TIP3    H250493   6.200   8.391   4.020
16870TIP3   OH250494   5.704   8.026   5.894
16870TIP3    H150495   5.705   7.947   5.836
16870TIP3    H250496   5.661   8.093   5.836
16871TIP3   OH250497   5.707   7.813   5.703
16871TIP3    H150498   5.736   7.855   5.619
16871TIP3    H250499   5.613   7.792   5.682
16872TIP3   OH250500   5.734   8.351   5.579
16872TIP3    H150501   5.816   8.351   5.528
16872TIP3    H250502   5.679   8.416   5.530
16873TIP3   OH250503   6.316   8.316   5.957
16873TIP3    H150504   6.363   8.231   5.964
16873TIP3    H250505   6.386   8.373   5.922
16874TIP3   OH250506   6.359   8.570   5.694
16874TIP3    H150507   6.301   8.623   5.634
16874TIP3    H250508   6.446   8.589   5.653
16875TIP3   OH250509   5.584   8.139   6.124
16875TIP3    H150510   5.514   8.072   6.140
16875TIP3    H250511   5.617   8.112   6.036
16876TIP3   OH250512   5.838   7.580   5.775
16876TIP3    H150513   5.790   7.661   5.748
16876TIP3    H250514   5.772   7.511   5.755
16877TIP3   OH250515   5.965   8.082   5.986
16877TIP3    H150516   5.952   8.071   6.082
16877TIP3    H250517   5.875   8.057   5.954
16878TIP3   OH250518   6.204   8.033   5.841
16878TIP3    H150519   6.129   8.033   5.904
16878TIP3    H250520   6.279   8.003   5.897
16879TIP3   OH250521   6.435   7.979   5.989
16879TIP3    H150522   6.448   7.882   6.006
16879TIP3    H250523   6.431   8.015   6.081
16880TIP3   OH250524   5.421   7.920   6.178
16880TIP3    H150525   5.429   7.829   6.144
16880TIP3    H250526   5.457   7.908   6.268
16881TIP3   OH250527   5.935   7.579   6.031
16881TIP3    H150528   6.008   7.517   6.012
16881TIP3    H250529   5.892   7.581   5.942
16882TIP3   OH250530   5.997   7.800   6.188
16882TIP3    H150531   5.975   7.731   6.122
16882TIP3    H250532   5.921   7.862   6.180
16883TIP3   OH250533   5.221   9.033   4.286
16883TIP3    H150534   5.316   9.027   4.266
16883TIP3    H250535   5.191   9.082   4.207
16884TIP3   OH250536   4.700   8.414   4.500
16884TIP3    H150537   4.795   8.436   4.487
16884TIP3    H250538   4.695   8.325   4.461
16885TIP3   OH250539   4.616   9.025   4.915
16885TIP3    H150540   4.548   8.963   4.880
16885TIP3    H250541   4.660   8.968   4.982
16886TIP3   OH250542   4.751   8.876   5.103
16886TIP3    H150543   4.740   8.803   5.166
16886TIP3    H250544   4.800   8.939   5.159
16887TIP3   OH250545   6.474   9.284   4.902
16887TIP3    H150546   6.507   9.310   4.990
16887TIP3    H250547   6.544   9.317   4.843
16888TIP3   OH250548   6.508   9.298   5.185
16888TIP3    H150549   6.462   9.211   5.180
16888TIP3    H250550   6.582   9.273   5.242
16889TIP3   OH250551   6.551   8.974   5.756
16889TIP3    H150552   6.480   8.982   5.823
16889TIP3    H250553   6.594   9.062   5.762
16890TIP3   OH250554   6.369   8.488   4.376
16890TIP3    H150555   6.439   8.550   4.347
16890TIP3    H250556   6.410   8.449   4.456
16891TIP3   OH250557   6.490   8.359   4.585
16891TIP3    H150558   6.423   8.309   4.638
16891TIP3    H250559   6.550   8.390   4.654
16892TIP3   OH250560   6.555   8.741   5.009
16892TIP3    H150561   6.610   8.676   4.961
16892TIP3    H250562   6.547   8.813   4.944
16893TIP3   OH250563   6.384   9.049   5.205
16893TIP3    H150564   6.312   9.084   5.262
16893TIP3    H250565   6.334   8.998   5.137
16894TIP3   OH250566   6.435   8.262   4.227
16894TIP3    H150567   6.362   8.265   4.160
16894TIP3    H250568   6.409   8.337   4.283
16895TIP3   OH250569   6.304   7.934   4.177
16895TIP3    H150570   6.259   7.970   4.099
16895TIP3    H250571   6.280   7.839   4.170
16896TIP3   OH250572   6.309   8.209   4.727
16896TIP3    H150573   6.319   8.113   4.722
16896TIP3    H250574   6.297   8.223   4.824
16897TIP3   OH250575   4.937   8.287   5.472
16897TIP3    H150576   4.937   8.254   5.380
16897TIP3    H250577   5.034   8.287   5.491
16898TIP3   OH250578   6.602   8.636   5.583
16898TIP3    H150579   6.673   8.568   5.576
16898TIP3    H250580   6.630   8.703   5.519
16899TIP3   OH250581   6.786   8.441   5.605
16899TIP3    H150582   6.710   8.389   5.641
16899TIP3    H250583   6.858   8.376   5.617
16900TIP3   OH250584   6.251   7.667   4.162
16900TIP3    H150585   6.327   7.640   4.219
16900TIP3    H250586   6.178   7.611   4.193
16901TIP3   OH250587   6.308   7.927   4.620
16901TIP3    H150588   6.347   7.838   4.637
16901TIP3    H250589   6.366   7.958   4.549
16902TIP3   OH250590   6.476   8.104   5.112
16902TIP3    H150591   6.561   8.131   5.070
16902TIP3    H250592   6.491   8.138   5.202
16903TIP3   OH250593   6.540   8.244   5.348
16903TIP3    H150594   6.461   8.276   5.396
16903TIP3    H250595   6.572   8.326   5.305
16904TIP3   OH250596   5.154   7.969   6.142
16904TIP3    H150597   5.252   7.963   6.148
16904TIP3    H250598   5.129   7.887   6.189
16905TIP3   OH250599   6.992   7.841   5.903
16905TIP3    H150600   7.048   7.774   5.859
16905TIP3    H250601   6.959   7.893   5.827
16906TIP3   OH250602   6.415   7.677   4.660
16906TIP3    H150603   6.464   7.662   4.743
16906TIP3    H250604   6.355   7.601   4.660
16907TIP3   OH250605   5.115   7.667   5.484
16907TIP3    H150606   5.175   7.590   5.492
16907TIP3    H250607   5.180   7.738   5.468
16908TIP3   OH250608   4.918   7.936   5.550
16908TIP3    H150609   4.969   7.931   5.468
16908TIP3    H250610   4.950   8.020   5.587
16909TIP3   OH250611   6.860   7.975   5.710
16909TIP3    H150612   6.773   8.017   5.730
16909TIP3    H250613   6.829   7.902   5.653
16910TIP3   OH250614   6.495   7.613   4.290
16910TIP3    H150615   6.541   7.542   4.242
16910TIP3    H250616   6.562   7.684   4.292
16911TIP3   OH250617   4.900   7.433   5.049
16911TIP3    H150618   4.808   7.437   5.078
16911TIP3    H250619   4.901   7.495   4.974
16912TIP3   OH250620   6.062   9.147   4.559
16912TIP3    H150621   6.110   9.129   4.476
16912TIP3    H250622   6.122   9.208   4.604
16913TIP3   OH250623   5.122   7.518   5.866
16913TIP3    H150624   5.073   7.516   5.950
16913TIP3    H250625   5.056   7.558   5.807
16914TIP3   OH250626   5.163   8.949   5.945
16914TIP3    H150627   5.071   8.921   5.929
16914TIP3    H250628   5.174   8.926   6.038
16915TIP3   OH250629   5.339   8.979   5.493
16915TIP3    H150630   5.289   9.053   5.455
16915TIP3    H250631   5.425   8.995   5.450
16916TIP3   OH250632   5.788   9.230   5.628
16916TIP3    H150633   5.827   9.218   5.718
16916TIP3    H250634   5.864   9.269   5.582
16917TIP3   OH250635   5.951   9.398   5.484
16917TIP3    H150636   6.010   9.338   5.436
16917TIP3    H250637   6.017   9.439   5.546
16918TIP3   OH250638   6.765   7.741   5.590
16918TIP3    H150639   6.674   7.727   5.557
16918TIP3    H250640   6.797   7.648   5.579
16919TIP3   OH250641   5.022   9.241   5.513
16919TIP3    H150642   4.931   9.270   5.490
16919TIP3    H250643   5.026   9.270   5.604
16920TIP3   OH250644   5.264   9.227   5.377
16920TIP3    H150645   5.178   9.235   5.423
16920TIP3    H250646   5.239   9.254   5.287
16921TIP3   OH250647   5.676   9.245   5.167
16921TIP3    H150648   5.618   9.243   5.088
16921TIP3    H250649   5.631   9.311   5.220
16922TIP3   OH250650   5.947   9.194   5.229
16922TIP3    H150651   5.857   9.203   5.192
16922TIP3    H250652   5.999   9.253   5.172
16923TIP3   OH250653   6.151   9.375   5.136
16923TIP3    H150654   6.141   9.459   5.087
16923TIP3    H250655   6.183   9.314   5.065
16924TIP3   OH250656   4.930   9.031   5.260
16924TIP3    H150657   4.954   9.004   5.351
16924TIP3    H250658   5.001   8.985   5.210
16925TIP3   OH250659   5.123   8.901   5.118
16925TIP3    H150660   5.137   8.816   5.166
16925TIP3    H250661   5.215   8.935   5.112
16926TIP3   OH250662   5.392   8.998   5.119
16926TIP3    H150663   5.421   8.905   5.105
16926TIP3    H250664   5.431   9.013   5.207
16927TIP3   OH250665   5.999   7.658   5.229
16927TIP3    H150666   5.913   7.622   5.258
16927TIP3    H250667   6.026   7.593   5.163
16928TIP3   OH250668   6.496   7.528   5.113
16928TIP3    H150669   6.528   7.584   5.038
16928TIP3    H250670   6.399   7.543   5.107
16929TIP3   OH250671   6.583   7.630   4.873
16929TIP3    H150672   6.657   7.580   4.833
16929TIP3    H250673   6.617   7.722   4.861
16930TIP3   OH250674   5.214   7.362   5.232
16930TIP3    H150675   5.122   7.331   5.227
16930TIP3    H250676   5.263   7.278   5.221
16931TIP3   OH250677   4.995   7.231   4.870
16931TIP3    H150678   5.030   7.291   4.801
16931TIP3    H250679   4.970   7.295   4.940
16932TIP3   OH250680   5.660   7.381   5.113
16932TIP3    H150681   5.696   7.442   5.047
16932TIP3    H250682   5.643   7.447   5.181
16933TIP3   OH250683   6.225   7.532   5.079
16933TIP3    H150684   6.189   7.503   4.995
16933TIP3    H250685   6.196   7.460   5.140
16934TIP3   OH250686   6.233   7.463   4.650
16934TIP3    H150687   6.149   7.510   4.667
16934TIP3    H250688   6.216   7.379   4.697
16935TIP3   OH250689   4.717   8.802   4.651
16935TIP3    H150690   4.632   8.769   4.617
16935TIP3    H250691   4.705   8.897   4.636
16936TIP3   OH250692   5.117   7.393   4.634
16936TIP3    H150693   5.168   7.331   4.579
16936TIP3    H250694   5.188   7.448   4.672
16937TIP3   OH250695   5.635   7.562   4.733
16937TIP3    H150696   5.690   7.520   4.801
16937TIP3    H250697   5.646   7.656   4.760
16938TIP3   OH250698   5.488   8.991   4.233
16938TIP3    H150699   5.577   9.013   4.198
16938TIP3    H250700   5.466   8.916   4.174
16939TIP3   OH250701   6.207   9.109   4.327
16939TIP3    H150702   6.199   9.011   4.315
16939TIP3    H250703   6.162   9.140   4.246
16940TIP3   OH250704   5.420   7.641   6.112
16940TIP3    H150705   5.385   7.573   6.172
16940TIP3    H250706   5.514   7.643   6.141
16941TIP3   OH250707   5.669   7.640   6.233
16941TIP3    H150708   5.754   7.618   6.193
16941TIP3    H250709   5.658   7.568   6.299
16942TIP3   OH250710   4.793   8.829   4.291
16942TIP3    H150711   4.793   8.851   4.385
16942TIP3    H250712   4.881   8.787   4.279
16943TIP3   OH250713   6.491   7.714   6.034
16943TIP3    H150714   6.514   7.675   6.120
16943TIP3    H250715   6.566   7.686   5.978
16944TIP3   OH250716   6.435   9.256   5.514
16944TIP3    H150717   6.356   9.223   5.467
16944TIP3    H250718   6.413   9.351   5.520
16945TIP3   OH250719   7.702   8.627   4.279
16945TIP3    H150720   7.673   8.718   4.260
16945TIP3    H250721   7.624   8.577   4.252
16946TIP3   OH250722   7.702   8.625   4.661
16946TIP3    H150723   7.732   8.596   4.749
16946TIP3    H250724   7.655   8.545   4.630
16947TIP3   OH250725   6.999   8.542   5.047
16947TIP3    H150726   7.022   8.454   5.082
16947TIP3    H250727   7.077   8.560   4.993
16948TIP3   OH250728   7.943   8.929   4.342
16948TIP3    H150729   7.926   8.859   4.407
16948TIP3    H250730   7.972   9.003   4.399
16949TIP3   OH250731   6.969   8.928   4.751
16949TIP3    H150732   6.962   8.830   4.755
16949TIP3    H250733   7.066   8.938   4.749
16950TIP3   OH250734   6.670   8.151   4.511
16950TIP3    H150735   6.618   8.227   4.537
16950TIP3    H250736   6.604   8.081   4.503
16951TIP3   OH250737   7.593   9.392   4.359
16951TIP3    H150738   7.639   9.320   4.311
16951TIP3    H250739   7.584   9.354   4.447
16952TIP3   OH250740   7.497   8.855   4.708
16952TIP3    H150741   7.531   8.776   4.664
16952TIP3    H250742   7.582   8.897   4.732
16953TIP3   OH250743   8.512   8.172   4.708
16953TIP3    H150744   8.540   8.255   4.752
16953TIP3    H250745   8.529   8.193   4.615
16954TIP3   OH250746   7.916   8.354   4.741
16954TIP3    H150747   7.953   8.267   4.761
16954TIP3    H250748   7.879   8.339   4.652
16955TIP3   OH250749   7.268   8.006   4.709
16955TIP3    H150750   7.218   8.088   4.695
16955TIP3    H250751   7.210   7.941   4.662
16956TIP3   OH250752   7.943   8.102   4.330
16956TIP3    H150753   8.015   8.086   4.395
16956TIP3    H250754   7.995   8.139   4.256
16957TIP3   OH250755   7.321   8.417   4.609
16957TIP3    H150756   7.413   8.387   4.624
16957TIP3    H250757   7.278   8.333   4.580
16958TIP3   OH250758   8.585   8.381   4.877
16958TIP3    H150759   8.501   8.427   4.857
16958TIP3    H250760   8.595   8.401   4.971
16959TIP3   OH250761   7.241   8.003   5.134
16959TIP3    H150762   7.190   8.052   5.069
16959TIP3    H250763   7.188   8.019   5.215
16960TIP3   OH250764   7.596   8.851   4.148
16960TIP3    H150765   7.546   8.824   4.070
16960TIP3    H250766   7.549   8.933   4.173
16961TIP3   OH250767   7.356   8.773   4.939
16961TIP3    H150768   7.290   8.835   4.976
16961TIP3    H250769   7.393   8.824   4.865
16962TIP3   OH250770   8.154   8.105   4.502
16962TIP3    H150771   8.134   8.061   4.586
16962TIP3    H250772   8.204   8.183   4.531
16963TIP3   OH250773   7.179   8.966   5.036
16963TIP3    H150774   7.151   9.052   4.998
16963TIP3    H250775   7.101   8.946   5.091
16964TIP3   OH250776   6.573   8.656   4.270
16964TIP3    H150777   6.532   8.685   4.187
16964TIP3    H250778   6.606   8.740   4.308
16965TIP3   OH250779   8.012   9.168   4.511
16965TIP3    H150780   7.923   9.157   4.553
16965TIP3    H250781   7.999   9.254   4.466
16966TIP3   OH250782   8.304   8.071   4.874
16966TIP3    H150783   8.216   8.099   4.844
16966TIP3    H250784   8.362   8.104   4.802
16967TIP3   OH250785   7.607   7.718   4.861
16967TIP3    H150786   7.585   7.624   4.868
16967TIP3    H250787   7.527   7.757   4.903
16968TIP3   OH250788   7.715   9.217   4.184
16968TIP3    H150789   7.766   9.135   4.165
16968TIP3    H250790   7.776   9.283   4.143
16969TIP3   OH250791   7.860   9.003   4.089
16969TIP3    H150792   7.812   8.925   4.058
16969TIP3    H250793   7.896   8.969   4.175
16970TIP3   OH250794   8.236   9.086   4.853
16970TIP3    H150795   8.226   9.007   4.795
16970TIP3    H250796   8.221   9.159   4.790
16971TIP3   OH250797   7.530   8.477   4.111
16971TIP3    H150798   7.449   8.527   4.091
16971TIP3    H250799   7.575   8.475   4.025
16972TIP3   OH250800   7.489   8.264   3.825
16972TIP3    H150801   7.556   8.313   3.876
16972TIP3    H250802   7.547   8.199   3.779
16973TIP3   OH250803   8.435   8.722   4.699
16973TIP3    H150804   8.351   8.772   4.705
16973TIP3    H250805   8.462   8.746   4.608
16974TIP3   OH250806   7.879   8.561   4.082
16974TIP3    H150807   7.823   8.584   4.160
16974TIP3    H250808   7.962   8.535   4.127
16975TIP3   OH250809   8.114   8.600   4.994
16975TIP3    H150810   8.109   8.684   5.043
16975TIP3    H250811   8.026   8.600   4.950
16976TIP3   OH250812   7.114   8.563   4.492
16976TIP3    H150813   7.071   8.500   4.432
16976TIP3    H250814   7.185   8.508   4.531
16977TIP3   OH250815   7.242   8.974   4.646
16977TIP3    H150816   7.218   8.924   4.567
16977TIP3    H250817   7.331   8.938   4.666
16978TIP3   OH250818   7.246   8.527   4.864
16978TIP3    H150819   7.269   8.504   4.772
16978TIP3    H250820   7.290   8.613   4.877
16979TIP3   OH250821   7.771   9.167   4.632
16979TIP3    H150822   7.759   9.246   4.687
16979TIP3    H250823   7.756   9.093   4.694
16980TIP3   OH250824   7.384   9.088   5.177
16980TIP3    H150825   7.323   9.148   5.224
16980TIP3    H250826   7.320   9.032   5.128
16981TIP3   OH250827   7.719   8.418   3.909
16981TIP3    H150828   7.778   8.478   3.961
16981TIP3    H250829   7.745   8.442   3.817
16982TIP3   OH250830   7.148   8.640   5.292
16982TIP3    H150831   7.141   8.728   5.334
16982TIP3    H250832   7.056   8.623   5.267
16983TIP3   OH250833   7.463   9.097   4.182
16983TIP3    H150834   7.541   9.151   4.201
16983TIP3    H250835   7.400   9.161   4.148
16984TIP3   OH250836   7.178   9.256   5.266
16984TIP3    H150837   7.143   9.253   5.175
16984TIP3    H250838   7.098   9.234   5.319
16985TIP3   OH250839   8.235   7.658   3.959
16985TIP3    H150840   8.153   7.681   4.007
16985TIP3    H250841   8.249   7.740   3.906
16986TIP3   OH250842   6.982   8.398   4.293
16986TIP3    H150843   6.908   8.436   4.243
16986TIP3    H250844   6.939   8.325   4.339
16987TIP3   OH250845   8.041   9.024   3.485
16987TIP3    H150846   8.043   9.123   3.483
16987TIP3    H250847   8.137   9.003   3.469
16988TIP3   OH250848   6.758   8.787   5.211
16988TIP3    H150849   6.694   8.759   5.142
16988TIP3    H250850   6.797   8.701   5.239
16989TIP3   OH250851   6.612   8.980   4.840
16989TIP3    H150852   6.707   8.963   4.833
16989TIP3    H250853   6.610   9.054   4.902
16990TIP3   OH250854   8.465   9.420   4.892
16990TIP3    H150855   8.473   9.325   4.914
16990TIP3    H250856   8.383   9.444   4.941
16991TIP3   OH250857   7.581   9.215   5.034
16991TIP3    H150858   7.580   9.307   5.067
16991TIP3    H250859   7.509   9.175   5.088
16992TIP3   OH250860   7.344   9.345   3.986
16992TIP3    H150861   7.295   9.327   3.904
16992TIP3    H250862   7.309   9.433   4.012
16993TIP3   OH250863   6.781   9.192   4.372
16993TIP3    H150864   6.829   9.183   4.457
16993TIP3    H250865   6.729   9.110   4.372
16994TIP3   OH250866   7.545   9.244   3.626
16994TIP3    H150867   7.604   9.174   3.592
16994TIP3    H250868   7.577   9.253   3.718
16995TIP3   OH250869   7.594   9.289   3.897
16995TIP3    H150870   7.506   9.300   3.939
16995TIP3    H250871   7.644   9.249   3.970
16996TIP3   OH250872   8.367   8.562   5.172
16996TIP3    H150873   8.283   8.572   5.124
16996TIP3    H250874   8.381   8.465   5.166
16997TIP3   OH250875   6.961   8.970   5.201
16997TIP3    H150876   7.013   8.950   5.283
16997TIP3    H250877   6.889   8.904   5.207
16998TIP3   OH250878   7.365   7.788   4.985
16998TIP3    H150879   7.275   7.760   4.958
16998TIP3    H250880   7.343   7.877   5.018
16999TIP3   OH250881   7.895   7.905   5.179
16999TIP3    H150882   7.963   7.879   5.245
16999TIP3    H250883   7.811   7.887   5.224
17000TIP3   OH250884   8.138   8.337   5.100
17000TIP3    H150885   8.086   8.332   5.183
17000TIP3    H250886   8.109   8.423   5.063
17001TIP3   OH250887   7.793   8.468   3.653
17001TIP3    H150888   7.762   8.439   3.565
17001TIP3    H250889   7.878   8.511   3.629
17002TIP3   OH250890   7.506   7.841   3.955
17002TIP3    H150891   7.475   7.838   4.047
17002TIP3    H250892   7.468   7.757   3.922
17003TIP3   OH250893   7.312   8.307   5.016
17003TIP3    H150894   7.237   8.311   5.079
17003TIP3    H250895   7.281   8.372   4.950
17004TIP3   OH250896   7.177   8.202   4.517
17004TIP3    H150897   7.086   8.198   4.551
17004TIP3    H250898   7.175   8.142   4.439
17005TIP3   OH250899   7.670   8.280   4.246
17005TIP3    H150900   7.615   8.350   4.204
17005TIP3    H250901   7.722   8.248   4.170
17006TIP3   OH250902   7.844   8.557   5.331
17006TIP3    H150903   7.820   8.485   5.393
17006TIP3    H250904   7.937   8.571   5.355
17007TIP3   OH250905   7.828   8.308   4.483
17007TIP3    H150906   7.765   8.337   4.414
17007TIP3    H250907   7.859   8.225   4.440
17008TIP3   OH250908   7.112   8.331   5.210
17008TIP3    H150909   7.138   8.399   5.274
17008TIP3    H250910   7.100   8.252   5.266
17009TIP3   OH250911   7.161   7.812   3.921
17009TIP3    H150912   7.155   7.811   4.019
17009TIP3    H250913   7.084   7.867   3.899
17010TIP3   OH250914   6.710   7.853   4.792
17010TIP3    H150915   6.774   7.897   4.851
17010TIP3    H250916   6.757   7.850   4.708
17011TIP3   OH250917   6.675   7.837   4.307
17011TIP3    H150918   6.728   7.877   4.236
17011TIP3    H250919   6.620   7.912   4.334
17012TIP3   OH250920   7.841   8.554   4.906
17012TIP3    H150921   7.872   8.481   4.848
17012TIP3    H250922   7.808   8.502   4.983
17013TIP3   OH250923   7.508   8.009   4.575
17013TIP3    H150924   7.418   8.011   4.617
17013TIP3    H250925   7.564   8.019   4.653
17014TIP3   OH250926   7.207   8.058   4.274
17014TIP3    H150927   7.299   8.084   4.257
17014TIP3    H250928   7.159   8.087   4.194
17015TIP3   OH250929   7.996   8.088   4.777
17015TIP3    H150930   7.965   8.102   4.870
17015TIP3    H250931   7.926   8.028   4.745
17016TIP3   OH250932   7.050   8.099   4.052
17016TIP3    H150933   6.975   8.058   4.006
17016TIP3    H250934   7.100   8.135   3.977
17017TIP3   OH250935   8.163   9.775   4.991
17017TIP3    H150936   8.161   9.791   4.894
17017TIP3    H250937   8.221   9.847   5.020
17018TIP3   OH250938   7.122   8.894   5.421
17018TIP3    H150939   7.203   8.921   5.470
17018TIP3    H250940   7.058   8.888   5.494
17019TIP3   OH250941   7.590   8.345   4.680
17019TIP3    H150942   7.658   8.298   4.631
17019TIP3    H250943   7.592   8.302   4.767
17020TIP3   OH250944   7.133   7.823   4.558
17020TIP3    H150945   7.081   7.752   4.601
17020TIP3    H250946   7.160   7.783   4.475
17021TIP3   OH250947   7.570   8.240   4.962
17021TIP3    H150948   7.477   8.270   4.979
17021TIP3    H250949   7.622   8.303   5.015
17022TIP3   OH250950   7.301   8.630   4.059
17022TIP3    H150951   7.230   8.564   4.050
17022TIP3    H250952   7.283   8.665   4.150
17023TIP3   OH250953   8.202   8.866   4.690
17023TIP3    H150954   8.224   8.916   4.608
17023TIP3    H250955   8.116   8.824   4.666
17024TIP3   OH250956   7.758   7.942   3.922
17024TIP3    H150957   7.662   7.925   3.931
17024TIP3    H250958   7.768   8.036   3.947
17025TIP3   OH250959   7.710   8.955   5.055
17025TIP3    H150960   7.719   8.920   5.145
17025TIP3    H250961   7.661   9.038   5.068
17026TIP3   OH250962   7.828   8.189   4.026
17026TIP3    H150963   7.924   8.195   4.042
17026TIP3    H250964   7.810   8.270   3.974
17027TIP3   OH250965   6.995   8.649   4.735
17027TIP3    H150966   7.028   8.621   4.647
17027TIP3    H250967   7.006   8.567   4.785
17028TIP3   OH250968   7.444   8.779   3.879
17028TIP3    H150969   7.397   8.865   3.886
17028TIP3    H250970   7.391   8.724   3.940
17029TIP3   OH250971   6.866   8.580   5.354
17029TIP3    H150972   6.893   8.560   5.446
17029TIP3    H250973   6.805   8.507   5.334
17030TIP3   OH250974   7.598   8.688   5.369
17030TIP3    H150975   7.535   8.630   5.323
17030TIP3    H250976   7.684   8.651   5.338
17031TIP3   OH250977   7.861   9.214   4.949
17031TIP3    H150978   7.766   9.204   4.963
17031TIP3    H250979   7.887   9.264   5.029
17032TIP3   OH250980   8.274   8.281   3.860
17032TIP3    H150981   8.210   8.237   3.799
17032TIP3    H250982   8.268   8.371   3.821
17033TIP3   OH250983   8.485   9.134   4.944
17033TIP3    H150984   8.388   9.130   4.932
17033TIP3    H250985   8.514   9.107   4.854
17034TIP3   OH250986   7.964   9.095   3.762
17034TIP3    H150987   7.946   9.035   3.836
17034TIP3    H250988   7.985   9.036   3.689
17035TIP3   OH250989   7.967   8.729   4.608
17035TIP3    H150990   7.874   8.703   4.622
17035TIP3    H250991   8.001   8.648   4.563
17036TIP3   OH250992   7.094   8.956   4.360
17036TIP3    H150993   7.091   9.038   4.306
17036TIP3    H250994   7.000   8.937   4.372
17037TIP3   OH250995   6.655   8.261   4.063
17037TIP3    H150996   6.704   8.342   4.087
17037TIP3    H250997   6.581   8.264   4.127
17038TIP3   OH250998   7.236   8.725   4.302
17038TIP3    H150999   7.198   8.812   4.325
17038TIP3    H251000   7.201   8.669   4.375
17039TIP3   OH251001   7.363   9.300   4.831
17039TIP3    H151002   7.406   9.372   4.780
17039TIP3    H251003   7.439   9.263   4.878
17040TIP3   OH251004   7.012   9.196   4.212
17040TIP3    H151005   6.927   9.204   4.260
17040TIP3    H251006   7.044   9.289   4.216
17041TIP3   OH251007   7.753   8.934   4.788
17041TIP3    H151008   7.744   8.934   4.886
17041TIP3    H251009   7.830   8.877   4.776
17042TIP3   OH251010   7.729   8.828   3.669
17042TIP3    H151011   7.782   8.803   3.748
17042TIP3    H251012   7.641   8.800   3.698
17043TIP3   OH251013   8.002   9.469   4.840
17043TIP3    H151014   7.923   9.411   4.834
17043TIP3    H251015   7.985   9.533   4.767
17044TIP3   OH251016   8.046   9.299   3.476
17044TIP3    H151017   8.098   9.371   3.436
17044TIP3    H251018   7.972   9.350   3.515
17045TIP3   OH251019   7.084   8.078   5.358
17045TIP3    H151020   6.987   8.084   5.367
17045TIP3    H251021   7.108   8.016   5.428
17046TIP3   OH251022   7.887   8.758   3.884
17046TIP3    H151023   7.875   8.695   3.958
17046TIP3    H251024   7.985   8.757   3.876
17047TIP3   OH251025   6.800   9.162   4.991
17047TIP3    H151026   6.852   9.085   5.018
17047TIP3    H251027   6.833   9.228   5.054
17048TIP3   OH251028   7.092   8.808   3.671
17048TIP3    H151029   7.106   8.715   3.644
17048TIP3    H251030   7.073   8.796   3.767
17049TIP3   OH251031   7.037   8.813   3.943
17049TIP3    H151032   7.107   8.782   4.003
17049TIP3    H251033   7.043   8.910   3.953
17050TIP3   OH251034   6.771   8.504   4.146
17050TIP3    H151035   6.706   8.548   4.206
17050TIP3    H251036   6.786   8.576   4.082
17051TIP3   OH251037   7.927   8.140   5.037
17051TIP3    H151038   8.003   8.180   5.083
17051TIP3    H251039   7.909   8.061   5.091
17052TIP3   OH251040   7.806   7.891   4.203
17052TIP3    H151041   7.790   7.916   4.110
17052TIP3    H251042   7.843   7.975   4.240
17053TIP3   OH251043   7.303   9.010   3.891
17053TIP3    H151044   7.217   9.035   3.929
17053TIP3    H251045   7.319   9.085   3.832
17054TIP3   OH251046   7.494   8.072   4.305
17054TIP3    H151047   7.557   8.146   4.291
17054TIP3    H251048   7.494   8.065   4.403
17055TIP3   OH251049   7.763   8.394   5.112
17055TIP3    H151050   7.779   8.449   5.192
17055TIP3    H251051   7.815   8.315   5.132
17056TIP3   OH251052   7.636   7.801   4.411
17056TIP3    H151053   7.619   7.880   4.466
17056TIP3    H251054   7.697   7.838   4.343
17057TIP3   OH251055   7.048   9.086   3.960
17057TIP3    H151056   7.017   9.156   3.898
17057TIP3    H251057   7.031   9.128   4.047
17058TIP3   OH251058   7.149   7.796   4.197
17058TIP3    H151059   7.145   7.887   4.235
17058TIP3    H251060   7.245   7.780   4.207
17059TIP3   OH251061   8.403   8.291   5.092
17059TIP3    H151062   8.306   8.293   5.104
17059TIP3    H251063   8.408   8.248   5.006
17060TIP3   OH251064   8.053   8.487   4.482
17060TIP3    H151065   7.976   8.429   4.495
17060TIP3    H251066   8.123   8.439   4.531
17061TIP3   OH251067   6.765   8.717   3.951
17061TIP3    H151068   6.834   8.785   3.962
17061TIP3    H251069   6.810   8.660   3.885
17062TIP3   OH251070   6.713   7.991   4.077
17062TIP3    H151071   6.712   8.089   4.079
17062TIP3    H251072   6.621   7.970   4.057
17063TIP3   OH251073   7.993   9.434   4.432
17063TIP3    H151074   7.953   9.483   4.357
17063TIP3    H251075   8.088   9.454   4.412
17064TIP3   OH251076   7.100   7.715   4.957
17064TIP3    H151077   7.066   7.684   4.871
17064TIP3    H251078   7.084   7.637   5.014
17065TIP3   OH251079   6.639   8.935   4.340
17065TIP3    H151080   6.566   8.961   4.398
17065TIP3    H251081   6.610   8.972   4.254
17066TIP3   OH251082   6.792   9.471   5.412
17066TIP3    H151083   6.879   9.469   5.458
17066TIP3    H251084   6.771   9.377   5.410
17067TIP3   OH251085   7.278   9.436   5.454
17067TIP3    H151086   7.371   9.408   5.460
17067TIP3    H251087   7.247   9.378   5.381
17068TIP3   OH251088   7.255   9.010   3.583
17068TIP3    H151089   7.197   8.941   3.623
17068TIP3    H251090   7.330   8.956   3.556
17069TIP3   OH251091   7.912   9.345   5.186
17069TIP3    H151092   7.900   9.271   5.251
17069TIP3    H251093   7.988   9.392   5.222
17070TIP3   OH251094   7.694   9.050   3.496
17070TIP3    H151095   7.727   8.984   3.560
17070TIP3    H251096   7.765   9.053   3.431
17071TIP3   OH251097   6.923   8.877   5.612
17071TIP3    H151098   6.940   8.781   5.617
17071TIP3    H251099   6.836   8.879   5.567
17072TIP3   OH251100   6.901   8.529   3.805
17072TIP3    H151101   6.954   8.494   3.879
17072TIP3    H251102   6.970   8.533   3.735
17073TIP3   OH251103   7.531   8.962   5.385
17073TIP3    H151104   7.488   8.976   5.298
17073TIP3    H251105   7.561   8.869   5.379
17074TIP3   OH251106   7.411   8.727   3.611
17074TIP3    H151107   7.412   8.739   3.708
17074TIP3    H251108   7.410   8.629   3.605
17075TIP3   OH251109   8.025   8.969   4.994
17075TIP3    H151110   8.096   9.017   4.947
17075TIP3    H251111   7.950   9.028   4.980
17076TIP3   OH251112   7.041   8.615   5.595
17076TIP3    H151113   7.114   8.558   5.568
17076TIP3    H251114   7.070   8.644   5.684
17077TIP3   OH251115   7.107   8.433   4.028
17077TIP3    H151116   7.078   8.398   4.114
17077TIP3    H251117   7.142   8.353   3.984
17078TIP3   OH251118   7.383   8.500   5.266
17078TIP3    H151119   7.301   8.554   5.267
17078TIP3    H251120   7.421   8.523   5.178
17079TIP3   OH251121   7.209   8.224   3.867
17079TIP3    H151122   7.183   8.229   3.773
17079TIP3    H251123   7.306   8.230   3.860
17080TIP3   OH251124   7.897   8.898   5.390
17080TIP3    H151125   7.972   8.866   5.340
17080TIP3    H251126   7.890   8.832   5.461
17081TIP3   OH251127   8.026   8.561   3.532
17081TIP3    H151128   8.011   8.510   3.450
17081TIP3    H251129   8.002   8.650   3.501
17082TIP3   OH251130   7.503   8.283   5.379
17082TIP3    H151131   7.498   8.206   5.320
17082TIP3    H251132   7.458   8.352   5.325
17083TIP3   OH251133   7.503   8.068   5.185
17083TIP3    H151134   7.530   8.113   5.103
17083TIP3    H251135   7.408   8.050   5.167
17084TIP3   OH251136   7.537   8.612   5.066
17084TIP3    H151137   7.613   8.614   5.006
17084TIP3    H251138   7.475   8.674   5.022
17085TIP3   OH251139   8.113   8.573   5.442
17085TIP3    H151140   8.160   8.491   5.463
17085TIP3    H251141   8.184   8.627   5.404
17086TIP3   OH251142   8.155   8.828   5.183
17086TIP3    H151143   8.096   8.880   5.123
17086TIP3    H251144   8.241   8.845   5.141
17087TIP3   OH251145   7.382   8.396   5.614
17087TIP3    H151146   7.311   8.329   5.627
17087TIP3    H251147   7.412   8.375   5.523
17088TIP3   OH251148   7.635   7.835   5.257
17088TIP3    H151149   7.587   7.917   5.231
17088TIP3    H251150   7.565   7.767   5.243
17089TIP3   OH251151   7.762   8.338   5.471
17089TIP3    H151152   7.749   8.327   5.566
17089TIP3    H251153   7.672   8.315   5.439
17090TIP3   OH251154   7.999   8.284   5.325
17090TIP3    H151155   7.924   8.290   5.388
17090TIP3    H251156   8.073   8.256   5.383
17091TIP3   OH251157   8.229   8.226   5.475
17091TIP3    H151158   8.241   8.131   5.497
17091TIP3    H251159   8.223   8.268   5.564
17092TIP3   OH251160   7.218   8.177   5.664
17092TIP3    H151161   7.222   8.087   5.628
17092TIP3    H251162   7.252   8.164   5.755
17093TIP3   OH251163   7.724   7.841   5.516
17093TIP3    H151164   7.794   7.773   5.508
17093TIP3    H251165   7.687   7.838   5.425
17094TIP3   OH251166   7.795   8.058   5.673
17094TIP3    H151167   7.772   7.989   5.607
17094TIP3    H251168   7.720   8.121   5.666
17095TIP3   OH251169   7.016   9.290   3.772
17095TIP3    H151170   7.112   9.283   3.753
17095TIP3    H251171   6.987   9.338   3.693
17096TIP3   OH251172   6.496   8.671   3.986
17096TIP3    H151173   6.591   8.692   3.974
17096TIP3    H251174   6.491   8.581   3.947
17097TIP3   OH251175   6.409   9.282   4.404
17097TIP3    H151176   6.343   9.219   4.367
17097TIP3    H251177   6.455   9.225   4.470
17098TIP3   OH251178   6.545   9.134   4.591
17098TIP3    H151179   6.537   9.059   4.652
17098TIP3    H251180   6.598   9.195   4.646
17099TIP3   OH251181   8.235   9.536   4.386
17099TIP3    H151182   8.276   9.554   4.472
17099TIP3    H251183   8.296   9.586   4.330
17100TIP3   OH251184   8.311   9.549   4.667
17100TIP3    H151185   8.265   9.462   4.667
17100TIP3    H251186   8.389   9.525   4.722
17101TIP3   OH251187   8.351   9.236   5.245
17101TIP3    H151188   8.276   9.240   5.308
17101TIP3    H251189   8.384   9.326   5.243
17102TIP3   OH251190   8.165   8.744   3.864
17102TIP3    H151191   8.234   8.805   3.832
17102TIP3    H251192   8.209   8.705   3.943
17103TIP3   OH251193   8.294   8.610   4.067
17103TIP3    H151194   8.227   8.568   4.125
17103TIP3    H251195   8.356   8.650   4.131
17104TIP3   OH251196   8.347   9.003   4.499
17104TIP3    H151197   8.400   8.939   4.447
17104TIP3    H251198   8.339   9.077   4.436
17105TIP3   OH251199   8.177   9.304   4.692
17105TIP3    H151200   8.106   9.345   4.744
17105TIP3    H251201   8.127   9.255   4.624
17106TIP3   OH251202   8.231   8.518   3.715
17106TIP3    H151203   8.159   8.521   3.648
17106TIP3    H251204   8.205   8.595   3.770
17107TIP3   OH251205   8.104   8.197   3.666
17107TIP3    H151206   8.057   8.225   3.587
17107TIP3    H251207   8.079   8.102   3.668
17108TIP3   OH251208   8.108   8.467   4.214
17108TIP3    H151209   8.114   8.370   4.208
17108TIP3    H251210   8.093   8.481   4.310
17109TIP3   OH251211   6.743   8.538   4.951
17109TIP3    H151212   6.766   8.481   4.875
17109TIP3    H251213   6.833   8.551   4.987
17110TIP3   OH251214   8.396   8.890   5.068
17110TIP3    H151215   8.469   8.825   5.060
17110TIP3    H251216   8.425   8.962   5.008
17111TIP3   OH251217   8.583   8.698   5.087
17111TIP3    H151218   8.508   8.648   5.125
17111TIP3    H251219   8.655   8.633   5.101
17112TIP3   OH251220   8.041   7.936   3.676
17112TIP3    H151221   8.119   7.892   3.714
17112TIP3    H251222   7.973   7.866   3.675
17113TIP3   OH251223   8.104   8.183   4.109
17113TIP3    H151224   8.144   8.094   4.125
17113TIP3    H251225   8.162   8.215   4.039
17114TIP3   OH251226   8.266   8.355   4.604
17114TIP3    H151227   8.352   8.382   4.564
17114TIP3    H251228   8.278   8.393   4.693
17115TIP3   OH251229   8.334   8.501   4.835
17115TIP3    H151230   8.256   8.534   4.885
17115TIP3    H251231   8.366   8.583   4.791
17116TIP3   OH251232   6.951   8.229   5.641
17116TIP3    H151233   7.049   8.221   5.639
17116TIP3    H251234   6.927   8.142   5.677
17117TIP3   OH251235   8.784   8.088   5.389
17117TIP3    H151236   8.845   8.023   5.348
17117TIP3    H251237   8.758   8.143   5.312
17118TIP3   OH251238   8.214   7.933   4.146
17118TIP3    H151239   8.260   7.917   4.231
17118TIP3    H251240   8.152   7.857   4.144
17119TIP3   OH251241   6.911   7.931   4.969
17119TIP3    H151242   6.985   7.867   4.972
17119TIP3    H251243   6.951   8.010   4.928
17120TIP3   OH251244   6.720   8.196   5.021
17120TIP3    H151245   6.775   8.184   4.940
17120TIP3    H251246   6.767   8.273   5.056
17121TIP3   OH251247   8.657   8.232   5.197
17121TIP3    H151248   8.571   8.273   5.219
17121TIP3    H251249   8.626   8.160   5.139
17122TIP3   OH251250   8.297   7.859   3.776
17122TIP3    H151251   8.327   7.793   3.710
17122TIP3    H251252   8.362   7.931   3.765
17123TIP3   OH251253   6.695   7.680   4.527
17123TIP3    H151254   6.607   7.691   4.568
17123TIP3    H251255   6.695   7.750   4.458
17124TIP3   OH251256   7.856   9.403   4.046
17124TIP3    H151257   7.906   9.387   3.964
17124TIP3    H251258   7.915   9.463   4.094
17125TIP3   OH251259   6.919   7.774   5.353
17125TIP3    H151260   6.867   7.769   5.435
17125TIP3    H251261   6.854   7.816   5.293
17126TIP3   OH251262   6.958   9.210   5.434
17126TIP3    H151263   6.868   9.177   5.413
17126TIP3    H251264   6.969   9.181   5.525
17127TIP3   OH251265   7.136   9.238   4.980
17127TIP3    H151266   7.089   9.314   4.940
17127TIP3    H251267   7.222   9.249   4.936
17128TIP3   OH251268   7.582   9.481   5.119
17128TIP3    H151269   7.625   9.481   5.207
17128TIP3    H251270   7.648   9.531   5.066
17129TIP3   OH251271   7.760   9.633   4.976
17129TIP3    H151272   7.829   9.582   4.932
17129TIP3    H251273   7.812   9.691   5.035
17130TIP3   OH251274   8.556   7.995   5.075
17130TIP3    H151275   8.465   7.990   5.042
17130TIP3    H251276   8.586   7.902   5.064
17131TIP3   OH251277   6.813   9.496   5.000
17131TIP3    H151278   6.724   9.531   4.979
17131TIP3    H251279   6.822   9.524   5.091
17132TIP3   OH251280   7.051   9.473   4.860
17132TIP3    H151281   6.964   9.486   4.905
17132TIP3    H251282   7.031   9.505   4.770
17133TIP3   OH251283   7.476   9.502   4.657
17133TIP3    H151284   7.406   9.521   4.592
17133TIP3    H251285   7.488   9.589   4.700
17134TIP3   OH251286   7.744   9.441   4.712
17134TIP3    H151287   7.651   9.457   4.691
17134TIP3    H251288   7.788   9.515   4.666
17135TIP3   OH251289   7.949   9.633   4.623
17135TIP3    H151290   7.941   9.718   4.575
17135TIP3    H251291   7.970   9.570   4.551
17136TIP3   OH251292   6.724   9.286   4.749
17136TIP3    H151293   6.752   9.260   4.840
17136TIP3    H251294   6.796   9.243   4.698
17137TIP3   OH251295   6.918   9.158   4.606
17137TIP3    H151296   6.934   9.073   4.653
17137TIP3    H251297   7.010   9.194   4.601
17138TIP3   OH251298   7.186   9.252   4.607
17138TIP3    H151299   7.216   9.160   4.596
17138TIP3    H251300   7.230   9.274   4.691
17139TIP3   OH251301   7.770   7.912   4.704
17139TIP3    H151302   7.718   7.845   4.751
17139TIP3    H251303   7.832   7.858   4.652
17140TIP3   OH251304   8.286   7.787   4.599
17140TIP3    H151305   8.321   7.842   4.526
17140TIP3    H251306   8.190   7.806   4.594
17141TIP3   OH251307   8.379   7.890   4.363
17141TIP3    H151308   8.453   7.840   4.323
17141TIP3    H251309   8.411   7.982   4.349
17142TIP3   OH251310   7.009   7.617   4.711
17142TIP3    H151311   6.916   7.586   4.714
17142TIP3    H251312   7.057   7.532   4.706
17143TIP3   OH251313   6.794   7.486   4.356
17143TIP3    H151314   6.823   7.548   4.287
17143TIP3    H251315   6.763   7.549   4.425
17144TIP3   OH251316   7.460   7.642   4.591
17144TIP3    H151317   7.513   7.699   4.534
17144TIP3    H251318   7.452   7.696   4.671
17145TIP3   OH251319   8.006   7.796   4.573
17145TIP3    H151320   7.993   7.761   4.484
17145TIP3    H251321   7.988   7.717   4.629
17146TIP3   OH251322   8.029   7.721   4.138
17146TIP3    H151323   7.944   7.765   4.151
17146TIP3    H251324   8.013   7.636   4.183
17147TIP3   OH251325   6.513   9.058   4.137
17147TIP3    H151326   6.428   9.025   4.103
17147TIP3    H251327   6.501   9.153   4.121
17148TIP3   OH251328   6.913   7.649   4.120
17148TIP3    H151329   6.963   7.587   4.064
17148TIP3    H251330   6.984   7.704   4.159
17149TIP3   OH251331   7.428   7.821   4.220
17149TIP3    H151332   7.487   7.778   4.284
17149TIP3    H251333   7.444   7.915   4.245
17150TIP3   OH251334   7.284   9.248   3.719
17150TIP3    H151335   7.373   9.269   3.684
17150TIP3    H251336   7.262   9.172   3.660
17151TIP3   OH251337   7.993   9.360   3.813
17151TIP3    H151338   7.987   9.263   3.799
17151TIP3    H251339   7.954   9.393   3.730
17152TIP3   OH251340   7.217   7.900   5.600
17152TIP3    H151341   7.178   7.833   5.658
17152TIP3    H251342   7.311   7.898   5.629
17153TIP3   OH251343   7.472   7.886   5.720
17153TIP3    H151344   7.549   7.897   5.662
17153TIP3    H251345   7.498   7.806   5.767
17154TIP3   OH251346   6.590   9.087   3.778
17154TIP3    H151347   6.589   9.106   3.872
17154TIP3    H251348   6.677   9.044   3.765
17155TIP3   OH251349   8.291   7.955   5.509
17155TIP3    H151350   8.310   7.926   5.600
17155TIP3    H251351   8.380   7.953   5.468
17156TIP3   OH251352   8.223   9.506   5.012
17156TIP3    H151353   8.149   9.475   4.955
17156TIP3    H251354   8.210   9.602   5.004
17157TIP3   OH251355   8.800   8.770   4.507
17157TIP3    H151356   8.825   8.705   4.576
17157TIP3    H251357   8.855   8.845   4.532
17158TIP3   OH251358   8.756   9.157   4.214
17158TIP3    H151359   8.770   9.061   4.231
17158TIP3    H251360   8.827   9.199   4.264
17159TIP3   OH251361   8.475   8.392   4.023
17159TIP3    H151362   8.424   8.474   4.038
17159TIP3    H251363   8.404   8.336   3.986
17160TIP3   OH251364   8.534   8.680   4.197
17160TIP3    H151365   8.581   8.601   4.230
17160TIP3    H251366   8.589   8.707   4.122
17161TIP3   OH251367   9.039   8.270   4.197
17161TIP3    H151368   9.022   8.341   4.132
17161TIP3    H251369   8.994   8.195   4.151
17162TIP3   OH251370   8.679   8.473   4.299
17162TIP3    H151371   8.760   8.449   4.349
17162TIP3    H251372   8.690   8.415   4.221
17163TIP3   OH251373   9.114   8.681   4.092
17163TIP3    H151374   9.209   8.661   4.084
17163TIP3    H251375   9.074   8.596   4.063
17164TIP3   OH251376   9.038   8.251   4.628
17164TIP3    H151377   8.977   8.287   4.562
17164TIP3    H251378   8.987   8.268   4.710
17165TIP3   OH251379   8.911   8.368   4.414
17165TIP3    H151380   8.975   8.439   4.437
17165TIP3    H251381   8.958   8.326   4.339
17166TIP3   OH251382   8.369   8.903   3.753
17166TIP3    H151383   8.346   8.939   3.666
17166TIP3    H251384   8.390   8.985   3.803
17167TIP3   OH251385   9.391   7.960   4.351
17167TIP3    H151386   9.377   7.865   4.372
17167TIP3    H251387   9.313   7.999   4.396
17168TIP3   OH251388   8.876   8.787   4.000
17168TIP3    H151389   8.850   8.752   3.913
17168TIP3    H251390   8.969   8.758   4.006
17169TIP3   OH251391   9.060   8.800   4.337
17169TIP3    H151392   9.054   8.760   4.247
17169TIP3    H251393   9.027   8.889   4.321
17170TIP3   OH251394   8.932   8.897   4.757
17170TIP3    H151395   8.938   8.982   4.805
17170TIP3    H251396   8.838   8.875   4.777
17171TIP3   OH251397   8.783   8.657   3.774
17171TIP3    H151398   8.712   8.702   3.723
17171TIP3    H251399   8.733   8.583   3.811
17172TIP3   OH251400   8.546   9.035   4.699
17172TIP3    H151401   8.479   9.014   4.631
17172TIP3    H251402   8.582   8.947   4.722
17173TIP3   OH251403   8.412   9.234   4.331
17173TIP3    H151404   8.505   9.223   4.310
17173TIP3    H251405   8.413   9.306   4.396
17174TIP3   OH251406   8.751   9.212   4.684
17174TIP3    H151407   8.787   9.205   4.775
17174TIP3    H251408   8.683   9.142   4.685
17175TIP3   OH251409   9.157   8.046   4.472
17175TIP3    H151410   9.066   8.017   4.447
17175TIP3    H251411   9.134   8.129   4.518
17176TIP3   OH251412   9.695   8.149   4.657
17176TIP3    H151413   9.761   8.144   4.728
17176TIP3    H251414   9.611   8.147   4.706
17177TIP3   OH251415   9.290   8.079   3.437
17177TIP3    H151416   9.260   8.091   3.529
17177TIP3    H251417   9.235   8.002   3.411
17178TIP3   OH251418   9.084   8.570   4.488
17178TIP3    H151419   9.032   8.581   4.570
17178TIP3    H251420   9.064   8.653   4.440
17179TIP3   OH251421   8.974   8.452   4.004
17179TIP3    H151422   8.882   8.424   4.022
17179TIP3    H251423   8.988   8.414   3.915
17180TIP3   OH251424   8.909   8.590   4.700
17180TIP3    H151425   8.931   8.652   4.771
17180TIP3    H251426   8.898   8.507   4.750
17181TIP3   OH251427   8.501   8.115   4.278
17181TIP3    H151428   8.578   8.144   4.331
17181TIP3    H251429   8.541   8.080   4.197
17182TIP3   OH251430   8.475   8.098   3.793
17182TIP3    H151431   8.531   8.137   3.723
17182TIP3    H251432   8.414   8.171   3.813
17183TIP3   OH251433   9.283   8.283   4.065
17183TIP3    H151434   9.208   8.275   4.127
17183TIP3    H251435   9.358   8.256   4.122
17184TIP3   OH251436   8.736   8.328   4.071
17184TIP3    H151437   8.641   8.336   4.046
17184TIP3    H251438   8.757   8.235   4.051
17185TIP3   OH251439   9.012   8.328   3.750
17185TIP3    H151440   9.109   8.331   3.762
17185TIP3    H251441   9.000   8.401   3.688
17186TIP3   OH251442   8.917   9.130   4.906
17186TIP3    H151443   8.978   9.202   4.925
17186TIP3    H251444   8.853   9.140   4.980
17187TIP3   OH251445   8.908   8.086   4.042
17187TIP3    H151446   8.871   8.008   4.090
17187TIP3    H251447   8.956   8.043   3.969
17188TIP3   OH251448   9.356   8.474   4.470
17188TIP3    H151449   9.271   8.522   4.460
17188TIP3    H251450   9.421   8.545   4.475
17189TIP3   OH251451   8.805   8.891   4.238
17189TIP3    H151452   8.819   8.854   4.149
17189TIP3    H251453   8.807   8.814   4.296
17190TIP3   OH251454   8.673   8.824   4.833
17190TIP3    H151455   8.693   8.811   4.927
17190TIP3    H251456   8.600   8.761   4.819
17191TIP3   OH251457   8.449   8.515   3.545
17191TIP3    H151458   8.497   8.598   3.565
17191TIP3    H251459   8.373   8.523   3.607
17192TIP3   OH251460   8.880   8.335   4.843
17192TIP3    H151461   8.784   8.340   4.858
17192TIP3    H251462   8.909   8.277   4.915
17193TIP3   OH251463   8.593   9.407   4.549
17193TIP3    H151464   8.616   9.324   4.594
17193TIP3    H251465   8.652   9.467   4.599
17194TIP3   OH251466   8.570   8.755   3.636
17194TIP3    H151467   8.504   8.806   3.688
17194TIP3    H251468   8.591   8.818   3.565
17195TIP3   OH251469   9.283   8.323   3.799
17195TIP3    H151470   9.366   8.372   3.786
17195TIP3    H251471   9.281   8.319   3.898
17196TIP3   OH251472   9.425   8.065   3.903
17196TIP3    H151473   9.409   8.125   3.979
17196TIP3    H251474   9.493   8.118   3.857
17197TIP3   OH251475   8.941   8.058   3.684
17197TIP3    H151476   8.950   8.150   3.715
17197TIP3    H251477   9.035   8.031   3.682
17198TIP3   OH251478   8.526   8.252   3.546
17198TIP3    H151479   8.509   8.348   3.554
17198TIP3    H251480   8.438   8.215   3.536
17199TIP3   OH251481   8.893   7.967   4.446
17199TIP3    H151482   8.862   7.933   4.360
17199TIP3    H251483   8.883   7.889   4.504
17200TIP3   OH251484   8.403   9.158   3.844
17200TIP3    H151485   8.338   9.218   3.882
17200TIP3    H251486   8.414   9.195   3.755
17201TIP3   OH251487   8.720   9.117   5.094
17201TIP3    H151488   8.727   9.021   5.084
17201TIP3    H251489   8.632   9.136   5.056
17202TIP3   OH251490   8.839   8.854   5.077
17202TIP3    H151491   8.924   8.811   5.064
17202TIP3    H251492   8.843   8.883   5.169
17203TIP3   OH251493   8.859   8.618   3.479
17203TIP3    H151494   8.852   8.651   3.570
17203TIP3    H251495   8.949   8.580   3.475
17204TIP3   OH251496   9.167   8.747   4.736
17204TIP3    H151497   9.094   8.809   4.757
17204TIP3    H251498   9.178   8.760   4.641
17205TIP3   OH251499   9.288   8.536   4.872
17205TIP3    H151500   9.295   8.457   4.814
17205TIP3    H251501   9.255   8.605   4.811
17206TIP3   OH251502   9.295   8.321   4.686
17206TIP3    H151503   9.325   8.366   4.604
17206TIP3    H251504   9.202   8.300   4.664
17207TIP3   OH251505   9.165   8.655   5.090
17207TIP3    H151506   9.100   8.583   5.107
17207TIP3    H251507   9.205   8.625   5.006
17208TIP3   OH251508   9.430   8.087   4.738
17208TIP3    H151509   9.381   8.171   4.722
17208TIP3    H251510   9.359   8.021   4.730
17209TIP3   OH251511   9.548   8.610   4.949
17209TIP3    H151512   9.540   8.602   5.045
17209TIP3    H251513   9.459   8.583   4.920
17210TIP3   OH251514   9.013   8.431   5.147
17210TIP3    H151515   9.020   8.340   5.112
17210TIP3    H251516   9.047   8.418   5.237
17211TIP3   OH251517   9.525   8.094   4.993
17211TIP3    H151518   9.595   8.025   4.989
17211TIP3    H251519   9.488   8.088   4.903
17212TIP3   OH251520   9.559   8.298   5.170
17212TIP3    H151521   9.553   8.236   5.094
17212TIP3    H251522   9.524   8.381   5.134
17213TIP3   OH251523   8.188   9.536   3.893
17213TIP3    H151524   8.130   9.465   3.857
17213TIP3    H251525   8.249   9.484   3.949
17214TIP3   OH251526   8.335   9.384   4.070
17214TIP3    H151527   8.336   9.313   4.137
17214TIP3    H251528   8.376   9.456   4.118
17215TIP3   OH251529   8.531   8.795   4.448
17215TIP3    H151530   8.525   8.765   4.355
17215TIP3    H251531   8.628   8.795   4.462
17216TIP3   OH251532   8.747   8.485   5.124
17216TIP3    H151533   8.845   8.478   5.125
17216TIP3    H251534   8.723   8.399   5.164
17217TIP3   OH251535   8.709   8.175   4.450
17217TIP3    H151536   8.771   8.100   4.462
17217TIP3    H251537   8.771   8.250   4.447
17218TIP3   OH251538   8.512   8.449   4.526
17218TIP3    H151539   8.561   8.445   4.442
17218TIP3    H251540   8.538   8.536   4.559
17219TIP3   OH251541   8.495   7.959   4.027
17219TIP3    H151542   8.401   7.951   4.052
17219TIP3    H251543   8.489   8.014   3.946
17220TIP3   OH251544   8.715   8.032   4.841
17220TIP3    H151545   8.665   8.028   4.924
17220TIP3    H251546   8.648   8.072   4.781
17221TIP3   OH251547   8.745   9.410   4.930
17221TIP3    H151548   8.655   9.434   4.902
17221TIP3    H251549   8.749   9.446   5.019
17222TIP3   OH251550   9.492   8.157   4.174
17222TIP3    H151551   9.478   8.089   4.243
17222TIP3    H251552   9.587   8.151   4.156
17223TIP3   OH251553   8.806   7.875   4.197
17223TIP3    H151554   8.713   7.842   4.198
17223TIP3    H251555   8.854   7.790   4.193
17224TIP3   OH251556   8.599   7.744   3.850
17224TIP3    H151557   8.622   7.801   3.774
17224TIP3    H251558   8.564   7.808   3.914
17225TIP3   OH251559   9.248   7.906   4.080
17225TIP3    H151560   9.307   7.957   4.024
17225TIP3    H251561   9.268   7.941   4.168
17226TIP3   OH251562   9.871   7.945   4.013
17226TIP3    H151563   9.813   8.015   3.980
17226TIP3    H251564   9.816   7.909   4.087
17227TIP3   OH251565   8.273   9.311   3.646
17227TIP3    H151566   8.210   9.252   3.603
17227TIP3    H251567   8.250   9.395   3.602
17228TIP3   OH251568   8.711   7.911   3.612
17228TIP3    H151569   8.754   7.843   3.557
17228TIP3    H251570   8.789   7.959   3.648
17229TIP3   OH251571   9.222   8.077   3.704
17229TIP3    H151572   9.278   8.030   3.768
17229TIP3    H251573   9.240   8.169   3.732
17230TIP3   OH251574   9.014   8.155   5.088
17230TIP3    H151575   8.980   8.085   5.146
17230TIP3    H251576   9.108   8.155   5.116
17231TIP3   OH251577   9.262   8.156   5.211
17231TIP3    H151578   9.350   8.138   5.174
17231TIP3    H251579   9.253   8.083   5.275
17232TIP3   OH251580   0.985   8.983   6.402
17232TIP3    H151581   0.960   9.076   6.403
17232TIP3    H251582   0.996   8.970   6.306
17233TIP3   OH251583   1.243   8.877   7.088
17233TIP3    H151584   1.300   8.812   7.042
17233TIP3    H251585   1.207   8.928   7.013
17234TIP3   OH251586   1.109   9.017   6.891
17234TIP3    H151587   1.021   9.050   6.911
17234TIP3    H251588   1.088   8.940   6.834
17235TIP3   OH251589   0.738   8.666   5.471
17235TIP3    H151590   0.778   8.589   5.426
17235TIP3    H251591   0.809   8.732   5.465
17236TIP3   OH251592   1.009   8.789   6.759
17236TIP3    H151593   0.920   8.769   6.728
17236TIP3    H251594   1.047   8.698   6.761
17237TIP3   OH251595   0.824   8.670   6.032
17237TIP3    H151596   0.907   8.627   6.004
17237TIP3    H251597   0.850   8.764   6.031
17238TIP3   OH251598   0.906   9.177   5.708
17238TIP3    H151599   0.900   9.267   5.742
17238TIP3    H251600   0.855   9.127   5.772
17239TIP3   OH251601   2.774   9.223   5.881
17239TIP3    H151602   2.768   9.319   5.876
17239TIP3    H251603   2.792   9.202   5.788
17240TIP3   OH251604   2.168   9.395   5.920
17240TIP3    H151605   2.201   9.305   5.936
17240TIP3    H251606   2.124   9.386   5.834
17241TIP3   OH251607   1.497   9.056   5.884
17241TIP3    H151608   1.480   9.131   5.823
17241TIP3    H251609   1.448   8.984   5.837
17242TIP3   OH251610   2.191   9.148   5.511
17242TIP3    H151611   2.265   9.132   5.573
17242TIP3    H251612   2.239   9.186   5.436
17243TIP3   OH251613   1.115   9.237   5.997
17243TIP3    H151614   1.199   9.238   6.044
17243TIP3    H251615   1.143   9.203   5.910
17244TIP3   OH251616   1.579   9.456   5.779
17244TIP3    H151617   1.666   9.418   5.802
17244TIP3    H251618   1.531   9.379   5.745
17245TIP3   OH251619   1.493   9.039   6.318
17245TIP3    H151620   1.433   9.074   6.249
17245TIP3    H251621   1.440   9.059   6.399
17246TIP3   OH251622   2.405   9.144   5.680
17246TIP3    H151623   2.382   9.102   5.765
17246TIP3    H251624   2.451   9.224   5.708
17247TIP3   OH251625   1.360   9.147   6.103
17247TIP3    H151626   1.416   9.225   6.120
17247TIP3    H251627   1.410   9.108   6.028
17248TIP3   OH251628   2.548   9.105   6.043
17248TIP3    H151629   2.460   9.138   6.020
17248TIP3    H251630   2.605   9.148   5.977
17249TIP3   OH251631   1.851   8.759   6.034
17249TIP3    H151632   1.834   8.665   6.050
17249TIP3    H251633   1.774   8.799   6.079
17250TIP3   OH251634   1.737   9.280   5.031
17250TIP3    H151635   1.791   9.343   5.081
17250TIP3    H251636   1.803   9.244   4.970
17251TIP3   OH251637   2.405   9.640   6.117
17251TIP3    H151638   2.397   9.734   6.140
17251TIP3    H251639   2.317   9.628   6.076
17252TIP3   OH251640   2.484   8.703   5.135
17252TIP3    H151641   2.401   8.723   5.184
17252TIP3    H251642   2.496   8.786   5.084
17253TIP3   OH251643   1.612   8.834   6.162
17253TIP3    H151644   1.521   8.807   6.135
17253TIP3    H251645   1.590   8.919   6.205
17254TIP3   OH251646   2.143   8.950   6.354
17254TIP3    H151647   2.211   8.925   6.420
17254TIP3    H251648   2.059   8.931   6.400
17255TIP3   OH251649   2.418   9.388   6.273
17255TIP3    H151650   2.373   9.368   6.358
17255TIP3    H251651   2.362   9.458   6.238
17256TIP3   OH251652   1.753   8.883   5.138
17256TIP3    H151653   1.719   8.875   5.228
17256TIP3    H251654   1.719   8.800   5.098
17257TIP3   OH251655   1.527   9.353   6.153
17257TIP3    H151656   1.495   9.371   6.243
17257TIP3    H251657   1.526   9.441   6.112
17258TIP3   OH251658   1.428   9.235   5.693
17258TIP3    H151659   1.334   9.210   5.708
17258TIP3    H251660   1.442   9.198   5.603
17259TIP3   OH251661   1.925   9.322   5.422
17259TIP3    H151662   1.846   9.373   5.395
17259TIP3    H251663   1.970   9.306   5.337
17260TIP3   OH251664   2.093   9.595   6.505
17260TIP3    H151665   2.078   9.519   6.565
17260TIP3    H251666   2.188   9.613   6.522
17261TIP3   OH251667   2.049   9.343   5.669
17261TIP3    H151668   1.996   9.354   5.587
17261TIP3    H251669   2.105   9.269   5.638
17262TIP3   OH251670   1.364   9.375   6.404
17262TIP3    H151671   1.356   9.419   6.488
17262TIP3    H251672   1.344   9.283   6.429
17263TIP3   OH251673   1.408   8.854   5.102
17263TIP3    H151674   1.403   8.855   5.199
17263TIP3    H251675   1.333   8.910   5.078
17264TIP3   OH251676   0.958   8.904   5.951
17264TIP3    H151677   1.018   8.939   6.021
17264TIP3    H251678   1.021   8.858   5.894
17265TIP3   OH251679   0.925   8.898   5.499
17265TIP3    H151680   0.963   8.916   5.410
17265TIP3    H251681   0.898   8.988   5.520
17266TIP3   OH251682   2.126   9.597   6.151
17266TIP3    H151683   2.129   9.596   6.053
17266TIP3    H251684   2.064   9.524   6.169
17267TIP3   OH251685   1.754   9.048   5.755
17267TIP3    H151686   1.671   9.052   5.806
17267TIP3    H251687   1.817   9.083   5.820
17268TIP3   OH251688   1.185   9.119   5.753
17268TIP3    H151689   1.092   9.112   5.722
17268TIP3    H251690   1.219   9.028   5.739
17269TIP3   OH251691   1.459   9.111   5.450
17269TIP3    H151692   1.552   9.131   5.428
17269TIP3    H251693   1.410   9.136   5.369
17270TIP3   OH251694   2.247   9.129   5.957
17270TIP3    H151695   2.214   9.145   6.048
17270TIP3    H251696   2.177   9.068   5.924
17271TIP3   OH251697   1.290   9.130   5.228
17271TIP3    H151698   1.232   9.095   5.158
17271TIP3    H251699   1.340   9.197   5.177
17272TIP3   OH251700   1.827   9.356   5.844
17272TIP3    H151701   1.911   9.354   5.793
17272TIP3    H251702   1.857   9.351   5.935
17273TIP3   OH251703   1.354   8.879   5.730
17273TIP3    H151704   1.326   8.797   5.775
17273TIP3    H251705   1.406   8.846   5.655
17274TIP3   OH251706   1.807   9.270   6.153
17274TIP3    H151707   1.723   9.317   6.142
17274TIP3    H251708   1.863   9.335   6.201
17275TIP3   OH251709   2.007   8.990   5.114
17275TIP3    H151710   1.911   8.969   5.102
17275TIP3    H251711   2.007   9.088   5.117
17276TIP3   OH251712   2.074   9.258   5.189
17276TIP3    H151713   2.165   9.240   5.220
17276TIP3    H251714   2.089   9.332   5.128
17277TIP3   OH251715   1.833   9.601   6.605
17277TIP3    H151716   1.778   9.678   6.582
17277TIP3    H251717   1.897   9.596   6.533
17278TIP3   OH251718   2.517   9.313   5.045
17278TIP3    H151719   2.453   9.276   4.979
17278TIP3    H251720   2.526   9.402   5.009
17279TIP3   OH251721   1.340   9.117   6.540
17279TIP3    H151722   1.256   9.141   6.581
17279TIP3    H251723   1.376   9.055   6.606
17280TIP3   OH251724   2.175   9.189   6.220
17280TIP3    H151725   2.252   9.219   6.270
17280TIP3    H251726   2.151   9.106   6.267
17281TIP3   OH251727   2.052   8.935   5.383
17281TIP3    H151728   2.033   8.957   5.289
17281TIP3    H251729   2.089   9.019   5.416
17282TIP3   OH251730   1.745   9.117   5.485
17282TIP3    H151731   1.814   9.184   5.469
17282TIP3    H251732   1.747   9.110   5.582
17283TIP3   OH251733   1.988   9.415   6.302
17283TIP3    H151734   2.026   9.474   6.369
17283TIP3    H251735   2.052   9.342   6.299
17284TIP3   OH251736   1.885   8.844   5.588
17284TIP3    H151737   1.868   8.923   5.643
17284TIP3    H251738   1.946   8.881   5.520
17285TIP3   OH251739   1.395   8.843   5.378
17285TIP3    H151740   1.394   8.937   5.408
17285TIP3    H251741   1.491   8.825   5.386
17286TIP3   OH251742   2.307   9.492   5.640
17286TIP3    H151743   2.217   9.491   5.678
17286TIP3    H251744   2.347   9.566   5.687
17287TIP3   OH251745   0.942   9.039   5.268
17287TIP3    H151746   0.977   9.125   5.245
17287TIP3    H251747   0.886   9.015   5.194
17288TIP3   OH251748   1.347   8.758   6.132
17288TIP3    H151749   1.316   8.727   6.045
17288TIP3    H251750   1.344   8.676   6.186
17289TIP3   OH251751   1.309   9.647   6.767
17289TIP3    H151752   1.342   9.557   6.767
17289TIP3    H251753   1.298   9.665   6.861
17290TIP3   OH251754   1.644   9.475   6.380
17290TIP3    H151755   1.561   9.519   6.406
17290TIP3    H251756   1.659   9.505   6.290
17291TIP3   OH251757   1.464   9.265   5.068
17291TIP3    H151758   1.438   9.206   4.995
17291TIP3    H251759   1.562   9.254   5.071
17292TIP3   OH251760   1.751   9.308   6.567
17292TIP3    H151761   1.758   9.227   6.514
17292TIP3    H251762   1.718   9.371   6.500
17293TIP3   OH251763   1.753   9.106   6.369
17293TIP3    H151764   1.780   9.157   6.289
17293TIP3    H251765   1.658   9.089   6.350
17294TIP3   OH251766   2.364   9.623   6.618
17294TIP3    H151767   2.388   9.533   6.642
17294TIP3    H251768   2.450   9.666   6.612
17295TIP3   OH251769   1.609   9.446   6.776
17295TIP3    H151770   1.559   9.364   6.791
17295TIP3    H251771   1.664   9.422   6.699
17296TIP3   OH251772   1.886   8.875   6.432
17296TIP3    H151773   1.837   8.958   6.410
17296TIP3    H251774   1.815   8.808   6.420
17297TIP3   OH251775   2.020   9.372   6.646
17297TIP3    H151776   2.009   9.367   6.743
17297TIP3    H251777   1.926   9.356   6.621
17298TIP3   OH251778   2.258   9.325   6.497
17298TIP3    H151779   2.179   9.325   6.555
17298TIP3    H251780   2.329   9.296   6.558
17299TIP3   OH251781   2.489   9.273   6.654
17299TIP3    H151782   2.496   9.178   6.675
17299TIP3    H251783   2.477   9.314   6.743
17300TIP3   OH251784   1.468   9.220   6.847
17300TIP3    H151785   1.474   9.131   6.807
17300TIP3    H251786   1.507   9.203   6.935
17301TIP3   OH251787   1.978   8.886   6.690
17301TIP3    H151788   2.045   8.816   6.683
17301TIP3    H251789   1.938   8.882   6.601
17302TIP3   OH251790   2.044   9.103   6.849
17302TIP3    H151791   2.022   9.032   6.784
17302TIP3    H251792   1.967   9.163   6.841
17303TIP3   OH251793   2.346   9.246   4.839
17303TIP3    H151794   2.324   9.259   4.747
17303TIP3    H251795   2.328   9.149   4.847
17304TIP3   OH251796   2.393   9.486   5.376
17304TIP3    H151797   2.383   9.390   5.382
17304TIP3    H251798   2.371   9.511   5.468
17305TIP3   OH251799   2.806   9.747   6.316
17305TIP3    H151800   2.768   9.660   6.328
17305TIP3    H251801   2.894   9.723   6.283
17306TIP3   OH251802   2.303   8.981   4.831
17306TIP3    H151803   2.373   8.942   4.887
17306TIP3    H251804   2.226   8.924   4.851
17307TIP3   OH251805   2.343   9.216   5.283
17307TIP3    H151806   2.385   9.128   5.296
17307TIP3    H251807   2.403   9.254   5.217
17308TIP3   OH251808   2.540   9.411   5.838
17308TIP3    H151809   2.609   9.429   5.769
17308TIP3    H251810   2.467   9.462   5.804
17309TIP3   OH251811   1.205   9.267   6.793
17309TIP3    H151812   1.300   9.268   6.814
17309TIP3    H251813   1.175   9.188   6.842
17310TIP3   OH251814   3.029   9.135   6.563
17310TIP3    H151815   3.092   9.068   6.527
17310TIP3    H251816   3.014   9.192   6.486
17311TIP3   OH251817   2.465   8.974   5.322
17311TIP3    H151818   2.509   8.960   5.408
17311TIP3    H251819   2.402   8.899   5.321
17312TIP3   OH251820   1.153   8.955   6.140
17312TIP3    H151821   1.222   8.888   6.150
17312TIP3    H251822   1.208   9.036   6.134
17313TIP3   OH251823   0.983   9.237   6.244
17313TIP3    H151824   1.019   9.227   6.153
17313TIP3    H251825   0.966   9.332   6.245
17314TIP3   OH251826   2.901   9.283   6.368
17314TIP3    H151827   2.829   9.310   6.428
17314TIP3    H251828   2.863   9.206   6.321
17315TIP3   OH251829   2.547   8.911   4.958
17315TIP3    H151830   2.582   8.840   4.902
17315TIP3    H251831   2.614   8.981   4.948
17316TIP3   OH251832   0.953   8.728   5.704
17316TIP3    H151833   0.877   8.757   5.755
17316TIP3    H251834   0.954   8.794   5.631
17317TIP3   OH251835   1.171   8.826   6.533
17317TIP3    H151836   1.118   8.827   6.615
17317TIP3    H251837   1.115   8.884   6.476
17318TIP3   OH251838   2.801   9.041   6.257
17318TIP3    H151839   2.712   9.036   6.217
17318TIP3    H251840   2.833   8.949   6.243
17319TIP3   OH251841   2.022   8.957   5.882
17319TIP3    H151842   1.966   8.891   5.925
17319TIP3    H251843   2.081   8.903   5.827
17320TIP3   OH251844   2.534   8.834   5.779
17320TIP3    H151845   2.569   8.887   5.704
17320TIP3    H251846   2.439   8.852   5.773
17321TIP3   OH251847   2.629   8.933   5.542
17321TIP3    H151848   2.702   8.883   5.500
17321TIP3    H251849   2.659   9.025   5.526
17322TIP3   OH251850   1.257   8.662   5.886
17322TIP3    H151851   1.166   8.625   5.888
17322TIP3    H251852   1.309   8.579   5.885
17323TIP3   OH251853   1.045   8.527   5.535
17323TIP3    H151854   1.077   8.583   5.462
17323TIP3    H251855   1.018   8.594   5.601
17324TIP3   OH251856   1.701   8.694   5.770
17324TIP3    H151857   1.757   8.744   5.708
17324TIP3    H251858   1.722   8.737   5.854
17325TIP3   OH251859   2.255   8.841   5.749
17325TIP3    H151860   2.242   8.808   5.660
17325TIP3    H251861   2.237   8.760   5.804
17326TIP3   OH251862   2.279   8.765   5.315
17326TIP3    H151863   2.192   8.808   5.323
17326TIP3    H251864   2.262   8.680   5.361
17327TIP3   OH251865   1.162   8.690   5.303
17327TIP3    H151866   1.210   8.629   5.244
17327TIP3    H251867   1.236   8.745   5.337
17328TIP3   OH251868   1.671   8.867   5.403
17328TIP3    H151869   1.736   8.822   5.460
17328TIP3    H251870   1.693   8.960   5.424
17329TIP3   OH251871   1.464   8.941   6.775
17329TIP3    H151872   1.430   8.874   6.836
17329TIP3    H251873   1.558   8.944   6.803
17330TIP3   OH251874   1.711   8.939   6.896
17330TIP3    H151875   1.799   8.923   6.858
17330TIP3    H251876   1.705   8.867   6.962
17331TIP3   OH251877   2.539   9.000   6.686
17331TIP3    H151878   2.557   8.971   6.778
17331TIP3    H251879   2.628   8.997   6.646
17332TIP3   OH251880   2.722   9.447   5.203
17332TIP3    H151881   2.678   9.519   5.251
17332TIP3    H251882   2.647   9.389   5.182
17333TIP3   OH251883   4.558   9.474   5.376
17333TIP3    H151884   4.580   9.554   5.428
17333TIP3    H251885   4.568   9.508   5.285
17334TIP3   OH251886   3.940   9.661   5.400
17334TIP3    H151887   3.988   9.581   5.429
17334TIP3    H251888   3.914   9.633   5.310
17335TIP3   OH251889   3.319   9.298   5.366
17335TIP3    H151890   3.293   9.378   5.314
17335TIP3    H251891   3.258   9.233   5.324
17336TIP3   OH251892   3.987   9.398   4.998
17336TIP3    H151893   4.061   9.386   5.062
17336TIP3    H251894   4.036   9.434   4.922
17337TIP3   OH251895   2.910   9.489   5.494
17337TIP3    H151896   3.000   9.492   5.530
17337TIP3    H251897   2.927   9.464   5.402
17338TIP3   OH251898   3.389   9.710   5.245
17338TIP3    H151899   3.467   9.666   5.283
17338TIP3    H251900   3.329   9.636   5.225
17339TIP3   OH251901   4.620   9.678   5.547
17339TIP3    H151902   4.544   9.728   5.511
17339TIP3    H251903   4.593   9.684   5.641
17340TIP3   OH251904   3.289   9.295   5.803
17340TIP3    H151905   3.228   9.332   5.736
17340TIP3    H251906   3.238   9.312   5.885
17341TIP3   OH251907   4.200   9.410   5.167
17341TIP3    H151908   4.195   9.368   5.254
17341TIP3    H251909   4.246   9.493   5.189
17342TIP3   OH251910   3.160   9.400   5.585
17342TIP3    H151911   3.210   9.483   5.604
17342TIP3    H251912   3.214   9.364   5.513
17343TIP3   OH251913   4.348   9.356   5.522
17343TIP3    H151914   4.282   9.426   5.526
17343TIP3    H251915   4.417   9.398   5.465
17344TIP3   OH251916   3.624   9.030   5.505
17344TIP3    H151917   3.642   8.935   5.518
17344TIP3    H251918   3.552   9.041   5.572
17345TIP3   OH251919   3.542   9.526   4.526
17345TIP3    H151920   3.585   9.605   4.560
17345TIP3    H251921   3.602   9.498   4.455
17346TIP3   OH251922   4.162   9.937   5.626
17346TIP3    H151923   4.137   9.994   5.701
17346TIP3    H251924   4.073   9.903   5.604
17347TIP3   OH251925   4.279   8.961   4.620
17347TIP3    H151926   4.198   8.980   4.671
17347TIP3    H251927   4.292   9.045   4.572
17348TIP3   OH251928   3.403   9.100   5.644
17348TIP3    H151929   3.314   9.066   5.623
17348TIP3    H251930   3.377   9.176   5.701
17349TIP3   OH251931   3.940   9.201   5.841
17349TIP3    H151932   4.012   9.183   5.905
17349TIP3    H251933   3.859   9.186   5.893
17350TIP3   OH251934   3.556   9.139   4.617
17350TIP3    H151935   3.515   9.142   4.705
17350TIP3    H251936   3.516   9.057   4.582
17351TIP3   OH251937   3.325   9.610   5.631
17351TIP3    H151938   3.318   9.630   5.727
17351TIP3    H251939   3.322   9.700   5.594
17352TIP3   OH251940   3.230   9.484   5.186
17352TIP3    H151941   3.135   9.465   5.202
17352TIP3    H251942   3.237   9.455   5.092
17353TIP3   OH251943   3.720   9.572   4.904
17353TIP3    H151944   3.643   9.630   4.884
17353TIP3    H251945   3.765   9.565   4.818
17354TIP3   OH251946   3.879   9.851   5.990
17354TIP3    H151947   3.893   9.780   6.055
17354TIP3    H251948   3.967   9.890   5.981
17355TIP3   OH251949   3.855   9.596   5.147
17355TIP3    H151950   3.800   9.612   5.068
17355TIP3    H251951   3.906   9.519   5.112
17356TIP3   OH251952   3.123   9.623   5.898
17356TIP3    H151953   3.177   9.680   5.952
17356TIP3    H251954   3.140   9.535   5.936
17357TIP3   OH251955   3.208   9.115   4.589
17357TIP3    H151956   3.196   9.113   4.686
17357TIP3    H251957   3.131   9.168   4.562
17358TIP3   OH251958   2.748   9.159   5.457
17358TIP3    H151959   2.825   9.192   5.508
17358TIP3    H251960   2.788   9.125   5.375
17359TIP3   OH251961   2.729   9.137   4.977
17359TIP3    H151962   2.769   9.178   4.897
17359TIP3    H251963   2.665   9.208   5.000
17360TIP3   OH251964   3.898   9.851   5.586
17360TIP3    H151965   3.916   9.781   5.519
17360TIP3    H251966   3.853   9.798   5.654
17361TIP3   OH251967   2.982   9.378   5.244
17361TIP3    H151968   2.887   9.390   5.221
17361TIP3    H251969   2.996   9.284   5.225
17362TIP3   OH251970   3.257   9.374   4.934
17362TIP3    H151971   3.342   9.399   4.896
17362TIP3    H251972   3.195   9.391   4.859
17363TIP3   OH251973   4.030   9.402   5.435
17363TIP3    H151974   4.014   9.408   5.531
17363TIP3    H251975   4.021   9.308   5.416
17364TIP3   OH251976   3.089   9.382   4.721
17364TIP3    H151977   3.026   9.349   4.654
17364TIP3    H251978   3.139   9.448   4.667
17365TIP3   OH251979   3.630   9.587   5.331
17365TIP3    H151980   3.711   9.610   5.283
17365TIP3    H251981   3.651   9.616   5.420
17366TIP3   OH251982   3.171   9.121   5.215
17366TIP3    H151983   3.125   9.047   5.261
17366TIP3    H251984   3.172   9.092   5.123
17367TIP3   OH251985   3.608   9.526   5.643
17367TIP3    H151986   3.529   9.580   5.630
17367TIP3    H251987   3.672   9.590   5.683
17368TIP3   OH251988   3.802   9.256   4.583
17368TIP3    H151989   3.707   9.234   4.594
17368TIP3    H251990   3.807   9.351   4.605
17369TIP3   OH251991   3.874   9.515   4.672
17369TIP3    H151992   3.964   9.497   4.705
17369TIP3    H251993   3.886   9.601   4.628
17370TIP3   OH251994   3.621   9.885   6.073
17370TIP3    H151995   3.632   9.981   6.072
17370TIP3    H251996   3.706   9.858   6.034
17371TIP3   OH251997   4.311   9.572   4.532
17371TIP3    H151998   4.248   9.535   4.466
17371TIP3    H251999   4.319   9.663   4.499
17372TIP3   OH252000   3.145   9.368   6.029
17372TIP3    H152001   3.057   9.388   6.065
17372TIP3    H252002   3.180   9.309   6.098
17373TIP3   OH252003   3.984   9.437   5.703
17373TIP3    H152004   4.029   9.489   5.772
17373TIP3    H252005   3.959   9.358   5.755
17374TIP3   OH252006   3.855   9.181   4.858
17374TIP3    H152007   3.838   9.215   4.768
17374TIP3    H252008   3.881   9.261   4.907
17375TIP3   OH252009   3.559   9.366   4.989
17375TIP3    H152010   3.628   9.420   4.944
17375TIP3    H252011   3.529   9.430   5.055
17376TIP3   OH252012   3.798   9.685   5.783
17376TIP3    H152013   3.816   9.751   5.853
17376TIP3    H252014   3.866   9.619   5.804
17377TIP3   OH252015   3.190   9.101   4.870
17377TIP3    H152016   3.187   9.196   4.891
17377TIP3    H252017   3.286   9.087   4.873
17378TIP3   OH252018   4.087   9.771   5.124
17378TIP3    H152019   4.021   9.718   5.169
17378TIP3    H252020   4.166   9.757   5.181
17379TIP3   OH252021   2.747   9.296   4.755
17379TIP3    H152022   2.763   9.389   4.739
17379TIP3    H252023   2.670   9.275   4.701
17380TIP3   OH252024   3.146   9.010   5.620
17380TIP3    H152025   3.110   8.977   5.535
17380TIP3    H252026   3.132   8.933   5.679
17381TIP3   OH252027   3.116   9.880   6.244
17381TIP3    H152028   3.192   9.825   6.267
17381TIP3    H252029   3.108   9.945   6.317
17382TIP3   OH252030   3.409   9.720   5.867
17382TIP3    H152031   3.375   9.799   5.914
17382TIP3    H252032   3.460   9.762   5.797
17383TIP3   OH252033   3.265   9.520   4.564
17383TIP3    H152034   3.237   9.471   4.484
17383TIP3    H252035   3.363   9.513   4.560
17384TIP3   OH252036   3.545   9.569   6.055
17384TIP3    H152037   3.555   9.486   6.005
17384TIP3    H252038   3.504   9.626   5.987
17385TIP3   OH252039   3.548   9.363   5.857
17385TIP3    H152040   3.576   9.417   5.780
17385TIP3    H252041   3.453   9.347   5.837
17386TIP3   OH252042   4.171   9.872   6.122
17386TIP3    H152043   4.218   9.789   6.103
17386TIP3    H252044   4.207   9.930   6.054
17387TIP3   OH252045   3.403   9.706   6.270
17387TIP3    H152046   3.350   9.625   6.280
17387TIP3    H252047   3.455   9.686   6.190
17388TIP3   OH252048   3.680   9.131   5.919
17388TIP3    H152049   3.632   9.214   5.899
17388TIP3    H252050   3.609   9.064   5.910
17389TIP3   OH252051   3.812   9.632   6.140
17389TIP3    H152052   3.804   9.623   6.236
17389TIP3    H252053   3.720   9.614   6.113
17390TIP3   OH252054   4.030   9.560   5.970
17390TIP3    H152055   3.968   9.573   6.044
17390TIP3    H252056   4.116   9.555   6.016
17391TIP3   OH252057   4.262   9.531   6.146
17391TIP3    H152058   4.283   9.437   6.162
17391TIP3    H252059   4.277   9.571   6.234
17392TIP3   OH252060   3.260   9.477   6.330
17392TIP3    H152061   3.271   9.387   6.295
17392TIP3    H252062   3.297   9.466   6.420
17393TIP3   OH252063   3.773   9.144   6.177
17393TIP3    H152064   3.842   9.075   6.173
17393TIP3    H252065   3.735   9.137   6.087
17394TIP3   OH252066   3.837   9.357   6.339
17394TIP3    H152067   3.817   9.288   6.272
17394TIP3    H252068   3.760   9.418   6.329
17395TIP3   OH252069   4.142   9.499   4.328
17395TIP3    H152070   4.122   9.517   4.236
17395TIP3    H252071   4.120   9.403   4.332
17396TIP3   OH252072   4.183   9.748   4.873
17396TIP3    H152073   4.187   9.652   4.887
17396TIP3    H252074   4.158   9.777   4.964
17397TIP3   OH252075   4.599   9.997   5.769
17397TIP3    H152076   4.535   9.923   5.780
17397TIP3    H252077   4.680   9.943   5.775
17398TIP3   OH252078   4.090   9.233   4.321
17398TIP3    H152079   4.167   9.199   4.370
17398TIP3    H252080   4.019   9.171   4.343
17399TIP3   OH252081   4.136   9.472   4.770
17399TIP3    H152082   4.181   9.385   4.783
17399TIP3    H252083   4.198   9.513   4.707
17400TIP3   OH252084   4.307   9.654   5.257
17400TIP3    H152085   4.394   9.681   5.219
17400TIP3    H252086   4.316   9.699   5.344
17401TIP3   OH252087   4.372   9.802   5.480
17401TIP3    H152088   4.309   9.822   5.552
17401TIP3    H252089   4.414   9.889   5.469
17402TIP3   OH252090   2.993   9.538   6.298
17402TIP3    H152091   3.090   9.530   6.304
17402TIP3    H252092   2.965   9.450   6.329
17403TIP3   OH252093   4.831   9.395   6.053
17403TIP3    H152094   4.888   9.330   6.008
17403TIP3    H252095   4.797   9.449   5.978
17404TIP3   OH252096   4.260   9.231   4.808
17404TIP3    H152097   4.308   9.219   4.893
17404TIP3    H252098   4.199   9.155   4.810
17405TIP3   OH252099   2.954   9.213   5.636
17405TIP3    H152100   3.023   9.144   5.643
17405TIP3    H252101   3.008   9.292   5.621
17406TIP3   OH252102   2.764   9.511   5.723
17406TIP3    H152103   2.809   9.491   5.638
17406TIP3    H252104   2.781   9.606   5.728
17407TIP3   OH252105   4.698   9.535   5.864
17407TIP3    H152106   4.621   9.597   5.869
17407TIP3    H252107   4.660   9.467   5.805
17408TIP3   OH252108   4.337   9.171   4.439
17408TIP3    H152109   4.379   9.097   4.390
17408TIP3    H252110   4.408   9.238   4.438
17409TIP3   OH252111   2.745   9.001   5.209
17409TIP3    H152112   2.651   8.993   5.233
17409TIP3    H252113   2.741   9.055   5.128
17410TIP3   OH252114   2.964   9.074   6.020
17410TIP3    H152115   2.913   9.072   6.103
17410TIP3    H252116   2.902   9.122   5.961
17411TIP3   OH252117   4.600   9.299   5.739
17411TIP3    H152118   4.510   9.301   5.702
17411TIP3    H252119   4.626   9.205   5.726
17412TIP3   OH252120   4.331   9.082   5.257
17412TIP3    H152121   4.368   9.140   5.187
17412TIP3    H252122   4.238   9.111   5.261
17413TIP3   OH252123   4.425   9.193   5.025
17413TIP3    H152124   4.499   9.142   4.987
17413TIP3    H252125   4.457   9.285   5.012
17414TIP3   OH252126   3.052   8.919   5.372
17414TIP3    H152127   2.959   8.887   5.374
17414TIP3    H252128   3.099   8.833   5.370
17415TIP3   OH252129   2.848   8.789   5.025
17415TIP3    H152130   2.871   8.846   4.949
17415TIP3    H252131   2.812   8.853   5.089
17416TIP3   OH252132   4.052   9.104   5.248
17416TIP3    H152133   4.051   9.070   5.158
17416TIP3    H252134   4.025   9.025   5.300
17417TIP3   OH252135   4.075   9.020   4.799
17417TIP3    H152136   3.991   9.067   4.814
17417TIP3    H252137   4.058   8.937   4.849
17418TIP3   OH252138   2.956   8.948   4.786
17418TIP3    H152139   3.005   8.886   4.728
17418TIP3    H252140   3.029   9.002   4.822
17419TIP3   OH252141   3.467   9.129   4.882
17419TIP3    H152142   3.532   9.068   4.917
17419TIP3    H252143   3.498   9.215   4.920
17420TIP3   OH252144   3.262   9.198   6.262
17420TIP3    H152145   3.228   9.129   6.321
17420TIP3    H252146   3.356   9.200   6.290
17421TIP3   OH252147   3.509   9.197   6.383
17421TIP3    H152148   3.596   9.177   6.344
17421TIP3    H252149   3.501   9.126   6.450
17422TIP3   OH252150   4.335   9.258   6.172
17422TIP3    H152151   4.355   9.228   6.263
17422TIP3    H252152   4.423   9.256   6.130
17423TIP3   OH252153   4.519   9.706   4.686
17423TIP3    H152154   4.478   9.777   4.736
17423TIP3    H252155   4.445   9.646   4.671
17424TIP3   OH252156   6.349   9.728   4.855
17424TIP3    H152157   6.382   9.809   4.898
17424TIP3    H252158   6.376   9.744   4.763
17425TIP3   OH252159   5.747   9.909   4.887
17425TIP3    H152160   5.796   9.826   4.904
17425TIP3    H252161   5.712   9.892   4.798
17426TIP3   OH252162   5.092   9.570   4.856
17426TIP3    H152163   5.071   9.643   4.794
17426TIP3    H252164   5.043   9.497   4.813
17427TIP3   OH252165   5.783   9.658   4.481
17427TIP3    H152166   5.856   9.645   4.546
17427TIP3    H252167   5.834   9.694   4.406
17428TIP3   OH252168   4.717   9.761   4.971
17428TIP3    H152169   4.802   9.744   5.014
17428TIP3    H252170   4.731   9.720   4.884
17429TIP3   OH252171   5.176   9.974   4.748
17429TIP3    H152172   5.261   9.934   4.773
17429TIP3    H252173   5.125   9.898   4.715
17430TIP3   OH252174   6.436   9.929   5.030
17430TIP3    H152175   6.357   9.976   4.999
17430TIP3    H252176   6.444   9.962   5.120
17431TIP3   OH252177   5.087   9.557   5.296
17431TIP3    H152178   5.024   9.586   5.227
17431TIP3    H252179   5.031   9.568   5.376
17432TIP3   OH252180   5.990   9.667   4.654
17432TIP3    H152181   6.011   9.604   4.724
17432TIP3    H252182   6.043   9.745   4.679
17433TIP3   OH252183   4.958   9.662   5.076
17433TIP3    H152184   5.019   9.738   5.092
17433TIP3    H252185   5.004   9.620   5.000
17434TIP3   OH252186   6.146   9.630   5.023
17434TIP3    H152187   6.060   9.662   4.992
17434TIP3    H252188   6.207   9.662   4.953
17435TIP3   OH252189   5.441   9.269   5.010
17435TIP3    H152190   5.422   9.174   5.025
17435TIP3    H252191   5.364   9.310   5.053
17436TIP3   OH252192   5.337   9.783   4.010
17436TIP3    H152193   5.381   9.859   4.048
17436TIP3    H252194   5.400   9.755   3.941
17437TIP3   OH252195   5.980  10.158   5.136
17437TIP3    H152196   5.992  10.239   5.085
17437TIP3    H252197   5.888  10.133   5.107
17438TIP3   OH252198   6.075   9.217   4.107
17438TIP3    H152199   5.994   9.236   4.158
17438TIP3    H252200   6.087   9.301   4.058
17439TIP3   OH252201   6.202  10.119   5.319
17439TIP3    H152202   6.122  10.112   5.264
17439TIP3    H252203   6.229  10.025   5.324
17440TIP3   OH252204   5.205   9.352   5.134
17440TIP3    H152205   5.117   9.318   5.108
17440TIP3    H252206   5.176   9.432   5.181
17441TIP3   OH252207   5.978   9.884   5.251
17441TIP3    H152208   5.920   9.864   5.327
17441TIP3    H252209   5.946   9.970   5.220
17442TIP3   OH252210   5.353   9.395   4.106
17442TIP3    H152211   5.317   9.395   4.197
17442TIP3    H252212   5.311   9.314   4.072
17443TIP3   OH252213   5.127   9.874   5.142
17443TIP3    H152214   5.068   9.877   5.221
17443TIP3    H252215   5.090   9.945   5.088
17444TIP3   OH252216   5.021   9.751   4.668
17444TIP3    H152217   4.927   9.725   4.683
17444TIP3    H252218   5.033   9.713   4.577
17445TIP3   OH252219   5.522   9.837   4.398
17445TIP3    H152220   5.441   9.888   4.376
17445TIP3    H252221   5.562   9.821   4.311
17446TIP3   OH252222   5.688  10.106   5.477
17446TIP3    H152223   5.666  10.038   5.544
17446TIP3    H252224   5.778  10.132   5.506
17447TIP3   OH252225   5.658   9.853   4.636
17447TIP3    H152226   5.598   9.869   4.560
17447TIP3    H252227   5.703   9.774   4.598
17448TIP3   OH252228   4.978   9.891   5.384
17448TIP3    H152229   4.919   9.941   5.442
17448TIP3    H252230   4.949   9.800   5.405
17449TIP3   OH252231   5.003   9.371   4.074
17449TIP3    H152232   4.997   9.369   4.171
17449TIP3    H252233   4.926   9.426   4.052
17450TIP3   OH252234   4.546   9.418   4.934
17450TIP3    H152235   4.616   9.449   4.995
17450TIP3    H252236   4.595   9.379   4.861
17451TIP3   OH252237   4.521   9.393   4.462
17451TIP3    H152238   4.566   9.432   4.384
17451TIP3    H252239   4.461   9.466   4.485
17452TIP3   OH252240   5.726  10.097   5.077
17452TIP3    H152241   5.728  10.032   5.004
17452TIP3    H252242   5.656  10.058   5.132
17453TIP3   OH252243   5.347   9.564   4.728
17453TIP3    H152244   5.261   9.567   4.773
17453TIP3    H252245   5.407   9.584   4.801
17454TIP3   OH252246   4.781   9.633   4.732
17454TIP3    H152247   4.686   9.638   4.706
17454TIP3    H252248   4.803   9.540   4.713
17455TIP3   OH252249   5.052   9.626   4.425
17455TIP3    H152250   5.143   9.647   4.397
17455TIP3    H252251   4.999   9.647   4.345
17456TIP3   OH252252   5.833   9.649   4.937
17456TIP3    H152253   5.774   9.640   5.012
17456TIP3    H252254   5.794   9.583   4.877
17457TIP3   OH252255   4.886   9.641   4.205
17457TIP3    H152256   4.821   9.609   4.140
17457TIP3    H252257   4.934   9.708   4.152
17458TIP3   OH252258   5.423   9.876   4.818
17458TIP3    H152259   5.507   9.862   4.772
17458TIP3    H252260   5.447   9.867   4.912
17459TIP3   OH252261   4.952   9.389   4.707
17459TIP3    H152262   4.917   9.309   4.753
17459TIP3    H252263   4.997   9.350   4.630
17460TIP3   OH252264   5.406   9.791   5.128
17460TIP3    H152265   5.318   9.832   5.115
17460TIP3    H252266   5.459   9.862   5.170
17461TIP3   OH252267   5.598   9.511   4.073
17461TIP3    H152268   5.503   9.487   4.084
17461TIP3    H252269   5.601   9.606   4.095
17462TIP3   OH252270   5.669   9.771   4.161
17462TIP3    H152271   5.761   9.755   4.192
17462TIP3    H252272   5.679   9.857   4.117
17463TIP3   OH252273   5.430  10.118   5.588
17463TIP3    H152274   5.353  10.171   5.559
17463TIP3    H252275   5.479  10.109   5.505
17464TIP3   OH252276   6.106   9.829   4.020
17464TIP3    H152277   6.044   9.791   3.954
17464TIP3    H252278   6.115   9.918   3.985
17465TIP3   OH252279   4.917   9.630   5.506
17465TIP3    H152280   4.822   9.641   5.526
17465TIP3    H252281   4.946   9.575   5.581
17466TIP3   OH252282   5.643   9.451   4.354
17466TIP3    H152283   5.629   9.475   4.260
17466TIP3    H252284   5.683   9.533   4.391
17467TIP3   OH252285   5.342   9.629   4.457
17467TIP3    H152286   5.408   9.700   4.443
17467TIP3    H252287   5.339   9.624   4.555
17468TIP3   OH252288   5.605   9.942   5.270
17468TIP3    H152289   5.611  10.011   5.339
17468TIP3    H252290   5.672   9.880   5.303
17469TIP3   OH252291   5.477   9.360   4.562
17469TIP3    H152292   5.457   9.440   4.614
17469TIP3    H252293   5.537   9.396   4.494
17470TIP3   OH252294   4.989   9.356   4.350
17470TIP3    H152295   4.985   9.449   4.381
17470TIP3    H252296   5.085   9.340   4.358
17471TIP3   OH252297   6.246   9.854   5.247
17471TIP3    H152298   6.148   9.846   5.252
17471TIP3    H252299   6.262   9.811   5.162
17472TIP3   OH252300   5.883  10.030   4.616
17472TIP3    H152301   5.815   9.966   4.643
17472TIP3    H252302   5.960  10.003   4.671
17473TIP3   OH252303   4.545   9.552   4.238
17473TIP3    H152304   4.561   9.647   4.228
17473TIP3    H252305   4.462   9.537   4.193
17474TIP3   OH252306   4.944   9.267   5.109
17474TIP3    H152307   4.908   9.235   5.023
17474TIP3    H252308   4.930   9.190   5.168
17475TIP3   OH252309   4.924  10.158   5.712
17475TIP3    H152310   4.934  10.068   5.744
17475TIP3    H252311   4.902  10.208   5.793
17476TIP3   OH252312   5.232  10.007   5.359
17476TIP3    H152313   5.143   9.975   5.383
17476TIP3    H252314   5.231   9.994   5.263
17477TIP3   OH252315   5.061   9.780   4.048
17477TIP3    H152316   5.033   9.727   3.969
17477TIP3    H252317   5.158   9.769   4.047
17478TIP3   OH252318   5.350   9.826   5.537
17478TIP3    H152319   5.340   9.743   5.487
17478TIP3    H252320   5.317   9.892   5.473
17479TIP3   OH252321   5.347   9.621   5.340
17479TIP3    H152322   5.366   9.673   5.259
17479TIP3    H252323   5.252   9.600   5.327
17480TIP3   OH252324   5.965  10.134   5.590
17480TIP3    H152325   5.990  10.048   5.629
17480TIP3    H252326   6.051  10.165   5.560
17481TIP3   OH252327   5.213   9.955   5.759
17481TIP3    H152328   5.149   9.882   5.771
17481TIP3    H252329   5.257   9.931   5.676
17482TIP3   OH252330   5.507   9.398   5.365
17482TIP3    H152331   5.444   9.474   5.356
17482TIP3    H252332   5.442   9.324   5.368
17483TIP3   OH252333   5.610   9.885   5.624
17483TIP3    H152334   5.599   9.880   5.721
17483TIP3    H252335   5.516   9.873   5.598
17484TIP3   OH252336   5.827   9.808   5.474
17484TIP3    H152337   5.761   9.836   5.542
17484TIP3    H252338   5.909   9.802   5.529
17485TIP3   OH252339   6.058   9.784   5.625
17485TIP3    H152340   6.081   9.691   5.645
17485TIP3    H252341   6.060   9.827   5.713
17486TIP3   OH252342   5.066   9.729   5.812
17486TIP3    H152343   5.065   9.636   5.783
17486TIP3    H252344   5.099   9.719   5.904
17487TIP3   OH252345   5.593   9.416   5.635
17487TIP3    H152346   5.646   9.338   5.661
17487TIP3    H252347   5.519   9.374   5.588
17488TIP3   OH252348   5.640   9.624   5.813
17488TIP3    H152349   5.611   9.552   5.754
17488TIP3    H252350   5.560   9.681   5.819
17489TIP3   OH252351   5.938   9.756   3.815
17489TIP3    H152352   5.918   9.773   3.723
17489TIP3    H252353   5.917   9.660   3.820
17490TIP3   OH252354   5.977  10.006   4.363
17490TIP3    H152355   5.979   9.910   4.372
17490TIP3    H252356   5.953  10.032   4.455
17491TIP3   OH252357   6.410  10.281   5.252
17491TIP3    H152358   6.337  10.219   5.275
17491TIP3    H252359   6.486  10.220   5.253
17492TIP3   OH252360   5.885   9.491   3.808
17492TIP3    H152361   5.962   9.455   3.857
17492TIP3    H252362   5.814   9.428   3.830
17493TIP3   OH252363   5.936   9.731   4.258
17493TIP3    H152364   5.979   9.643   4.271
17493TIP3    H252365   5.996   9.769   4.191
17494TIP3   OH252366   6.104   9.913   4.743
17494TIP3    H152367   6.188   9.941   4.701
17494TIP3    H252368   6.122   9.948   4.833
17495TIP3   OH252369   6.183  10.039   4.976
17495TIP3    H152370   6.108  10.071   5.029
17495TIP3    H252371   6.234  10.122   4.963
17496TIP3   OH252372   4.808   9.815   5.801
17496TIP3    H152373   4.899   9.779   5.798
17496TIP3    H252374   4.756   9.735   5.822
17497TIP3   OH252375   6.622   9.648   5.541
17497TIP3    H152376   6.684   9.582   5.502
17497TIP3    H252377   6.601   9.704   5.464
17498TIP3   OH252378   6.054   9.488   4.297
17498TIP3    H152379   6.103   9.473   4.380
17498TIP3    H252380   5.993   9.411   4.297
17499TIP3   OH252381   4.752   9.470   5.108
17499TIP3    H152382   4.818   9.400   5.124
17499TIP3    H252383   4.808   9.549   5.108
17500TIP3   OH252384   4.556   9.751   5.193
17500TIP3    H152385   4.604   9.755   5.108
17500TIP3    H252386   4.567   9.841   5.226
17501TIP3   OH252387   6.500   9.794   5.343
17501TIP3    H152388   6.410   9.828   5.361
17501TIP3    H252389   6.478   9.717   5.287
17502TIP3   OH252390   6.133   9.427   3.926
17502TIP3    H152391   6.174   9.353   3.877
17502TIP3    H252392   6.204   9.495   3.924
17503TIP3   OH252393   4.540   9.248   4.688
17503TIP3    H152394   4.448   9.250   4.719
17503TIP3    H252395   4.537   9.309   4.611
17504TIP3   OH252396   4.761   9.330   5.503
17504TIP3    H152397   4.713   9.331   5.588
17504TIP3    H252398   4.696   9.374   5.445
17505TIP3   OH252399   6.397   9.550   5.227
17505TIP3    H152400   6.306   9.540   5.193
17505TIP3    H252401   6.431   9.459   5.216
17506TIP3   OH252402   5.612   9.468   4.862
17506TIP3    H152403   5.558   9.398   4.901
17506TIP3    H252404   5.672   9.419   4.802
17507TIP3   OH252405   6.124   9.354   4.754
17507TIP3    H152406   6.161   9.400   4.675
17507TIP3    H252407   6.028   9.364   4.740
17508TIP3   OH252408   6.219   9.449   4.515
17508TIP3    H152409   6.292   9.396   4.476
17508TIP3    H252410   6.254   9.540   4.499
17509TIP3   OH252411   4.850   9.176   4.861
17509TIP3    H152412   4.758   9.142   4.864
17509TIP3    H252413   4.899   9.091   4.858
17510TIP3   OH252414   4.633   9.046   4.507
17510TIP3    H152415   4.665   9.104   4.437
17510TIP3    H252416   4.607   9.111   4.577
17511TIP3   OH252417   5.294   9.207   4.740
17511TIP3    H152418   5.354   9.258   4.683
17511TIP3    H252419   5.307   9.249   4.825
17512TIP3   OH252420   5.843   9.355   4.724
17512TIP3    H152421   5.840   9.315   4.637
17512TIP3    H252422   5.829   9.277   4.782
17513TIP3   OH252423   5.870   9.277   4.288
17513TIP3    H152424   5.783   9.318   4.301
17513TIP3    H252425   5.857   9.192   4.335
17514TIP3   OH252426   4.754   9.207   4.271
17514TIP3    H152427   4.803   9.143   4.216
17514TIP3    H252428   4.826   9.261   4.308
17515TIP3   OH252429   5.266   9.382   4.370
17515TIP3    H152430   5.323   9.333   4.431
17515TIP3    H252431   5.288   9.474   4.396
17516TIP3   OH252432   5.059   9.457   5.753
17516TIP3    H152433   5.020   9.388   5.809
17516TIP3    H252434   5.153   9.455   5.783
17517TIP3   OH252435   5.308   9.449   5.873
17517TIP3    H152436   5.397   9.416   5.854
17517TIP3    H252437   5.283   9.386   5.944
17518TIP3   OH252438   6.130   9.515   5.659
17518TIP3    H152439   6.148   9.484   5.750
17518TIP3    H252440   6.220   9.510   5.619
17519TIP3   OH252441   6.314   9.961   4.173
17519TIP3    H152442   6.273  10.034   4.220
17519TIP3    H252443   6.239   9.902   4.156
17520TIP3   OH252444   7.545  10.180   4.378
17520TIP3    H152445   7.585  10.094   4.399
17520TIP3    H252446   7.520  10.166   4.285
17521TIP3   OH252447   6.886   9.826   4.344
17521TIP3    H152448   6.867   9.900   4.282
17521TIP3    H252449   6.837   9.753   4.298
17522TIP3   OH252450   7.580   9.912   3.974
17522TIP3    H152451   7.647   9.892   4.043
17522TIP3    H252452   7.639   9.949   3.908
17523TIP3   OH252453   6.508  10.011   4.461
17523TIP3    H152454   6.596   9.999   4.501
17523TIP3    H252455   6.525   9.976   4.372
17524TIP3   OH252456   6.971  10.227   4.234
17524TIP3    H152457   7.057  10.190   4.259
17524TIP3    H252458   6.921  10.149   4.203
17525TIP3   OH252459   6.882   9.811   4.780
17525TIP3    H152460   6.821   9.843   4.711
17525TIP3    H252461   6.829   9.828   4.860
17526TIP3   OH252462   7.797   9.918   4.141
17526TIP3    H152463   7.775   9.868   4.222
17526TIP3    H252464   7.878   9.965   4.166
17527TIP3   OH252465   6.751   9.917   4.563
17527TIP3    H152466   6.811   9.994   4.579
17527TIP3    H252467   6.800   9.876   4.487
17528TIP3   OH252468   7.940   9.889   4.502
17528TIP3    H152469   7.846   9.913   4.492
17528TIP3    H252470   7.977   9.917   4.417
17529TIP3   OH252471   7.238   9.528   4.493
17529TIP3    H152472   7.225   9.434   4.511
17529TIP3    H252473   7.161   9.567   4.539
17530TIP3   OH252474   7.127  10.036   3.491
17530TIP3    H152475   7.174  10.104   3.541
17530TIP3    H252476   7.193  10.007   3.426
17531TIP3   OH252477   7.863   9.470   3.588
17531TIP3    H152478   7.786   9.482   3.647
17531TIP3    H252479   7.880   9.562   3.561
17532TIP3   OH252480   6.999   9.605   4.621
17532TIP3    H152481   6.910   9.575   4.595
17532TIP3    H252482   6.976   9.688   4.666
17533TIP3   OH252483   7.533   9.722   4.815
17533TIP3    H152484   7.601   9.693   4.879
17533TIP3    H252485   7.449   9.700   4.861
17534TIP3   OH252486   7.780  10.145   4.735
17534TIP3    H152487   7.734  10.138   4.821
17534TIP3    H252488   7.740  10.224   4.697
17535TIP3   OH252489   7.149   9.653   3.593
17535TIP3    H152490   7.114   9.651   3.685
17535TIP3    H252491   7.108   9.571   3.559
17536TIP3   OH252492   6.920  10.126   4.621
17536TIP3    H152493   6.870  10.139   4.704
17536TIP3    H252494   6.907  10.210   4.573
17537TIP3   OH252495   6.816  10.006   4.154
17537TIP3    H152496   6.723   9.980   4.171
17537TIP3    H252497   6.829   9.968   4.064
17538TIP3   OH252498   7.319  10.094   3.884
17538TIP3    H152499   7.236  10.144   3.863
17538TIP3    H252500   7.356  10.075   3.796
17539TIP3   OH252501   7.481  10.366   4.965
17539TIP3    H152502   7.463  10.288   5.023
17539TIP3    H252503   7.577  10.370   4.970
17540TIP3   OH252504   7.448  10.114   4.126
17540TIP3    H152505   7.392  10.125   4.046
17540TIP3    H252506   7.499  10.037   4.095
17541TIP3   OH252507   6.763  10.148   4.869
17541TIP3    H152508   6.737  10.190   4.951
17541TIP3    H252509   6.735  10.056   4.887
17542TIP3   OH252510   6.801   9.628   3.560
17542TIP3    H152511   6.795   9.625   3.658
17542TIP3    H252512   6.722   9.681   3.539
17543TIP3   OH252513   6.342   9.673   4.428
17543TIP3    H152514   6.415   9.705   4.484
17543TIP3    H252515   6.387   9.637   4.350
17544TIP3   OH252516   6.317   9.649   3.948
17544TIP3    H152517   6.363   9.687   3.871
17544TIP3    H252518   6.258   9.723   3.971
17545TIP3   OH252519   7.487  10.369   4.571
17545TIP3    H152520   7.516  10.307   4.501
17545TIP3    H252521   7.435  10.308   4.627
17546TIP3   OH252522   7.141   9.821   4.213
17546TIP3    H152523   7.059   9.825   4.266
17546TIP3    H252524   7.208   9.842   4.280
17547TIP3   OH252525   6.576   9.889   4.219
17547TIP3    H152526   6.482   9.893   4.193
17547TIP3    H252527   6.601   9.797   4.200
17548TIP3   OH252528   6.848   9.880   3.912
17548TIP3    H152529   6.940   9.903   3.888
17548TIP3    H252530   6.797   9.903   3.831
17549TIP3   OH252531   7.632   9.907   4.420
17549TIP3    H152532   7.596   9.920   4.510
17549TIP3    H252533   7.565   9.846   4.383
17550TIP3   OH252534   6.681   9.899   3.691
17550TIP3    H152535   6.617   9.866   3.626
17550TIP3    H252536   6.728   9.966   3.637
17551TIP3   OH252537   7.219  10.130   4.305
17551TIP3    H152538   7.305  10.127   4.260
17551TIP3    H252539   7.244  10.123   4.398
17552TIP3   OH252540   6.745   9.646   4.192
17552TIP3    H152541   6.713   9.566   4.239
17552TIP3    H252542   6.798   9.608   4.120
17553TIP3   OH252543   7.198  10.042   4.614
17553TIP3    H152544   7.114  10.088   4.601
17553TIP3    H252545   7.255  10.110   4.655
17554TIP3   OH252546   7.393   9.766   3.565
17554TIP3    H152547   7.299   9.736   3.572
17554TIP3    H252548   7.387   9.861   3.584
17555TIP3   OH252549   7.465  10.029   3.642
17555TIP3    H152550   7.552   9.992   3.661
17555TIP3    H252551   7.484  10.090   3.570
17556TIP3   OH252552   7.227  10.403   5.073
17556TIP3    H152553   7.146  10.438   5.032
17556TIP3    H252554   7.275  10.368   4.997
17557TIP3   OH252555   6.719   9.890   4.994
17557TIP3    H152556   6.622   9.888   5.007
17557TIP3    H252557   6.749   9.830   5.065
17558TIP3   OH252558   7.558   9.962   4.680
17558TIP3    H152559   7.641   9.994   4.719
17558TIP3    H252560   7.542   9.879   4.731
17559TIP3   OH252561   7.441   9.704   3.843
17559TIP3    H152562   7.429   9.729   3.749
17559TIP3    H252563   7.482   9.784   3.882
17560TIP3   OH252564   7.136   9.888   3.945
17560TIP3    H152565   7.205   9.957   3.937
17560TIP3    H252566   7.132   9.876   4.043
17561TIP3   OH252567   7.386  10.193   4.753
17561TIP3    H152568   7.421  10.246   4.826
17561TIP3    H252569   7.444  10.115   4.753
17562TIP3   OH252570   7.271   9.613   4.048
17562TIP3    H152571   7.262   9.689   4.108
17562TIP3    H252572   7.333   9.650   3.980
17563TIP3   OH252573   6.786   9.612   3.836
17563TIP3    H152574   6.782   9.704   3.869
17563TIP3    H252575   6.882   9.595   3.845
17564TIP3   OH252576   8.060  10.114   4.712
17564TIP3    H152577   7.966  10.127   4.736
17564TIP3    H252578   8.050  10.059   4.634
17565TIP3   OH252579   6.341   9.809   3.726
17565TIP3    H152580   6.357   9.903   3.714
17565TIP3    H252581   6.259   9.793   3.679
17566TIP3   OH252582   6.734   9.525   4.597
17566TIP3    H152583   6.704   9.491   4.510
17566TIP3    H252584   6.724   9.447   4.655
17567TIP3   OH252585   6.715  10.407   5.202
17567TIP3    H152586   6.766  10.333   5.238
17567TIP3    H252587   6.699  10.464   5.280
17568TIP3   OH252588   7.034  10.260   4.844
17568TIP3    H152589   6.938  10.260   4.858
17568TIP3    H252590   7.043  10.261   4.748
17569TIP3   OH252591   6.854  10.037   3.530
17569TIP3    H152592   6.826   9.981   3.455
17569TIP3    H252593   6.951  10.024   3.531
17570TIP3   OH252594   7.138  10.082   5.028
17570TIP3    H152595   7.146   9.998   4.979
17570TIP3    H252596   7.106  10.141   4.958
17571TIP3   OH252597   7.141   9.880   4.831
17571TIP3    H152598   7.169   9.926   4.750
17571TIP3    H252599   7.047   9.859   4.811
17572TIP3   OH252600   6.999  10.216   5.242
17572TIP3    H152601   6.943  10.137   5.255
17572TIP3    H252602   7.048  10.191   5.161
17573TIP3   OH252603   7.274   9.646   4.893
17573TIP3    H152604   7.224   9.728   4.871
17573TIP3    H252605   7.205   9.578   4.881
17574TIP3   OH252606   7.400  10.146   5.106
17574TIP3    H152607   7.394  10.133   5.202
17574TIP3    H252608   7.308  10.122   5.081
17575TIP3   OH252609   7.640  10.108   4.964
17575TIP3    H152610   7.564  10.096   5.024
17575TIP3    H252611   7.714  10.083   5.023
17576TIP3   OH252612   7.845  10.041   5.129
17576TIP3    H152613   7.871   9.947   5.133
17576TIP3    H252614   7.831  10.063   5.221
17577TIP3   OH252615   6.850   9.991   5.302
17577TIP3    H152616   6.856   9.901   5.266
17577TIP3    H252617   6.889   9.977   5.391
17578TIP3   OH252618   7.368   9.659   5.150
17578TIP3    H152619   7.435   9.588   5.145
17578TIP3    H252620   7.328   9.652   5.061
17579TIP3   OH252621   7.430   9.871   5.312
17579TIP3    H152622   7.412   9.800   5.247
17579TIP3    H252623   7.353   9.930   5.301
17580TIP3   OH252624   7.668   9.773   3.306
17580TIP3    H152625   7.756   9.744   3.335
17580TIP3    H252626   7.613   9.693   3.315
17581TIP3   OH252627   6.583  10.056   5.279
17581TIP3    H152628   6.680  10.044   5.275
17581TIP3    H252629   6.558   9.968   5.315
17582TIP3   OH252630   7.814   9.759   3.802
17582TIP3    H152631   7.880   9.743   3.872
17582TIP3    H252632   7.769   9.673   3.798
17583TIP3   OH252633   6.545   9.729   4.610
17583TIP3    H152634   6.610   9.657   4.616
17583TIP3    H252635   6.604   9.806   4.596
17584TIP3   OH252636   6.350  10.015   4.683
17584TIP3    H152637   6.398  10.005   4.598
17584TIP3    H252638   6.374  10.106   4.705
17585TIP3   OH252639   6.336   9.509   4.178
17585TIP3    H152640   6.243   9.507   4.205
17585TIP3    H252641   6.334   9.567   4.099
17586TIP3   OH252642   6.558   9.597   4.994
17586TIP3    H152643   6.504   9.586   5.074
17586TIP3    H252644   6.490   9.628   4.931
17587TIP3   OH252645   8.197   9.805   4.718
17587TIP3    H152646   8.112   9.810   4.672
17587TIP3    H252647   8.229   9.716   4.692
17588TIP3   OH252648   7.403   9.724   4.333
17588TIP3    H152649   7.354   9.657   4.383
17588TIP3    H252650   7.472   9.672   4.289
17589TIP3   OH252651   7.919   9.609   4.233
17589TIP3    H152652   7.956   9.660   4.158
17589TIP3    H252653   7.823   9.623   4.224
17590TIP3   OH252654   8.019   9.720   3.995
17590TIP3    H152655   8.082   9.654   3.958
17590TIP3    H252656   8.074   9.799   3.992
17591TIP3   OH252657   6.646   9.432   4.348
17591TIP3    H152658   6.554   9.398   4.351
17591TIP3    H252659   6.695   9.347   4.346
17592TIP3   OH252660   6.428   9.303   3.994
17592TIP3    H152661   6.462   9.360   3.924
17592TIP3    H252662   6.404   9.368   4.064
17593TIP3   OH252663   7.089   9.465   4.229
17593TIP3    H152664   7.147   9.516   4.170
17593TIP3    H252665   7.111   9.503   4.315
17594TIP3   OH252666   7.639   9.611   4.209
17594TIP3    H152667   7.635   9.569   4.123
17594TIP3    H252668   7.625   9.533   4.269
17595TIP3   OH252669   7.663   9.525   3.772
17595TIP3    H152670   7.577   9.569   3.788
17595TIP3    H252671   7.649   9.441   3.822
17596TIP3   OH252672   6.550   9.464   3.758
17596TIP3    H152673   6.599   9.400   3.703
17596TIP3    H252674   6.623   9.518   3.795
17597TIP3   OH252675   7.063   9.639   3.857
17597TIP3    H152676   7.121   9.592   3.919
17597TIP3    H252677   7.084   9.732   3.884
17598TIP3   OH252678   6.853   9.716   5.242
17598TIP3    H152679   6.820   9.642   5.297
17598TIP3    H252680   6.948   9.715   5.267
17599TIP3   OH252681   7.103   9.712   5.358
17599TIP3    H152682   7.188   9.685   5.319
17599TIP3    H252683   7.091   9.642   5.426
17600TIP3   OH252684   7.929   9.775   5.146
17600TIP3    H152685   7.949   9.744   5.236
17600TIP3    H252686   8.015   9.766   5.101
17601TIP3   OH252687   2.738   1.190   8.792
17601TIP3    H152688   2.747   1.284   8.771
17601TIP3    H252689   2.827   1.155   8.770
17602TIP3   OH252690   2.762   1.470   8.770
17602TIP3    H152691   2.806   1.542   8.721
17602TIP3    H252692   2.677   1.512   8.789
17603TIP3   OH252693   2.422   1.247   8.769
17603TIP3    H152694   2.471   1.188   8.827
17603TIP3    H252695   2.464   1.228   8.684
17604TIP3   OH252696   4.080   1.020   9.070
17604TIP3    H152697   4.081   1.107   9.022
17604TIP3    H252698   4.059   0.963   8.991
17605TIP3   OH252699   4.435   1.327   9.113
17605TIP3    H152700   4.435   1.271   9.192
17605TIP3    H252701   4.454   1.414   9.149
17606TIP3   OH252702   4.091   1.796   9.133
17606TIP3    H152703   4.145   1.734   9.079
17606TIP3    H252704   4.135   1.790   9.218
17607TIP3   OH252705   4.074   1.247   8.931
17607TIP3    H152706   4.064   1.239   8.835
17607TIP3    H252707   4.049   1.342   8.942
17608TIP3   OH252708   4.232   1.636   8.967
17608TIP3    H152709   4.270   1.551   8.935
17608TIP3    H252710   4.289   1.699   8.917
17609TIP3   OH252711   4.349   1.412   8.859
17609TIP3    H152712   4.355   1.340   8.794
17609TIP3    H252713   4.392   1.372   8.937
17610TIP3   OH252714   4.032   0.885   8.843
17610TIP3    H152715   3.943   0.914   8.817
17610TIP3    H252716   4.078   0.880   8.758
17611TIP3   OH252717   3.996   0.685   8.596
17611TIP3    H152718   4.077   0.723   8.633
17611TIP3    H252719   4.035   0.607   8.551
17612TIP3   OH252720   4.385   0.972   8.853
17612TIP3    H152721   4.348   0.981   8.943
17612TIP3    H252722   4.475   0.944   8.877
17613TIP3   OH252723   4.238   0.821   8.667
17613TIP3    H152724   4.293   0.881   8.722
17613TIP3    H252725   4.264   0.850   8.576
17614TIP3   OH252726   3.982   1.502   8.951
17614TIP3    H152727   4.047   1.571   8.969
17614TIP3    H252728   3.906   1.552   8.917
17615TIP3   OH252729   4.551   1.447   8.287
17615TIP3    H152730   4.556   1.542   8.263
17615TIP3    H252731   4.642   1.416   8.267
17616TIP3   OH252732   3.853   1.763   8.755
17616TIP3    H152733   3.803   1.741   8.675
17616TIP3    H252734   3.816   1.850   8.780
17617TIP3   OH252735   4.053   1.663   8.395
17617TIP3    H152736   4.112   1.594   8.357
17617TIP3    H252737   4.087   1.670   8.486
17618TIP3   OH252738   4.103   1.711   8.663
17618TIP3    H152739   4.014   1.722   8.705
17618TIP3    H252740   4.151   1.665   8.733
17619TIP3   OH252741   4.305   0.893   8.417
17619TIP3    H152742   4.274   0.856   8.333
17619TIP3    H252743   4.389   0.931   8.384
17620TIP3   OH252744   4.205   0.706   8.975
17620TIP3    H152745   4.145   0.760   8.920
17620TIP3    H252746   4.244   0.647   8.908
17621TIP3   OH252747   3.527   0.533   8.816
17621TIP3    H152748   3.481   0.479   8.750
17621TIP3    H252749   3.608   0.557   8.768
17622TIP3   OH252750   3.794   1.045   8.825
17622TIP3    H152751   3.727   0.981   8.791
17622TIP3    H252752   3.784   1.030   8.920
17623TIP3   OH252753   4.337   0.572   8.771
17623TIP3    H152754   4.432   0.592   8.790
17623TIP3    H252755   4.313   0.646   8.712
17624TIP3   OH252756   3.958   1.197   8.658
17624TIP3    H152757   3.911   1.284   8.660
17624TIP3    H252758   3.898   1.144   8.714
17625TIP3   OH252759   4.777   0.694   8.629
17625TIP3    H152760   4.721   0.646   8.564
17625TIP3    H252761   4.773   0.783   8.588
17626TIP3   OH252762   4.483   1.515   8.545
17626TIP3    H152763   4.448   1.438   8.592
17626TIP3    H252764   4.495   1.480   8.454
17627TIP3   OH252765   3.504   1.611   8.966
17627TIP3    H152766   3.432   1.623   9.030
17627TIP3    H252767   3.549   1.698   8.974
17628TIP3   OH252768   4.223   1.244   8.460
17628TIP3    H152769   4.278   1.219   8.536
17628TIP3    H252770   4.136   1.212   8.487
17629TIP3   OH252771   4.575   1.721   8.259
17629TIP3    H152772   4.610   1.794   8.206
17629TIP3    H252773   4.494   1.764   8.293
17630TIP3   OH252774   4.396   1.193   8.679
17630TIP3    H152775   4.385   1.113   8.734
17630TIP3    H252776   4.489   1.181   8.649
17631TIP3   OH252777   3.601   1.223   8.438
17631TIP3    H152778   3.614   1.130   8.411
17631TIP3    H252779   3.578   1.212   8.532
17632TIP3   OH252780   3.543   1.230   8.708
17632TIP3    H152781   3.614   1.200   8.767
17632TIP3    H252782   3.549   1.327   8.716
17633TIP3   OH252783   3.814   1.428   8.664
17633TIP3    H152784   3.725   1.452   8.695
17633TIP3    H252785   3.828   1.496   8.596
17634TIP3   OH252786   3.557   1.501   8.722
17634TIP3    H152787   3.525   1.571   8.661
17634TIP3    H252788   3.533   1.541   8.809
17635TIP3   OH252789   3.265   1.146   8.710
17635TIP3    H152790   3.339   1.207   8.724
17635TIP3    H252791   3.312   1.076   8.661
17636TIP3   OH252792   4.531   1.861   9.187
17636TIP3    H152793   4.479   1.917   9.125
17636TIP3    H252794   4.620   1.896   9.170
17637TIP3   OH252795   3.764   1.428   8.353
17637TIP3    H152796   3.708   1.355   8.389
17637TIP3    H252797   3.840   1.377   8.319
17638TIP3   OH252798   4.201   1.476   8.262
17638TIP3    H152799   4.236   1.398   8.309
17638TIP3    H252800   4.255   1.470   8.181
17639TIP3   OH252801   3.408   0.944   8.576
17639TIP3    H152802   3.462   0.912   8.651
17639TIP3    H252803   3.477   0.948   8.507
17640TIP3   OH252804   3.916   1.146   8.383
17640TIP3    H152805   3.917   1.157   8.480
17640TIP3    H252806   3.918   1.047   8.377
17641TIP3   OH252807   3.605   0.856   8.769
17641TIP3    H152808   3.618   0.825   8.861
17641TIP3    H252809   3.635   0.776   8.721
17642TIP3   OH252810   3.716   0.644   8.636
17642TIP3    H152811   3.693   0.642   8.541
17642TIP3    H252812   3.813   0.644   8.632
17643TIP3   OH252813   3.524   1.707   8.539
17643TIP3    H152814   3.620   1.701   8.520
17643TIP3    H252815   3.495   1.756   8.460
17644TIP3   OH252816   2.994   1.094   8.724
17644TIP3    H152817   3.088   1.118   8.738
17644TIP3    H252818   3.001   0.999   8.704
17645TIP3   OH252819   4.788   1.956   9.165
17645TIP3    H152820   4.828   2.028   9.214
17645TIP3    H252821   4.822   1.972   9.076
17646TIP3   OH252822   4.670   1.161   8.633
17646TIP3    H152823   4.738   1.223   8.601
17646TIP3    H252824   4.717   1.119   8.708
17647TIP3   OH252825   4.801   1.027   8.834
17647TIP3    H152826   4.738   0.984   8.896
17647TIP3    H252827   4.869   1.063   8.894
17648TIP3   OH252828   4.839   1.414   9.195
17648TIP3    H152829   4.917   1.355   9.185
17648TIP3    H252830   4.869   1.494   9.147
17649TIP3   OH252831   4.744   0.932   8.488
17649TIP3    H152832   4.685   0.930   8.409
17649TIP3    H252833   4.704   1.008   8.534
17650TIP3   OH252834   4.616   0.605   8.421
17650TIP3    H152835   4.587   0.690   8.387
17650TIP3    H252836   4.560   0.545   8.369
17651TIP3   OH252837   4.617   0.883   8.986
17651TIP3    H152838   4.612   0.787   8.970
17651TIP3    H252839   4.584   0.891   9.076
17652TIP3   OH252840   4.600   0.614   8.835
17652TIP3    H152841   4.645   0.570   8.911
17652TIP3    H252842   4.674   0.635   8.775
17653TIP3   OH252843   4.363   1.812   8.813
17653TIP3    H152844   4.418   1.805   8.732
17653TIP3    H252845   4.409   1.881   8.863
17654TIP3   OH252846   2.980   1.439   8.928
17654TIP3    H152847   2.907   1.413   8.869
17654TIP3    H252848   3.007   1.523   8.888
17655TIP3   OH252849   3.793   1.664   8.489
17655TIP3    H152850   3.881   1.686   8.453
17655TIP3    H252851   3.770   1.589   8.429
17656TIP3   OH252852   4.513   1.784   8.583
17656TIP3    H152853   4.504   1.686   8.573
17656TIP3    H252854   4.466   1.814   8.502
17657TIP3   OH252855   3.096   1.503   8.544
17657TIP3    H152856   3.097   1.537   8.634
17657TIP3    H252857   3.184   1.460   8.535
17658TIP3   OH252858   6.003   1.299   8.538
17658TIP3    H152859   5.974   1.390   8.516
17658TIP3    H252860   5.929   1.249   8.499
17659TIP3   OH252861   5.999   1.302   8.917
17659TIP3    H152862   6.033   1.270   9.002
17659TIP3    H252863   5.960   1.221   8.879
17660TIP3   OH252864   5.313   1.227   9.288
17660TIP3    H152865   5.316   1.167   9.364
17660TIP3    H252866   5.401   1.218   9.248
17661TIP3   OH252867   6.246   1.603   8.598
17661TIP3    H152868   6.232   1.531   8.661
17661TIP3    H252869   6.276   1.675   8.655
17662TIP3   OH252870   5.276   1.610   9.022
17662TIP3    H152871   5.264   1.512   9.016
17662TIP3    H252872   5.371   1.615   8.999
17663TIP3   OH252873   4.973   0.793   8.799
17663TIP3    H152874   4.929   0.879   8.812
17663TIP3    H252875   4.909   0.750   8.739
17664TIP3   OH252876   5.042   1.088   8.957
17664TIP3    H152877   5.089   1.014   9.001
17664TIP3    H252878   5.103   1.110   8.885
17665TIP3   OH252879   5.897   2.064   8.618
17665TIP3    H152880   5.940   1.994   8.563
17665TIP3    H252881   5.892   2.020   8.703
17666TIP3   OH252882   5.800   1.525   8.970
17666TIP3    H152883   5.836   1.448   8.921
17666TIP3    H252884   5.885   1.569   8.991
17667TIP3   OH252885   6.208   1.035   8.998
17667TIP3    H152886   6.259   0.956   9.019
17667TIP3    H252887   6.183   1.018   8.905
17668TIP3   OH252888   5.189   0.893   9.073
17668TIP3    H152889   5.257   0.863   9.135
17668TIP3    H252890   5.204   0.832   8.998
17669TIP3   OH252891   5.625   1.087   8.873
17669TIP3    H152892   5.718   1.056   8.882
17669TIP3    H252893   5.581   1.005   8.840
17670TIP3   OH252894   6.865   1.034   9.141
17670TIP3    H152895   6.794   1.099   9.126
17670TIP3    H252896   6.891   1.053   9.233
17671TIP3   OH252897   5.893   1.520   8.408
17671TIP3    H152898   5.855   1.499   8.322
17671TIP3    H252899   5.848   1.603   8.431
17672TIP3   OH252900   5.659   1.448   9.199
17672TIP3    H152901   5.595   1.515   9.231
17672TIP3    H252902   5.702   1.494   9.124
17673TIP3   OH252903   5.441   0.804   9.176
17673TIP3    H152904   5.514   0.850   9.131
17673TIP3    H252905   5.425   0.730   9.117
17674TIP3   OH252906   5.474   1.642   9.304
17674TIP3    H152907   5.458   1.719   9.247
17674TIP3    H252908   5.393   1.643   9.357
17675TIP3   OH252909   4.875   1.329   8.524
17675TIP3    H152910   4.833   1.358   8.442
17675TIP3    H252911   4.906   1.413   8.562
17676TIP3   OH252912   6.316   1.845   8.769
17676TIP3    H152913   6.225   1.836   8.806
17676TIP3    H252914   6.308   1.930   8.721
17677TIP3   OH252915   6.016   1.892   8.439
17677TIP3    H152916   6.065   1.809   8.420
17677TIP3    H252917   6.079   1.956   8.398
17678TIP3   OH252918   6.158   1.678   8.347
17678TIP3    H152919   6.131   1.597   8.302
17678TIP3    H252920   6.195   1.641   8.431
17679TIP3   OH252921   6.541   1.758   9.109
17679TIP3    H152922   6.532   1.680   9.050
17679TIP3    H252923   6.526   1.832   9.047
17680TIP3   OH252924   5.837   1.153   8.367
17680TIP3    H152925   5.755   1.202   8.343
17680TIP3    H252926   5.880   1.142   8.280
17681TIP3   OH252927   5.789   0.935   8.079
17681TIP3    H152928   5.869   0.975   8.116
17681TIP3    H252929   5.825   0.856   8.035
17682TIP3   OH252930   6.739   1.395   8.959
17682TIP3    H152931   6.655   1.445   8.962
17682TIP3    H252932   6.766   1.414   8.866
17683TIP3   OH252933   6.181   1.235   8.338
17683TIP3    H152934   6.128   1.259   8.417
17683TIP3    H252935   6.265   1.207   8.380
17684TIP3   OH252936   6.415   1.274   9.256
17684TIP3    H152937   6.419   1.359   9.305
17684TIP3    H252938   6.333   1.286   9.205
17685TIP3   OH252939   5.417   1.231   8.754
17685TIP3    H152940   5.369   1.174   8.689
17685TIP3    H252941   5.490   1.172   8.782
17686TIP3   OH252942   5.539   1.638   8.908
17686TIP3    H152943   5.519   1.603   8.820
17686TIP3    H252944   5.630   1.604   8.922
17687TIP3   OH252945   5.541   1.216   9.104
17687TIP3    H152946   5.571   1.193   9.013
17687TIP3    H252947   5.590   1.299   9.122
17688TIP3   OH252948   6.072   1.841   8.886
17688TIP3    H152949   6.065   1.919   8.944
17688TIP3    H252950   6.061   1.766   8.948
17689TIP3   OH252951   5.691   1.775   9.446
17689TIP3    H152952   5.621   1.835   9.479
17689TIP3    H252953   5.637   1.709   9.399
17690TIP3   OH252954   6.023   1.083   8.167
17690TIP3    H152955   6.082   1.141   8.220
17690TIP3    H252956   6.050   1.110   8.075
17691TIP3   OH252957   5.763   1.773   8.446
17691TIP3    H152958   5.845   1.825   8.455
17691TIP3    H252959   5.705   1.833   8.397
17692TIP3   OH252960   5.465   1.923   9.512
17692TIP3    H152961   5.444   1.926   9.416
17692TIP3    H252962   5.394   1.868   9.548
17693TIP3   OH252963   5.274   1.081   8.568
17693TIP3    H152964   5.207   1.117   8.505
17693TIP3    H252965   5.254   0.987   8.568
17694TIP3   OH252966   6.337   1.702   7.762
17694TIP3    H152967   6.347   1.798   7.744
17694TIP3    H252968   6.429   1.670   7.749
17695TIP3   OH252969   4.921   1.664   9.091
17695TIP3    H152970   5.016   1.657   9.076
17695TIP3    H252971   4.914   1.743   9.147
17696TIP3   OH252972   6.783   2.101   9.154
17696TIP3    H152973   6.782   2.005   9.169
17696TIP3    H252974   6.699   2.128   9.197
17697TIP3   OH252975   5.890   1.883   9.290
17697TIP3    H152976   5.886   1.979   9.310
17697TIP3    H252977   5.816   1.849   9.346
17698TIP3   OH252978   5.647   2.016   8.243
17698TIP3    H152979   5.602   1.996   8.159
17698TIP3    H252980   5.614   2.105   8.264
17699TIP3   OH252981   5.084   1.867   8.627
17699TIP3    H152982   5.131   1.855   8.712
17699TIP3    H252983   5.030   1.786   8.624
17700TIP3   OH252984   5.849   1.919   7.883
17700TIP3    H152985   5.907   1.849   7.846
17700TIP3    H252986   5.883   1.926   7.974
17701TIP3   OH252987   5.899   1.967   8.153
17701TIP3    H152988   5.810   1.976   8.194
17701TIP3    H252989   5.948   1.923   8.224
17702TIP3   OH252990   6.681   1.246   9.418
17702TIP3    H152991   6.590   1.263   9.389
17702TIP3    H252992   6.680   1.154   9.445
17703TIP3   OH252993   6.323   1.074   9.420
17703TIP3    H152994   6.387   1.073   9.495
17703TIP3    H252995   6.352   1.152   9.370
17704TIP3   OH252996   6.104   1.150   7.920
17704TIP3    H152997   6.062   1.120   7.837
17704TIP3    H252998   6.185   1.192   7.885
17705TIP3   OH252999   5.650   0.991   9.211
17705TIP3    H153000   5.580   0.994   9.278
17705TIP3    H253001   5.625   1.068   9.155
17706TIP3   OH253002   5.470   0.889   8.770
17706TIP3    H153003   5.392   0.837   8.798
17706TIP3    H253004   5.491   0.844   8.684
17707TIP3   OH253005   5.978   0.957   8.500
17707TIP3    H153006   5.926   1.028   8.456
17707TIP3    H253007   6.026   0.918   8.423
17708TIP3   OH253008   6.132   0.981   8.737
17708TIP3    H153009   6.073   1.011   8.664
17708TIP3    H253010   6.168   0.901   8.698
17709TIP3   OH253011   6.140   1.236   9.162
17709TIP3    H153012   6.173   1.166   9.100
17709TIP3    H253013   6.103   1.180   9.233
17710TIP3   OH253014   5.237   0.742   8.846
17710TIP3    H153015   5.143   0.760   8.822
17710TIP3    H253016   5.244   0.648   8.823
17711TIP3   OH253017   5.526   0.765   8.530
17711TIP3    H153018   5.611   0.737   8.492
17711TIP3    H253019   5.465   0.755   8.454
17712TIP3   OH253020   5.348   0.778   8.312
17712TIP3    H153021   5.290   0.726   8.252
17712TIP3    H253022   5.409   0.816   8.246
17713TIP3   OH253023   6.472   2.453   9.253
17713TIP3    H153024   6.470   2.476   9.159
17713TIP3    H253025   6.554   2.499   9.282
17714TIP3   OH253026   5.893   1.019   8.930
17714TIP3    H153027   5.960   0.975   8.876
17714TIP3    H253028   5.898   0.967   9.013
17715TIP3   OH253029   5.908   0.896   9.187
17715TIP3    H153030   5.814   0.922   9.191
17715TIP3    H253031   5.950   0.959   9.248
17716TIP3   OH253032   5.603   1.305   8.316
17716TIP3    H153033   5.532   1.238   8.306
17716TIP3    H253034   5.585   1.338   8.408
17717TIP3   OH253035   6.506   1.539   8.946
17717TIP3    H153036   6.530   1.589   8.864
17717TIP3    H253037   6.421   1.497   8.920
17718TIP3   OH253038   6.004   1.619   9.309
17718TIP3    H153039   6.016   1.589   9.400
17718TIP3    H253040   5.967   1.709   9.320
17719TIP3   OH253041   6.120   0.847   8.286
17719TIP3    H153042   6.218   0.851   8.294
17719TIP3    H253043   6.102   0.920   8.224
17720TIP3   OH253044   5.300   1.339   8.980
17720TIP3    H153045   5.339   1.304   8.897
17720TIP3    H253046   5.332   1.274   9.045
17721TIP3   OH253047   5.750   1.454   8.138
17721TIP3    H153048   5.703   1.540   8.145
17721TIP3    H253049   5.696   1.398   8.198
17722TIP3   OH253050   6.163   1.879   9.195
17722TIP3    H153051   6.068   1.874   9.215
17722TIP3    H253052   6.196   1.930   9.272
17723TIP3   OH253053   6.576   0.950   8.116
17723TIP3    H153054   6.519   0.902   8.052
17723TIP3    H253055   6.570   1.039   8.075
17724TIP3   OH253056   6.791   1.810   9.197
17724TIP3    H153057   6.694   1.805   9.188
17724TIP3    H253058   6.818   1.782   9.107
17725TIP3   OH253059   6.276   1.772   8.027
17725TIP3    H153060   6.249   1.701   8.087
17725TIP3    H253061   6.287   1.727   7.942
17726TIP3   OH253062   6.271   1.402   8.867
17726TIP3    H153063   6.177   1.376   8.876
17726TIP3    H253064   6.305   1.323   8.820
17727TIP3   OH253065   5.398   1.633   8.626
17727TIP3    H153066   5.399   1.711   8.567
17727TIP3    H253067   5.305   1.608   8.620
17728TIP3   OH253068   4.961   0.929   8.317
17728TIP3    H153069   5.010   1.010   8.342
17728TIP3    H253070   4.883   0.935   8.376
17729TIP3   OH253071   5.536   1.397   8.562
17729TIP3    H153072   5.502   1.486   8.585
17729TIP3    H253073   5.500   1.343   8.635
17730TIP3   OH253074   5.667   1.974   9.087
17730TIP3    H153075   5.705   2.047   9.034
17730TIP3    H253076   5.747   1.937   9.127
17731TIP3   OH253077   5.318   1.869   8.470
17731TIP3    H153078   5.231   1.878   8.515
17731TIP3    H253079   5.349   1.962   8.471
17732TIP3   OH253080   6.057   1.608   9.041
17732TIP3    H153081   6.049   1.604   9.139
17732TIP3    H253082   6.135   1.552   9.026
17733TIP3   OH253083   6.031   1.505   7.927
17733TIP3    H153084   6.083   1.479   8.006
17733TIP3    H253085   5.944   1.470   7.952
17734TIP3   OH253086   6.302   2.143   9.096
17734TIP3    H153087   6.224   2.085   9.085
17734TIP3    H253088   6.289   2.207   9.022
17735TIP3   OH253089   6.371   1.980   7.742
17735TIP3    H153090   6.418   2.059   7.709
17735TIP3    H253091   6.289   2.023   7.776
17736TIP3   OH253092   6.191   1.441   8.148
17736TIP3    H153093   6.178   1.370   8.214
17736TIP3    H253094   6.287   1.433   8.133
17737TIP3   OH253095   5.106   1.852   9.231
17737TIP3    H153096   5.150   1.766   9.226
17737TIP3    H253097   5.154   1.893   9.304
17738TIP3   OH253098   5.396   1.482   7.928
17738TIP3    H153099   5.409   1.390   7.897
17738TIP3    H253100   5.375   1.467   8.022
17739TIP3   OH253101   5.340   1.486   8.201
17739TIP3    H153102   5.416   1.457   8.254
17739TIP3    H253103   5.347   1.584   8.208
17740TIP3   OH253104   5.074   1.178   8.400
17740TIP3    H153105   5.009   1.223   8.458
17740TIP3    H253106   5.092   1.248   8.335
17741TIP3   OH253107   5.608   1.684   8.152
17741TIP3    H153108   5.521   1.712   8.185
17741TIP3    H253109   5.622   1.748   8.080
17742TIP3   OH253110   5.821   0.740   8.558
17742TIP3    H153111   5.863   0.825   8.538
17742TIP3    H253112   5.776   0.758   8.642
17743TIP3   OH253113   6.058   1.062   9.358
17743TIP3    H153114   6.059   1.111   9.442
17743TIP3    H253115   6.153   1.036   9.354
17744TIP3   OH253116   5.352   1.760   8.215
17744TIP3    H153117   5.321   1.828   8.152
17744TIP3    H253118   5.335   1.803   8.302
17745TIP3   OH253119   6.355   1.165   8.739
17745TIP3    H153120   6.285   1.099   8.749
17745TIP3    H253121   6.431   1.122   8.784
17746TIP3   OH253122   5.070   1.388   8.208
17746TIP3    H153123   5.137   1.457   8.215
17746TIP3    H253124   5.114   1.331   8.141
17747TIP3   OH253125   4.986   0.642   8.323
17747TIP3    H153126   5.031   0.729   8.324
17747TIP3    H253127   4.900   0.667   8.357
17748TIP3   OH253128   6.324   2.117   8.689
17748TIP3    H153129   6.282   2.164   8.613
17748TIP3    H253130   6.418   2.136   8.668
17749TIP3   OH253131   4.943   1.611   8.598
17749TIP3    H153132   4.865   1.636   8.649
17749TIP3    H253133   4.917   1.645   8.510
17750TIP3   OH253134   5.561   1.684   7.844
17750TIP3    H153135   5.505   1.612   7.878
17750TIP3    H253136   5.635   1.633   7.806
17751TIP3   OH253137   6.223   2.015   9.423
17751TIP3    H153138   6.224   1.971   9.510
17751TIP3    H253139   6.297   2.078   9.436
17752TIP3   OH253140   5.997   1.726   7.753
17752TIP3    H153141   6.036   1.658   7.811
17752TIP3    H253142   6.054   1.722   7.674
17753TIP3   OH253143   5.201   1.200   8.062
17753TIP3    H153144   5.257   1.164   8.133
17753TIP3    H253145   5.267   1.205   7.989
17754TIP3   OH253146   5.715   1.398   7.868
17754TIP3    H153147   5.717   1.409   7.965
17754TIP3    H253148   5.718   1.300   7.861
17755TIP3   OH253149   6.327   1.648   9.246
17755TIP3    H153150   6.401   1.691   9.200
17755TIP3    H253151   6.255   1.711   9.226
17756TIP3   OH253152   5.413   1.106   8.285
17756TIP3    H153153   5.389   1.058   8.366
17756TIP3    H253154   5.450   1.033   8.230
17757TIP3   OH253155   5.512   0.903   8.128
17757TIP3    H153156   5.487   0.898   8.034
17757TIP3    H253157   5.609   0.910   8.120
17758TIP3   OH253158   6.336   1.230   7.784
17758TIP3    H153159   6.311   1.182   7.703
17758TIP3    H253160   6.302   1.319   7.760
17759TIP3   OH253161   5.844   1.277   9.324
17759TIP3    H153162   5.917   1.293   9.263
17759TIP3    H253163   5.777   1.340   9.289
17760TIP3   OH253164   6.468   1.494   9.419
17760TIP3    H153165   6.407   1.552   9.367
17760TIP3    H253166   6.555   1.520   9.382
17761TIP3   OH253167   5.321   1.964   8.030
17761TIP3    H153168   5.416   1.958   8.009
17761TIP3    H253169   5.290   2.010   7.950
17762TIP3   OH253170   4.802   1.347   8.242
17762TIP3    H153171   4.898   1.361   8.226
17762TIP3    H253172   4.790   1.252   8.225
17763TIP3   OH253173   4.715   1.957   8.656
17763TIP3    H153174   4.647   1.895   8.619
17763TIP3    H253175   4.757   1.899   8.722
17764TIP3   OH253176   4.845   1.809   8.845
17764TIP3    H153177   4.838   1.733   8.905
17764TIP3    H253178   4.907   1.866   8.895
17765TIP3   OH253179   6.576   2.210   8.645
17765TIP3    H153180   6.606   2.242   8.732
17765TIP3    H253181   6.641   2.249   8.585
17766TIP3   OH253182   6.606   2.229   8.928
17766TIP3    H153183   6.564   2.140   8.922
17766TIP3    H253184   6.684   2.206   8.982
17767TIP3   OH253185   6.657   1.908   9.490
17767TIP3    H153186   6.568   1.922   9.524
17767TIP3    H253187   6.696   1.998   9.493
17768TIP3   OH253188   6.470   1.416   8.120
17768TIP3    H153189   6.538   1.479   8.091
17768TIP3    H253190   6.512   1.377   8.199
17769TIP3   OH253191   6.598   1.284   8.323
17769TIP3    H153192   6.532   1.242   8.382
17769TIP3    H253193   6.663   1.320   8.386
17770TIP3   OH253194   6.651   1.676   8.756
17770TIP3    H153195   6.704   1.609   8.707
17770TIP3    H253196   6.646   1.749   8.691
17771TIP3   OH253197   6.483   1.977   8.950
17771TIP3    H153198   6.410   2.018   9.001
17771TIP3    H253199   6.434   1.929   8.880
17772TIP3   OH253200   6.534   1.190   7.969
17772TIP3    H153201   6.464   1.196   7.900
17772TIP3    H253202   6.507   1.265   8.026
17773TIP3   OH253203   6.417   0.859   7.915
17773TIP3    H153204   6.368   0.924   7.864
17773TIP3    H253205   6.370   0.777   7.894
17774TIP3   OH253206   6.412   1.144   8.471
17774TIP3    H153207   6.418   1.047   8.465
17774TIP3    H253208   6.398   1.158   8.567
17775TIP3   OH253209   5.059   1.260   9.175
17775TIP3    H153210   5.052   1.204   9.096
17775TIP3    H253211   5.148   1.238   9.208
17776TIP3   OH253212   6.715   1.562   9.320
17776TIP3    H153213   6.788   1.499   9.307
17776TIP3    H253214   6.740   1.636   9.262
17777TIP3   OH253215   6.912   1.362   9.343
17777TIP3    H153216   6.824   1.328   9.372
17777TIP3    H253217   6.966   1.292   9.384
17778TIP3   OH253218   6.393   0.866   8.319
17778TIP3    H153219   6.441   0.825   8.395
17778TIP3    H253220   6.466   0.890   8.260
17779TIP3   OH253221   6.573   1.063   8.863
17779TIP3    H153222   6.662   1.072   8.822
17779TIP3    H253223   6.594   1.085   8.956
17780TIP3   OH253224   6.635   1.181   9.105
17780TIP3    H153225   6.556   1.222   9.145
17780TIP3    H253226   6.671   1.256   9.053
17781TIP3   OH253227   6.162   2.075   8.302
17781TIP3    H153228   6.212   2.059   8.219
17781TIP3    H253229   6.219   2.140   8.346
17782TIP3   OH253230   5.440   1.912   9.234
17782TIP3    H153231   5.394   1.988   9.193
17782TIP3    H253232   5.527   1.925   9.190
17783TIP3   OH253233   5.881   2.152   9.348
17783TIP3    H153234   5.929   2.142   9.433
17783TIP3    H253235   5.947   2.202   9.296
17784TIP3   OH253236   6.062   2.304   9.220
17784TIP3    H153237   6.135   2.253   9.180
17784TIP3    H253238   6.114   2.366   9.277
17785TIP3   OH253239   5.127   2.178   9.257
17785TIP3    H153240   5.039   2.210   9.226
17785TIP3    H253241   5.112   2.172   9.352
17786TIP3   OH253242   5.357   2.145   9.114
17786TIP3    H153243   5.271   2.161   9.160
17786TIP3    H253244   5.337   2.176   9.024
17787TIP3   OH253245   5.776   2.173   8.917
17787TIP3    H153246   5.711   2.192   8.847
17787TIP3    H253247   5.791   2.262   8.955
17788TIP3   OH253248   6.048   2.115   8.968
17788TIP3    H153249   5.954   2.130   8.945
17788TIP3    H253250   6.092   2.187   8.921
17789TIP3   OH253251   6.254   2.306   8.880
17789TIP3    H153252   6.241   2.390   8.832
17789TIP3    H253253   6.282   2.246   8.807
17790TIP3   OH253254   5.024   1.963   8.994
17790TIP3    H153255   5.051   1.942   9.086
17790TIP3    H253256   5.099   1.921   8.946
17791TIP3   OH253257   5.222   1.832   8.862
17791TIP3    H153258   5.241   1.748   8.908
17791TIP3    H253259   5.312   1.870   8.853
17792TIP3   OH253260   5.487   1.928   8.863
17792TIP3    H153261   5.520   1.839   8.843
17792TIP3    H253262   5.534   1.946   8.946
17793TIP3   OH253263   4.817   1.733   8.394
17793TIP3    H153264   4.732   1.698   8.361
17793TIP3    H253265   4.804   1.827   8.372
17794TIP3   OH253266   5.588   1.923   7.976
17794TIP3    H153267   5.677   1.944   7.940
17794TIP3    H253268   5.566   1.847   7.917
17795TIP3   OH253269   6.307   2.039   8.069
17795TIP3    H153270   6.299   1.941   8.058
17795TIP3    H253271   6.262   2.070   7.988
17796TIP3   OH253272   4.894   1.760   8.032
17796TIP3    H153273   4.894   1.781   8.126
17796TIP3    H253274   4.981   1.716   8.020
17797TIP3   OH253275   6.538   2.186   9.248
17797TIP3    H153276   6.458   2.154   9.200
17797TIP3    H253277   6.518   2.282   9.252
17798TIP3   OH253278   7.800   1.557   8.025
17798TIP3    H153279   7.774   1.649   8.004
17798TIP3    H253280   7.723   1.509   7.991
17799TIP3   OH253281   7.799   1.547   8.408
17799TIP3    H153282   7.802   1.493   8.488
17799TIP3    H253283   7.758   1.483   8.347
17800TIP3   OH253284   7.096   1.463   8.766
17800TIP3    H153285   7.127   1.387   8.819
17800TIP3    H253286   7.181   1.504   8.744
17801TIP3   OH253287   8.042   1.857   8.087
17801TIP3    H153288   8.028   1.791   8.157
17801TIP3    H253289   8.071   1.935   8.138
17802TIP3   OH253290   7.070   1.861   8.495
17802TIP3    H153291   7.061   1.763   8.496
17802TIP3    H253292   7.166   1.870   8.488
17803TIP3   OH253293   6.769   1.054   8.285
17803TIP3    H153294   6.722   1.137   8.300
17803TIP3    H253295   6.706   1.007   8.227
17804TIP3   OH253296   6.838   1.349   8.452
17804TIP3    H153297   6.886   1.272   8.488
17804TIP3    H253298   6.897   1.377   8.381
17805TIP3   OH253299   7.691   2.319   8.101
17805TIP3    H153300   7.737   2.248   8.052
17805TIP3    H253301   7.688   2.282   8.191
17806TIP3   OH253302   7.595   1.784   8.453
17806TIP3    H153303   7.629   1.706   8.408
17806TIP3    H253304   7.680   1.828   8.473
17807TIP3   OH253305   6.982   1.141   8.557
17807TIP3    H153306   7.062   1.116   8.607
17807TIP3    H253307   6.999   1.088   8.477
17808TIP3   OH253308   7.424   1.343   8.358
17808TIP3    H153309   7.514   1.308   8.371
17808TIP3    H253310   7.377   1.262   8.325
17809TIP3   OH253311   7.696   1.781   7.891
17809TIP3    H153312   7.643   1.757   7.814
17809TIP3    H253313   7.651   1.863   7.919
17810TIP3   OH253314   7.455   1.700   8.683
17810TIP3    H153315   7.391   1.765   8.720
17810TIP3    H253316   7.493   1.750   8.608
17811TIP3   OH253317   7.218   1.049   8.653
17811TIP3    H153318   7.286   1.113   8.683
17811TIP3    H253319   7.263   1.004   8.581
17812TIP3   OH253320   7.279   1.898   8.778
17812TIP3    H153321   7.251   1.983   8.738
17812TIP3    H253322   7.200   1.880   8.833
17813TIP3   OH253323   6.673   1.585   8.013
17813TIP3    H153324   6.631   1.612   7.929
17813TIP3    H253325   6.704   1.670   8.049
17814TIP3   OH253326   8.108   2.094   8.242
17814TIP3    H153327   8.019   2.088   8.284
17814TIP3    H253328   8.106   2.186   8.210
17815TIP3   OH253329   7.814   2.146   7.925
17815TIP3    H153330   7.866   2.065   7.906
17815TIP3    H253331   7.875   2.213   7.886
17816TIP3   OH253332   7.961   1.930   7.834
17816TIP3    H153333   7.909   1.854   7.805
17816TIP3    H253334   7.996   1.898   7.920
17817TIP3   OH253335   7.632   1.410   7.855
17817TIP3    H153336   7.548   1.457   7.835
17817TIP3    H253337   7.672   1.403   7.767
17818TIP3   OH253338   7.584   1.190   7.584
17818TIP3    H153339   7.661   1.238   7.618
17818TIP3    H253340   7.626   1.123   7.527
17819TIP3   OH253341   7.977   1.490   7.825
17819TIP3    H153342   7.923   1.515   7.904
17819TIP3    H253343   8.060   1.463   7.870
17820TIP3   OH253344   7.214   1.489   8.241
17820TIP3    H153345   7.169   1.431   8.176
17820TIP3    H253346   7.286   1.432   8.272
17821TIP3   OH253347   7.339   1.899   8.391
17821TIP3    H153348   7.318   1.857   8.307
17821TIP3    H253349   7.429   1.865   8.409
17822TIP3   OH253350   7.341   1.458   8.601
17822TIP3    H153351   7.375   1.431   8.513
17822TIP3    H253352   7.391   1.541   8.618
17823TIP3   OH253353   7.868   2.098   8.369
17823TIP3    H153354   7.861   2.178   8.425
17823TIP3    H253355   7.857   2.025   8.433
17824TIP3   OH253356   7.484   2.017   8.916
17824TIP3    H153357   7.427   2.082   8.963
17824TIP3    H253358   7.417   1.973   8.859
17825TIP3   OH253359   7.824   1.337   7.653
17825TIP3    H153360   7.880   1.397   7.708
17825TIP3    H253361   7.851   1.365   7.562
17826TIP3   OH253362   7.233   1.573   9.023
17826TIP3    H153363   7.236   1.659   9.068
17826TIP3    H253364   7.137   1.556   9.026
17827TIP3   OH253365   7.562   2.027   7.928
17827TIP3    H153366   7.641   2.081   7.943
17827TIP3    H253367   7.501   2.089   7.887
17828TIP3   OH253368   7.279   2.177   9.006
17828TIP3    H153369   7.241   2.182   8.917
17828TIP3    H253370   7.200   2.160   9.062
17829TIP3   OH253371   7.077   1.339   8.046
17829TIP3    H153372   7.003   1.371   7.989
17829TIP3    H253373   7.054   1.246   8.059
17830TIP3   OH253374   8.132   1.955   7.247
17830TIP3    H153375   8.140   2.052   7.234
17830TIP3    H253376   8.225   1.927   7.236
17831TIP3   OH253377   6.855   1.715   8.953
17831TIP3    H153378   6.791   1.693   8.883
17831TIP3    H253379   6.894   1.628   8.975
17832TIP3   OH253380   6.712   1.908   8.587
17832TIP3    H153381   6.807   1.899   8.576
17832TIP3    H253382   6.706   1.987   8.643
17833TIP3   OH253383   7.685   2.142   8.782
17833TIP3    H153384   7.674   2.238   8.804
17833TIP3    H253385   7.611   2.103   8.833
17834TIP3   OH253386   7.443   2.274   7.730
17834TIP3    H153387   7.399   2.256   7.645
17834TIP3    H253388   7.411   2.363   7.753
17835TIP3   OH253389   6.880   2.123   8.114
17835TIP3    H153390   6.928   2.114   8.199
17835TIP3    H253391   6.827   2.041   8.115
17836TIP3   OH253392   7.645   2.175   7.370
17836TIP3    H153393   7.703   2.105   7.335
17836TIP3    H253394   7.678   2.184   7.462
17837TIP3   OH253395   7.694   2.222   7.640
17837TIP3    H153396   7.606   2.232   7.681
17837TIP3    H253397   7.745   2.185   7.714
17838TIP3   OH253398   7.057   1.900   8.937
17838TIP3    H153399   7.107   1.881   9.020
17838TIP3    H253400   6.983   1.835   8.945
17839TIP3   OH253401   7.897   1.385   7.392
17839TIP3    H153402   7.855   1.386   7.305
17839TIP3    H253403   7.975   1.443   7.376
17840TIP3   OH253404   7.401   1.230   8.744
17840TIP3    H153405   7.348   1.255   8.822
17840TIP3    H253406   7.389   1.310   8.689
17841TIP3   OH253407   7.261   1.149   8.253
17841TIP3    H153408   7.188   1.094   8.285
17841TIP3    H253409   7.287   1.101   8.172
17842TIP3   OH253410   7.772   1.214   7.986
17842TIP3    H153411   7.718   1.286   7.946
17842TIP3    H253412   7.817   1.177   7.907
17843TIP3   OH253413   7.941   1.245   8.206
17843TIP3    H153414   7.875   1.265   8.136
17843TIP3    H253415   7.943   1.149   8.202
17844TIP3   OH253416   7.200   1.273   8.935
17844TIP3    H153417   7.216   1.339   9.004
17844TIP3    H253418   7.157   1.200   8.981
17845TIP3   OH253419   7.033   0.998   8.327
17845TIP3    H153420   6.939   1.015   8.304
17845TIP3    H253421   7.039   0.903   8.314
17846TIP3   OH253422   7.324   1.021   8.016
17846TIP3    H153423   7.407   0.991   7.976
17846TIP3    H253424   7.260   1.012   7.943
17847TIP3   OH253425   7.144   1.035   7.801
17847TIP3    H153426   7.082   0.986   7.744
17847TIP3    H253427   7.204   1.070   7.732
17848TIP3   OH253428   8.261   2.751   8.737
17848TIP3    H153429   8.251   2.755   8.640
17848TIP3    H253430   8.338   2.808   8.748
17849TIP3   OH253431   7.212   1.821   9.151
17849TIP3    H153432   7.300   1.850   9.179
17849TIP3    H253433   7.161   1.825   9.234
17850TIP3   OH253434   7.694   1.274   8.431
17850TIP3    H153435   7.754   1.214   8.386
17850TIP3    H253436   7.685   1.231   8.519
17851TIP3   OH253437   7.671   1.172   8.706
17851TIP3    H153438   7.576   1.194   8.716
17851TIP3    H253439   7.709   1.215   8.785
17852TIP3   OH253440   7.403   1.561   7.801
17852TIP3    H153441   7.331   1.494   7.792
17852TIP3    H253442   7.385   1.595   7.892
17853TIP3   OH253443   8.306   1.757   8.416
17853TIP3    H153444   8.338   1.818   8.346
17853TIP3    H253445   8.213   1.741   8.390
17854TIP3   OH253446   7.827   1.893   8.792
17854TIP3    H153447   7.816   1.845   8.875
17854TIP3    H253448   7.767   1.969   8.801
17855TIP3   OH253449   7.917   1.091   7.752
17855TIP3    H153450   8.014   1.103   7.763
17855TIP3    H253451   7.892   1.175   7.709
17856TIP3   OH253452   7.094   1.584   8.476
17856TIP3    H153453   7.132   1.555   8.390
17856TIP3    H253454   7.135   1.521   8.537
17857TIP3   OH253455   7.542   1.711   7.611
17857TIP3    H153456   7.497   1.798   7.624
17857TIP3    H253457   7.493   1.657   7.677
17858TIP3   OH253458   6.967   1.498   9.091
17858TIP3    H153459   6.977   1.475   9.185
17858TIP3    H253460   6.895   1.438   9.062
17859TIP3   OH253461   7.940   2.157   8.669
17859TIP3    H153462   7.846   2.151   8.694
17859TIP3    H253463   7.969   2.239   8.710
17860TIP3   OH253464   8.378   1.209   7.599
17860TIP3    H153465   8.318   1.160   7.539
17860TIP3    H253466   8.370   1.298   7.559
17861TIP3   OH253467   8.069   2.030   7.512
17861TIP3    H153468   8.047   1.962   7.577
17861TIP3    H253469   8.085   1.980   7.430
17862TIP3   OH253470   8.046   1.665   8.338
17862TIP3    H153471   7.956   1.630   8.357
17862TIP3    H253472   8.090   1.586   8.304
17863TIP3   OH253473   7.194   1.886   8.104
17863TIP3    H153474   7.194   1.968   8.050
17863TIP3    H253475   7.100   1.869   8.113
17864TIP3   OH253476   6.760   1.187   7.810
17864TIP3    H153477   6.805   1.271   7.829
17864TIP3    H253478   6.682   1.194   7.869
17865TIP3   OH253479   7.334   1.653   8.046
17865TIP3    H153480   7.298   1.741   8.067
17865TIP3    H253481   7.299   1.599   8.120
17866TIP3   OH253482   7.461   2.232   8.571
17866TIP3    H153483   7.500   2.306   8.519
17866TIP3    H253484   7.540   2.199   8.616
17867TIP3   OH253485   7.113   2.126   7.956
17867TIP3    H153486   7.028   2.135   8.002
17867TIP3    H253487   7.146   2.218   7.959
17868TIP3   OH253488   7.850   1.863   8.522
17868TIP3    H153489   7.849   1.866   8.620
17868TIP3    H253490   7.925   1.805   8.503
17869TIP3   OH253491   7.822   1.747   7.416
17869TIP3    H153492   7.882   1.726   7.492
17869TIP3    H253493   7.737   1.734   7.460
17870TIP3   OH253494   8.074   2.415   8.591
17870TIP3    H153495   8.016   2.347   8.552
17870TIP3    H253496   8.090   2.469   8.511
17871TIP3   OH253497   8.166   2.231   7.234
17871TIP3    H153498   8.202   2.303   7.181
17871TIP3    H253499   8.086   2.277   7.269
17872TIP3   OH253500   7.984   1.685   7.626
17872TIP3    H153501   7.977   1.624   7.702
17872TIP3    H253502   8.081   1.689   7.615
17873TIP3   OH253503   6.900   2.093   8.733
17873TIP3    H153504   6.954   2.017   8.764
17873TIP3    H253505   6.931   2.162   8.792
17874TIP3   OH253506   7.210   1.735   7.415
17874TIP3    H153507   7.197   1.645   7.381
17874TIP3    H253508   7.180   1.726   7.508
17875TIP3   OH253509   7.139   1.742   7.683
17875TIP3    H153510   7.205   1.715   7.748
17875TIP3    H253511   7.142   1.840   7.691
17876TIP3   OH253512   6.870   1.435   7.887
17876TIP3    H153513   6.805   1.479   7.946
17876TIP3    H253514   6.885   1.507   7.822
17877TIP3   OH253515   7.405   1.942   7.638
17877TIP3    H153516   7.318   1.969   7.674
17877TIP3    H253517   7.418   2.009   7.570
17878TIP3   OH253518   7.619   0.994   8.048
17878TIP3    H153519   7.656   1.083   8.033
17878TIP3    H253520   7.567   1.006   8.129
17879TIP3   OH253521   7.147   2.015   7.702
17879TIP3    H153522   7.118   2.085   7.640
17879TIP3    H253523   7.131   2.058   7.789
17880TIP3   OH253524   8.156   1.412   8.231
17880TIP3    H153525   8.072   1.360   8.227
17880TIP3    H253526   8.207   1.359   8.295
17881TIP3   OH253527   6.865   1.645   7.694
17881TIP3    H153528   6.929   1.718   7.703
17881TIP3    H253529   6.911   1.592   7.626
17882TIP3   OH253530   6.777   0.897   7.813
17882TIP3    H153531   6.821   0.984   7.815
17882TIP3    H253532   6.694   0.917   7.857
17883TIP3   OH253533   8.116   2.370   8.171
17883TIP3    H153534   8.078   2.420   8.095
17883TIP3    H253535   8.211   2.387   8.158
17884TIP3   OH253536   6.738   1.863   8.083
17884TIP3    H153537   6.665   1.891   8.140
17884TIP3    H253538   6.711   1.901   7.997
17885TIP3   OH253539   6.893   2.402   9.157
17885TIP3    H153540   6.980   2.403   9.204
17885TIP3    H253541   6.875   2.306   9.154
17886TIP3   OH253542   7.365   2.374   9.187
17886TIP3    H153543   7.455   2.353   9.218
17886TIP3    H253544   7.352   2.306   9.119
17887TIP3   OH253545   7.368   1.945   7.333
17887TIP3    H153546   7.308   1.872   7.363
17887TIP3    H253547   7.430   1.896   7.275
17888TIP3   OH253548   7.792   1.981   7.236
17888TIP3    H153549   7.846   1.927   7.295
17888TIP3    H253550   7.846   1.984   7.155
17889TIP3   OH253551   7.024   1.815   9.350
17889TIP3    H153552   7.042   1.721   9.368
17889TIP3    H253553   6.936   1.811   9.306
17890TIP3   OH253554   7.006   1.460   7.542
17890TIP3    H153555   7.052   1.423   7.619
17890TIP3    H253556   7.079   1.464   7.478
17891TIP3   OH253557   7.500   1.827   9.114
17891TIP3    H153558   7.483   1.882   9.035
17891TIP3    H253559   7.545   1.749   9.075
17892TIP3   OH253560   7.511   1.594   7.359
17892TIP3    H153561   7.534   1.660   7.428
17892TIP3    H253562   7.428   1.564   7.396
17893TIP3   OH253563   7.151   1.541   9.346
17893TIP3    H153564   7.150   1.445   9.344
17893TIP3    H253565   7.131   1.560   9.440
17894TIP3   OH253566   7.209   1.364   7.771
17894TIP3    H153567   7.182   1.325   7.856
17894TIP3    H253568   7.243   1.285   7.723
17895TIP3   OH253569   7.458   1.413   8.990
17895TIP3    H153570   7.393   1.486   8.991
17895TIP3    H253571   7.521   1.443   8.921
17896TIP3   OH253572   7.307   1.158   7.613
17896TIP3    H153573   7.283   1.152   7.518
17896TIP3    H253574   7.405   1.162   7.608
17897TIP3   OH253575   8.133   1.486   7.273
17897TIP3    H153576   8.112   1.443   7.188
17897TIP3    H253577   8.101   1.577   7.254
17898TIP3   OH253578   7.632   1.503   8.765
17898TIP3    H153579   7.721   1.541   8.757
17898TIP3    H253580   7.574   1.576   8.737
17899TIP3   OH253581   7.115   2.216   7.514
17899TIP3    H153582   7.211   2.215   7.496
17899TIP3    H253583   7.085   2.263   7.434
17900TIP3   OH253584   6.596   1.600   7.731
17900TIP3    H153585   6.691   1.621   7.717
17900TIP3    H253586   6.589   1.511   7.690
17901TIP3   OH253587   6.510   2.212   8.144
17901TIP3    H153588   6.443   2.149   8.109
17901TIP3    H253589   6.555   2.155   8.211
17902TIP3   OH253590   6.644   2.065   8.333
17902TIP3    H153591   6.635   1.990   8.393
17902TIP3    H253592   6.698   2.125   8.387
17903TIP3   OH253593   8.374   2.457   8.133
17903TIP3    H153594   8.394   2.490   8.223
17903TIP3    H253595   8.426   2.516   8.078
17904TIP3   OH253596   8.404   2.493   8.413
17904TIP3    H153597   8.361   2.404   8.411
17904TIP3    H253598   8.486   2.471   8.461
17905TIP3   OH253599   8.258   1.682   7.591
17905TIP3    H153600   8.332   1.743   7.571
17905TIP3    H253601   8.292   1.637   7.672
17906TIP3   OH253602   8.358   1.533   7.789
17906TIP3    H153603   8.306   1.489   7.860
17906TIP3    H253604   8.436   1.568   7.838
17907TIP3   OH253605   8.433   1.920   8.226
17907TIP3    H153606   8.484   1.896   8.149
17907TIP3    H253607   8.402   2.008   8.201
17908TIP3   OH253608   8.276   2.252   8.413
17908TIP3    H153609   8.251   2.239   8.505
17908TIP3    H253610   8.234   2.177   8.368
17909TIP3   OH253611   8.330   1.445   7.457
17909TIP3    H153612   8.260   1.455   7.389
17909TIP3    H253613   8.307   1.520   7.515
17910TIP3   OH253614   8.213   1.115   7.403
17910TIP3    H153615   8.168   1.186   7.357
17910TIP3    H253616   8.169   1.037   7.367
17911TIP3   OH253617   8.201   1.393   7.963
17911TIP3    H153618   8.205   1.296   7.964
17911TIP3    H253619   8.191   1.413   8.059
17912TIP3   OH253620   6.831   1.469   8.704
17912TIP3    H153621   6.831   1.438   8.611
17912TIP3    H253622   6.929   1.477   8.720
17913TIP3   OH253623   8.185   1.116   7.786
17913TIP3    H153624   8.222   1.086   7.873
17913TIP3    H253625   8.263   1.154   7.742
17914TIP3   OH253626   6.826   1.127   8.783
17914TIP3    H153627   6.872   1.115   8.697
17914TIP3    H253628   6.854   1.216   8.806
17915TIP3   OH253629   7.957   2.330   7.788
17915TIP3    H153630   8.010   2.319   7.706
17915TIP3    H253631   8.008   2.397   7.836
17916TIP3   OH253632   7.061   2.133   9.178
17916TIP3    H153633   6.970   2.104   9.163
17916TIP3    H253634   7.072   2.116   9.273
17917TIP3   OH253635   7.236   2.168   8.720
17917TIP3    H153636   7.188   2.244   8.682
17917TIP3    H253637   7.322   2.182   8.675
17918TIP3   OH253638   7.668   2.409   8.833
17918TIP3    H153639   7.704   2.406   8.925
17918TIP3    H253640   7.737   2.464   8.789
17919TIP3   OH253641   7.863   2.561   8.717
17919TIP3    H153642   7.934   2.518   8.665
17919TIP3    H253643   7.917   2.617   8.777
17920TIP3   OH253644   6.912   2.423   8.745
17920TIP3    H153645   6.824   2.458   8.722
17920TIP3    H253646   6.925   2.462   8.832
17921TIP3   OH253647   7.149   2.402   8.603
17921TIP3    H153648   7.062   2.415   8.647
17921TIP3    H253649   7.130   2.435   8.513
17922TIP3   OH253650   7.573   2.431   8.401
17922TIP3    H153651   7.506   2.452   8.334
17922TIP3    H253652   7.587   2.518   8.443
17923TIP3   OH253653   7.840   2.368   8.448
17923TIP3    H153654   7.747   2.388   8.429
17923TIP3    H253655   7.886   2.444   8.409
17924TIP3   OH253656   8.052   2.562   8.364
17924TIP3    H153657   8.037   2.645   8.315
17924TIP3    H253658   8.077   2.499   8.293
17925TIP3   OH253659   6.824   2.217   8.491
17925TIP3    H153660   6.852   2.191   8.581
17925TIP3    H253661   6.896   2.173   8.439
17926TIP3   OH253662   7.018   2.089   8.348
17926TIP3    H153663   7.034   2.005   8.396
17926TIP3    H253664   7.109   2.125   8.342
17927TIP3   OH253665   7.283   2.183   8.350
17927TIP3    H153666   7.316   2.092   8.337
17927TIP3    H253667   7.329   2.205   8.433
17928TIP3   OH253668   6.613   1.987   7.880
17928TIP3    H153669   6.529   1.952   7.845
17928TIP3    H253670   6.599   2.082   7.869
17929TIP3   OH253671   7.385   2.183   7.465
17929TIP3    H153672   7.473   2.206   7.428
17929TIP3    H253673   7.365   2.106   7.407
17930TIP3   OH253674   8.105   2.297   7.556
17930TIP3    H153675   8.095   2.199   7.544
17930TIP3    H253676   8.058   2.330   7.476
17931TIP3   OH253677   6.689   2.015   7.520
17931TIP3    H153678   6.694   2.035   7.615
17931TIP3    H253679   6.776   1.972   7.504
17932TIP3   OH253680   8.247   2.479   8.795
17932TIP3    H153681   8.183   2.459   8.724
17932TIP3    H253682   8.269   2.573   8.777
17933TIP3   OH253683   8.547   1.294   7.799
17933TIP3    H153684   8.524   1.389   7.801
17933TIP3    H253685   8.498   1.265   7.721
17934TIP3   OH253686   8.606   1.601   7.870
17934TIP3    H153687   8.670   1.569   7.937
17934TIP3    H253688   8.664   1.652   7.813
17935TIP3   OH253689   9.388   2.042   7.438
17935TIP3    H153690   9.390   2.020   7.344
17935TIP3    H253691   9.380   2.139   7.432
17936TIP3   OH253692   8.472   1.844   7.500
17936TIP3    H153693   8.429   1.869   7.416
17936TIP3    H253694   8.500   1.930   7.535
17937TIP3   OH253695   9.381   1.455   7.047
17937TIP3    H153696   9.445   1.491   7.110
17937TIP3    H253697   9.403   1.360   7.045
17938TIP3   OH253698   9.361   2.314   7.417
17938TIP3    H153699   9.399   2.389   7.463
17938TIP3    H253700   9.298   2.356   7.356
17939TIP3   OH253701   8.878   1.594   7.531
17939TIP3    H153702   8.806   1.631   7.476
17939TIP3    H253703   8.849   1.503   7.544
17940TIP3   OH253704   8.506   2.171   8.072
17940TIP3    H153705   8.600   2.188   8.087
17940TIP3    H253706   8.467   2.238   8.129
17941TIP3   OH253707   9.242   2.529   7.220
17941TIP3    H153708   9.196   2.509   7.137
17941TIP3    H253709   9.208   2.618   7.243
17942TIP3   OH253710   8.676   2.380   7.598
17942TIP3    H153711   8.722   2.373   7.684
17942TIP3    H253712   8.615   2.306   7.604
17943TIP3   OH253713   9.442   2.434   6.856
17943TIP3    H153714   9.500   2.363   6.821
17943TIP3    H253715   9.475   2.443   6.947
17944TIP3   OH253716   9.492   2.482   7.124
17944TIP3    H153717   9.404   2.487   7.167
17944TIP3    H253718   9.548   2.451   7.197
17945TIP3   OH253719   9.671   1.666   6.873
17945TIP3    H153720   9.657   1.622   6.787
17945TIP3    H253721   9.757   1.707   6.860
17946TIP3   OH253722   8.911   1.307   7.279
17946TIP3    H153723   8.866   1.250   7.213
17946TIP3    H253724   8.991   1.329   7.229
17947TIP3   OH253725   9.172   1.844   7.288
17947TIP3    H153726   9.125   1.759   7.276
17947TIP3    H253727   9.172   1.853   7.385
17948TIP3   OH253728   9.333   1.964   7.100
17948TIP3    H153729   9.293   2.053   7.115
17948TIP3    H253730   9.283   1.911   7.165
17949TIP3   OH253731   9.896   2.273   6.928
17949TIP3    H153732   9.892   2.262   7.026
17949TIP3    H253733   9.819   2.222   6.903
17950TIP3   OH253734   8.990   2.142   7.566
17950TIP3    H153735   8.985   2.229   7.521
17950TIP3    H253736   8.897   2.128   7.588
17951TIP3   OH253737   8.553   1.445   7.293
17951TIP3    H153738   8.603   1.526   7.313
17951TIP3    H253739   8.478   1.453   7.356
17952TIP3   OH253740   9.123   1.897   7.565
17952TIP3    H153741   9.105   1.991   7.545
17952TIP3    H253742   9.056   1.882   7.632
17953TIP3   OH253743   8.912   2.384   7.445
17953TIP3    H153744   8.825   2.393   7.488
17953TIP3    H253745   8.943   2.477   7.447
17954TIP3   OH253746   9.613   2.027   6.918
17954TIP3    H153747   9.655   1.981   6.992
17954TIP3    H253748   9.522   1.998   6.930
17955TIP3   OH253749   8.709   2.334   8.204
17955TIP3    H153750   8.757   2.259   8.241
17955TIP3    H253751   8.759   2.406   8.246
17956TIP3   OH253752   8.989   1.994   6.901
17956TIP3    H153753   9.003   1.902   6.872
17956TIP3    H253754   8.968   1.981   6.996
17957TIP3   OH253755   8.934   1.997   7.174
17957TIP3    H153756   9.013   1.966   7.220
17957TIP3    H253757   8.941   2.095   7.184
17958TIP3   OH253758   8.668   1.692   7.375
17958TIP3    H153759   8.602   1.737   7.432
17958TIP3    H253760   8.683   1.760   7.308
17959TIP3   OH253761   9.203   2.202   7.131
17959TIP3    H153762   9.113   2.226   7.159
17959TIP3    H253763   9.216   2.264   7.058
17960TIP3   OH253764   8.945   2.272   7.190
17960TIP3    H153765   8.914   2.341   7.126
17960TIP3    H253766   8.927   2.317   7.275
17961TIP3   OH253767   8.660   1.902   7.182
17961TIP3    H153768   8.727   1.972   7.191
17961TIP3    H253769   8.706   1.847   7.114
17962TIP3   OH253770   8.578   1.149   7.301
17962TIP3    H153771   8.633   1.229   7.301
17962TIP3    H253772   8.499   1.182   7.346
17963TIP3   OH253773   8.532   2.113   7.570
17963TIP3    H153774   8.464   2.146   7.630
17963TIP3    H253775   8.505   2.155   7.486
17964TIP3   OH253776   9.153   2.198   6.817
17964TIP3    H153777   9.096   2.125   6.851
17964TIP3    H253778   9.227   2.147   6.779
17965TIP3   OH253779   9.588   2.236   6.736
17965TIP3    H153780   9.622   2.156   6.780
17965TIP3    H253781   9.629   2.234   6.647
17966TIP3   OH253782   8.795   1.715   7.034
17966TIP3    H153783   8.850   1.680   7.107
17966TIP3    H253784   8.863   1.720   6.963
17967TIP3   OH253785   9.305   1.910   6.837
17967TIP3    H153786   9.308   1.924   6.934
17967TIP3    H253787   9.303   1.812   6.833
17968TIP3   OH253788   9.016   1.615   7.262
17968TIP3    H153789   8.976   1.572   7.339
17968TIP3    H253790   9.043   1.539   7.208
17969TIP3   OH253791   9.104   1.409   7.096
17969TIP3    H153792   9.073   1.416   7.004
17969TIP3    H253793   9.200   1.425   7.084
17970TIP3   OH253794   8.913   2.474   7.002
17970TIP3    H153795   9.008   2.471   6.982
17970TIP3    H253796   8.882   2.523   6.924
17971TIP3   OH253797   8.392   1.856   7.219
17971TIP3    H153798   8.487   1.879   7.205
17971TIP3    H253799   8.387   1.767   7.177
17972TIP3   OH253800   8.309   2.468   7.631
17972TIP3    H153801   8.240   2.407   7.595
17972TIP3    H253802   8.352   2.409   7.697
17973TIP3   OH253803   8.445   2.318   7.817
17973TIP3    H153804   8.428   2.249   7.883
17973TIP3    H253805   8.493   2.382   7.872
17974TIP3   OH253806   9.727   2.585   7.307
17974TIP3    H153807   9.767   2.560   7.220
17974TIP3    H253808   9.784   2.659   7.334
17975TIP3   OH253809   8.701   2.747   8.199
17975TIP3    H153810   8.603   2.755   8.194
17975TIP3    H253811   8.712   2.696   8.280
17976TIP3   OH253812   8.921   2.655   8.061
17976TIP3    H153813   8.846   2.706   8.099
17976TIP3    H253814   8.920   2.689   7.970
17977TIP3   OH253815   8.622   2.475   7.975
17977TIP3    H153816   8.641   2.445   8.065
17977TIP3    H253817   8.696   2.433   7.927
17978TIP3   OH253818   8.820   2.348   7.829
17978TIP3    H153819   8.854   2.262   7.859
17978TIP3    H253820   8.904   2.398   7.820
17979TIP3   OH253821   9.080   2.445   7.836
17979TIP3    H153822   9.132   2.363   7.835
17979TIP3    H253823   9.091   2.474   7.927
17980TIP3   OH253824   8.409   2.246   7.370
17980TIP3    H153825   8.324   2.213   7.335
17980TIP3    H253826   8.399   2.340   7.350
17981TIP3   OH253827   9.182   2.435   6.951
17981TIP3    H153828   9.269   2.458   6.913
17981TIP3    H253829   9.159   2.360   6.892
17982TIP3   OH253830   9.837   2.526   7.068
17982TIP3    H153831   9.871   2.446   7.025
17982TIP3    H253832   9.805   2.576   6.990
17983TIP3   OH253833   8.484   2.270   7.006
17983TIP3    H153834   8.484   2.298   7.098
17983TIP3    H253835   8.573   2.230   6.996
17984TIP3   OH253836   2.280   2.942   8.978
17984TIP3    H153837   2.195   2.916   8.941
17984TIP3    H253838   2.254   2.976   9.063
17985TIP3   OH253839   1.844   2.243   8.746
17985TIP3    H153840   1.909   2.293   8.799
17985TIP3    H253841   1.903   2.181   8.698
17986TIP3   OH253842   2.076   2.389   8.833
17986TIP3    H153843   2.121   2.456   8.886
17986TIP3    H253844   2.098   2.418   8.741
17987TIP3   OH253845   2.382   3.001   8.428
17987TIP3    H153846   2.390   3.098   8.411
17987TIP3    H253847   2.475   2.972   8.414
17988TIP3   OH253848   1.680   3.310   8.908
17988TIP3    H153849   1.646   3.297   8.817
17988TIP3    H253850   1.658   3.404   8.924
17989TIP3   OH253851   1.894   3.218   8.546
17989TIP3    H153852   1.953   3.150   8.507
17989TIP3    H253853   1.932   3.230   8.635
17990TIP3   OH253854   1.939   3.273   8.817
17990TIP3    H153855   1.851   3.275   8.860
17990TIP3    H253856   1.991   3.222   8.881
17991TIP3   OH253857   2.142   2.445   8.574
17991TIP3    H153858   2.109   2.416   8.487
17991TIP3    H253859   2.225   2.488   8.549
17992TIP3   OH253860   3.968   3.795  -0.605
17992TIP3    H153861   3.889   3.806  -0.552
17992TIP3    H253862   4.019   3.873  -0.576
17993TIP3   OH253863   2.182   2.143   8.902
17993TIP3    H153864   2.273   2.148   8.933
17993TIP3    H253865   2.156   2.235   8.886
17994TIP3   OH253866   1.799   2.753   8.787
17994TIP3    H153867   1.751   2.838   8.798
17994TIP3    H253868   1.759   2.698   8.855
17995TIP3   OH253869   2.636   2.262   8.768
17995TIP3    H153870   2.566   2.210   8.722
17995TIP3    H253871   2.617   2.349   8.726
17996TIP3   OH253872   2.312   3.074   8.691
17996TIP3    H153873   2.313   3.001   8.756
17996TIP3    H253874   2.330   3.028   8.607
17997TIP3   OH253875   2.071   2.803   8.586
17997TIP3    H153876   2.129   2.770   8.659
17997TIP3    H253877   1.985   2.773   8.618
17998TIP3   OH253878   2.414   3.276   8.411
17998TIP3    H153879   2.451   3.348   8.356
17998TIP3    H253880   2.334   3.322   8.443
17999TIP3   OH253881   2.229   2.717   8.793
17999TIP3    H153882   2.215   2.705   8.888
17999TIP3    H253883   2.327   2.723   8.788
18000TIP3   OH253884   1.445   2.782   8.593
18000TIP3    H153885   1.462   2.699   8.545
18000TIP3    H253886   1.414   2.748   8.678
18001TIP3   OH253887   1.635   2.977   8.799
18001TIP3    H153888   1.541   3.003   8.792
18001TIP3    H253889   1.672   3.029   8.726
18002TIP3   OH253890   1.368   3.069   8.868
18002TIP3    H153891   1.353   3.131   8.792
18002TIP3    H253892   1.337   3.124   8.940
18003TIP3   OH253893   1.608   2.987   8.503
18003TIP3    H153894   1.553   2.912   8.537
18003TIP3    H253895   1.679   2.939   8.457
18004TIP3   OH253896   2.041   3.028   8.414
18004TIP3    H153897   2.084   2.963   8.472
18004TIP3    H253898   2.097   3.027   8.334
18005TIP3   OH253899   1.244   2.493   8.710
18005TIP3    H153900   1.290   2.448   8.782
18005TIP3    H253901   1.315   2.499   8.643
18006TIP3   OH253902   1.753   2.697   8.523
18006TIP3    H153903   1.764   2.711   8.620
18006TIP3    H253904   1.758   2.599   8.519
18007TIP3   OH253905   1.562   2.182   8.783
18007TIP3    H153906   1.532   2.200   8.693
18007TIP3    H253907   1.656   2.208   8.780
18008TIP3   OH253908   2.379   2.531   8.450
18008TIP3    H153909   2.358   2.485   8.366
18008TIP3    H253910   2.347   2.621   8.426
18009TIP3   OH253911   1.364   3.262   8.680
18009TIP3    H153912   1.460   3.268   8.663
18009TIP3    H253913   1.331   3.315   8.605
18010TIP3   OH253914   2.510   2.725   8.778
18010TIP3    H153915   2.579   2.787   8.747
18010TIP3    H253916   2.557   2.681   8.852
18011TIP3   OH253917   2.646   2.590   8.968
18011TIP3    H153918   2.592   2.556   9.042
18011TIP3    H253919   2.726   2.626   9.012
18012TIP3   OH253920   2.579   2.497   8.632
18012TIP3    H153921   2.507   2.497   8.565
18012TIP3    H253922   2.550   2.573   8.686
18013TIP3   OH253923   2.451   2.169   8.592
18013TIP3    H153924   2.408   2.203   8.512
18013TIP3    H253925   2.428   2.073   8.585
18014TIP3   OH253926   2.393   1.904   8.573
18014TIP3    H153927   2.475   1.876   8.620
18014TIP3    H253928   2.327   1.838   8.601
18015TIP3   OH253929   2.644   1.858   8.678
18015TIP3    H153930   2.691   1.775   8.660
18015TIP3    H253931   2.717   1.921   8.686
18016TIP3   OH253932   2.210   3.382   8.965
18016TIP3    H153933   2.256   3.368   8.879
18016TIP3    H253934   2.265   3.453   9.004
18017TIP3   OH253935   1.635   3.229   8.635
18017TIP3    H153936   1.724   3.249   8.600
18017TIP3    H253937   1.610   3.157   8.574
18018TIP3   OH253938   2.351   3.340   8.732
18018TIP3    H153939   2.342   3.243   8.718
18018TIP3    H253940   2.309   3.374   8.650
18019TIP3   OH253941   0.938   3.045   8.704
18019TIP3    H153942   0.948   3.099   8.784
18019TIP3    H253943   1.030   3.014   8.686
18020TIP3   OH253944   3.847   2.858   8.686
18020TIP3    H153945   3.816   2.949   8.665
18020TIP3    H253946   3.769   2.807   8.656
18021TIP3   OH253947   3.836   2.861   9.049
18021TIP3    H153948   3.856   2.834   9.141
18021TIP3    H253949   3.796   2.780   9.014
18022TIP3   OH253950   4.089   3.160   8.748
18022TIP3    H153951   4.069   3.091   8.812
18022TIP3    H253952   4.118   3.234   8.803
18023TIP3   OH253953   3.129   3.154   9.181
18023TIP3    H153954   3.118   3.061   9.151
18023TIP3    H253955   3.222   3.172   9.155
18024TIP3   OH253956   2.829   2.364   8.930
18024TIP3    H153957   2.784   2.448   8.948
18024TIP3    H253958   2.765   2.324   8.868
18025TIP3   OH253959   2.906   2.648   9.038
18025TIP3    H153960   2.946   2.579   9.091
18025TIP3    H253961   2.974   2.669   8.974
18026TIP3   OH253962   3.737   3.623   8.764
18026TIP3    H153963   3.782   3.551   8.715
18026TIP3    H253964   3.725   3.582   8.851
18027TIP3   OH253965   3.642   3.078   9.096
18027TIP3    H153966   3.685   3.002   9.053
18027TIP3    H253967   3.721   3.123   9.129
18028TIP3   OH253968   4.670   2.410   9.110
18028TIP3    H153969   4.695   2.497   9.147
18028TIP3    H253970   4.688   2.426   9.015
18029TIP3   OH253971   4.074   2.582   9.156
18029TIP3    H153972   4.104   2.488   9.159
18029TIP3    H253973   4.036   2.583   9.066
18030TIP3   OH253974   3.437   2.246   9.070
18030TIP3    H153975   3.379   2.312   9.029
18030TIP3    H253976   3.376   2.207   9.138
18031TIP3   OH253977   4.089   2.336   8.738
18031TIP3    H153978   4.162   2.318   8.803
18031TIP3    H253979   4.141   2.369   8.663
18032TIP3   OH253980   3.477   2.646   8.964
18032TIP3    H153981   3.567   2.612   8.981
18032TIP3    H253982   3.426   2.564   8.946
18033TIP3   OH253983   4.744   2.623   9.264
18033TIP3    H153984   4.658   2.668   9.251
18033TIP3    H253985   4.728   2.575   9.347
18034TIP3   OH253986   3.737   3.079   8.556
18034TIP3    H153987   3.693   3.058   8.473
18034TIP3    H253988   3.692   3.163   8.581
18035TIP3   OH253989   4.299   2.334   8.914
18035TIP3    H153990   4.300   2.289   9.000
18035TIP3    H253991   4.353   2.412   8.933
18036TIP3   OH253992   2.717   2.887   8.675
18036TIP3    H153993   2.678   2.914   8.590
18036TIP3    H253994   2.748   2.973   8.712
18037TIP3   OH253995   4.161   3.403   8.916
18037TIP3    H153996   4.070   3.395   8.954
18037TIP3    H253997   4.153   3.488   8.869
18038TIP3   OH253998   4.444   2.265   9.193
18038TIP3    H153999   4.373   2.324   9.218
18038TIP3    H254000   4.516   2.324   9.161
18039TIP3   OH254001   3.861   3.448   8.592
18039TIP3    H154002   3.909   3.366   8.570
18039TIP3    H254003   3.921   3.514   8.550
18040TIP3   OH254004   4.002   3.234   8.496
18040TIP3    H154005   3.964   3.155   8.457
18040TIP3    H254006   4.038   3.199   8.581
18041TIP3   OH254007   4.380   3.312   9.264
18041TIP3    H154008   4.370   3.236   9.202
18041TIP3    H254009   4.363   3.388   9.203
18042TIP3   OH254010   3.676   2.709   8.518
18042TIP3    H154011   3.595   2.760   8.497
18042TIP3    H254012   3.721   2.706   8.431
18043TIP3   OH254013   3.634   2.494   8.233
18043TIP3    H154014   3.701   2.544   8.281
18043TIP3    H254015   3.691   2.430   8.186
18044TIP3   OH254016   4.581   2.953   9.106
18044TIP3    H154017   4.496   3.001   9.115
18044TIP3    H254018   4.606   2.978   9.015
18045TIP3   OH254019   4.023   2.792   8.488
18045TIP3    H154020   3.968   2.816   8.566
18045TIP3    H254021   4.107   2.766   8.533
18046TIP3   OH254022   4.307   2.902   9.324
18046TIP3    H154023   4.311   2.923   9.418
18046TIP3    H254024   4.222   2.858   9.314
18047TIP3   OH254025   3.250   2.789   8.903
18047TIP3    H154026   3.208   2.732   8.834
18047TIP3    H254027   3.331   2.738   8.923
18048TIP3   OH254028   3.381   3.198   9.052
18048TIP3    H154029   3.368   3.159   8.965
18048TIP3    H254030   3.468   3.159   9.078
18049TIP3   OH254031   3.445   2.775   9.206
18049TIP3    H154032   3.480   2.744   9.122
18049TIP3    H254033   3.521   2.808   9.254
18050TIP3   OH254034   3.919   3.403   9.033
18050TIP3    H154035   3.894   3.480   9.085
18050TIP3    H254036   3.895   3.327   9.090
18051TIP3   OH254037   3.864   2.649   8.315
18051TIP3    H154038   3.922   2.709   8.366
18051TIP3    H254039   3.890   2.672   8.222
18052TIP3   OH254040   3.606   3.329   8.591
18052TIP3    H154041   3.685   3.384   8.606
18052TIP3    H254042   3.545   3.391   8.550
18053TIP3   OH254043   4.380   1.891   8.364
18053TIP3    H154044   4.297   1.910   8.414
18053TIP3    H254045   4.391   1.974   8.314
18054TIP3   OH254046   3.113   2.636   8.716
18054TIP3    H154047   3.047   2.676   8.655
18054TIP3    H254048   3.087   2.543   8.717
18055TIP3   OH254049   4.178   3.257   7.911
18055TIP3    H154050   4.186   3.354   7.897
18055TIP3    H254051   4.270   3.228   7.899
18056TIP3   OH254052   4.627   3.663   9.299
18056TIP3    H154053   4.624   3.567   9.317
18056TIP3    H254054   4.542   3.690   9.341
18057TIP3   OH254055   3.730   3.479   9.428
18057TIP3    H154056   3.687   3.563   9.451
18057TIP3    H254057   3.658   3.416   9.439
18058TIP3   OH254058   3.488   3.575   8.393
18058TIP3    H154059   3.442   3.557   8.310
18058TIP3    H254060   3.455   3.664   8.417
18059TIP3   OH254061   2.926   3.425   8.778
18059TIP3    H154062   2.974   3.415   8.863
18059TIP3    H254063   2.865   3.350   8.784
18060TIP3   OH254064   3.689   3.476   8.032
18060TIP3    H154065   3.748   3.407   7.996
18060TIP3    H254066   3.723   3.486   8.124
18061TIP3   OH254067   3.739   3.524   8.302
18061TIP3    H154068   3.651   3.534   8.344
18061TIP3    H254069   3.789   3.483   8.375
18062TIP3   OH254070   3.939   2.697   8.059
18062TIP3    H154071   3.906   2.671   7.971
18062TIP3    H254072   4.021   2.744   8.034
18063TIP3   OH254073   3.653   2.072   8.361
18063TIP3    H154074   3.619   2.068   8.453
18063TIP3    H254075   3.613   1.989   8.327
18064TIP3   OH254076   3.305   2.438   8.914
18064TIP3    H154077   3.219   2.399   8.941
18064TIP3    H254078   3.319   2.392   8.828
18065TIP3   OH254079   3.816   2.512   8.652
18065TIP3    H154080   3.762   2.582   8.610
18065TIP3    H254081   3.869   2.480   8.576
18066TIP3   OH254082   3.976   2.541   8.891
18066TIP3    H154083   3.913   2.569   8.822
18066TIP3    H254084   4.007   2.458   8.848
18067TIP3   OH254085   3.308   2.045   8.325
18067TIP3    H154086   3.301   2.041   8.422
18067TIP3    H254087   3.227   2.095   8.303
18068TIP3   OH254088   2.829   2.065   8.712
18068TIP3    H154089   2.874   2.103   8.634
18068TIP3    H254090   2.766   2.138   8.732
18069TIP3   OH254091   3.923   2.768   9.290
18069TIP3    H154092   3.992   2.710   9.252
18069TIP3    H254093   3.971   2.816   9.360
18070TIP3   OH254094   3.684   2.252   8.963
18070TIP3    H154095   3.592   2.247   9.002
18070TIP3    H254096   3.740   2.235   9.041
18071TIP3   OH254097   3.089   2.294   8.996
18071TIP3    H154098   2.997   2.302   8.962
18071TIP3    H254099   3.113   2.202   8.973
18072TIP3   OH254100   3.353   2.300   8.683
18072TIP3    H154101   3.447   2.312   8.660
18072TIP3    H254102   3.307   2.318   8.598
18073TIP3   OH254103   4.135   2.320   9.176
18073TIP3    H154104   4.103   2.302   9.267
18073TIP3    H254105   4.083   2.254   9.127
18074TIP3   OH254106   3.193   2.336   8.461
18074TIP3    H154107   3.121   2.289   8.416
18074TIP3    H254108   3.245   2.369   8.384
18075TIP3   OH254109   4.302   4.022   9.397
18075TIP3    H154110   4.315   4.029   9.300
18075TIP3    H254111   4.388   4.058   9.429
18076TIP3   OH254112   3.729   2.585   9.053
18076TIP3    H154113   3.800   2.531   9.013
18076TIP3    H254114   3.725   2.551   9.144
18077TIP3   OH254115   3.225   2.047   8.938
18077TIP3    H154116   3.233   1.959   8.975
18077TIP3    H254117   3.314   2.062   8.904
18078TIP3   OH254118   3.446   2.862   8.466
18078TIP3    H154119   3.374   2.796   8.455
18078TIP3    H254120   3.427   2.895   8.557
18079TIP3   OH254121   4.349   3.103   9.093
18079TIP3    H154122   4.370   3.150   9.009
18079TIP3    H254123   4.265   3.057   9.072
18080TIP3   OH254124   3.904   2.174   8.328
18080TIP3    H154125   3.807   2.155   8.337
18080TIP3    H254126   3.911   2.268   8.354
18081TIP3   OH254127   3.973   2.422   8.433
18081TIP3    H154128   4.070   2.428   8.448
18081TIP3    H254129   3.954   2.501   8.380
18082TIP3   OH254130   3.115   2.886   9.122
18082TIP3    H154131   3.162   2.859   9.040
18082TIP3    H254132   3.142   2.818   9.184
18083TIP3   OH254133   3.591   3.011   8.288
18083TIP3    H154134   3.543   3.097   8.293
18083TIP3    H254135   3.536   2.956   8.348
18084TIP3   OH254136   4.002   3.409   9.396
18084TIP3    H154137   3.912   3.442   9.383
18084TIP3    H254138   4.050   3.487   9.424
18085TIP3   OH254139   4.416   2.512   8.268
18085TIP3    H154140   4.354   2.467   8.206
18085TIP3    H254141   4.413   2.601   8.227
18086TIP3   OH254142   4.628   3.371   9.350
18086TIP3    H154143   4.530   3.367   9.334
18086TIP3    H254144   4.659   3.343   9.261
18087TIP3   OH254145   4.117   3.330   8.177
18087TIP3    H154146   4.090   3.260   8.237
18087TIP3    H254147   4.128   3.284   8.092
18088TIP3   OH254148   4.106   2.957   9.021
18088TIP3    H154149   4.012   2.934   9.020
18088TIP3    H254150   4.144   2.880   8.974
18089TIP3   OH254151   3.239   3.187   8.766
18089TIP3    H154152   3.240   3.269   8.713
18089TIP3    H254153   3.144   3.172   8.776
18090TIP3   OH254154   2.801   2.493   8.470
18090TIP3    H154155   2.847   2.577   8.491
18090TIP3    H254156   2.724   2.498   8.531
18091TIP3   OH254157   3.377   2.953   8.711
18091TIP3    H154158   3.341   3.042   8.730
18091TIP3    H254159   3.342   2.902   8.786
18092TIP3   OH254160   3.513   3.540   9.234
18092TIP3    H154161   3.545   3.614   9.180
18092TIP3    H254162   3.596   3.496   9.257
18093TIP3   OH254163   3.159   3.426   8.619
18093TIP3    H154164   3.073   3.435   8.666
18093TIP3    H254165   3.191   3.519   8.622
18094TIP3   OH254166   3.894   3.172   9.186
18094TIP3    H154167   3.898   3.177   9.283
18094TIP3    H254168   3.974   3.121   9.165
18095TIP3   OH254169   3.871   3.058   8.078
18095TIP3    H154170   3.924   3.033   8.157
18095TIP3    H254171   3.783   3.031   8.106
18096TIP3   OH254172   4.129   3.693   9.244
18096TIP3    H154173   4.045   3.656   9.212
18096TIP3    H254174   4.138   3.768   9.182
18097TIP3   OH254175   4.210   3.533   7.898
18097TIP3    H154176   4.248   3.605   7.844
18097TIP3    H254177   4.130   3.578   7.931
18098TIP3   OH254178   4.031   2.993   8.295
18098TIP3    H154179   4.021   2.926   8.365
18098TIP3    H254180   4.128   2.990   8.282
18099TIP3   OH254181   3.237   3.039   8.077
18099TIP3    H154182   3.251   2.946   8.049
18099TIP3    H254183   3.218   3.027   8.172
18100TIP3   OH254184   3.183   3.044   8.349
18100TIP3    H154185   3.254   3.016   8.408
18100TIP3    H254186   3.186   3.142   8.357
18101TIP3   OH254187   2.916   2.737   8.551
18101TIP3    H154188   2.850   2.782   8.609
18101TIP3    H254189   2.930   2.807   8.485
18102TIP3   OH254190   3.948   2.126   8.610
18102TIP3    H154191   3.933   2.148   8.516
18102TIP3    H254192   3.985   2.209   8.645
18103TIP3   OH254193   3.449   3.242   8.299
18103TIP3    H154194   3.362   3.268   8.334
18103TIP3    H254195   3.464   3.314   8.236
18104TIP3   OH254196   3.638   2.307   8.702
18104TIP3    H154197   3.701   2.380   8.684
18104TIP3    H254198   3.650   2.297   8.799
18105TIP3   OH254199   3.785   2.034   8.818
18105TIP3    H154200   3.766   2.118   8.866
18105TIP3    H254201   3.845   2.067   8.747
18106TIP3   OH254202   3.192   3.316   8.366
18106TIP3    H154203   3.162   3.386   8.303
18106TIP3    H254204   3.176   3.360   8.452
18107TIP3   OH254205   3.293   2.030   8.597
18107TIP3    H154206   3.287   2.116   8.644
18107TIP3    H254207   3.387   2.009   8.612
18108TIP3   OH254208   4.197   2.720   8.890
18108TIP3    H154209   4.122   2.658   8.895
18108TIP3    H254210   4.268   2.670   8.937
18109TIP3   OH254211   2.909   2.947   8.358
18109TIP3    H154212   2.976   3.018   8.367
18109TIP3    H254213   2.955   2.891   8.291
18110TIP3   OH254214   2.857   2.224   8.487
18110TIP3    H154215   2.852   2.321   8.485
18110TIP3    H254216   2.771   2.199   8.451
18111TIP3   OH254217   4.165   3.675   8.839
18111TIP3    H154218   4.122   3.721   8.764
18111TIP3    H254219   4.259   3.693   8.818
18112TIP3   OH254220   2.779   3.157   8.746
18112TIP3    H154221   2.708   3.192   8.801
18112TIP3    H254222   2.758   3.199   8.660
18113TIP3   OH254223   3.400   3.242   7.990
18113TIP3    H154224   3.344   3.171   8.028
18113TIP3    H254225   3.475   3.190   7.958
18114TIP3   OH254226   3.836   3.283   7.902
18114TIP3    H154227   3.880   3.219   7.960
18114TIP3    H254228   3.893   3.282   7.822
18115TIP3   OH254229   3.045   2.760   8.211
18115TIP3    H154230   3.099   2.726   8.284
18115TIP3    H254231   3.112   2.764   8.140
18116TIP3   OH254232   3.556   2.958   8.018
18116TIP3    H154233   3.557   2.971   8.115
18116TIP3    H254234   3.555   2.860   8.013
18117TIP3   OH254235   4.144   3.167   9.386
18117TIP3    H154236   4.235   3.190   9.360
18117TIP3    H254237   4.106   3.257   9.391
18118TIP3   OH254238   3.254   2.663   8.433
18118TIP3    H154239   3.228   2.619   8.516
18118TIP3    H254240   3.290   2.588   8.381
18119TIP3   OH254241   3.354   2.457   8.273
18119TIP3    H154242   3.328   2.461   8.179
18119TIP3    H254243   3.451   2.461   8.266
18120TIP3   OH254244   4.176   2.788   7.937
18120TIP3    H154245   4.154   2.742   7.853
18120TIP3    H254246   4.143   2.878   7.914
18121TIP3   OH254247   3.161   3.519   8.178
18121TIP3    H154248   3.256   3.515   8.159
18121TIP3    H254249   3.130   3.568   8.100
18122TIP3   OH254250   2.641   2.901   8.396
18122TIP3    H154251   2.736   2.922   8.380
18122TIP3    H254252   2.635   2.812   8.354
18123TIP3   OH254253   2.557   3.513   8.804
18123TIP3    H154254   2.491   3.450   8.769
18123TIP3    H254255   2.602   3.458   8.871
18124TIP3   OH254256   2.692   3.372   8.993
18124TIP3    H154257   2.670   3.304   9.058
18124TIP3    H254258   2.731   3.439   9.052
18125TIP3   OH254259   4.418   3.765   8.795
18125TIP3    H154260   4.447   3.796   8.882
18125TIP3    H254261   4.481   3.808   8.735
18126TIP3   OH254262   4.449   3.785   9.074
18126TIP3    H154263   4.407   3.697   9.070
18126TIP3    H254264   4.519   3.766   9.139
18127TIP3   OH254265   4.310   2.975   8.270
18127TIP3    H154266   4.378   3.039   8.241
18127TIP3    H254267   4.354   2.936   8.349
18128TIP3   OH254268   4.438   2.842   8.474
18128TIP3    H154269   4.372   2.800   8.532
18128TIP3    H254270   4.502   2.880   8.538
18129TIP3   OH254271   4.495   3.237   8.902
18129TIP3    H154272   4.546   3.171   8.852
18129TIP3    H254273   4.489   3.311   8.838
18130TIP3   OH254274   4.324   3.534   9.103
18130TIP3    H154275   4.251   3.576   9.152
18130TIP3    H254276   4.276   3.488   9.031
18131TIP3   OH254277   4.376   2.750   8.120
18131TIP3    H154278   4.305   2.752   8.053
18131TIP3    H254279   4.348   2.826   8.175
18132TIP3   OH254280   4.248   2.423   8.075
18132TIP3    H154281   4.204   2.460   7.998
18132TIP3    H254282   4.223   2.328   8.067
18133TIP3   OH254283   4.253   2.699   8.620
18133TIP3    H154284   4.259   2.602   8.613
18133TIP3    H254285   4.239   2.712   8.717
18134TIP3   OH254286   4.540   3.116   9.457
18134TIP3    H154287   4.599   3.064   9.400
18134TIP3    H254288   4.544   3.204   9.416
18135TIP3   OH254289   4.731   2.907   9.447
18135TIP3    H154290   4.649   2.860   9.460
18135TIP3    H254291   4.797   2.834   9.455
18136TIP3   OH254292   4.190   2.157   8.061
18136TIP3    H154293   4.264   2.125   8.116
18136TIP3    H254294   4.117   2.098   8.084
18137TIP3   OH254295   4.249   2.416   8.516
18137TIP3    H154296   4.288   2.326   8.530
18137TIP3    H254297   4.307   2.447   8.444
18138TIP3   OH254298   4.411   2.590   9.011
18138TIP3    H154299   4.496   2.615   8.967
18138TIP3    H254300   4.428   2.626   9.100
18139TIP3   OH254301   4.496   2.732   9.243
18139TIP3    H154302   4.418   2.779   9.281
18139TIP3    H254303   4.529   2.806   9.187
18140TIP3   OH254304   4.355   2.166   8.551
18140TIP3    H154305   4.405   2.149   8.633
18140TIP3    H254306   4.295   2.088   8.550
18141TIP3   OH254307   4.439   2.099   8.185
18141TIP3    H154308   4.477   2.027   8.132
18141TIP3    H254309   4.507   2.169   8.177
18142TIP3   OH254310   2.865   1.973   8.969
18142TIP3    H154311   2.804   1.898   8.971
18142TIP3    H254312   2.860   2.003   8.876
18143TIP3   OH254313   4.004   3.631   8.453
18143TIP3    H154314   4.053   3.617   8.369
18143TIP3    H254315   4.057   3.699   8.496
18144TIP3   OH254316   3.259   3.455   9.330
18144TIP3    H154317   3.233   3.548   9.318
18144TIP3    H254318   3.355   3.461   9.319
18145TIP3   OH254319   3.887   3.847   9.395
18145TIP3    H154320   3.957   3.806   9.342
18145TIP3    H254321   3.935   3.925   9.431
18146TIP3   OH254322   3.197   3.719   9.266
18146TIP3    H154323   3.112   3.733   9.310
18146TIP3    H254324   3.177   3.741   9.173
18147TIP3   OH254325   3.625   3.732   9.057
18147TIP3    H154326   3.551   3.745   8.995
18147TIP3    H254327   3.631   3.821   9.098
18148TIP3   OH254328   3.888   3.672   9.119
18148TIP3    H154329   3.794   3.689   9.096
18148TIP3    H254330   3.932   3.743   9.069
18149TIP3   OH254331   4.099   3.865   9.033
18149TIP3    H154332   4.082   3.949   8.985
18149TIP3    H254333   4.124   3.805   8.959
18150TIP3   OH254334   2.877   3.530   9.144
18150TIP3    H154335   2.864   3.492   9.232
18150TIP3    H254336   2.947   3.473   9.106
18151TIP3   OH254337   3.067   3.382   9.011
18151TIP3    H154338   3.085   3.304   9.067
18151TIP3    H254339   3.155   3.423   9.006
18152TIP3   OH254340   3.329   3.486   9.011
18152TIP3    H154341   3.361   3.394   9.001
18152TIP3    H254342   3.358   3.503   9.102
18153TIP3   OH254343   3.909   2.141   9.104
18153TIP3    H154344   3.887   2.065   9.158
18153TIP3    H254345   3.979   2.104   9.046
18154TIP3   OH254346   4.423   2.016   8.986
18154TIP3    H154347   4.461   2.074   8.917
18154TIP3    H254348   4.335   2.055   8.998
18155TIP3   OH254349   4.526   2.128   8.761
18155TIP3    H154350   4.598   2.075   8.723
18155TIP3    H254351   4.560   2.219   8.746
18156TIP3   OH254352   2.918   1.709   8.731
18156TIP3    H154353   2.966   1.779   8.681
18156TIP3    H254354   2.914   1.747   8.820
18157TIP3   OH254355   3.592   1.882   8.986
18157TIP3    H154356   3.660   1.939   8.948
18157TIP3    H254357   3.595   1.902   9.081
18158TIP3   OH254358   4.130   2.027   8.982
18158TIP3    H154359   4.141   1.995   8.892
18158TIP3    H254360   4.122   1.943   9.032
18159TIP3   OH254361   4.174   1.952   8.544
18159TIP3    H154362   4.086   1.993   8.555
18159TIP3    H254363   4.160   1.866   8.589
18160TIP3   OH254364   2.657   3.292   8.547
18160TIP3    H154365   2.572   3.259   8.511
18160TIP3    H254366   2.648   3.386   8.525
18161TIP3   OH254367   3.059   1.883   8.523
18161TIP3    H154368   3.108   1.818   8.471
18161TIP3    H254369   3.132   1.935   8.563
18162TIP3   OH254370   3.570   2.053   8.625
18162TIP3    H154371   3.623   2.003   8.690
18162TIP3    H254372   3.595   2.145   8.650
18163TIP3   OH254373   3.430   3.479   8.127
18163TIP3    H154374   3.518   3.501   8.091
18163TIP3    H254375   3.407   3.404   8.067
18164TIP3   OH254376   4.148   3.597   8.220
18164TIP3    H154377   4.140   3.500   8.207
18164TIP3    H254378   4.103   3.630   8.139
18165TIP3   OH254379   2.733   3.315   8.183
18165TIP3    H154380   2.734   3.343   8.275
18165TIP3    H254381   2.822   3.274   8.172
18166TIP3   OH254382   4.382   3.746   9.380
18166TIP3    H154383   4.294   3.712   9.356
18166TIP3    H254384   4.358   3.829   9.425
18167TIP3   OH254385   5.640   3.113   8.174
18167TIP3    H154386   5.612   3.205   8.154
18167TIP3    H254387   5.564   3.064   8.139
18168TIP3   OH254388   5.640   3.114   8.554
18168TIP3    H154389   5.671   3.084   8.641
18168TIP3    H254390   5.599   3.034   8.518
18169TIP3   OH254391   4.939   3.011   8.919
18169TIP3    H154392   4.972   2.943   8.981
18169TIP3    H254393   5.019   3.065   8.908
18170TIP3   OH254394   5.883   3.416   8.236
18170TIP3    H154395   5.870   3.347   8.303
18170TIP3    H254396   5.913   3.491   8.289
18171TIP3   OH254397   4.911   3.419   8.646
18171TIP3    H154398   4.903   3.321   8.647
18171TIP3    H254399   5.007   3.428   8.637
18172TIP3   OH254400   4.618   2.623   8.430
18172TIP3    H154401   4.568   2.705   8.443
18172TIP3    H254402   4.548   2.567   8.390
18173TIP3   OH254403   4.677   2.910   8.602
18173TIP3    H154404   4.726   2.832   8.637
18173TIP3    H254405   4.733   2.937   8.529
18174TIP3   OH254406   5.532   3.878   8.252
18174TIP3    H154407   5.578   3.807   8.202
18174TIP3    H254408   5.527   3.839   8.340
18175TIP3   OH254409   5.438   3.339   8.604
18175TIP3    H154410   5.477   3.264   8.556
18175TIP3    H254411   5.522   3.385   8.628
18176TIP3   OH254412   6.451   2.659   8.600
18176TIP3    H154413   6.481   2.742   8.643
18176TIP3    H254414   6.475   2.676   8.507
18177TIP3   OH254415   5.849   2.841   8.636
18177TIP3    H154416   5.894   2.756   8.655
18177TIP3    H254417   5.819   2.826   8.544
18178TIP3   OH254418   5.189   2.500   8.601
18178TIP3    H154419   5.169   2.573   8.538
18178TIP3    H254420   5.142   2.426   8.556
18179TIP3   OH254421   5.882   2.593   8.223
18179TIP3    H154422   5.954   2.577   8.288
18179TIP3    H254423   5.935   2.627   8.148
18180TIP3   OH254424   4.822   2.702   8.708
18180TIP3    H154425   4.906   2.682   8.754
18180TIP3    H254426   4.834   2.646   8.628
18181TIP3   OH254427   5.263   2.900   8.502
18181TIP3    H154428   5.357   2.875   8.513
18181TIP3    H254429   5.224   2.816   8.468
18182TIP3   OH254430   6.524   2.865   8.772
18182TIP3    H154431   6.442   2.914   8.751
18182TIP3    H254432   6.542   2.897   8.861
18183TIP3   OH254433   5.185   2.485   9.035
18183TIP3    H154434   5.127   2.520   8.964
18183TIP3    H254435   5.131   2.507   9.113
18184TIP3   OH254436   5.531   3.334   8.043
18184TIP3    H154437   5.490   3.316   7.958
18184TIP3    H254438   5.488   3.418   8.068
18185TIP3   OH254439   5.293   3.259   8.830
18185TIP3    H154440   5.231   3.326   8.867
18185TIP3    H254441   5.335   3.308   8.757
18186TIP3   OH254442   6.093   2.595   8.394
18186TIP3    H154443   6.088   2.543   8.475
18186TIP3    H254444   6.147   2.671   8.421
18187TIP3   OH254445   5.057   2.599   8.819
18187TIP3    H154446   5.120   2.671   8.841
18187TIP3    H254447   5.105   2.558   8.743
18188TIP3   OH254448   5.121   3.453   8.928
18188TIP3    H154449   5.095   3.539   8.888
18188TIP3    H254450   5.042   3.438   8.984
18189TIP3   OH254451   4.514   3.143   8.163
18189TIP3    H154452   4.473   3.170   8.079
18189TIP3    H254453   4.545   3.229   8.199
18190TIP3   OH254454   5.953   3.659   8.404
18190TIP3    H154455   5.863   3.651   8.442
18190TIP3    H254456   5.946   3.745   8.357
18191TIP3   OH254457   6.245   2.560   8.767
18191TIP3    H154458   6.157   2.588   8.734
18191TIP3    H254459   6.305   2.592   8.696
18192TIP3   OH254460   5.542   2.203   8.748
18192TIP3    H154461   5.528   2.108   8.763
18192TIP3    H254462   5.464   2.240   8.795
18193TIP3   OH254463   5.655   3.705   8.077
18193TIP3    H154464   5.705   3.623   8.056
18193TIP3    H254465   5.716   3.771   8.037
18194TIP3   OH254466   5.797   3.490   7.985
18194TIP3    H154467   5.761   3.410   7.944
18194TIP3    H254468   5.834   3.455   8.069
18195TIP3   OH254469   6.179   3.572   8.749
18195TIP3    H154470   6.170   3.494   8.690
18195TIP3    H254471   6.162   3.646   8.687
18196TIP3   OH254472   5.472   2.966   8.004
18196TIP3    H154473   5.391   3.018   7.983
18196TIP3    H254474   5.517   2.963   7.918
18197TIP3   OH254475   5.428   2.751   7.723
18197TIP3    H154476   5.497   2.801   7.770
18197TIP3    H254477   5.484   2.687   7.674
18198TIP3   OH254478   6.375   3.208   8.592
18198TIP3    H154479   6.293   3.261   8.597
18198TIP3    H254480   6.405   3.232   8.502
18199TIP3   OH254481   5.819   3.048   7.976
18199TIP3    H154482   5.764   3.073   8.055
18199TIP3    H254483   5.903   3.023   8.020
18200TIP3   OH254484   6.054   3.087   8.888
18200TIP3    H154485   6.054   3.172   8.936
18200TIP3    H254486   5.968   3.092   8.843
18201TIP3   OH254487   5.050   3.046   8.394
18201TIP3    H154488   5.008   2.989   8.326
18201TIP3    H254489   5.127   2.992   8.421
18202TIP3   OH254490   5.179   3.455   8.542
18202TIP3    H154491   5.159   3.417   8.456
18202TIP3    H254492   5.270   3.422   8.559
18203TIP3   OH254493   5.189   3.016   8.748
18203TIP3    H154494   5.220   2.994   8.658
18203TIP3    H254495   5.231   3.103   8.766
18204TIP3   OH254496   5.711   3.655   8.524
18204TIP3    H154497   5.699   3.735   8.577
18204TIP3    H254498   5.697   3.582   8.587
18205TIP3   OH254499   5.325   3.572   9.075
18205TIP3    H154500   5.264   3.635   9.118
18205TIP3    H254501   5.261   3.520   9.022
18206TIP3   OH254502   5.660   2.906   7.802
18206TIP3    H154503   5.718   2.966   7.854
18206TIP3    H254504   5.686   2.928   7.710
18207TIP3   OH254505   5.083   3.129   9.175
18207TIP3    H154506   5.086   3.216   9.220
18207TIP3    H254507   4.987   3.112   9.178
18208TIP3   OH254508   5.402   3.586   8.080
18208TIP3    H154509   5.483   3.639   8.093
18208TIP3    H254510   5.342   3.649   8.037
18209TIP3   OH254511   5.121   3.740   9.158
18209TIP3    H154512   5.083   3.741   9.068
18209TIP3    H254513   5.042   3.720   9.213
18210TIP3   OH254514   6.175   2.149   7.849
18210TIP3    H154515   6.094   2.164   7.901
18210TIP3    H254516   6.184   2.234   7.802
18211TIP3   OH254517   4.916   2.889   8.200
18211TIP3    H154518   4.851   2.934   8.142
18211TIP3    H254519   4.877   2.802   8.208
18212TIP3   OH254520   5.974   3.514   7.398
18212TIP3    H154521   5.982   3.611   7.384
18212TIP3    H254522   6.067   3.486   7.387
18213TIP3   OH254523   4.694   3.277   9.106
18213TIP3    H154524   4.629   3.256   9.035
18213TIP3    H254525   4.736   3.190   9.124
18214TIP3   OH254526   4.553   3.465   8.738
18214TIP3    H154527   4.649   3.460   8.727
18214TIP3    H254528   4.544   3.545   8.792
18215TIP3   OH254529   6.418   3.917   8.795
18215TIP3    H154530   6.415   3.820   8.804
18215TIP3    H254531   6.333   3.942   8.839
18216TIP3   OH254532   5.523   3.701   8.930
18216TIP3    H154533   5.522   3.794   8.960
18216TIP3    H254534   5.451   3.663   8.984
18217TIP3   OH254535   5.283   3.831   7.880
18217TIP3    H154536   5.239   3.813   7.796
18217TIP3    H254537   5.252   3.920   7.903
18218TIP3   OH254538   4.721   3.681   8.264
18218TIP3    H154539   4.769   3.671   8.349
18218TIP3    H254540   4.665   3.602   8.266
18219TIP3   OH254541   5.484   3.732   7.520
18219TIP3    H154542   5.544   3.663   7.483
18219TIP3    H254543   5.520   3.742   7.610
18220TIP3   OH254544   5.535   3.781   7.790
18220TIP3    H154545   5.447   3.790   7.832
18220TIP3    H254546   5.587   3.742   7.862
18221TIP3   OH254547   6.306   3.046   9.069
18221TIP3    H154548   6.228   3.064   9.014
18221TIP3    H254549   6.319   2.950   9.054
18222TIP3   OH254550   4.905   3.454   9.093
18222TIP3    H154551   4.952   3.440   9.177
18222TIP3    H254552   4.828   3.393   9.102
18223TIP3   OH254553   5.304   2.278   8.878
18223TIP3    H154554   5.215   2.247   8.850
18223TIP3    H254555   5.278   2.361   8.921
18224TIP3   OH254556   5.836   2.396   9.071
18224TIP3    H154557   5.907   2.365   9.131
18224TIP3    H254558   5.754   2.373   9.119
18225TIP3   OH254559   6.075   2.822   8.987
18225TIP3    H154560   6.026   2.821   9.073
18225TIP3    H254561   6.053   2.910   8.952
18226TIP3   OH254562   5.739   2.948   7.547
18226TIP3    H154563   5.702   2.927   7.459
18226TIP3    H254564   5.815   3.004   7.522
18227TIP3   OH254565   5.449   2.327   7.849
18227TIP3    H154566   5.414   2.324   7.940
18227TIP3    H254567   5.410   2.245   7.814
18228TIP3   OH254568   5.235   2.794   8.897
18228TIP3    H154569   5.183   2.816   8.976
18228TIP3    H254570   5.220   2.875   8.842
18229TIP3   OH254571   5.119   2.680   8.410
18229TIP3    H154572   5.026   2.654   8.427
18229TIP3    H254573   5.132   2.641   8.321
18230TIP3   OH254574   5.609   2.767   8.138
18230TIP3    H154575   5.557   2.838   8.096
18230TIP3    H254576   5.663   2.735   8.063
18231TIP3   OH254577   5.785   3.050   9.228
18231TIP3    H154578   5.764   2.973   9.285
18231TIP3    H254579   5.882   3.054   9.240
18232TIP3   OH254580   5.765   2.795   8.377
18232TIP3    H154581   5.706   2.825   8.305
18232TIP3    H254582   5.799   2.714   8.334
18233TIP3   OH254583   5.054   2.827   9.103
18233TIP3    H154584   5.078   2.891   9.171
18233TIP3    H254585   5.041   2.745   9.154
18234TIP3   OH254586   5.104   2.302   7.814
18234TIP3    H154587   5.095   2.298   7.912
18234TIP3    H254588   5.024   2.353   7.790
18235TIP3   OH254589   4.648   2.354   8.683
18235TIP3    H154590   4.727   2.380   8.736
18235TIP3    H254591   4.686   2.317   8.601
18236TIP3   OH254592   4.620   2.326   8.205
18236TIP3    H154593   4.665   2.364   8.127
18236TIP3    H254594   4.558   2.399   8.225
18237TIP3   OH254595   5.775   3.040   8.800
18237TIP3    H154596   5.809   2.969   8.741
18237TIP3    H254597   5.745   2.986   8.876
18238TIP3   OH254598   5.447   2.504   8.471
18238TIP3    H154599   5.364   2.501   8.523
18238TIP3    H254600   5.514   2.502   8.541
18239TIP3   OH254601   4.879   2.558   8.480
18239TIP3    H154602   4.785   2.566   8.452
18239TIP3    H254603   4.902   2.467   8.455
18240TIP3   OH254604   5.149   2.556   8.168
18240TIP3    H154605   5.243   2.569   8.145
18240TIP3    H254606   5.102   2.577   8.084
18241TIP3   OH254607   5.937   2.579   8.676
18241TIP3    H154608   5.899   2.591   8.766
18241TIP3    H254609   5.873   2.517   8.637
18242TIP3   OH254610   4.991   2.589   7.947
18242TIP3    H154611   4.919   2.544   7.899
18242TIP3    H254612   5.043   2.625   7.872
18243TIP3   OH254613   6.109   4.266   8.892
18243TIP3    H154614   6.106   4.291   8.798
18243TIP3    H254615   6.188   4.315   8.922
18244TIP3   OH254616   5.063   3.379   9.316
18244TIP3    H154617   5.144   3.409   9.362
18244TIP3    H254618   5.000   3.379   9.391
18245TIP3   OH254619   5.529   2.830   8.568
18245TIP3    H154620   5.601   2.793   8.515
18245TIP3    H254621   5.541   2.786   8.654
18246TIP3   OH254622   5.054   2.318   8.447
18246TIP3    H154623   5.018   2.239   8.492
18246TIP3    H254624   5.100   2.280   8.372
18247TIP3   OH254625   5.505   2.724   8.864
18247TIP3    H154626   5.416   2.763   8.872
18247TIP3    H254627   5.562   2.788   8.909
18248TIP3   OH254628   5.242   3.119   7.953
18248TIP3    H154629   5.170   3.053   7.942
18248TIP3    H254630   5.223   3.152   8.044
18249TIP3   OH254631   6.143   3.355   8.583
18249TIP3    H154632   6.168   3.405   8.502
18249TIP3    H254633   6.058   3.313   8.557
18250TIP3   OH254634   5.700   2.430   7.817
18250TIP3    H154635   5.603   2.411   7.824
18250TIP3    H254636   5.707   2.525   7.841
18251TIP3   OH254637   5.639   3.437   8.951
18251TIP3    H154638   5.657   3.420   9.043
18251TIP3    H254639   5.602   3.527   8.952
18252TIP3   OH254640   5.769   2.679   7.920
18252TIP3    H154641   5.865   2.685   7.936
18252TIP3    H254642   5.750   2.759   7.868
18253TIP3   OH254643   4.935   3.141   8.630
18253TIP3    H154644   4.972   3.113   8.543
18253TIP3    H254645   4.974   3.076   8.690
18254TIP3   OH254646   5.387   3.268   7.775
18254TIP3    H154647   5.340   3.354   7.780
18254TIP3    H254648   5.333   3.213   7.835
18255TIP3   OH254649   4.817   3.063   9.229
18255TIP3    H154650   4.828   3.044   9.324
18255TIP3    H254651   4.750   2.996   9.204
18256TIP3   OH254652   5.539   3.172   9.267
18256TIP3    H154653   5.478   3.118   9.214
18256TIP3    H254654   5.626   3.138   9.235
18257TIP3   OH254655   5.802   3.693   8.848
18257TIP3    H154656   5.705   3.694   8.859
18257TIP3    H254657   5.829   3.748   8.925
18258TIP3   OH254658   6.211   2.769   7.756
18258TIP3    H154659   6.154   2.723   7.690
18258TIP3    H254660   6.208   2.858   7.716
18259TIP3   OH254661   6.428   3.625   8.838
18259TIP3    H154662   6.331   3.617   8.824
18259TIP3    H254663   6.458   3.595   8.749
18260TIP3   OH254664   5.909   3.587   7.662
18260TIP3    H154665   5.888   3.515   7.723
18260TIP3    H254666   5.925   3.541   7.578
18261TIP3   OH254667   5.907   3.216   8.503
18261TIP3    H154668   5.814   3.191   8.514
18261TIP3    H254669   5.942   3.137   8.457
18262TIP3   OH254670   5.036   3.445   8.256
18262TIP3    H154671   5.036   3.525   8.201
18262TIP3    H254672   4.941   3.428   8.262
18263TIP3   OH254673   4.599   2.748   7.957
18263TIP3    H154674   4.644   2.833   7.978
18263TIP3    H254675   4.522   2.753   8.018
18264TIP3   OH254676   5.173   3.210   8.199
18264TIP3    H154677   5.139   3.299   8.217
18264TIP3    H254678   5.136   3.160   8.274
18265TIP3   OH254679   5.304   3.788   8.723
18265TIP3    H154680   5.345   3.861   8.671
18265TIP3    H254681   5.382   3.754   8.770
18266TIP3   OH254682   4.955   3.683   8.107
18266TIP3    H154683   4.869   3.692   8.152
18266TIP3    H254684   4.987   3.776   8.109
18267TIP3   OH254685   5.693   3.422   8.682
18267TIP3    H154686   5.685   3.419   8.780
18267TIP3    H254687   5.773   3.370   8.667
18268TIP3   OH254688   5.667   3.312   7.565
18268TIP3    H154689   5.720   3.289   7.645
18268TIP3    H254690   5.578   3.289   7.595
18269TIP3   OH254691   5.941   3.957   8.732
18269TIP3    H154692   5.861   3.902   8.722
18269TIP3    H254693   5.928   4.022   8.660
18270TIP3   OH254694   6.007   3.789   7.385
18270TIP3    H154695   6.047   3.862   7.334
18270TIP3    H254696   5.927   3.836   7.416
18271TIP3   OH254697   5.022   2.573   9.245
18271TIP3    H154698   4.926   2.590   9.254
18271TIP3    H254699   5.036   2.500   9.307
18272TIP3   OH254700   5.828   3.248   7.782
18272TIP3    H154701   5.818   3.182   7.853
18272TIP3    H254702   5.925   3.246   7.769
18273TIP3   OH254703   4.743   3.651   8.883
18273TIP3    H154704   4.796   3.575   8.912
18273TIP3    H254705   4.770   3.718   8.945
18274TIP3   OH254706   5.033   3.295   7.564
18274TIP3    H154707   5.047   3.203   7.536
18274TIP3    H254708   5.013   3.283   7.659
18275TIP3   OH254709   4.978   3.300   7.837
18275TIP3    H154710   5.052   3.274   7.894
18275TIP3    H254711   4.982   3.398   7.843
18276TIP3   OH254712   4.714   2.994   8.040
18276TIP3    H154713   4.648   3.039   8.097
18276TIP3    H254714   4.728   3.063   7.972
18277TIP3   OH254715   5.859   2.635   8.936
18277TIP3    H154716   5.945   2.669   8.966
18277TIP3    H254717   5.849   2.553   8.988
18278TIP3   OH254718   5.742   2.382   8.098
18278TIP3    H154719   5.729   2.404   8.003
18278TIP3    H254720   5.781   2.465   8.132
18279TIP3   OH254721   5.244   3.497   7.786
18279TIP3    H154722   5.158   3.525   7.821
18279TIP3    H254723   5.261   3.569   7.723
18280TIP3   OH254724   5.433   2.561   8.199
18280TIP3    H154725   5.497   2.633   8.181
18280TIP3    H254726   5.438   2.555   8.297
18281TIP3   OH254727   5.700   2.879   9.007
18281TIP3    H154728   5.724   2.929   9.087
18281TIP3    H254729   5.757   2.800   9.014
18282TIP3   OH254730   5.577   2.289   8.302
18282TIP3    H154731   5.568   2.367   8.359
18282TIP3    H254732   5.637   2.323   8.233
18283TIP3   OH254733   4.988   3.573   7.853
18283TIP3    H154734   4.958   3.643   7.790
18283TIP3    H254735   4.972   3.617   7.939
18284TIP3   OH254736   5.088   2.287   8.092
18284TIP3    H154737   5.087   2.378   8.127
18284TIP3    H254738   5.184   2.268   8.099
18285TIP3   OH254739   6.342   2.781   8.990
18285TIP3    H154740   6.244   2.778   8.994
18285TIP3    H254741   6.356   2.742   8.903
18286TIP3   OH254742   5.993   2.975   8.376
18286TIP3    H154743   5.918   2.914   8.387
18286TIP3    H254744   6.065   2.928   8.424
18287TIP3   OH254745   4.705   3.203   7.846
18287TIP3    H154746   4.772   3.274   7.854
18287TIP3    H254747   4.751   3.148   7.778
18288TIP3   OH254748   4.650   2.479   7.980
18288TIP3    H154749   4.649   2.576   7.975
18288TIP3    H254750   4.568   2.456   7.935
18289TIP3   OH254751   5.961   3.930   8.325
18289TIP3    H154752   5.919   3.977   8.250
18289TIP3    H254753   6.056   3.950   8.305
18290TIP3   OH254754   5.039   2.201   8.850
18290TIP3    H154755   5.008   2.169   8.763
18290TIP3    H254756   5.026   2.122   8.906
18291TIP3   OH254757   4.577   3.418   8.233
18291TIP3    H154758   4.505   3.448   8.289
18291TIP3    H254759   4.551   3.458   8.147
18292TIP3   OH254760   4.731   3.964   9.308
18292TIP3    H154761   4.819   3.960   9.352
18292TIP3    H254762   4.709   3.869   9.304
18293TIP3   OH254763   5.215   3.922   9.350
18293TIP3    H154764   5.311   3.909   9.352
18293TIP3    H254765   5.190   3.863   9.275
18294TIP3   OH254766   5.197   3.499   7.477
18294TIP3    H154767   5.141   3.427   7.515
18294TIP3    H254768   5.272   3.448   7.443
18295TIP3   OH254769   5.853   3.832   9.083
18295TIP3    H154770   5.847   3.762   9.151
18295TIP3    H254771   5.932   3.882   9.113
18296TIP3   OH254772   5.632   3.540   7.388
18296TIP3    H154773   5.680   3.479   7.447
18296TIP3    H254774   5.687   3.541   7.308
18297TIP3   OH254775   4.858   3.361   9.504
18297TIP3    H154776   4.886   3.267   9.499
18297TIP3    H254777   4.771   3.359   9.459
18298TIP3   OH254778   4.841   3.016   7.698
18298TIP3    H154779   4.896   2.983   7.770
18298TIP3    H254780   4.908   3.021   7.626
18299TIP3   OH254781   5.477   3.450   9.276
18299TIP3    H154782   5.430   3.470   9.192
18299TIP3    H254783   5.501   3.355   9.265
18300TIP3   OH254784   5.351   3.215   7.505
18300TIP3    H154785   5.353   3.227   7.602
18300TIP3    H254786   5.351   3.117   7.500
18301TIP3   OH254787   5.964   3.460   8.888
18301TIP3    H154788   6.040   3.500   8.842
18301TIP3    H254789   5.896   3.527   8.870
18302TIP3   OH254790   4.973   3.115   9.495
18302TIP3    H154791   5.021   3.033   9.476
18302TIP3    H254792   5.007   3.132   9.584
18303TIP3   OH254793   5.050   2.920   7.920
18303TIP3    H154794   5.023   2.876   8.003
18303TIP3    H254795   5.086   2.845   7.869
18304TIP3   OH254796   5.321   2.985   9.152
18304TIP3    H154797   5.242   3.043   9.153
18304TIP3    H254798   5.368   3.019   9.072
18305TIP3   OH254799   5.149   2.713   7.761
18305TIP3    H154800   5.123   2.717   7.667
18305TIP3    H254801   5.247   2.718   7.754
18306TIP3   OH254802   5.854   3.388   9.288
18306TIP3    H154803   5.911   3.355   9.218
18306TIP3    H254804   5.837   3.308   9.341
18307TIP3   OH254805   5.974   3.044   7.422
18307TIP3    H154806   5.950   3.001   7.338
18307TIP3    H254807   5.943   3.135   7.403
18308TIP3   OH254808   5.443   2.770   9.272
18308TIP3    H154809   5.444   2.692   9.212
18308TIP3    H254810   5.402   2.838   9.214
18309TIP3   OH254811   5.443   2.559   9.084
18309TIP3    H154812   5.472   2.601   9.000
18309TIP3    H254813   5.350   2.537   9.063
18310TIP3   OH254814   5.473   3.096   8.958
18310TIP3    H154815   5.554   3.104   8.907
18310TIP3    H254816   5.415   3.162   8.912
18311TIP3   OH254817   6.056   3.060   9.332
18311TIP3    H154818   6.105   2.979   9.349
18311TIP3    H254819   6.119   3.111   9.279
18312TIP3   OH254820   6.085   3.306   9.074
18312TIP3    H154821   6.034   3.366   9.016
18312TIP3    H254822   6.176   3.331   9.047
18313TIP3   OH254823   5.314   2.877   9.490
18313TIP3    H154824   5.238   2.816   9.496
18313TIP3    H254825   5.349   2.856   9.402
18314TIP3   OH254826   5.574   2.324   9.150
18314TIP3    H154827   5.525   2.405   9.124
18314TIP3    H254828   5.507   2.255   9.134
18315TIP3   OH254829   5.704   2.827   9.362
18315TIP3    H154830   5.707   2.813   9.458
18315TIP3    H254831   5.612   2.801   9.339
18316TIP3   OH254832   5.942   2.784   9.219
18316TIP3    H154833   5.867   2.778   9.281
18316TIP3    H254834   6.018   2.751   9.272
18317TIP3   OH254835   6.168   2.719   9.360
18317TIP3    H154836   6.184   2.623   9.374
18317TIP3    H254837   6.169   2.755   9.452
18318TIP3   OH254838   5.153   2.654   9.543
18318TIP3    H154839   5.168   2.560   9.522
18318TIP3    H254840   5.197   2.664   9.629
18319TIP3   OH254841   5.681   2.329   9.399
18319TIP3    H154842   5.748   2.261   9.377
18319TIP3    H254843   5.629   2.329   9.315
18320TIP3   OH254844   5.708   2.534   9.579
18320TIP3    H154845   5.702   2.475   9.501
18320TIP3    H254846   5.638   2.599   9.562
18321TIP3   OH254847   4.957   3.775   7.665
18321TIP3    H154848   5.053   3.771   7.646
18321TIP3    H254849   4.928   3.825   7.587
18322TIP3   OH254850   4.437   3.157   7.882
18322TIP3    H154851   4.532   3.179   7.868
18322TIP3    H254852   4.431   3.069   7.841
18323TIP3   OH254853   4.352   3.770   8.295
18323TIP3    H154854   4.284   3.708   8.258
18323TIP3    H254855   4.396   3.712   8.361
18324TIP3   OH254856   4.487   3.621   8.482
18324TIP3    H154857   4.475   3.548   8.544
18324TIP3    H254858   4.539   3.683   8.537
18325TIP3   OH254859   6.214   4.023   8.282
18325TIP3    H154860   6.244   4.059   8.367
18325TIP3    H254861   6.277   4.061   8.220
18326TIP3   OH254862   6.242   4.043   8.567
18326TIP3    H154863   6.201   3.954   8.559
18326TIP3    H254864   6.322   4.021   8.616
18327TIP3   OH254865   6.313   3.700   9.177
18327TIP3    H154866   6.219   3.716   9.197
18327TIP3    H254867   6.344   3.788   9.148
18328TIP3   OH254868   6.107   3.231   7.756
18328TIP3    H154869   6.174   3.296   7.727
18328TIP3    H254870   6.151   3.193   7.835
18329TIP3   OH254871   6.234   3.098   7.960
18329TIP3    H154872   6.169   3.057   8.020
18329TIP3    H254873   6.300   3.136   8.021
18330TIP3   OH254874   6.288   3.490   8.392
18330TIP3    H154875   6.341   3.426   8.342
18330TIP3    H254876   6.284   3.566   8.331
18331TIP3   OH254877   6.120   3.790   8.588
18331TIP3    H154878   6.048   3.834   8.637
18331TIP3    H254879   6.071   3.743   8.517
18332TIP3   OH254880   6.172   3.005   7.608
18332TIP3    H154881   6.101   3.011   7.539
18332TIP3    H254882   6.147   3.082   7.663
18333TIP3   OH254883   6.055   2.678   7.551
18333TIP3    H154884   5.986   2.725   7.503
18333TIP3    H254885   6.025   2.584   7.543
18334TIP3   OH254886   6.047   2.955   8.107
18334TIP3    H154887   6.056   2.859   8.102
18334TIP3    H254888   6.034   2.970   8.204
18335TIP3   OH254889   4.674   3.027   8.855
18335TIP3    H154890   4.672   2.997   8.761
18335TIP3    H254891   4.771   3.030   8.870
18336TIP3   OH254892   6.328   3.378   8.968
18336TIP3    H154893   6.406   3.319   8.970
18336TIP3    H254894   6.360   3.454   8.918
18337TIP3   OH254895   6.523   3.191   9.002
18337TIP3    H154896   6.445   3.135   9.026
18337TIP3    H254897   6.594   3.124   9.007
18338TIP3   OH254898   5.988   2.412   7.535
18338TIP3    H154899   6.061   2.382   7.594
18338TIP3    H254900   5.913   2.356   7.562
18339TIP3   OH254901   6.045   2.671   8.002
18339TIP3    H154902   6.085   2.582   8.017
18339TIP3    H254903   6.104   2.705   7.933
18340TIP3   OH254904   6.206   2.846   8.497
18340TIP3    H154905   6.292   2.872   8.456
18340TIP3    H254906   6.221   2.883   8.587
18341TIP3   OH254907   6.276   2.990   8.731
18341TIP3    H154908   6.197   3.025   8.776
18341TIP3    H254909   6.308   3.070   8.683
18342TIP3   OH254910   4.884   2.689   9.513
18342TIP3    H154911   4.981   2.698   9.503
18342TIP3    H254912   4.878   2.660   9.605
18343TIP3   OH254913   6.719   2.576   9.283
18343TIP3    H154914   6.784   2.514   9.243
18343TIP3    H254915   6.698   2.635   9.208
18344TIP3   OH254916   6.154   2.421   8.039
18344TIP3    H154917   6.202   2.405   8.123
18344TIP3    H254918   6.093   2.344   8.038
18345TIP3   OH254919   4.854   2.408   8.862
18345TIP3    H154920   4.916   2.333   8.868
18345TIP3    H254921   4.917   2.482   8.852
18346TIP3   OH254922   4.657   2.682   8.932
18346TIP3    H154923   4.704   2.674   8.847
18346TIP3    H254924   4.686   2.769   8.962
18347TIP3   OH254925   6.595   2.722   9.088
18347TIP3    H154926   6.505   2.759   9.096
18347TIP3    H254927   6.575   2.645   9.031
18348TIP3   OH254928   6.234   2.360   7.669
18348TIP3    H154929   6.282   2.286   7.628
18348TIP3    H254930   6.302   2.431   7.670
18349TIP3   OH254931   4.640   2.191   8.438
18349TIP3    H154932   4.545   2.182   8.459
18349TIP3    H254933   4.637   2.245   8.356
18350TIP3   OH254934   5.798   3.889   7.940
18350TIP3    H154935   5.848   3.874   7.856
18350TIP3    H254936   5.854   3.955   7.983
18351TIP3   OH254937   4.867   2.255   9.232
18351TIP3    H154938   4.812   2.224   9.306
18351TIP3    H254939   4.802   2.307   9.181
18352TIP3   OH254940   4.902   3.695   9.324
18352TIP3    H154941   4.810   3.670   9.305
18352TIP3    H254942   4.907   3.675   9.419
18353TIP3   OH254943   5.078   3.724   8.872
18353TIP3    H154944   5.029   3.800   8.832
18353TIP3    H254945   5.164   3.739   8.827
18354TIP3   OH254946   5.522   3.968   9.009
18354TIP3    H154947   5.564   3.971   9.098
18354TIP3    H254948   5.588   4.019   8.957
18355TIP3   OH254949   5.701   4.120   8.869
18355TIP3    H154950   5.772   4.071   8.825
18355TIP3    H254951   5.753   4.178   8.929
18356TIP3   OH254952   6.496   2.482   8.969
18356TIP3    H154953   6.406   2.474   8.934
18356TIP3    H254954   6.529   2.390   8.957
18357TIP3   OH254955   4.754   3.982   8.894
18357TIP3    H154956   4.665   4.018   8.870
18357TIP3    H254957   4.761   4.012   8.985
18358TIP3   OH254958   4.991   3.960   8.753
18358TIP3    H154959   4.904   3.973   8.797
18358TIP3    H254960   4.972   3.992   8.663
18359TIP3   OH254961   5.416   3.988   8.552
18359TIP3    H154962   5.348   4.008   8.485
18359TIP3    H254963   5.429   4.076   8.593
18360TIP3   OH254964   5.685   3.928   8.604
18360TIP3    H154965   5.591   3.945   8.583
18360TIP3    H254966   5.730   4.002   8.560
18361TIP3   OH254967   5.891   4.119   8.517
18361TIP3    H154968   5.878   4.204   8.470
18361TIP3    H254969   5.919   4.060   8.444
18362TIP3   OH254970   4.665   3.775   8.641
18362TIP3    H154971   4.693   3.749   8.732
18362TIP3    H254972   4.737   3.732   8.590
18363TIP3   OH254973   4.859   3.647   8.498
18363TIP3    H154974   4.875   3.563   8.547
18363TIP3    H254975   4.949   3.684   8.492
18364TIP3   OH254976   5.125   3.742   8.501
18364TIP3    H154977   5.157   3.651   8.487
18364TIP3    H254978   5.170   3.763   8.584
18365TIP3   OH254979   5.703   2.399   8.590
18365TIP3    H154980   5.658   2.327   8.639
18365TIP3    H254981   5.773   2.351   8.542
18366TIP3   OH254982   6.224   2.281   8.495
18366TIP3    H154983   6.261   2.330   8.419
18366TIP3    H254984   6.128   2.296   8.485
18367TIP3   OH254985   6.319   2.377   8.257
18367TIP3    H154986   6.392   2.326   8.217
18367TIP3    H254987   6.353   2.469   8.242
18368TIP3   OH254988   4.949   2.107   8.605
18368TIP3    H154989   4.857   2.074   8.605
18368TIP3    H254990   4.997   2.022   8.600
18369TIP3   OH254991   4.739   1.977   8.253
18369TIP3    H154992   4.768   2.033   8.179
18369TIP3    H254993   4.709   2.042   8.318
18370TIP3   OH254994   5.394   2.139   8.484
18370TIP3    H154995   5.451   2.186   8.422
18370TIP3    H254996   5.418   2.179   8.569
18371TIP3   OH254997   5.940   2.285   8.467
18371TIP3    H154998   5.939   2.247   8.379
18371TIP3    H254999   5.927   2.205   8.524
18372TIP3   OH255000   5.971   2.207   8.031
18372TIP3    H155001   5.883   2.249   8.041
18372TIP3    H255002   5.956   2.122   8.077
18373TIP3   OH255003   4.453   3.547   8.032
18373TIP3    H155004   4.368   3.514   7.998
18373TIP3    H255005   4.443   3.642   8.012
18374TIP3   OH255006   4.853   2.136   8.015
18374TIP3    H155007   4.901   2.072   7.958
18374TIP3    H255008   4.927   2.188   8.050
18375TIP3   OH255009   5.365   2.311   8.114
18375TIP3    H155010   5.425   2.262   8.172
18375TIP3    H255011   5.388   2.403   8.139
18376TIP3   OH255012   5.226   3.736   7.614
18376TIP3    H155013   5.314   3.758   7.578
18376TIP3    H255014   5.203   3.661   7.554
18377TIP3   OH255015   5.941   3.853   7.707
18377TIP3    H155016   5.933   3.756   7.693
18377TIP3    H255017   5.899   3.886   7.625
18378TIP3   OH255018   5.172   2.380   9.517
18378TIP3    H155019   5.166   2.298   9.568
18378TIP3    H255020   5.264   2.374   9.486
18379TIP3   OH255021   4.529   3.572   7.670
18379TIP3    H155022   4.530   3.598   7.763
18379TIP3    H255023   4.618   3.531   7.658
18380TIP3   OH255024   6.225   2.453   9.379
18380TIP3    H155025   6.232   2.419   9.471
18380TIP3    H255026   6.317   2.445   9.347
18381TIP3   OH255027   6.168   3.997   8.897
18381TIP3    H155028   6.091   3.968   8.844
18381TIP3    H255029   6.153   4.094   8.896
18382TIP3   OH255030   7.437   3.369   7.660
18382TIP3    H155031   7.410   3.462   7.641
18382TIP3    H255032   7.359   3.321   7.627
18383TIP3   OH255033   7.435   3.370   8.041
18383TIP3    H155034   7.468   3.344   8.129
18383TIP3    H255035   7.394   3.288   8.010
18384TIP3   OH255036   6.735   3.267   8.410
18384TIP3    H155037   6.767   3.199   8.471
18384TIP3    H255038   6.815   3.319   8.395
18385TIP3   OH255039   7.679   3.672   7.723
18385TIP3    H155040   7.666   3.604   7.791
18385TIP3    H255041   7.708   3.748   7.776
18386TIP3   OH255042   6.706   3.674   8.133
18386TIP3    H155043   6.699   3.576   8.134
18386TIP3    H255044   6.803   3.684   8.123
18387TIP3   OH255045   6.414   2.877   7.916
18387TIP3    H155046   6.368   2.961   7.932
18387TIP3    H255047   6.341   2.825   7.877
18388TIP3   OH255048   6.472   3.165   8.087
18388TIP3    H155049   6.522   3.088   8.124
18388TIP3    H255050   6.534   3.200   8.022
18389TIP3   OH255051   7.326   4.135   7.735
18389TIP3    H155052   7.374   4.063   7.689
18389TIP3    H255053   7.320   4.101   7.825
18390TIP3   OH255054   7.235   3.595   8.090
18390TIP3    H155055   7.275   3.520   8.044
18390TIP3    H255056   7.318   3.642   8.115
18391TIP3   OH255057   8.241   2.921   8.085
18391TIP3    H155058   8.272   3.002   8.131
18391TIP3    H255059   8.265   2.942   7.993
18392TIP3   OH255060   7.645   3.098   8.122
18392TIP3    H155061   7.689   3.013   8.143
18392TIP3    H255062   7.616   3.081   8.031
18393TIP3   OH255063   6.984   2.757   8.088
18393TIP3    H155064   6.966   2.830   8.025
18393TIP3    H255065   6.936   2.684   8.042
18394TIP3   OH255066   7.680   2.848   7.710
18394TIP3    H155067   7.752   2.832   7.775
18394TIP3    H255068   7.732   2.884   7.635
18395TIP3   OH255069   6.618   2.959   8.194
18395TIP3    H155070   6.701   2.940   8.242
18395TIP3    H255071   6.632   2.904   8.114
18396TIP3   OH255072   7.059   3.156   7.989
18396TIP3    H155073   7.153   3.132   8.000
18396TIP3    H255074   7.021   3.073   7.955
18397TIP3   OH255075   8.319   3.123   8.260
18397TIP3    H155076   8.236   3.173   8.246
18397TIP3    H255077   8.350   3.162   8.345
18398TIP3   OH255078   6.981   2.740   8.521
18398TIP3    H155079   6.922   2.778   8.453
18398TIP3    H255080   6.930   2.759   8.602
18399TIP3   OH255081   7.329   3.592   7.529
18399TIP3    H155082   7.286   3.574   7.444
18399TIP3    H255083   7.286   3.676   7.555
18400TIP3   OH255084   7.087   3.515   8.316
18400TIP3    H155085   7.026   3.583   8.353
18400TIP3    H255086   7.131   3.565   8.244
18401TIP3   OH255087   7.890   2.850   7.882
18401TIP3    H155088   7.876   2.806   7.967
18401TIP3    H255089   7.943   2.928   7.908
18402TIP3   OH255090   6.852   2.855   8.306
18402TIP3    H155091   6.914   2.928   8.329
18402TIP3    H255092   6.901   2.815   8.231
18403TIP3   OH255093   6.915   3.710   8.414
18403TIP3    H155094   6.891   3.796   8.374
18403TIP3    H255095   6.836   3.696   8.470
18404TIP3   OH255096   6.310   3.400   7.651
18404TIP3    H155097   6.271   3.428   7.566
18404TIP3    H255098   6.341   3.485   7.688
18405TIP3   OH255099   7.749   3.915   7.889
18405TIP3    H155100   7.660   3.907   7.929
18405TIP3    H255101   7.742   4.002   7.844
18406TIP3   OH255102   8.040   2.811   8.249
18406TIP3    H155103   7.953   2.847   8.223
18406TIP3    H255104   8.099   2.849   8.181
18407TIP3   OH255105   7.337   2.459   8.234
18407TIP3    H155106   7.324   2.364   8.252
18407TIP3    H255107   7.260   2.497   8.282
18408TIP3   OH255108   7.453   3.960   7.564
18408TIP3    H155109   7.503   3.878   7.543
18408TIP3    H255110   7.513   4.027   7.524
18409TIP3   OH255111   7.596   3.745   7.470
18409TIP3    H155112   7.554   3.666   7.434
18409TIP3    H255113   7.632   3.711   7.555
18410TIP3   OH255114   7.973   3.829   8.233
18410TIP3    H155115   7.964   3.751   8.174
18410TIP3    H255116   7.958   3.903   8.171
18411TIP3   OH255117   7.267   3.221   7.491
18411TIP3    H155118   7.187   3.274   7.469
18411TIP3    H255119   7.314   3.220   7.405
18412TIP3   OH255120   7.226   3.006   7.208
18412TIP3    H155121   7.293   3.058   7.256
18412TIP3    H255122   7.284   2.943   7.160
18413TIP3   OH255123   8.170   3.461   8.076
18413TIP3    H155124   8.088   3.515   8.083
18413TIP3    H255125   8.201   3.490   7.987
18414TIP3   OH255126   7.615   3.304   7.463
18414TIP3    H155127   7.560   3.329   7.541
18414TIP3    H255128   7.699   3.280   7.507
18415TIP3   OH255129   7.850   3.343   8.376
18415TIP3    H155130   7.851   3.425   8.430
18415TIP3    H255131   7.765   3.353   8.330
18416TIP3   OH255132   6.847   3.302   7.881
18416TIP3    H155133   6.806   3.245   7.812
18416TIP3    H255134   6.924   3.249   7.909
18417TIP3   OH255135   6.974   3.708   8.031
18417TIP3    H155136   6.957   3.673   7.942
18417TIP3    H255137   7.066   3.677   8.048
18418TIP3   OH255138   6.981   3.275   8.234
18418TIP3    H155139   7.016   3.252   8.145
18418TIP3    H255140   7.026   3.359   8.254
18419TIP3   OH255141   7.509   3.911   8.011
18419TIP3    H155142   7.495   3.992   8.064
18419TIP3    H255143   7.494   3.839   8.075
18420TIP3   OH255144   7.122   3.831   8.558
18420TIP3    H155145   7.062   3.893   8.604
18420TIP3    H255146   7.057   3.778   8.508
18421TIP3   OH255147   7.456   3.162   7.289
18421TIP3    H155148   7.514   3.222   7.340
18421TIP3    H255149   7.482   3.185   7.196
18422TIP3   OH255150   6.877   3.386   8.663
18422TIP3    H155151   6.880   3.474   8.705
18422TIP3    H255152   6.781   3.368   8.666
18423TIP3   OH255153   7.198   3.843   7.565
18423TIP3    H155154   7.278   3.896   7.581
18423TIP3    H255155   7.138   3.907   7.525
18424TIP3   OH255156   6.916   3.998   8.644
18424TIP3    H155157   6.881   3.999   8.553
18424TIP3    H255158   6.836   3.976   8.697
18425TIP3   OH255159   7.971   2.403   7.337
18425TIP3    H155160   7.890   2.424   7.387
18425TIP3    H255161   7.985   2.486   7.288
18426TIP3   OH255162   6.714   3.145   7.684
18426TIP3    H155163   6.648   3.191   7.627
18426TIP3    H255164   6.673   3.059   7.696
18427TIP3   OH255165   7.769   3.771   6.884
18427TIP3    H155166   7.777   3.868   6.871
18427TIP3    H255167   7.862   3.742   6.872
18428TIP3   OH255168   6.493   3.530   8.593
18428TIP3    H155169   6.430   3.508   8.522
18428TIP3    H255170   6.531   3.442   8.616
18429TIP3   OH255171   6.349   3.720   8.228
18429TIP3    H155172   6.445   3.714   8.213
18429TIP3    H255173   6.343   3.802   8.280
18430TIP3   OH255174   8.210   4.172   8.277
18430TIP3    H155175   8.213   4.076   8.295
18430TIP3    H255176   8.129   4.197   8.326
18431TIP3   OH255177   7.320   3.960   8.415
18431TIP3    H155178   7.318   4.052   8.447
18431TIP3    H255179   7.249   3.919   8.469
18432TIP3   OH255180   7.081   4.089   7.367
18432TIP3    H155181   7.035   4.074   7.283
18432TIP3    H255182   7.048   4.177   7.394
18433TIP3   OH255183   6.518   3.936   7.750
18433TIP3    H155184   6.567   3.928   7.834
18433TIP3    H255185   6.458   3.859   7.757
18434TIP3   OH255186   7.281   3.989   7.006
18434TIP3    H155187   7.341   3.920   6.971
18434TIP3    H255188   7.315   3.999   7.098
18435TIP3   OH255189   7.332   4.037   7.276
18435TIP3    H155190   7.243   4.048   7.318
18435TIP3    H255191   7.383   4.000   7.350
18436TIP3   OH255192   8.107   3.301   8.543
18436TIP3    H155193   8.020   3.313   8.504
18436TIP3    H255194   8.118   3.204   8.540
18437TIP3   OH255195   6.699   3.712   8.581
18437TIP3    H155196   6.749   3.695   8.663
18437TIP3    H255197   6.625   3.648   8.588
18438TIP3   OH255198   7.099   2.535   8.364
18438TIP3    H155199   7.009   2.505   8.338
18438TIP3    H255200   7.075   2.618   8.410
18439TIP3   OH255201   7.632   2.650   8.558
18439TIP3    H155202   7.700   2.625   8.623
18439TIP3    H255203   7.548   2.631   8.604
18440TIP3   OH255204   7.869   3.078   8.474
18440TIP3    H155205   7.823   3.076   8.560
18440TIP3    H255206   7.849   3.168   8.441
18441TIP3   OH255207   7.532   3.208   7.033
18441TIP3    H155208   7.498   3.183   6.944
18441TIP3    H255209   7.611   3.259   7.009
18442TIP3   OH255210   7.243   2.583   7.335
18442TIP3    H155211   7.210   2.580   7.427
18442TIP3    H255212   7.205   2.499   7.301
18443TIP3   OH255213   7.029   3.051   8.381
18443TIP3    H155214   6.982   3.074   8.464
18443TIP3    H255215   7.015   3.132   8.328
18444TIP3   OH255216   6.915   2.936   7.897
18444TIP3    H155217   6.822   2.911   7.914
18444TIP3    H255218   6.928   2.896   7.808
18445TIP3   OH255219   7.405   3.022   7.624
18445TIP3    H155220   7.352   3.094   7.582
18445TIP3    H255221   7.460   2.992   7.549
18446TIP3   OH255222   7.581   3.301   8.709
18446TIP3    H155223   7.561   3.229   8.772
18446TIP3    H255224   7.674   3.319   8.730
18447TIP3   OH255225   7.561   3.051   7.864
18447TIP3    H155226   7.502   3.082   7.792
18447TIP3    H255227   7.594   2.970   7.820
18448TIP3   OH255228   6.848   3.081   8.592
18448TIP3    H155229   6.884   3.143   8.656
18448TIP3    H255230   6.840   2.999   8.645
18449TIP3   OH255231   6.900   2.557   7.301
18449TIP3    H155232   6.892   2.556   7.398
18449TIP3    H255233   6.822   2.610   7.276
18450TIP3   OH255234   6.444   2.600   8.172
18450TIP3    H155235   6.518   2.634   8.227
18450TIP3    H255236   6.487   2.571   8.091
18451TIP3   OH255237   6.414   2.581   7.692
18451TIP3    H155238   6.462   2.619   7.616
18451TIP3    H255239   6.355   2.657   7.713
18452TIP3   OH255240   7.566   3.297   8.285
18452TIP3    H155241   7.603   3.226   8.228
18452TIP3    H255242   7.542   3.245   8.364
18453TIP3   OH255243   7.241   2.758   7.958
18453TIP3    H155244   7.160   2.757   8.012
18453TIP3    H255245   7.311   2.759   8.026
18454TIP3   OH255246   6.676   2.815   7.967
18454TIP3    H155247   6.582   2.822   7.939
18454TIP3    H255248   6.700   2.724   7.942
18455TIP3   OH255249   6.945   2.811   7.654
18455TIP3    H155250   7.039   2.826   7.634
18455TIP3    H255251   6.899   2.834   7.570
18456TIP3   OH255252   7.733   2.835   8.157
18456TIP3    H155253   7.701   2.848   8.250
18456TIP3    H255254   7.666   2.774   8.123
18457TIP3   OH255255   6.786   2.844   7.432
18457TIP3    H155256   6.716   2.799   7.381
18457TIP3    H255257   6.839   2.882   7.358
18458TIP3   OH255258   7.903   4.525   8.379
18458TIP3    H155259   7.902   4.547   8.284
18458TIP3    H255260   7.983   4.572   8.409
18459TIP3   OH255261   6.858   3.633   8.805
18459TIP3    H155262   6.941   3.663   8.847
18459TIP3    H255263   6.797   3.638   8.881
18460TIP3   OH255264   7.324   3.086   8.054
18460TIP3    H155265   7.400   3.050   8.003
18460TIP3    H255266   7.337   3.045   8.141
18461TIP3   OH255267   6.846   2.576   7.933
18461TIP3    H155268   6.814   2.496   7.980
18461TIP3    H255269   6.899   2.538   7.862
18462TIP3   OH255270   7.302   2.982   8.349
18462TIP3    H155271   7.213   3.022   8.360
18462TIP3    H255272   7.360   3.044   8.397
18463TIP3   OH255273   7.038   3.375   7.440
18463TIP3    H155274   6.965   3.310   7.429
18463TIP3    H255275   7.020   3.409   7.531
18464TIP3   OH255276   7.939   3.611   8.069
18464TIP3    H155277   7.963   3.661   7.988
18464TIP3    H255278   7.854   3.570   8.044
18465TIP3   OH255279   7.496   2.686   7.304
18465TIP3    H155280   7.399   2.670   7.311
18465TIP3    H255281   7.505   2.781   7.327
18466TIP3   OH255282   7.432   3.690   8.439
18466TIP3    H155283   7.468   3.674   8.527
18466TIP3    H255284   7.400   3.782   8.444
18467TIP3   OH255285   7.566   2.934   7.406
18467TIP3    H155286   7.662   2.941   7.422
18467TIP3    H255287   7.547   3.015   7.354
18468TIP3   OH255288   6.727   3.393   8.116
18468TIP3    H155289   6.767   3.369   8.030
18468TIP3    H255290   6.776   3.335   8.176
18469TIP3   OH255291   7.183   3.524   7.261
18469TIP3    H155292   7.136   3.611   7.266
18469TIP3    H255293   7.129   3.470   7.322
18470TIP3   OH255294   6.609   3.319   8.732
18470TIP3    H155295   6.632   3.302   8.825
18470TIP3    H255296   6.541   3.252   8.714
18471TIP3   OH255297   7.338   3.430   8.749
18471TIP3    H155298   7.282   3.373   8.695
18471TIP3    H255299   7.428   3.399   8.723
18472TIP3   OH255300   7.597   3.950   8.336
18472TIP3    H155301   7.501   3.953   8.347
18472TIP3    H255302   7.626   4.004   8.413
18473TIP3   OH255303   8.008   3.025   7.241
18473TIP3    H155304   7.946   2.980   7.179
18473TIP3    H255305   8.004   3.114   7.202
18474TIP3   OH255306   8.223   3.880   8.322
18474TIP3    H155307   8.125   3.876   8.314
18474TIP3    H255308   8.250   3.852   8.232
18475TIP3   OH255309   7.711   3.844   7.150
18475TIP3    H155310   7.682   3.776   7.213
18475TIP3    H255311   7.720   3.796   7.067
18476TIP3   OH255312   7.704   3.474   7.988
18476TIP3    H155313   7.610   3.449   8.001
18476TIP3    H255314   7.738   3.394   7.943
18477TIP3   OH255315   6.832   3.701   7.741
18477TIP3    H155316   6.835   3.783   7.688
18477TIP3    H255317   6.737   3.687   7.749
18478TIP3   OH255318   6.394   3.009   7.441
18478TIP3    H155319   6.441   3.092   7.463
18478TIP3    H255320   6.319   3.013   7.505
18479TIP3   OH255321   6.968   3.466   7.685
18479TIP3    H155322   6.935   3.556   7.702
18479TIP3    H255323   6.933   3.417   7.761
18480TIP3   OH255324   7.100   4.045   8.210
18480TIP3    H155325   7.140   4.118   8.158
18480TIP3    H255326   7.178   4.011   8.257
18481TIP3   OH255327   6.754   3.939   7.594
18481TIP3    H155328   6.667   3.950   7.638
18481TIP3    H255329   6.788   4.031   7.597
18482TIP3   OH255330   7.488   3.678   8.170
18482TIP3    H155331   7.478   3.675   8.267
18482TIP3    H255332   7.571   3.629   8.157
18483TIP3   OH255333   7.464   3.570   7.051
18483TIP3    H155334   7.516   3.545   7.131
18483TIP3    H255335   7.375   3.546   7.081
18484TIP3   OH255336   7.736   4.213   8.219
18484TIP3    H155337   7.656   4.157   8.210
18484TIP3    H255338   7.722   4.278   8.146
18485TIP3   OH255339   7.803   4.046   6.870
18485TIP3    H155340   7.839   4.120   6.819
18485TIP3    H255341   7.723   4.091   6.906
18486TIP3   OH255342   6.823   2.824   8.738
18486TIP3    H155343   6.727   2.824   8.750
18486TIP3    H255344   6.851   2.763   8.809
18487TIP3   OH255345   7.623   3.503   7.267
18487TIP3    H155346   7.614   3.438   7.340
18487TIP3    H255347   7.721   3.502   7.256
18488TIP3   OH255348   6.536   3.907   8.371
18488TIP3    H155349   6.592   3.834   8.400
18488TIP3    H255350   6.571   3.980   8.425
18489TIP3   OH255351   6.830   3.552   7.051
18489TIP3    H155352   6.844   3.460   7.023
18489TIP3    H255353   6.811   3.540   7.146
18490TIP3   OH255354   6.775   3.556   7.324
18490TIP3    H155355   6.848   3.532   7.382
18490TIP3    H255356   6.777   3.655   7.329
18491TIP3   OH255357   6.509   3.250   7.527
18491TIP3    H155358   6.444   3.296   7.583
18491TIP3    H255359   6.525   3.319   7.459
18492TIP3   OH255360   7.660   2.886   8.416
18492TIP3    H155361   7.738   2.929   8.456
18492TIP3    H255362   7.647   2.807   8.473
18493TIP3   OH255363   7.540   2.638   7.584
18493TIP3    H155364   7.526   2.661   7.490
18493TIP3    H255365   7.579   2.720   7.620
18494TIP3   OH255366   7.040   3.754   7.272
18494TIP3    H155367   6.953   3.781   7.308
18494TIP3    H255368   7.058   3.828   7.212
18495TIP3   OH255369   7.228   2.818   7.686
18495TIP3    H155370   7.292   2.890   7.668
18495TIP3    H255371   7.234   2.810   7.783
18496TIP3   OH255372   7.498   3.136   8.496
18496TIP3    H155373   7.520   3.192   8.573
18496TIP3    H255374   7.555   3.059   8.510
18497TIP3   OH255375   7.373   2.544   7.788
18497TIP3    H155376   7.367   2.621   7.848
18497TIP3    H255377   7.434   2.580   7.719
18498TIP3   OH255378   6.782   3.828   7.340
18498TIP3    H155379   6.754   3.898   7.276
18498TIP3    H255380   6.768   3.874   7.426
18499TIP3   OH255381   6.884   2.543   7.578
18499TIP3    H155382   6.883   2.634   7.614
18499TIP3    H255383   6.980   2.524   7.586
18500TIP3   OH255384   8.138   3.030   8.481
18500TIP3    H155385   8.039   3.029   8.481
18500TIP3    H255386   8.157   3.006   8.390
18501TIP3   OH255387   7.789   3.231   7.862
18501TIP3    H155388   7.714   3.171   7.876
18501TIP3    H255389   7.861   3.185   7.910
18502TIP3   OH255390   6.501   3.460   7.333
18502TIP3    H155391   6.565   3.532   7.342
18502TIP3    H255392   6.548   3.406   7.265
18503TIP3   OH255393   6.450   2.741   7.477
18503TIP3    H155394   6.454   2.837   7.464
18503TIP3    H255395   6.371   2.717   7.428
18504TIP3   OH255396   7.758   4.186   7.813
18504TIP3    H155397   7.716   4.233   7.737
18504TIP3    H255398   7.852   4.205   7.792
18505TIP3   OH255399   6.833   2.456   8.339
18505TIP3    H155400   6.803   2.422   8.252
18505TIP3    H255401   6.823   2.377   8.397
18506TIP3   OH255402   6.371   3.668   7.720
18506TIP3    H155403   6.300   3.704   7.775
18506TIP3    H255404   6.351   3.711   7.634
18507TIP3   OH255405   6.530   4.216   8.794
18507TIP3    H155406   6.617   4.217   8.839
18507TIP3    H255407   6.511   4.121   8.790
18508TIP3   OH255408   7.010   4.181   8.835
18508TIP3    H155409   7.105   4.161   8.844
18508TIP3    H255410   6.986   4.122   8.761
18509TIP3   OH255411   6.993   3.756   6.963
18509TIP3    H155412   6.937   3.684   7.001
18509TIP3    H255413   7.068   3.704   6.929
18510TIP3   OH255414   7.649   4.087   8.571
18510TIP3    H155415   7.641   4.016   8.638
18510TIP3    H255416   7.729   4.135   8.600
18511TIP3   OH255417   7.429   3.796   6.875
18511TIP3    H155418   7.474   3.733   6.933
18511TIP3    H255419   7.485   3.796   6.795
18512TIP3   OH255420   6.654   3.609   9.000
18512TIP3    H155421   6.677   3.516   8.984
18512TIP3    H255422   6.570   3.618   8.949
18513TIP3   OH255423   6.637   3.272   7.185
18513TIP3    H155424   6.694   3.242   7.258
18513TIP3    H255425   6.703   3.277   7.113
18514TIP3   OH255426   7.266   3.706   8.766
18514TIP3    H155427   7.229   3.724   8.677
18514TIP3    H255428   7.300   3.615   8.757
18515TIP3   OH255429   7.148   3.471   6.992
18515TIP3    H155430   7.150   3.484   7.089
18515TIP3    H255431   7.147   3.373   6.987
18516TIP3   OH255432   7.758   3.716   8.369
18516TIP3    H155433   7.836   3.758   8.327
18516TIP3    H255434   7.691   3.786   8.356
18517TIP3   OH255435   6.780   3.354   8.975
18517TIP3    H155436   6.860   3.309   8.946
18517TIP3    H255437   6.807   3.387   9.063
18518TIP3   OH255438   6.844   3.177   7.406
18518TIP3    H155439   6.820   3.135   7.490
18518TIP3    H255440   6.881   3.102   7.355
18519TIP3   OH255441   7.111   3.236   8.631
18519TIP3    H155442   7.037   3.301   8.635
18519TIP3    H255443   7.164   3.272   8.556
18520TIP3   OH255444   6.946   2.969   7.248
18520TIP3    H155445   6.920   2.974   7.154
18520TIP3    H255446   7.044   2.974   7.241
18521TIP3   OH255447   7.631   3.641   8.768
18521TIP3    H155448   7.715   3.623   8.725
18521TIP3    H255449   7.631   3.576   8.841
18522TIP3   OH255450   7.769   3.301   6.910
18522TIP3    H155451   7.746   3.255   6.827
18522TIP3    H255452   7.736   3.391   6.888
18523TIP3   OH255453   7.234   3.029   8.764
18523TIP3    H155454   7.239   2.950   8.707
18523TIP3    H255455   7.193   3.095   8.704
18524TIP3   OH255456   7.240   2.815   8.570
18524TIP3    H155457   7.269   2.858   8.486
18524TIP3    H255458   7.146   2.793   8.549
18525TIP3   OH255459   7.266   3.349   8.442
18525TIP3    H155460   7.351   3.359   8.398
18525TIP3    H255461   7.212   3.417   8.397
18526TIP3   OH255462   7.851   3.320   8.818
18526TIP3    H155463   7.900   3.244   8.852
18526TIP3    H255464   7.924   3.380   8.795
18527TIP3   OH255465   7.890   3.568   8.554
18527TIP3    H155466   7.833   3.623   8.496
18527TIP3    H255467   7.978   3.590   8.517
18528TIP3   OH255468   7.109   3.143   8.992
18528TIP3    H155469   7.046   3.069   9.004
18528TIP3    H255470   7.149   3.119   8.905
18529TIP3   OH255471   7.371   2.579   8.634
18529TIP3    H155472   7.322   2.661   8.612
18529TIP3    H255473   7.302   2.511   8.623
18530TIP3   OH255474   7.500   3.084   8.851
18530TIP3    H155475   7.497   3.072   8.947
18530TIP3    H255476   7.409   3.058   8.827
18531TIP3   OH255477   7.736   3.027   8.704
18531TIP3    H155478   7.663   3.034   8.768
18531TIP3    H255479   7.812   3.003   8.761
18532TIP3   OH255480   7.969   2.970   8.852
18532TIP3    H155481   7.974   2.878   8.883
18532TIP3    H255482   7.960   3.021   8.936
18533TIP3   OH255483   6.953   2.921   9.047
18533TIP3    H155484   6.962   2.831   9.010
18533TIP3    H255485   6.993   2.908   9.135
18534TIP3   OH255486   7.463   2.590   8.891
18534TIP3    H155487   7.528   2.518   8.881
18534TIP3    H255488   7.421   2.587   8.802
18535TIP3   OH255489   7.534   2.804   9.051
18535TIP3    H155490   7.509   2.732   8.988
18535TIP3    H255491   7.455   2.862   9.046
18536TIP3   OH255492   6.752   4.027   7.150
18536TIP3    H155493   6.848   4.026   7.133
18536TIP3    H255494   6.723   4.081   7.074
18537TIP3   OH255495   6.233   3.414   7.370
18537TIP3    H155496   6.328   3.437   7.355
18537TIP3    H255497   6.229   3.326   7.327
18538TIP3   OH255498   6.145   4.025   7.783
18538TIP3    H155499   6.079   3.962   7.746
18538TIP3    H255500   6.191   3.968   7.848
18539TIP3   OH255501   6.284   3.876   7.967
18539TIP3    H155502   6.273   3.804   8.031
18539TIP3    H255503   6.337   3.939   8.021
18540TIP3   OH255504   8.012   4.276   7.769
18540TIP3    H155505   8.038   4.309   7.858
18540TIP3    H255506   8.072   4.325   7.711
18541TIP3   OH255507   8.042   4.298   8.051
18541TIP3    H155508   7.997   4.211   8.046
18541TIP3    H255509   8.115   4.274   8.111
18542TIP3   OH255510   8.082   3.978   8.619
18542TIP3    H155511   8.013   3.985   8.688
18542TIP3    H255512   8.128   4.064   8.628
18543TIP3   OH255513   7.903   3.487   7.243
18543TIP3    H155514   7.971   3.552   7.215
18543TIP3    H255515   7.947   3.449   7.323
18544TIP3   OH255516   8.031   3.354   7.447
18544TIP3    H155517   7.965   3.313   7.507
18544TIP3    H255518   8.096   3.393   7.509
18545TIP3   OH255519   8.083   3.747   7.878
18545TIP3    H155520   8.138   3.682   7.829
18545TIP3    H255521   8.077   3.821   7.815
18546TIP3   OH255522   7.916   4.049   8.073
18546TIP3    H155523   7.844   4.089   8.126
18546TIP3    H255524   7.865   4.001   8.003
18547TIP3   OH255525   7.969   3.262   7.094
18547TIP3    H155526   7.897   3.266   7.026
18547TIP3    H255527   7.941   3.338   7.149
18548TIP3   OH255528   7.841   2.935   7.047
18548TIP3    H155529   7.795   2.975   6.973
18548TIP3    H255530   7.815   2.841   7.037
18549TIP3   OH255531   7.844   3.212   7.594
18549TIP3    H155532   7.853   3.116   7.589
18549TIP3    H255533   7.830   3.227   7.690
18550TIP3   OH255534   6.470   3.283   8.342
18550TIP3    H155535   6.469   3.254   8.248
18550TIP3    H255536   6.568   3.287   8.358
18551TIP3   OH255537   8.131   3.637   8.446
18551TIP3    H155538   8.205   3.572   8.441
18551TIP3    H255539   8.164   3.709   8.390
18552TIP3   OH255540   8.319   3.446   8.465
18552TIP3    H155541   8.245   3.393   8.502
18552TIP3    H255542   8.394   3.384   8.482
18553TIP3   OH255543   7.784   2.669   7.032
18553TIP3    H155544   7.856   2.639   7.090
18553TIP3    H255545   7.709   2.612   7.057
18554TIP3   OH255546   7.840   2.927   7.489
18554TIP3    H155547   7.881   2.839   7.503
18554TIP3    H255548   7.899   2.961   7.419
18555TIP3   OH255549   8.001   3.102   7.983
18555TIP3    H155550   8.088   3.127   7.943
18555TIP3    H255551   8.015   3.139   8.072
18556TIP3   OH255552   8.069   3.244   8.215
18556TIP3    H155553   7.994   3.280   8.265
18556TIP3    H255554   8.103   3.325   8.170
18557TIP3   OH255555   6.686   2.973   9.015
18557TIP3    H155556   6.784   2.967   9.015
18557TIP3    H255557   6.663   2.887   9.055
18558TIP3   OH255558   7.950   2.678   7.525
18558TIP3    H155559   7.998   2.662   7.609
18558TIP3    H255560   7.889   2.601   7.525
18559TIP3   OH255561   6.649   2.664   8.348
18559TIP3    H155562   6.711   2.589   8.356
18559TIP3    H255563   6.711   2.739   8.339
18560TIP3   OH255564   6.452   2.938   8.419
18560TIP3    H155565   6.502   2.931   8.335
18560TIP3    H255566   6.481   3.025   8.450
18561TIP3   OH255567   8.388   2.974   8.598
18561TIP3    H155568   8.299   3.014   8.593
18561TIP3    H255569   8.377   2.901   8.534
18562TIP3   OH255570   8.031   2.612   7.160
18562TIP3    H155571   8.071   2.541   7.106
18562TIP3    H255572   8.097   2.683   7.154
18563TIP3   OH255573   6.436   2.438   7.919
18563TIP3    H155574   6.343   2.438   7.948
18563TIP3    H255575   6.433   2.499   7.842
18564TIP3   OH255576   7.598   4.140   7.426
18564TIP3    H155577   7.650   4.131   7.344
18564TIP3    H255578   7.645   4.213   7.471
18565TIP3   OH255579   6.656   2.523   8.735
18565TIP3    H155580   6.604   2.516   8.817
18565TIP3    H255581   6.590   2.559   8.673
18566TIP3   OH255582   6.696   3.947   8.813
18566TIP3    H155583   6.603   3.921   8.798
18566TIP3    H255584   6.706   3.935   8.908
18567TIP3   OH255585   6.874   3.981   8.358
18567TIP3    H155586   6.827   4.058   8.319
18567TIP3    H255587   6.960   3.994   8.314
18568TIP3   OH255588   7.318   4.226   8.498
18568TIP3    H155589   7.362   4.226   8.586
18568TIP3    H255590   7.384   4.276   8.445
18569TIP3   OH255591   7.498   4.376   8.356
18569TIP3    H155592   7.569   4.326   8.313
18569TIP3    H255593   7.550   4.434   8.417
18570TIP3   OH255594   8.285   2.739   8.457
18570TIP3    H155595   8.196   2.728   8.419
18570TIP3    H255596   8.322   2.648   8.447
18571TIP3   OH255597   6.548   4.235   8.384
18571TIP3    H155598   6.461   4.271   8.358
18571TIP3    H255599   6.560   4.277   8.469
18572TIP3   OH255600   6.786   4.215   8.241
18572TIP3    H155601   6.699   4.229   8.283
18572TIP3    H255602   6.770   4.248   8.150
18573TIP3   OH255603   7.212   4.245   8.039
18573TIP3    H155604   7.147   4.263   7.968
18573TIP3    H255605   7.224   4.335   8.075
18574TIP3   OH255606   7.480   4.185   8.090
18574TIP3    H155607   7.386   4.201   8.070
18574TIP3    H255608   7.523   4.260   8.045
18575TIP3   OH255609   7.691   4.378   8.004
18575TIP3    H155610   7.674   4.462   7.957
18575TIP3    H255611   7.715   4.317   7.931
18576TIP3   OH255612   6.459   4.030   8.127
18576TIP3    H155613   6.488   4.006   8.218
18576TIP3    H255614   6.532   3.989   8.076
18577TIP3   OH255615   6.654   3.903   7.985
18577TIP3    H155616   6.672   3.819   8.033
18577TIP3    H255617   6.744   3.941   7.979
18578TIP3   OH255618   6.917   3.996   7.990
18578TIP3    H155619   6.953   3.906   7.976
18578TIP3    H255620   6.965   4.021   8.070
18579TIP3   OH255621   7.496   2.654   8.072
18579TIP3    H155622   7.454   2.584   8.125
18579TIP3    H255623   7.571   2.607   8.030
18580TIP3   OH255624   8.020   2.533   7.975
18580TIP3    H155625   8.056   2.587   7.902
18580TIP3    H255626   7.926   2.555   7.973
18581TIP3   OH255627   8.116   2.634   7.741
18581TIP3    H155628   8.190   2.584   7.702
18581TIP3    H255629   8.149   2.726   7.728
18582TIP3   OH255630   6.746   2.362   8.091
18582TIP3    H155631   6.654   2.329   8.093
18582TIP3    H255632   6.795   2.278   8.088
18583TIP3   OH255633   6.517   2.234   7.732
18583TIP3    H155634   6.562   2.290   7.665
18583TIP3    H255635   6.501   2.299   7.803
18584TIP3   OH255636   7.189   2.396   7.972
18584TIP3    H155637   7.246   2.444   7.911
18584TIP3    H255638   7.214   2.434   8.057
18585TIP3   OH255639   7.735   2.542   7.956
18585TIP3    H155640   7.734   2.505   7.867
18585TIP3    H255641   7.723   2.461   8.011
18586TIP3   OH255642   7.766   2.464   7.517
18586TIP3    H155643   7.680   2.508   7.529
18586TIP3    H255644   7.751   2.379   7.564
18587TIP3   OH255645   6.249   3.804   7.521
18587TIP3    H155646   6.164   3.773   7.485
18587TIP3    H255647   6.241   3.899   7.501
18588TIP3   OH255648   6.650   2.390   7.505
18588TIP3    H155649   6.697   2.329   7.445
18588TIP3    H255650   6.723   2.446   7.537
18589TIP3   OH255651   7.161   2.567   7.601
18589TIP3    H155652   7.223   2.521   7.661
18589TIP3    H255653   7.183   2.660   7.625
18590TIP3   OH255654   7.022   3.992   7.101
18590TIP3    H155655   7.110   4.016   7.065
18590TIP3    H255656   7.000   3.917   7.041
18591TIP3   OH255657   7.743   4.112   7.192
18591TIP3    H155658   7.734   4.014   7.181
18591TIP3    H255659   7.695   4.144   7.114
18592TIP3   OH255660   6.953   2.642   8.982
18592TIP3    H155661   6.920   2.571   9.040
18592TIP3    H255662   7.047   2.644   9.008
18593TIP3   OH255663   7.201   2.640   9.101
18593TIP3    H155664   7.288   2.617   9.063
18593TIP3    H255665   7.192   2.570   9.169
18594TIP3   OH255666   6.324   3.825   7.157
18594TIP3    H155667   6.329   3.858   7.248
18594TIP3    H255668   6.413   3.786   7.144
18595TIP3   OH255669   8.034   2.700   8.892
18595TIP3    H155670   8.077   2.658   8.968
18595TIP3    H255671   8.111   2.719   8.835
18596TIP3   OH255672   7.966   4.256   8.380
18596TIP3    H155673   7.887   4.224   8.332
18596TIP3    H255674   7.945   4.352   8.385
18597TIP3   OH255675   9.235   3.627   7.145
18597TIP3    H155676   9.206   3.719   7.126
18597TIP3    H255677   9.156   3.578   7.117
18598TIP3   OH255678   9.230   3.627   7.525
18598TIP3    H155679   9.259   3.606   7.616
18598TIP3    H255680   9.188   3.544   7.499
18599TIP3   OH255681   8.532   3.521   7.891
18599TIP3    H155682   8.560   3.454   7.956
18599TIP3    H255683   8.606   3.583   7.897
18600TIP3   OH255684   9.478   3.928   7.210
18600TIP3    H155685   9.459   3.860   7.275
18600TIP3    H255686   9.503   4.004   7.265
18601TIP3   OH255687   8.501   3.931   7.615
18601TIP3    H155688   8.492   3.834   7.618
18601TIP3    H255689   8.598   3.940   7.618
18602TIP3   OH255690   8.210   3.134   7.402
18602TIP3    H155691   8.163   3.218   7.419
18602TIP3    H255692   8.138   3.082   7.363
18603TIP3   OH255693   8.268   3.422   7.574
18603TIP3    H155694   8.317   3.345   7.612
18603TIP3    H255695   8.331   3.455   7.509
18604TIP3   OH255696   9.125   4.392   7.226
18604TIP3    H155697   9.172   4.320   7.178
18604TIP3    H255698   9.116   4.355   7.314
18605TIP3   OH255699   9.031   3.854   7.574
18605TIP3    H155700   9.070   3.776   7.530
18605TIP3    H255701   9.115   3.899   7.599
18606TIP3   OH255702   9.446   3.364   7.603
18606TIP3    H155703   9.481   3.276   7.626
18606TIP3    H255704   9.412   3.346   7.514
18607TIP3   OH255705   8.782   3.014   7.573
18607TIP3    H155706   8.761   3.087   7.511
18607TIP3    H255707   8.732   2.941   7.529
18608TIP3   OH255708   9.470   3.103   7.191
18608TIP3    H155709   9.541   3.089   7.258
18608TIP3    H255710   9.522   3.142   7.119
18609TIP3   OH255711   8.414   3.216   7.680
18609TIP3    H155712   8.497   3.198   7.729
18609TIP3    H255713   8.429   3.160   7.601
18610TIP3   OH255714   8.857   3.414   7.470
18610TIP3    H155715   8.950   3.388   7.486
18610TIP3    H255716   8.817   3.329   7.441
18611TIP3   OH255717   8.780   3.000   8.005
18611TIP3    H155718   8.720   3.038   7.938
18611TIP3    H255719   8.726   3.012   8.085
18612TIP3   OH255720   9.127   3.850   7.015
18612TIP3    H155721   9.080   3.828   6.933
18612TIP3    H255722   9.082   3.933   7.040
18613TIP3   OH255723   8.884   3.773   7.803
18613TIP3    H155724   8.821   3.837   7.843
18613TIP3    H255725   8.925   3.826   7.732
18614TIP3   OH255726   9.681   3.100   7.354
18614TIP3    H155727   9.681   3.064   7.444
18614TIP3    H255728   9.744   3.173   7.366
18615TIP3   OH255729   8.648   3.113   7.791
18615TIP3    H155730   8.708   3.186   7.816
18615TIP3    H255731   8.699   3.073   7.717
18616TIP3   OH255732   8.710   3.965   7.900
18616TIP3    H155733   8.685   4.053   7.865
18616TIP3    H255734   8.633   3.949   7.959
18617TIP3   OH255735   8.107   3.656   7.137
18617TIP3    H155736   8.064   3.684   7.054
18617TIP3    H255737   8.138   3.742   7.174
18618TIP3   OH255738   9.546   4.171   7.374
18618TIP3    H155739   9.457   4.162   7.416
18618TIP3    H255740   9.537   4.258   7.330
18619TIP3   OH255741   9.122   2.720   7.698
18619TIP3    H155742   9.122   2.631   7.738
18619TIP3    H255743   9.054   2.765   7.752
18620TIP3   OH255744   9.250   4.218   7.052
18620TIP3    H155745   9.299   4.136   7.031
18620TIP3    H255746   9.310   4.284   7.010
18621TIP3   OH255747   9.392   4.003   6.958
18621TIP3    H155748   9.349   3.925   6.922
18621TIP3    H255749   9.429   3.968   7.042
18622TIP3   OH255750   9.758   4.085   7.721
18622TIP3    H155751   9.749   4.008   7.661
18622TIP3    H255752   9.745   4.160   7.659
18623TIP3   OH255753   9.063   3.477   6.977
18623TIP3    H155754   8.983   3.530   6.957
18623TIP3    H255755   9.109   3.477   6.892
18624TIP3   OH255756   9.022   3.264   6.692
18624TIP3    H155757   9.088   3.314   6.743
18624TIP3    H255758   9.080   3.200   6.646
18625TIP3   OH255759   9.944   3.699   7.540
18625TIP3    H155760   9.874   3.764   7.562
18625TIP3    H255761   9.991   3.746   7.468
18626TIP3   OH255762   9.411   3.561   6.948
18626TIP3    H155763   9.356   3.585   7.026
18626TIP3    H255764   9.495   3.536   6.993
18627TIP3   OH255765   9.610   3.592   7.818
18627TIP3    H155766   9.625   3.667   7.876
18627TIP3    H255767   9.514   3.593   7.808
18628TIP3   OH255768   8.645   3.559   7.365
18628TIP3    H155769   8.604   3.501   7.298
18628TIP3    H255770   8.721   3.506   7.395
18629TIP3   OH255771   8.776   3.975   7.512
18629TIP3    H155772   8.753   3.927   7.431
18629TIP3    H255773   8.865   3.939   7.532
18630TIP3   OH255774   8.781   3.530   7.718
18630TIP3    H155775   8.817   3.511   7.629
18630TIP3    H255776   8.824   3.615   7.741
18631TIP3   OH255777   9.307   4.167   7.498
18631TIP3    H155778   9.293   4.247   7.552
18631TIP3    H255779   9.291   4.094   7.561
18632TIP3   OH255780   8.917   4.090   8.042
18632TIP3    H155781   8.859   4.149   8.094
18632TIP3    H255782   8.850   4.035   7.996
18633TIP3   OH255783   9.253   3.418   6.775
18633TIP3    H155784   9.311   3.478   6.827
18633TIP3    H255785   9.278   3.443   6.683
18634TIP3   OH255786   8.671   3.645   8.142
18634TIP3    H155787   8.678   3.730   8.190
18634TIP3    H255788   8.576   3.625   8.159
18635TIP3   OH255789   8.996   4.098   7.049
18635TIP3    H155790   9.074   4.152   7.068
18635TIP3    H255791   8.933   4.161   7.013
18636TIP3   OH255792   8.711   4.259   8.132
18636TIP3    H155793   8.674   4.253   8.042
18636TIP3    H255794   8.633   4.236   8.188
18637TIP3   OH255795   9.775   2.679   6.853
18637TIP3    H155796   9.684   2.696   6.884
18637TIP3    H255797   9.782   2.740   6.777
18638TIP3   OH255798   8.512   3.401   7.167
18638TIP3    H155799   8.444   3.446   7.113
18638TIP3    H255800   8.468   3.317   7.186
18639TIP3   OH255801   9.565   4.028   6.370
18639TIP3    H155802   9.572   4.125   6.358
18639TIP3    H255803   9.659   4.001   6.358
18640TIP3   OH255804   8.291   3.785   8.078
18640TIP3    H155805   8.226   3.761   8.010
18640TIP3    H255806   8.330   3.699   8.104
18641TIP3   OH255807   8.145   3.979   7.710
18641TIP3    H155808   8.241   3.974   7.704
18641TIP3    H255809   8.133   4.057   7.766
18642TIP3   OH255810   9.993   4.460   7.739
18642TIP3    H155811  10.049   4.388   7.774
18642TIP3    H255812   9.914   4.453   7.797
18643TIP3   OH255813   9.113   4.218   7.898
18643TIP3    H155814   9.112   4.309   7.935
18643TIP3    H255815   9.043   4.176   7.953
18644TIP3   OH255816   8.876   4.346   6.853
18644TIP3    H155817   8.829   4.327   6.769
18644TIP3    H255818   8.843   4.434   6.877
18645TIP3   OH255819   8.315   4.195   7.237
18645TIP3    H155820   8.362   4.185   7.323
18645TIP3    H255821   8.256   4.117   7.241
18646TIP3   OH255822   9.077   4.246   6.493
18646TIP3    H155823   9.136   4.176   6.457
18646TIP3    H255824   9.111   4.256   6.585
18647TIP3   OH255825   9.128   4.294   6.763
18647TIP3    H155826   9.039   4.304   6.805
18647TIP3    H255827   9.178   4.253   6.835
18648TIP3   OH255828   8.496   3.970   8.068
18648TIP3    H155829   8.547   3.952   8.150
18648TIP3    H255830   8.422   3.906   8.077
18649TIP3   OH255831   8.893   2.803   7.836
18649TIP3    H155832   8.802   2.773   7.814
18649TIP3    H255833   8.870   2.884   7.886
18650TIP3   OH255834   9.325   3.465   6.518
18650TIP3    H155835   9.295   3.440   6.428
18650TIP3    H255836   9.407   3.514   6.497
18651TIP3   OH255837   9.041   2.841   6.822
18651TIP3    H155838   9.007   2.838   6.914
18651TIP3    H255839   9.002   2.759   6.788
18652TIP3   OH255840   8.824   3.308   7.869
18652TIP3    H155841   8.777   3.331   7.952
18652TIP3    H255842   8.810   3.389   7.816
18653TIP3   OH255843   8.711   3.194   7.383
18653TIP3    H155844   8.618   3.168   7.401
18653TIP3    H255845   8.723   3.152   7.294
18654TIP3   OH255846   9.201   3.279   7.110
18654TIP3    H155847   9.148   3.350   7.069
18654TIP3    H255848   9.256   3.249   7.035
18655TIP3   OH255849   9.358   3.310   7.348
18655TIP3    H155850   9.296   3.338   7.278
18655TIP3    H255851   9.389   3.226   7.307
18656TIP3   OH255852   8.645   3.339   8.079
18656TIP3    H155853   8.675   3.403   8.145
18656TIP3    H255854   8.637   3.257   8.131
18657TIP3   OH255855   8.696   2.814   6.788
18657TIP3    H155856   8.687   2.812   6.885
18657TIP3    H255857   8.618   2.867   6.764
18658TIP3   OH255858   8.239   2.858   7.658
18658TIP3    H155859   8.313   2.891   7.713
18658TIP3    H255860   8.283   2.828   7.577
18659TIP3   OH255861   8.212   2.840   7.178
18659TIP3    H155862   8.257   2.879   7.100
18659TIP3    H255863   8.150   2.913   7.199
18660TIP3   OH255864   9.337   3.550   7.768
18660TIP3    H155865   9.382   3.482   7.713
18660TIP3    H255866   9.321   3.499   7.851
18661TIP3   OH255867   9.037   3.013   7.444
18661TIP3    H155868   8.955   3.012   7.497
18661TIP3    H255869   9.104   3.017   7.515
18662TIP3   OH255870   8.472   3.072   7.452
18662TIP3    H155871   8.378   3.080   7.426
18662TIP3    H255872   8.494   2.980   7.429
18663TIP3   OH255873   8.742   3.066   7.141
18663TIP3    H155874   8.835   3.084   7.119
18663TIP3    H255875   8.694   3.090   7.059
18664TIP3   OH255876   9.498   3.093   7.618
18664TIP3    H155877   9.476   3.105   7.713
18664TIP3    H255878   9.426   3.034   7.592
18665TIP3   OH255879   8.584   3.100   6.921
18665TIP3    H155880   8.511   3.057   6.873
18665TIP3    H255881   8.635   3.137   6.845
18666TIP3   OH255882   9.697   4.779   7.863
18666TIP3    H155883   9.698   4.804   7.768
18666TIP3    H255884   9.773   4.828   7.898
18667TIP3   OH255885   8.653   3.891   8.282
18667TIP3    H155886   8.734   3.929   8.324
18667TIP3    H255887   8.597   3.886   8.361
18668TIP3   OH255888   9.120   3.343   7.542
18668TIP3    H155889   9.196   3.303   7.498
18668TIP3    H255890   9.126   3.305   7.632
18669TIP3   OH255891   8.643   2.832   7.421
18669TIP3    H155892   8.608   2.753   7.468
18669TIP3    H255893   8.693   2.793   7.348
18670TIP3   OH255894   9.096   3.243   7.829
18670TIP3    H155895   9.008   3.282   7.848
18670TIP3    H255896   9.157   3.298   7.882
18671TIP3   OH255897   8.835   3.631   6.927
18671TIP3    H155898   8.763   3.566   6.916
18671TIP3    H255899   8.816   3.665   7.017
18672TIP3   OH255900   9.730   3.871   7.554
18672TIP3    H155901   9.752   3.918   7.471
18672TIP3    H255902   9.645   3.826   7.532
18673TIP3   OH255903   9.292   2.945   6.787
18673TIP3    H155904   9.196   2.928   6.797
18673TIP3    H255905   9.302   3.039   6.814
18674TIP3   OH255906   9.244   3.953   7.924
18674TIP3    H155907   9.258   3.918   8.013
18674TIP3    H255908   9.192   4.034   7.941
18675TIP3   OH255909   9.364   3.191   6.891
18675TIP3    H155910   9.460   3.198   6.906
18675TIP3    H255911   9.344   3.271   6.839
18676TIP3   OH255912   8.525   3.652   7.603
18676TIP3    H155913   8.566   3.623   7.519
18676TIP3    H255914   8.568   3.593   7.668
18677TIP3   OH255915   8.978   3.780   6.746
18677TIP3    H155916   8.931   3.867   6.752
18677TIP3    H255917   8.924   3.726   6.808
18678TIP3   OH255918   8.409   3.575   8.216
18678TIP3    H155919   8.432   3.569   8.311
18678TIP3    H255920   8.340   3.507   8.208
18679TIP3   OH255921   9.136   3.697   8.214
18679TIP3    H155922   9.076   3.625   8.191
18679TIP3    H255923   9.220   3.649   8.227
18680TIP3   OH255924   9.393   4.216   7.815
18680TIP3    H155925   9.298   4.205   7.830
18680TIP3    H255926   9.420   4.264   7.897
18681TIP3   OH255927   9.797   3.274   6.741
18681TIP3    H155928   9.737   3.229   6.677
18681TIP3    H255929   9.821   3.349   6.685
18682TIP3   OH255930  10.010   4.141   7.795
18682TIP3    H155931   9.914   4.128   7.787
18682TIP3    H255932  10.040   4.101   7.712
18683TIP3   OH255933   9.502   4.101   6.636
18683TIP3    H155934   9.480   4.031   6.699
18683TIP3    H255935   9.517   4.052   6.553
18684TIP3   OH255936   9.499   3.730   7.473
18684TIP3    H155937   9.406   3.704   7.488
18684TIP3    H255938   9.533   3.649   7.432
18685TIP3   OH255939   8.627   3.956   7.224
18685TIP3    H155940   8.625   4.039   7.172
18685TIP3    H255941   8.533   3.941   7.241
18686TIP3   OH255942   8.191   3.261   6.932
18686TIP3    H155943   8.236   3.346   6.952
18686TIP3    H255944   8.114   3.266   6.992
18687TIP3   OH255945   8.766   3.723   7.171
18687TIP3    H155946   8.730   3.812   7.189
18687TIP3    H255947   8.731   3.672   7.246
18688TIP3   OH255948   8.896   4.301   7.697
18688TIP3    H155949   8.940   4.373   7.647
18688TIP3    H255950   8.971   4.265   7.748
18689TIP3   OH255951   8.546   4.197   7.079
18689TIP3    H155952   8.461   4.204   7.126
18689TIP3    H255953   8.577   4.290   7.082
18690TIP3   OH255954   9.285   3.935   7.656
18690TIP3    H155955   9.274   3.936   7.754
18690TIP3    H255956   9.364   3.880   7.646
18691TIP3   OH255957   9.260   3.827   6.537
18691TIP3    H155958   9.313   3.803   6.617
18691TIP3    H255959   9.171   3.802   6.568
18692TIP3   OH255960   9.534   4.469   7.706
18692TIP3    H155961   9.457   4.410   7.701
18692TIP3    H255962   9.516   4.532   7.632
18693TIP3   OH255963   9.598   4.304   6.358
18693TIP3    H155964   9.634   4.378   6.306
18693TIP3    H255965   9.517   4.348   6.393
18694TIP3   OH255966   8.610   3.080   8.216
18694TIP3    H155967   8.516   3.102   8.232
18694TIP3    H255968   8.621   3.007   8.278
18695TIP3   OH255969   9.417   3.760   6.753
18695TIP3    H155970   9.409   3.695   6.826
18695TIP3    H255971   9.515   3.760   6.741
18696TIP3   OH255972   8.337   4.163   7.856
18696TIP3    H155973   8.388   4.088   7.889
18696TIP3    H255974   8.361   4.231   7.920
18697TIP3   OH255975   8.626   3.809   6.537
18697TIP3    H155976   8.639   3.716   6.510
18697TIP3    H255977   8.607   3.798   6.633
18698TIP3   OH255978   8.572   3.814   6.809
18698TIP3    H155979   8.641   3.786   6.871
18698TIP3    H255980   8.575   3.912   6.817
18699TIP3   OH255981   8.306   3.507   7.014
18699TIP3    H155982   8.240   3.551   7.071
18699TIP3    H255983   8.319   3.577   6.946
18700TIP3   OH255984   9.412   3.140   7.871
18700TIP3    H155985   9.478   3.195   7.918
18700TIP3    H255986   9.410   3.062   7.929
18701TIP3   OH255987   9.334   2.894   7.069
18701TIP3    H155988   9.320   2.918   6.976
18701TIP3    H255989   9.372   2.977   7.106
18702TIP3   OH255990   8.837   4.011   6.758
18702TIP3    H155991   8.750   4.037   6.795
18702TIP3    H255992   8.853   4.085   6.698
18703TIP3   OH255993   9.026   3.073   7.173
18703TIP3    H155994   9.090   3.147   7.156
18703TIP3    H255995   9.030   3.067   7.271
18704TIP3   OH255996   9.300   3.401   7.993
18704TIP3    H155997   9.312   3.450   8.077
18704TIP3    H255998   9.372   3.337   7.999
18705TIP3   OH255999   9.170   2.801   7.277
18705TIP3    H156000   9.159   2.878   7.336
18705TIP3    H256001   9.228   2.839   7.207
18706TIP3   OH256002   8.581   4.087   6.826
18706TIP3    H156003   8.550   4.156   6.764
18706TIP3    H256004   8.564   4.129   6.913
18707TIP3   OH256005   8.681   2.800   7.064
18707TIP3    H156006   8.678   2.890   7.101
18707TIP3    H256007   8.777   2.782   7.073
18708TIP3   OH256008   9.586   3.487   7.347
18708TIP3    H156009   9.507   3.432   7.363
18708TIP3    H256010   9.655   3.435   7.393
18709TIP3   OH256011   8.298   3.716   6.819
18709TIP3    H156012   8.362   3.788   6.829
18709TIP3    H256013   8.344   3.662   6.752
18710TIP3   OH256014   8.243   2.992   6.951
18710TIP3    H156015   8.242   3.090   6.949
18710TIP3    H256016   8.157   2.971   6.912
18711TIP3   OH256017   9.554   4.444   7.298
18711TIP3    H156018   9.511   4.490   7.223
18711TIP3    H256019   9.648   4.463   7.277
18712TIP3   OH256020   8.631   2.713   7.824
18712TIP3    H156021   8.597   2.678   7.739
18712TIP3    H256022   8.619   2.637   7.884
18713TIP3   OH256023   8.169   3.930   7.205
18713TIP3    H156024   8.100   3.961   7.266
18713TIP3    H256025   8.140   3.971   7.121
18714TIP3   OH256026   8.325   4.472   8.279
18714TIP3    H156027   8.412   4.469   8.324
18714TIP3    H256028   8.305   4.377   8.276
18715TIP3   OH256029   8.813   4.444   8.313
18715TIP3    H156030   8.901   4.407   8.330
18715TIP3    H256031   8.781   4.381   8.244
18716TIP3   OH256032   8.789   4.012   6.450
18716TIP3    H156033   8.731   3.942   6.489
18716TIP3    H256034   8.864   3.959   6.420
18717TIP3   OH256035   9.450   4.344   8.054
18717TIP3    H156036   9.433   4.274   8.121
18717TIP3    H256037   9.525   4.392   8.092
18718TIP3   OH256038   9.224   4.053   6.363
18718TIP3    H156039   9.269   3.990   6.422
18718TIP3    H256040   9.281   4.052   6.284
18719TIP3   OH256041   8.456   3.880   8.476
18719TIP3    H156042   8.479   3.785   8.482
18719TIP3    H256043   8.368   3.876   8.433
18720TIP3   OH256044   8.434   3.530   6.671
18720TIP3    H156045   8.489   3.497   6.745
18720TIP3    H256046   8.502   3.534   6.600
18721TIP3   OH256047   9.082   3.969   8.245
18721TIP3    H156048   9.023   3.979   8.168
18721TIP3    H256049   9.106   3.873   8.240
18722TIP3   OH256050   8.944   3.728   6.477
18722TIP3    H156051   8.946   3.741   6.574
18722TIP3    H256052   8.942   3.630   6.472
18723TIP3   OH256053   9.553   3.965   7.862
18723TIP3    H156054   9.620   4.015   7.811
18723TIP3    H256055   9.476   4.023   7.852
18724TIP3   OH256056   8.571   3.621   8.463
18724TIP3    H156057   8.637   3.552   8.449
18724TIP3    H256058   8.582   3.629   8.559
18725TIP3   OH256059   8.642   3.434   6.894
18725TIP3    H156060   8.613   3.394   6.978
18725TIP3    H256061   8.677   3.356   6.846
18726TIP3   OH256062   8.915   3.495   8.123
18726TIP3    H156063   8.840   3.557   8.127
18726TIP3    H256064   8.964   3.528   8.045
18727TIP3   OH256065   8.742   3.225   6.734
18727TIP3    H156066   8.716   3.231   6.640
18727TIP3    H256067   8.839   3.231   6.727
18728TIP3   OH256068   9.421   3.885   8.219
18728TIP3    H156069   9.516   3.894   8.206
18728TIP3    H256070   9.415   3.891   8.316
18729TIP3   OH256071   9.563   3.557   6.394
18729TIP3    H156072   9.539   3.511   6.312
18729TIP3    H256073   9.530   3.647   6.373
18730TIP3   OH256074   9.004   3.261   8.245
18730TIP3    H156075   9.033   3.201   8.174
18730TIP3    H256076   8.983   3.343   8.194
18731TIP3   OH256077   9.041   3.068   8.049
18731TIP3    H156078   9.070   3.110   7.965
18731TIP3    H256079   8.946   3.051   8.030
18732TIP3   OH256080   9.060   3.596   7.917
18732TIP3    H156081   9.146   3.610   7.876
18732TIP3    H256082   9.007   3.670   7.881
18733TIP3   OH256083   9.706   3.847   8.049
18733TIP3    H156084   9.634   3.888   7.995
18733TIP3    H256085   9.763   3.814   7.977
18734TIP3   OH256086   8.921   3.397   8.475
18734TIP3    H156087   8.831   3.363   8.486
18734TIP3    H256088   8.945   3.366   8.386
18735TIP3   OH256089   9.126   2.823   8.159
18735TIP3    H156090   9.111   2.905   8.110
18735TIP3    H256091   9.076   2.757   8.109
18736TIP3   OH256092   8.738   3.178   8.498
18736TIP3    H156093   8.791   3.119   8.445
18736TIP3    H256094   8.764   3.154   8.589
18737TIP3   OH256095   8.550   4.292   6.640
18737TIP3    H156096   8.645   4.285   6.619
18737TIP3    H256097   8.519   4.338   6.560
18738TIP3   OH256098   8.029   3.671   6.854
18738TIP3    H156099   8.124   3.692   6.841
18738TIP3    H256100   8.023   3.582   6.813
18739TIP3   OH256101   7.947   4.283   7.267
18739TIP3    H156102   7.878   4.223   7.232
18739TIP3    H256103   7.989   4.225   7.334
18740TIP3   OH256104   8.082   4.134   7.455
18740TIP3    H156105   8.067   4.061   7.518
18740TIP3    H256106   8.131   4.196   7.512
18741TIP3   OH256107   9.809   4.532   7.255
18741TIP3    H156108   9.835   4.565   7.342
18741TIP3    H256109   9.870   4.578   7.196
18742TIP3   OH256110   9.833   4.554   7.534
18742TIP3    H156111   9.788   4.468   7.525
18742TIP3    H256112   9.902   4.528   7.597
18743TIP3   OH256113   9.692   3.747   6.728
18743TIP3    H156114   9.760   3.814   6.704
18743TIP3    H256115   9.735   3.706   6.806
18744TIP3   OH256116   9.812   3.611   6.930
18744TIP3    H156117   9.744   3.567   6.987
18744TIP3    H256118   9.873   3.649   6.997
18745TIP3   OH256119   9.883   4.002   7.363
18745TIP3    H156120   9.926   3.945   7.298
18745TIP3    H256121   9.871   4.084   7.312
18746TIP3   OH256122   9.709   4.304   7.558
18746TIP3    H156123   9.640   4.347   7.611
18746TIP3    H256124   9.657   4.257   7.489
18747TIP3   OH256125   9.769   3.528   6.573
18747TIP3    H156126   9.692   3.524   6.513
18747TIP3    H256127   9.740   3.598   6.634
18748TIP3   OH256128   9.622   3.194   6.549
18748TIP3    H156129   9.611   3.232   6.462
18748TIP3    H256130   9.601   3.099   6.532
18749TIP3   OH256131   9.639   3.467   7.081
18749TIP3    H156132   9.645   3.370   7.072
18749TIP3    H256133   9.623   3.479   7.177
18750TIP3   OH256134   8.267   3.543   7.827
18750TIP3    H156135   8.266   3.512   7.734
18750TIP3    H256136   8.364   3.543   7.844
18751TIP3   OH256137   9.575   2.927   6.520
18751TIP3    H156138   9.651   2.892   6.570
18751TIP3    H256139   9.502   2.867   6.545
18752TIP3   OH256140   9.639   3.190   6.974
18752TIP3    H156141   9.677   3.100   6.989
18752TIP3    H256142   9.695   3.220   6.899
18753TIP3   OH256143   9.807   3.351   7.451
18753TIP3    H156144   9.896   3.373   7.417
18753TIP3    H256145   9.809   3.398   7.537
18754TIP3   OH256146   9.826   3.491   7.682
18754TIP3    H156147   9.743   3.526   7.722
18754TIP3    H256148   9.864   3.569   7.636
18755TIP3   OH256149   8.467   3.215   8.481
18755TIP3    H156150   8.564   3.227   8.491
18755TIP3    H256151   8.454   3.141   8.543
18756TIP3   OH256152   9.733   2.938   7.022
18756TIP3    H156153   9.771   2.922   7.111
18756TIP3    H256154   9.676   2.859   7.012
18757TIP3   OH256155   8.445   2.921   7.831
18757TIP3    H156156   8.509   2.847   7.843
18757TIP3    H256157   8.506   2.996   7.826
18758TIP3   OH256158   8.249   3.192   7.905
18758TIP3    H156159   8.299   3.192   7.822
18758TIP3    H256160   8.274   3.278   7.942
18759TIP3   OH256161   9.825   2.853   6.633
18759TIP3    H156162   9.871   2.768   6.616
18759TIP3    H256163   9.880   2.912   6.577
18760TIP3   OH256164   8.232   2.695   7.405
18760TIP3    H156165   8.139   2.694   7.433
18760TIP3    H256166   8.229   2.755   7.327
18761TIP3   OH256167   9.391   4.402   6.912
18761TIP3    H156168   9.442   4.388   6.830
18761TIP3    H256169   9.444   4.468   6.959
18762TIP3   OH256170   8.432   2.775   8.221
18762TIP3    H156171   8.384   2.773   8.305
18762TIP3    H256172   8.365   2.816   8.162
18763TIP3   OH256173   8.491   4.213   8.299
18763TIP3    H156174   8.401   4.177   8.287
18763TIP3    H256175   8.514   4.182   8.387
18764TIP3   OH256176   8.669   4.236   7.845
18764TIP3    H156177   8.621   4.312   7.806
18764TIP3    H256178   8.755   4.250   7.801
18765TIP3   OH256179   9.116   4.482   7.987
18765TIP3    H156180   9.158   4.483   8.075
18765TIP3    H256181   9.182   4.533   7.934
18766TIP3   OH256182   9.293   4.634   7.841
18766TIP3    H156183   9.363   4.581   7.800
18766TIP3    H256184   9.345   4.692   7.900
18767TIP3   OH256185   8.347   4.497   7.866
18767TIP3    H156186   8.257   4.531   7.845
18767TIP3    H256187   8.356   4.526   7.958
18768TIP3   OH256188   8.584   4.475   7.727
18768TIP3    H156189   8.497   4.487   7.772
18768TIP3    H256190   8.563   4.506   7.637
18769TIP3   OH256191   9.010   4.504   7.523
18769TIP3    H156192   8.938   4.522   7.460
18769TIP3    H256193   9.021   4.590   7.567
18770TIP3   OH256194   9.278   4.442   7.575
18770TIP3    H156195   9.183   4.458   7.556
18770TIP3    H256196   9.320   4.519   7.533
18771TIP3   OH256197   9.486   4.634   7.491
18771TIP3    H156198   9.471   4.718   7.443
18771TIP3    H256199   9.511   4.573   7.418
18772TIP3   OH256200   8.259   4.289   7.614
18772TIP3    H156201   8.285   4.262   7.705
18772TIP3    H256202   8.331   4.244   7.564
18773TIP3   OH256203   8.452   4.159   7.470
18773TIP3    H156204   8.467   4.075   7.520
18773TIP3    H256205   8.544   4.195   7.467
18774TIP3   OH256206   8.720   4.254   7.474
18774TIP3    H156207   8.749   4.162   7.464
18774TIP3    H256208   8.763   4.276   7.558
18775TIP3   OH256209   9.293   2.910   7.559
18775TIP3    H156210   9.243   2.845   7.613
18775TIP3    H256211   9.364   2.855   7.520
18776TIP3   OH256212   9.798   2.793   7.485
18776TIP3    H156213   9.846   2.848   7.420
18776TIP3    H256214   9.706   2.818   7.469
18777TIP3   OH256215   9.898   2.895   7.250
18777TIP3    H156216   9.961   2.853   7.188
18777TIP3    H256217   9.921   2.990   7.236
18778TIP3   OH256218   8.541   2.620   7.576
18778TIP3    H156219   8.449   2.587   7.578
18778TIP3    H256220   8.590   2.535   7.571
18779TIP3   OH256221   8.331   2.489   7.226
18779TIP3    H156222   8.358   2.547   7.153
18779TIP3    H256223   8.300   2.554   7.293
18780TIP3   OH256224   8.987   2.651   7.459
18780TIP3    H156225   9.041   2.705   7.400
18780TIP3    H256226   9.015   2.684   7.546
18781TIP3   OH256227   9.520   2.776   7.447
18781TIP3    H156228   9.524   2.781   7.351
18781TIP3    H256229   9.556   2.688   7.464
18782TIP3   OH256230   9.551   2.727   7.008
18782TIP3    H156231   9.465   2.771   7.023
18782TIP3    H256232   9.535   2.639   7.049
18783TIP3   OH256233   8.047   4.060   7.003
18783TIP3    H156234   7.961   4.027   6.971
18783TIP3    H256235   8.035   4.155   6.987
18784TIP3   OH256236   8.446   2.648   6.989
18784TIP3    H156237   8.495   2.586   6.931
18784TIP3    H256238   8.518   2.703   7.025
18785TIP3   OH256239   8.959   2.824   7.087
18785TIP3    H156240   9.018   2.777   7.149
18785TIP3    H256241   8.979   2.916   7.113
18786TIP3   OH256242   8.818   4.249   6.586
18786TIP3    H156243   8.906   4.271   6.551
18786TIP3    H256244   8.795   4.174   6.527
18787TIP3   OH256245   9.537   4.367   6.680
18787TIP3    H156246   9.528   4.269   6.668
18787TIP3    H256247   9.491   4.399   6.600
18788TIP3   OH256248   8.122   4.087   6.644
18788TIP3    H156249   8.119   4.111   6.737
18788TIP3    H256250   8.211   4.045   6.635
18789TIP3   OH256251   9.749   4.507   7.878
18789TIP3    H156252   9.673   4.482   7.821
18789TIP3    H256253   9.742   4.604   7.875
18790TIP3   OH256254   9.982   3.388   6.912
18790TIP3    H156255   9.920   3.463   6.911
18790TIP3    H256256   9.933   3.326   6.854
18791TIP3   OH256257  10.045   3.675   7.064
18791TIP3    H156258  10.120   3.619   7.092
18791TIP3    H256259  10.068   3.683   6.970
18792TIP3   OH256260   9.895   3.919   6.649
18792TIP3    H156261   9.881   3.926   6.553
18792TIP3    H256262   9.928   4.009   6.670
18793TIP3   OH256263  10.083   4.013   7.558
18793TIP3    H156264  10.009   4.003   7.494
18793TIP3    H256265  10.128   3.926   7.553
18794TIP3   OH256266   9.946   4.236   7.202
18794TIP3    H156267  10.042   4.244   7.193
18794TIP3    H256268   9.925   4.317   7.250
18795TIP3   OH256269  10.076   4.456   6.746
18795TIP3    H156270  10.136   4.451   6.823
18795TIP3    H256271  10.033   4.369   6.749
18796TIP3   OH256272  10.233   4.241   7.568
18796TIP3    H156273  10.252   4.233   7.662
18796TIP3    H256274  10.162   4.174   7.559
18797TIP3   OH256275  10.006   3.131   7.166
18797TIP3    H156276  10.094   3.168   7.182
18797TIP3    H256277   9.988   3.160   7.076
18798TIP3   OH256278   9.966   3.590   6.391
18798TIP3    H156279  10.039   3.581   6.455
18798TIP3    H256280   9.890   3.567   6.450
18799TIP3   OH256281  10.125   4.426   7.348
18799TIP3    H156282  10.168   4.351   7.392
18799TIP3    H256283  10.150   4.499   7.405
18800TIP3   OH256284   9.962   4.185   6.696
18800TIP3    H156285   9.885   4.213   6.747
18800TIP3    H256286   9.942   4.228   6.609
18801TIP3   OH256287  10.096   4.711   7.750
18801TIP3    H156288  10.177   4.689   7.797
18801TIP3    H256289  10.057   4.621   7.739
18802TIP3   OH256290   9.823   3.934   6.334
18802TIP3    H156291   9.920   3.926   6.344
18802TIP3    H256292   9.805   3.851   6.284
18803TIP3   OH256293   9.738   4.541   6.757
18803TIP3    H156294   9.672   4.478   6.721
18803TIP3    H256295   9.785   4.483   6.822
18804TIP3   OH256296   9.868   4.389   6.948
18804TIP3    H156297   9.859   4.317   7.012
18804TIP3    H256298   9.925   4.451   6.998
18805TIP3   OH256299  10.081   3.795   7.309
18805TIP3    H156300  10.063   3.767   7.217
18805TIP3    H256301  10.170   3.833   7.301
18806TIP3   OH256302  10.053   3.460   7.367
18806TIP3    H156303  10.047   3.487   7.275
18806TIP3    H256304  10.043   3.545   7.415
18807TIP3   OH256305   9.976   3.003   6.878
18807TIP3    H156306   9.880   2.987   6.878
18807TIP3    H256307   9.992   3.024   6.785
18808TIP3   OH256308  10.135   4.750   7.355
18808TIP3    H156309  10.049   4.791   7.332
18808TIP3    H256310  10.135   4.761   7.450
18809TIP3   OH256311  10.389   4.741   7.230
18809TIP3    H156312  10.296   4.742   7.261
18809TIP3    H256313  10.379   4.766   7.136
18810TIP3   OH256314  10.056   4.541   7.097
18810TIP3    H156315  10.083   4.520   7.189
18810TIP3    H256316  10.134   4.507   7.049
18811TIP3   OH256317  10.264   4.432   6.945
18811TIP3    H156318  10.290   4.339   6.949
18811TIP3    H256319  10.352   4.475   6.955
18812TIP3   OH256320   9.842   4.314   6.491
18812TIP3    H156321   9.755   4.285   6.456
18812TIP3    H256322   9.833   4.410   6.479
18813TIP3   OH256323   9.937   4.357   6.143
18813TIP3    H156324   9.907   4.380   6.232
18813TIP3    H256325   9.996   4.282   6.161
18814TIP3   OH256326   1.682   4.415   8.836
18814TIP3    H156327   1.655   4.507   8.814
18814TIP3    H256328   1.608   4.366   8.797
18815TIP3   OH256329   1.691   4.418   9.164
18815TIP3    H156330   1.664   4.390   9.254
18815TIP3    H256331   1.656   4.347   9.108
18816TIP3   OH256332   1.930   4.717   8.896
18816TIP3    H156333   1.911   4.647   8.960
18816TIP3    H256334   1.959   4.791   8.952
18817TIP3   OH256335   1.572   5.181   8.908
18817TIP3    H156336   1.623   5.107   8.868
18817TIP3    H256337   1.556   5.149   8.998
18818TIP3   OH256338   1.507   4.615   9.207
18818TIP3    H156339   1.578   4.562   9.165
18818TIP3    H256340   1.553   4.656   9.280
18819TIP3   OH256341   2.489   3.938   9.250
18819TIP3    H156342   2.499   4.015   9.307
18819TIP3    H256343   2.524   3.970   9.166
18820TIP3   OH256344   1.930   3.885   8.888
18820TIP3    H156345   2.004   3.875   8.953
18820TIP3    H256346   1.978   3.928   8.815
18821TIP3   OH256347   1.578   4.636   8.706
18821TIP3    H156348   1.535   4.616   8.622
18821TIP3    H256349   1.535   4.721   8.728
18822TIP3   OH256350   2.143   3.896   9.060
18822TIP3    H156351   2.144   3.872   9.154
18822TIP3    H256352   2.197   3.977   9.063
18823TIP3   OH256353   0.619   4.479   8.776
18823TIP3    H156354   0.531   4.495   8.736
18823TIP3    H256355   0.603   4.503   8.868
18824TIP3   OH256356   2.003   4.958   9.066
18824TIP3    H156357   1.917   4.951   9.112
18824TIP3    H256358   1.991   5.043   9.018
18825TIP3   OH256359   1.709   5.006   8.751
18825TIP3    H156360   1.754   4.923   8.723
18825TIP3    H256361   1.766   5.071   8.704
18826TIP3   OH256362   1.842   4.792   8.646
18826TIP3    H156363   1.805   4.713   8.604
18826TIP3    H256364   1.879   4.755   8.729
18827TIP3   OH256365   2.199   4.876   9.398
18827TIP3    H156366   2.191   4.805   9.332
18827TIP3    H256367   2.192   4.956   9.341
18828TIP3   OH256368   1.516   4.269   8.667
18828TIP3    H156369   1.435   4.319   8.646
18828TIP3    H256370   1.560   4.264   8.580
18829TIP3   OH256371   1.476   4.050   8.390
18829TIP3    H156372   1.546   4.103   8.431
18829TIP3    H256373   1.531   3.987   8.338
18830TIP3   OH256374   2.442   4.525   9.255
18830TIP3    H156375   2.347   4.546   9.262
18830TIP3    H256376   2.458   4.542   9.160
18831TIP3   OH256377   1.864   4.349   8.640
18831TIP3    H156378   1.809   4.373   8.718
18831TIP3    H256379   1.948   4.324   8.684
18832TIP3   OH256380   1.088   4.331   9.045
18832TIP3    H156381   1.044   4.280   8.973
18832TIP3    H256382   1.159   4.272   9.070
18833TIP3   OH256383   1.278   4.808   9.105
18833TIP3    H156384   1.223   4.737   9.068
18833TIP3    H256385   1.332   4.760   9.170
18834TIP3   OH256386   1.773   4.953   9.208
18834TIP3    H156387   1.736   5.041   9.228
18834TIP3    H256388   1.732   4.894   9.272
18835TIP3   OH256389   1.705   4.206   8.465
18835TIP3    H156390   1.763   4.267   8.516
18835TIP3    H256391   1.730   4.229   8.372
18836TIP3   OH256392   1.451   4.885   8.732
18836TIP3    H156393   1.523   4.943   8.761
18836TIP3    H256394   1.383   4.946   8.703
18837TIP3   OH256395   2.220   3.448   8.514
18837TIP3    H156396   2.139   3.471   8.563
18837TIP3    H256397   2.235   3.531   8.463
18838TIP3   OH256398   0.968   4.182   8.847
18838TIP3    H156399   0.899   4.222   8.789
18838TIP3    H256400   0.915   4.123   8.902
18839TIP3   OH256401   2.016   4.816   8.064
18839TIP3    H156402   2.025   4.912   8.046
18839TIP3    H256403   2.108   4.785   8.050
18840TIP3   OH256404   2.440   5.241   9.428
18840TIP3    H156405   2.447   5.143   9.429
18840TIP3    H256406   2.353   5.251   9.470
18841TIP3   OH256407   1.327   5.134   8.542
18841TIP3    H156408   1.282   5.116   8.458
18841TIP3    H256409   1.296   5.223   8.566
18842TIP3   OH256410   0.799   4.970   8.865
18842TIP3    H156411   0.819   4.961   8.960
18842TIP3    H256412   0.710   4.934   8.854
18843TIP3   OH256413   1.528   5.036   8.184
18843TIP3    H156414   1.586   4.965   8.148
18843TIP3    H256415   1.563   5.045   8.275
18844TIP3   OH256416   1.579   5.082   8.454
18844TIP3    H156417   1.491   5.091   8.496
18844TIP3    H256418   1.629   5.038   8.525
18845TIP3   OH256419   1.782   4.254   8.210
18845TIP3    H156420   1.746   4.229   8.123
18845TIP3    H256421   1.863   4.301   8.184
18846TIP3   OH256422   1.495   3.627   8.512
18846TIP3    H156423   1.459   3.623   8.603
18846TIP3    H256424   1.452   3.548   8.474
18847TIP3   OH256425   1.125   3.984   9.056
18847TIP3    H156426   1.074   3.903   9.073
18847TIP3    H256427   1.159   3.962   8.968
18848TIP3   OH256428   1.652   4.067   8.795
18848TIP3    H156429   1.601   4.140   8.755
18848TIP3    H256430   1.710   4.040   8.721
18849TIP3   OH256431   1.823   4.109   9.025
18849TIP3    H156432   1.753   4.127   8.960
18849TIP3    H256433   1.849   4.020   8.996
18850TIP3   OH256434   1.151   3.604   8.478
18850TIP3    H156435   1.138   3.600   8.574
18850TIP3    H256436   1.070   3.652   8.451
18851TIP3   OH256437   0.689   3.644   8.885
18851TIP3    H156438   0.719   3.669   8.795
18851TIP3    H256439   0.619   3.708   8.898
18852TIP3   OH256440   1.202   3.858   8.822
18852TIP3    H156441   1.290   3.874   8.785
18852TIP3    H256442   1.143   3.876   8.744
18853TIP3   OH256443   1.037   3.887   8.609
18853TIP3    H156444   0.965   3.842   8.562
18853TIP3    H256445   1.087   3.925   8.534
18854TIP3   OH256446   2.130   5.634   9.524
18854TIP3    H156447   2.135   5.626   9.427
18854TIP3    H256448   2.223   5.656   9.545
18855TIP3   OH256449   1.286   4.421   8.619
18855TIP3    H156450   1.215   4.354   8.607
18855TIP3    H256451   1.269   4.451   8.711
18856TIP3   OH256452   2.181   4.643   9.248
18856TIP3    H156453   2.216   4.692   9.170
18856TIP3    H256454   2.101   4.601   9.210
18857TIP3   OH256455   1.746   3.730   8.483
18857TIP3    H156456   1.649   3.713   8.487
18857TIP3    H256457   1.754   3.826   8.501
18858TIP3   OH256458   1.815   3.980   8.584
18858TIP3    H156459   1.911   3.987   8.597
18858TIP3    H256460   1.795   4.059   8.529
18859TIP3   OH256461   1.432   4.568   8.439
18859TIP3    H156462   1.384   4.655   8.444
18859TIP3    H256463   1.377   4.514   8.500
18860TIP3   OH256464   2.257   4.070   8.419
18860TIP3    H156465   2.195   4.025   8.356
18860TIP3    H256466   2.253   4.159   8.377
18861TIP3   OH256467   2.468   4.958   9.457
18861TIP3    H156468   2.397   4.910   9.504
18861TIP3    H256469   2.466   4.911   9.370
18862TIP3   OH256470   1.960   4.888   8.329
18862TIP3    H156471   1.930   4.817   8.386
18862TIP3    H256472   1.970   4.844   8.242
18863TIP3   OH256473   1.949   4.516   9.168
18863TIP3    H156474   1.854   4.488   9.163
18863TIP3    H256475   1.989   4.437   9.125
18864TIP3   OH256476   1.071   4.732   8.894
18864TIP3    H156477   1.096   4.819   8.857
18864TIP3    H256478   0.978   4.745   8.912
18865TIP3   OH256479   0.643   4.056   8.624
18865TIP3    H156480   0.713   4.125   8.629
18865TIP3    H256481   0.579   4.097   8.687
18866TIP3   OH256482   1.223   4.504   8.869
18866TIP3    H156483   1.183   4.593   8.877
18866TIP3    H256484   1.176   4.455   8.939
18867TIP3   OH256485   1.041   4.991   8.753
18867TIP3    H156486   0.950   4.992   8.790
18867TIP3    H256487   1.064   5.086   8.761
18868TIP3   OH256488   1.711   4.616   8.230
18868TIP3    H156489   1.764   4.590   8.309
18868TIP3    H256490   1.622   4.589   8.259
18869TIP3   OH256491   1.989   5.250   9.382
18869TIP3    H156492   1.896   5.224   9.383
18869TIP3    H256493   1.984   5.328   9.324
18870TIP3   OH256494   2.051   5.092   8.049
18870TIP3    H156495   2.080   5.163   7.988
18870TIP3    H256496   1.970   5.135   8.084
18871TIP3   OH256497   1.872   4.552   8.447
18871TIP3    H156498   1.863   4.484   8.516
18871TIP3    H256499   1.969   4.548   8.432
18872TIP3   OH256500   1.076   4.597   8.227
18872TIP3    H156501   1.092   4.505   8.199
18872TIP3    H256502   1.059   4.584   8.323
18873TIP3   OH256503   1.025   4.601   8.502
18873TIP3    H156504   1.097   4.575   8.560
18873TIP3    H256505   1.029   4.700   8.507
18874TIP3   OH256506   0.780   4.287   8.678
18874TIP3    H156507   0.718   4.340   8.731
18874TIP3    H256508   0.800   4.353   8.610
18875TIP3   OH256509   1.795   3.681   8.755
18875TIP3    H156510   1.776   3.705   8.662
18875TIP3    H256511   1.831   3.765   8.791
18876TIP3   OH256512   1.288   4.797   8.448
18876TIP3    H156513   1.202   4.825   8.483
18876TIP3    H256514   1.307   4.871   8.387
18877TIP3   OH256515   1.494   3.857   8.865
18877TIP3    H156516   1.554   3.926   8.828
18877TIP3    H256517   1.472   3.898   8.949
18878TIP3   OH256518   1.637   3.579   8.953
18878TIP3    H156519   1.638   3.649   9.019
18878TIP3    H256520   1.690   3.621   8.881
18879TIP3   OH256521   1.031   4.873   8.510
18879TIP3    H156522   1.001   4.945   8.451
18879TIP3    H256523   1.031   4.918   8.597
18880TIP3   OH256524   1.136   3.585   8.755
18880TIP3    H156525   1.130   3.674   8.793
18880TIP3    H256526   1.232   3.569   8.765
18881TIP3   OH256527   2.035   4.284   9.042
18881TIP3    H156528   1.958   4.224   9.051
18881TIP3    H256529   2.106   4.232   9.086
18882TIP3   OH256530   0.761   4.514   8.495
18882TIP3    H156531   0.839   4.572   8.512
18882TIP3    H256532   0.801   4.454   8.429
18883TIP3   OH256533   0.688   3.784   8.649
18883TIP3    H156534   0.684   3.881   8.643
18883TIP3    H256535   0.634   3.755   8.575
18884TIP3   OH256536   2.006   5.231   8.990
18884TIP3    H156537   1.962   5.278   8.915
18884TIP3    H256538   2.100   5.250   8.968
18885TIP3   OH256539   0.644   4.707   8.943
18885TIP3    H156540   0.584   4.757   8.885
18885TIP3    H256541   0.708   4.676   8.877
18886TIP3   OH256542   1.241   4.800   8.140
18886TIP3    H156543   1.185   4.728   8.178
18886TIP3    H256544   1.317   4.749   8.108
18887TIP3   OH256545   1.674   4.842   8.060
18887TIP3    H156546   1.722   4.776   8.113
18887TIP3    H256547   1.721   4.840   7.974
18888TIP3   OH256548   0.889   4.317   8.362
18888TIP3    H156549   0.944   4.282   8.434
18888TIP3    H256550   0.956   4.321   8.289
18889TIP3   OH256551   1.393   4.517   8.169
18889TIP3    H156552   1.398   4.529   8.266
18889TIP3    H256553   1.396   4.419   8.163
18890TIP3   OH256554   1.095   4.222   8.584
18890TIP3    H156555   1.063   4.183   8.668
18890TIP3    H256556   1.130   4.143   8.537
18891TIP3   OH256557   1.195   4.013   8.424
18891TIP3    H156558   1.168   4.018   8.330
18891TIP3    H256559   1.292   4.019   8.416
18892TIP3   OH256560   2.016   4.344   8.088
18892TIP3    H156561   1.998   4.299   8.002
18892TIP3    H256562   1.985   4.434   8.064
18893TIP3   OH256563   1.001   5.080   8.328
18893TIP3    H156564   1.097   5.071   8.312
18893TIP3    H256565   0.975   5.128   8.248
18894TIP3   OH256566   0.493   4.478   8.483
18894TIP3    H156567   0.588   4.489   8.507
18894TIP3    H256568   0.488   4.380   8.474
18895TIP3   OH256569   2.259   5.319   8.943
18895TIP3    H156570   2.285   5.357   9.029
18895TIP3    H256571   2.316   5.369   8.882
18896TIP3   OH256572   2.286   5.349   9.219
18896TIP3    H156573   2.243   5.261   9.214
18896TIP3    H256574   2.365   5.325   9.272
18897TIP3   OH256575   2.152   4.533   8.421
18897TIP3    H156576   2.220   4.596   8.392
18897TIP3    H256577   2.195   4.492   8.500
18898TIP3   OH256578   2.279   4.399   8.625
18898TIP3    H156579   2.213   4.357   8.684
18898TIP3    H256580   2.343   4.437   8.688
18899TIP3   OH256581   2.331   4.787   9.063
18899TIP3    H156582   2.383   4.724   9.009
18899TIP3    H256583   2.324   4.863   9.003
18900TIP3   OH256584   2.170   5.100   9.244
18900TIP3    H156585   2.099   5.145   9.296
18900TIP3    H256586   2.117   5.055   9.174
18901TIP3   OH256587   2.216   4.307   8.271
18901TIP3    H156588   2.146   4.309   8.202
18901TIP3    H256589   2.188   4.384   8.324
18902TIP3   OH256590   2.089   3.980   8.226
18902TIP3    H156591   2.047   4.022   8.150
18902TIP3    H256592   2.063   3.886   8.213
18903TIP3   OH256593   2.093   4.257   8.773
18903TIP3    H156594   2.100   4.161   8.765
18903TIP3    H256595   2.077   4.270   8.869
18904TIP3   OH256596   2.032   3.714   8.210
18904TIP3    H156597   2.104   3.682   8.268
18904TIP3    H256598   1.957   3.656   8.233
18905TIP3   OH256599   2.090   3.975   8.666
18905TIP3    H156600   2.130   3.886   8.680
18905TIP3    H256601   2.147   4.007   8.594
18906TIP3   OH256602   2.251   4.152   9.147
18906TIP3    H156603   2.341   4.179   9.117
18906TIP3    H256604   2.257   4.168   9.241
18907TIP3   OH256605   2.198   3.724   8.701
18907TIP3    H156606   2.248   3.708   8.784
18907TIP3    H256607   2.138   3.647   8.700
18908TIP3   OH256608   2.280   3.656   8.338
18908TIP3    H156609   2.319   3.586   8.282
18908TIP3    H256610   2.345   3.728   8.330
18909TIP3   OH256611   1.845   5.188   8.603
18909TIP3    H156612   1.893   5.174   8.519
18909TIP3    H256613   1.897   5.259   8.644
18910TIP3   OH256614   1.480   5.297   9.178
18910TIP3    H156615   1.399   5.291   9.124
18910TIP3    H256616   1.463   5.380   9.227
18911TIP3   OH256617   1.726   5.223   9.273
18911TIP3    H156618   1.635   5.246   9.242
18911TIP3    H256619   1.778   5.289   9.224
18912TIP3   OH256620   1.932   5.423   9.179
18912TIP3    H156621   1.916   5.507   9.131
18912TIP3    H256622   1.959   5.364   9.107
18913TIP3   OH256623   0.896   4.967   9.121
18913TIP3    H156624   0.928   4.886   9.168
18913TIP3    H256625   0.981   5.015   9.117
18914TIP3   OH256626   1.163   5.057   9.146
18914TIP3    H156627   1.209   4.971   9.127
18914TIP3    H256628   1.178   5.067   9.241
18915TIP3   OH256629   2.274   3.602   9.156
18915TIP3    H156630   2.314   3.643   9.076
18915TIP3    H256631   2.180   3.616   9.137
18916TIP3   OH256632   2.366   3.677   8.914
18916TIP3    H156633   2.441   3.629   8.873
18916TIP3    H256634   2.398   3.770   8.902
18917TIP3   OH256635   2.002   3.586   9.092
18917TIP3    H156636   1.986   3.585   8.996
18917TIP3    H256637   2.015   3.492   9.111
18918TIP3   OH256638   2.016   3.511   8.695
18918TIP3    H156639   1.929   3.556   8.701
18918TIP3    H256640   1.995   3.426   8.738
18919TIP3   OH256641   0.903   3.452   8.653
18919TIP3    H156642   0.953   3.380   8.610
18919TIP3    H256643   0.972   3.496   8.706
18920TIP3   OH256644   1.414   3.610   8.779
18920TIP3    H156645   1.477   3.564   8.838
18920TIP3    H256646   1.435   3.703   8.804
18921TIP3   OH256647   1.268   5.037   8.277
18921TIP3    H156648   1.357   5.059   8.242
18921TIP3    H256649   1.248   4.961   8.217
18922TIP3   OH256650   1.989   5.156   8.370
18922TIP3    H156651   1.982   5.058   8.358
18922TIP3    H256652   1.943   5.188   8.290
18923TIP3   OH256653   0.592   4.880   8.377
18923TIP3    H156654   0.615   4.973   8.393
18923TIP3    H256655   0.674   4.841   8.341
18924TIP3   OH256656   3.479   4.676   8.322
18924TIP3    H156657   3.448   4.766   8.296
18924TIP3    H256658   3.406   4.623   8.286
18925TIP3   OH256659   3.485   4.673   8.703
18925TIP3    H156660   3.512   4.641   8.791
18925TIP3    H256661   3.440   4.596   8.666
18926TIP3   OH256662   2.778   4.567   9.068
18926TIP3    H156663   2.811   4.501   9.131
18926TIP3    H256664   2.857   4.623   9.059
18927TIP3   OH256665   3.727   4.972   8.385
18927TIP3    H156666   3.706   4.904   8.451
18927TIP3    H256667   3.752   5.047   8.440
18928TIP3   OH256668   2.755   4.977   8.801
18928TIP3    H156669   2.745   4.879   8.800
18928TIP3    H256670   2.850   4.984   8.784
18929TIP3   OH256671   2.458   4.180   8.580
18929TIP3    H156672   2.409   4.263   8.594
18929TIP3    H256673   2.388   4.126   8.539
18930TIP3   OH256674   2.518   4.467   8.751
18930TIP3    H156675   2.567   4.390   8.787
18930TIP3    H256676   2.575   4.495   8.679
18931TIP3   OH256677   3.378   5.439   8.405
18931TIP3    H156678   3.419   5.367   8.352
18931TIP3    H256679   3.363   5.394   8.489
18932TIP3   OH256680   3.278   4.899   8.755
18932TIP3    H156681   3.314   4.824   8.704
18932TIP3    H256682   3.363   4.942   8.779
18933TIP3   OH256683   4.293   4.217   8.751
18933TIP3    H156684   4.322   4.301   8.791
18933TIP3    H256685   4.313   4.233   8.657
18934TIP3   OH256686   3.691   4.398   8.786
18934TIP3    H156687   3.734   4.312   8.804
18934TIP3    H256688   3.661   4.384   8.694
18935TIP3   OH256689   3.030   4.058   8.751
18935TIP3    H156690   3.009   4.131   8.689
18935TIP3    H256691   2.982   3.985   8.707
18936TIP3   OH256692   3.724   4.150   8.373
18936TIP3    H156693   3.797   4.134   8.438
18936TIP3    H256694   3.775   4.185   8.298
18937TIP3   OH256695   2.663   4.260   8.858
18937TIP3    H156696   2.747   4.240   8.905
18937TIP3    H256697   2.675   4.204   8.778
18938TIP3   OH256698   3.103   4.458   8.653
18938TIP3    H156699   3.197   4.433   8.664
18938TIP3    H256700   3.064   4.375   8.619
18939TIP3   OH256701   4.366   4.426   8.920
18939TIP3    H156702   4.285   4.474   8.896
18939TIP3    H256703   4.368   4.444   9.015
18940TIP3   OH256704   3.026   4.040   9.187
18940TIP3    H156705   2.968   4.081   9.120
18940TIP3    H256706   2.966   4.032   9.263
18941TIP3   OH256707   3.370   4.896   8.182
18941TIP3    H156708   3.324   4.887   8.096
18941TIP3    H256709   3.325   4.975   8.217
18942TIP3   OH256710   3.133   4.818   8.980
18942TIP3    H156711   3.071   4.884   9.017
18942TIP3    H256712   3.174   4.867   8.906
18943TIP3   OH256713   3.935   4.151   8.545
18943TIP3    H156714   3.923   4.104   8.628
18943TIP3    H256715   3.987   4.229   8.572
18944TIP3   OH256716   2.899   4.155   8.971
18944TIP3    H156717   2.959   4.230   8.992
18944TIP3    H256718   2.946   4.116   8.895
18945TIP3   OH256719   2.960   5.014   9.078
18945TIP3    H156720   2.937   5.097   9.032
18945TIP3    H256721   2.877   4.998   9.126
18946TIP3   OH256722   2.360   4.700   8.316
18946TIP3    H156723   2.314   4.720   8.231
18946TIP3    H256724   2.382   4.789   8.349
18947TIP3   OH256725   3.797   5.218   8.555
18947TIP3    H156726   3.707   5.208   8.595
18947TIP3    H256727   3.787   5.302   8.508
18948TIP3   OH256728   4.086   4.118   8.918
18948TIP3    H156729   3.998   4.144   8.886
18948TIP3    H256730   4.144   4.149   8.846
18949TIP3   OH256731   3.385   3.758   8.901
18949TIP3    H156732   3.368   3.663   8.917
18949TIP3    H256733   3.308   3.797   8.946
18950TIP3   OH256734   3.496   5.264   8.229
18950TIP3    H156735   3.546   5.181   8.208
18950TIP3    H256736   3.556   5.329   8.185
18951TIP3   OH256737   3.638   5.049   8.134
18951TIP3    H156738   3.585   4.976   8.099
18951TIP3    H256739   3.675   5.010   8.216
18952TIP3   OH256740   4.022   5.130   8.897
18952TIP3    H156741   4.009   5.052   8.838
18952TIP3    H256742   4.003   5.204   8.836
18953TIP3   OH256743   3.321   4.519   8.157
18953TIP3    H156744   3.235   4.567   8.144
18953TIP3    H256745   3.358   4.526   8.068
18954TIP3   OH256746   3.271   4.307   7.870
18954TIP3    H156747   3.335   4.359   7.922
18954TIP3    H256748   3.331   4.246   7.823
18955TIP3   OH256749   4.217   4.768   8.743
18955TIP3    H156750   4.133   4.819   8.748
18955TIP3    H256751   4.246   4.791   8.652
18956TIP3   OH256752   3.659   4.606   8.127
18956TIP3    H156753   3.603   4.632   8.203
18956TIP3    H256754   3.742   4.583   8.172
18957TIP3   OH256755   3.895   4.646   9.037
18957TIP3    H156756   3.890   4.730   9.087
18957TIP3    H256757   3.808   4.648   8.992
18958TIP3   OH256758   2.889   4.603   8.546
18958TIP3    H156759   2.848   4.545   8.478
18958TIP3    H256760   2.968   4.551   8.572
18959TIP3   OH256761   3.017   5.010   8.694
18959TIP3    H156762   2.998   4.978   8.605
18959TIP3    H256763   3.108   4.977   8.709
18960TIP3   OH256764   3.027   4.575   8.898
18960TIP3    H156765   3.060   4.553   8.808
18960TIP3    H256766   3.072   4.660   8.917
18961TIP3   OH256767   3.556   5.213   8.676
18961TIP3    H156768   3.540   5.292   8.729
18961TIP3    H256769   3.539   5.139   8.738
18962TIP3   OH256770   3.166   5.134   9.218
18962TIP3    H156771   3.105   5.196   9.264
18962TIP3    H256772   3.102   5.080   9.168
18963TIP3   OH256773   3.506   4.459   7.951
18963TIP3    H156774   3.560   4.523   8.002
18963TIP3    H256775   3.530   4.484   7.858
18964TIP3   OH256776   2.914   4.693   9.312
18964TIP3    H156777   2.938   4.746   9.389
18964TIP3    H256778   2.821   4.672   9.331
18965TIP3   OH256779   3.239   5.153   8.248
18965TIP3    H156780   3.323   5.203   8.246
18965TIP3    H256781   3.184   5.202   8.185
18966TIP3   OH256782   2.961   5.304   9.302
18966TIP3    H156783   2.936   5.308   9.207
18966TIP3    H256784   2.884   5.260   9.342
18967TIP3   OH256785   4.016   3.705   8.001
18967TIP3    H156786   3.935   3.725   8.051
18967TIP3    H256787   4.030   3.788   7.951
18968TIP3   OH256788   2.757   4.443   8.353
18968TIP3    H156789   2.690   4.485   8.295
18968TIP3    H256790   2.720   4.355   8.362
18969TIP3   OH256791   3.814   5.072   7.546
18969TIP3    H156792   3.822   5.169   7.534
18969TIP3    H256793   3.907   5.043   7.536
18970TIP3   OH256794   2.550   4.822   9.236
18970TIP3    H156795   2.481   4.801   9.170
18970TIP3    H256796   2.575   4.732   9.268
18971TIP3   OH256797   2.392   5.019   8.896
18971TIP3    H156798   2.487   5.018   8.878
18971TIP3    H256799   2.382   5.104   8.942
18972TIP3   OH256800   4.259   5.475   8.944
18972TIP3    H156801   4.257   5.379   8.956
18972TIP3    H256802   4.175   5.500   8.989
18973TIP3   OH256803   3.366   5.260   9.078
18973TIP3    H156804   3.363   5.353   9.108
18973TIP3    H256805   3.293   5.220   9.131
18974TIP3   OH256806   3.125   5.387   8.029
18974TIP3    H156807   3.081   5.362   7.946
18974TIP3    H256808   3.090   5.475   8.048
18975TIP3   OH256809   2.561   5.240   8.415
18975TIP3    H156810   2.611   5.230   8.498
18975TIP3    H256811   2.503   5.162   8.420
18976TIP3   OH256812   3.325   5.292   7.669
18976TIP3    H156813   3.381   5.218   7.636
18976TIP3    H256814   3.354   5.296   7.763
18977TIP3   OH256815   3.377   5.342   7.939
18977TIP3    H156816   3.287   5.349   7.979
18977TIP3    H256817   3.420   5.283   8.003
18978TIP3   OH256818   4.148   4.603   9.221
18978TIP3    H156819   4.066   4.624   9.173
18978TIP3    H256820   4.160   4.508   9.199
18979TIP3   OH256821   2.747   5.011   9.257
18979TIP3    H156822   2.815   4.971   9.314
18979TIP3    H256823   2.684   4.937   9.241
18980TIP3   OH256824   3.144   3.837   9.023
18980TIP3    H156825   3.054   3.806   8.997
18980TIP3    H256826   3.120   3.922   9.064
18981TIP3   OH256827   3.696   3.957   9.217
18981TIP3    H156828   3.754   3.915   9.283
18981TIP3    H256829   3.606   3.932   9.246
18982TIP3   OH256830   3.918   4.384   9.138
18982TIP3    H156831   3.868   4.378   9.223
18982TIP3    H256832   3.892   4.472   9.104
18983TIP3   OH256833   3.576   4.505   7.694
18983TIP3    H156834   3.544   4.483   7.604
18983TIP3    H256835   3.652   4.563   7.673
18984TIP3   OH256836   3.290   3.884   7.999
18984TIP3    H156837   3.255   3.882   8.090
18984TIP3    H256838   3.250   3.802   7.964
18985TIP3   OH256839   3.075   4.352   9.045
18985TIP3    H156840   3.030   4.377   9.128
18985TIP3    H256841   3.061   4.433   8.991
18986TIP3   OH256842   2.960   4.238   8.561
18986TIP3    H156843   2.867   4.213   8.577
18986TIP3    H256844   2.973   4.198   8.471
18987TIP3   OH256845   3.452   4.321   8.290
18987TIP3    H156846   3.400   4.394   8.248
18987TIP3    H256847   3.506   4.291   8.214
18988TIP3   OH256848   3.638   4.606   9.360
18988TIP3    H156849   3.606   4.530   9.413
18988TIP3    H256850   3.730   4.614   9.391
18989TIP3   OH256851   3.607   4.353   8.527
18989TIP3    H156852   3.547   4.384   8.456
18989TIP3    H256853   3.639   4.272   8.483
18990TIP3   OH256854   2.891   4.388   9.254
18990TIP3    H156855   2.940   4.447   9.313
18990TIP3    H256856   2.844   4.330   9.314
18991TIP3   OH256857   2.945   3.858   7.965
18991TIP3    H156858   2.934   3.857   8.062
18991TIP3    H256859   2.867   3.912   7.939
18992TIP3   OH256860   2.486   3.904   8.835
18992TIP3    H156861   2.562   3.936   8.888
18992TIP3    H256862   2.528   3.873   8.753
18993TIP3   OH256863   2.460   3.885   8.356
18993TIP3    H156864   2.504   3.923   8.276
18993TIP3    H256865   2.398   3.958   8.376
18994TIP3   OH256866   3.622   4.600   8.949
18994TIP3    H156867   3.652   4.527   8.890
18994TIP3    H256868   3.589   4.547   9.025
18995TIP3   OH256869   3.288   4.058   8.622
18995TIP3    H156870   3.204   4.058   8.673
18995TIP3    H256871   3.354   4.061   8.693
18996TIP3   OH256872   2.720   4.116   8.631
18996TIP3    H156873   2.626   4.124   8.603
18996TIP3    H256874   2.743   4.025   8.606
18997TIP3   OH256875   2.991   4.113   8.318
18997TIP3    H156876   3.084   4.129   8.295
18997TIP3    H256877   2.942   4.134   8.235
18998TIP3   OH256878   3.780   4.135   8.823
18998TIP3    H156879   3.744   4.149   8.914
18998TIP3    H256880   3.713   4.074   8.787
18999TIP3   OH256881   2.834   4.143   8.098
18999TIP3    H156882   2.762   4.101   8.049
18999TIP3    H256883   2.884   4.183   8.024
19000TIP3   OH256884   3.949   5.824   9.042
19000TIP3    H156885   3.945   5.848   8.947
19000TIP3    H256886   4.025   5.876   9.073
19001TIP3   OH256887   2.905   4.934   9.474
19001TIP3    H156888   3.001   4.919   9.459
19001TIP3    H256889   2.907   4.909   9.569
19002TIP3   OH256890   3.370   4.387   8.718
19002TIP3    H156891   3.443   4.351   8.666
19002TIP3    H256892   3.383   4.345   8.804
19003TIP3   OH256893   2.894   3.876   8.598
19003TIP3    H156894   2.859   3.797   8.644
19003TIP3    H256895   2.940   3.838   8.522
19004TIP3   OH256896   3.345   4.280   9.020
19004TIP3    H156897   3.256   4.321   9.024
19004TIP3    H256898   3.403   4.347   9.061
19005TIP3   OH256899   3.087   4.644   8.123
19005TIP3    H156900   2.999   4.611   8.099
19005TIP3    H256901   3.067   4.704   8.198
19006TIP3   OH256902   3.983   4.912   8.733
19006TIP3    H156903   4.006   4.962   8.652
19006TIP3    H256904   3.898   4.870   8.709
19007TIP3   OH256905   3.541   3.988   7.965
19007TIP3    H156906   3.445   3.971   7.974
19007TIP3    H256907   3.551   4.082   7.990
19008TIP3   OH256908   3.487   4.995   9.102
19008TIP3    H156909   3.497   4.966   9.194
19008TIP3    H256910   3.445   5.082   9.111
19009TIP3   OH256911   3.611   4.234   8.070
19009TIP3    H156912   3.707   4.244   8.084
19009TIP3    H256913   3.589   4.315   8.019
19010TIP3   OH256914   2.775   4.699   8.781
19010TIP3    H156915   2.811   4.671   8.694
19010TIP3    H256916   2.817   4.635   8.840
19011TIP3   OH256917   2.660   4.624   9.404
19011TIP3    H156918   2.689   4.587   9.489
19011TIP3    H256919   2.590   4.561   9.375
19012TIP3   OH256920   3.406   4.754   9.377
19012TIP3    H156921   3.337   4.687   9.368
19012TIP3    H256922   3.487   4.704   9.359
19013TIP3   OH256923   3.644   5.256   8.996
19013TIP3    H156924   3.548   5.251   9.008
19013TIP3    H256925   3.670   5.308   9.075
19014TIP3   OH256926   4.054   4.326   7.905
19014TIP3    H156927   3.992   4.282   7.843
19014TIP3    H256928   4.049   4.416   7.865
19015TIP3   OH256929   4.272   5.185   8.985
19015TIP3    H156930   4.174   5.179   8.977
19015TIP3    H256931   4.298   5.154   8.896
19016TIP3   OH256932   3.760   5.144   7.816
19016TIP3    H156933   3.722   5.078   7.876
19016TIP3    H256934   3.764   5.096   7.731
19017TIP3   OH256935   3.750   4.774   8.654
19017TIP3    H156936   3.656   4.749   8.666
19017TIP3    H256937   3.783   4.695   8.607
19018TIP3   OH256938   2.876   5.005   8.414
19018TIP3    H156939   2.883   5.082   8.354
19018TIP3    H256940   2.782   4.988   8.411
19019TIP3   OH256941   2.441   4.303   8.109
19019TIP3    H156942   2.484   4.389   8.129
19019TIP3    H256943   2.361   4.309   8.166
19020TIP3   OH256944   3.015   4.771   8.355
19020TIP3    H156945   2.981   4.861   8.370
19020TIP3    H256946   2.975   4.722   8.429
19021TIP3   OH256947   3.145   5.345   8.875
19021TIP3    H156948   3.184   5.418   8.823
19021TIP3    H256949   3.223   5.310   8.920
19022TIP3   OH256950   2.799   5.236   8.257
19022TIP3    H156951   2.712   5.247   8.300
19022TIP3    H256952   2.831   5.328   8.255
19023TIP3   OH256953   3.534   4.980   8.833
19023TIP3    H156954   3.525   4.978   8.931
19023TIP3    H256955   3.612   4.925   8.819
19024TIP3   OH256956   3.505   4.877   7.714
19024TIP3    H156957   3.555   4.845   7.792
19024TIP3    H256958   3.417   4.890   7.756
19025TIP3   OH256959   3.782   5.514   8.883
19025TIP3    H156960   3.703   5.457   8.876
19025TIP3    H256961   3.767   5.578   8.810
19026TIP3   OH256962   3.848   5.347   7.535
19026TIP3    H156963   3.884   5.421   7.482
19026TIP3    H256964   3.768   5.392   7.569
19027TIP3   OH256965   3.670   4.803   7.926
19027TIP3    H156966   3.657   4.742   8.001
19027TIP3    H256967   3.767   4.802   7.918
19028TIP3   OH256968   2.580   5.212   9.031
19028TIP3    H156969   2.636   5.139   9.061
19028TIP3    H256970   2.613   5.287   9.083
19029TIP3   OH256971   2.556   4.545   8.194
19029TIP3    H156972   2.487   4.594   8.243
19029TIP3    H256973   2.595   4.615   8.139
19030TIP3   OH256974   3.705   4.194   9.081
19030TIP3    H156975   3.786   4.234   9.118
19030TIP3    H256976   3.697   4.112   9.134
19031TIP3   OH256977   3.586   3.939   8.247
19031TIP3    H156978   3.570   3.962   8.153
19031TIP3    H256979   3.623   4.022   8.283
19032TIP3   OH256980   3.275   4.118   8.349
19032TIP3    H156981   3.338   4.191   8.331
19032TIP3    H256982   3.279   4.113   8.447
19033TIP3   OH256983   3.541   4.436   9.150
19033TIP3    H156984   3.561   4.489   9.230
19033TIP3    H256985   3.596   4.357   9.164
19034TIP3   OH256986   3.418   3.846   8.453
19034TIP3    H156987   3.406   3.926   8.508
19034TIP3    H256988   3.479   3.882   8.383
19035TIP3   OH256989   2.764   5.107   7.976
19035TIP3    H156990   2.774   5.189   7.923
19035TIP3    H256991   2.793   5.138   8.064
19036TIP3   OH256992   2.929   3.844   8.242
19036TIP3    H156993   2.926   3.936   8.277
19036TIP3    H256994   3.025   3.827   8.249
19037TIP3   OH256995   4.182   4.338   9.135
19037TIP3    H156996   4.084   4.339   9.143
19037TIP3    H256997   4.190   4.293   9.050
19038TIP3   OH256998   3.834   4.532   8.526
19038TIP3    H156999   3.758   4.473   8.537
19038TIP3    H257000   3.905   4.484   8.574
19039TIP3   OH257001   2.490   4.034   8.130
19039TIP3    H157002   2.491   4.132   8.126
19039TIP3    H257003   2.409   4.015   8.081
19040TIP3   OH257004   3.803   5.489   8.476
19040TIP3    H157005   3.759   5.536   8.401
19040TIP3    H257006   3.897   5.507   8.454
19041TIP3   OH257007   2.879   3.763   9.000
19041TIP3    H157008   2.848   3.728   8.914
19041TIP3    H257009   2.870   3.683   9.057
19042TIP3   OH257010   2.415   4.975   8.383
19042TIP3    H157011   2.344   5.005   8.440
19042TIP3    H257012   2.390   5.016   8.298
19043TIP3   OH257013   2.582   5.514   9.428
19043TIP3    H157014   2.649   5.502   9.497
19043TIP3    H257015   2.526   5.435   9.440
19044TIP3   OH257016   3.059   5.469   9.510
19044TIP3    H157017   3.156   5.461   9.508
19044TIP3    H257018   3.035   5.419   9.429
19045TIP3   OH257019   3.037   5.046   7.649
19045TIP3    H157020   3.072   5.016   7.736
19045TIP3    H257021   3.110   5.013   7.593
19046TIP3   OH257022   3.693   5.392   9.233
19046TIP3    H157023   3.685   5.319   9.299
19046TIP3    H257024   3.773   5.439   9.263
19047TIP3   OH257025   3.474   5.098   7.539
19047TIP3    H157026   3.511   5.031   7.599
19047TIP3    H257027   3.533   5.094   7.462
19048TIP3   OH257028   2.711   4.629   7.857
19048TIP3    H157029   2.733   4.565   7.928
19048TIP3    H257030   2.758   4.585   7.782
19049TIP3   OH257031   3.325   5.015   9.416
19049TIP3    H157032   3.275   5.021   9.333
19049TIP3    H257033   3.348   4.919   9.418
19050TIP3   OH257034   3.166   4.759   7.631
19050TIP3    H157035   3.185   4.801   7.718
19050TIP3    H257036   3.179   4.664   7.652
19051TIP3   OH257037   3.806   5.015   9.036
19051TIP3    H157038   3.879   5.063   8.991
19051TIP3    H257039   3.733   5.078   9.023
19052TIP3   OH257040   2.863   4.475   8.062
19052TIP3    H157041   2.860   4.436   8.151
19052TIP3    H257042   2.913   4.408   8.012
19053TIP3   OH257043   3.160   4.527   9.297
19053TIP3    H157044   3.103   4.603   9.319
19053TIP3    H257045   3.213   4.565   9.223
19054TIP3   OH257046   2.991   4.273   7.913
19054TIP3    H157047   2.965   4.276   7.818
19054TIP3    H257048   3.088   4.279   7.905
19055TIP3   OH257049   3.682   4.948   9.430
19055TIP3    H157050   3.757   4.921   9.376
19055TIP3    H257051   3.682   4.879   9.499
19056TIP3   OH257052   3.816   4.603   7.572
19056TIP3    H157053   3.791   4.557   7.489
19056TIP3    H257054   3.782   4.693   7.551
19057TIP3   OH257055   3.261   4.309   9.436
19057TIP3    H157056   3.267   4.245   9.363
19057TIP3    H257057   3.221   4.387   9.391
19058TIP3   OH257058   3.285   4.110   9.235
19058TIP3    H157059   3.313   4.160   9.155
19058TIP3    H257060   3.191   4.092   9.214
19059TIP3   OH257061   3.309   4.644   9.099
19059TIP3    H157062   3.394   4.663   9.059
19059TIP3    H257063   3.253   4.715   9.061
19060TIP3   OH257064   3.903   4.606   9.476
19060TIP3    H157065   3.953   4.524   9.490
19060TIP3    H257066   3.972   4.668   9.449
19061TIP3   OH257067   3.936   4.872   9.223
19061TIP3    H157068   3.877   4.925   9.164
19061TIP3    H257069   4.023   4.894   9.183
19062TIP3   OH257070   3.437   3.878   9.242
19062TIP3    H157071   3.383   3.959   9.232
19062TIP3    H257072   3.369   3.811   9.263
19063TIP3   OH257073   3.531   4.380   9.462
19063TIP3    H157074   3.557   4.321   9.536
19063TIP3    H257075   3.434   4.364   9.458
19064TIP3   OH257076   3.788   4.327   9.365
19064TIP3    H157077   3.702   4.330   9.410
19064TIP3    H257078   3.848   4.308   9.438
19065TIP3   OH257079   4.017   4.322   9.550
19065TIP3    H157080   4.024   4.225   9.532
19065TIP3    H257081   3.995   4.322   9.645
19066TIP3   OH257082   3.588   3.779   9.501
19066TIP3    H157083   3.648   3.850   9.477
19066TIP3    H257084   3.501   3.820   9.487
19067TIP3   OH257085   2.796   5.327   7.806
19067TIP3    H157086   2.893   5.324   7.794
19067TIP3    H257087   2.773   5.384   7.731
19068TIP3   OH257088   2.278   4.704   8.046
19068TIP3    H157089   2.352   4.730   7.992
19068TIP3    H257090   2.254   4.620   8.001
19069TIP3   OH257091   2.194   5.328   8.444
19069TIP3    H157092   2.125   5.267   8.408
19069TIP3    H257093   2.237   5.269   8.510
19070TIP3   OH257094   2.329   5.178   8.631
19070TIP3    H157095   2.314   5.106   8.693
19070TIP3    H257096   2.380   5.240   8.686
19071TIP3   OH257097   4.057   5.577   8.432
19071TIP3    H157098   4.083   5.612   8.519
19071TIP3    H257099   4.117   5.624   8.372
19072TIP3   OH257100   4.085   5.600   8.714
19072TIP3    H157101   4.040   5.513   8.709
19072TIP3    H257102   4.160   5.575   8.771
19073TIP3   OH257103   4.133   5.275   9.288
19073TIP3    H157104   4.058   5.284   9.350
19073TIP3    H257105   4.173   5.364   9.293
19074TIP3   OH257106   3.950   4.787   7.907
19074TIP3    H157107   4.016   4.853   7.879
19074TIP3    H257108   3.993   4.749   7.987
19075TIP3   OH257109   4.077   4.655   8.111
19075TIP3    H157110   4.009   4.614   8.169
19075TIP3    H257111   4.138   4.695   8.176
19076TIP3   OH257112   4.132   5.049   8.545
19076TIP3    H157113   4.182   4.984   8.493
19076TIP3    H257114   4.122   5.123   8.482
19077TIP3   OH257115   3.961   5.350   8.739
19077TIP3    H157116   3.889   5.392   8.789
19077TIP3    H257117   3.912   5.302   8.668
19078TIP3   OH257118   4.014   4.563   7.757
19078TIP3    H157119   3.943   4.567   7.689
19078TIP3    H257120   3.986   4.640   7.812
19079TIP3   OH257121   3.888   4.236   7.711
19079TIP3    H157122   3.840   4.278   7.638
19079TIP3    H257123   3.861   4.142   7.700
19080TIP3   OH257124   3.891   4.514   8.258
19080TIP3    H157125   3.896   4.417   8.251
19080TIP3    H257126   3.876   4.527   8.354
19081TIP3   OH257127   2.515   4.590   8.999
19081TIP3    H157128   2.513   4.557   8.906
19081TIP3    H257129   2.612   4.590   9.016
19082TIP3   OH257130   4.178   4.939   9.114
19082TIP3    H157131   4.250   4.873   9.103
19082TIP3    H257132   4.202   5.008   9.050
19083TIP3   OH257133   4.362   4.743   9.128
19083TIP3    H157134   4.288   4.694   9.170
19083TIP3    H257135   4.436   4.683   9.149
19084TIP3   OH257136   3.828   3.970   7.696
19084TIP3    H157137   3.902   3.940   7.753
19084TIP3    H257138   3.754   3.913   7.721
19085TIP3   OH257139   3.887   4.230   8.154
19085TIP3    H157140   3.927   4.141   8.168
19085TIP3    H257141   3.944   4.263   8.082
19086TIP3   OH257142   4.048   4.402   8.648
19086TIP3    H157143   4.133   4.428   8.607
19086TIP3    H257144   4.060   4.440   8.737
19087TIP3   OH257145   4.117   4.548   8.879
19087TIP3    H157146   4.038   4.581   8.927
19087TIP3    H257147   4.148   4.629   8.834
19088TIP3   OH257148   4.546   4.142   9.422
19088TIP3    H157149   4.617   4.083   9.387
19088TIP3    H257150   4.531   4.203   9.347
19089TIP3   OH257151   3.995   3.979   8.189
19089TIP3    H157152   4.042   3.963   8.274
19089TIP3    H257153   3.934   3.903   8.188
19090TIP3   OH257154   2.693   3.968   9.007
19090TIP3    H157155   2.753   3.891   9.016
19090TIP3    H257156   2.758   4.040   8.998
19091TIP3   OH257157   2.502   4.239   9.087
19091TIP3    H157158   2.548   4.233   9.001
19091TIP3    H257159   2.530   4.326   9.118
19092TIP3   OH257160   4.438   4.288   9.220
19092TIP3    H157161   4.348   4.321   9.238
19092TIP3    H257162   4.415   4.206   9.172
19093TIP3   OH257163   4.076   3.913   7.824
19093TIP3    H157164   4.115   3.842   7.769
19093TIP3    H257165   4.142   3.984   7.816
19094TIP3   OH257166   2.480   3.743   8.584
19094TIP3    H157167   2.386   3.740   8.609
19094TIP3    H257168   2.479   3.801   8.505
19095TIP3   OH257169   3.643   5.446   8.092
19095TIP3    H157170   3.690   5.430   8.007
19095TIP3    H257171   3.698   5.514   8.133
19096TIP3   OH257172   2.717   5.201   9.516
19096TIP3    H157173   2.647   5.241   9.461
19096TIP3    H257174   2.747   5.277   9.569
19097TIP3   OH257175   2.919   5.285   9.024
19097TIP3    H157176   2.871   5.360   8.982
19097TIP3    H257177   3.004   5.298   8.977
19098TIP3   OH257178   3.363   5.526   9.159
19098TIP3    H157179   3.406   5.529   9.247
19098TIP3    H257180   3.428   5.577   9.105
19099TIP3   OH257181   3.542   5.678   9.019
19099TIP3    H157182   3.612   5.628   8.975
19099TIP3    H257183   3.594   5.735   9.079
19100TIP3   OH257184   4.340   4.040   9.118
19100TIP3    H157185   4.249   4.034   9.084
19100TIP3    H257186   4.371   3.947   9.106
19101TIP3   OH257187   2.597   5.535   9.051
19101TIP3    H157188   2.508   5.567   9.023
19101TIP3    H257189   2.608   5.585   9.133
19102TIP3   OH257190   2.831   5.517   8.904
19102TIP3    H157191   2.744   5.530   8.948
19102TIP3    H257192   2.812   5.550   8.814
19103TIP3   OH257193   3.256   5.545   8.703
19103TIP3    H157194   3.189   5.565   8.636
19103TIP3    H257195   3.269   5.634   8.743
19104TIP3   OH257196   3.526   5.487   8.755
19104TIP3    H157197   3.431   5.502   8.734
19104TIP3    H257198   3.568   5.561   8.709
19105TIP3   OH257199   3.736   5.679   8.668
19105TIP3    H157200   3.720   5.763   8.620
19105TIP3    H257201   3.760   5.618   8.595
19106TIP3   OH257202   2.505   5.333   8.789
19106TIP3    H157203   2.530   5.307   8.880
19106TIP3    H257204   2.578   5.290   8.739
19107TIP3   OH257205   2.700   5.204   8.649
19107TIP3    H157206   2.718   5.120   8.696
19107TIP3    H257207   2.790   5.242   8.641
19108TIP3   OH257208   2.965   5.301   8.650
19108TIP3    H157209   2.998   5.212   8.631
19108TIP3    H257210   3.011   5.319   8.734
19109TIP3   OH257211   3.545   3.957   8.742
19109TIP3    H157212   3.500   3.886   8.792
19109TIP3    H257213   3.613   3.908   8.694
19110TIP3   OH257214   4.066   3.837   8.646
19110TIP3    H157215   4.102   3.888   8.570
19110TIP3    H257216   3.970   3.853   8.636
19111TIP3   OH257217   4.160   3.935   8.408
19111TIP3    H157218   4.233   3.884   8.367
19111TIP3    H257219   4.193   4.027   8.393
19112TIP3   OH257220   2.792   3.665   8.754
19112TIP3    H157221   2.699   3.632   8.755
19112TIP3    H257222   2.840   3.580   8.751
19113TIP3   OH257223   2.580   3.534   8.403
19113TIP3    H157224   2.608   3.591   8.329
19113TIP3    H257225   2.549   3.599   8.468
19114TIP3   OH257226   3.236   3.695   8.635
19114TIP3    H157227   3.293   3.746   8.575
19114TIP3    H257228   3.256   3.735   8.720
19115TIP3   OH257229   3.784   3.844   8.617
19115TIP3    H157230   3.778   3.808   8.528
19115TIP3    H257231   3.769   3.763   8.673
19116TIP3   OH257232   3.811   3.766   8.181
19116TIP3    H157233   3.725   3.810   8.193
19116TIP3    H257234   3.795   3.681   8.227
19117TIP3   OH257235   2.296   5.103   8.179
19117TIP3    H157236   2.209   5.073   8.147
19117TIP3    H257237   2.287   5.198   8.163
19118TIP3   OH257238   2.694   3.691   8.167
19118TIP3    H157239   2.743   3.631   8.108
19118TIP3    H257240   2.767   3.747   8.202
19119TIP3   OH257241   3.207   3.868   8.264
19119TIP3    H157242   3.266   3.821   8.324
19119TIP3    H257243   3.228   3.961   8.289
19120TIP3   OH257244   3.064   5.305   7.761
19120TIP3    H157245   3.155   5.318   7.728
19120TIP3    H257246   3.047   5.216   7.723
19121TIP3   OH257247   3.787   5.412   7.857
19121TIP3    H157248   3.780   5.314   7.845
19121TIP3    H257249   3.739   5.443   7.777
19122TIP3   OH257250   2.384   5.142   7.832
19122TIP3    H157251   2.337   5.184   7.905
19122TIP3    H257252   2.462   5.107   7.876
19123TIP3   OH257253   4.051   4.051   9.496
19123TIP3    H157254   4.071   3.995   9.575
19123TIP3    H257255   4.138   4.046   9.453
19124TIP3   OH257256   4.012   5.556   9.044
19124TIP3    H157257   3.933   5.524   8.995
19124TIP3    H257258   3.991   5.651   9.048
19125TIP3   OH257259   5.278   4.928   7.811
19125TIP3    H157260   5.249   5.019   7.790
19125TIP3    H257261   5.202   4.878   7.776
19126TIP3   OH257262   5.276   4.930   8.192
19126TIP3    H157263   5.308   4.899   8.279
19126TIP3    H257264   5.236   4.849   8.155
19127TIP3   OH257265   4.577   4.825   8.557
19127TIP3    H157266   4.608   4.756   8.619
19127TIP3    H257267   4.657   4.877   8.545
19128TIP3   OH257268   5.520   5.231   7.873
19128TIP3    H157269   5.506   5.160   7.937
19128TIP3    H257270   5.550   5.304   7.929
19129TIP3   OH257271   4.549   5.234   8.283
19129TIP3    H157272   4.539   5.136   8.284
19129TIP3    H257273   4.645   5.242   8.274
19130TIP3   OH257274   4.255   4.436   8.067
19130TIP3    H157275   4.205   4.519   8.082
19130TIP3    H257276   4.185   4.382   8.027
19131TIP3   OH257277   4.315   4.725   8.240
19131TIP3    H157278   4.363   4.647   8.275
19131TIP3    H257279   4.371   4.751   8.166
19132TIP3   OH257280   5.171   5.694   7.890
19132TIP3    H157281   5.215   5.623   7.839
19132TIP3    H257282   5.162   5.652   7.977
19133TIP3   OH257283   5.075   5.154   8.241
19133TIP3    H157284   5.113   5.077   8.195
19133TIP3    H257285   5.159   5.199   8.264
19134TIP3   OH257286   6.088   4.473   8.236
19134TIP3    H157287   6.118   4.557   8.278
19134TIP3    H257288   6.116   4.488   8.144
19135TIP3   OH257289   5.486   4.656   8.273
19135TIP3    H157290   5.531   4.571   8.292
19135TIP3    H257291   5.457   4.640   8.181
19136TIP3   OH257292   4.826   4.315   8.238
19136TIP3    H157293   4.806   4.387   8.175
19136TIP3    H257294   4.778   4.241   8.193
19137TIP3   OH257295   5.520   4.407   7.859
19137TIP3    H157296   5.592   4.391   7.924
19137TIP3    H257297   5.572   4.441   7.784
19138TIP3   OH257298   4.459   4.516   8.345
19138TIP3    H157299   4.542   4.497   8.392
19138TIP3    H257300   4.472   4.461   8.265
19139TIP3   OH257301   4.900   4.714   8.139
19139TIP3    H157302   4.994   4.689   8.150
19139TIP3    H257303   4.861   4.631   8.106
19140TIP3   OH257304   6.162   4.680   8.409
19140TIP3    H157305   6.079   4.728   8.388
19140TIP3    H257306   6.179   4.711   8.499
19141TIP3   OH257307   4.822   4.299   8.673
19141TIP3    H157308   4.763   4.335   8.604
19141TIP3    H257309   4.770   4.318   8.753
19142TIP3   OH257310   5.169   5.149   7.681
19142TIP3    H157311   5.127   5.129   7.596
19142TIP3    H257312   5.124   5.233   7.705
19143TIP3   OH257313   4.930   5.074   8.467
19143TIP3    H157314   4.867   5.140   8.504
19143TIP3    H257315   4.971   5.124   8.394
19144TIP3   OH257316   5.729   4.409   8.032
19144TIP3    H157317   5.725   4.359   8.114
19144TIP3    H257318   5.785   4.485   8.057
19145TIP3   OH257319   4.694   4.413   8.456
19145TIP3    H157320   4.756   4.485   8.479
19145TIP3    H257321   4.742   4.372   8.380
19146TIP3   OH257322   4.757   5.268   8.566
19146TIP3    H157323   4.731   5.353   8.525
19146TIP3    H257324   4.678   5.252   8.621
19147TIP3   OH257325   4.153   4.957   7.800
19147TIP3    H157326   4.109   4.984   7.717
19147TIP3    H257327   4.182   5.044   7.836
19148TIP3   OH257328   5.591   5.474   8.042
19148TIP3    H157329   5.501   5.465   8.081
19148TIP3    H257330   5.582   5.559   7.995
19149TIP3   OH257331   5.882   4.373   8.404
19149TIP3    H157332   5.795   4.402   8.372
19149TIP3    H257333   5.942   4.406   8.333
19150TIP3   OH257334   5.179   4.017   8.386
19150TIP3    H157335   5.165   3.922   8.402
19150TIP3    H257336   5.101   4.055   8.432
19151TIP3   OH257337   5.292   5.521   7.715
19151TIP3    H157338   5.341   5.437   7.695
19151TIP3    H257339   5.354   5.585   7.673
19152TIP3   OH257340   5.434   5.306   7.621
19152TIP3    H157341   5.401   5.226   7.579
19152TIP3    H257342   5.470   5.270   7.705
19153TIP3   OH257343   5.816   5.387   8.384
19153TIP3    H157344   5.806   5.309   8.325
19153TIP3    H257345   5.801   5.461   8.322
19154TIP3   OH257346   5.109   4.781   7.642
19154TIP3    H157347   5.029   4.832   7.619
19154TIP3    H257348   5.155   4.777   7.556
19155TIP3   OH257349   5.067   4.564   7.358
19155TIP3    H157350   5.135   4.616   7.405
19155TIP3    H257351   5.125   4.501   7.310
19156TIP3   OH257352   6.012   5.023   8.229
19156TIP3    H157353   5.929   5.075   8.234
19156TIP3    H257354   6.042   5.045   8.139
19157TIP3   OH257355   5.455   4.863   7.613
19157TIP3    H157356   5.402   4.887   7.692
19157TIP3    H257357   5.540   4.837   7.656
19158TIP3   OH257358   5.691   4.901   8.525
19158TIP3    H157359   5.688   4.985   8.575
19158TIP3    H257360   5.605   4.905   8.479
19159TIP3   OH257361   4.688   4.860   8.030
19159TIP3    H157362   4.646   4.803   7.963
19159TIP3    H257363   4.765   4.806   8.059
19160TIP3   OH257364   4.818   5.271   8.179
19160TIP3    H157365   4.796   5.232   8.093
19160TIP3    H257366   4.907   5.236   8.196
19161TIP3   OH257367   4.825   4.831   8.386
19161TIP3    H157368   4.857   4.808   8.296
19161TIP3    H257369   4.868   4.917   8.403
19162TIP3   OH257370   5.349   5.470   8.161
19162TIP3    H157371   5.336   5.548   8.217
19162TIP3    H257372   5.335   5.395   8.223
19163TIP3   OH257373   4.962   5.389   8.708
19163TIP3    H157374   4.901   5.451   8.754
19163TIP3    H257375   4.898   5.335   8.658
19164TIP3   OH257376   5.296   4.721   7.439
19164TIP3    H157377   5.355   4.780   7.490
19164TIP3    H257378   5.322   4.744   7.346
19165TIP3   OH257379   4.718   4.943   8.812
19165TIP3    H157380   4.721   5.031   8.854
19165TIP3    H257381   4.622   4.924   8.819
19166TIP3   OH257382   5.039   5.400   7.716
19166TIP3    H157383   5.119   5.454   7.730
19166TIP3    H257384   4.979   5.462   7.673
19167TIP3   OH257385   4.756   5.558   8.796
19167TIP3    H157386   4.722   5.557   8.704
19167TIP3    H257387   4.677   5.535   8.848
19168TIP3   OH257388   5.812   3.961   7.487
19168TIP3    H157389   5.731   3.983   7.537
19168TIP3    H257390   5.827   4.044   7.437
19169TIP3   OH257391   4.554   4.703   7.836
19169TIP3    H157392   4.488   4.749   7.779
19169TIP3    H257393   4.514   4.617   7.846
19170TIP3   OH257394   5.611   5.328   7.037
19170TIP3    H157395   5.620   5.425   7.021
19170TIP3    H257396   5.704   5.298   7.023
19171TIP3   OH257397   4.336   5.088   8.741
19171TIP3    H157398   4.269   5.067   8.673
19171TIP3    H257399   4.372   4.999   8.763
19172TIP3   OH257400   4.189   5.279   8.375
19172TIP3    H157401   4.285   5.276   8.365
19172TIP3    H257402   4.178   5.360   8.428
19173TIP3   OH257403   6.053   5.731   8.429
19173TIP3    H157404   6.053   5.634   8.442
19173TIP3    H257405   5.970   5.755   8.476
19174TIP3   OH257406   5.160   5.517   8.566
19174TIP3    H157407   5.158   5.609   8.598
19174TIP3    H257408   5.088   5.477   8.619
19175TIP3   OH257409   4.922   5.646   7.517
19175TIP3    H157410   4.875   5.627   7.433
19175TIP3    H257411   4.888   5.735   7.540
19176TIP3   OH257412   4.359   5.495   7.901
19176TIP3    H157413   4.405   5.485   7.987
19176TIP3    H257414   4.302   5.416   7.901
19177TIP3   OH257415   5.123   5.548   7.156
19177TIP3    H157416   5.181   5.478   7.120
19177TIP3    H257417   5.157   5.556   7.248
19178TIP3   OH257418   5.173   5.596   7.427
19178TIP3    H157419   5.084   5.606   7.468
19178TIP3    H257420   5.222   5.552   7.498
19179TIP3   OH257421   5.943   4.861   8.705
19179TIP3    H157422   5.863   4.873   8.652
19179TIP3    H257423   5.959   4.765   8.695
19180TIP3   OH257424   4.540   5.270   8.731
19180TIP3    H157425   4.590   5.252   8.814
19180TIP3    H257426   4.466   5.207   8.737
19181TIP3   OH257427   4.940   4.093   8.514
19181TIP3    H157428   4.851   4.062   8.488
19181TIP3    H257429   4.915   4.176   8.560
19182TIP3   OH257430   5.474   4.209   8.709
19182TIP3    H157431   5.542   4.181   8.773
19182TIP3    H257432   5.390   4.188   8.755
19183TIP3   OH257433   5.712   4.636   8.626
19183TIP3    H157434   5.663   4.634   8.711
19183TIP3    H257435   5.689   4.724   8.591
19184TIP3   OH257436   5.372   4.769   7.184
19184TIP3    H157437   5.339   4.742   7.096
19184TIP3    H257438   5.455   4.814   7.159
19185TIP3   OH257439   5.084   4.143   7.485
19185TIP3    H157440   5.051   4.139   7.577
19185TIP3    H257441   5.046   4.060   7.451
19186TIP3   OH257442   4.872   4.608   8.533
19186TIP3    H157443   4.820   4.630   8.614
19186TIP3    H257444   4.857   4.689   8.479
19187TIP3   OH257445   4.756   4.495   8.047
19187TIP3    H157446   4.663   4.469   8.064
19187TIP3    H257447   4.769   4.455   7.958
19188TIP3   OH257448   5.246   4.581   7.775
19188TIP3    H157449   5.194   4.652   7.732
19188TIP3    H257450   5.301   4.549   7.700
19189TIP3   OH257451   5.421   4.860   8.862
19189TIP3    H157452   5.399   4.786   8.923
19189TIP3    H257453   5.516   4.873   8.882
19190TIP3   OH257454   5.403   4.609   8.014
19190TIP3    H157455   5.343   4.638   7.942
19190TIP3    H257456   5.437   4.528   7.971
19191TIP3   OH257457   4.692   4.638   8.741
19191TIP3    H157458   4.717   4.703   8.809
19191TIP3    H257459   4.679   4.557   8.794
19192TIP3   OH257460   4.740   4.115   7.452
19192TIP3    H157461   4.732   4.113   7.549
19192TIP3    H257462   4.662   4.168   7.427
19193TIP3   OH257463   4.283   4.159   8.324
19193TIP3    H157464   4.360   4.191   8.376
19193TIP3    H257465   4.323   4.128   8.241
19194TIP3   OH257466   4.257   4.141   7.842
19194TIP3    H157467   4.301   4.179   7.763
19194TIP3    H257468   4.195   4.214   7.862
19195TIP3   OH257469   5.413   4.855   8.437
19195TIP3    H157470   5.446   4.783   8.378
19195TIP3    H257471   5.384   4.802   8.514
19196TIP3   OH257472   5.083   4.318   8.108
19196TIP3    H157473   5.001   4.316   8.162
19196TIP3    H257474   5.152   4.315   8.177
19197TIP3   OH257475   4.517   4.373   8.117
19197TIP3    H157476   4.422   4.381   8.089
19197TIP3    H257477   4.539   4.281   8.093
19198TIP3   OH257478   4.786   4.369   7.805
19198TIP3    H157479   4.880   4.384   7.784
19198TIP3    H257480   4.739   4.392   7.722
19199TIP3   OH257481   5.575   4.394   8.312
19199TIP3    H157482   5.538   4.406   8.403
19199TIP3    H257483   5.510   4.332   8.274
19200TIP3   OH257484   4.629   4.403   7.584
19200TIP3    H157485   4.556   4.358   7.536
19200TIP3    H257486   4.680   4.439   7.509
19201TIP3   OH257487   5.744   6.082   8.529
19201TIP3    H157488   5.744   6.103   8.434
19201TIP3    H257489   5.826   6.127   8.559
19202TIP3   OH257490   4.702   5.191   8.951
19202TIP3    H157491   4.781   5.222   8.999
19202TIP3    H257492   4.637   5.191   9.024
19203TIP3   OH257493   5.166   4.645   8.205
19203TIP3    H157494   5.239   4.607   8.153
19203TIP3    H257495   5.177   4.601   8.291
19204TIP3   OH257496   4.690   4.133   8.084
19204TIP3    H157497   4.655   4.054   8.130
19204TIP3    H257498   4.738   4.094   8.010
19205TIP3   OH257499   5.143   4.540   8.498
19205TIP3    H157500   5.053   4.577   8.510
19205TIP3    H257501   5.200   4.602   8.546
19206TIP3   OH257502   4.879   4.933   7.590
19206TIP3    H157503   4.807   4.867   7.579
19206TIP3    H257504   4.860   4.967   7.681
19207TIP3   OH257505   5.779   5.170   8.220
19207TIP3    H157506   5.804   5.219   8.138
19207TIP3    H257507   5.695   5.127   8.194
19208TIP3   OH257508   5.338   4.244   7.454
19208TIP3    H157509   5.241   4.228   7.461
19208TIP3    H257510   5.347   4.339   7.477
19209TIP3   OH257511   5.280   5.252   8.587
19209TIP3    H157512   5.302   5.229   8.678
19209TIP3    H257513   5.240   5.340   8.595
19210TIP3   OH257514   5.407   4.493   7.557
19210TIP3    H157515   5.503   4.498   7.572
19210TIP3    H257516   5.389   4.572   7.503
19211TIP3   OH257517   4.573   4.957   8.266
19211TIP3    H157518   4.609   4.928   8.180
19211TIP3    H257519   4.611   4.892   8.327
19212TIP3   OH257520   5.024   5.082   7.412
19212TIP3    H157521   4.977   5.169   7.417
19212TIP3    H257522   4.970   5.027   7.472
19213TIP3   OH257523   4.452   4.874   8.880
19213TIP3    H157524   4.468   4.858   8.975
19213TIP3    H257525   4.381   4.810   8.860
19214TIP3   OH257526   5.178   4.989   8.901
19214TIP3    H157527   5.119   4.932   8.849
19214TIP3    H257528   5.266   4.955   8.872
19215TIP3   OH257529   5.439   5.514   8.483
19215TIP3    H157530   5.343   5.509   8.496
19215TIP3    H257531   5.465   5.565   8.563
19216TIP3   OH257532   5.847   4.584   7.394
19216TIP3    H157533   5.785   4.538   7.331
19216TIP3    H257534   5.845   4.672   7.352
19217TIP3   OH257535   6.067   5.442   8.472
19217TIP3    H157536   5.969   5.435   8.464
19217TIP3    H257537   6.093   5.411   8.383
19218TIP3   OH257538   5.551   5.402   7.301
19218TIP3    H157539   5.524   5.332   7.362
19218TIP3    H257540   5.562   5.356   7.216
19219TIP3   OH257541   5.545   5.031   8.139
19219TIP3    H157542   5.451   5.006   8.151
19219TIP3    H257543   5.579   4.951   8.094
19220TIP3   OH257544   4.672   5.259   7.893
19220TIP3    H157545   4.672   5.340   7.838
19220TIP3    H257546   4.578   5.241   7.900
19221TIP3   OH257547   4.236   4.563   7.595
19221TIP3    H157548   4.281   4.647   7.615
19221TIP3    H257549   4.159   4.568   7.655
19222TIP3   OH257550   4.810   5.024   7.836
19222TIP3    H157551   4.776   5.114   7.854
19222TIP3    H257552   4.774   4.974   7.910
19223TIP3   OH257553   4.941   5.603   8.361
19223TIP3    H157554   4.983   5.675   8.309
19223TIP3    H257555   5.018   5.566   8.407
19224TIP3   OH257556   4.592   5.497   7.744
19224TIP3    H157557   4.506   5.506   7.790
19224TIP3    H257558   4.623   5.590   7.746
19225TIP3   OH257559   5.331   5.237   8.318
19225TIP3    H157560   5.321   5.234   8.416
19225TIP3    H257561   5.409   5.182   8.304
19226TIP3   OH257562   5.305   5.131   7.202
19226TIP3    H157563   5.358   5.105   7.281
19226TIP3    H257564   5.216   5.102   7.230
19227TIP3   OH257565   5.577   5.772   8.372
19227TIP3    H157566   5.500   5.714   8.364
19227TIP3    H257567   5.562   5.835   8.297
19228TIP3   OH257568   5.643   5.604   7.021
19228TIP3    H157569   5.677   5.674   6.964
19228TIP3    H257570   5.564   5.649   7.056
19229TIP3   OH257571   4.661   4.381   8.889
19229TIP3    H157572   4.564   4.383   8.897
19229TIP3    H257573   4.685   4.316   8.957
19230TIP3   OH257574   5.464   5.066   7.420
19230TIP3    H157575   5.454   4.998   7.490
19230TIP3    H257576   5.561   5.061   7.406
19231TIP3   OH257577   4.381   5.466   8.519
19231TIP3    H157578   4.432   5.389   8.549
19231TIP3    H257579   4.410   5.533   8.581
19232TIP3   OH257580   4.670   5.110   7.201
19232TIP3    H157581   4.684   5.018   7.172
19232TIP3    H257582   4.651   5.098   7.296
19233TIP3   OH257583   4.616   5.115   7.474
19233TIP3    H157584   4.688   5.088   7.532
19233TIP3    H257585   4.620   5.213   7.481
19234TIP3   OH257586   4.352   4.809   7.677
19234TIP3    H157587   4.285   4.853   7.733
19234TIP3    H257588   4.365   4.878   7.609
19235TIP3   OH257589   5.498   4.447   8.572
19235TIP3    H157590   5.581   4.484   8.606
19235TIP3    H257591   5.486   4.366   8.625
19236TIP3   OH257592   5.379   4.196   7.735
19236TIP3    H157593   5.367   4.218   7.640
19236TIP3    H257594   5.419   4.279   7.770
19237TIP3   OH257595   4.882   5.313   7.423
19237TIP3    H157596   4.795   5.339   7.459
19237TIP3    H257597   4.897   5.383   7.358
19238TIP3   OH257598   5.069   4.376   7.836
19238TIP3    H157599   5.134   4.447   7.818
19238TIP3    H257600   5.075   4.369   7.934
19239TIP3   OH257601   5.339   4.694   8.644
19239TIP3    H157602   5.362   4.746   8.724
19239TIP3    H257603   5.394   4.615   8.654
19240TIP3   OH257604   5.214   4.102   7.938
19240TIP3    H157605   5.208   4.179   7.998
19240TIP3    H257606   5.274   4.138   7.869
19241TIP3   OH257607   4.626   5.388   7.490
19241TIP3    H157608   4.595   5.457   7.427
19241TIP3    H257609   4.609   5.431   7.576
19242TIP3   OH257610   4.725   4.101   7.728
19242TIP3    H157611   4.723   4.192   7.764
19242TIP3    H257612   4.821   4.083   7.736
19243TIP3   OH257613   5.979   4.595   8.626
19243TIP3    H157614   5.881   4.592   8.631
19243TIP3    H257615   5.993   4.556   8.539
19244TIP3   OH257616   5.630   4.790   8.014
19244TIP3    H157617   5.555   4.729   8.024
19244TIP3    H257618   5.702   4.743   8.060
19245TIP3   OH257619   4.343   5.017   7.483
19245TIP3    H157620   4.409   5.088   7.491
19245TIP3    H257621   4.388   4.962   7.415
19246TIP3   OH257622   4.287   4.293   7.616
19246TIP3    H157623   4.287   4.391   7.613
19246TIP3    H257624   4.203   4.272   7.574
19247TIP3   OH257625   5.598   5.747   7.963
19247TIP3    H157626   5.555   5.793   7.888
19247TIP3    H257627   5.692   5.765   7.942
19248TIP3   OH257628   4.675   4.014   8.490
19248TIP3    H157629   4.644   3.980   8.403
19248TIP3    H257630   4.664   3.935   8.547
19249TIP3   OH257631   4.215   5.234   7.870
19249TIP3    H157632   4.143   5.262   7.927
19249TIP3    H257633   4.187   5.273   7.784
19250TIP3   OH257634   4.370   5.773   8.941
19250TIP3    H157635   4.457   5.770   8.987
19250TIP3    H257636   4.347   5.678   8.939
19251TIP3   OH257637   4.856   5.738   8.985
19251TIP3    H157638   4.949   5.712   8.991
19251TIP3    H257639   4.825   5.680   8.913
19252TIP3   OH257640   4.834   5.314   7.115
19252TIP3    H157641   4.778   5.242   7.152
19252TIP3    H257642   4.909   5.261   7.081
19253TIP3   OH257643   5.488   5.647   8.722
19253TIP3    H157644   5.481   5.575   8.789
19253TIP3    H257645   5.568   5.694   8.751
19254TIP3   OH257646   5.270   5.355   7.026
19254TIP3    H157647   5.313   5.289   7.084
19254TIP3    H257648   5.326   5.352   6.946
19255TIP3   OH257649   4.501   5.179   9.142
19255TIP3    H157650   4.516   5.083   9.147
19255TIP3    H257651   4.414   5.183   9.098
19256TIP3   OH257652   4.478   4.831   7.335
19256TIP3    H157653   4.533   4.798   7.408
19256TIP3    H257654   4.545   4.835   7.263
19257TIP3   OH257655   5.108   5.265   8.915
19257TIP3    H157656   5.067   5.281   8.828
19257TIP3    H257657   5.139   5.172   8.907
19258TIP3   OH257658   4.988   5.029   7.142
19258TIP3    H157659   4.991   5.041   7.239
19258TIP3    H257660   4.989   4.931   7.137
19259TIP3   OH257661   5.602   5.274   8.523
19259TIP3    H157662   5.677   5.317   8.477
19259TIP3    H257663   5.531   5.338   8.507
19260TIP3   OH257664   4.621   4.913   9.128
19260TIP3    H157665   4.699   4.866   9.097
19260TIP3    H257666   4.650   4.945   9.216
19261TIP3   OH257667   4.688   4.734   7.558
19261TIP3    H157668   4.659   4.692   7.640
19261TIP3    H257669   4.723   4.659   7.507
19262TIP3   OH257670   4.956   4.799   8.787
19262TIP3    H157671   4.877   4.858   8.787
19262TIP3    H257672   5.005   4.832   8.709
19263TIP3   OH257673   4.787   4.528   7.398
19263TIP3    H157674   4.761   4.532   7.304
19263TIP3    H257675   4.885   4.532   7.390
19264TIP3   OH257676   5.473   5.201   8.920
19264TIP3    H157677   5.552   5.175   8.870
19264TIP3    H257678   5.470   5.133   8.990
19265TIP3   OH257679   5.607   4.859   7.061
19265TIP3    H157680   5.588   4.812   6.978
19265TIP3    H257681   5.575   4.949   7.037
19266TIP3   OH257682   5.076   4.587   8.914
19266TIP3    H157683   5.079   4.508   8.857
19266TIP3    H257684   5.034   4.653   8.854
19267TIP3   OH257685   5.081   4.373   8.720
19267TIP3    H157686   5.109   4.415   8.636
19267TIP3    H257687   4.988   4.351   8.701
19268TIP3   OH257688   5.108   4.910   8.594
19268TIP3    H157689   5.191   4.916   8.545
19268TIP3    H257690   5.052   4.975   8.548
19269TIP3   OH257691   5.691   4.876   8.973
19269TIP3    H157692   5.738   4.792   8.983
19269TIP3    H257693   5.760   4.933   8.937
19270TIP3   OH257694   5.731   5.130   8.711
19270TIP3    H157695   5.674   5.183   8.651
19270TIP3    H257696   5.819   5.149   8.671
19271TIP3   OH257697   4.953   4.698   9.146
19271TIP3    H157698   4.886   4.627   9.152
19271TIP3    H257699   4.991   4.680   9.057
19272TIP3   OH257700   5.213   4.137   8.786
19272TIP3    H157701   5.164   4.219   8.763
19272TIP3    H257702   5.144   4.069   8.774
19273TIP3   OH257703   5.339   4.641   9.001
19273TIP3    H157704   5.329   4.628   9.097
19273TIP3    H257705   5.249   4.616   8.972
19274TIP3   OH257706   5.579   4.593   8.857
19274TIP3    H157707   5.504   4.592   8.920
19274TIP3    H257708   5.653   4.561   8.914
19275TIP3   OH257709   5.806   4.531   9.008
19275TIP3    H157710   5.819   4.435   9.026
19275TIP3    H257711   5.803   4.570   9.098
19276TIP3   OH257712   4.798   4.475   9.191
19276TIP3    H157713   4.800   4.385   9.152
19276TIP3    H257714   4.854   4.462   9.271
19277TIP3   OH257715   5.308   4.146   9.043
19277TIP3    H157716   5.375   4.075   9.037
19277TIP3    H257717   5.268   4.141   8.954
19278TIP3   OH257718   5.374   4.362   9.201
19278TIP3    H157719   5.352   4.290   9.137
19278TIP3    H257720   5.296   4.420   9.193
19279TIP3   OH257721   4.595   5.591   7.303
19279TIP3    H157722   4.690   5.586   7.283
19279TIP3    H257723   4.564   5.639   7.224
19280TIP3   OH257724   4.074   4.972   7.519
19280TIP3    H157725   4.169   4.993   7.505
19280TIP3    H257726   4.068   4.883   7.478
19281TIP3   OH257727   3.989   5.585   7.931
19281TIP3    H157728   3.922   5.523   7.895
19281TIP3    H257729   4.033   5.527   7.997
19282TIP3   OH257730   4.125   5.436   8.119
19282TIP3    H157731   4.111   5.362   8.180
19282TIP3    H257732   4.176   5.497   8.176
19283TIP3   OH257733   5.850   5.840   7.919
19283TIP3    H157734   5.880   5.868   8.007
19283TIP3    H257735   5.916   5.879   7.860
19284TIP3   OH257736   5.882   5.857   8.202
19284TIP3    H157737   5.837   5.770   8.197
19284TIP3    H257738   5.958   5.832   8.257
19285TIP3   OH257739   5.927   5.533   8.774
19285TIP3    H157740   5.855   5.542   8.839
19285TIP3    H257741   5.969   5.621   8.779
19286TIP3   OH257742   5.742   5.047   7.394
19286TIP3    H157743   5.812   5.109   7.364
19286TIP3    H257744   5.786   5.007   7.473
19287TIP3   OH257745   5.870   4.916   7.598
19287TIP3    H157746   5.806   4.872   7.658
19287TIP3    H257747   5.938   4.950   7.660
19288TIP3   OH257748   5.925   5.305   8.029
19288TIP3    H157749   5.979   5.238   7.981
19288TIP3    H257750   5.918   5.376   7.963
19289TIP3   OH257751   5.757   5.607   8.224
19289TIP3    H157752   5.684   5.646   8.276
19289TIP3    H257753   5.709   5.558   8.154
19290TIP3   OH257754   5.809   4.821   7.245
19290TIP3    H157755   5.737   4.823   7.177
19290TIP3    H257756   5.781   4.897   7.300
19291TIP3   OH257757   5.678   4.495   7.200
19291TIP3    H157758   5.640   4.531   7.119
19291TIP3    H257759   5.654   4.400   7.191
19292TIP3   OH257760   5.684   4.770   7.744
19292TIP3    H157761   5.694   4.674   7.737
19292TIP3    H257762   5.672   4.783   7.841
19293TIP3   OH257763   4.311   4.840   8.492
19293TIP3    H157764   4.309   4.811   8.399
19293TIP3    H257765   4.409   4.844   8.508
19294TIP3   OH257766   5.975   5.195   8.601
19294TIP3    H157767   6.047   5.128   8.593
19294TIP3    H257768   6.002   5.262   8.537
19295TIP3   OH257769   6.159   5.000   8.620
19295TIP3    H157770   6.084   4.948   8.658
19295TIP3    H257771   6.232   4.936   8.634
19296TIP3   OH257772   5.624   4.229   7.186
19296TIP3    H157773   5.701   4.198   7.237
19296TIP3    H257774   5.553   4.167   7.210
19297TIP3   OH257775   5.682   4.487   7.638
19297TIP3    H157776   5.722   4.398   7.654
19297TIP3    H257777   5.740   4.519   7.568
19298TIP3   OH257778   5.843   4.661   8.134
19298TIP3    H157779   5.929   4.686   8.093
19298TIP3    H257780   5.858   4.697   8.223
19299TIP3   OH257781   5.913   4.804   8.367
19299TIP3    H157782   5.834   4.839   8.413
19299TIP3    H257783   5.946   4.884   8.320
19300TIP3   OH257784   4.534   4.541   9.181
19300TIP3    H157785   4.631   4.527   9.171
19300TIP3    H257786   4.504   4.451   9.200
19301TIP3   OH257787   6.361   4.393   8.922
19301TIP3    H157788   6.422   4.329   8.880
19301TIP3    H257789   6.335   4.449   8.845
19302TIP3   OH257790   5.788   4.237   7.678
19302TIP3    H157791   5.840   4.220   7.760
19302TIP3    H257792   5.730   4.159   7.677
19303TIP3   OH257793   4.491   4.222   8.498
19303TIP3    H157794   4.553   4.147   8.506
19303TIP3    H257795   4.553   4.296   8.490
19304TIP3   OH257796   4.295   4.495   8.571
19304TIP3    H157797   4.342   4.488   8.486
19304TIP3    H257798   4.320   4.584   8.599
19305TIP3   OH257799   6.234   4.535   8.727
19305TIP3    H157800   6.147   4.575   8.745
19305TIP3    H257801   6.207   4.462   8.668
19306TIP3   OH257802   5.870   4.171   7.309
19306TIP3    H157803   5.913   4.099   7.257
19306TIP3    H257804   5.938   4.241   7.306
19307TIP3   OH257805   4.277   4.001   8.072
19307TIP3    H157806   4.183   3.996   8.096
19307TIP3    H257807   4.274   4.058   7.992
19308TIP3   OH257808   5.437   5.703   7.576
19308TIP3    H157809   5.486   5.687   7.493
19308TIP3    H257810   5.493   5.769   7.620
19309TIP3   OH257811   4.499   4.084   8.886
19309TIP3    H157812   4.446   4.074   8.967
19309TIP3    H257813   4.432   4.119   8.824
19310TIP3   OH257814   4.537   5.507   8.963
19310TIP3    H157815   4.445   5.480   8.943
19310TIP3    H257816   4.544   5.486   9.057
19311TIP3   OH257817   4.715   5.540   8.511
19311TIP3    H157818   4.666   5.614   8.470
19311TIP3    H257819   4.801   5.554   8.465
19312TIP3   OH257820   5.161   5.783   8.649
19312TIP3    H157821   5.204   5.785   8.737
19312TIP3    H257822   5.226   5.833   8.596
19313TIP3   OH257823   5.338   5.935   8.506
19313TIP3    H157824   5.408   5.883   8.462
19313TIP3    H257825   5.392   5.991   8.566
19314TIP3   OH257826   6.132   4.297   8.607
19314TIP3    H157827   6.042   4.291   8.570
19314TIP3    H257828   6.165   4.205   8.595
19315TIP3   OH257829   4.392   5.798   8.532
19315TIP3    H157830   4.303   5.830   8.507
19315TIP3    H257831   4.397   5.830   8.622
19316TIP3   OH257832   4.629   5.776   8.391
19316TIP3    H157833   4.542   5.788   8.435
19316TIP3    H257834   4.608   5.807   8.300
19317TIP3   OH257835   5.053   5.803   8.189
19317TIP3    H157836   4.984   5.821   8.122
19317TIP3    H257837   5.065   5.892   8.229
19318TIP3   OH257838   5.322   5.744   8.242
19318TIP3    H157839   5.228   5.759   8.220
19318TIP3    H257840   5.364   5.818   8.195
19319TIP3   OH257841   5.532   5.937   8.155
19319TIP3    H157842   5.516   6.020   8.105
19319TIP3    H257843   5.557   5.875   8.083
19320TIP3   OH257844   4.303   5.591   8.278
19320TIP3    H157845   4.329   5.563   8.368
19320TIP3    H257846   4.374   5.546   8.226
19321TIP3   OH257847   4.496   5.461   8.135
19321TIP3    H157848   4.512   5.377   8.184
19321TIP3    H257849   4.587   5.497   8.129
19322TIP3   OH257850   4.763   5.556   8.137
19322TIP3    H157851   4.794   5.465   8.123
19322TIP3    H257852   4.807   5.576   8.222
19323TIP3   OH257853   5.338   4.212   8.224
19323TIP3    H157854   5.295   4.141   8.276
19323TIP3    H257855   5.411   4.165   8.180
19324TIP3   OH257856   5.861   4.094   8.132
19324TIP3    H157857   5.899   4.144   8.056
19324TIP3    H257858   5.766   4.111   8.123
19325TIP3   OH257859   5.956   4.192   7.894
19325TIP3    H157860   6.028   4.139   7.854
19325TIP3    H257861   5.991   4.282   7.879
19326TIP3   OH257862   4.587   3.921   8.242
19326TIP3    H157863   4.494   3.889   8.242
19326TIP3    H257864   4.635   3.836   8.237
19327TIP3   OH257865   4.375   3.790   7.889
19327TIP3    H157866   4.404   3.848   7.816
19327TIP3    H257867   4.345   3.856   7.956
19328TIP3   OH257868   5.031   3.952   8.122
19328TIP3    H157869   5.088   4.002   8.061
19328TIP3    H257870   5.054   3.992   8.207
19329TIP3   OH257871   5.576   4.100   8.106
19329TIP3    H157872   5.577   4.063   8.016
19329TIP3    H257873   5.563   4.019   8.160
19330TIP3   OH257874   5.607   4.022   7.668
19330TIP3    H157875   5.520   4.064   7.679
19330TIP3    H257876   5.592   3.937   7.714
19331TIP3   OH257877   4.091   5.361   7.668
19331TIP3    H157878   4.006   5.327   7.635
19331TIP3    H257879   4.079   5.456   7.648
19332TIP3   OH257880   4.491   3.949   7.652
19332TIP3    H157881   4.539   3.887   7.595
19332TIP3    H257882   4.564   4.004   7.688
19333TIP3   OH257883   5.003   4.125   7.751
19333TIP3    H157884   5.063   4.078   7.811
19333TIP3    H257885   5.025   4.218   7.776
19334TIP3   OH257886   4.863   5.550   7.250
19334TIP3    H157887   4.951   5.572   7.214
19334TIP3    H257888   4.840   5.475   7.191
19335TIP3   OH257889   5.583   5.669   7.344
19335TIP3    H157890   5.575   5.571   7.332
19335TIP3    H257891   5.536   5.700   7.264
19336TIP3   OH257892   4.792   4.200   9.137
19336TIP3    H157893   4.760   4.126   9.191
19336TIP3    H257894   4.887   4.200   9.162
19337TIP3   OH257895   5.041   4.207   9.255
19337TIP3    H157896   5.125   4.179   9.214
19337TIP3    H257897   5.030   4.137   9.324
19338TIP3   OH257898   4.167   5.388   7.307
19338TIP3    H157899   4.165   5.411   7.400
19338TIP3    H257900   4.255   5.346   7.296
19339TIP3   OH257901   5.869   4.260   9.038
19339TIP3    H157902   5.889   4.229   9.130
19339TIP3    H257903   5.958   4.257   8.997
19340TIP3   OH257904   5.806   5.813   8.532
19340TIP3    H157905   5.729   5.781   8.483
19340TIP3    H257906   5.786   5.909   8.536
19341TIP3   OH257907   7.077   5.187   7.296
19341TIP3    H157908   7.044   5.277   7.275
19341TIP3    H257909   7.001   5.134   7.266
19342TIP3   OH257910   7.070   5.187   7.681
19342TIP3    H157911   7.104   5.155   7.766
19342TIP3    H257912   7.037   5.104   7.643
19343TIP3   OH257913   6.371   5.084   8.048
19343TIP3    H157914   6.402   5.014   8.109
19343TIP3    H257915   6.455   5.126   8.024
19344TIP3   OH257916   7.316   5.489   7.359
19344TIP3    H157917   7.301   5.416   7.420
19344TIP3    H257918   7.347   5.560   7.418
19345TIP3   OH257919   6.343   5.489   7.768
19345TIP3    H157920   6.335   5.391   7.768
19345TIP3    H257921   6.439   5.498   7.765
19346TIP3   OH257922   6.049   4.692   7.554
19346TIP3    H157923   6.001   4.776   7.566
19346TIP3    H257924   5.979   4.638   7.513
19347TIP3   OH257925   6.111   4.978   7.725
19347TIP3    H157926   6.159   4.900   7.762
19347TIP3    H257927   6.170   5.004   7.653
19348TIP3   OH257928   6.963   5.947   7.377
19348TIP3    H157929   7.009   5.876   7.327
19348TIP3    H257930   6.963   5.911   7.466
19349TIP3   OH257931   6.871   5.411   7.727
19349TIP3    H157932   6.908   5.332   7.685
19349TIP3    H257933   6.956   5.456   7.749
19350TIP3   OH257934   7.887   4.730   7.725
19350TIP3    H157935   7.915   4.814   7.767
19350TIP3    H257936   7.902   4.750   7.631
19351TIP3   OH257937   7.297   4.917   7.758
19351TIP3    H157938   7.330   4.826   7.773
19351TIP3    H257939   7.244   4.903   7.677
19352TIP3   OH257940   7.318   4.654   7.345
19352TIP3    H157941   7.389   4.642   7.411
19352TIP3    H257942   7.367   4.698   7.274
19353TIP3   OH257943   6.256   4.773   7.834
19353TIP3    H157944   6.342   4.756   7.876
19353TIP3    H257945   6.267   4.716   7.754
19354TIP3   OH257946   6.693   4.966   7.633
19354TIP3    H157947   6.784   4.930   7.639
19354TIP3    H257948   6.647   4.888   7.595
19355TIP3   OH257949   7.960   4.940   7.893
19355TIP3    H157950   7.876   4.986   7.873
19355TIP3    H257951   7.969   4.961   7.987
19356TIP3   OH257952   6.617   4.557   8.158
19356TIP3    H157953   6.559   4.591   8.087
19356TIP3    H257954   6.563   4.577   8.237
19357TIP3   OH257955   6.965   5.407   7.168
19357TIP3    H157956   6.924   5.382   7.084
19357TIP3    H257957   6.917   5.489   7.190
19358TIP3   OH257958   6.727   5.330   7.953
19358TIP3    H157959   6.664   5.397   7.990
19358TIP3    H257960   6.769   5.380   7.880
19359TIP3   OH257961   7.529   4.664   7.517
19359TIP3    H157962   7.508   4.617   7.599
19359TIP3    H257963   7.576   4.742   7.549
19360TIP3   OH257964   6.498   4.665   7.928
19360TIP3    H157965   6.561   4.736   7.954
19360TIP3    H257966   6.541   4.634   7.847
19361TIP3   OH257967   6.553   5.525   8.052
19361TIP3    H157968   6.527   5.611   8.014
19361TIP3    H257969   6.474   5.508   8.107
19362TIP3   OH257970   5.945   5.214   7.287
19362TIP3    H157971   5.906   5.239   7.201
19362TIP3    H257972   5.978   5.299   7.322
19363TIP3   OH257973   7.387   5.731   7.530
19363TIP3    H157974   7.296   5.721   7.567
19363TIP3    H257975   7.379   5.816   7.483
19364TIP3   OH257976   7.676   4.633   7.892
19364TIP3    H157977   7.588   4.655   7.859
19364TIP3    H257978   7.734   4.663   7.819
19365TIP3   OH257979   6.977   4.272   7.877
19365TIP3    H157980   6.957   4.178   7.888
19365TIP3    H257981   6.899   4.314   7.918
19366TIP3   OH257982   7.085   5.777   7.198
19366TIP3    H157983   7.135   5.693   7.181
19366TIP3    H257984   7.148   5.841   7.159
19367TIP3   OH257985   7.229   5.563   7.108
19367TIP3    H157986   7.199   5.482   7.066
19367TIP3    H257987   7.266   5.528   7.193
19368TIP3   OH257988   7.613   5.643   7.871
19368TIP3    H157989   7.602   5.565   7.812
19368TIP3    H257990   7.596   5.717   7.809
19369TIP3   OH257991   6.905   5.040   7.127
19369TIP3    H157992   6.824   5.087   7.101
19369TIP3    H257993   6.952   5.031   7.043
19370TIP3   OH257994   6.863   4.822   6.846
19370TIP3    H157995   6.932   4.871   6.892
19370TIP3    H257996   6.918   4.757   6.797
19371TIP3   OH257997   7.809   5.281   7.716
19371TIP3    H157998   7.724   5.332   7.721
19371TIP3    H257999   7.838   5.304   7.625
19372TIP3   OH258000   7.253   5.121   7.099
19372TIP3    H158001   7.198   5.143   7.178
19372TIP3    H258002   7.336   5.093   7.143
19373TIP3   OH258003   7.488   5.159   8.011
19373TIP3    H158004   7.481   5.244   8.056
19373TIP3    H258005   7.401   5.157   7.965
19374TIP3   OH258006   6.488   5.118   7.517
19374TIP3    H158007   6.443   5.060   7.451
19374TIP3    H258008   6.560   5.059   7.548
19375TIP3   OH258009   6.617   5.533   7.664
19375TIP3    H158010   6.593   5.484   7.584
19375TIP3    H258011   6.706   5.497   7.683
19376TIP3   OH258012   6.614   5.089   7.872
19376TIP3    H158013   6.649   5.058   7.785
19376TIP3    H258014   6.664   5.171   7.887
19377TIP3   OH258015   7.143   5.727   7.646
19377TIP3    H158016   7.133   5.805   7.702
19377TIP3    H258017   7.131   5.652   7.709
19378TIP3   OH258018   6.759   5.645   8.195
19378TIP3    H158019   6.698   5.707   8.241
19378TIP3    H258020   6.694   5.591   8.146
19379TIP3   OH258021   7.091   4.979   6.928
19379TIP3    H158022   7.151   5.037   6.979
19379TIP3    H258023   7.118   5.001   6.835
19380TIP3   OH258024   6.515   5.202   8.300
19380TIP3    H158025   6.516   5.289   8.343
19380TIP3    H258026   6.420   5.182   8.301
19381TIP3   OH258027   6.831   5.661   7.206
19381TIP3    H158028   6.916   5.706   7.218
19381TIP3    H258029   6.777   5.726   7.160
19382TIP3   OH258030   6.552   5.813   8.281
19382TIP3    H158031   6.518   5.812   8.190
19382TIP3    H258032   6.472   5.792   8.334
19383TIP3   OH258033   7.608   4.217   6.975
19383TIP3    H158034   7.526   4.237   7.025
19383TIP3    H258035   7.622   4.301   6.926
19384TIP3   OH258036   6.349   4.972   7.322
19384TIP3    H158037   6.275   4.995   7.263
19384TIP3    H258038   6.336   4.879   7.340
19385TIP3   OH258039   7.408   5.586   6.524
19385TIP3    H158040   7.418   5.683   6.508
19385TIP3    H258041   7.500   5.555   6.510
19386TIP3   OH258042   6.131   5.345   8.228
19386TIP3    H158043   6.067   5.320   8.158
19386TIP3    H258044   6.169   5.258   8.254
19387TIP3   OH258045   5.986   5.538   7.859
19387TIP3    H158046   6.081   5.525   7.851
19387TIP3    H258047   5.981   5.614   7.918
19388TIP3   OH258048   7.850   5.988   7.917
19388TIP3    H158049   7.849   5.891   7.930
19388TIP3    H258050   7.766   6.012   7.963
19389TIP3   OH258051   6.955   5.774   8.051
19389TIP3    H158052   6.955   5.867   8.084
19389TIP3    H258053   6.885   5.735   8.106
19390TIP3   OH258054   6.700   5.898   7.008
19390TIP3    H158055   6.668   5.875   6.918
19390TIP3    H258056   6.687   5.994   7.013
19391TIP3   OH258057   6.156   5.753   7.389
19391TIP3    H158058   6.199   5.741   7.477
19391TIP3    H258059   6.103   5.671   7.385
19392TIP3   OH258060   6.918   5.803   6.644
19392TIP3    H158061   6.977   5.734   6.607
19392TIP3    H258062   6.954   5.811   6.735
19393TIP3   OH258063   6.962   5.854   6.918
19393TIP3    H158064   6.878   5.848   6.966
19393TIP3    H258065   7.024   5.815   6.982
19394TIP3   OH258066   7.738   5.118   8.191
19394TIP3    H158067   7.658   5.130   8.138
19394TIP3    H258068   7.755   5.023   8.180
19395TIP3   OH258069   6.335   5.528   8.218
19395TIP3    H158070   6.387   5.509   8.299
19395TIP3    H258071   6.262   5.463   8.224
19396TIP3   OH258072   6.735   4.345   8.003
19396TIP3    H158073   6.644   4.318   7.979
19396TIP3    H258074   6.717   4.433   8.041
19397TIP3   OH258075   7.271   4.468   8.196
19397TIP3    H158076   7.338   4.436   8.259
19397TIP3    H258077   7.186   4.445   8.240
19398TIP3   OH258078   7.513   4.896   8.118
19398TIP3    H158079   7.459   4.892   8.200
19398TIP3    H258080   7.484   4.979   8.076
19399TIP3   OH258081   7.174   5.033   6.677
19399TIP3    H158082   7.134   5.005   6.593
19399TIP3    H258083   7.257   5.074   6.645
19400TIP3   OH258084   6.880   4.398   6.972
19400TIP3    H158085   6.849   4.396   7.065
19400TIP3    H258086   6.841   4.315   6.940
19401TIP3   OH258087   6.663   4.865   8.019
19401TIP3    H158088   6.613   4.887   8.100
19401TIP3    H258089   6.649   4.946   7.965
19402TIP3   OH258090   6.522   4.782   7.520
19402TIP3    H158091   6.453   4.724   7.557
19402TIP3    H258092   6.574   4.718   7.468
19403TIP3   OH258093   7.046   4.842   7.260
19403TIP3    H158094   6.991   4.911   7.219
19403TIP3    H258095   7.098   4.808   7.185
19404TIP3   OH258096   7.218   5.119   8.353
19404TIP3    H158097   7.195   5.043   8.412
19404TIP3    H258098   7.314   5.125   8.369
19405TIP3   OH258099   7.215   4.875   7.489
19405TIP3    H158100   7.142   4.895   7.428
19405TIP3    H258101   7.236   4.785   7.458
19406TIP3   OH258102   6.483   4.896   8.230
19406TIP3    H158103   6.520   4.957   8.296
19406TIP3    H258104   6.476   4.813   8.280
19407TIP3   OH258105   6.536   4.371   6.936
19407TIP3    H158106   6.531   4.370   7.034
19407TIP3    H258107   6.457   4.425   6.914
19408TIP3   OH258108   6.082   4.414   7.812
19408TIP3    H158109   6.156   4.451   7.863
19408TIP3    H258110   6.124   4.390   7.728
19409TIP3   OH258111   6.049   4.395   7.328
19409TIP3    H158112   6.099   4.431   7.252
19409TIP3    H258113   5.992   4.471   7.348
19410TIP3   OH258114   7.216   5.112   7.923
19410TIP3    H158115   7.248   5.042   7.862
19410TIP3    H258116   7.183   5.057   7.997
19411TIP3   OH258117   6.315   4.620   7.618
19411TIP3    H158118   6.226   4.622   7.577
19411TIP3    H258119   6.352   4.535   7.585
19412TIP3   OH258120   6.586   4.613   7.289
19412TIP3    H158121   6.680   4.636   7.274
19412TIP3    H258122   6.541   4.648   7.210
19413TIP3   OH258123   7.371   4.649   7.801
19413TIP3    H158124   7.331   4.664   7.889
19413TIP3    H258125   7.306   4.584   7.766
19414TIP3   OH258126   6.417   4.669   7.068
19414TIP3    H158127   6.350   4.619   7.018
19414TIP3    H258128   6.473   4.701   6.995
19415TIP3   OH258129   7.541   6.337   8.016
19415TIP3    H158130   7.538   6.362   7.922
19415TIP3    H258131   7.619   6.386   8.047
19416TIP3   OH258132   6.497   5.450   8.437
19416TIP3    H158133   6.577   5.479   8.484
19416TIP3    H258134   6.433   5.448   8.512
19417TIP3   OH258135   6.979   4.906   7.706
19417TIP3    H158136   6.969   4.833   7.642
19417TIP3    H258137   6.973   4.853   7.787
19418TIP3   OH258138   6.455   4.396   7.553
19418TIP3    H158139   6.450   4.316   7.608
19418TIP3    H258140   6.546   4.394   7.520
19419TIP3   OH258141   6.937   4.793   8.003
19419TIP3    H158142   6.849   4.833   7.997
19419TIP3    H258143   6.994   4.864   8.036
19420TIP3   OH258144   6.669   5.194   7.074
19420TIP3    H158145   6.601   5.124   7.065
19420TIP3    H258146   6.654   5.223   7.167
19421TIP3   OH258147   7.575   5.426   7.707
19421TIP3    H158148   7.599   5.474   7.625
19421TIP3    H258149   7.491   5.382   7.681
19422TIP3   OH258150   7.133   4.500   6.943
19422TIP3    H158151   7.036   4.483   6.948
19422TIP3    H258152   7.141   4.595   6.963
19423TIP3   OH258153   7.076   5.509   8.073
19423TIP3    H158154   7.097   5.484   8.164
19423TIP3    H258155   7.037   5.597   8.082
19424TIP3   OH258156   7.203   4.749   7.042
19424TIP3    H158157   7.299   4.756   7.059
19424TIP3    H258158   7.184   4.829   6.988
19425TIP3   OH258159   6.369   5.213   7.750
19425TIP3    H158160   6.406   5.184   7.664
19425TIP3    H258161   6.412   5.151   7.810
19426TIP3   OH258162   6.820   5.339   6.898
19426TIP3    H158163   6.773   5.425   6.907
19426TIP3    H258164   6.766   5.283   6.957
19427TIP3   OH258165   6.245   5.135   8.368
19427TIP3    H158166   6.269   5.119   8.461
19427TIP3    H258167   6.180   5.065   8.351
19428TIP3   OH258168   6.973   5.246   8.387
19428TIP3    H158169   6.915   5.189   8.334
19428TIP3    H258170   7.061   5.211   8.359
19429TIP3   OH258171   7.235   5.771   7.968
19429TIP3    H158172   7.139   5.766   7.981
19429TIP3    H258173   7.262   5.821   8.048
19430TIP3   OH258174   7.646   4.838   6.876
19430TIP3    H158175   7.583   4.793   6.815
19430TIP3    H258176   7.641   4.928   6.837
19431TIP3   OH258177   7.863   5.698   7.959
19431TIP3    H158178   7.765   5.691   7.950
19431TIP3    H258179   7.890   5.667   7.869
19432TIP3   OH258180   7.341   5.658   6.787
19432TIP3    H158181   7.321   5.586   6.848
19432TIP3    H258182   7.356   5.612   6.703
19433TIP3   OH258183   7.341   5.287   7.626
19433TIP3    H158184   7.248   5.261   7.638
19433TIP3    H258185   7.376   5.207   7.582
19434TIP3   OH258186   6.466   5.515   7.386
19434TIP3    H158187   6.473   5.575   7.311
19434TIP3    H258188   6.373   5.490   7.385
19435TIP3   OH258189   6.030   4.818   7.079
19435TIP3    H158190   6.078   4.901   7.101
19435TIP3    H258191   5.955   4.823   7.143
19436TIP3   OH258192   6.606   5.281   7.322
19436TIP3    H158193   6.572   5.368   7.350
19436TIP3    H258194   6.575   5.223   7.395
19437TIP3   OH258195   6.737   5.859   7.847
19437TIP3    H158196   6.780   5.932   7.797
19437TIP3    H258197   6.813   5.822   7.894
19438TIP3   OH258198   6.381   5.769   7.228
19438TIP3    H158199   6.292   5.765   7.270
19438TIP3    H258200   6.437   5.790   7.303
19439TIP3   OH258201   7.127   5.495   7.804
19439TIP3    H158202   7.118   5.491   7.902
19439TIP3    H258203   7.202   5.435   7.789
19440TIP3   OH258204   7.100   5.390   6.689
19440TIP3    H158205   7.155   5.364   6.767
19440TIP3    H258206   7.014   5.355   6.716
19441TIP3   OH258207   7.375   6.027   7.858
19441TIP3    H158208   7.296   5.969   7.851
19441TIP3    H258209   7.358   6.090   7.784
19442TIP3   OH258210   7.440   5.862   6.507
19442TIP3    H158211   7.481   5.937   6.461
19442TIP3    H258212   7.359   5.906   6.539
19443TIP3   OH258213   6.459   4.640   8.375
19443TIP3    H158214   6.362   4.640   8.387
19443TIP3    H258215   6.487   4.578   8.444
19444TIP3   OH258216   7.261   5.325   6.907
19444TIP3    H158217   7.249   5.256   6.976
19444TIP3    H258218   7.358   5.318   6.893
19445TIP3   OH258219   6.175   5.722   8.007
19445TIP3    H158220   6.227   5.645   8.036
19445TIP3    H258221   6.207   5.790   8.067
19446TIP3   OH258222   6.463   5.368   6.689
19446TIP3    H158223   6.481   5.278   6.657
19446TIP3    H258224   6.444   5.351   6.784
19447TIP3   OH258225   6.410   5.371   6.964
19447TIP3    H158226   6.486   5.337   7.013
19447TIP3    H258227   6.420   5.468   6.971
19448TIP3   OH258228   6.141   5.061   7.159
19448TIP3    H158229   6.078   5.107   7.218
19448TIP3    H258230   6.161   5.132   7.095
19449TIP3   OH258231   7.292   4.711   8.065
19449TIP3    H158232   7.381   4.736   8.094
19449TIP3    H258233   7.279   4.625   8.110
19450TIP3   OH258234   7.180   4.446   7.221
19450TIP3    H158235   7.162   4.472   7.128
19450TIP3    H258236   7.217   4.529   7.258
19451TIP3   OH258237   6.678   5.570   6.913
19451TIP3    H158238   6.592   5.601   6.945
19451TIP3    H258239   6.692   5.628   6.837
19452TIP3   OH258240   6.868   4.633   7.303
19452TIP3    H158241   6.935   4.704   7.294
19452TIP3    H258242   6.855   4.636   7.401
19453TIP3   OH258243   7.136   4.954   8.129
19453TIP3    H158244   7.162   5.000   8.211
19453TIP3    H258245   7.187   4.871   8.133
19454TIP3   OH258246   7.010   4.368   7.434
19454TIP3    H158247   6.993   4.449   7.484
19454TIP3    H258248   7.070   4.401   7.363
19455TIP3   OH258249   6.421   5.648   6.977
19455TIP3    H158250   6.391   5.713   6.910
19455TIP3    H258251   6.403   5.696   7.060
19456TIP3   OH258252   6.522   4.354   7.209
19456TIP3    H158253   6.520   4.442   7.252
19456TIP3    H258254   6.617   4.333   7.223
19457TIP3   OH258255   7.778   4.851   8.110
19457TIP3    H158256   7.680   4.852   8.120
19457TIP3    H258257   7.785   4.806   8.025
19458TIP3   OH258258   7.430   5.050   7.500
19458TIP3    H158259   7.352   4.991   7.507
19458TIP3    H258260   7.497   4.998   7.549
19459TIP3   OH258261   6.140   5.276   6.967
19459TIP3    H158262   6.213   5.340   6.977
19459TIP3    H258263   6.182   5.216   6.901
19460TIP3   OH258264   6.082   4.549   7.104
19460TIP3    H158265   6.086   4.646   7.099
19460TIP3    H258266   6.000   4.529   7.058
19461TIP3   OH258267   7.394   6.002   7.448
19461TIP3    H158268   7.352   6.049   7.373
19461TIP3    H258269   7.489   6.021   7.429
19462TIP3   OH258270   6.468   4.273   7.980
19462TIP3    H158271   6.440   4.240   7.892
19462TIP3    H258272   6.459   4.192   8.035
19463TIP3   OH258273   6.016   5.501   7.356
19463TIP3    H158274   5.943   5.521   7.416
19463TIP3    H258275   5.982   5.535   7.271
19464TIP3   OH258276   6.166   6.031   8.431
19464TIP3    H158277   6.253   6.030   8.477
19464TIP3    H258278   6.148   5.935   8.427
19465TIP3   OH258279   6.645   5.993   8.475
19465TIP3    H158280   6.741   5.979   8.481
19465TIP3    H258281   6.623   5.935   8.400
19466TIP3   OH258282   6.632   5.571   6.607
19466TIP3    H158283   6.575   5.497   6.640
19466TIP3    H258284   6.706   5.520   6.570
19467TIP3   OH258285   7.286   5.903   8.206
19467TIP3    H158286   7.277   5.832   8.273
19467TIP3    H258287   7.364   5.952   8.237
19468TIP3   OH258288   7.066   5.612   6.513
19468TIP3    H158289   7.107   5.546   6.573
19468TIP3    H258290   7.125   5.608   6.435
19469TIP3   OH258291   6.297   5.436   8.629
19469TIP3    H158292   6.314   5.340   8.633
19469TIP3    H258293   6.210   5.438   8.584
19470TIP3   OH258294   6.274   5.088   6.823
19470TIP3    H158295   6.329   5.051   6.895
19470TIP3    H258296   6.341   5.091   6.751
19471TIP3   OH258297   6.903   5.520   8.403
19471TIP3    H158298   6.864   5.537   8.315
19471TIP3    H258299   6.935   5.427   8.394
19472TIP3   OH258300   6.780   5.286   6.629
19472TIP3    H158301   6.787   5.296   6.726
19472TIP3    H258302   6.787   5.188   6.622
19473TIP3   OH258303   7.399   5.530   8.012
19473TIP3    H158304   7.473   5.574   7.965
19473TIP3    H258305   7.327   5.593   7.994
19474TIP3   OH258306   6.415   5.171   8.611
19474TIP3    H158307   6.491   5.117   8.585
19474TIP3    H258308   6.443   5.203   8.699
19475TIP3   OH258309   6.483   4.992   7.043
19475TIP3    H158310   6.458   4.950   7.127
19475TIP3    H258311   6.519   4.916   6.993
19476TIP3   OH258312   6.749   5.054   8.273
19476TIP3    H158313   6.673   5.115   8.274
19476TIP3    H258314   6.801   5.088   8.196
19477TIP3   OH258315   6.583   4.785   6.884
19477TIP3    H158316   6.559   4.787   6.790
19477TIP3    H258317   6.681   4.788   6.878
19478TIP3   OH258318   7.271   5.458   8.407
19478TIP3    H158319   7.345   5.430   8.352
19478TIP3    H258320   7.265   5.387   8.473
19479TIP3   OH258321   7.406   5.118   6.547
19479TIP3    H158322   7.384   5.069   6.466
19479TIP3    H258323   7.372   5.206   6.522
19480TIP3   OH258324   6.874   4.842   8.399
19480TIP3    H158325   6.876   4.762   8.343
19480TIP3    H258326   6.831   4.908   8.339
19481TIP3   OH258327   6.876   4.626   8.213
19481TIP3    H158328   6.907   4.672   8.131
19481TIP3    H258329   6.783   4.605   8.189
19482TIP3   OH258330   6.904   5.168   8.084
19482TIP3    H158331   6.985   5.166   8.033
19482TIP3    H258332   6.849   5.233   8.035
19483TIP3   OH258333   7.491   5.133   8.464
19483TIP3    H158334   7.533   5.046   8.464
19483TIP3    H258335   7.558   5.187   8.420
19484TIP3   OH258336   7.527   5.389   8.202
19484TIP3    H158337   7.470   5.441   8.140
19484TIP3    H258338   7.615   5.405   8.161
19485TIP3   OH258339   6.753   4.955   8.630
19485TIP3    H158340   6.685   4.886   8.643
19485TIP3    H258341   6.787   4.932   8.541
19486TIP3   OH258342   7.011   4.393   8.275
19486TIP3    H158343   6.962   4.475   8.251
19486TIP3    H258344   6.943   4.325   8.259
19487TIP3   OH258345   7.134   4.898   8.489
19487TIP3    H158346   7.120   4.884   8.584
19487TIP3    H258347   7.045   4.873   8.456
19488TIP3   OH258348   7.378   4.857   8.348
19488TIP3    H158349   7.300   4.848   8.407
19488TIP3    H258350   7.450   4.819   8.403
19489TIP3   OH258351   7.606   4.788   8.497
19489TIP3    H158352   7.618   4.692   8.513
19489TIP3    H258353   7.603   4.825   8.588
19490TIP3   OH258354   6.591   4.736   8.682
19490TIP3    H158355   6.598   4.646   8.645
19490TIP3    H258356   6.629   4.722   8.772
19491TIP3   OH258357   7.103   4.403   8.532
19491TIP3    H158358   7.171   4.332   8.525
19491TIP3    H258359   7.064   4.398   8.442
19492TIP3   OH258360   7.170   4.618   8.689
19492TIP3    H158361   7.149   4.546   8.625
19492TIP3    H258362   7.092   4.677   8.681
19493TIP3   OH258363   6.393   5.857   6.795
19493TIP3    H158364   6.487   5.846   6.772
19493TIP3    H258365   6.361   5.896   6.711
19494TIP3   OH258366   5.871   5.229   7.006
19494TIP3    H158367   5.966   5.250   6.990
19494TIP3    H258368   5.865   5.140   6.966
19495TIP3   OH258369   5.786   5.843   7.418
19495TIP3    H158370   5.719   5.781   7.382
19495TIP3    H258371   5.830   5.785   7.485
19496TIP3   OH258372   5.919   5.695   7.608
19496TIP3    H158373   5.909   5.619   7.667
19496TIP3    H258374   5.972   5.754   7.665
19497TIP3   OH258375   7.645   6.098   7.405
19497TIP3    H158376   7.677   6.127   7.493
19497TIP3    H258377   7.714   6.131   7.346
19498TIP3   OH258378   7.678   6.113   7.688
19498TIP3    H158379   7.633   6.026   7.683
19498TIP3    H258380   7.754   6.089   7.743
19499TIP3   OH258381   7.724   5.789   8.261
19499TIP3    H158382   7.650   5.798   8.324
19499TIP3    H258383   7.765   5.878   8.265
19500TIP3   OH258384   7.540   5.303   6.881
19500TIP3    H158385   7.609   5.365   6.852
19500TIP3    H258386   7.582   5.263   6.960
19501TIP3   OH258387   7.668   5.169   7.084
19501TIP3    H158388   7.602   5.126   7.143
19501TIP3    H258389   7.732   5.207   7.148
19502TIP3   OH258390   7.722   5.562   7.517
19502TIP3    H158391   7.775   5.496   7.467
19502TIP3    H258392   7.716   5.636   7.453
19503TIP3   OH258393   7.554   5.863   7.711
19503TIP3    H158394   7.481   5.903   7.763
19503TIP3    H258395   7.504   5.814   7.642
19504TIP3   OH258396   7.606   5.078   6.731
19504TIP3    H158397   7.534   5.080   6.663
19504TIP3    H258398   7.577   5.153   6.786
19505TIP3   OH258399   7.478   4.744   6.683
19505TIP3    H158400   7.432   4.787   6.609
19505TIP3    H258401   7.453   4.651   6.668
19506TIP3   OH258402   7.482   5.026   7.231
19506TIP3    H158403   7.486   4.929   7.225
19506TIP3    H258404   7.467   5.040   7.327
19507TIP3   OH258405   6.107   5.101   7.977
19507TIP3    H158406   6.107   5.068   7.885
19507TIP3    H258407   6.204   5.103   7.995
19508TIP3   OH258408   7.771   5.451   8.090
19508TIP3    H158409   7.842   5.385   8.080
19508TIP3    H258410   7.796   5.519   8.025
19509TIP3   OH258411   7.955   5.256   8.106
19509TIP3    H158412   7.880   5.205   8.143
19509TIP3    H258413   8.028   5.192   8.120
19510TIP3   OH258414   7.428   4.470   6.658
19510TIP3    H158415   7.491   4.450   6.729
19510TIP3    H258416   7.345   4.428   6.688
19511TIP3   OH258417   7.479   4.743   7.125
19511TIP3    H158418   7.517   4.654   7.142
19511TIP3    H258419   7.537   4.774   7.054
19512TIP3   OH258420   7.641   4.914   7.621
19512TIP3    H158421   7.727   4.941   7.581
19512TIP3    H258422   7.652   4.951   7.711
19513TIP3   OH258423   7.710   5.060   7.853
19513TIP3    H158424   7.630   5.093   7.900
19513TIP3    H258425   7.741   5.141   7.807
19514TIP3   OH258426   6.324   4.787   8.654
19514TIP3    H158427   6.422   4.780   8.654
19514TIP3    H258428   6.301   4.701   8.694
19515TIP3   OH258429   8.160   4.652   8.409
19515TIP3    H158430   8.219   4.585   8.368
19515TIP3    H258431   8.132   4.705   8.331
19516TIP3   OH258432   7.588   4.492   7.161
19516TIP3    H158433   7.634   4.477   7.247
19516TIP3    H258434   7.525   4.417   7.161
19517TIP3   OH258435   6.286   4.483   7.992
19517TIP3    H158436   6.346   4.405   7.997
19517TIP3    H258437   6.350   4.553   7.972
19518TIP3   OH258438   6.088   4.753   8.056
19518TIP3    H158439   6.138   4.742   7.972
19518TIP3    H258440   6.123   4.838   8.086
19519TIP3   OH258441   8.031   4.791   8.213
19519TIP3    H158442   7.943   4.831   8.229
19519TIP3    H258443   8.004   4.717   8.155
19520TIP3   OH258444   7.670   4.426   6.800
19520TIP3    H158445   7.707   4.355   6.743
19520TIP3    H258446   7.736   4.497   6.789
19521TIP3   OH258447   6.071   4.251   7.556
19521TIP3    H158448   5.977   4.254   7.581
19521TIP3    H258449   6.073   4.312   7.479
19522TIP3   OH258450   7.227   5.962   7.060
19522TIP3    H158451   7.282   5.946   6.980
19522TIP3    H258452   7.284   6.022   7.111
19523TIP3   OH258453   6.293   4.337   8.373
19523TIP3    H158454   6.240   4.333   8.454
19523TIP3    H258455   6.228   4.374   8.310
19524TIP3   OH258456   6.331   5.767   8.448
19524TIP3    H158457   6.241   5.735   8.431
19524TIP3    H258458   6.344   5.743   8.541
19525TIP3   OH258459   6.510   5.796   7.995
19525TIP3    H158460   6.464   5.873   7.955
19525TIP3    H258461   6.597   5.808   7.952
19526TIP3   OH258462   6.956   6.041   8.135
19526TIP3    H158463   6.999   6.042   8.223
19526TIP3    H258464   7.022   6.090   8.081
19527TIP3   OH258465   7.135   6.190   7.992
19527TIP3    H158466   7.207   6.140   7.951
19527TIP3    H258467   7.186   6.248   8.053
19528TIP3   OH258468   7.930   4.553   8.093
19528TIP3    H158469   7.839   4.546   8.058
19528TIP3    H258470   7.962   4.460   8.082
19529TIP3   OH258471   6.187   6.053   8.018
19529TIP3    H158472   6.097   6.088   7.997
19529TIP3    H258473   6.199   6.090   8.106
19530TIP3   OH258474   6.422   6.030   7.875
19530TIP3    H158475   6.336   6.043   7.920
19530TIP3    H258476   6.403   6.064   7.786
19531TIP3   OH258477   6.849   6.059   7.674
19531TIP3    H158478   6.781   6.084   7.609
19531TIP3    H258479   6.863   6.144   7.721
19532TIP3   OH258480   7.118   6.000   7.726
19532TIP3    H158481   7.024   6.017   7.706
19532TIP3    H258482   7.162   6.077   7.687
19533TIP3   OH258483   7.326   6.191   7.642
19533TIP3    H158484   7.312   6.275   7.595
19533TIP3    H258485   7.352   6.131   7.569
19534TIP3   OH258486   6.100   5.847   7.766
19534TIP3    H158487   6.126   5.820   7.857
19534TIP3    H258488   6.171   5.801   7.716
19535TIP3   OH258489   6.293   5.717   7.623
19535TIP3    H158490   6.306   5.631   7.670
19535TIP3    H258491   6.385   5.751   7.621
19536TIP3   OH258492   6.560   5.809   7.620
19536TIP3    H158493   6.591   5.716   7.615
19536TIP3    H258494   6.604   5.835   7.704
19537TIP3   OH258495   7.173   4.467   7.738
19537TIP3    H158496   7.089   4.427   7.766
19537TIP3    H258497   7.202   4.410   7.666
19538TIP3   OH258498   7.665   4.349   7.617
19538TIP3    H158499   7.697   4.402   7.542
19538TIP3    H258500   7.568   4.361   7.610
19539TIP3   OH258501   7.754   4.449   7.379
19539TIP3    H158502   7.828   4.400   7.339
19539TIP3    H258503   7.784   4.542   7.365
19540TIP3   OH258504   6.385   4.177   7.736
19540TIP3    H158505   6.292   4.146   7.730
19540TIP3    H258506   6.433   4.092   7.726
19541TIP3   OH258507   6.167   4.047   7.374
19541TIP3    H158508   6.201   4.104   7.303
19541TIP3    H258509   6.142   4.112   7.442
19542TIP3   OH258510   6.829   4.207   7.610
19542TIP3    H158511   6.883   4.261   7.549
19542TIP3    H258512   6.840   4.258   7.691
19543TIP3   OH258513   7.394   4.349   7.583
19543TIP3    H158514   7.364   4.317   7.497
19543TIP3    H258515   7.367   4.275   7.643
19544TIP3   OH258516   7.403   4.280   7.154
19544TIP3    H158517   7.318   4.325   7.168
19544TIP3    H258518   7.387   4.195   7.200
19545TIP3   OH258519   5.887   5.619   7.153
19545TIP3    H158520   5.802   5.583   7.120
19545TIP3    H258521   5.873   5.713   7.131
19546TIP3   OH258522   6.287   4.206   7.140
19546TIP3    H158523   6.337   4.146   7.082
19546TIP3    H258524   6.359   4.262   7.176
19547TIP3   OH258525   6.803   4.377   7.238
19547TIP3    H158526   6.861   4.337   7.304
19547TIP3    H258527   6.819   4.472   7.258
19548TIP3   OH258528   6.659   5.811   6.737
19548TIP3    H158529   6.749   5.829   6.702
19548TIP3    H258530   6.636   5.735   6.679
19549TIP3   OH258531   7.376   5.924   6.831
19549TIP3    H158532   7.368   5.826   6.819
19549TIP3    H258533   7.334   5.955   6.748
19550TIP3   OH258534   6.590   4.458   8.620
19550TIP3    H158535   6.557   4.387   8.677
19550TIP3    H258536   6.685   4.459   8.645
19551TIP3   OH258537   6.840   4.456   8.739
19551TIP3    H158538   6.924   4.432   8.696
19551TIP3    H258539   6.830   4.384   8.804
19552TIP3   OH258540   5.966   5.647   6.794
19552TIP3    H158541   5.963   5.663   6.889
19552TIP3    H258542   6.052   5.602   6.783
19553TIP3   OH258543   7.666   4.518   8.526
19553TIP3    H158544   7.685   4.485   8.617
19553TIP3    H258545   7.754   4.512   8.484
19554TIP3   OH258546   7.603   6.069   8.020
19554TIP3    H158547   7.525   6.037   7.969
19554TIP3    H258548   7.584   6.165   8.022
19555TIP3   OH258549   8.861   5.437   6.776
19555TIP3    H158550   8.857   5.533   6.754
19555TIP3    H258551   8.769   5.423   6.796
19556TIP3   OH258552   8.873   5.435   7.162
19556TIP3    H158553   8.904   5.417   7.253
19556TIP3    H258554   8.825   5.353   7.141
19557TIP3   OH258555   8.170   5.336   7.529
19557TIP3    H158556   8.201   5.268   7.592
19557TIP3    H258557   8.245   5.396   7.528
19558TIP3   OH258558   9.111   5.740   6.848
19558TIP3    H158559   9.102   5.676   6.919
19558TIP3    H258560   9.139   5.820   6.896
19559TIP3   OH258561   8.140   5.748   7.260
19559TIP3    H158562   8.132   5.650   7.261
19559TIP3    H258563   8.236   5.756   7.244
19560TIP3   OH258564   7.849   4.951   7.039
19560TIP3    H158565   7.799   5.033   7.055
19560TIP3    H258566   7.777   4.895   7.003
19561TIP3   OH258567   7.907   5.239   7.212
19561TIP3    H158568   7.955   5.161   7.248
19561TIP3    H258569   7.970   5.272   7.146
19562TIP3   OH258570   8.759   6.204   6.862
19562TIP3    H158571   8.811   6.136   6.815
19562TIP3    H258572   8.756   6.170   6.951
19563TIP3   OH258573   8.667   5.667   7.216
19563TIP3    H158574   8.705   5.593   7.166
19563TIP3    H258575   8.751   5.712   7.241
19564TIP3   OH258576   9.680   4.987   7.210
19564TIP3    H158577   9.709   5.069   7.254
19564TIP3    H258578   9.706   5.005   7.118
19565TIP3   OH258579   9.082   5.169   7.247
19565TIP3    H158580   9.124   5.083   7.267
19565TIP3    H258581   9.050   5.153   7.156
19566TIP3   OH258582   8.419   4.826   7.211
19566TIP3    H158583   8.397   4.900   7.151
19566TIP3    H258584   8.370   4.753   7.167
19567TIP3   OH258585   9.112   4.922   6.832
19567TIP3    H158586   9.183   4.904   6.898
19567TIP3    H258587   9.166   4.955   6.758
19568TIP3   OH258588   8.051   5.030   7.317
19568TIP3    H158589   8.134   5.010   7.365
19568TIP3    H258590   8.063   4.974   7.238
19569TIP3   OH258591   8.504   5.231   7.093
19569TIP3    H158592   8.593   5.200   7.120
19569TIP3    H258593   8.456   5.147   7.078
19570TIP3   OH258594   9.752   5.193   7.382
19570TIP3    H158595   9.669   5.242   7.366
19570TIP3    H258596   9.782   5.233   7.466
19571TIP3   OH258597   8.415   4.811   7.645
19571TIP3    H158598   8.355   4.848   7.579
19571TIP3    H258599   8.364   4.828   7.727
19572TIP3   OH258600   8.764   5.663   6.651
19572TIP3    H158601   8.724   5.652   6.564
19572TIP3    H258602   8.721   5.748   6.678
19573TIP3   OH258603   8.520   5.586   7.441
19573TIP3    H158604   8.458   5.653   7.479
19573TIP3    H258605   8.562   5.636   7.368
19574TIP3   OH258606   9.321   4.922   7.005
19574TIP3    H158607   9.311   4.874   7.088
19574TIP3    H258608   9.376   4.998   7.032
19575TIP3   OH258609   8.286   4.927   7.430
19575TIP3    H158610   8.348   4.999   7.453
19575TIP3    H258611   8.336   4.885   7.355
19576TIP3   OH258612   8.349   5.780   7.539
19576TIP3    H158613   8.323   5.865   7.498
19576TIP3    H258614   8.270   5.765   7.596
19577TIP3   OH258615   7.746   5.469   6.775
19577TIP3    H158616   7.704   5.500   6.693
19577TIP3    H258617   7.777   5.552   6.816
19578TIP3   OH258618   9.180   5.983   7.011
19578TIP3    H158619   9.091   5.974   7.053
19578TIP3    H258620   9.171   6.070   6.968
19579TIP3   OH258621   9.474   4.887   7.376
19579TIP3    H158622   9.387   4.917   7.345
19579TIP3    H258623   9.534   4.920   7.306
19580TIP3   OH258624   8.771   4.530   7.360
19580TIP3    H158625   8.758   4.435   7.378
19580TIP3    H258626   8.694   4.568   7.406
19581TIP3   OH258627   8.896   6.035   6.697
19581TIP3    H158628   8.941   5.952   6.671
19581TIP3    H258629   8.953   6.100   6.650
19582TIP3   OH258630   9.030   5.817   6.594
19582TIP3    H158631   8.987   5.739   6.556
19582TIP3    H258632   9.064   5.782   6.679
19583TIP3   OH258633   9.408   5.901   7.363
19583TIP3    H158634   9.400   5.822   7.305
19583TIP3    H258635   9.388   5.974   7.300
19584TIP3   OH258636   8.663   5.080   6.340
19584TIP3    H158637   8.731   5.136   6.381
19584TIP3    H258638   8.719   5.016   6.292
19585TIP3   OH258639   9.609   5.541   7.204
19585TIP3    H158640   9.524   5.591   7.211
19585TIP3    H258641   9.633   5.562   7.111
19586TIP3   OH258642   9.049   5.375   6.586
19586TIP3    H158643   8.992   5.398   6.663
19586TIP3    H258644   9.133   5.350   6.630
19587TIP3   OH258645   9.283   5.414   7.498
19587TIP3    H158646   9.281   5.499   7.546
19587TIP3    H258647   9.196   5.418   7.453
19588TIP3   OH258648   8.250   5.337   7.032
19588TIP3    H158649   8.237   5.354   6.938
19588TIP3    H258650   8.346   5.323   7.039
19589TIP3   OH258651   8.406   5.780   7.143
19589TIP3    H158652   8.389   5.731   7.061
19589TIP3    H258653   8.496   5.749   7.165
19590TIP3   OH258654   8.426   5.342   7.356
19590TIP3    H158655   8.449   5.333   7.262
19590TIP3    H258656   8.461   5.430   7.379
19591TIP3   OH258657   8.942   5.982   7.136
19591TIP3    H158658   8.927   6.064   7.187
19591TIP3    H258659   8.926   5.911   7.201
19592TIP3   OH258660   8.554   5.902   7.682
19592TIP3    H158661   8.494   5.964   7.729
19592TIP3    H258662   8.488   5.849   7.632
19593TIP3   OH258663   8.894   5.223   6.414
19593TIP3    H158664   8.941   5.292   6.466
19593TIP3    H258665   8.916   5.252   6.322
19594TIP3   OH258666   8.309   5.457   7.783
19594TIP3    H158667   8.314   5.544   7.827
19594TIP3    H258668   8.214   5.437   7.794
19595TIP3   OH258669   8.643   5.907   6.679
19595TIP3    H158670   8.707   5.974   6.706
19595TIP3    H258671   8.565   5.959   6.656
19596TIP3   OH258672   8.349   6.073   7.769
19596TIP3    H158673   8.315   6.071   7.678
19596TIP3    H258674   8.269   6.050   7.822
19597TIP3   OH258675   9.404   4.474   6.461
19597TIP3    H158676   9.323   4.495   6.512
19597TIP3    H258677   9.418   4.558   6.412
19598TIP3   OH258678   8.171   5.207   6.771
19598TIP3    H158679   8.099   5.263   6.735
19598TIP3    H258680   8.120   5.145   6.825
19599TIP3   OH258681   9.202   5.838   6.006
19599TIP3    H158682   9.203   5.930   5.977
19599TIP3    H258683   9.296   5.811   5.996
19600TIP3   OH258684   7.928   5.600   7.715
19600TIP3    H158685   7.862   5.578   7.646
19600TIP3    H258686   7.965   5.512   7.739
19601TIP3   OH258687   7.783   5.792   7.350
19601TIP3    H158688   7.878   5.783   7.335
19601TIP3    H258689   7.779   5.871   7.405
19602TIP3   OH258690   8.754   6.026   7.539
19602TIP3    H158691   8.750   6.121   7.566
19602TIP3    H258692   8.682   5.988   7.594
19603TIP3   OH258693   8.513   6.163   6.488
19603TIP3    H158694   8.464   6.144   6.406
19603TIP3    H258695   8.480   6.251   6.513
19604TIP3   OH258696   7.948   6.007   6.878
19604TIP3    H158697   8.001   5.998   6.960
19604TIP3    H258698   7.900   5.923   6.880
19605TIP3   OH258699   8.712   6.060   6.130
19605TIP3    H158700   8.773   5.991   6.095
19605TIP3    H258701   8.747   6.072   6.221
19606TIP3   OH258702   8.763   6.106   6.400
19606TIP3    H158703   8.675   6.116   6.443
19606TIP3    H258704   8.815   6.067   6.472
19607TIP3   OH258705   9.546   5.382   7.670
19607TIP3    H158706   9.462   5.394   7.622
19607TIP3    H258707   9.558   5.285   7.664
19608TIP3   OH258708   8.133   5.783   7.705
19608TIP3    H158709   8.183   5.765   7.787
19608TIP3    H258710   8.059   5.720   7.712
19609TIP3   OH258711   8.532   4.608   7.487
19609TIP3    H158712   8.443   4.576   7.461
19609TIP3    H258713   8.507   4.688   7.535
19610TIP3   OH258714   9.066   4.722   7.683
19610TIP3    H158715   9.133   4.692   7.748
19610TIP3    H258716   8.981   4.702   7.729
19611TIP3   OH258717   9.304   5.151   7.601
19611TIP3    H158718   9.254   5.149   7.685
19611TIP3    H258719   9.280   5.238   7.564
19612TIP3   OH258720   8.962   5.279   6.157
19612TIP3    H158721   8.931   5.254   6.068
19612TIP3    H258722   9.043   5.329   6.135
19613TIP3   OH258723   8.679   4.655   6.461
19613TIP3    H158724   8.643   4.651   6.552
19613TIP3    H258725   8.639   4.574   6.424
19614TIP3   OH258726   8.465   5.121   7.507
19614TIP3    H158727   8.414   5.143   7.587
19614TIP3    H258728   8.451   5.202   7.453
19615TIP3   OH258729   8.349   5.008   7.025
19615TIP3    H158730   8.255   4.983   7.042
19615TIP3    H258731   8.359   4.982   6.931
19616TIP3   OH258732   8.834   5.098   6.734
19616TIP3    H158733   8.816   5.182   6.689
19616TIP3    H258734   8.894   5.055   6.670
19617TIP3   OH258735   9.011   5.372   7.835
19617TIP3    H158736   8.988   5.300   7.898
19617TIP3    H258737   9.106   5.384   7.854
19618TIP3   OH258738   8.996   5.121   6.989
19618TIP3    H158739   8.938   5.156   6.918
19618TIP3    H258740   9.029   5.041   6.944
19619TIP3   OH258741   8.284   5.151   7.715
19619TIP3    H158742   8.309   5.214   7.784
19619TIP3    H258743   8.271   5.069   7.767
19620TIP3   OH258744   8.335   4.630   6.423
19620TIP3    H158745   8.323   4.623   6.520
19620TIP3    H258746   8.256   4.680   6.398
19621TIP3   OH258747   7.876   4.675   7.294
19621TIP3    H158748   7.952   4.704   7.348
19621TIP3    H258749   7.916   4.638   7.214
19622TIP3   OH258750   7.851   4.656   6.815
19622TIP3    H158751   7.893   4.695   6.736
19622TIP3    H258752   7.787   4.727   6.837
19623TIP3   OH258753   9.006   5.369   7.409
19623TIP3    H158754   9.039   5.297   7.351
19623TIP3    H258755   8.975   5.317   7.486
19624TIP3   OH258756   8.673   4.834   7.081
19624TIP3    H158757   8.592   4.830   7.135
19624TIP3    H258758   8.742   4.828   7.149
19625TIP3   OH258759   8.109   4.886   7.087
19625TIP3    H158760   8.014   4.897   7.063
19625TIP3    H258761   8.126   4.792   7.069
19626TIP3   OH258762   8.395   4.957   6.755
19626TIP3    H158763   8.477   4.903   6.751
19626TIP3    H258764   8.337   4.915   6.688
19627TIP3   OH258765   9.167   4.906   7.283
19627TIP3    H158766   9.133   4.918   7.375
19627TIP3    H258767   9.101   4.845   7.247
19628TIP3   OH258768   8.224   4.904   6.557
19628TIP3    H158769   8.149   4.864   6.509
19628TIP3    H258770   8.271   4.947   6.482
19629TIP3   OH258771   8.294   5.704   7.925
19629TIP3    H158772   8.375   5.730   7.973
19629TIP3    H258773   8.230   5.704   7.999
19630TIP3   OH258774   8.760   5.158   7.182
19630TIP3    H158775   8.834   5.116   7.135
19630TIP3    H258776   8.765   5.116   7.270
19631TIP3   OH258777   8.284   4.642   7.055
19631TIP3    H158778   8.243   4.570   7.107
19631TIP3    H258779   8.340   4.592   6.995
19632TIP3   OH258780   8.735   5.057   7.466
19632TIP3    H158781   8.645   5.091   7.482
19632TIP3    H258782   8.791   5.117   7.519
19633TIP3   OH258783   8.456   5.378   6.582
19633TIP3    H158784   8.397   5.424   6.521
19633TIP3    H258785   8.450   5.444   6.655
19634TIP3   OH258786   9.372   5.680   7.197
19634TIP3    H158787   9.397   5.731   7.116
19634TIP3    H258788   9.286   5.640   7.170
19635TIP3   OH258789   8.930   4.758   6.426
19635TIP3    H158790   8.833   4.740   6.435
19635TIP3    H258791   8.939   4.852   6.451
19636TIP3   OH258792   8.871   5.763   7.562
19636TIP3    H158793   8.890   5.744   7.654
19636TIP3    H258794   8.833   5.853   7.566
19637TIP3   OH258795   9.001   5.002   6.533
19637TIP3    H158796   9.098   5.010   6.547
19637TIP3    H258797   8.980   5.081   6.480
19638TIP3   OH258798   8.162   5.472   7.252
19638TIP3    H158799   8.188   5.435   7.165
19638TIP3    H258800   8.195   5.404   7.312
19639TIP3   OH258801   8.615   5.594   6.384
19639TIP3    H158802   8.568   5.680   6.390
19639TIP3    H258803   8.568   5.541   6.450
19640TIP3   OH258804   8.045   5.388   7.853
19640TIP3    H158805   8.064   5.374   7.948
19640TIP3    H258806   7.975   5.322   7.837
19641TIP3   OH258807   8.769   5.503   7.872
19641TIP3    H158808   8.708   5.444   7.825
19641TIP3    H258809   8.856   5.468   7.843
19642TIP3   OH258810   9.032   6.017   7.457
19642TIP3    H158811   8.936   6.021   7.471
19642TIP3    H258812   9.065   6.070   7.532
19643TIP3   OH258813   9.441   5.096   6.366
19643TIP3    H158814   9.379   5.051   6.304
19643TIP3    H258815   9.438   5.185   6.325
19644TIP3   OH258816   9.663   5.941   7.453
19644TIP3    H158817   9.566   5.948   7.439
19644TIP3    H258818   9.689   5.917   7.362
19645TIP3   OH258819   9.140   5.910   6.272
19645TIP3    H158820   9.114   5.845   6.339
19645TIP3    H258821   9.151   5.857   6.192
19646TIP3   OH258822   9.137   5.544   7.111
19646TIP3    H158823   9.044   5.518   7.125
19646TIP3    H258824   9.172   5.464   7.067
19647TIP3   OH258825   7.830   5.077   6.572
19647TIP3    H158826   7.873   5.162   6.593
19647TIP3    H258827   7.751   5.081   6.630
19648TIP3   OH258828   8.533   6.115   7.334
19648TIP3    H158829   8.574   6.187   7.282
19648TIP3    H258830   8.610   6.081   7.382
19649TIP3   OH258831   8.167   6.028   6.687
19649TIP3    H158832   8.099   6.013   6.755
19649TIP3    H258833   8.200   6.117   6.710
19650TIP3   OH258834   8.922   5.747   7.293
19650TIP3    H158835   8.912   5.748   7.391
19650TIP3    H258836   9.004   5.699   7.282
19651TIP3   OH258837   8.897   5.641   6.175
19651TIP3    H158838   8.950   5.616   6.254
19651TIP3    H258839   8.808   5.617   6.205
19652TIP3   OH258840   9.162   6.290   7.353
19652TIP3    H158841   9.085   6.235   7.331
19652TIP3    H258842   9.159   6.356   7.280
19653TIP3   OH258843   8.256   4.894   7.861
19653TIP3    H158844   8.159   4.897   7.873
19653TIP3    H258845   8.282   4.834   7.932
19654TIP3   OH258846   9.057   5.575   6.391
19654TIP3    H158847   9.047   5.508   6.461
19654TIP3    H258848   9.155   5.574   6.380
19655TIP3   OH258849   7.970   5.979   7.494
19655TIP3    H158850   8.024   5.902   7.519
19655TIP3    H258851   8.004   6.045   7.556
19656TIP3   OH258852   8.262   5.625   6.180
19656TIP3    H158853   8.276   5.533   6.151
19656TIP3    H258854   8.252   5.613   6.277
19657TIP3   OH258855   8.225   5.623   6.458
19657TIP3    H158856   8.249   5.614   6.554
19657TIP3    H258857   8.221   5.721   6.453
19658TIP3   OH258858   7.949   5.325   6.652
19658TIP3    H158859   7.883   5.365   6.712
19658TIP3    H258860   7.960   5.398   6.588
19659TIP3   OH258861   9.093   4.957   7.542
19659TIP3    H158862   9.174   4.994   7.582
19659TIP3    H258863   9.079   4.877   7.596
19660TIP3   OH258864   8.971   4.712   6.708
19660TIP3    H158865   8.960   4.734   6.613
19660TIP3    H258866   9.012   4.793   6.743
19661TIP3   OH258867   8.477   5.825   6.390
19661TIP3    H158868   8.391   5.841   6.434
19661TIP3    H258869   8.487   5.908   6.340
19662TIP3   OH258870   8.665   4.888   6.810
19662TIP3    H158871   8.727   4.961   6.791
19662TIP3    H258872   8.670   4.882   6.908
19663TIP3   OH258873   8.932   5.208   7.617
19663TIP3    H158874   8.950   5.262   7.696
19663TIP3    H258875   8.985   5.128   7.632
19664TIP3   OH258876   8.807   4.615   6.912
19664TIP3    H158877   8.807   4.689   6.976
19664TIP3    H258878   8.867   4.651   6.843
19665TIP3   OH258879   8.215   5.895   6.454
19665TIP3    H158880   8.185   5.970   6.398
19665TIP3    H258881   8.199   5.934   6.543
19666TIP3   OH258882   8.316   4.607   6.698
19666TIP3    H158883   8.300   4.689   6.746
19666TIP3    H258884   8.413   4.596   6.708
19667TIP3   OH258885   9.571   5.108   7.602
19667TIP3    H158886   9.472   5.106   7.606
19667TIP3    H258887   9.585   5.074   7.512
19668TIP3   OH258888   9.223   5.302   6.987
19668TIP3    H158889   9.148   5.242   7.002
19668TIP3    H258890   9.296   5.256   7.034
19669TIP3   OH258891   7.936   5.534   6.460
19669TIP3    H158892   7.999   5.606   6.476
19669TIP3    H258893   7.983   5.485   6.389
19670TIP3   OH258894   7.882   4.807   6.589
19670TIP3    H158895   7.876   4.905   6.587
19670TIP3    H258896   7.799   4.781   6.547
19671TIP3   OH258897   9.184   6.250   6.933
19671TIP3    H158898   9.141   6.304   6.863
19671TIP3    H258899   9.276   6.251   6.902
19672TIP3   OH258900   8.269   4.526   7.462
19672TIP3    H158901   8.236   4.492   7.377
19672TIP3    H258902   8.258   4.448   7.521
19673TIP3   OH258903   7.802   5.743   6.850
19673TIP3    H158904   7.722   5.782   6.886
19673TIP3    H258905   7.800   5.778   6.759
19674TIP3   OH258906   7.964   6.284   7.913
19674TIP3    H158907   8.052   6.283   7.958
19674TIP3    H258908   7.944   6.189   7.910
19675TIP3   OH258909   8.454   6.254   7.956
19675TIP3    H158910   8.542   6.215   7.969
19675TIP3    H258911   8.421   6.198   7.883
19676TIP3   OH258912   8.423   5.827   6.084
19676TIP3    H158913   8.368   5.758   6.127
19676TIP3    H258914   8.501   5.774   6.059
19677TIP3   OH258915   9.112   6.139   7.692
19677TIP3    H158916   9.067   6.081   7.758
19677TIP3    H258917   9.154   6.203   7.751
19678TIP3   OH258918   8.860   5.867   5.998
19678TIP3    H158919   8.906   5.805   6.057
19678TIP3    H258920   8.916   5.867   5.918
19679TIP3   OH258921   8.092   5.692   8.116
19679TIP3    H158922   8.110   5.597   8.119
19679TIP3    H258923   8.005   5.695   8.070
19680TIP3   OH258924   8.063   5.351   6.298
19680TIP3    H158925   8.104   5.294   6.365
19680TIP3    H258926   8.134   5.355   6.231
19681TIP3   OH258927   8.703   5.780   7.887
19681TIP3    H158928   8.659   5.796   7.801
19681TIP3    H258929   8.731   5.686   7.880
19682TIP3   OH258930   8.580   5.544   6.115
19682TIP3    H158931   8.584   5.557   6.212
19682TIP3    H258932   8.580   5.446   6.110
19683TIP3   OH258933   9.192   5.785   7.496
19683TIP3    H158934   9.266   5.829   7.450
19683TIP3    H258935   9.121   5.851   7.483
19684TIP3   OH258936   8.212   5.427   8.097
19684TIP3    H158937   8.289   5.373   8.074
19684TIP3    H258938   8.239   5.461   8.185
19685TIP3   OH258939   8.549   5.313   7.760
19685TIP3    H158940   8.470   5.371   7.761
19685TIP3    H258941   8.597   5.346   7.681
19686TIP3   OH258942   8.382   5.048   6.382
19686TIP3    H158943   8.353   5.052   6.289
19686TIP3    H258944   8.480   5.053   6.370
19687TIP3   OH258945   9.067   5.715   7.891
19687TIP3    H158946   9.144   5.685   7.842
19687TIP3    H258947   9.058   5.649   7.961
19688TIP3   OH258948   9.202   5.371   6.034
19688TIP3    H158949   9.179   5.325   5.951
19688TIP3    H258950   9.169   5.461   6.012
19689TIP3   OH258951   8.673   5.101   7.884
19689TIP3    H158952   8.671   5.020   7.829
19689TIP3    H258953   8.627   5.167   7.827
19690TIP3   OH258954   8.674   4.887   7.692
19690TIP3    H158955   8.700   4.927   7.607
19690TIP3    H258956   8.580   4.864   7.674
19691TIP3   OH258957   8.701   5.422   7.565
19691TIP3    H158958   8.784   5.434   7.517
19691TIP3    H258959   8.643   5.488   7.522
19692TIP3   OH258960   9.297   5.386   7.962
19692TIP3    H158961   9.338   5.302   7.937
19692TIP3    H258962   9.359   5.450   7.924
19693TIP3   OH258963   9.322   5.639   7.681
19693TIP3    H158964   9.264   5.693   7.623
19693TIP3    H258965   9.410   5.660   7.640
19694TIP3   OH258966   8.547   5.210   8.115
19694TIP3    H158967   8.480   5.141   8.129
19694TIP3    H258968   8.582   5.186   8.027
19695TIP3   OH258969   8.806   4.649   7.757
19695TIP3    H158970   8.755   4.731   7.736
19695TIP3    H258971   8.736   4.581   7.748
19696TIP3   OH258972   8.932   5.154   7.976
19696TIP3    H158973   8.915   5.142   8.071
19696TIP3    H258974   8.842   5.130   7.942
19697TIP3   OH258975   9.173   5.109   7.833
19697TIP3    H158976   9.094   5.106   7.892
19697TIP3    H258977   9.242   5.073   7.892
19698TIP3   OH258978   9.392   5.044   7.995
19698TIP3    H158979   9.406   4.947   8.005
19698TIP3    H258980   9.392   5.075   8.087
19699TIP3   OH258981   8.389   4.991   8.168
19699TIP3    H158982   8.393   4.900   8.134
19699TIP3    H258983   8.425   4.978   8.258
19700TIP3   OH258984   8.903   4.663   8.014
19700TIP3    H158985   8.967   4.589   8.012
19700TIP3    H258986   8.861   4.654   7.927
19701TIP3   OH258987   8.969   4.878   8.173
19701TIP3    H158988   8.947   4.805   8.110
19701TIP3    H258989   8.889   4.934   8.168
19702TIP3   OH258990   8.186   6.108   6.273
19702TIP3    H158991   8.281   6.098   6.258
19702TIP3    H258992   8.161   6.157   6.193
19703TIP3   OH258993   7.666   5.486   6.489
19703TIP3    H158994   7.761   5.507   6.478
19703TIP3    H258995   7.660   5.397   6.450
19704TIP3   OH258996   7.579   6.099   6.906
19704TIP3    H158997   7.513   6.035   6.871
19704TIP3    H258998   7.625   6.043   6.972
19705TIP3   OH258999   7.711   5.954   7.095
19705TIP3    H159000   7.708   5.874   7.150
19705TIP3    H259001   7.768   6.011   7.150
19706TIP3   OH259002   9.449   6.282   6.873
19706TIP3    H159003   9.474   6.325   6.956
19706TIP3    H259004   9.476   6.350   6.809
19707TIP3   OH259005   9.493   6.344   7.158
19707TIP3    H159006   9.438   6.263   7.152
19707TIP3    H259007   9.515   6.340   7.252
19708TIP3   OH259008   9.337   5.559   6.367
19708TIP3    H159009   9.404   5.624   6.339
19708TIP3    H259010   9.380   5.520   6.446
19709TIP3   OH259011   9.464   5.426   6.571
19709TIP3    H159012   9.398   5.385   6.631
19709TIP3    H259013   9.528   5.465   6.634
19710TIP3   OH259014   9.519   5.812   7.007
19710TIP3    H159015   9.571   5.749   6.955
19710TIP3    H259016   9.522   5.892   6.950
19711TIP3   OH259017   9.339   6.114   7.202
19711TIP3    H159018   9.269   6.158   7.253
19711TIP3    H259019   9.289   6.068   7.132
19712TIP3   OH259020   9.402   5.334   6.218
19712TIP3    H159021   9.331   5.336   6.150
19712TIP3    H259022   9.375   5.410   6.273
19713TIP3   OH259023   9.274   5.007   6.172
19713TIP3    H159024   9.229   5.046   6.096
19713TIP3    H259025   9.248   4.912   6.162
19714TIP3   OH259026   9.277   5.283   6.718
19714TIP3    H159027   9.287   5.187   6.712
19714TIP3    H259028   9.264   5.297   6.814
19715TIP3   OH259029   7.904   5.356   7.465
19715TIP3    H159030   7.901   5.325   7.372
19715TIP3    H259031   8.001   5.357   7.480
19716TIP3   OH259032   9.561   5.707   7.573
19716TIP3    H159033   9.642   5.653   7.580
19716TIP3    H259034   9.596   5.788   7.531
19717TIP3   OH259035   9.763   5.526   7.593
19717TIP3    H159036   9.684   5.475   7.620
19717TIP3    H259037   9.831   5.457   7.610
19718TIP3   OH259038   9.216   4.741   6.157
19718TIP3    H159039   9.291   4.711   6.213
19718TIP3    H259040   9.143   4.682   6.182
19719TIP3   OH259041   9.275   4.998   6.613
19719TIP3    H159042   9.316   4.910   6.627
19719TIP3    H259043   9.333   5.032   6.542
19720TIP3   OH259044   9.436   5.173   7.107
19720TIP3    H159045   9.522   5.199   7.067
19720TIP3    H259046   9.450   5.210   7.197
19721TIP3   OH259047   9.505   5.319   7.340
19721TIP3    H159048   9.426   5.352   7.387
19721TIP3    H259049   9.537   5.400   7.295
19722TIP3   OH259050   8.122   5.045   8.143
19722TIP3    H159051   8.220   5.036   8.142
19722TIP3    H259052   8.098   4.958   8.180
19723TIP3   OH259053  10.005   4.943   7.869
19723TIP3    H159054  10.020   4.851   7.841
19723TIP3    H259055   9.940   4.975   7.803
19724TIP3   OH259056   9.383   4.748   6.650
19724TIP3    H159057   9.432   4.733   6.734
19724TIP3    H259058   9.323   4.671   6.649
19725TIP3   OH259059   8.084   4.734   7.466
19725TIP3    H159060   8.146   4.659   7.479
19725TIP3    H259061   8.145   4.809   7.463
19726TIP3   OH259062   7.888   5.009   7.544
19726TIP3    H159063   7.934   5.003   7.459
19726TIP3    H259064   7.915   5.096   7.575
19727TIP3   OH259065   9.814   5.036   7.703
19727TIP3    H159066   9.728   5.083   7.702
19727TIP3    H259067   9.792   4.966   7.639
19728TIP3   OH259068   9.463   4.684   6.283
19728TIP3    H159069   9.503   4.612   6.230
19728TIP3    H259070   9.531   4.754   6.278
19729TIP3   OH259071   7.870   4.514   7.045
19729TIP3    H159072   7.776   4.508   7.072
19729TIP3    H259073   7.865   4.572   6.966
19730TIP3   OH259074   9.027   6.216   6.547
19730TIP3    H159075   9.082   6.202   6.467
19730TIP3    H259076   9.078   6.285   6.594
19731TIP3   OH259077   8.090   4.593   7.859
19731TIP3    H159078   8.038   4.586   7.941
19731TIP3    H259079   8.023   4.631   7.798
19732TIP3   OH259080   8.129   6.024   7.934
19732TIP3    H159081   8.037   5.992   7.920
19732TIP3    H259082   8.146   5.999   8.025
19733TIP3   OH259083   8.307   6.053   7.483
19733TIP3    H159084   8.260   6.129   7.443
19733TIP3    H259085   8.393   6.065   7.439
19734TIP3   OH259086   8.749   6.295   7.605
19734TIP3    H159087   8.784   6.291   7.697
19734TIP3    H259088   8.820   6.347   7.561
19735TIP3   OH259089   8.945   6.447   7.482
19735TIP3    H159090   9.003   6.388   7.431
19735TIP3    H259091   8.999   6.528   7.483
19736TIP3   OH259092   9.725   4.806   7.577
19736TIP3    H159093   9.633   4.798   7.544
19736TIP3    H259094   9.757   4.714   7.565
19737TIP3   OH259095   7.983   6.311   7.504
19737TIP3    H159096   7.894   6.346   7.483
19737TIP3    H259097   7.993   6.342   7.594
19738TIP3   OH259098   8.220   6.288   7.364
19738TIP3    H159099   8.133   6.301   7.408
19738TIP3    H259100   8.201   6.319   7.274
19739TIP3   OH259101   8.645   6.312   7.159
19739TIP3    H159102   8.577   6.335   7.094
19739TIP3    H259103   8.659   6.399   7.204
19740TIP3   OH259104   8.915   6.253   7.217
19740TIP3    H159105   8.823   6.275   7.193
19740TIP3    H259106   8.964   6.325   7.174
19741TIP3   OH259107   9.111   6.439   7.132
19741TIP3    H159108   9.109   6.531   7.097
19741TIP3    H259109   9.144   6.389   7.055
19742TIP3   OH259110   7.893   6.102   7.253
19742TIP3    H159111   7.922   6.077   7.343
19742TIP3    H259112   7.965   6.060   7.201
19743TIP3   OH259113   8.088   5.977   7.111
19743TIP3    H159114   8.104   5.891   7.154
19743TIP3    H259115   8.179   6.012   7.104
19744TIP3   OH259116   8.356   6.072   7.109
19744TIP3    H159117   8.386   5.981   7.091
19744TIP3    H259118   8.401   6.088   7.194
19745TIP3   OH259119   8.927   4.723   7.193
19745TIP3    H159120   8.886   4.655   7.249
19745TIP3    H259121   9.003   4.675   7.154
19746TIP3   OH259122   9.454   4.605   7.103
19746TIP3    H159123   9.490   4.657   7.029
19746TIP3    H259124   9.358   4.624   7.097
19747TIP3   OH259125   9.548   4.706   6.868
19747TIP3    H159126   9.621   4.654   6.828
19747TIP3    H259127   9.582   4.798   6.852
19748TIP3   OH259128   8.180   4.435   7.213
19748TIP3    H159129   8.088   4.402   7.215
19748TIP3    H259130   8.228   4.350   7.210
19749TIP3   OH259131   7.968   4.304   6.863
19749TIP3    H159132   7.994   4.362   6.790
19749TIP3    H259133   7.936   4.368   6.930
19750TIP3   OH259134   8.621   4.468   7.094
19750TIP3    H159135   8.682   4.517   7.037
19750TIP3    H259136   8.643   4.503   7.181
19751TIP3   OH259137   9.170   4.613   7.079
19751TIP3    H159138   9.169   4.574   6.991
19751TIP3    H259139   9.157   4.533   7.135
19752TIP3   OH259140   9.200   4.535   6.641
19752TIP3    H159141   9.112   4.576   6.652
19752TIP3    H259142   9.186   4.450   6.688
19753TIP3   OH259143   7.682   5.873   6.642
19753TIP3    H159144   7.597   5.841   6.607
19753TIP3    H259145   7.672   5.968   6.628
19754TIP3   OH259146   8.082   4.461   6.625
19754TIP3    H159147   8.128   4.398   6.567
19754TIP3    H259148   8.156   4.513   6.660
19755TIP3   OH259149   8.591   4.641   6.727
19755TIP3    H159150   8.648   4.586   6.783
19755TIP3    H259151   8.625   4.730   6.752
19756TIP3   OH259152   8.453   6.062   6.223
19756TIP3    H159153   8.542   6.084   6.190
19756TIP3    H259154   8.432   5.987   6.164
19757TIP3   OH259155   9.183   6.174   6.325
19757TIP3    H159156   9.166   6.079   6.307
19757TIP3    H259157   9.137   6.215   6.248
19758TIP3   OH259158   8.387   4.716   8.108
19758TIP3    H159159   8.353   4.644   8.163
19758TIP3    H259160   8.482   4.715   8.135
19759TIP3   OH259161   8.638   4.713   8.226
19759TIP3    H159162   8.721   4.681   8.187
19759TIP3    H259163   8.623   4.644   8.295
19760TIP3   OH259164   7.760   5.903   6.282
19760TIP3    H159165   7.761   5.921   6.377
19760TIP3    H259166   7.847   5.861   6.268
19761TIP3   OH259167   9.460   4.778   8.007
19761TIP3    H159168   9.477   4.743   8.097
19761TIP3    H259169   9.548   4.770   7.965
19762TIP3   OH259170   9.967   5.574   6.996
19762TIP3    H159171   9.997   5.504   7.057
19762TIP3    H259172  10.006   5.652   7.039
19763TIP3   OH259173   9.934   6.004   6.753
19763TIP3    H159174   9.928   5.906   6.753
19763TIP3    H259175  10.028   6.015   6.731
19764TIP3   OH259176   9.642   5.206   6.526
19764TIP3    H159177   9.594   5.289   6.542
19764TIP3    H259178   9.571   5.152   6.487
19765TIP3   OH259179   9.701   5.494   6.698
19765TIP3    H159180   9.750   5.417   6.735
19765TIP3    H259181   9.760   5.522   6.627
19766TIP3   OH259182  10.400   5.925   6.666
19766TIP3    H159183  10.444   5.867   6.601
19766TIP3    H259184  10.466   5.929   6.737
19767TIP3   OH259185  10.197   5.087   6.709
19767TIP3    H159186  10.200   5.153   6.637
19767TIP3    H259187  10.167   5.008   6.660
19768TIP3   OH259188   9.844   5.287   6.803
19768TIP3    H159189   9.926   5.268   6.853
19768TIP3    H259190   9.861   5.232   6.724
19769TIP3   OH259191  10.251   5.503   6.578
19769TIP3    H159192  10.345   5.483   6.596
19769TIP3    H259193  10.217   5.414   6.553
19770TIP3   OH259194  10.199   5.066   7.133
19770TIP3    H159195  10.140   5.102   7.064
19770TIP3    H259196  10.145   5.084   7.212
19771TIP3   OH259197  10.268   5.843   6.942
19771TIP3    H159198  10.214   5.909   6.987
19771TIP3    H259199  10.348   5.895   6.918
19772TIP3   OH259200  10.067   5.181   6.922
19772TIP3    H159201  10.132   5.252   6.943
19772TIP3    H259202  10.114   5.140   6.845
19773TIP3   OH259203   9.540   5.726   6.261
19773TIP3    H159204   9.499   5.756   6.178
19773TIP3    H259205   9.570   5.812   6.299
19774TIP3   OH259206  10.050   5.649   6.475
19774TIP3    H159207  10.013   5.587   6.408
19774TIP3    H259208  10.126   5.596   6.509
19775TIP3   OH259209  10.176   6.062   6.623
19775TIP3    H159210  10.147   6.028   6.536
19775TIP3    H259211  10.255   6.004   6.640
19776TIP3   OH259212  10.243   5.590   6.846
19776TIP3    H159213  10.242   5.588   6.748
19776TIP3    H259214  10.249   5.685   6.866
19777TIP3   OH259215  10.020   5.755   7.198
19777TIP3    H159216  10.021   5.848   7.222
19777TIP3    H259217   9.948   5.718   7.253
19778TIP3   OH259218  10.403   6.203   6.205
19778TIP3    H159219  10.451   6.282   6.230
19778TIP3    H259220  10.340   6.239   6.139
19779TIP3   OH259221   9.942   5.469   6.287
19779TIP3    H159222   9.873   5.514   6.233
19779TIP3    H259223   9.898   5.386   6.308
19780TIP3   OH259224   9.719   5.852   7.201
19780TIP3    H159225   9.651   5.837   7.132
19780TIP3    H259226   9.743   5.761   7.226
19781TIP3   OH259227   9.587   6.032   6.853
19781TIP3    H159228   9.676   6.055   6.822
19781TIP3    H259229   9.546   6.120   6.866
19782TIP3   OH259230  10.315   6.400   5.991
19782TIP3    H159231  10.276   6.381   5.904
19782TIP3    H259232  10.273   6.486   6.013
19783TIP3   OH259233   9.746   6.267   6.357
19783TIP3    H159234   9.795   6.258   6.442
19783TIP3    H259235   9.674   6.204   6.372
19784TIP3   OH259236   9.906   6.048   7.193
19784TIP3    H159237   9.935   6.037   7.285
19784TIP3    H259238   9.835   5.980   7.188
19785TIP3   OH259239  10.315   4.858   6.989
19785TIP3    H159240  10.229   4.828   6.955
19785TIP3    H259241  10.289   4.942   7.030
19786TIP3   OH259242  10.261   5.358   6.977
19786TIP3    H159243  10.233   5.395   7.063
19786TIP3    H259244  10.256   5.439   6.922
19787TIP3   OH259245  10.143   5.262   6.504
19787TIP3    H159246  10.053   5.232   6.530
19787TIP3    H259247  10.147   5.230   6.412
19788TIP3   OH259248  10.060   5.396   7.202
19788TIP3    H159249  10.087   5.452   7.275
19788TIP3    H259250  10.051   5.309   7.245
19789TIP3   OH259251  10.116   4.907   5.914
19789TIP3    H159252  10.081   4.879   5.999
19789TIP3    H259253  10.037   4.935   5.865
19790TIP3   OH259254   9.672   4.929   6.781
19790TIP3    H159255   9.745   4.962   6.838
19790TIP3    H259256   9.716   4.898   6.702
19791TIP3   OH259257   9.645   4.911   6.303
19791TIP3    H159258   9.688   4.950   6.224
19791TIP3    H259259   9.583   4.984   6.325
19792TIP3   OH259260   9.905   5.145   6.575
19792TIP3    H159261   9.810   5.149   6.549
19792TIP3    H259262   9.929   5.052   6.557
19793TIP3   OH259263  10.156   5.167   6.245
19793TIP3    H159264  10.225   5.183   6.181
19793TIP3    H259265  10.077   5.173   6.185
19794TIP3   OH259266   9.989   5.175   6.037
19794TIP3    H159267   9.925   5.131   5.979
19794TIP3    H259268  10.056   5.202   5.970
19795TIP3   OH259269  10.073   4.905   6.538
19795TIP3    H159270  10.038   4.829   6.591
19795TIP3    H259271  10.132   4.861   6.476
19796TIP3   OH259272  10.235   5.715   6.046
19796TIP3    H159273  10.174   5.639   6.051
19796TIP3    H259274  10.249   5.738   6.140
19797TIP3   OH259275   9.964   5.730   6.733
19797TIP3    H159276   9.992   5.699   6.645
19797TIP3    H259277   9.992   5.658   6.792
19798TIP3   OH259278   9.828   5.632   7.349
19798TIP3    H159279   9.818   5.606   7.443
19798TIP3    H259280   9.759   5.576   7.308
19799TIP3   OH259281  10.061   6.029   6.356
19799TIP3    H159282  10.062   6.109   6.301
19799TIP3    H259283   9.966   6.011   6.358
19800TIP3   OH259284   9.624   5.333   6.054
19800TIP3    H159285   9.670   5.417   6.074
19800TIP3    H259286   9.548   5.337   6.115
19801TIP3   OH259287  10.229   5.807   6.320
19801TIP3    H159288  10.178   5.891   6.320
19801TIP3    H259289  10.171   5.752   6.376
19802TIP3   OH259290   9.979   6.260   6.203
19802TIP3    H159291   9.893   6.271   6.249
19802TIP3    H259292  10.013   6.352   6.208
19803TIP3   OH259293  10.041   5.149   7.343
19803TIP3    H159294   9.945   5.153   7.360
19803TIP3    H259295  10.072   5.095   7.418
19804TIP3   OH259296   9.781   6.236   6.991
19804TIP3    H159297   9.781   6.143   7.016
19804TIP3    H259298   9.832   6.275   7.063
19805TIP3   OH259299  10.064   5.876   5.661
19805TIP3    H159300  10.080   5.783   5.637
19805TIP3    H259301  10.046   5.869   5.757
19806TIP3   OH259302  10.009   5.881   5.932
19806TIP3    H159303  10.093   5.852   5.973
19806TIP3    H259304  10.012   5.978   5.946
19807TIP3   OH259305   9.738   5.578   6.137
19807TIP3    H159306   9.673   5.624   6.195
19807TIP3    H259307   9.753   5.648   6.071
19808TIP3   OH259308  10.265   6.107   5.891
19808TIP3    H159309  10.174   6.118   5.924
19808TIP3    H259310  10.274   6.185   5.835
19809TIP3   OH259311  10.001   6.157   5.950
19809TIP3    H159312   9.972   6.228   5.888
19809TIP3    H259313   9.986   6.199   6.037
19810TIP3   OH259314  10.116   4.878   6.194
19810TIP3    H159315  10.084   4.958   6.241
19810TIP3    H259316  10.198   4.914   6.154
19811TIP3   OH259317   9.730   5.790   5.946
19811TIP3    H159318   9.798   5.859   5.957
19811TIP3    H259319   9.775   5.735   5.878
19812TIP3   OH259320   9.675   5.063   6.079
19812TIP3    H159321   9.677   5.160   6.073
19812TIP3    H259322   9.593   5.042   6.032
19813TIP3   OH259323  10.050   4.783   6.951
19813TIP3    H159324  10.026   4.749   6.862
19813TIP3    H259325  10.048   4.703   7.006
19814TIP3   OH259326   9.597   5.989   6.327
19814TIP3    H159327   9.534   6.032   6.386
19814TIP3    H259328   9.581   6.039   6.244
19815TIP3   OH259329  10.208   6.094   5.575
19815TIP3    H159330  10.158   6.017   5.612
19815TIP3    H259331  10.300   6.062   5.588
19816TIP3   OH259332   9.863   5.601   5.801
19816TIP3    H159333   9.920   5.572   5.874
19816TIP3    H259334   9.929   5.609   5.729
19817TIP3   OH259335  10.069   5.497   6.022
19817TIP3    H159336  10.039   5.461   6.107
19817TIP3    H259337  10.102   5.417   5.976
19818TIP3   OH259338  10.323   5.537   7.185
19818TIP3    H159339  10.307   5.601   7.258
19818TIP3    H259340  10.323   5.595   7.108
19819TIP3   OH259341  10.171   5.290   5.867
19819TIP3    H159342  10.134   5.288   5.776
19819TIP3    H259343  10.264   5.307   5.850
19820TIP3   OH259344  10.446   5.327   7.315
19820TIP3    H159345  10.460   5.236   7.279
19820TIP3    H259346  10.375   5.361   7.258
19821TIP3   OH259347  10.464   5.106   7.168
19821TIP3    H159348  10.495   5.110   7.076
19821TIP3    H259349  10.371   5.079   7.157
19822TIP3   OH259350  10.164   5.277   7.598
19822TIP3    H159351  10.172   5.179   7.600
19822TIP3    H259352  10.205   5.306   7.681
19823TIP3   OH259353   9.981   6.361   5.761
19823TIP3    H159354  10.077   6.360   5.743
19823TIP3    H259355   9.950   6.413   5.685
19824TIP3   OH259356   9.461   5.744   5.976
19824TIP3    H159357   9.556   5.766   5.965
19824TIP3    H259358   9.457   5.655   5.936
19825TIP3   OH259359   9.376   6.357   6.392
19825TIP3    H159360   9.311   6.294   6.355
19825TIP3    H259361   9.426   6.299   6.452
19826TIP3   OH259362   9.528   6.202   6.560
19826TIP3    H159363   9.495   6.139   6.625
19826TIP3    H259364   9.582   6.261   6.617
19827TIP3   OH259365   9.701   5.608   6.950
19827TIP3    H159366   9.693   5.580   6.857
19827TIP3    H259367   9.799   5.605   6.960
19828TIP3   OH259368   9.892   5.289   7.605
19828TIP3    H159369   9.989   5.297   7.598
19828TIP3    H259370   9.883   5.212   7.665
19829TIP3   OH259371   9.871   4.992   6.961
19829TIP3    H159372   9.933   4.916   6.967
19829TIP3    H259373   9.934   5.066   6.952
19830TIP3   OH259374   9.681   5.267   7.029
19830TIP3    H159375   9.730   5.258   6.945
19830TIP3    H259376   9.714   5.352   7.060
19831TIP3   OH259377   9.665   4.766   6.529
19831TIP3    H159378   9.572   4.765   6.557
19831TIP3    H259379   9.663   4.826   6.452
19832TIP3   OH259380   9.882   4.852   7.347
19832TIP3    H159381   9.828   4.843   7.427
19832TIP3    H259382   9.817   4.889   7.284
19833TIP3   OH259383   9.692   6.350   6.740
19833TIP3    H159384   9.722   6.333   6.832
19833TIP3    H259385   9.768   6.313   6.690
19834TIP3   OH259386   9.876   6.223   6.590
19834TIP3    H159387   9.899   6.146   6.646
19834TIP3    H259388   9.963   6.265   6.573
19835TIP3   OH259389  10.126   6.321   6.556
19835TIP3    H159390  10.158   6.230   6.573
19835TIP3    H259391  10.152   6.370   6.635
19836TIP3   OH259392   9.968   4.699   6.695
19836TIP3    H159393   9.875   4.670   6.697
19836TIP3    H259394  10.012   4.611   6.700
19837TIP3   OH259395   9.761   4.560   6.346
19837TIP3    H159396   9.788   4.621   6.275
19837TIP3    H259397   9.733   4.622   6.416
19838TIP3   OH259398   9.482   6.137   6.129
19838TIP3    H159399   9.395   6.105   6.103
19838TIP3    H259400   9.476   6.230   6.097
19839TIP3   OH259401   9.874   4.725   6.117
19839TIP3    H159402   9.913   4.657   6.058
19839TIP3    H259403   9.952   4.768   6.155
19840TIP3   OH259404  10.256   6.327   5.715
19840TIP3    H159405  10.352   6.335   5.704
19840TIP3    H259406  10.233   6.255   5.652
19841TIP3   OH259407  10.149   4.997   7.591
19841TIP3    H159408  10.099   4.928   7.638
19841TIP3    H259409  10.237   4.953   7.586
19842TIP3   OH259410  10.379   4.871   7.660
19842TIP3    H159411  10.446   4.934   7.624
19842TIP3    H259412  10.373   4.907   7.750
19843TIP3   OH259413   9.551   6.158   5.770
19843TIP3    H159414   9.546   6.198   5.858
19843TIP3    H259415   9.643   6.122   5.767
19844TIP3   OH259416   1.317   6.227   8.486
19844TIP3    H159417   1.292   6.319   8.461
19844TIP3    H259418   1.246   6.179   8.441
19845TIP3   OH259419   1.326   6.230   8.850
19845TIP3    H159420   1.356   6.196   8.936
19845TIP3    H259421   1.288   6.150   8.809
19846TIP3   OH259422   1.561   6.536   8.536
19846TIP3    H159423   1.553   6.460   8.595
19846TIP3    H259424   1.594   6.606   8.596
19847TIP3   OH259425   1.215   6.997   8.549
19847TIP3    H159426   1.258   6.921   8.504
19847TIP3    H259427   1.191   6.958   8.634
19848TIP3   OH259428   1.107   6.403   8.880
19848TIP3    H159429   1.186   6.352   8.853
19848TIP3    H259430   1.149   6.482   8.914
19849TIP3   OH259431   2.134   5.773   8.902
19849TIP3    H159432   2.162   5.857   8.945
19849TIP3    H259433   2.149   5.794   8.809
19850TIP3   OH259434   1.522   5.952   8.942
19850TIP3    H159435   1.574   5.870   8.953
19850TIP3    H259436   1.507   5.951   8.846
19851TIP3   OH259437   0.901   5.620   8.901
19851TIP3    H159438   0.863   5.695   8.851
19851TIP3    H259439   0.867   5.545   8.849
19852TIP3   OH259440   1.565   5.707   8.524
19852TIP3    H159441   1.639   5.694   8.587
19852TIP3    H259442   1.614   5.742   8.447
19853TIP3   OH259443   0.945   6.024   8.819
19853TIP3    H159444   1.039   5.996   8.820
19853TIP3    H259445   0.903   5.949   8.773
19854TIP3   OH259446   2.205   5.979   9.077
19854TIP3    H159447   2.123   6.030   9.055
19854TIP3    H259448   2.229   6.020   9.162
19855TIP3   OH259449   1.210   6.447   8.348
19855TIP3    H159450   1.180   6.430   8.258
19855TIP3    H259451   1.167   6.532   8.368
19856TIP3   OH259452   1.776   5.706   8.696
19856TIP3    H159453   1.771   5.662   8.782
19856TIP3    H259454   1.827   5.787   8.717
19857TIP3   OH259455   1.637   6.776   8.707
19857TIP3    H159456   1.547   6.767   8.746
19857TIP3    H259457   1.628   6.860   8.659
19858TIP3   OH259458   1.923   5.677   9.066
19858TIP3    H159459   1.837   5.701   9.028
19858TIP3    H259460   1.985   5.709   8.996
19859TIP3   OH259461   1.228   5.311   9.045
19859TIP3    H159462   1.209   5.218   9.066
19859TIP3    H259463   1.148   5.353   9.084
19860TIP3   OH259464   1.335   6.819   8.377
19860TIP3    H159465   1.385   6.736   8.357
19860TIP3    H259466   1.398   6.885   8.338
19861TIP3   OH259467   1.476   6.606   8.284
19861TIP3    H159468   1.457   6.524   8.236
19861TIP3    H259469   1.513   6.572   8.368
19862TIP3   OH259470   1.863   6.688   9.047
19862TIP3    H159471   1.851   6.610   8.988
19862TIP3    H259472   1.846   6.762   8.984
19863TIP3   OH259473   1.155   6.081   8.305
19863TIP3    H159474   1.077   6.133   8.278
19863TIP3    H259475   1.208   6.079   8.223
19864TIP3   OH259476   1.112   5.865   8.021
19864TIP3    H159477   1.179   5.918   8.070
19864TIP3    H259478   1.172   5.803   7.974
19865TIP3   OH259479   2.056   6.324   8.895
19865TIP3    H159480   1.973   6.376   8.898
19865TIP3    H259481   2.087   6.348   8.804
19866TIP3   OH259482   1.490   6.164   8.273
19866TIP3    H159483   1.463   6.183   8.365
19866TIP3    H259484   1.586   6.144   8.280
19867TIP3   OH259485   1.737   6.196   9.193
19867TIP3    H159486   1.735   6.282   9.239
19867TIP3    H259487   1.653   6.202   9.143
19868TIP3   OH259488   0.875   6.120   9.062
19868TIP3    H159489   0.904   6.085   8.975
19868TIP3    H259490   0.934   6.197   9.073
19869TIP3   OH259491   1.395   6.776   8.826
19869TIP3    H159492   1.380   6.844   8.893
19869TIP3    H259493   1.381   6.693   8.878
19870TIP3   OH259494   1.335   6.024   8.101
19870TIP3    H159495   1.396   6.080   8.155
19870TIP3    H259496   1.365   6.048   8.010
19871TIP3   OH259497   1.079   6.708   8.382
19871TIP3    H159498   1.167   6.747   8.398
19871TIP3    H259499   1.036   6.777   8.330
19872TIP3   OH259500   1.857   5.263   8.151
19872TIP3    H159501   1.776   5.284   8.202
19872TIP3    H259502   1.871   5.347   8.103
19873TIP3   OH259503   1.656   6.630   7.699
19873TIP3    H159504   1.665   6.727   7.685
19873TIP3    H259505   1.748   6.600   7.685
19874TIP3   OH259506   2.100   7.032   9.095
19874TIP3    H159507   2.100   6.935   9.106
19874TIP3    H259508   2.015   7.054   9.139
19875TIP3   OH259509   1.205   6.772   9.245
19875TIP3    H159510   1.209   6.869   9.253
19875TIP3    H259511   1.119   6.758   9.202
19876TIP3   OH259512   0.994   6.928   8.204
19876TIP3    H159513   0.960   6.905   8.115
19876TIP3    H259514   0.957   7.016   8.218
19877TIP3   OH259515   1.170   6.848   7.821
19877TIP3    H159516   1.226   6.777   7.782
19877TIP3    H259517   1.211   6.858   7.909
19878TIP3   OH259518   1.235   6.892   8.086
19878TIP3    H159519   1.154   6.894   8.140
19878TIP3    H259520   1.296   6.850   8.149
19879TIP3   OH259521   1.997   6.159   9.364
19879TIP3    H159522   1.912   6.182   9.323
19879TIP3    H259523   2.003   6.064   9.344
19880TIP3   OH259524   0.985   5.395   9.144
19880TIP3    H159525   0.934   5.341   9.204
19880TIP3    H259526   0.995   5.479   9.191
19881TIP3   OH259527   1.443   5.522   9.334
19881TIP3    H159528   1.508   5.507   9.405
19881TIP3    H259529   1.359   5.515   9.381
19882TIP3   OH259530   1.743   5.934   9.323
19882TIP3    H159531   1.763   5.967   9.413
19882TIP3    H259532   1.732   6.017   9.273
19883TIP3   OH259533   1.410   6.068   7.844
19883TIP3    H159534   1.383   6.042   7.754
19883TIP3    H259535   1.496   6.112   7.826
19884TIP3   OH259536   1.127   5.446   8.148
19884TIP3    H159537   1.099   5.442   8.241
19884TIP3    H259538   1.093   5.361   8.116
19885TIP3   OH259539   0.907   5.892   9.205
19885TIP3    H159540   0.871   5.928   9.286
19885TIP3    H259541   0.894   5.968   9.144
19886TIP3   OH259542   0.791   5.787   8.712
19886TIP3    H159543   0.698   5.804   8.695
19886TIP3    H259544   0.816   5.744   8.628
19887TIP3   OH259545   1.288   5.877   8.435
19887TIP3    H159546   1.239   5.952   8.393
19887TIP3    H259547   1.348   5.851   8.362
19888TIP3   OH259548   1.444   5.909   8.677
19888TIP3    H159549   1.388   5.941   8.604
19888TIP3    H259550   1.480   5.829   8.633
19889TIP3   OH259551   0.788   5.417   8.117
19889TIP3    H159552   0.781   5.417   8.215
19889TIP3    H259553   0.696   5.429   8.091
19890TIP3   OH259554   1.456   6.160   9.097
19890TIP3    H159555   1.489   6.089   9.038
19890TIP3    H259556   1.431   6.107   9.175
19891TIP3   OH259557   1.143   5.619   8.767
19891TIP3    H159558   1.063   5.622   8.824
19891TIP3    H259559   1.214   5.615   8.832
19892TIP3   OH259560   0.837   5.675   8.464
19892TIP3    H159561   0.934   5.687   8.455
19892TIP3    H259562   0.801   5.713   8.382
19893TIP3   OH259563   1.624   5.692   8.978
19893TIP3    H159564   1.575   5.710   9.061
19893TIP3    H259565   1.563   5.632   8.933
19894TIP3   OH259566   0.655   5.734   8.243
19894TIP3    H159567   0.620   5.644   8.226
19894TIP3    H259568   0.716   5.748   8.167
19895TIP3   OH259569   1.819   7.364   9.163
19895TIP3    H159570   1.801   7.414   9.081
19895TIP3    H259571   1.796   7.427   9.233
19896TIP3   OH259572   1.212   5.944   8.864
19896TIP3    H159573   1.288   5.913   8.812
19896TIP3    H259574   1.227   5.900   8.949
19897TIP3   OH259575   0.769   5.436   8.746
19897TIP3    H159576   0.704   5.364   8.762
19897TIP3    H259577   0.818   5.401   8.672
19898TIP3   OH259578   1.185   5.841   9.160
19898TIP3    H159579   1.094   5.875   9.166
19898TIP3    H259580   1.238   5.911   9.205
19899TIP3   OH259581   0.929   6.228   8.238
19899TIP3    H159582   0.853   6.166   8.236
19899TIP3    H259583   0.919   6.267   8.328
19900TIP3   OH259584   1.825   6.470   8.884
19900TIP3    H159585   1.848   6.519   8.802
19900TIP3    H259586   1.739   6.429   8.859
19901TIP3   OH259587   1.382   5.547   8.113
19901TIP3    H159588   1.285   5.534   8.123
19901TIP3    H259589   1.395   5.641   8.139
19902TIP3   OH259590   1.350   6.543   9.245
19902TIP3    H159591   1.308   6.489   9.315
19902TIP3    H259592   1.297   6.625   9.251
19903TIP3   OH259593   1.448   5.792   8.215
19903TIP3    H159594   1.544   5.793   8.237
19903TIP3    H259595   1.439   5.875   8.164
19904TIP3   OH259596   1.077   6.377   8.066
19904TIP3    H159597   1.032   6.464   8.078
19904TIP3    H259598   1.024   6.321   8.127
19905TIP3   OH259599   1.487   6.822   9.136
19905TIP3    H159600   1.397   6.793   9.158
19905TIP3    H259601   1.513   6.866   9.219
19906TIP3   OH259602   1.918   5.864   8.024
19906TIP3    H159603   1.836   5.847   7.972
19906TIP3    H259604   1.889   5.940   8.079
19907TIP3   OH259605   2.113   6.741   9.134
19907TIP3    H159606   2.015   6.737   9.127
19907TIP3    H259607   2.138   6.710   9.044
19908TIP3   OH259608   1.591   6.703   7.964
19908TIP3    H159609   1.577   6.631   8.026
19908TIP3    H259610   1.606   6.655   7.880
19909TIP3   OH259611   1.587   6.340   8.811
19909TIP3    H159612   1.493   6.313   8.815
19909TIP3    H259613   1.624   6.257   8.773
19910TIP3   OH259614   0.898   6.326   8.486
19910TIP3    H159615   0.894   6.420   8.507
19910TIP3    H259616   0.859   6.286   8.564
19911TIP3   OH259617   1.384   6.541   8.975
19911TIP3    H159618   1.377   6.534   9.072
19911TIP3    H259619   1.457   6.480   8.956
19912TIP3   OH259620   1.351   6.432   7.866
19912TIP3    H159621   1.405   6.407   7.945
19912TIP3    H259622   1.264   6.402   7.895
19913TIP3   OH259623   1.621   7.074   9.035
19913TIP3    H159624   1.546   7.012   9.028
19913TIP3    H259625   1.606   7.134   8.959
19914TIP3   OH259626   1.689   6.906   7.685
19914TIP3    H159627   1.726   6.979   7.634
19914TIP3    H259628   1.608   6.950   7.718
19915TIP3   OH259629   1.503   6.369   8.086
19915TIP3    H159630   1.495   6.296   8.152
19915TIP3    H259631   1.601   6.371   8.076
19916TIP3   OH259632   0.769   6.385   7.891
19916TIP3    H159633   0.787   6.300   7.846
19916TIP3    H259634   0.759   6.355   7.982
19917TIP3   OH259635   1.529   5.768   9.228
19917TIP3    H159636   1.619   5.787   9.260
19917TIP3    H259637   1.505   5.682   9.270
19918TIP3   OH259638   1.425   5.501   8.397
19918TIP3    H159639   1.415   5.525   8.303
19918TIP3    H259640   1.467   5.582   8.434
19919TIP3   OH259641   0.935   6.605   8.094
19919TIP3    H159642   0.843   6.626   8.114
19919TIP3    H259643   0.950   6.653   8.011
19920TIP3   OH259644   1.109   5.679   8.500
19920TIP3    H159645   1.176   5.749   8.478
19920TIP3    H259646   1.124   5.670   8.596
19921TIP3   OH259647   1.379   5.997   9.300
19921TIP3    H159648   1.393   6.004   9.396
19921TIP3    H259649   1.426   5.913   9.280
19922TIP3   OH259650   1.261   5.405   8.602
19922TIP3    H159651   1.253   5.482   8.661
19922TIP3    H259652   1.322   5.441   8.533
19923TIP3   OH259653   0.777   5.417   8.398
19923TIP3    H159654   0.797   5.505   8.438
19923TIP3    H259655   0.868   5.379   8.401
19924TIP3   OH259656   2.014   5.894   9.291
19924TIP3    H159657   1.918   5.878   9.293
19924TIP3    H259658   2.036   5.864   9.201
19925TIP3   OH259659   1.668   6.099   8.712
19925TIP3    H159660   1.607   6.035   8.673
19925TIP3    H259661   1.749   6.046   8.724
19926TIP3   OH259662   1.643   7.050   8.629
19926TIP3    H159663   1.601   7.097   8.553
19926TIP3    H259664   1.737   7.066   8.607
19927TIP3   OH259665   0.918   6.603   7.801
19927TIP3    H159666   0.868   6.524   7.829
19927TIP3    H259667   0.972   6.566   7.728
19928TIP3   OH259668   1.525   6.948   9.380
19928TIP3    H159669   1.506   6.887   9.454
19928TIP3    H259670   1.601   6.999   9.415
19929TIP3   OH259671   1.317   6.656   7.689
19929TIP3    H159672   1.358   6.591   7.750
19929TIP3    H259673   1.376   6.652   7.612
19930TIP3   OH259674   1.192   6.424   9.438
19930TIP3    H159675   1.121   6.488   9.449
19930TIP3    H259676   1.225   6.411   9.529
19931TIP3   OH259677   1.049   6.320   7.799
19931TIP3    H159678   1.049   6.338   7.895
19931TIP3    H259679   1.045   6.222   7.798
19932TIP3   OH259680   1.652   6.572   9.186
19932TIP3    H159681   1.718   6.625   9.137
19932TIP3    H259682   1.571   6.624   9.173
19933TIP3   OH259683   0.737   6.033   8.222
19933TIP3    H159684   0.708   5.978   8.296
19933TIP3    H259685   0.771   5.965   8.160
19934TIP3   OH259686   1.074   6.101   9.417
19934TIP3    H159687   0.980   6.122   9.405
19934TIP3    H259688   1.112   6.132   9.332
19935TIP3   OH259689   0.837   5.827   8.061
19935TIP3    H159690   0.814   5.838   7.967
19935TIP3    H259691   0.935   5.832   8.056
19936TIP3   OH259692   1.573   6.527   9.559
19936TIP3    H159693   1.656   6.533   9.509
19936TIP3    H259694   1.578   6.436   9.588
19937TIP3   OH259695   1.641   6.161   7.722
19937TIP3    H159696   1.624   6.115   7.638
19937TIP3    H259697   1.611   6.251   7.698
19938TIP3   OH259698   1.101   5.646   9.341
19938TIP3    H159699   1.144   5.695   9.268
19938TIP3    H259700   1.014   5.689   9.346
19939TIP3   OH259701   1.151   6.221   9.186
19939TIP3    H159702   1.243   6.211   9.156
19939TIP3    H259703   1.147   6.316   9.206
19940TIP3   OH259704   1.778   6.425   9.368
19940TIP3    H159705   1.720   6.478   9.307
19940TIP3    H259706   1.866   6.449   9.331
19941TIP3   OH259707   1.896   7.139   8.583
19941TIP3    H159708   1.923   7.172   8.670
19941TIP3    H259709   1.959   7.182   8.524
19942TIP3   OH259710   1.925   7.160   8.865
19942TIP3    H159711   1.882   7.072   8.861
19942TIP3    H259712   2.000   7.139   8.922
19943TIP3   OH259713   1.988   6.837   9.413
19943TIP3    H159714   1.913   6.835   9.476
19943TIP3    H259715   2.020   6.928   9.422
19944TIP3   OH259716   1.775   6.377   8.076
19944TIP3    H159717   1.864   6.398   8.045
19944TIP3    H259718   1.788   6.293   8.124
19945TIP3   OH259719   1.971   6.608   8.695
19945TIP3    H159720   2.021   6.540   8.646
19945TIP3    H259721   1.961   6.678   8.628
19946TIP3   OH259722   1.802   6.908   8.889
19946TIP3    H159723   1.730   6.947   8.942
19946TIP3    H259724   1.753   6.860   8.819
19947TIP3   OH259725   1.864   6.148   7.885
19947TIP3    H159726   1.779   6.151   7.836
19947TIP3    H259727   1.833   6.137   7.977
19948TIP3   OH259728   1.707   5.795   7.860
19948TIP3    H159729   1.673   5.833   7.778
19948TIP3    H259730   1.687   5.700   7.848
19949TIP3   OH259731   2.021   6.498   9.269
19949TIP3    H159732   2.093   6.432   9.257
19949TIP3    H259733   2.043   6.566   9.203
19950TIP3   OH259734   2.206   6.306   9.281
19950TIP3    H159735   2.133   6.252   9.319
19950TIP3    H259736   2.281   6.244   9.293
19951TIP3   OH259737   1.673   5.522   7.839
19951TIP3    H159738   1.747   5.502   7.900
19951TIP3    H259739   1.599   5.470   7.875
19952TIP3   OH259740   1.707   5.780   8.304
19952TIP3    H159741   1.775   5.710   8.298
19952TIP3    H259742   1.757   5.860   8.278
19953TIP3   OH259743   1.893   5.953   8.797
19953TIP3    H159744   1.977   5.982   8.755
19953TIP3    H259745   1.903   5.996   8.883
19954TIP3   OH259746   1.957   6.105   9.030
19954TIP3    H159747   1.879   6.140   9.076
19954TIP3    H259748   1.990   6.184   8.982
19955TIP3   OH259749   2.396   5.672   9.559
19955TIP3    H159750   2.471   5.630   9.515
19955TIP3    H259751   2.401   5.764   9.527
19956TIP3   OH259752   1.847   5.530   8.335
19956TIP3    H159753   1.887   5.520   8.423
19956TIP3    H259754   1.779   5.461   8.336
19957TIP3   OH259755   2.276   5.853   9.379
19957TIP3    H159756   2.180   5.870   9.391
19957TIP3    H259757   2.271   5.773   9.324
19958TIP3   OH259758   1.917   5.471   7.972
19958TIP3    H159759   1.957   5.401   7.918
19958TIP3    H259760   1.984   5.543   7.967
19959TIP3   OH259761   1.481   7.006   8.241
19959TIP3    H159762   1.529   6.989   8.157
19959TIP3    H259763   1.540   7.070   8.284
19960TIP3   OH259764   1.272   7.037   9.285
19960TIP3    H159765   1.349   7.010   9.337
19960TIP3    H259766   1.312   7.099   9.222
19961TIP3   OH259767   1.404   7.245   9.158
19961TIP3    H159768   1.469   7.191   9.110
19961TIP3    H259769   1.463   7.297   9.215
19962TIP3   OH259770   2.177   5.601   9.250
19962TIP3    H159771   2.087   5.594   9.213
19962TIP3    H259772   2.208   5.508   9.244
19963TIP3   OH259773   1.100   7.119   8.809
19963TIP3    H159774   1.004   7.131   8.800
19963TIP3    H259775   1.125   7.202   8.854
19964TIP3   OH259776   1.364   7.060   8.910
19964TIP3    H159777   1.276   7.060   8.867
19964TIP3    H259778   1.414   7.120   8.852
19965TIP3   OH259779   1.576   7.243   8.816
19965TIP3    H159780   1.556   7.323   8.764
19965TIP3    H259781   1.604   7.180   8.745
19966TIP3   OH259782   1.383   5.513   8.889
19966TIP3    H159783   1.342   5.443   8.942
19966TIP3    H259784   1.456   5.466   8.845
19967TIP3   OH259785   1.906   5.395   8.798
19967TIP3    H159786   1.943   5.445   8.722
19967TIP3    H259787   1.810   5.412   8.788
19968TIP3   OH259788   2.004   5.492   8.562
19968TIP3    H159789   2.076   5.443   8.517
19968TIP3    H259790   2.033   5.584   8.545
19969TIP3   OH259791   1.080   5.261   8.783
19969TIP3    H159792   1.141   5.311   8.727
19969TIP3    H259793   1.101   5.294   8.871
19970TIP3   OH259794   1.624   5.404   8.769
19970TIP3    H159795   1.620   5.369   8.679
19970TIP3    H259796   1.608   5.322   8.822
19971TIP3   OH259797   1.652   5.324   8.332
19971TIP3    H159798   1.566   5.367   8.343
19971TIP3    H259799   1.636   5.239   8.378
19972TIP3   OH259800   0.568   5.173   8.355
19972TIP3    H159801   0.572   5.158   8.260
19972TIP3    H259802   0.599   5.264   8.364
19973TIP3   OH259803   1.054   5.426   8.415
19973TIP3    H159804   1.115   5.379   8.475
19973TIP3    H259805   1.076   5.518   8.439
19974TIP3   OH259806   0.918   6.860   7.945
19974TIP3    H159807   1.006   6.856   7.900
19974TIP3    H259808   0.863   6.824   7.871
19975TIP3   OH259809   1.625   6.969   8.008
19975TIP3    H159810   1.617   6.871   7.995
19975TIP3    H259811   1.581   7.001   7.926
19976TIP3   OH259812   1.852   7.102   9.201
19976TIP3    H159813   1.773   7.076   9.150
19976TIP3    H259814   1.847   7.200   9.189
19977TIP3   OH259815   3.120   6.487   7.960
19977TIP3    H159816   3.091   6.578   7.940
19977TIP3    H259817   3.043   6.437   7.928
19978TIP3   OH259818   3.120   6.486   8.341
19978TIP3    H159819   3.150   6.457   8.429
19978TIP3    H259820   3.076   6.406   8.308
19979TIP3   OH259821   2.418   6.382   8.706
19979TIP3    H159822   2.450   6.314   8.769
19979TIP3    H259823   2.497   6.437   8.696
19980TIP3   OH259824   3.362   6.789   8.023
19980TIP3    H159825   3.345   6.719   8.087
19980TIP3    H259826   3.390   6.863   8.079
19981TIP3   OH259827   2.389   6.796   8.433
19981TIP3    H159828   2.382   6.697   8.434
19981TIP3    H259829   2.486   6.804   8.428
19982TIP3   OH259830   2.194   6.302   8.399
19982TIP3    H159831   2.219   6.211   8.427
19982TIP3    H259832   2.180   6.291   8.304
19983TIP3   OH259833   3.011   7.251   8.040
19983TIP3    H159834   3.057   7.180   7.991
19983TIP3    H259835   3.002   7.213   8.128
19984TIP3   OH259836   2.916   6.713   8.390
19984TIP3    H159837   2.953   6.636   8.344
19984TIP3    H259838   3.000   6.757   8.414
19985TIP3   OH259839   3.931   6.032   8.388
19985TIP3    H159840   3.959   6.116   8.430
19985TIP3    H259841   3.950   6.050   8.294
19986TIP3   OH259842   3.331   6.214   8.422
19986TIP3    H159843   3.372   6.127   8.442
19986TIP3    H259844   3.298   6.198   8.332
19987TIP3   OH259845   2.669   5.873   8.388
19987TIP3    H159846   2.647   5.945   8.325
19987TIP3    H259847   2.622   5.799   8.345
19988TIP3   OH259848   3.361   5.965   8.010
19988TIP3    H159849   3.433   5.948   8.075
19988TIP3    H259850   3.413   5.999   7.935
19989TIP3   OH259851   2.298   6.065   8.493
19989TIP3    H159852   2.381   6.051   8.543
19989TIP3    H259853   2.316   6.011   8.413
19990TIP3   OH259854   2.740   6.272   8.285
19990TIP3    H159855   2.834   6.247   8.301
19990TIP3    H259856   2.701   6.187   8.255
19991TIP3   OH259857   4.005   6.241   8.557
19991TIP3    H159858   3.921   6.287   8.536
19991TIP3    H259859   4.014   6.264   8.651
19992TIP3   OH259860   2.664   5.855   8.823
19992TIP3    H159861   2.605   5.893   8.755
19992TIP3    H259862   2.611   5.873   8.903
19993TIP3   OH259863   3.013   6.709   7.829
19993TIP3    H159864   2.966   6.685   7.748
19993TIP3    H259865   2.967   6.792   7.853
19994TIP3   OH259866   2.771   6.633   8.618
19994TIP3    H159867   2.707   6.697   8.655
19994TIP3    H259868   2.811   6.683   8.545
19995TIP3   OH259869   3.572   5.966   8.181
19995TIP3    H159870   3.560   5.916   8.263
19995TIP3    H259871   3.624   6.043   8.211
19996TIP3   OH259872   2.536   5.971   8.607
19996TIP3    H159873   2.597   6.044   8.631
19996TIP3    H259874   2.585   5.931   8.532
19997TIP3   OH259875   2.598   6.826   8.716
19997TIP3    H159876   2.571   6.911   8.677
19997TIP3    H259877   2.519   6.808   8.771
19998TIP3   OH259878   2.005   6.513   7.950
19998TIP3    H159879   1.944   6.536   7.879
19998TIP3    H259880   2.026   6.599   7.989
19999TIP3   OH259881   3.432   7.031   8.191
19999TIP3    H159882   3.343   7.022   8.231
19999TIP3    H259883   3.424   7.118   8.146
20000TIP3   OH259884   3.723   5.934   8.555
20000TIP3    H159885   3.634   5.959   8.523
20000TIP3    H259886   3.781   5.964   8.482
20001TIP3   OH259887   3.020   5.576   8.536
20001TIP3    H159888   3.005   5.480   8.552
20001TIP3    H259889   2.943   5.613   8.583
20002TIP3   OH259890   3.135   7.078   7.865
20002TIP3    H159891   3.184   6.995   7.845
20002TIP3    H259892   3.196   7.143   7.823
20003TIP3   OH259893   3.278   6.863   7.770
20003TIP3    H159894   3.234   6.785   7.735
20003TIP3    H259895   3.314   6.829   7.855
20004TIP3   OH259896   3.659   6.944   8.535
20004TIP3    H159897   3.646   6.867   8.476
20004TIP3    H259898   3.640   7.019   8.474
20005TIP3   OH259899   2.950   6.338   7.792
20005TIP3    H159900   2.869   6.389   7.771
20005TIP3    H259901   2.994   6.335   7.705
20006TIP3   OH259902   2.908   6.123   7.507
20006TIP3    H159903   2.975   6.173   7.556
20006TIP3    H259904   2.965   6.059   7.460
20007TIP3   OH259905   3.854   6.582   8.380
20007TIP3    H159906   3.770   6.633   8.385
20007TIP3    H259907   3.883   6.606   8.289
20008TIP3   OH259908   3.297   6.421   7.763
20008TIP3    H159909   3.242   6.445   7.841
20008TIP3    H259910   3.381   6.395   7.807
20009TIP3   OH259911   3.532   6.460   8.675
20009TIP3    H159912   3.528   6.544   8.724
20009TIP3    H259913   3.445   6.462   8.630
20010TIP3   OH259914   2.530   6.420   8.176
20010TIP3    H159915   2.487   6.360   8.112
20010TIP3    H259916   2.605   6.365   8.208
20011TIP3   OH259917   2.661   6.834   8.327
20011TIP3    H159918   2.636   6.787   8.246
20011TIP3    H259919   2.750   6.797   8.345
20012TIP3   OH259920   2.678   6.384   8.539
20012TIP3    H159921   2.697   6.369   8.445
20012TIP3    H259922   2.710   6.475   8.554
20013TIP3   OH259923   3.191   7.027   8.311
20013TIP3    H159924   3.177   7.106   8.365
20013TIP3    H259925   3.176   6.954   8.374
20014TIP3   OH259926   2.803   6.946   8.858
20014TIP3    H159927   2.743   7.008   8.905
20014TIP3    H259928   2.738   6.893   8.809
20015TIP3   OH259929   3.138   6.278   7.589
20015TIP3    H159930   3.196   6.338   7.641
20015TIP3    H259931   3.164   6.302   7.497
20016TIP3   OH259932   2.558   6.502   8.960
20016TIP3    H159933   2.562   6.589   9.005
20016TIP3    H259934   2.463   6.482   8.969
20017TIP3   OH259935   2.882   6.957   7.864
20017TIP3    H159936   2.960   7.012   7.882
20017TIP3    H259937   2.819   7.019   7.826
20018TIP3   OH259938   2.598   7.115   8.946
20018TIP3    H159939   2.562   7.114   8.855
20018TIP3    H259940   2.518   7.093   8.999
20019TIP3   OH259941   3.654   5.519   7.638
20019TIP3    H159942   3.572   5.537   7.688
20019TIP3    H259943   3.665   5.603   7.589
20020TIP3   OH259944   2.397   6.259   7.983
20020TIP3    H159945   2.331   6.307   7.928
20020TIP3    H259946   2.352   6.175   7.995
20021TIP3   OH259947   3.453   6.889   7.184
20021TIP3    H159948   3.462   6.984   7.163
20021TIP3    H259949   3.545   6.858   7.172
20022TIP3   OH259950   2.177   6.645   8.891
20022TIP3    H159951   2.111   6.624   8.822
20022TIP3    H259952   2.214   6.557   8.913
20023TIP3   OH259953   2.030   6.840   8.522
20023TIP3    H159954   2.125   6.829   8.514
20023TIP3    H259955   2.024   6.918   8.580
20024TIP3   OH259956   3.896   7.289   8.582
20024TIP3    H159957   3.894   7.193   8.594
20024TIP3    H259958   3.812   7.315   8.626
20025TIP3   OH259959   3.001   7.074   8.716
20025TIP3    H159960   3.000   7.167   8.748
20025TIP3    H259961   2.929   7.035   8.769
20026TIP3   OH259962   2.763   7.206   7.665
20026TIP3    H159963   2.714   7.186   7.584
20026TIP3    H259964   2.728   7.293   7.691
20027TIP3   OH259965   2.200   7.053   8.051
20027TIP3    H159966   2.246   7.044   8.137
20027TIP3    H259967   2.148   6.971   8.050
20028TIP3   OH259968   2.964   7.106   7.307
20028TIP3    H159969   3.023   7.035   7.272
20028TIP3    H259970   2.996   7.114   7.399
20029TIP3   OH259971   3.014   7.152   7.577
20029TIP3    H159972   2.925   7.163   7.618
20029TIP3    H259973   3.063   7.110   7.649
20030TIP3   OH259974   3.785   6.420   8.855
20030TIP3    H159975   3.703   6.433   8.805
20030TIP3    H259976   3.799   6.324   8.843
20031TIP3   OH259977   2.381   6.828   8.881
20031TIP3    H159978   2.431   6.810   8.963
20031TIP3    H259979   2.307   6.764   8.887
20032TIP3   OH259980   2.782   5.651   8.666
20032TIP3    H159981   2.693   5.620   8.638
20032TIP3    H259982   2.756   5.733   8.711
20033TIP3   OH259983   3.314   5.767   8.859
20033TIP3    H159984   3.382   5.738   8.924
20033TIP3    H259985   3.230   5.747   8.905
20034TIP3   OH259986   3.557   6.197   8.780
20034TIP3    H159987   3.504   6.193   8.863
20034TIP3    H259988   3.529   6.283   8.742
20035TIP3   OH259989   3.214   6.326   7.334
20035TIP3    H159990   3.180   6.300   7.246
20035TIP3    H259991   3.296   6.373   7.308
20036TIP3   OH259992   2.927   5.701   7.636
20036TIP3    H159993   2.893   5.697   7.728
20036TIP3    H259994   2.889   5.618   7.602
20037TIP3   OH259995   2.714   6.163   8.687
20037TIP3    H159996   2.662   6.187   8.766
20037TIP3    H259997   2.702   6.244   8.632
20038TIP3   OH259998   2.594   6.051   8.198
20038TIP3    H159999   2.500   6.031   8.211
20038TIP3    H260000   2.609   6.012   8.109
20039TIP3   OH260001   3.088   6.139   7.926
20039TIP3    H160002   3.035   6.210   7.883
20039TIP3    H260003   3.141   6.107   7.851
20040TIP3   OH260004   3.261   6.416   9.012
20040TIP3    H160005   3.238   6.344   9.074
20040TIP3    H260006   3.355   6.430   9.034
20041TIP3   OH260007   3.245   6.168   8.164
20041TIP3    H160008   3.184   6.196   8.093
20041TIP3    H260009   3.278   6.086   8.121
20042TIP3   OH260010   2.533   6.196   8.893
20042TIP3    H160011   2.557   6.259   8.961
20042TIP3    H260012   2.521   6.113   8.944
20043TIP3   OH260013   2.581   5.674   7.602
20043TIP3    H160014   2.572   5.671   7.699
20043TIP3    H260015   2.503   5.727   7.577
20044TIP3   OH260016   2.126   5.715   8.474
20044TIP3    H160017   2.203   5.746   8.526
20044TIP3    H260018   2.164   5.680   8.392
20045TIP3   OH260019   2.117   5.691   7.988
20045TIP3    H160020   2.160   5.732   7.910
20045TIP3    H260021   2.048   5.760   8.004
20046TIP3   OH260022   3.258   6.414   8.587
20046TIP3    H160023   3.289   6.341   8.528
20046TIP3    H260024   3.226   6.361   8.663
20047TIP3   OH260025   2.925   5.877   8.259
20047TIP3    H160026   2.842   5.874   8.311
20047TIP3    H260027   2.992   5.874   8.329
20048TIP3   OH260028   2.351   5.920   8.262
20048TIP3    H160029   2.262   5.899   8.231
20048TIP3    H260030   2.398   5.835   8.246
20049TIP3   OH260031   2.627   5.927   7.956
20049TIP3    H160032   2.721   5.942   7.933
20049TIP3    H260033   2.579   5.949   7.873
20050TIP3   OH260034   3.416   5.950   8.461
20050TIP3    H160035   3.381   5.963   8.552
20050TIP3    H260036   3.350   5.889   8.424
20051TIP3   OH260037   2.470   5.959   7.736
20051TIP3    H160038   2.395   5.917   7.690
20051TIP3    H260039   2.520   5.994   7.659
20052TIP3   OH260040   3.586   7.639   8.680
20052TIP3    H160041   3.584   7.663   8.585
20052TIP3    H260042   3.665   7.688   8.710
20053TIP3   OH260043   2.542   6.750   9.101
20053TIP3    H160044   2.622   6.780   9.149
20053TIP3    H260045   2.478   6.748   9.175
20054TIP3   OH260046   3.007   6.204   8.357
20054TIP3    H160047   3.078   6.162   8.307
20054TIP3    H260048   3.014   6.161   8.444
20055TIP3   OH260049   2.527   5.694   8.235
20055TIP3    H160050   2.493   5.614   8.282
20055TIP3    H260051   2.577   5.655   8.163
20056TIP3   OH260052   2.984   6.100   8.646
20056TIP3    H160053   2.893   6.135   8.660
20056TIP3    H260054   3.040   6.162   8.696
20057TIP3   OH260055   2.721   6.491   7.741
20057TIP3    H160056   2.649   6.425   7.730
20057TIP3    H260057   2.702   6.525   7.832
20058TIP3   OH260058   3.621   6.726   8.370
20058TIP3    H160059   3.644   6.776   8.289
20058TIP3    H260060   3.535   6.684   8.345
20059TIP3   OH260061   3.178   5.804   7.601
20059TIP3    H160062   3.082   5.785   7.612
20059TIP3    H260063   3.186   5.898   7.628
20060TIP3   OH260064   3.124   6.811   8.737
20060TIP3    H160065   3.139   6.785   8.828
20060TIP3    H260066   3.080   6.898   8.745
20061TIP3   OH260067   3.247   6.050   7.707
20061TIP3    H160068   3.344   6.056   7.723
20061TIP3    H260069   3.229   6.130   7.654
20062TIP3   OH260070   2.429   6.526   8.420
20062TIP3    H160071   2.451   6.488   8.332
20062TIP3    H260072   2.429   6.448   8.476
20063TIP3   OH260073   2.864   6.640   7.561
20063TIP3    H160074   2.817   6.726   7.567
20063TIP3    H260075   2.810   6.585   7.622
20064TIP3   OH260076   2.293   6.433   9.029
20064TIP3    H160077   2.313   6.419   9.123
20064TIP3    H260078   2.223   6.367   9.013
20065TIP3   OH260079   3.018   6.548   9.048
20065TIP3    H160080   2.957   6.488   9.003
20065TIP3    H260081   3.104   6.512   9.019
20066TIP3   OH260082   3.280   7.071   8.632
20066TIP3    H160083   3.184   7.066   8.646
20066TIP3    H260084   3.307   7.121   8.712
20067TIP3   OH260085   3.691   6.140   7.542
20067TIP3    H160086   3.628   6.096   7.480
20067TIP3    H260087   3.687   6.230   7.502
20068TIP3   OH260088   3.909   6.998   8.623
20068TIP3    H160089   3.811   6.993   8.615
20068TIP3    H260090   3.934   6.968   8.533
20069TIP3   OH260091   3.389   6.960   7.450
20069TIP3    H160092   3.364   6.891   7.513
20069TIP3    H260093   3.401   6.910   7.367
20070TIP3   OH260094   3.386   6.588   8.289
20070TIP3    H160095   3.293   6.563   8.302
20070TIP3    H260096   3.420   6.509   8.244
20071TIP3   OH260097   2.513   6.816   8.040
20071TIP3    H160098   2.509   6.898   7.987
20071TIP3    H260099   2.419   6.797   8.053
20072TIP3   OH260100   2.087   6.121   7.740
20072TIP3    H160101   2.131   6.206   7.763
20072TIP3    H260102   2.006   6.129   7.796
20073TIP3   OH260103   2.653   6.583   7.985
20073TIP3    H160104   2.616   6.672   8.004
20073TIP3    H260105   2.616   6.531   8.059
20074TIP3   OH260106   2.782   7.161   8.511
20074TIP3    H160107   2.824   7.233   8.460
20074TIP3    H260108   2.858   7.124   8.559
20075TIP3   OH260109   2.432   7.056   7.893
20075TIP3    H160110   2.346   7.063   7.940
20075TIP3    H260111   2.462   7.149   7.896
20076TIP3   OH260112   3.171   6.794   8.469
20076TIP3    H160113   3.162   6.793   8.567
20076TIP3    H260114   3.250   6.739   8.457
20077TIP3   OH260115   3.145   6.690   7.352
20077TIP3    H160116   3.198   6.664   7.430
20077TIP3    H260117   3.057   6.660   7.380
20078TIP3   OH260118   3.420   7.328   8.520
20078TIP3    H160119   3.341   7.271   8.514
20078TIP3    H260120   3.403   7.392   8.447
20079TIP3   OH260121   3.486   7.175   7.162
20079TIP3    H160122   3.536   7.257   7.143
20079TIP3    H260123   3.403   7.213   7.197
20080TIP3   OH260124   2.505   5.937   9.037
20080TIP3    H160125   2.409   5.941   9.052
20080TIP3    H260126   2.535   5.883   9.112
20081TIP3   OH260127   3.306   6.620   7.566
20081TIP3    H160128   3.294   6.556   7.639
20081TIP3    H260129   3.403   6.618   7.556
20082TIP3   OH260130   2.220   7.023   8.670
20082TIP3    H160131   2.273   6.948   8.701
20082TIP3    H260132   2.248   7.092   8.731
20083TIP3   OH260133   2.511   6.668   7.351
20083TIP3    H160134   2.524   6.575   7.323
20083TIP3    H260135   2.492   6.656   7.446
20084TIP3   OH260136   2.457   6.673   7.622
20084TIP3    H160137   2.525   6.644   7.684
20084TIP3    H260138   2.462   6.771   7.632
20085TIP3   OH260139   2.199   6.367   7.825
20085TIP3    H160140   2.130   6.407   7.883
20085TIP3    H260141   2.207   6.439   7.758
20086TIP3   OH260142   3.342   6.003   8.720
20086TIP3    H160143   3.422   6.039   8.761
20086TIP3    H260144   3.326   5.922   8.773
20087TIP3   OH260145   3.220   5.755   7.885
20087TIP3    H160146   3.207   5.777   7.791
20087TIP3    H260147   3.259   5.837   7.920
20088TIP3   OH260148   2.723   6.871   7.572
20088TIP3    H160149   2.636   6.896   7.609
20088TIP3    H260150   2.737   6.944   7.510
20089TIP3   OH260151   2.911   5.934   7.987
20089TIP3    H160152   2.976   6.006   7.970
20089TIP3    H260153   2.916   5.927   8.084
20090TIP3   OH260154   3.180   6.253   8.793
20090TIP3    H160155   3.199   6.306   8.873
20090TIP3    H260156   3.234   6.173   8.808
20091TIP3   OH260157   3.054   5.661   8.089
20091TIP3    H160158   3.046   5.740   8.147
20091TIP3    H260159   3.115   5.696   8.020
20092TIP3   OH260160   2.468   6.946   7.640
20092TIP3    H160161   2.436   7.016   7.578
20092TIP3    H260162   2.450   6.988   7.727
20093TIP3   OH260163   2.567   5.659   7.878
20093TIP3    H160164   2.563   5.750   7.914
20093TIP3    H260165   2.663   5.642   7.886
20094TIP3   OH260166   3.822   6.152   8.773
20094TIP3    H160167   3.725   6.152   8.784
20094TIP3    H260168   3.829   6.108   8.687
20095TIP3   OH260169   3.472   6.347   8.163
20095TIP3    H160170   3.395   6.288   8.175
20095TIP3    H260171   3.542   6.299   8.211
20096TIP3   OH260172   2.184   6.576   7.632
20096TIP3    H160173   2.251   6.645   7.642
20096TIP3    H260174   2.229   6.520   7.565
20097TIP3   OH260175   2.132   5.850   7.759
20097TIP3    H160176   2.132   5.948   7.760
20097TIP3    H260177   2.038   5.832   7.753
20098TIP3   OH260178   3.440   7.303   8.113
20098TIP3    H160179   3.397   7.349   8.037
20098TIP3    H260180   3.534   7.322   8.092
20099TIP3   OH260181   2.518   5.571   8.639
20099TIP3    H160182   2.486   5.538   8.552
20099TIP3    H260183   2.505   5.492   8.696
20100TIP3   OH260184   2.059   6.799   8.022
20100TIP3    H160185   1.985   6.822   8.080
20100TIP3    H260186   2.027   6.834   7.935
20101TIP3   OH260187   2.212   7.324   9.088
20101TIP3    H160188   2.297   7.325   9.136
20101TIP3    H260189   2.192   7.229   9.086
20102TIP3   OH260190   2.692   7.298   9.135
20102TIP3    H160191   2.786   7.277   9.144
20102TIP3    H260192   2.666   7.238   9.063
20103TIP3   OH260193   2.675   6.871   7.264
20103TIP3    H160194   2.617   6.801   7.303
20103TIP3    H260195   2.750   6.817   7.234
20104TIP3   OH260196   3.332   7.203   8.870
20104TIP3    H160197   3.323   7.132   8.938
20104TIP3    H260198   3.409   7.253   8.901
20105TIP3   OH260199   3.112   6.913   7.177
20105TIP3    H160200   3.152   6.846   7.236
20105TIP3    H260201   3.168   6.907   7.098
20106TIP3   OH260202   2.341   6.737   9.292
20106TIP3    H160203   2.359   6.641   9.297
20106TIP3    H260204   2.255   6.738   9.245
20107TIP3   OH260205   2.319   6.390   7.484
20107TIP3    H160206   2.371   6.354   7.558
20107TIP3    H260207   2.388   6.393   7.414
20108TIP3   OH260208   2.950   6.823   9.065
20108TIP3    H160209   2.906   6.839   8.980
20108TIP3    H260210   2.979   6.730   9.058
20109TIP3   OH260211   2.830   6.588   7.292
20109TIP3    H160212   2.831   6.600   7.389
20109TIP3    H260213   2.829   6.490   7.286
20110TIP3   OH260214   3.443   6.830   8.673
20110TIP3    H160215   3.516   6.877   8.628
20110TIP3    H260216   3.370   6.893   8.660
20111TIP3   OH260217   2.462   6.472   9.272
20111TIP3    H160218   2.535   6.411   9.254
20111TIP3    H260219   2.490   6.507   9.359
20112TIP3   OH260220   2.530   6.292   7.709
20112TIP3    H160221   2.498   6.252   7.791
20112TIP3    H260222   2.564   6.215   7.659
20113TIP3   OH260223   2.798   6.357   8.937
20113TIP3    H160224   2.719   6.415   8.938
20113TIP3    H260225   2.846   6.391   8.858
20114TIP3   OH260226   2.627   6.085   7.548
20114TIP3    H160227   2.601   6.089   7.454
20114TIP3    H260228   2.725   6.090   7.540
20115TIP3   OH260229   3.314   6.760   9.071
20115TIP3    H160230   3.392   6.732   9.021
20115TIP3    H260231   3.309   6.692   9.140
20116TIP3   OH260232   3.450   6.417   7.211
20116TIP3    H160233   3.429   6.371   7.128
20116TIP3    H260234   3.417   6.507   7.187
20117TIP3   OH260235   2.922   6.145   9.060
20117TIP3    H160236   2.919   6.065   9.003
20117TIP3    H260237   2.877   6.211   9.004
20118TIP3   OH260238   2.923   5.929   8.868
20118TIP3    H160239   2.949   5.972   8.784
20118TIP3    H260240   2.828   5.908   8.850
20119TIP3   OH260241   2.951   6.468   8.743
20119TIP3    H160242   3.032   6.476   8.692
20119TIP3    H260243   2.892   6.533   8.698
20120TIP3   OH260244   3.532   6.433   9.124
20120TIP3    H160245   3.580   6.350   9.131
20120TIP3    H260246   3.599   6.492   9.087
20121TIP3   OH260247   3.573   6.687   8.861
20121TIP3    H160248   3.514   6.740   8.802
20121TIP3    H260249   3.660   6.707   8.820
20122TIP3   OH260250   2.800   6.258   9.290
20122TIP3    H160251   2.728   6.194   9.306
20122TIP3    H260252   2.833   6.229   9.203
20123TIP3   OH260253   3.054   5.695   8.938
20123TIP3    H160254   3.006   5.777   8.914
20123TIP3    H260255   2.985   5.627   8.925
20124TIP3   OH260256   3.180   6.199   9.153
20124TIP3    H160257   3.163   6.188   9.249
20124TIP3    H260258   3.090   6.175   9.120
20125TIP3   OH260259   3.419   6.148   9.008
20125TIP3    H160260   3.343   6.150   9.069
20125TIP3    H260261   3.492   6.117   9.066
20126TIP3   OH260262   3.654   6.090   9.158
20126TIP3    H160263   3.662   5.994   9.176
20126TIP3    H260264   3.646   6.128   9.248
20127TIP3   OH260265   2.633   6.042   9.330
20127TIP3    H160266   2.642   5.950   9.302
20127TIP3    H260267   2.677   6.037   9.418
20128TIP3   OH260268   3.147   5.702   9.196
20128TIP3    H160269   3.216   5.633   9.186
20128TIP3    H260270   3.107   5.699   9.107
20129TIP3   OH260271   3.216   5.926   9.342
20129TIP3    H160272   3.190   5.853   9.282
20129TIP3    H260273   3.136   5.983   9.343
20130TIP3   OH260274   2.436   7.151   7.453
20130TIP3    H160275   2.531   7.144   7.433
20130TIP3    H260276   2.405   7.198   7.374
20131TIP3   OH260277   1.912   6.534   7.660
20131TIP3    H160278   2.008   6.553   7.655
20131TIP3    H260279   1.909   6.442   7.626
20132TIP3   OH260280   1.830   7.142   8.082
20132TIP3    H160281   1.763   7.080   8.047
20132TIP3    H260282   1.874   7.085   8.148
20133TIP3   OH260283   1.963   6.995   8.271
20133TIP3    H160284   1.954   6.920   8.332
20133TIP3    H260285   2.016   7.055   8.327
20134TIP3   OH260286   3.692   7.396   8.069
20134TIP3    H160287   3.720   7.428   8.156
20134TIP3    H260288   3.757   7.436   8.009
20135TIP3   OH260289   3.721   7.415   8.352
20135TIP3    H160290   3.678   7.327   8.347
20135TIP3    H260291   3.798   7.392   8.406
20136TIP3   OH260292   3.769   7.090   8.925
20136TIP3    H160293   3.696   7.099   8.989
20136TIP3    H260294   3.810   7.179   8.929
20137TIP3   OH260295   3.585   6.604   7.544
20137TIP3    H160296   3.654   6.667   7.516
20137TIP3    H260297   3.628   6.565   7.624
20138TIP3   OH260298   3.712   6.471   7.748
20138TIP3    H160299   3.646   6.428   7.807
20138TIP3    H260300   3.776   6.509   7.811
20139TIP3   OH260301   3.768   6.864   8.181
20139TIP3    H160302   3.819   6.798   8.130
20139TIP3    H260303   3.760   6.937   8.117
20140TIP3   OH260304   3.598   7.163   8.375
20140TIP3    H160305   3.526   7.206   8.427
20140TIP3    H260306   3.548   7.116   8.305
20141TIP3   OH260307   3.650   6.379   7.394
20141TIP3    H160308   3.579   6.381   7.327
20141TIP3    H260309   3.623   6.455   7.450
20142TIP3   OH260310   3.522   6.052   7.348
20142TIP3    H160311   3.478   6.089   7.271
20142TIP3    H260312   3.497   5.957   7.340
20143TIP3   OH260313   3.527   6.327   7.894
20143TIP3    H160314   3.533   6.231   7.888
20143TIP3    H260315   3.512   6.341   7.990
20144TIP3   OH260316   2.152   6.401   8.648
20144TIP3    H160317   2.154   6.373   8.553
20144TIP3    H260318   2.249   6.403   8.665
20145TIP3   OH260319   3.816   6.752   8.752
20145TIP3    H160320   3.888   6.687   8.742
20145TIP3    H260321   3.841   6.821   8.689
20146TIP3   OH260322   4.001   6.557   8.767
20146TIP3    H160323   3.926   6.508   8.806
20146TIP3    H260324   4.073   6.492   8.782
20147TIP3   OH260325   3.465   5.786   7.334
20147TIP3    H160326   3.539   5.754   7.390
20147TIP3    H260327   3.391   5.727   7.359
20148TIP3   OH260328   3.523   6.044   7.789
20148TIP3    H160329   3.563   5.955   7.805
20148TIP3    H260330   3.581   6.075   7.718
20149TIP3   OH260331   3.685   6.217   8.285
20149TIP3    H160332   3.771   6.243   8.244
20149TIP3    H260333   3.698   6.254   8.374
20150TIP3   OH260334   3.754   6.362   8.516
20150TIP3    H160335   3.675   6.395   8.564
20150TIP3    H260336   3.785   6.443   8.471
20151TIP3   OH260337   2.370   6.096   9.309
20151TIP3    H160338   2.468   6.089   9.313
20151TIP3    H260339   2.345   6.010   9.349
20152TIP3   OH260340   4.209   5.955   9.073
20152TIP3    H160341   4.265   5.888   9.028
20152TIP3    H260342   4.176   6.007   8.996
20153TIP3   OH260343   3.632   5.793   7.827
20153TIP3    H160344   3.679   5.777   7.911
20153TIP3    H260345   3.570   5.717   7.825
20154TIP3   OH260346   2.334   5.778   8.646
20154TIP3    H160347   2.397   5.704   8.656
20154TIP3    H260348   2.393   5.854   8.641
20155TIP3   OH260349   2.138   6.052   8.723
20155TIP3    H160350   2.182   6.044   8.636
20155TIP3    H260351   2.160   6.143   8.747
20156TIP3   OH260352   4.076   6.091   8.879
20156TIP3    H160353   3.989   6.133   8.899
20156TIP3    H260354   4.045   6.020   8.819
20157TIP3   OH260355   3.713   5.729   7.460
20157TIP3    H160356   3.751   5.656   7.407
20157TIP3    H260357   3.780   5.798   7.453
20158TIP3   OH260358   2.119   5.559   8.224
20158TIP3    H160359   2.024   5.555   8.247
20158TIP3    H260360   2.117   5.614   8.143
20159TIP3   OH260361   3.277   7.261   7.725
20159TIP3    H160362   3.330   7.248   7.644
20159TIP3    H260363   3.329   7.326   7.774
20160TIP3   OH260364   2.342   5.634   9.026
20160TIP3    H160365   2.290   5.632   9.108
20160TIP3    H260366   2.278   5.676   8.965
20161TIP3   OH260367   2.379   7.064   9.112
20161TIP3    H160368   2.287   7.036   9.095
20161TIP3    H260369   2.389   7.043   9.206
20162TIP3   OH260370   2.556   7.097   8.660
20162TIP3    H160371   2.507   7.172   8.621
20162TIP3    H260372   2.641   7.111   8.615
20163TIP3   OH260373   3.001   7.341   8.797
20163TIP3    H160374   3.043   7.342   8.886
20163TIP3    H260375   3.067   7.392   8.745
20164TIP3   OH260376   3.179   7.493   8.655
20164TIP3    H160377   3.250   7.441   8.614
20164TIP3    H260378   3.231   7.549   8.717
20165TIP3   OH260379   3.974   5.855   8.756
20165TIP3    H160380   3.883   5.849   8.721
20165TIP3    H260381   4.004   5.762   8.744
20166TIP3   OH260382   2.235   7.355   8.683
20166TIP3    H160383   2.144   7.385   8.659
20166TIP3    H260384   2.245   7.397   8.769
20167TIP3   OH260385   2.469   7.333   8.541
20167TIP3    H160386   2.383   7.345   8.586
20167TIP3    H260387   2.448   7.364   8.450
20168TIP3   OH260388   2.895   7.362   8.337
20168TIP3    H160389   2.824   7.381   8.274
20168TIP3    H260390   2.906   7.449   8.381
20169TIP3   OH260391   3.163   7.300   8.390
20169TIP3    H160392   3.069   7.317   8.370
20169TIP3    H260393   3.206   7.377   8.348
20170TIP3   OH260394   3.371   7.493   8.305
20170TIP3    H160395   3.357   7.577   8.257
20170TIP3    H260396   3.397   7.432   8.233
20171TIP3   OH260397   2.144   7.148   8.428
20171TIP3    H160398   2.170   7.121   8.519
20171TIP3    H260399   2.215   7.103   8.377
20172TIP3   OH260400   2.337   7.020   8.285
20172TIP3    H160401   2.352   6.936   8.334
20172TIP3    H260402   2.429   7.055   8.280
20173TIP3   OH260403   2.605   7.114   8.287
20173TIP3    H160404   2.635   7.021   8.276
20173TIP3    H260405   2.648   7.134   8.372
20174TIP3   OH260406   3.181   5.770   8.377
20174TIP3    H160407   3.136   5.701   8.428
20174TIP3    H260408   3.250   5.721   8.330
20175TIP3   OH260409   3.703   5.654   8.284
20175TIP3    H160410   3.738   5.704   8.206
20175TIP3    H260411   3.607   5.667   8.273
20176TIP3   OH260412   3.798   5.750   8.045
20176TIP3    H160413   3.871   5.699   8.003
20176TIP3    H260414   3.830   5.842   8.029
20177TIP3   OH260415   2.428   5.480   8.391
20177TIP3    H160416   2.335   5.448   8.392
20177TIP3    H260417   2.476   5.395   8.387
20178TIP3   OH260418   2.222   5.349   8.034
20178TIP3    H160419   2.245   5.412   7.963
20178TIP3    H260420   2.187   5.410   8.103
20179TIP3   OH260421   2.870   5.512   8.270
20179TIP3    H160422   2.930   5.559   8.210
20179TIP3    H260423   2.894   5.549   8.356
20180TIP3   OH260424   3.422   5.657   8.253
20180TIP3    H160425   3.416   5.618   8.165
20180TIP3    H260426   3.408   5.578   8.311
20181TIP3   OH260427   3.449   5.581   7.819
20181TIP3    H160428   3.361   5.621   7.829
20181TIP3    H260429   3.435   5.495   7.864
20182TIP3   OH260430   1.932   6.918   7.816
20182TIP3    H160431   1.847   6.884   7.783
20182TIP3    H260432   1.919   7.013   7.801
20183TIP3   OH260433   2.331   5.507   7.803
20183TIP3    H160434   2.380   5.447   7.743
20183TIP3    H260435   2.404   5.562   7.839
20184TIP3   OH260436   2.844   5.683   7.901
20184TIP3    H160437   2.903   5.635   7.960
20184TIP3    H260438   2.866   5.775   7.927
20185TIP3   OH260439   2.703   7.108   7.399
20185TIP3    H160440   2.792   7.130   7.364
20185TIP3    H260441   2.681   7.032   7.340
20186TIP3   OH260442   3.422   7.225   7.491
20186TIP3    H160443   3.413   7.127   7.481
20186TIP3    H260444   3.373   7.256   7.412
20187TIP3   OH260445   2.633   5.758   9.273
20187TIP3    H160446   2.605   5.683   9.329
20187TIP3    H260447   2.728   5.763   9.299
20188TIP3   OH260448   2.885   5.750   9.379
20188TIP3    H160449   2.975   5.730   9.347
20188TIP3    H260450   2.878   5.694   9.459
20189TIP3   OH260451   2.009   6.948   7.458
20189TIP3    H160452   2.005   6.966   7.553
20189TIP3    H260453   2.096   6.905   7.447
20190TIP3   OH260454   3.710   5.818   9.189
20190TIP3    H160455   3.729   5.786   9.280
20190TIP3    H260456   3.798   5.813   9.147
20191TIP3   OH260457   3.649   7.370   8.682
20191TIP3    H160458   3.570   7.339   8.632
20191TIP3    H260459   3.629   7.466   8.685
20192TIP3   OH260460   4.915   6.742   7.448
20192TIP3    H160461   4.887   6.834   7.427
20192TIP3    H260462   4.838   6.693   7.414
20193TIP3   OH260463   4.918   6.742   7.826
20193TIP3    H160464   4.944   6.711   7.914
20193TIP3    H260465   4.872   6.664   7.790
20194TIP3   OH260466   4.214   6.638   8.193
20194TIP3    H160467   4.246   6.570   8.256
20194TIP3    H260468   4.292   6.695   8.186
20195TIP3   OH260469   5.159   7.043   7.510
20195TIP3    H160470   5.141   6.978   7.579
20195TIP3    H260471   5.186   7.121   7.561
20196TIP3   OH260472   4.185   7.048   7.920
20196TIP3    H160473   4.177   6.950   7.922
20196TIP3    H260474   4.282   7.057   7.910
20197TIP3   OH260475   3.892   6.252   7.704
20197TIP3    H160476   3.843   6.334   7.718
20197TIP3    H260477   3.822   6.196   7.665
20198TIP3   OH260478   3.951   6.538   7.876
20198TIP3    H160479   3.999   6.461   7.912
20198TIP3    H260480   4.009   6.567   7.805
20199TIP3   OH260481   4.803   7.505   7.523
20199TIP3    H160482   4.852   7.434   7.477
20199TIP3    H260483   4.798   7.471   7.613
20200TIP3   OH260484   4.712   6.968   7.878
20200TIP3    H160485   4.750   6.894   7.828
20200TIP3    H260486   4.795   7.013   7.902
20201TIP3   OH260487   5.725   6.288   7.873
20201TIP3    H160488   5.757   6.371   7.915
20201TIP3    H260489   5.745   6.306   7.780
20202TIP3   OH260490   5.126   6.469   7.910
20202TIP3    H160491   5.167   6.382   7.928
20202TIP3    H260492   5.094   6.456   7.819
20203TIP3   OH260493   4.464   6.129   7.874
20203TIP3    H160494   4.443   6.202   7.812
20203TIP3    H260495   4.416   6.055   7.831
20204TIP3   OH260496   5.157   6.222   7.497
20204TIP3    H160497   5.229   6.205   7.561
20204TIP3    H260498   5.208   6.256   7.422
20205TIP3   OH260499   4.097   6.331   7.981
20205TIP3    H160500   4.179   6.311   8.029
20205TIP3    H260501   4.109   6.275   7.902
20206TIP3   OH260502   4.537   6.529   7.775
20206TIP3    H160503   4.631   6.503   7.787
20206TIP3    H260504   4.498   6.445   7.742
20207TIP3   OH260505   5.800   6.494   8.043
20207TIP3    H160506   5.717   6.542   8.023
20207TIP3    H260507   5.811   6.515   8.137
20208TIP3   OH260508   4.460   6.113   8.309
20208TIP3    H160509   4.400   6.149   8.241
20208TIP3    H260510   4.407   6.131   8.390
20209TIP3   OH260511   4.806   6.963   7.317
20209TIP3    H160512   4.764   6.946   7.232
20209TIP3    H260513   4.764   7.048   7.343
20210TIP3   OH260514   4.567   6.888   8.105
20210TIP3    H160515   4.504   6.954   8.141
20210TIP3    H260516   4.607   6.938   8.031
20211TIP3   OH260517   5.368   6.223   7.668
20211TIP3    H160518   5.358   6.172   7.749
20211TIP3    H260519   5.421   6.299   7.697
20212TIP3   OH260520   4.331   6.228   8.093
20212TIP3    H160521   4.393   6.300   8.116
20212TIP3    H260522   4.379   6.187   8.017
20213TIP3   OH260523   4.395   7.082   8.202
20213TIP3    H160524   4.369   7.168   8.162
20213TIP3    H260525   4.315   7.067   8.258
20214TIP3   OH260526   3.789   6.771   7.438
20214TIP3    H160527   3.748   6.799   7.354
20214TIP3    H260528   3.820   6.857   7.475
20215TIP3   OH260529   5.229   7.287   7.677
20215TIP3    H160530   5.139   7.280   7.717
20215TIP3    H260531   5.222   7.373   7.631
20216TIP3   OH260532   5.518   6.193   8.043
20216TIP3    H160533   5.430   6.215   8.008
20216TIP3    H260534   5.577   6.222   7.970
20217TIP3   OH260535   4.817   5.832   8.024
20217TIP3    H160536   4.802   5.737   8.040
20217TIP3    H260537   4.738   5.870   8.070
20218TIP3   OH260538   4.932   7.332   7.353
20218TIP3    H160539   4.981   7.250   7.329
20218TIP3    H260540   4.992   7.399   7.313
20219TIP3   OH260541   5.073   7.117   7.258
20219TIP3    H160542   5.034   7.038   7.219
20219TIP3    H260543   5.109   7.082   7.342
20220TIP3   OH260544   5.454   7.198   8.023
20220TIP3    H160545   5.443   7.123   7.961
20220TIP3    H260546   5.434   7.275   7.965
20221TIP3   OH260547   4.746   6.594   7.279
20221TIP3    H160548   4.665   6.646   7.258
20221TIP3    H260549   4.791   6.592   7.193
20222TIP3   OH260550   4.704   6.379   6.995
20222TIP3    H160551   4.771   6.430   7.043
20222TIP3    H260552   4.762   6.316   6.947
20223TIP3   OH260553   5.648   6.834   7.864
20223TIP3    H160554   5.567   6.889   7.869
20223TIP3    H260555   5.680   6.860   7.775
20224TIP3   OH260556   5.093   6.676   7.251
20224TIP3    H160557   5.038   6.701   7.329
20224TIP3    H260558   5.177   6.652   7.295
20225TIP3   OH260559   5.327   6.718   8.162
20225TIP3    H160560   5.321   6.807   8.201
20225TIP3    H260561   5.240   6.715   8.116
20226TIP3   OH260562   4.324   6.674   7.668
20226TIP3    H160563   4.283   6.617   7.600
20226TIP3    H260564   4.402   6.621   7.695
20227TIP3   OH260565   4.453   7.082   7.818
20227TIP3    H160566   4.434   7.046   7.730
20227TIP3    H260567   4.544   7.049   7.834
20228TIP3   OH260568   4.464   6.645   8.023
20228TIP3    H160569   4.494   6.624   7.932
20228TIP3    H260570   4.505   6.732   8.040
20229TIP3   OH260571   4.989   7.284   7.799
20229TIP3    H160572   4.972   7.365   7.849
20229TIP3    H260573   4.971   7.213   7.863
20230TIP3   OH260574   4.599   7.200   8.348
20230TIP3    H160575   4.539   7.264   8.391
20230TIP3    H260576   4.535   7.148   8.296
20231TIP3   OH260577   4.934   6.534   7.076
20231TIP3    H160578   4.992   6.595   7.127
20231TIP3    H260579   4.960   6.557   6.984
20232TIP3   OH260580   4.355   6.757   8.448
20232TIP3    H160581   4.359   6.845   8.490
20232TIP3    H260582   4.259   6.738   8.457
20233TIP3   OH260583   4.677   7.215   7.353
20233TIP3    H160584   4.756   7.269   7.368
20233TIP3    H260585   4.616   7.278   7.312
20234TIP3   OH260586   4.395   7.370   8.432
20234TIP3    H160587   4.360   7.372   8.341
20234TIP3    H260588   4.314   7.348   8.484
20235TIP3   OH260589   5.450   5.776   7.125
20235TIP3    H160590   5.368   5.795   7.175
20235TIP3    H260591   5.462   5.859   7.075
20236TIP3   OH260592   4.192   6.517   7.472
20236TIP3    H160593   4.126   6.562   7.415
20236TIP3    H260594   4.150   6.431   7.484
20237TIP3   OH260595   5.246   7.144   6.672
20237TIP3    H160596   5.254   7.241   6.659
20237TIP3    H260597   5.340   7.116   6.661
20238TIP3   OH260598   3.973   6.901   8.379
20238TIP3    H160599   3.906   6.880   8.310
20238TIP3    H260600   4.009   6.813   8.401
20239TIP3   OH260601   3.827   7.095   8.011
20239TIP3    H160602   3.923   7.088   8.002
20239TIP3    H260603   3.818   7.174   8.066
20240TIP3   OH260604   5.693   7.547   8.071
20240TIP3    H160605   5.688   7.451   8.080
20240TIP3    H260606   5.609   7.574   8.114
20241TIP3   OH260607   4.799   7.329   8.204
20241TIP3    H160608   4.797   7.422   8.234
20241TIP3    H260609   4.726   7.291   8.257
20242TIP3   OH260610   4.557   7.459   7.155
20242TIP3    H160611   4.514   7.444   7.069
20242TIP3    H260612   4.528   7.549   7.179
20243TIP3   OH260613   3.995   7.306   7.538
20243TIP3    H160614   4.047   7.302   7.621
20243TIP3    H260615   3.938   7.228   7.548
20244TIP3   OH260616   4.758   7.360   6.794
20244TIP3    H160617   4.818   7.292   6.757
20244TIP3    H260618   4.794   7.372   6.885
20245TIP3   OH260619   4.809   7.409   7.064
20245TIP3    H160620   4.721   7.419   7.107
20245TIP3    H260621   4.861   7.373   7.138
20246TIP3   OH260622   5.561   6.667   8.351
20246TIP3    H160623   5.486   6.688   8.291
20246TIP3    H260624   5.579   6.574   8.324
20247TIP3   OH260625   4.178   7.083   8.367
20247TIP3    H160626   4.227   7.067   8.450
20247TIP3    H260627   4.103   7.021   8.374
20248TIP3   OH260628   4.577   5.908   8.151
20248TIP3    H160629   4.489   5.876   8.124
20248TIP3    H260630   4.551   5.990   8.197
20249TIP3   OH260631   5.110   6.025   8.347
20249TIP3    H160632   5.178   5.993   8.410
20249TIP3    H260633   5.026   6.003   8.392
20250TIP3   OH260634   5.353   6.456   8.269
20250TIP3    H160635   5.298   6.450   8.350
20250TIP3    H260636   5.320   6.538   8.227
20251TIP3   OH260637   5.010   6.579   6.820
20251TIP3    H160638   4.976   6.555   6.732
20251TIP3    H260639   5.088   6.632   6.796
20252TIP3   OH260640   4.723   5.956   7.123
20252TIP3    H160641   4.689   5.953   7.214
20252TIP3    H260642   4.683   5.874   7.088
20253TIP3   OH260643   4.510   6.423   8.171
20253TIP3    H160644   4.457   6.443   8.251
20253TIP3    H260645   4.494   6.504   8.117
20254TIP3   OH260646   4.393   6.309   7.684
20254TIP3    H160647   4.300   6.284   7.702
20254TIP3    H260648   4.405   6.269   7.595
20255TIP3   OH260649   4.884   6.396   7.412
20255TIP3    H160650   4.831   6.467   7.370
20255TIP3    H260651   4.937   6.364   7.337
20256TIP3   OH260652   5.057   6.673   8.499
20256TIP3    H160653   5.031   6.600   8.560
20256TIP3    H260654   5.150   6.684   8.523
20257TIP3   OH260655   5.040   6.424   7.651
20257TIP3    H160656   4.980   6.455   7.580
20257TIP3    H260657   5.073   6.343   7.607
20258TIP3   OH260658   4.330   6.452   8.378
20258TIP3    H160659   4.349   6.517   8.447
20258TIP3    H260660   4.316   6.371   8.430
20259TIP3   OH260661   4.378   5.930   7.089
20259TIP3    H160662   4.369   5.927   7.186
20259TIP3    H260663   4.299   5.982   7.064
20260TIP3   OH260664   3.920   5.975   7.960
20260TIP3    H160665   3.997   6.005   8.012
20260TIP3    H260666   3.959   5.941   7.878
20261TIP3   OH260667   3.894   5.955   7.479
20261TIP3    H160668   3.939   5.994   7.401
20261TIP3    H260669   3.832   6.028   7.500
20262TIP3   OH260670   5.058   6.669   8.076
20262TIP3    H160671   5.086   6.597   8.015
20262TIP3    H260672   5.022   6.616   8.150
20263TIP3   OH260673   4.721   6.131   7.746
20263TIP3    H160674   4.637   6.130   7.796
20263TIP3    H260675   4.787   6.131   7.817
20264TIP3   OH260676   4.154   6.187   7.754
20264TIP3    H160677   4.060   6.195   7.726
20264TIP3    H260678   4.176   6.095   7.730
20265TIP3   OH260679   4.424   6.184   7.442
20265TIP3    H160680   4.517   6.199   7.419
20265TIP3    H260681   4.376   6.206   7.359
20266TIP3   OH260682   5.213   6.206   7.949
20266TIP3    H160683   5.175   6.219   8.039
20266TIP3    H260684   5.147   6.145   7.911
20267TIP3   OH260685   4.266   6.217   7.221
20267TIP3    H160686   4.193   6.173   7.174
20267TIP3    H260687   4.317   6.253   7.146
20268TIP3   OH260688   5.382   7.895   8.166
20268TIP3    H160689   5.379   7.920   8.072
20268TIP3    H260690   5.461   7.944   8.196
20269TIP3   OH260691   4.339   7.005   8.588
20269TIP3    H160692   4.418   7.037   8.636
20269TIP3    H260693   4.274   7.005   8.660
20270TIP3   OH260694   4.803   6.460   7.844
20270TIP3    H160695   4.875   6.420   7.792
20270TIP3    H260696   4.812   6.415   7.930
20271TIP3   OH260697   4.328   5.947   7.722
20271TIP3    H160698   4.291   5.868   7.768
20271TIP3    H260699   4.374   5.907   7.647
20272TIP3   OH260700   4.779   6.355   8.133
20272TIP3    H160701   4.689   6.391   8.145
20272TIP3    H260702   4.835   6.419   8.183
20273TIP3   OH260703   4.517   6.747   7.228
20273TIP3    H160704   4.444   6.682   7.217
20273TIP3    H260705   4.498   6.781   7.319
20274TIP3   OH260706   5.417   6.982   7.857
20274TIP3    H160707   5.441   7.033   7.777
20274TIP3    H260708   5.331   6.941   7.831
20275TIP3   OH260709   4.975   6.059   7.091
20275TIP3    H160710   4.878   6.041   7.098
20275TIP3    H260711   4.983   6.153   7.114
20276TIP3   OH260712   4.918   7.066   8.226
20276TIP3    H160713   4.932   7.047   8.319
20276TIP3    H260714   4.879   7.155   8.227
20277TIP3   OH260715   5.043   6.307   7.194
20277TIP3    H160716   5.140   6.314   7.209
20277TIP3    H260717   5.023   6.387   7.141
20278TIP3   OH260718   4.209   6.770   7.904
20278TIP3    H160719   4.246   6.741   7.818
20278TIP3    H260720   4.248   6.705   7.965
20279TIP3   OH260721   4.662   6.896   7.049
20279TIP3    H160722   4.614   6.983   7.053
20279TIP3    H260723   4.607   6.842   7.110
20280TIP3   OH260724   4.090   6.687   8.516
20280TIP3    H160725   4.106   6.674   8.611
20280TIP3    H260726   4.018   6.623   8.499
20281TIP3   OH260727   4.813   6.803   8.538
20281TIP3    H160728   4.751   6.746   8.489
20281TIP3    H260729   4.899   6.768   8.506
20282TIP3   OH260730   5.078   7.318   8.125
20282TIP3    H160731   4.981   7.322   8.133
20282TIP3    H260732   5.105   7.375   8.200
20283TIP3   OH260733   5.488   6.397   7.028
20283TIP3    H160734   5.425   6.353   6.966
20283TIP3    H260735   5.483   6.487   6.988
20284TIP3   OH260736   5.704   7.252   8.112
20284TIP3    H160737   5.606   7.250   8.099
20284TIP3    H260738   5.733   7.224   8.022
20285TIP3   OH260739   5.188   7.216   6.938
20285TIP3    H160740   5.159   7.146   6.998
20285TIP3    H260741   5.199   7.169   6.852
20286TIP3   OH260742   5.183   6.844   7.779
20286TIP3    H160743   5.089   6.820   7.790
20286TIP3    H260744   5.216   6.766   7.731
20287TIP3   OH260745   4.311   7.073   7.529
20287TIP3    H160746   4.312   7.155   7.475
20287TIP3    H260747   4.216   7.059   7.538
20288TIP3   OH260748   3.873   6.377   7.232
20288TIP3    H160749   3.919   6.461   7.253
20288TIP3    H260750   3.796   6.382   7.293
20289TIP3   OH260751   4.448   6.838   7.473
20289TIP3    H160752   4.413   6.928   7.490
20289TIP3    H260753   4.410   6.789   7.548
20290TIP3   OH260754   4.578   7.417   7.997
20290TIP3    H160755   4.617   7.491   7.945
20290TIP3    H260756   4.657   7.385   8.044
20291TIP3   OH260757   4.231   7.310   7.381
20291TIP3    H160758   4.145   7.322   7.425
20291TIP3    H260759   4.266   7.402   7.385
20292TIP3   OH260760   4.966   7.049   7.956
20292TIP3    H160761   4.958   7.049   8.054
20292TIP3    H260762   5.046   6.998   7.942
20293TIP3   OH260763   4.942   6.940   6.839
20293TIP3    H160764   4.994   6.916   6.919
20293TIP3    H260765   4.852   6.919   6.869
20294TIP3   OH260766   5.215   7.585   8.004
20294TIP3    H160767   5.134   7.532   7.994
20294TIP3    H260768   5.203   7.651   7.933
20295TIP3   OH260769   5.280   7.419   6.658
20295TIP3    H160770   5.313   7.491   6.602
20295TIP3    H260771   5.200   7.464   6.694
20296TIP3   OH260772   4.299   6.196   8.525
20296TIP3    H160773   4.202   6.200   8.536
20296TIP3    H260774   4.325   6.134   8.595
20297TIP3   OH260775   5.102   6.876   7.056
20297TIP3    H160776   5.092   6.810   7.128
20297TIP3    H260777   5.199   6.875   7.043
20298TIP3   OH260778   4.015   7.279   8.157
20298TIP3    H160779   4.070   7.206   8.190
20298TIP3    H260780   4.046   7.352   8.213
20299TIP3   OH260781   4.307   6.923   6.838
20299TIP3    H160782   4.322   6.831   6.811
20299TIP3    H260783   4.288   6.912   6.934
20300TIP3   OH260784   4.252   6.929   7.112
20300TIP3    H160785   4.326   6.904   7.169
20300TIP3    H260786   4.255   7.027   7.118
20301TIP3   OH260787   3.989   6.623   7.314
20301TIP3    H160788   3.923   6.667   7.371
20301TIP3    H260789   4.003   6.692   7.247
20302TIP3   OH260790   5.137   6.262   8.210
20302TIP3    H160791   5.221   6.292   8.247
20302TIP3    H260792   5.120   6.179   8.260
20303TIP3   OH260793   5.018   6.010   7.371
20303TIP3    H160794   5.003   6.032   7.277
20303TIP3    H260795   5.056   6.094   7.406
20304TIP3   OH260796   4.518   7.126   7.059
20304TIP3    H160797   4.431   7.154   7.095
20304TIP3    H260798   4.537   7.200   7.000
20305TIP3   OH260799   4.708   6.190   7.473
20305TIP3    H160800   4.772   6.262   7.456
20305TIP3    H260801   4.712   6.184   7.571
20306TIP3   OH260802   4.975   6.508   8.280
20306TIP3    H160803   4.996   6.561   8.359
20306TIP3    H260804   5.028   6.428   8.292
20307TIP3   OH260805   4.851   5.918   7.577
20307TIP3    H160806   4.840   5.997   7.633
20307TIP3    H260807   4.912   5.953   7.507
20308TIP3   OH260808   4.260   7.200   7.128
20308TIP3    H160809   4.233   7.271   7.065
20308TIP3    H260810   4.247   7.246   7.214
20309TIP3   OH260811   4.362   5.916   7.366
20309TIP3    H160812   4.360   6.006   7.401
20309TIP3    H260813   4.459   5.897   7.373
20310TIP3   OH260814   5.618   6.412   8.263
20310TIP3    H160815   5.520   6.409   8.269
20310TIP3    H260816   5.630   6.364   8.179
20311TIP3   OH260817   5.268   6.603   7.650
20311TIP3    H160818   5.191   6.544   7.661
20311TIP3    H260819   5.338   6.555   7.698
20312TIP3   OH260820   3.980   6.833   7.119
20312TIP3    H160821   4.048   6.902   7.129
20312TIP3    H260822   4.024   6.777   7.052
20313TIP3   OH260823   3.924   6.107   7.253
20313TIP3    H160824   3.923   6.205   7.249
20313TIP3    H260825   3.842   6.085   7.210
20314TIP3   OH260826   5.237   7.557   7.600
20314TIP3    H160827   5.193   7.604   7.525
20314TIP3    H260828   5.331   7.577   7.578
20315TIP3   OH260829   4.313   5.828   8.126
20315TIP3    H160830   4.281   5.794   8.039
20315TIP3    H260831   4.302   5.749   8.183
20316TIP3   OH260832   3.850   7.042   7.508
20316TIP3    H160833   3.779   7.076   7.563
20316TIP3    H260834   3.830   7.083   7.421
20317TIP3   OH260835   4.008   7.588   8.579
20317TIP3    H160836   4.094   7.588   8.626
20317TIP3    H260837   3.987   7.493   8.577
20318TIP3   OH260838   4.489   7.550   8.626
20318TIP3    H160839   4.584   7.536   8.628
20318TIP3    H260840   4.463   7.493   8.551
20319TIP3   OH260841   4.469   7.128   6.750
20319TIP3    H160842   4.415   7.056   6.788
20319TIP3    H260843   4.546   7.077   6.717
20320TIP3   OH260844   5.128   7.460   8.357
20320TIP3    H160845   5.121   7.390   8.426
20320TIP3    H260846   5.205   7.511   8.387
20321TIP3   OH260847   4.906   7.168   6.661
20321TIP3    H160848   4.955   7.108   6.720
20321TIP3    H260849   4.961   7.171   6.581
20322TIP3   OH260850   4.138   6.994   8.779
20322TIP3    H160851   4.154   6.898   8.782
20322TIP3    H260852   4.051   6.998   8.735
20323TIP3   OH260853   4.114   6.645   6.972
20323TIP3    H160854   4.170   6.612   7.045
20323TIP3    H260855   4.181   6.650   6.900
20324TIP3   OH260856   4.747   7.079   8.552
20324TIP3    H160857   4.702   7.099   8.467
20324TIP3    H260858   4.774   6.986   8.542
20325TIP3   OH260859   4.625   6.843   6.780
20325TIP3    H160860   4.628   6.856   6.877
20325TIP3    H260861   4.624   6.745   6.775
20326TIP3   OH260862   5.240   7.086   8.163
20326TIP3    H160863   5.311   7.132   8.115
20326TIP3    H260864   5.167   7.150   8.150
20327TIP3   OH260865   4.256   6.730   8.762
20327TIP3    H160866   4.330   6.673   8.739
20327TIP3    H260867   4.283   6.762   8.851
20328TIP3   OH260868   4.324   6.548   7.195
20328TIP3    H160869   4.296   6.506   7.277
20328TIP3    H260870   4.360   6.473   7.143
20329TIP3   OH260871   4.595   6.616   8.426
20329TIP3    H160872   4.515   6.671   8.426
20329TIP3    H260873   4.642   6.648   8.345
20330TIP3   OH260874   4.424   6.342   7.035
20330TIP3    H160875   4.398   6.346   6.941
20330TIP3    H260876   4.521   6.347   7.027
20331TIP3   OH260877   5.109   7.016   8.561
20331TIP3    H160878   5.179   6.985   8.503
20331TIP3    H260879   5.104   6.946   8.628
20332TIP3   OH260880   5.249   6.673   6.697
20332TIP3    H160881   5.225   6.628   6.614
20332TIP3    H260882   5.216   6.763   6.676
20333TIP3   OH260883   4.718   6.402   8.547
20333TIP3    H160884   4.715   6.322   8.491
20333TIP3    H260885   4.673   6.468   8.490
20334TIP3   OH260886   4.718   6.188   8.357
20334TIP3    H160887   4.745   6.229   8.272
20334TIP3    H260888   4.625   6.165   8.338
20335TIP3   OH260889   4.747   6.725   8.230
20335TIP3    H160890   4.828   6.735   8.179
20335TIP3    H260891   4.688   6.790   8.186
20336TIP3   OH260892   5.323   6.688   8.613
20336TIP3    H160893   5.369   6.603   8.614
20336TIP3    H260894   5.379   6.745   8.559
20337TIP3   OH260895   5.372   6.945   8.348
20337TIP3    H160896   5.310   6.997   8.291
20337TIP3    H260897   5.456   6.966   8.302
20338TIP3   OH260898   4.597   6.511   8.781
20338TIP3    H160899   4.527   6.444   8.794
20338TIP3    H260900   4.628   6.489   8.691
20339TIP3   OH260901   4.851   5.952   8.424
20339TIP3    H160902   4.801   6.033   8.400
20339TIP3    H260903   4.782   5.883   8.411
20340TIP3   OH260904   4.976   6.455   8.639
20340TIP3    H160905   4.959   6.442   8.735
20340TIP3    H260906   4.887   6.431   8.605
20341TIP3   OH260907   5.218   6.410   8.498
20341TIP3    H160908   5.139   6.408   8.556
20341TIP3    H260909   5.288   6.372   8.554
20342TIP3   OH260910   5.458   6.353   8.643
20342TIP3    H160911   5.467   6.256   8.656
20342TIP3    H260912   5.449   6.386   8.735
20343TIP3   OH260913   4.434   6.293   8.831
20343TIP3    H160914   4.437   6.202   8.796
20343TIP3    H260915   4.468   6.279   8.922
20344TIP3   OH260916   4.946   5.962   8.681
20344TIP3    H160917   5.012   5.890   8.674
20344TIP3    H260918   4.905   5.956   8.592
20345TIP3   OH260919   5.011   6.176   8.840
20345TIP3    H160920   4.990   6.104   8.775
20345TIP3    H260921   4.933   6.234   8.832
20346TIP3   OH260922   4.230   7.397   6.939
20346TIP3    H160923   4.326   7.396   6.925
20346TIP3    H260924   4.204   7.451   6.862
20347TIP3   OH260925   3.711   6.787   7.156
20347TIP3    H160926   3.806   6.809   7.141
20347TIP3    H260927   3.705   6.698   7.114
20348TIP3   OH260928   3.626   7.394   7.566
20348TIP3    H160929   3.556   7.332   7.536
20348TIP3    H260930   3.671   7.340   7.635
20349TIP3   OH260931   3.761   7.249   7.755
20349TIP3    H160932   3.751   7.177   7.819
20349TIP3    H260933   3.814   7.312   7.808
20350TIP3   OH260934   5.491   7.646   7.557
20350TIP3    H160935   5.515   7.687   7.641
20350TIP3    H260936   5.545   7.695   7.494
20351TIP3   OH260937   5.515   7.672   7.840
20351TIP3    H160938   5.475   7.583   7.833
20351TIP3    H260939   5.595   7.651   7.890
20352TIP3   OH260940   5.569   7.343   8.418
20352TIP3    H160941   5.492   7.356   8.477
20352TIP3    H260942   5.608   7.433   8.415
20353TIP3   OH260943   5.381   6.859   7.031
20353TIP3    H160944   5.447   6.925   7.002
20353TIP3    H260945   5.426   6.821   7.110
20354TIP3   OH260946   5.510   6.725   7.233
20354TIP3    H160947   5.443   6.685   7.293
20354TIP3    H260948   5.573   6.765   7.296
20355TIP3   OH260949   5.563   7.119   7.669
20355TIP3    H160950   5.614   7.056   7.615
20355TIP3    H260951   5.557   7.196   7.609
20356TIP3   OH260952   5.394   7.417   7.866
20356TIP3    H160953   5.323   7.465   7.912
20356TIP3    H260954   5.345   7.373   7.793
20357TIP3   OH260955   5.447   6.634   6.881
20357TIP3    H160956   5.376   6.637   6.813
20357TIP3    H260957   5.420   6.711   6.936
20358TIP3   OH260958   5.320   6.307   6.835
20358TIP3    H160959   5.273   6.348   6.761
20358TIP3    H260960   5.294   6.213   6.824
20359TIP3   OH260961   5.323   6.584   7.381
20359TIP3    H160962   5.329   6.487   7.375
20359TIP3    H260963   5.309   6.598   7.478
20360TIP3   OH260964   3.949   6.656   8.129
20360TIP3    H160965   3.946   6.626   8.035
20360TIP3    H260966   4.046   6.658   8.144
20361TIP3   OH260967   5.614   7.004   8.231
20361TIP3    H160968   5.698   6.957   8.222
20361TIP3    H260969   5.626   7.078   8.168
20362TIP3   OH260970   5.795   6.811   8.319
20362TIP3    H160971   5.730   6.756   8.272
20362TIP3    H260972   5.878   6.762   8.298
20363TIP3   OH260973   5.261   6.041   6.822
20363TIP3    H160974   5.333   6.009   6.879
20363TIP3    H260975   5.186   5.984   6.844
20364TIP3   OH260976   5.319   6.300   7.277
20364TIP3    H160977   5.360   6.211   7.292
20364TIP3    H260978   5.377   6.333   7.206
20365TIP3   OH260979   5.481   6.474   7.773
20365TIP3    H160980   5.566   6.501   7.731
20365TIP3    H260981   5.496   6.510   7.862
20366TIP3   OH260982   5.553   6.622   8.010
20366TIP3    H160983   5.470   6.655   8.049
20366TIP3    H260984   5.582   6.699   7.956
20367TIP3   OH260985   4.166   6.345   8.806
20367TIP3    H160986   4.264   6.337   8.805
20367TIP3    H260987   4.142   6.258   8.844
20368TIP3   OH260988   5.996   6.207   8.559
20368TIP3    H160989   6.059   6.142   8.520
20368TIP3    H260990   5.974   6.263   8.482
20369TIP3   OH260991   5.429   6.049   7.313
20369TIP3    H160992   5.475   6.033   7.398
20369TIP3    H260993   5.367   5.974   7.311
20370TIP3   OH260994   4.128   6.036   8.134
20370TIP3    H160995   4.190   5.961   8.143
20370TIP3    H260996   4.190   6.111   8.127
20371TIP3   OH260997   3.932   6.310   8.208
20371TIP3    H160998   3.979   6.303   8.123
20371TIP3    H260999   3.958   6.397   8.237
20372TIP3   OH261000   5.868   6.348   8.361
20372TIP3    H161001   5.776   6.380   8.362
20372TIP3    H261002   5.856   6.269   8.305
20373TIP3   OH261003   5.511   5.984   6.948
20373TIP3    H161004   5.546   5.912   6.892
20373TIP3    H261005   5.576   6.055   6.935
20374TIP3   OH261006   3.914   5.817   7.710
20374TIP3    H161007   3.820   5.810   7.734
20374TIP3    H261008   3.910   5.873   7.630
20375TIP3   OH261009   5.076   7.513   7.215
20375TIP3    H161010   5.124   7.503   7.130
20375TIP3    H261011   5.124   7.587   7.255
20376TIP3   OH261012   4.135   5.895   8.523
20376TIP3    H161013   4.082   5.888   8.604
20376TIP3    H261014   4.069   5.932   8.461
20377TIP3   OH261015   4.175   7.319   8.599
20377TIP3    H161016   4.082   7.294   8.580
20377TIP3    H261017   4.181   7.304   8.694
20378TIP3   OH261018   4.353   7.353   8.146
20378TIP3    H161019   4.304   7.429   8.107
20378TIP3    H261020   4.438   7.367   8.101
20379TIP3   OH261021   4.797   7.596   8.284
20379TIP3    H161022   4.838   7.600   8.372
20379TIP3    H261023   4.861   7.648   8.231
20380TIP3   OH261024   4.975   7.748   8.145
20380TIP3    H161025   5.046   7.701   8.098
20380TIP3    H261026   5.028   7.806   8.204
20381TIP3   OH261027   5.771   6.109   8.243
20381TIP3    H161028   5.680   6.099   8.209
20381TIP3    H261029   5.805   6.017   8.233
20382TIP3   OH261030   4.027   7.606   8.172
20382TIP3    H161031   3.940   7.643   8.145
20382TIP3    H261032   4.038   7.649   8.258
20383TIP3   OH261033   4.264   7.587   8.028
20383TIP3    H161034   4.177   7.601   8.071
20383TIP3    H261035   4.247   7.622   7.938
20384TIP3   OH261036   4.691   7.616   7.826
20384TIP3    H161037   4.622   7.634   7.759
20384TIP3    H261038   4.702   7.706   7.864
20385TIP3   OH261039   4.959   7.556   7.878
20385TIP3    H161040   4.865   7.574   7.859
20385TIP3    H261041   5.002   7.630   7.833
20386TIP3   OH261042   5.166   7.749   7.792
20386TIP3    H161043   5.151   7.834   7.745
20386TIP3    H261044   5.192   7.690   7.717
20387TIP3   OH261045   3.938   7.402   7.914
20387TIP3    H161046   3.966   7.377   8.005
20387TIP3    H261047   4.011   7.361   7.863
20388TIP3   OH261048   4.132   7.275   7.771
20388TIP3    H161049   4.150   7.192   7.821
20388TIP3    H261050   4.223   7.314   7.766
20389TIP3   OH261051   4.396   7.368   7.776
20389TIP3    H161052   4.431   7.278   7.763
20389TIP3    H261053   4.441   7.393   7.858
20390TIP3   OH261054   4.978   6.028   7.866
20390TIP3    H161055   4.932   5.958   7.915
20390TIP3    H261056   5.046   5.978   7.817
20391TIP3   OH261057   5.499   5.910   7.770
20391TIP3    H161058   5.534   5.960   7.693
20391TIP3    H261059   5.402   5.923   7.760
20392TIP3   OH261060   5.593   6.006   7.532
20392TIP3    H161061   5.667   5.956   7.492
20392TIP3    H261062   5.625   6.098   7.517
20393TIP3   OH261063   4.224   5.735   7.878
20393TIP3    H161064   4.131   5.703   7.880
20393TIP3    H261065   4.272   5.650   7.874
20394TIP3   OH261066   4.012   5.605   7.526
20394TIP3    H161067   4.040   5.663   7.453
20394TIP3    H261068   3.982   5.670   7.593
20395TIP3   OH261069   4.668   5.767   7.758
20395TIP3    H161070   4.727   5.816   7.699
20395TIP3    H261071   4.688   5.807   7.844
20396TIP3   OH261072   5.217   5.914   7.741
20396TIP3    H161073   5.212   5.876   7.653
20396TIP3    H261074   5.203   5.834   7.798
20397TIP3   OH261075   5.245   5.837   7.305
20397TIP3    H161076   5.157   5.879   7.316
20397TIP3    H261077   5.230   5.752   7.351
20398TIP3   OH261078   3.730   7.171   7.302
20398TIP3    H161079   3.646   7.139   7.267
20398TIP3    H261080   3.710   7.264   7.318
20399TIP3   OH261081   4.127   5.765   7.289
20399TIP3    H161082   4.176   5.701   7.232
20399TIP3    H261083   4.201   5.818   7.325
20400TIP3   OH261084   4.640   5.940   7.388
20400TIP3    H161085   4.699   5.892   7.448
20400TIP3    H261086   4.662   6.032   7.413
20401TIP3   OH261087   4.499   7.363   6.890
20401TIP3    H161088   4.587   7.388   6.853
20401TIP3    H261089   4.477   7.290   6.829
20402TIP3   OH261090   5.218   7.483   6.981
20402TIP3    H161091   5.210   7.386   6.967
20402TIP3    H261092   5.170   7.518   6.902
20403TIP3   OH261093   4.432   6.018   8.772
20403TIP3    H161094   4.397   5.946   8.826
20403TIP3    H261095   4.526   6.017   8.798
20404TIP3   OH261096   4.683   6.015   8.890
20404TIP3    H161097   4.765   5.986   8.848
20404TIP3    H261098   4.668   5.944   8.956
20405TIP3   OH261099   3.810   7.225   6.957
20405TIP3    H161100   3.814   7.216   7.053
20405TIP3    H261101   3.887   7.170   6.931
20406TIP3   OH261102   5.506   6.078   8.676
20406TIP3    H161103   5.525   6.044   8.766
20406TIP3    H261104   5.595   6.071   8.634
20407TIP3   OH261105   5.443   7.626   8.170
20407TIP3    H161106   5.366   7.596   8.118
20407TIP3    H261107   5.427   7.723   8.170
20408TIP3   OH261108   6.712   6.999   6.932
20408TIP3    H161109   6.686   7.091   6.914
20408TIP3    H261110   6.632   6.952   6.903
20409TIP3   OH261111   6.715   6.998   7.317
20409TIP3    H161112   6.739   6.977   7.409
20409TIP3    H261113   6.670   6.918   7.288
20410TIP3   OH261114   6.010   6.897   7.687
20410TIP3    H161115   6.042   6.829   7.749
20410TIP3    H261116   6.090   6.949   7.672
20411TIP3   OH261117   6.955   7.299   6.997
20411TIP3    H161118   6.939   7.233   7.066
20411TIP3    H261119   6.980   7.377   7.050
20412TIP3   OH261120   5.981   7.302   7.406
20412TIP3    H161121   5.973   7.205   7.409
20412TIP3    H261122   6.078   7.312   7.400
20413TIP3   OH261123   5.689   6.510   7.190
20413TIP3    H161124   5.639   6.592   7.207
20413TIP3    H261125   5.618   6.455   7.151
20414TIP3   OH261126   5.745   6.795   7.362
20414TIP3    H161127   5.797   6.720   7.399
20414TIP3    H261128   5.809   6.835   7.301
20415TIP3   OH261129   6.598   7.760   7.010
20415TIP3    H161130   6.649   7.688   6.967
20415TIP3    H261131   6.592   7.730   7.101
20416TIP3   OH261132   6.510   7.225   7.362
20416TIP3    H161133   6.550   7.148   7.318
20416TIP3    H261134   6.593   7.271   7.388
20417TIP3   OH261135   7.521   6.547   7.361
20417TIP3    H161136   7.552   6.630   7.403
20417TIP3    H261137   7.546   6.563   7.268
20418TIP3   OH261138   6.910   6.722   7.399
20418TIP3    H161139   6.961   6.642   7.420
20418TIP3    H261140   6.891   6.708   7.305
20419TIP3   OH261141   6.248   6.384   7.365
20419TIP3    H161142   6.228   6.456   7.302
20419TIP3    H261143   6.211   6.307   7.318
20420TIP3   OH261144   6.953   6.474   6.983
20420TIP3    H161145   7.025   6.459   7.049
20420TIP3    H261146   7.005   6.511   6.910
20421TIP3   OH261147   5.892   6.588   7.467
20421TIP3    H161148   5.974   6.571   7.518
20421TIP3    H261149   5.906   6.529   7.391
20422TIP3   OH261150   6.336   6.785   7.256
20422TIP3    H161151   6.429   6.759   7.273
20422TIP3    H261152   6.296   6.700   7.228
20423TIP3   OH261153   7.596   6.756   7.529
20423TIP3    H161154   7.512   6.801   7.508
20423TIP3    H261155   7.592   6.759   7.626
20424TIP3   OH261156   6.254   6.368   7.794
20424TIP3    H161157   6.194   6.409   7.729
20424TIP3    H261158   6.206   6.388   7.877
20425TIP3   OH261159   6.606   7.223   6.800
20425TIP3    H161160   6.561   7.205   6.716
20425TIP3    H261161   6.561   7.306   6.827
20426TIP3   OH261162   6.344   7.134   7.592
20426TIP3    H161163   6.292   7.208   7.630
20426TIP3    H261164   6.411   7.182   7.540
20427TIP3   OH261165   7.162   6.479   7.157
20427TIP3    H161166   7.146   6.440   7.244
20427TIP3    H261167   7.217   6.556   7.180
20428TIP3   OH261168   6.122   6.485   7.583
20428TIP3    H161169   6.182   6.560   7.608
20428TIP3    H261170   6.174   6.446   7.509
20429TIP3   OH261171   6.190   7.343   7.690
20429TIP3    H161172   6.165   7.428   7.650
20429TIP3    H261173   6.111   7.327   7.745
20430TIP3   OH261174   5.585   7.028   6.925
20430TIP3    H161175   5.542   7.056   6.842
20430TIP3    H261176   5.614   7.114   6.962
20431TIP3   OH261177   7.025   7.544   7.161
20431TIP3    H161178   6.937   7.535   7.203
20431TIP3    H261179   7.016   7.631   7.118
20432TIP3   OH261180   7.318   6.445   7.529
20432TIP3    H161181   7.230   6.476   7.502
20432TIP3    H261182   7.375   6.478   7.456
20433TIP3   OH261183   6.612   6.090   7.506
20433TIP3    H161184   6.603   5.995   7.527
20433TIP3    H261185   6.533   6.126   7.551
20434TIP3   OH261186   6.730   7.587   6.840
20434TIP3    H161187   6.781   7.506   6.816
20434TIP3    H261188   6.789   7.655   6.800
20435TIP3   OH261189   6.873   7.371   6.743
20435TIP3    H161190   6.817   7.296   6.716
20435TIP3    H261191   6.909   7.339   6.829
20436TIP3   OH261192   7.252   7.457   7.509
20436TIP3    H161193   7.239   7.380   7.451
20436TIP3    H261194   7.232   7.532   7.449
20437TIP3   OH261195   6.540   6.848   6.765
20437TIP3    H161196   6.462   6.903   6.745
20437TIP3    H261197   6.589   6.851   6.681
20438TIP3   OH261198   6.497   6.628   6.492
20438TIP3    H161199   6.564   6.685   6.534
20438TIP3    H261200   6.556   6.575   6.434
20439TIP3   OH261201   7.450   7.101   7.354
20439TIP3    H161202   7.364   7.148   7.361
20439TIP3    H261203   7.473   7.120   7.261
20440TIP3   OH261204   6.890   6.932   6.737
20440TIP3    H161205   6.835   6.958   6.814
20440TIP3    H261206   6.973   6.907   6.782
20441TIP3   OH261207   7.130   6.980   7.644
20441TIP3    H161208   7.119   7.062   7.694
20441TIP3    H261209   7.039   6.972   7.606
20442TIP3   OH261210   6.122   6.930   7.153
20442TIP3    H161211   6.084   6.873   7.084
20442TIP3    H261212   6.200   6.879   7.182
20443TIP3   OH261213   6.250   7.341   7.304
20443TIP3    H161214   6.234   7.301   7.217
20443TIP3    H261215   6.339   7.306   7.326
20444TIP3   OH261216   6.251   6.898   7.504
20444TIP3    H161217   6.292   6.883   7.416
20444TIP3    H261218   6.294   6.982   7.533
20445TIP3   OH261219   6.787   7.540   7.286
20445TIP3    H161220   6.769   7.621   7.337
20445TIP3    H261221   6.769   7.468   7.349
20446TIP3   OH261222   6.396   7.459   7.833
20446TIP3    H161223   6.336   7.522   7.878
20446TIP3    H261224   6.331   7.407   7.782
20447TIP3   OH261225   6.729   6.792   6.563
20447TIP3    H161226   6.788   6.852   6.614
20447TIP3    H261227   6.755   6.814   6.471
20448TIP3   OH261228   6.142   7.029   7.933
20448TIP3    H161229   6.145   7.116   7.979
20448TIP3    H261230   6.046   7.012   7.932
20449TIP3   OH261231   6.473   7.471   6.837
20449TIP3    H161232   6.551   7.525   6.857
20449TIP3    H261233   6.411   7.535   6.800
20450TIP3   OH261234   6.191   7.627   7.918
20450TIP3    H161235   6.156   7.629   7.827
20450TIP3    H261236   6.111   7.603   7.970
20451TIP3   OH261237   7.246   6.033   6.610
20451TIP3    H161238   7.165   6.053   6.662
20451TIP3    H261239   7.258   6.117   6.561
20452TIP3   OH261240   5.991   6.771   6.951
20452TIP3    H161241   5.925   6.822   6.899
20452TIP3    H261242   5.941   6.691   6.971
20453TIP3   OH261243   7.039   7.404   6.157
20453TIP3    H161244   7.038   7.503   6.157
20453TIP3    H261245   7.097   7.388   6.082
20454TIP3   OH261246   5.766   7.162   7.865
20454TIP3    H161247   5.701   7.142   7.794
20454TIP3    H261248   5.798   7.074   7.892
20455TIP3   OH261249   5.623   7.348   7.505
20455TIP3    H161250   5.718   7.348   7.490
20455TIP3    H261251   5.610   7.432   7.552
20456TIP3   OH261252   7.474   7.791   7.554
20456TIP3    H161253   7.472   7.695   7.571
20456TIP3    H261254   7.389   7.819   7.595
20457TIP3   OH261255   6.594   7.587   7.691
20457TIP3    H161256   6.591   7.680   7.720
20457TIP3    H261257   6.521   7.548   7.744
20458TIP3   OH261258   6.355   7.716   6.641
20458TIP3    H161259   6.311   7.702   6.555
20458TIP3    H261260   6.324   7.805   6.667
20459TIP3   OH261261   5.793   7.565   7.024
20459TIP3    H161262   5.841   7.557   7.109
20459TIP3    H261263   5.728   7.494   7.032
20460TIP3   OH261264   6.554   7.612   6.286
20460TIP3    H161265   6.620   7.552   6.246
20460TIP3    H261266   6.590   7.625   6.376
20461TIP3   OH261267   6.607   7.665   6.554
20461TIP3    H161268   6.518   7.677   6.594
20461TIP3    H261269   6.657   7.632   6.630
20462TIP3   OH261270   7.390   6.947   7.816
20462TIP3    H161271   7.303   6.954   7.774
20462TIP3    H261272   7.402   6.850   7.818
20463TIP3   OH261273   5.974   7.341   7.854
20463TIP3    H161274   6.021   7.326   7.938
20463TIP3    H261275   5.899   7.278   7.861
20464TIP3   OH261276   6.371   6.165   7.634
20464TIP3    H161277   6.280   6.136   7.615
20464TIP3    H261278   6.351   6.247   7.684
20465TIP3   OH261279   6.905   6.274   7.833
20465TIP3    H161280   6.976   6.254   7.898
20465TIP3    H261281   6.823   6.258   7.883
20466TIP3   OH261282   7.158   6.721   7.756
20466TIP3    H161283   7.103   6.701   7.835
20466TIP3    H261284   7.115   6.800   7.720
20467TIP3   OH261285   6.805   6.835   6.307
20467TIP3    H161286   6.768   6.811   6.220
20467TIP3    H261287   6.884   6.886   6.281
20468TIP3   OH261288   6.517   6.213   6.611
20468TIP3    H161289   6.477   6.211   6.699
20468TIP3    H261290   6.480   6.130   6.573
20469TIP3   OH261291   6.298   6.677   7.654
20469TIP3    H161292   6.268   6.710   7.741
20469TIP3    H261293   6.287   6.759   7.599
20470TIP3   OH261294   6.189   6.562   7.171
20470TIP3    H161295   6.093   6.544   7.185
20470TIP3    H261296   6.200   6.527   7.080
20471TIP3   OH261297   6.677   6.647   6.895
20471TIP3    H161298   6.626   6.721   6.855
20471TIP3    H261299   6.735   6.620   6.821
20472TIP3   OH261300   6.836   6.679   7.138
20472TIP3    H161301   6.776   6.711   7.067
20472TIP3    H261302   6.869   6.598   7.093
20473TIP3   OH261303   6.114   6.713   7.875
20473TIP3    H161304   6.186   6.765   7.917
20473TIP3    H261305   6.116   6.630   7.925
20474TIP3   OH261306   6.174   6.188   6.579
20474TIP3    H161307   6.159   6.183   6.675
20474TIP3    H261308   6.096   6.238   6.550
20475TIP3   OH261309   5.714   6.232   7.448
20475TIP3    H161310   5.792   6.261   7.499
20475TIP3    H261311   5.751   6.196   7.366
20476TIP3   OH261312   5.694   6.216   6.967
20476TIP3    H161313   5.735   6.254   6.886
20476TIP3    H261314   5.629   6.286   6.987
20477TIP3   OH261315   6.865   6.931   7.572
20477TIP3    H161316   6.876   6.847   7.523
20477TIP3    H261317   6.800   6.906   7.642
20478TIP3   OH261318   6.495   6.361   7.246
20478TIP3    H161319   6.427   6.395   7.308
20478TIP3    H261320   6.577   6.378   7.296
20479TIP3   OH261321   5.944   6.440   7.235
20479TIP3    H161322   5.851   6.471   7.215
20479TIP3    H261323   5.935   6.347   7.215
20480TIP3   OH261324   6.220   6.436   6.928
20480TIP3    H161325   6.312   6.461   6.907
20480TIP3    H261326   6.170   6.464   6.847
20481TIP3   OH261327   7.017   6.463   7.422
20481TIP3    H161328   6.993   6.474   7.518
20481TIP3    H261329   6.947   6.404   7.393
20482TIP3   OH261330   6.063   6.470   6.710
20482TIP3    H161331   5.988   6.428   6.664
20482TIP3    H261332   6.113   6.507   6.634
20483TIP3   OH261333   7.191   8.147   7.656
20483TIP3    H161334   7.178   8.172   7.563
20483TIP3    H261335   7.266   8.207   7.681
20484TIP3   OH261336   6.133   7.263   8.079
20484TIP3    H161337   6.216   7.293   8.123
20484TIP3    H261338   6.070   7.273   8.153
20485TIP3   OH261339   6.595   6.702   7.325
20485TIP3    H161340   6.682   6.684   7.286
20485TIP3    H261341   6.608   6.676   7.418
20486TIP3   OH261342   6.196   6.157   7.191
20486TIP3    H161343   6.134   6.104   7.246
20486TIP3    H261344   6.145   6.164   7.109
20487TIP3   OH261345   6.568   6.602   7.614
20487TIP3    H161346   6.478   6.638   7.625
20487TIP3    H261347   6.618   6.667   7.668
20488TIP3   OH261348   6.313   7.000   6.713
20488TIP3    H161349   6.237   6.939   6.704
20488TIP3    H261350   6.296   7.038   6.803
20489TIP3   OH261351   7.213   7.239   7.345
20489TIP3    H161352   7.235   7.290   7.264
20489TIP3    H261353   7.127   7.198   7.321
20490TIP3   OH261354   6.772   6.314   6.580
20490TIP3    H161355   6.674   6.300   6.584
20490TIP3    H261356   6.782   6.409   6.601
20491TIP3   OH261357   6.722   7.330   7.709
20491TIP3    H161358   6.732   7.296   7.799
20491TIP3    H261359   6.674   7.414   7.722
20492TIP3   OH261360   6.841   6.564   6.679
20492TIP3    H161361   6.937   6.570   6.696
20492TIP3    H261362   6.822   6.644   6.627
20493TIP3   OH261363   6.000   7.018   7.390
20493TIP3    H161364   6.041   6.997   7.304
20493TIP3    H261365   6.054   6.966   7.451
20494TIP3   OH261366   6.469   7.153   6.543
20494TIP3    H161367   6.417   7.235   6.531
20494TIP3    H261368   6.407   7.099   6.596
20495TIP3   OH261369   5.871   6.956   8.017
20495TIP3    H161370   5.924   6.928   8.093
20495TIP3    H261371   5.828   6.875   7.986
20496TIP3   OH261372   6.617   7.050   8.027
20496TIP3    H161373   6.561   6.988   7.978
20496TIP3    H261374   6.700   7.024   7.985
20497TIP3   OH261375   6.874   7.586   7.609
20497TIP3    H161376   6.777   7.576   7.619
20497TIP3    H261377   6.895   7.642   7.687
20498TIP3   OH261378   7.282   6.653   6.516
20498TIP3    H161379   7.220   6.608   6.455
20498TIP3    H261380   7.279   6.742   6.475
20499TIP3   OH261381   7.500   7.507   7.601
20499TIP3    H161382   7.403   7.502   7.589
20499TIP3    H261383   7.529   7.481   7.511
20500TIP3   OH261384   7.004   7.461   6.434
20500TIP3    H161385   6.949   7.408   6.493
20500TIP3    H261386   6.991   7.420   6.347
20501TIP3   OH261387   6.979   7.104   7.259
20501TIP3    H161388   6.887   7.077   7.278
20501TIP3    H261389   7.013   7.023   7.216
20502TIP3   OH261390   6.105   7.328   7.010
20502TIP3    H161391   6.107   7.411   6.960
20502TIP3    H261392   6.011   7.318   7.027
20503TIP3   OH261393   5.671   6.634   6.721
20503TIP3    H161394   5.714   6.720   6.740
20503TIP3    H261395   5.592   6.639   6.779
20504TIP3   OH261396   6.243   7.094   6.956
20504TIP3    H161397   6.209   7.185   6.973
20504TIP3    H261398   6.208   7.047   7.034
20505TIP3   OH261399   6.374   7.674   7.484
20505TIP3    H161400   6.413   7.746   7.431
20505TIP3    H261401   6.452   7.640   7.530
20506TIP3   OH261402   6.027   7.567   6.867
20506TIP3    H161403   5.941   7.578   6.912
20506TIP3    H261404   6.060   7.660   6.870
20507TIP3   OH261405   6.764   7.307   7.442
20507TIP3    H161406   6.753   7.307   7.540
20507TIP3    H261407   6.841   7.250   7.432
20508TIP3   OH261408   6.737   7.195   6.325
20508TIP3    H161409   6.786   7.167   6.405
20508TIP3    H261410   6.646   7.190   6.356
20509TIP3   OH261411   7.012   7.842   7.491
20509TIP3    H161412   6.932   7.787   7.482
20509TIP3    H261413   6.998   7.906   7.418
20510TIP3   OH261414   7.083   7.675   6.144
20510TIP3    H161415   7.133   7.753   6.112
20510TIP3    H261416   7.001   7.721   6.172
20511TIP3   OH261417   6.099   6.451   8.013
20511TIP3    H161418   6.002   6.452   8.021
20511TIP3    H261419   6.125   6.389   8.082
20512TIP3   OH261420   6.897   7.128   6.539
20512TIP3    H161421   6.888   7.066   6.614
20512TIP3    H261422   6.994   7.133   6.531
20513TIP3   OH261423   5.813   7.536   7.644
20513TIP3    H161424   5.868   7.464   7.678
20513TIP3    H261425   5.844   7.611   7.697
20514TIP3   OH261426   6.134   7.129   6.325
20514TIP3    H161427   6.048   7.126   6.283
20514TIP3    H261428   6.111   7.153   6.417
20515TIP3   OH261429   6.055   7.187   6.586
20515TIP3    H161430   6.117   7.163   6.656
20515TIP3    H261431   6.050   7.285   6.597
20516TIP3   OH261432   5.785   6.882   6.802
20516TIP3    H161433   5.718   6.925   6.860
20516TIP3    H261434   5.796   6.952   6.735
20517TIP3   OH261435   6.946   6.500   7.679
20517TIP3    H161436   6.970   6.568   7.742
20517TIP3    H261437   6.923   6.426   7.738
20518TIP3   OH261438   6.804   6.269   6.861
20518TIP3    H161439   6.799   6.289   6.765
20518TIP3    H261440   6.851   6.348   6.896
20519TIP3   OH261441   6.313   7.378   6.537
20519TIP3    H161442   6.231   7.408   6.580
20519TIP3    H261443   6.336   7.458   6.488
20520TIP3   OH261444   6.501   6.448   6.960
20520TIP3    H161445   6.564   6.518   6.933
20520TIP3    H261446   6.513   6.448   7.057
20521TIP3   OH261447   6.648   6.181   7.066
20521TIP3    H161448   6.687   6.230   7.142
20521TIP3    H261449   6.706   6.215   6.994
20522TIP3   OH261450   6.057   7.457   6.614
20522TIP3    H161451   6.028   7.527   6.552
20522TIP3    H261452   6.042   7.501   6.701
20523TIP3   OH261453   6.155   6.173   6.862
20523TIP3    H161454   6.160   6.269   6.882
20523TIP3    H261455   6.250   6.150   6.867
20524TIP3   OH261456   7.419   6.666   7.742
20524TIP3    H161457   7.322   6.674   7.760
20524TIP3    H261458   7.415   6.613   7.661
20525TIP3   OH261459   7.064   6.859   7.135
20525TIP3    H161460   6.988   6.801   7.151
20525TIP3    H261461   7.136   6.813   7.184
20526TIP3   OH261462   5.775   7.088   6.611
20526TIP3    H161463   5.827   7.170   6.617
20526TIP3    H261464   5.825   7.042   6.541
20527TIP3   OH261465   5.721   6.364   6.739
20527TIP3    H161466   5.718   6.462   6.737
20527TIP3    H261467   5.638   6.341   6.696
20528TIP3   OH261468   7.033   7.814   7.085
20528TIP3    H161469   6.990   7.860   7.009
20528TIP3    H261470   7.127   7.832   7.063
20529TIP3   OH261471   6.108   6.082   7.612
20529TIP3    H161472   6.073   6.046   7.527
20529TIP3    H261473   6.099   6.005   7.672
20530TIP3   OH261474   5.643   7.295   6.993
20530TIP3    H161475   5.576   7.332   7.052
20530TIP3    H261476   5.620   7.340   6.909
20531TIP3   OH261477   5.805   7.845   8.067
20531TIP3    H161478   5.891   7.846   8.114
20531TIP3    H261479   5.785   7.750   8.064
20532TIP3   OH261480   6.286   7.807   8.111
20532TIP3    H161481   6.381   7.785   8.117
20532TIP3    H261482   6.260   7.751   8.036
20533TIP3   OH261483   6.262   7.384   6.237
20533TIP3    H161484   6.226   7.307   6.284
20533TIP3    H261485   6.348   7.348   6.209
20534TIP3   OH261486   6.939   7.711   7.850
20534TIP3    H161487   6.912   7.638   7.911
20534TIP3    H261488   7.035   7.702   7.851
20535TIP3   OH261489   6.716   7.441   6.151
20535TIP3    H161490   6.742   7.358   6.195
20535TIP3    H261491   6.757   7.432   6.062
20536TIP3   OH261492   5.932   7.250   8.268
20536TIP3    H161493   5.946   7.154   8.268
20536TIP3    H261494   5.846   7.256   8.221
20537TIP3   OH261495   5.910   6.900   6.455
20537TIP3    H161496   5.965   6.877   6.532
20537TIP3    H261497   5.970   6.883   6.382
20538TIP3   OH261498   6.540   7.331   8.040
20538TIP3    H161499   6.501   7.351   7.953
20538TIP3    H261500   6.573   7.240   8.030
20539TIP3   OH261501   7.038   7.343   7.650
20539TIP3    H161502   7.107   7.391   7.602
20539TIP3    H261503   6.961   7.401   7.635
20540TIP3   OH261504   6.053   6.960   8.248
20540TIP3    H161505   6.140   6.942   8.210
20540TIP3    H261506   6.077   7.008   8.330
20541TIP3   OH261507   6.114   6.806   6.676
20541TIP3    H161508   6.086   6.772   6.764
20541TIP3    H261509   6.153   6.726   6.636
20542TIP3   OH261510   6.352   6.856   7.902
20542TIP3    H161511   6.300   6.939   7.900
20542TIP3    H261512   6.432   6.878   7.849
20543TIP3   OH261513   6.223   6.594   6.524
20543TIP3    H161514   6.203   6.592   6.429
20543TIP3    H261515   6.321   6.598   6.522
20544TIP3   OH261516   6.905   7.267   8.043
20544TIP3    H161517   6.983   7.238   7.994
20544TIP3    H261518   6.904   7.204   8.117
20545TIP3   OH261519   7.044   6.929   6.184
20545TIP3    H161520   7.021   6.884   6.101
20545TIP3    H261521   7.010   7.019   6.163
20546TIP3   OH261522   6.500   6.654   8.043
20546TIP3    H161523   6.520   6.575   7.990
20546TIP3    H261524   6.489   6.720   7.973
20547TIP3   OH261525   6.516   6.437   7.840
20547TIP3    H161526   6.546   6.486   7.761
20547TIP3    H261527   6.422   6.422   7.821
20548TIP3   OH261528   7.150   6.958   8.124
20548TIP3    H161529   7.166   6.864   8.108
20548TIP3    H261530   7.204   7.001   8.058
20549TIP3   OH261531   7.167   7.204   7.841
20549TIP3    H161532   7.108   7.254   7.780
20549TIP3    H261533   7.253   7.218   7.795
20550TIP3   OH261534   6.381   6.773   8.268
20550TIP3    H161535   6.319   6.698   8.278
20550TIP3    H261536   6.419   6.751   8.180
20551TIP3   OH261537   6.646   6.204   7.911
20551TIP3    H161538   6.599   6.287   7.887
20551TIP3    H261539   6.575   6.137   7.900
20552TIP3   OH261540   6.793   6.704   8.126
20552TIP3    H161541   6.756   6.699   8.216
20552TIP3    H261542   6.712   6.709   8.073
20553TIP3   OH261543   7.017   6.658   7.974
20553TIP3    H161544   6.936   6.677   8.027
20553TIP3    H261545   7.079   6.627   8.043
20554TIP3   OH261546   7.253   6.602   8.135
20554TIP3    H161547   7.258   6.506   8.154
20554TIP3    H261548   7.243   6.641   8.225
20555TIP3   OH261549   6.226   6.552   8.324
20555TIP3    H161550   6.239   6.466   8.280
20555TIP3    H261551   6.268   6.533   8.411
20556TIP3   OH261552   6.739   6.215   8.169
20556TIP3    H161553   6.808   6.146   8.163
20556TIP3    H261554   6.701   6.210   8.078
20557TIP3   OH261555   6.803   6.429   8.331
20557TIP3    H161556   6.784   6.361   8.263
20557TIP3    H261557   6.732   6.494   8.317
20558TIP3   OH261558   6.025   7.650   6.420
20558TIP3    H161559   6.121   7.655   6.407
20558TIP3    H261560   5.997   7.708   6.347
20559TIP3   OH261561   5.506   7.042   6.643
20559TIP3    H161562   5.601   7.064   6.630
20559TIP3    H261563   5.501   6.954   6.600
20560TIP3   OH261564   5.424   7.654   7.054
20560TIP3    H161565   5.355   7.594   7.018
20560TIP3    H261566   5.466   7.595   7.120
20561TIP3   OH261567   5.562   7.503   7.240
20561TIP3    H161568   5.544   7.434   7.305
20561TIP3    H261569   5.611   7.567   7.294
20562TIP3   OH261570   7.292   7.895   7.042
20562TIP3    H161571   7.310   7.933   7.131
20562TIP3    H261572   7.325   7.964   6.984
20563TIP3   OH261573   7.316   7.920   7.322
20563TIP3    H161574   7.279   7.829   7.323
20563TIP3    H261575   7.389   7.909   7.386
20564TIP3   OH261576   7.358   7.590   7.881
20564TIP3    H161577   7.275   7.594   7.933
20564TIP3    H261578   7.369   7.679   7.847
20565TIP3   OH261579   7.184   7.117   6.522
20565TIP3    H161580   7.256   7.181   6.522
20565TIP3    H261581   7.211   7.064   6.601
20566TIP3   OH261582   7.304   6.985   6.726
20566TIP3    H161583   7.238   6.940   6.784
20566TIP3    H261584   7.368   7.022   6.790
20567TIP3   OH261585   7.359   7.377   7.155
20567TIP3    H161586   7.412   7.312   7.104
20567TIP3    H261587   7.349   7.450   7.092
20568TIP3   OH261588   7.189   7.673   7.350
20568TIP3    H161589   7.119   7.720   7.398
20568TIP3    H261590   7.138   7.629   7.279
20569TIP3   OH261591   7.243   6.891   6.368
20569TIP3    H161592   7.172   6.892   6.300
20569TIP3    H261593   7.215   6.969   6.421
20570TIP3   OH261594   7.114   6.566   6.322
20570TIP3    H161595   7.069   6.602   6.245
20570TIP3    H261596   7.089   6.471   6.314
20571TIP3   OH261597   7.120   6.840   6.867
20571TIP3    H161598   7.128   6.744   6.862
20571TIP3    H261599   7.105   6.854   6.964
20572TIP3   OH261600   5.746   6.909   7.618
20572TIP3    H161601   5.743   6.883   7.523
20572TIP3    H261602   5.843   6.915   7.632
20573TIP3   OH261603   7.408   7.259   7.716
20573TIP3    H161604   7.485   7.201   7.703
20573TIP3    H261605   7.428   7.334   7.658
20574TIP3   OH261606   7.622   7.083   7.746
20574TIP3    H161607   7.537   7.045   7.779
20574TIP3    H261608   7.677   7.002   7.759
20575TIP3   OH261609   7.057   6.300   6.309
20575TIP3    H161610   7.134   6.269   6.361
20575TIP3    H261611   6.986   6.238   6.333
20576TIP3   OH261612   7.114   6.557   6.763
20576TIP3    H161613   7.155   6.468   6.779
20576TIP3    H261614   7.174   6.589   6.692
20577TIP3   OH261615   7.275   6.731   7.257
20577TIP3    H161616   7.362   6.756   7.217
20577TIP3    H261617   7.288   6.767   7.347
20578TIP3   OH261618   7.345   6.875   7.487
20578TIP3    H161619   7.269   6.906   7.540
20578TIP3    H261620   7.376   6.958   7.445
20579TIP3   OH261621   5.959   6.600   8.293
20579TIP3    H161622   6.057   6.594   8.290
20579TIP3    H261623   5.939   6.511   8.328
20580TIP3   OH261624   7.800   6.461   8.041
20580TIP3    H161625   7.858   6.394   7.998
20580TIP3    H261626   7.771   6.515   7.964
20581TIP3   OH261627   7.223   6.307   6.801
20581TIP3    H161628   7.273   6.292   6.884
20581TIP3    H261629   7.165   6.228   6.800
20582TIP3   OH261630   5.924   6.291   7.617
20582TIP3    H161631   5.987   6.217   7.630
20582TIP3    H261632   5.985   6.367   7.614
20583TIP3   OH261633   5.728   6.567   7.695
20583TIP3    H161634   5.775   6.561   7.610
20583TIP3    H261635   5.754   6.655   7.724
20584TIP3   OH261636   7.669   6.606   7.850
20584TIP3    H161637   7.582   6.645   7.873
20584TIP3    H261638   7.640   6.533   7.792
20585TIP3   OH261639   7.304   6.243   6.431
20585TIP3    H161640   7.345   6.169   6.382
20585TIP3    H261641   7.373   6.311   6.428
20586TIP3   OH261642   5.712   6.079   7.199
20586TIP3    H161643   5.618   6.067   7.222
20586TIP3    H261644   5.706   6.132   7.117
20587TIP3   OH261645   6.870   7.770   6.702
20587TIP3    H161646   6.921   7.761   6.619
20587TIP3    H261647   6.915   7.844   6.746
20588TIP3   OH261648   5.931   6.154   8.010
20588TIP3    H161649   5.877   6.143   8.090
20588TIP3    H261650   5.863   6.188   7.948
20589TIP3   OH261651   5.972   7.570   8.084
20589TIP3    H161652   5.878   7.550   8.069
20589TIP3    H261653   5.977   7.569   8.180
20590TIP3   OH261654   6.148   7.611   7.633
20590TIP3    H161655   6.100   7.687   7.593
20590TIP3    H261656   6.234   7.625   7.588
20591TIP3   OH261657   6.595   7.852   7.770
20591TIP3    H161658   6.634   7.852   7.860
20591TIP3    H261659   6.665   7.903   7.722
20592TIP3   OH261660   6.784   8.002   7.642
20592TIP3    H161661   6.852   7.957   7.591
20592TIP3    H261662   6.822   8.090   7.655
20593TIP3   OH261663   7.567   6.368   7.730
20593TIP3    H161664   7.476   6.361   7.697
20593TIP3    H261665   7.598   6.275   7.719
20594TIP3   OH261666   5.823   7.863   7.660
20594TIP3    H161667   5.735   7.897   7.633
20594TIP3    H261668   5.835   7.911   7.743
20595TIP3   OH261669   6.057   7.841   7.513
20595TIP3    H161670   5.971   7.856   7.557
20595TIP3    H261671   6.039   7.877   7.423
20596TIP3   OH261672   6.487   7.869   7.311
20596TIP3    H161673   6.420   7.895   7.245
20596TIP3    H261674   6.500   7.954   7.359
20597TIP3   OH261675   6.756   7.815   7.364
20597TIP3    H161676   6.661   7.831   7.346
20597TIP3    H261677   6.797   7.892   7.322
20598TIP3   OH261678   6.962   8.005   7.278
20598TIP3    H161679   6.943   8.091   7.233
20598TIP3    H261680   6.985   7.947   7.202
20599TIP3   OH261681   5.735   7.660   7.400
20599TIP3    H161682   5.761   7.635   7.491
20599TIP3    H261683   5.808   7.617   7.350
20600TIP3   OH261684   5.930   7.531   7.258
20600TIP3    H161685   5.947   7.448   7.308
20600TIP3    H261686   6.020   7.570   7.253
20601TIP3   OH261687   6.194   7.625   7.262
20601TIP3    H161688   6.228   7.534   7.252
20601TIP3    H261689   6.238   7.650   7.345
20602TIP3   OH261690   6.758   6.269   7.318
20602TIP3    H161691   6.729   6.211   7.391
20602TIP3    H261692   6.848   6.234   7.298
20603TIP3   OH261693   7.293   6.162   7.252
20603TIP3    H161694   7.332   6.214   7.178
20603TIP3    H261695   7.200   6.188   7.248
20604TIP3   OH261696   7.389   6.266   7.017
20604TIP3    H161697   7.462   6.213   6.978
20604TIP3    H261698   7.424   6.357   7.002
20605TIP3   OH261699   6.021   5.994   7.357
20605TIP3    H161700   5.928   5.964   7.361
20605TIP3    H261701   6.066   5.906   7.359
20606TIP3   OH261702   5.812   5.862   7.016
20606TIP3    H161703   5.836   5.917   6.940
20606TIP3    H261704   5.778   5.928   7.079
20607TIP3   OH261705   7.003   6.169   7.230
20607TIP3    H161706   7.023   6.129   7.144
20607TIP3    H261707   6.994   6.089   7.286
20608TIP3   OH261708   7.041   6.092   6.792
20608TIP3    H161709   6.952   6.131   6.799
20608TIP3    H261710   7.028   6.008   6.840
20609TIP3   OH261711   5.524   7.433   6.793
20609TIP3    H161712   5.437   7.404   6.760
20609TIP3    H261713   5.518   7.527   6.770
20610TIP3   OH261714   5.923   6.020   6.776
20610TIP3    H161715   5.970   5.956   6.719
20610TIP3    H261716   5.998   6.072   6.813
20611TIP3   OH261717   6.431   6.194   6.895
20611TIP3    H161718   6.519   6.158   6.911
20611TIP3    H261719   6.450   6.291   6.905
20612TIP3   OH261720   6.295   7.623   6.377
20612TIP3    H161721   6.384   7.646   6.341
20612TIP3    H261722   6.271   7.551   6.315
20613TIP3   OH261723   7.011   7.734   6.468
20613TIP3    H161724   7.009   7.636   6.454
20613TIP3    H261725   6.967   7.767   6.386
20614TIP3   OH261726   6.225   6.270   8.256
20614TIP3    H161727   6.195   6.198   8.314
20614TIP3    H261728   6.320   6.273   8.281
20615TIP3   OH261729   6.475   6.272   8.375
20615TIP3    H161730   6.561   6.253   8.334
20615TIP3    H261731   6.468   6.199   8.440
20616TIP3   OH261732   5.596   7.455   6.431
20616TIP3    H161733   5.593   7.492   6.520
20616TIP3    H261734   5.686   7.415   6.427
20617TIP3   OH261735   7.301   6.329   8.162
20617TIP3    H161736   7.320   6.299   8.253
20617TIP3    H261737   7.390   6.326   8.121
20618TIP3   OH261738   7.235   7.875   7.660
20618TIP3    H161739   7.155   7.856   7.608
20618TIP3    H261740   7.230   7.972   7.667
20619TIP3   OH261741   8.507   7.252   6.421
20619TIP3    H161742   8.480   7.345   6.404
20619TIP3    H261743   8.429   7.205   6.388
20620TIP3   OH261744   8.489   7.256   6.795
20620TIP3    H161745   8.519   7.236   6.886
20620TIP3    H261746   8.459   7.169   6.767
20621TIP3   OH261747   7.806   7.156   7.167
20621TIP3    H161748   7.831   7.084   7.228
20621TIP3    H261749   7.892   7.197   7.152
20622TIP3   OH261750   8.742   7.553   6.486
20622TIP3    H161751   8.744   7.480   6.551
20622TIP3    H261752   8.767   7.628   6.541
20623TIP3   OH261753   7.483   6.767   6.677
20623TIP3    H161754   7.431   6.848   6.691
20623TIP3    H261755   7.415   6.708   6.640
20624TIP3   OH261756   7.550   7.053   6.848
20624TIP3    H161757   7.592   6.973   6.888
20624TIP3    H261758   7.603   7.064   6.768
20625TIP3   OH261759   8.422   8.008   6.528
20625TIP3    H161760   8.459   7.953   6.455
20625TIP3    H261761   8.415   7.941   6.597
20626TIP3   OH261762   8.297   7.463   6.849
20626TIP3    H161763   8.343   7.387   6.810
20626TIP3    H261764   8.374   7.522   6.863
20627TIP3   OH261765   9.288   6.866   6.887
20627TIP3    H161766   9.356   6.937   6.884
20627TIP3    H261767   9.262   6.865   6.794
20628TIP3   OH261768   8.726   6.988   6.881
20628TIP3    H161769   8.767   6.902   6.903
20628TIP3    H261770   8.693   6.969   6.791
20629TIP3   OH261771   8.053   6.643   6.848
20629TIP3    H161772   8.035   6.715   6.785
20629TIP3    H261773   8.007   6.569   6.804
20630TIP3   OH261774   8.749   6.734   6.469
20630TIP3    H161775   8.820   6.714   6.535
20630TIP3    H261776   8.804   6.768   6.396
20631TIP3   OH261777   7.689   6.845   6.954
20631TIP3    H161778   7.772   6.825   7.003
20631TIP3    H261779   7.703   6.788   6.875
20632TIP3   OH261780   8.129   7.043   6.748
20632TIP3    H161781   8.223   7.019   6.760
20632TIP3    H261782   8.091   6.958   6.717
20633TIP3   OH261783   8.051   6.627   7.282
20633TIP3    H161784   7.990   6.663   7.215
20633TIP3    H261785   8.000   6.645   7.364
20634TIP3   OH261786   8.390   7.473   6.294
20634TIP3    H161787   8.360   7.461   6.203
20634TIP3    H261788   8.350   7.559   6.317
20635TIP3   OH261789   8.157   7.398   7.076
20635TIP3    H161790   8.097   7.468   7.110
20635TIP3    H261791   8.203   7.444   7.003
20636TIP3   OH261792   8.955   6.727   6.644
20636TIP3    H161793   8.945   6.680   6.727
20636TIP3    H261794   8.993   6.812   6.674
20637TIP3   OH261795   7.920   6.740   7.066
20637TIP3    H161796   7.983   6.812   7.091
20637TIP3    H261797   7.970   6.700   6.992
20638TIP3   OH261798   7.966   7.586   7.143
20638TIP3    H161799   7.950   7.681   7.123
20638TIP3    H261800   7.893   7.573   7.208
20639TIP3   OH261801   7.391   7.302   6.374
20639TIP3    H161802   7.295   7.297   6.371
20639TIP3    H261803   7.407   7.386   6.422
20640TIP3   OH261804   9.091   6.690   7.013
20640TIP3    H161805   9.007   6.718   6.974
20640TIP3    H261806   9.157   6.750   6.972
20641TIP3   OH261807   8.406   6.344   6.994
20641TIP3    H161808   8.394   6.249   7.015
20641TIP3    H261809   8.329   6.382   7.042
20642TIP3   OH261810   8.512   7.850   6.319
20642TIP3    H161811   8.565   7.768   6.301
20642TIP3    H261812   8.570   7.916   6.276
20643TIP3   OH261813   8.659   7.633   6.236
20643TIP3    H161814   8.639   7.553   6.185
20643TIP3    H261815   8.694   7.595   6.320
20644TIP3   OH261816   8.336   7.106   6.250
20644TIP3    H161817   8.258   7.160   6.225
20644TIP3    H261818   8.387   7.106   6.167
20645TIP3   OH261819   8.295   6.893   5.966
20645TIP3    H161820   8.362   6.943   6.017
20645TIP3    H261821   8.352   6.827   5.922
20646TIP3   OH261822   8.684   7.188   6.223
20646TIP3    H161823   8.633   7.213   6.303
20646TIP3    H261824   8.770   7.163   6.264
20647TIP3   OH261825   7.923   7.189   6.636
20647TIP3    H161826   7.879   7.129   6.572
20647TIP3    H261827   7.997   7.134   6.668
20648TIP3   OH261828   8.052   7.160   6.995
20648TIP3    H161829   8.089   7.135   6.908
20648TIP3    H261830   8.100   7.243   7.017
20649TIP3   OH261831   8.531   7.829   6.767
20649TIP3    H161832   8.617   7.856   6.800
20649TIP3    H261833   8.533   7.733   6.784
20650TIP3   OH261834   8.102   7.748   7.347
20650TIP3    H161835   8.063   7.833   7.320
20650TIP3    H261836   8.079   7.690   7.274
20651TIP3   OH261837   8.525   7.050   6.049
20651TIP3    H161838   8.585   7.107   6.102
20651TIP3    H261839   8.553   7.073   5.958
20652TIP3   OH261840   7.945   7.261   7.420
20652TIP3    H161841   7.941   7.353   7.454
20652TIP3    H261842   7.850   7.239   7.418
20653TIP3   OH261843   8.262   7.736   6.333
20653TIP3    H161844   8.348   7.781   6.336
20653TIP3    H261845   8.208   7.798   6.281
20654TIP3   OH261846   9.056   6.292   6.120
20654TIP3    H161847   8.966   6.322   6.143
20654TIP3    H261848   9.062   6.314   6.024
20655TIP3   OH261849   7.782   7.029   6.456
20655TIP3    H161850   7.715   7.065   6.394
20655TIP3    H261851   7.754   6.937   6.464
20656TIP3   OH261852   8.841   7.655   5.645
20656TIP3    H161853   8.850   7.752   5.632
20656TIP3    H261854   8.934   7.625   5.634
20657TIP3   OH261855   7.561   7.414   7.354
20657TIP3    H161856   7.493   7.395   7.286
20657TIP3    H261857   7.596   7.325   7.376
20658TIP3   OH261858   7.413   7.613   6.989
20658TIP3    H161859   7.507   7.627   7.005
20658TIP3    H261860   7.375   7.692   7.031
20659TIP3   OH261861   8.150   7.970   6.135
20659TIP3    H161862   8.106   7.963   6.049
20659TIP3    H261863   8.125   8.061   6.162
20660TIP3   OH261864   7.580   7.775   6.517
20660TIP3    H161865   7.645   7.838   6.550
20660TIP3    H261866   7.502   7.834   6.521
20661TIP3   OH261867   8.352   7.874   5.765
20661TIP3    H161868   8.412   7.804   5.730
20661TIP3    H261869   8.385   7.885   5.857
20662TIP3   OH261870   8.399   7.923   6.033
20662TIP3    H161871   8.311   7.934   6.077
20662TIP3    H261872   8.452   7.891   6.107
20663TIP3   OH261873   7.759   7.596   7.321
20663TIP3    H161874   7.806   7.591   7.406
20663TIP3    H261875   7.687   7.531   7.336
20664TIP3   OH261876   8.169   6.420   7.125
20664TIP3    H161877   8.080   6.390   7.098
20664TIP3    H261878   8.144   6.502   7.172
20665TIP3   OH261879   8.696   6.531   7.314
20665TIP3    H161880   8.763   6.519   7.383
20665TIP3    H261881   8.612   6.515   7.362
20666TIP3   OH261882   8.599   7.091   5.791
20666TIP3    H161883   8.571   7.069   5.700
20666TIP3    H261884   8.682   7.139   5.774
20667TIP3   OH261885   8.313   6.473   6.097
20667TIP3    H161886   8.283   6.468   6.189
20667TIP3    H261887   8.278   6.388   6.063
20668TIP3   OH261888   8.097   6.934   7.140
20668TIP3    H161889   8.063   6.963   7.226
20668TIP3    H261890   8.083   7.016   7.087
20669TIP3   OH261891   7.983   6.824   6.658
20669TIP3    H161892   7.892   6.793   6.676
20669TIP3    H261893   7.998   6.782   6.570
20670TIP3   OH261894   8.474   6.907   6.384
20670TIP3    H161895   8.423   6.979   6.342
20670TIP3    H261896   8.532   6.878   6.311
20671TIP3   OH261897   8.629   6.936   6.625
20671TIP3    H161898   8.570   6.964   6.552
20671TIP3    H261899   8.665   6.855   6.583
20672TIP3   OH261900   7.907   6.965   7.353
20672TIP3    H161901   7.966   7.021   7.407
20672TIP3    H261902   7.905   6.883   7.405
20673TIP3   OH261903   7.968   6.442   6.061
20673TIP3    H161904   7.965   6.439   6.158
20673TIP3    H261905   7.888   6.495   6.042
20674TIP3   OH261906   7.514   6.490   6.931
20674TIP3    H161907   7.589   6.519   6.986
20674TIP3    H261908   7.556   6.452   6.852
20675TIP3   OH261909   7.485   6.467   6.452
20675TIP3    H161910   7.532   6.505   6.374
20675TIP3    H261911   7.425   6.542   6.472
20676TIP3   OH261912   8.577   7.165   7.033
20676TIP3    H161913   8.644   7.112   6.984
20676TIP3    H261914   8.595   7.133   7.123
20677TIP3   OH261915   8.311   6.649   6.719
20677TIP3    H161916   8.232   6.643   6.775
20677TIP3    H261917   8.383   6.643   6.784
20678TIP3   OH261918   7.747   6.699   6.727
20678TIP3    H161919   7.652   6.704   6.699
20678TIP3    H261920   7.772   6.608   6.705
20679TIP3   OH261921   8.015   6.698   6.417
20679TIP3    H161922   8.110   6.709   6.399
20679TIP3    H261923   7.972   6.719   6.330
20680TIP3   OH261924   8.805   6.723   6.922
20680TIP3    H161925   8.777   6.734   7.016
20680TIP3    H261926   8.738   6.660   6.889
20681TIP3   OH261927   7.855   6.734   6.194
20681TIP3    H161928   7.783   6.689   6.146
20681TIP3    H261929   7.907   6.769   6.118
20682TIP3   OH261930   7.918   7.502   7.536
20682TIP3    H161931   7.964   7.587   7.549
20682TIP3    H261932   7.848   7.507   7.605
20683TIP3   OH261933   8.393   6.972   6.812
20683TIP3    H161934   8.468   6.935   6.763
20683TIP3    H261935   8.407   6.937   6.901
20684TIP3   OH261936   7.917   6.460   6.694
20684TIP3    H161937   7.883   6.382   6.743
20684TIP3    H261938   7.978   6.419   6.632
20685TIP3   OH261939   8.373   6.868   7.110
20685TIP3    H161940   8.284   6.908   7.121
20685TIP3    H261941   8.431   6.929   7.159
20686TIP3   OH261942   8.105   7.260   6.195
20686TIP3    H161943   8.034   7.194   6.186
20686TIP3    H261944   8.087   7.295   6.286
20687TIP3   OH261945   8.561   6.582   6.046
20687TIP3    H161946   8.468   6.560   6.071
20687TIP3    H261947   8.576   6.669   6.089
20688TIP3   OH261948   8.637   6.819   6.166
20688TIP3    H161949   8.733   6.822   6.185
20688TIP3    H261950   8.623   6.901   6.115
20689TIP3   OH261951   7.833   7.326   6.854
20689TIP3    H161952   7.852   7.261   6.782
20689TIP3    H261953   7.836   7.268   6.932
20690TIP3   OH261954   8.253   7.411   6.020
20690TIP3    H161955   8.204   7.497   6.025
20690TIP3    H261956   8.201   7.356   6.081
20691TIP3   OH261957   7.671   7.195   7.494
20691TIP3    H161958   7.668   7.155   7.583
20691TIP3    H261959   7.603   7.141   7.448
20692TIP3   OH261960   8.414   7.272   7.482
20692TIP3    H161961   8.380   7.257   7.392
20692TIP3    H261962   8.458   7.356   7.472
20693TIP3   OH261963   9.079   6.908   6.008
20693TIP3    H161964   9.014   6.864   5.949
20693TIP3    H261965   9.076   6.997   5.964
20694TIP3   OH261966   8.767   7.723   5.907
20694TIP3    H161967   8.760   7.650   5.970
20694TIP3    H261968   8.792   7.679   5.824
20695TIP3   OH261969   8.754   7.362   6.730
20695TIP3    H161970   8.667   7.324   6.752
20695TIP3    H261971   8.802   7.284   6.697
20696TIP3   OH261972   7.879   7.590   6.549
20696TIP3    H161973   7.911   7.671   6.505
20696TIP3    H261974   7.798   7.578   6.498
20697TIP3   OH261975   7.462   6.888   6.202
20697TIP3    H161976   7.510   6.970   6.223
20697TIP3    H261977   7.387   6.893   6.265
20698TIP3   OH261978   8.033   7.354   6.438
20698TIP3    H161979   8.023   7.444   6.473
20698TIP3    H261980   8.005   7.299   6.513
20699TIP3   OH261981   8.166   7.931   6.966
20699TIP3    H161982   8.191   8.021   6.939
20699TIP3    H261983   8.237   7.917   7.031
20700TIP3   OH261984   7.830   7.811   6.367
20700TIP3    H161985   7.734   7.819   6.382
20700TIP3    H261986   7.845   7.906   6.349
20701TIP3   OH261987   8.539   7.584   6.904
20701TIP3    H161988   8.547   7.592   7.000
20701TIP3    H261989   8.617   7.527   6.887
20702TIP3   OH261990   8.535   7.452   5.814
20702TIP3    H161991   8.589   7.430   5.893
20702TIP3    H261992   8.446   7.431   5.847
20703TIP3   OH261993   8.871   7.931   5.633
20703TIP3    H161994   8.916   8.002   5.584
20703TIP3    H261995   8.791   7.979   5.661
20704TIP3   OH261996   7.893   6.711   7.500
20704TIP3    H161997   7.796   6.713   7.510
20704TIP3    H261998   7.918   6.644   7.566
20705TIP3   OH261999   8.694   7.393   6.034
20705TIP3    H162000   8.686   7.324   6.102
20705TIP3    H262001   8.791   7.388   6.017
20706TIP3   OH262002   7.620   7.780   7.135
20706TIP3    H162003   7.668   7.719   7.195
20706TIP3    H262004   7.637   7.865   7.178
20707TIP3   OH262005   7.900   7.436   5.817
20707TIP3    H162006   7.915   7.346   5.786
20707TIP3    H262007   7.874   7.421   5.910
20708TIP3   OH262008   7.840   7.440   6.096
20708TIP3    H162009   7.925   7.417   6.136
20708TIP3    H262010   7.843   7.538   6.096
20709TIP3   OH262011   7.589   7.126   6.284
20709TIP3    H162012   7.520   7.186   6.320
20709TIP3    H262013   7.633   7.180   6.218
20710TIP3   OH262014   8.741   6.770   7.187
20710TIP3    H162015   8.800   6.797   7.261
20710TIP3    H262016   8.711   6.685   7.224
20711TIP3   OH262017   8.605   6.528   6.345
20711TIP3    H162018   8.601   6.552   6.251
20711TIP3    H262019   8.650   6.607   6.384
20712TIP3   OH262020   8.106   7.639   6.035
20712TIP3    H162021   8.020   7.670   6.069
20712TIP3    H262022   8.128   7.713   5.976
20713TIP3   OH262023   8.295   6.705   6.447
20713TIP3    H162024   8.362   6.775   6.430
20713TIP3    H262025   8.303   6.695   6.545
20714TIP3   OH262026   8.566   7.012   7.266
20714TIP3    H162027   8.604   7.054   7.345
20714TIP3    H262028   8.619   6.931   7.261
20715TIP3   OH262029   8.443   6.431   6.549
20715TIP3    H162030   8.444   6.505   6.613
20715TIP3    H262031   8.502   6.467   6.479
20716TIP3   OH262032   7.842   7.714   6.101
20716TIP3    H162033   7.821   7.784   6.035
20716TIP3    H262034   7.838   7.765   6.184
20717TIP3   OH262035   7.955   6.429   6.336
20717TIP3    H162036   7.954   6.518   6.378
20717TIP3    H262037   8.050   6.408   6.347
20718TIP3   OH262038   8.851   7.116   6.619
20718TIP3    H162039   8.771   7.061   6.630
20718TIP3    H262040   8.917   7.066   6.672
20719TIP3   OH262041   7.517   6.620   6.225
20719TIP3    H162042   7.516   6.717   6.220
20719TIP3    H262043   7.433   6.597   6.186
20720TIP3   OH262044   7.902   6.341   7.101
20720TIP3    H162045   7.874   6.306   7.014
20720TIP3    H262046   7.894   6.263   7.158
20721TIP3   OH262047   7.426   7.564   6.443
20721TIP3    H162048   7.357   7.585   6.508
20721TIP3    H262049   7.493   7.630   6.472
20722TIP3   OH262050   8.062   7.641   5.724
20722TIP3    H162051   8.007   7.569   5.764
20722TIP3    H262052   8.138   7.589   5.691
20723TIP3   OH262053   8.499   7.680   5.635
20723TIP3    H162054   8.548   7.622   5.696
20723TIP3    H262055   8.557   7.681   5.556
20724TIP3   OH262056   7.747   7.496   7.742
20724TIP3    H162057   7.745   7.400   7.757
20724TIP3    H262058   7.653   7.517   7.724
20725TIP3   OH262059   7.706   7.143   5.946
20725TIP3    H162060   7.765   7.122   6.019
20725TIP3    H262061   7.772   7.158   5.874
20726TIP3   OH262062   8.215   7.355   5.752
20726TIP3    H162063   8.220   7.369   5.848
20726TIP3    H262064   8.214   7.257   5.748
20727TIP3   OH262065   7.869   7.245   7.795
20727TIP3    H162066   7.928   7.196   7.737
20727TIP3    H262067   7.788   7.190   7.792
20728TIP3   OH262068   7.912   7.060   6.169
20728TIP3    H162069   7.894   7.014   6.252
20728TIP3    H262070   7.950   6.988   6.114
20729TIP3   OH262071   8.163   7.104   7.369
20729TIP3    H162072   8.098   7.177   7.381
20729TIP3    H262073   8.231   7.148   7.314
20730TIP3   OH262074   8.016   6.857   6.008
20730TIP3    H162075   7.991   6.861   5.914
20730TIP3    H262076   8.114   6.862   6.002
20731TIP3   OH262077   8.836   7.186   5.671
20731TIP3    H162078   8.815   7.144   5.585
20731TIP3    H262079   8.806   7.278   5.651
20732TIP3   OH262080   8.281   6.902   7.514
20732TIP3    H162081   8.297   6.826   7.455
20732TIP3    H262082   8.253   6.971   7.450
20733TIP3   OH262083   8.310   6.698   7.326
20733TIP3    H162084   8.340   6.741   7.244
20733TIP3    H262085   8.217   6.676   7.306
20734TIP3   OH262086   8.339   7.238   7.213
20734TIP3    H162087   8.417   7.224   7.155
20734TIP3    H262088   8.288   7.305   7.162
20735TIP3   OH262089   8.151   7.023   7.722
20735TIP3    H162090   8.103   6.943   7.752
20735TIP3    H262091   8.192   6.989   7.640
20736TIP3   OH262092   8.440   6.465   7.399
20736TIP3    H162093   8.392   6.547   7.376
20736TIP3    H262094   8.371   6.397   7.387
20737TIP3   OH262095   8.554   6.881   7.574
20737TIP3    H162096   8.573   6.929   7.656
20737TIP3    H262097   8.460   6.897   7.559
20738TIP3   OH262098   8.023   6.797   7.813
20738TIP3    H162099   8.028   6.712   7.764
20738TIP3    H262100   8.056   6.765   7.900
20739TIP3   OH262101   8.535   6.465   7.656
20739TIP3    H162102   8.601   6.395   7.644
20739TIP3    H262103   8.495   6.467   7.566
20740TIP3   OH262104   8.599   6.682   7.805
20740TIP3    H162105   8.587   6.604   7.747
20740TIP3    H262106   8.512   6.725   7.793
20741TIP3   OH262107   7.821   7.902   5.902
20741TIP3    H162108   7.918   7.908   5.891
20741TIP3    H262109   7.794   7.963   5.831
20742TIP3   OH262110   7.207   7.905   6.543
20742TIP3    H162111   7.139   7.843   6.510
20742TIP3    H262112   7.255   7.850   6.609
20743TIP3   OH262113   7.352   7.755   6.726
20743TIP3    H162114   7.334   7.695   6.800
20743TIP3    H262115   7.415   7.817   6.768
20744TIP3   OH262116   8.969   7.376   6.002
20744TIP3    H162117   9.038   7.438   5.972
20744TIP3    H262118   9.014   7.334   6.079
20745TIP3   OH262119   9.094   7.244   6.204
20745TIP3    H162120   9.034   7.199   6.268
20745TIP3    H262121   9.166   7.277   6.262
20746TIP3   OH262122   9.031   7.135   5.862
20746TIP3    H162123   8.968   7.148   5.789
20746TIP3    H262124   9.020   7.219   5.910
20747TIP3   OH262125   8.898   6.824   5.825
20747TIP3    H162126   8.886   6.862   5.738
20747TIP3    H262127   8.883   6.728   5.810
20748TIP3   OH262128   8.911   7.097   6.353
20748TIP3    H162129   8.925   7.001   6.347
20748TIP3    H262130   8.899   7.111   6.449
20749TIP3   OH262131   7.541   7.172   7.100
20749TIP3    H162132   7.541   7.137   7.008
20749TIP3    H262133   7.638   7.172   7.119
20750TIP3   OH262134   8.842   6.562   5.790
20750TIP3    H162135   8.922   6.509   5.813
20750TIP3    H262136   8.773   6.500   5.820
20751TIP3   OH262137   8.908   6.815   6.248
20751TIP3    H162138   8.949   6.726   6.266
20751TIP3    H262139   8.971   6.848   6.181
20752TIP3   OH262140   9.038   6.967   6.754
20752TIP3    H162141   9.116   7.001   6.704
20752TIP3    H262142   9.059   6.995   6.844
20753TIP3   OH262143   7.763   6.860   7.788
20753TIP3    H162144   7.858   6.841   7.781
20753TIP3    H262145   7.731   6.774   7.820
20754TIP3   OH262146   9.011   6.567   6.292
20754TIP3    H162147   9.064   6.549   6.372
20754TIP3    H262148   8.960   6.484   6.284
20755TIP3   OH262149   7.718   6.550   7.108
20755TIP3    H162150   7.779   6.474   7.117
20755TIP3    H262151   7.783   6.623   7.100
20756TIP3   OH262152   7.521   6.825   7.178
20756TIP3    H162153   7.572   6.815   7.095
20756TIP3    H262154   7.558   6.906   7.214
20757TIP3   OH262155   7.506   6.328   6.682
20757TIP3    H162156   7.412   6.324   6.707
20757TIP3    H262157   7.503   6.385   6.602
20758TIP3   OH262158   8.648   8.039   6.180
20758TIP3    H162159   8.691   8.016   6.095
20758TIP3    H262160   8.728   8.044   6.237
20759TIP3   OH262161   7.727   6.413   7.498
20759TIP3    H162162   7.675   6.402   7.579
20759TIP3    H262163   7.659   6.445   7.436
20760TIP3   OH262164   7.747   7.801   7.599
20760TIP3    H162165   7.656   7.804   7.565
20760TIP3    H262166   7.735   7.809   7.694
20761TIP3   OH262167   7.948   7.850   7.104
20761TIP3    H162168   7.892   7.924   7.074
20761TIP3    H262169   8.031   7.876   7.058
20762TIP3   OH262170   7.615   8.117   7.141
20762TIP3    H162171   7.524   8.151   7.123
20762TIP3    H262172   7.627   8.147   7.232
20763TIP3   OH262173   7.829   8.054   6.972
20763TIP3    H162174   7.767   8.096   7.036
20763TIP3    H262175   7.842   8.126   6.908
20764TIP3   OH262176   7.549   7.908   6.883
20764TIP3    H162177   7.551   7.882   6.977
20764TIP3    H262178   7.643   7.922   6.867
20765TIP3   OH262179   7.980   7.812   6.761
20765TIP3    H162180   8.062   7.831   6.716
20765TIP3    H262181   7.981   7.881   6.830
20766TIP3   OH262182   8.562   6.537   6.829
20766TIP3    H162183   8.523   6.468   6.885
20766TIP3    H262184   8.640   6.493   6.790
20767TIP3   OH262185   9.089   6.414   6.740
20767TIP3    H162186   9.129   6.468   6.668
20767TIP3    H262187   8.996   6.440   6.735
20768TIP3   OH262188   9.184   6.518   6.506
20768TIP3    H162189   9.257   6.469   6.463
20768TIP3    H262190   9.212   6.611   6.487
20769TIP3   OH262191   7.817   6.248   6.852
20769TIP3    H162192   7.725   6.214   6.854
20769TIP3    H262193   7.867   6.164   6.849
20770TIP3   OH262194   7.595   6.119   6.497
20770TIP3    H162195   7.632   6.176   6.427
20770TIP3    H262196   7.574   6.183   6.567
20771TIP3   OH262197   8.255   6.296   6.735
20771TIP3    H162198   8.317   6.337   6.674
20771TIP3    H262199   8.290   6.322   6.821
20772TIP3   OH262200   8.803   6.428   6.717
20772TIP3    H162201   8.809   6.391   6.628
20772TIP3    H262202   8.791   6.346   6.772
20773TIP3   OH262203   8.825   6.352   6.279
20773TIP3    H162204   8.739   6.393   6.299
20773TIP3    H262205   8.816   6.266   6.323
20774TIP3   OH262206   7.721   6.281   6.260
20774TIP3    H162207   7.769   6.215   6.207
20774TIP3    H262208   7.795   6.333   6.298
20775TIP3   OH262209   8.233   6.454   6.361
20775TIP3    H162210   8.290   6.404   6.422
20775TIP3    H262211   8.256   6.545   6.388
20776TIP3   OH262212   8.094   7.876   5.864
20776TIP3    H162213   8.181   7.901   5.827
20776TIP3    H262214   8.071   7.803   5.803
20777TIP3   OH262215   8.792   7.989   5.951
20777TIP3    H162216   8.789   7.891   5.937
20777TIP3    H262217   8.756   8.021   5.865
20778TIP3   OH262218   8.026   6.528   7.742
20778TIP3    H162219   7.993   6.456   7.799
20778TIP3    H262220   8.121   6.527   7.767
20779TIP3   OH262221   8.276   6.519   7.858
20779TIP3    H162222   8.361   6.498   7.816
20779TIP3    H262223   8.268   6.448   7.924
20780TIP3   OH262224   7.422   7.678   5.998
20780TIP3    H162225   7.391   7.769   5.995
20780TIP3    H262226   7.491   7.674   5.929
20781TIP3   OH262227   9.274   7.018   6.168
20781TIP3    H162228   9.228   7.102   6.179
20781TIP3    H262229   9.206   6.966   6.121
20782TIP3   OH262230   9.338   7.309   6.311
20782TIP3    H162231   9.397   7.239   6.343
20782TIP3    H262232   9.389   7.348   6.238
20783TIP3   OH262233   9.827   6.874   6.340
20783TIP3    H162234   9.823   6.955   6.281
20783TIP3    H262235   9.889   6.824   6.303
20784TIP3   OH262236   9.453   7.075   6.429
20784TIP3    H162237   9.537   7.068   6.462
20784TIP3    H262238   9.450   7.008   6.356
20785TIP3   OH262239   9.164   7.546   5.899
20785TIP3    H162240   9.132   7.577   5.812
20785TIP3    H262241   9.201   7.628   5.938
20786TIP3   OH262242  10.118   7.345   5.671
20786TIP3    H162243  10.040   7.404   5.671
20786TIP3    H262244  10.186   7.406   5.641
20787TIP3   OH262245  10.086   7.155   5.442
20787TIP3    H162246  10.121   7.184   5.528
20787TIP3    H262247  10.158   7.100   5.405
20788TIP3   OH262248   9.575   7.261   5.925
20788TIP3    H162249   9.515   7.330   5.891
20788TIP3    H262250   9.516   7.186   5.933
20789TIP3   OH262251  10.127   6.728   5.582
20789TIP3    H162252  10.092   6.724   5.674
20789TIP3    H262253  10.080   6.651   5.545
20790TIP3   OH262254   9.770   7.053   6.128
20790TIP3    H162255   9.678   7.025   6.144
20790TIP3    H262256   9.780   7.028   6.035
20791TIP3   OH262257   9.765   6.699   5.547
20791TIP3    H162258   9.757   6.691   5.644
20791TIP3    H262259   9.692   6.761   5.530
20792TIP3   OH262260   9.287   6.747   6.411
20792TIP3    H162261   9.372   6.787   6.441
20792TIP3    H262262   9.313   6.709   6.324
20793TIP3   OH262263   9.308   6.746   5.957
20793TIP3    H162264   9.339   6.771   5.868
20793TIP3    H262265   9.232   6.806   5.967
20794TIP3   OH262266   9.536   6.946   6.202
20794TIP3    H162267   9.443   6.947   6.171
20794TIP3    H262268   9.568   6.856   6.182
20795TIP3   OH262269   9.808   6.938   5.883
20795TIP3    H162270   9.890   6.967   5.844
20795TIP3    H262271   9.743   6.959   5.812
20796TIP3   OH262272   9.647   6.974   5.674
20796TIP3    H162273   9.567   6.955   5.622
20796TIP3    H262274   9.701   7.018   5.605
20797TIP3   OH262275   9.692   6.706   6.151
20797TIP3    H162276   9.665   6.640   6.217
20797TIP3    H262277   9.747   6.658   6.091
20798TIP3   OH262278   9.907   7.520   5.674
20798TIP3    H162279   9.842   7.445   5.679
20798TIP3    H262280   9.888   7.571   5.755
20799TIP3   OH262281  10.363   6.858   5.545
20799TIP3    H162282  10.271   6.824   5.562
20799TIP3    H262283  10.353   6.953   5.559
20800TIP3   OH262284   9.715   7.683   5.299
20800TIP3    H162285   9.713   7.590   5.268
20800TIP3    H262286   9.678   7.675   5.389
20801TIP3   OH262287   9.640   7.703   5.566
20801TIP3    H162288   9.699   7.647   5.619
20801TIP3    H262289   9.663   7.792   5.594
20802TIP3   OH262290   9.398   7.424   5.807
20802TIP3    H162291   9.313   7.457   5.842
20802TIP3    H262292   9.388   7.434   5.711
20803TIP3   OH262293  10.375   6.782   5.821
20803TIP3    H162294  10.389   6.788   5.725
20803TIP3    H262295  10.452   6.830   5.855
20804TIP3   OH262296  10.093   6.974   5.939
20804TIP3    H162297  10.133   7.051   5.897
20804TIP3    H262298  10.035   7.018   6.003
20805TIP3   OH262299  10.239   6.663   6.034
20805TIP3    H162300  10.266   6.737   6.091
20805TIP3    H262301  10.291   6.689   5.954
20806TIP3   OH262302   9.755   6.674   5.822
20806TIP3    H162303   9.747   6.765   5.857
20806TIP3    H262304   9.851   6.661   5.833
20807TIP3   OH262305   9.360   7.606   5.568
20807TIP3    H162306   9.425   7.675   5.590
20807TIP3    H262307   9.416   7.545   5.518
20808TIP3   OH262308   9.313   6.876   5.713
20808TIP3    H162309   9.339   6.967   5.696
20808TIP3    H262310   9.226   6.872   5.672
20809TIP3   OH262311   9.722   6.593   6.592
20809TIP3    H162312   9.707   6.561   6.502
20809TIP3    H262313   9.716   6.514   6.645
20810TIP3   OH262314   9.234   7.801   5.979
20810TIP3    H162315   9.168   7.850   6.027
20810TIP3    H262316   9.239   7.854   5.897
20811TIP3   OH262317   9.858   7.897   5.211
20811TIP3    H162318   9.803   7.825   5.249
20811TIP3    H262319   9.934   7.848   5.178
20812TIP3   OH262320  10.019   7.595   5.242
20812TIP3    H162321   9.982   7.624   5.326
20812TIP3    H262322   9.967   7.515   5.225
20813TIP3   OH262323   9.741   7.308   5.679
20813TIP3    H162324   9.690   7.289   5.760
20813TIP3    H262325   9.693   7.254   5.614
20814TIP3   OH262326   9.814   7.079   5.485
20814TIP3    H162327   9.764   7.121   5.414
20814TIP3    H262328   9.900   7.123   5.482
20815TIP3   OH262329   3.970   2.528  -0.253
20815TIP3    H162330   4.059   2.503  -0.279
20815TIP3    H262331   3.936   2.567  -0.336
20816TIP3   OH262332   9.097   7.558   5.614
20816TIP3    H162333   9.191   7.581   5.602
20816TIP3    H262334   9.095   7.468   5.575
20817TIP3   OH262335   8.988   8.153   6.042
20817TIP3    H162336   8.921   8.094   6.002
20817TIP3    H262337   8.981   8.125   6.135
20818TIP3   OH262338   9.521   6.801   6.559
20818TIP3    H162339   9.512   6.710   6.558
20818TIP3    H262340   9.608   6.811   6.585
20819TIP3   OH262341   9.264   7.051   6.644
20819TIP3    H162342   9.315   7.035   6.562
20819TIP3    H262343   9.311   7.133   6.673
20820TIP3   OH262344   9.298   6.594   6.178
20820TIP3    H162345   9.202   6.579   6.182
20820TIP3    H262346   9.308   6.647   6.096
20821TIP3   OH262347   9.439   6.602   6.845
20821TIP3    H162348   9.467   6.605   6.939
20821TIP3    H262349   9.400   6.689   6.837
20822TIP3   OH262350   9.614   6.508   6.343
20822TIP3    H162351   9.520   6.480   6.340
20822TIP3    H262352   9.659   6.422   6.335
20823TIP3   OH262353   9.425   6.368   5.995
20823TIP3    H162354   9.419   6.420   5.912
20823TIP3    H262355   9.367   6.421   6.052
20824TIP3   OH262356  10.054   6.524   6.214
20824TIP3    H162357  10.112   6.577   6.158
20824TIP3    H262358  10.040   6.579   6.292
20825TIP3   OH262359   9.120   7.936   5.761
20825TIP3    H162360   9.032   7.911   5.729
20825TIP3    H262361   9.118   8.031   5.746
20826TIP3   OH262362   9.516   6.543   5.736
20826TIP3    H162363   9.570   6.477   5.689
20826TIP3    H262364   9.585   6.593   5.785
20827TIP3   OH262365  10.034   6.711   5.846
20827TIP3    H162366  10.091   6.664   5.908
20827TIP3    H262367  10.046   6.803   5.878
20828TIP3   OH262368   9.192   7.973   5.405
20828TIP3    H162369   9.188   7.993   5.500
20828TIP3    H262370   9.280   7.931   5.396
20829TIP3   OH262371   1.759   7.566   8.524
20829TIP3    H162372   1.790   7.645   8.573
20829TIP3    H262373   1.785   7.591   8.433
20830TIP3   OH262374   1.253   7.757   8.548
20830TIP3    H162375   1.280   7.666   8.567
20830TIP3    H262376   1.210   7.746   8.462
20831TIP3   OH262377   1.199   7.516   8.161
20831TIP3    H162378   1.275   7.502   8.223
20831TIP3    H262379   1.247   7.549   8.083
20832TIP3   OH262380   1.844   7.770   8.672
20832TIP3    H162381   1.821   7.859   8.642
20832TIP3    H262382   1.895   7.791   8.753
20833TIP3   OH262383   1.413   7.525   8.329
20833TIP3    H162384   1.403   7.479   8.413
20833TIP3    H262385   1.470   7.600   8.352
20834TIP3   OH262386   1.554   7.506   8.704
20834TIP3    H162387   1.469   7.505   8.657
20834TIP3    H262388   1.618   7.524   8.631
20835TIP3   OH262389  10.571   6.529   6.000
20835TIP3    H162390  10.500   6.467   5.973
20835TIP3    H262391  10.571   6.518   6.095
20836TIP3   OH262392   1.654   8.101   8.484
20836TIP3    H162393   1.622   8.179   8.529
20836TIP3    H262394   1.698   8.140   8.406
20837TIP3   OH262395   1.148   7.988   7.907
20837TIP3    H162396   1.083   7.999   7.979
20837TIP3    H262397   1.225   7.951   7.953
20838TIP3   OH262398   1.049   7.797   7.724
20838TIP3    H162399   1.050   7.868   7.791
20838TIP3    H262400   1.013   7.846   7.648
20839TIP3   OH262401   1.495   7.077   7.787
20839TIP3    H162402   1.414   7.097   7.839
20839TIP3    H262403   1.507   7.161   7.739
20840TIP3   OH262404   1.294   8.444   7.332
20840TIP3    H162405   1.305   8.541   7.325
20840TIP3    H262406   1.387   8.413   7.321
20841TIP3   OH262407   1.174   7.313   8.994
20841TIP3    H162408   1.252   7.275   9.040
20841TIP3    H262409   1.102   7.280   9.051
20842TIP3   OH262410   1.039   7.907   7.461
20842TIP3    H162411   1.027   7.852   7.381
20842TIP3    H262412   1.134   7.930   7.456
20843TIP3   OH262413   1.103   7.726   8.313
20843TIP3    H162414   1.018   7.747   8.270
20843TIP3    H262415   1.127   7.645   8.262
20844TIP3   OH262416   1.288   7.487   8.595
20844TIP3    H162417   1.246   7.507   8.682
20844TIP3    H262418   1.218   7.428   8.558
20845TIP3   OH262419   0.972   7.370   7.743
20845TIP3    H162420   0.896   7.426   7.766
20845TIP3    H262421   1.044   7.435   7.765
20846TIP3   OH262422   1.128   7.565   7.834
20846TIP3    H162423   1.210   7.599   7.872
20846TIP3    H262424   1.087   7.648   7.801
20847TIP3   OH262425   1.532   7.697   7.692
20847TIP3    H162426   1.470   7.653   7.630
20847TIP3    H262427   1.527   7.787   7.653
20848TIP3   OH262428   1.235   8.514   7.603
20848TIP3    H162429   1.207   8.451   7.671
20848TIP3    H262430   1.248   8.458   7.524
20849TIP3   OH262431   1.322   8.725   7.326
20849TIP3    H162432   1.377   8.793   7.281
20849TIP3    H262433   1.235   8.761   7.309
20850TIP3   OH262434   1.142   8.173   7.694
20850TIP3    H162435   1.128   8.110   7.768
20850TIP3    H262436   1.240   8.175   7.694
20851TIP3   OH262437   1.177   7.541   8.839
20851TIP3    H162438   1.179   7.597   8.918
20851TIP3    H262439   1.167   7.453   8.880
20852TIP3   OH262440   1.077   7.301   8.019
20852TIP3    H162441   1.046   7.348   7.940
20852TIP3    H262442   1.100   7.376   8.077
20853TIP3   OH262443   1.661   7.710   8.905
20853TIP3    H162444   1.587   7.676   8.955
20853TIP3    H262445   1.677   7.640   8.840
20854TIP3   OH262446   1.316   7.913   8.305
20854TIP3    H162447   1.240   7.852   8.308
20854TIP3    H262448   1.385   7.862   8.352
20855TIP3   OH262449   1.292   7.978   7.359
20855TIP3    H162450   1.274   7.928   7.278
20855TIP3    H262451   1.264   8.067   7.329
20856TIP3   OH262452   1.426   8.163   7.693
20856TIP3    H162453   1.498   8.224   7.667
20856TIP3    H262454   1.466   8.122   7.773
20857TIP3   OH262455   1.552   8.030   7.896
20857TIP3    H162456   1.488   7.984   7.955
20857TIP3    H262457   1.618   8.066   7.960
20858TIP3   OH262458   1.492   7.937   7.545
20858TIP3    H162459   1.420   7.940   7.478
20858TIP3    H262460   1.464   8.012   7.602
20859TIP3   OH262461   1.370   7.608   7.492
20859TIP3    H162462   1.318   7.644   7.419
20859TIP3    H262463   1.342   7.514   7.489
20860TIP3   OH262464   1.372   7.882   8.041
20860TIP3    H162465   1.379   7.785   8.033
20860TIP3    H262466   1.360   7.895   8.138
20861TIP3   OH262467   1.306   7.343   7.487
20861TIP3    H162468   1.386   7.316   7.538
20861TIP3    H262469   1.238   7.280   7.514
20862TIP3   OH262470   1.378   7.608   7.951
20862TIP3    H162471   1.415   7.518   7.965
20862TIP3    H262472   1.429   7.636   7.873
20863TIP3   OH262473   1.528   7.777   8.425
20863TIP3    H162474   1.619   7.800   8.397
20863TIP3    H262475   1.521   7.827   8.507
20864TIP3   OH262476   2.077   7.509   9.241
20864TIP3    H162477   2.107   7.440   9.179
20864TIP3    H262478   2.031   7.569   9.180
20865TIP3   OH262479   1.475   7.352   7.976
20865TIP3    H162480   1.522   7.334   8.060
20865TIP3    H262481   1.413   7.277   7.973
20866TIP3   OH262482   1.934   7.633   9.037
20866TIP3    H162483   1.853   7.652   9.088
20866TIP3    H262484   1.900   7.570   8.970
20867TIP3   OH262485   1.553   7.287   7.607
20867TIP3    H162486   1.594   7.214   7.558
20867TIP3    H262487   1.622   7.356   7.603
20868TIP3   OH262488   1.809   7.416   8.888
20868TIP3    H162489   1.719   7.389   8.863
20868TIP3    H262490   1.853   7.327   8.890
20869TIP3   OH262491   1.071   7.303   8.542
20869TIP3    H162492   1.050   7.224   8.594
20869TIP3    H262493   1.142   7.269   8.485
20870TIP3   OH262494   1.547   7.215   8.435
20870TIP3    H162495   1.584   7.263   8.358
20870TIP3    H262496   1.451   7.226   8.421
20871TIP3   OH262497   1.638   7.308   8.195
20871TIP3    H162498   1.712   7.257   8.154
20871TIP3    H262499   1.671   7.399   8.180
20872TIP3   OH262500   1.275   7.206   8.393
20872TIP3    H162501   1.276   7.168   8.304
20872TIP3    H262502   1.259   7.125   8.448
20873TIP3   OH262503   1.292   7.139   7.966
20873TIP3    H162504   1.209   7.188   7.983
20873TIP3    H262505   1.275   7.054   8.011
20874TIP3   OH262506   1.248   8.778   7.650
20874TIP3    H162507   1.254   8.680   7.639
20874TIP3    H262508   1.231   8.804   7.559
20875TIP3   OH262509   2.756   8.301   7.598
20875TIP3    H162510   2.728   8.392   7.577
20875TIP3    H262511   2.678   8.252   7.566
20876TIP3   OH262512   2.754   8.300   7.980
20876TIP3    H162513   2.788   8.272   8.067
20876TIP3    H262514   2.714   8.218   7.947
20877TIP3   OH262515   2.072   8.216   8.358
20877TIP3    H162516   2.093   8.144   8.421
20877TIP3    H262517   2.155   8.221   8.308
20878TIP3   OH262518   2.997   8.602   7.661
20878TIP3    H162519   2.986   8.532   7.727
20878TIP3    H262520   3.030   8.676   7.715
20879TIP3   OH262521   2.052   8.607   8.090
20879TIP3    H162522   2.027   8.512   8.087
20879TIP3    H262523   2.144   8.601   8.057
20880TIP3   OH262524   1.734   7.810   7.853
20880TIP3    H162525   1.684   7.893   7.868
20880TIP3    H262526   1.663   7.754   7.818
20881TIP3   OH262527   1.790   8.096   8.020
20881TIP3    H162528   1.838   8.020   8.062
20881TIP3    H262529   1.850   8.120   7.949
20882TIP3   OH262530   2.657   9.061   7.687
20882TIP3    H162531   2.700   8.999   7.625
20882TIP3    H262532   2.624   9.000   7.753
20883TIP3   OH262533   2.557   8.525   8.030
20883TIP3    H162534   2.590   8.446   7.985
20883TIP3    H262535   2.642   8.571   8.044
20884TIP3   OH262536   3.566   7.846   8.023
20884TIP3    H162537   3.596   7.929   8.066
20884TIP3    H262538   3.597   7.862   7.932
20885TIP3   OH262539   2.967   8.029   8.059
20885TIP3    H162540   3.009   7.943   8.080
20885TIP3    H262541   2.935   8.012   7.968
20886TIP3   OH262542   2.305   7.687   8.024
20886TIP3    H162543   2.283   7.760   7.961
20886TIP3    H262544   2.256   7.613   7.981
20887TIP3   OH262545   2.998   7.778   7.647
20887TIP3    H162546   3.069   7.762   7.713
20887TIP3    H262547   3.051   7.814   7.573
20888TIP3   OH262548   1.938   7.893   8.131
20888TIP3    H162549   2.019   7.868   8.180
20888TIP3    H262550   1.948   7.835   8.052
20889TIP3   OH262551   2.376   8.086   7.932
20889TIP3    H162552   2.470   8.062   7.941
20889TIP3    H262553   2.337   8.003   7.896
20890TIP3   OH262554   3.640   8.052   8.195
20890TIP3    H162555   3.557   8.100   8.175
20890TIP3    H262556   3.655   8.080   8.287
20891TIP3   OH262557   2.302   7.666   8.450
20891TIP3    H162558   2.240   7.704   8.386
20891TIP3    H262559   2.252   7.682   8.533
20892TIP3   OH262560   2.647   8.522   7.467
20892TIP3    H162561   2.603   8.503   7.383
20892TIP3    H262562   2.603   8.606   7.492
20893TIP3   OH262563   2.405   8.450   8.255
20893TIP3    H162564   2.348   8.515   8.298
20893TIP3    H262565   2.443   8.501   8.180
20894TIP3   OH262566   3.208   7.781   7.818
20894TIP3    H162567   3.197   7.733   7.902
20894TIP3    H262568   3.262   7.857   7.846
20895TIP3   OH262569   2.169   7.786   8.241
20895TIP3    H162570   2.233   7.856   8.268
20895TIP3    H262571   2.219   7.745   8.167
20896TIP3   OH262572   1.631   8.330   7.588
20896TIP3    H162573   1.590   8.358   7.505
20896TIP3    H262574   1.664   8.414   7.626
20897TIP3   OH262575   3.068   8.836   7.828
20897TIP3    H162576   2.977   8.838   7.865
20897TIP3    H262577   3.068   8.919   7.776
20898TIP3   OH262578   3.361   7.747   8.190
20898TIP3    H162579   3.273   7.776   8.160
20898TIP3    H262580   3.420   7.779   8.120
20899TIP3   OH262581   2.657   7.389   8.173
20899TIP3    H162582   2.643   7.294   8.191
20899TIP3    H262583   2.579   7.427   8.220
20900TIP3   OH262584   2.769   8.893   7.500
20900TIP3    H162585   2.819   8.810   7.481
20900TIP3    H262586   2.832   8.958   7.461
20901TIP3   OH262587   2.913   8.677   7.409
20901TIP3    H162588   2.873   8.598   7.371
20901TIP3    H262589   2.949   8.643   7.494
20902TIP3   OH262590   3.299   8.757   8.173
20902TIP3    H162591   3.287   8.678   8.115
20902TIP3    H262592   3.283   8.830   8.109
20903TIP3   OH262593   2.586   8.151   7.428
20903TIP3    H162594   2.506   8.204   7.409
20903TIP3    H262595   2.632   8.152   7.343
20904TIP3   OH262596   2.545   7.938   7.142
20904TIP3    H162597   2.611   7.988   7.193
20904TIP3    H262598   2.602   7.873   7.098
20905TIP3   OH262599   3.490   8.395   8.017
20905TIP3    H162600   3.407   8.448   8.020
20905TIP3    H262601   3.520   8.418   7.926
20906TIP3   OH262602   2.934   8.234   7.401
20906TIP3    H162603   2.879   8.259   7.479
20906TIP3    H262604   3.018   8.209   7.445
20907TIP3   OH262605   3.168   8.273   8.311
20907TIP3    H162606   3.165   8.356   8.363
20907TIP3    H262607   3.081   8.278   8.265
20908TIP3   OH262608   2.167   8.233   7.816
20908TIP3    H162609   2.124   8.174   7.749
20908TIP3    H262610   2.242   8.178   7.846
20909TIP3   OH262611   2.292   8.611   7.961
20909TIP3    H162612   2.285   8.582   7.870
20909TIP3    H262613   2.387   8.598   7.980
20910TIP3   OH262614   2.297   8.205   8.179
20910TIP3    H162615   2.328   8.178   8.090
20910TIP3    H262616   2.342   8.291   8.192
20911TIP3   OH262617   2.824   8.852   7.949
20911TIP3    H162618   2.815   8.912   8.023
20911TIP3    H262619   2.815   8.764   7.992
20912TIP3   OH262620   2.776   8.092   7.226
20912TIP3    H162621   2.834   8.152   7.279
20912TIP3    H262622   2.802   8.116   7.134
20913TIP3   OH262623   2.517   8.772   7.503
20913TIP3    H162624   2.597   8.826   7.514
20913TIP3    H262625   2.455   8.834   7.462
20914TIP3   OH262626   3.287   7.336   7.270
20914TIP3    H162627   3.207   7.348   7.326
20914TIP3    H262628   3.296   7.426   7.234
20915TIP3   OH262629   2.033   8.076   7.622
20915TIP3    H162630   1.966   8.119   7.565
20915TIP3    H262631   1.993   7.989   7.636
20916TIP3   OH262632   3.089   8.700   6.822
20916TIP3    H162633   3.097   8.797   6.808
20916TIP3    H262634   3.182   8.672   6.810
20917TIP3   OH262635   3.538   9.098   8.205
20917TIP3    H162636   3.541   9.001   8.220
20917TIP3    H262637   3.456   9.122   8.249
20918TIP3   OH262638   2.403   9.017   7.303
20918TIP3    H162639   2.354   9.002   7.220
20918TIP3    H262640   2.369   9.105   7.331
20919TIP3   OH262641   1.829   8.875   7.685
20919TIP3    H162642   1.892   8.840   7.751
20919TIP3    H262643   1.774   8.797   7.670
20920TIP3   OH262644   2.601   8.920   6.943
20920TIP3    H162645   2.660   8.850   6.908
20920TIP3    H262646   2.634   8.930   7.034
20921TIP3   OH262647   2.653   8.966   7.212
20921TIP3    H162648   2.564   8.980   7.251
20921TIP3    H262649   2.700   8.927   7.287
20922TIP3   OH262650   3.420   8.234   8.492
20922TIP3    H162651   3.340   8.244   8.440
20922TIP3    H262652   3.437   8.138   8.482
20923TIP3   OH262653   2.419   7.465   8.299
20923TIP3    H162654   2.329   7.433   8.274
20923TIP3    H262655   2.392   7.545   8.348
20924TIP3   OH262656   2.952   7.581   8.496
20924TIP3    H162657   3.020   7.553   8.560
20924TIP3    H262658   2.868   7.560   8.542
20925TIP3   OH262659   3.191   8.010   8.416
20925TIP3    H162660   3.141   8.005   8.500
20925TIP3    H262661   3.164   8.097   8.380
20926TIP3   OH262662   2.848   8.135   6.968
20926TIP3    H162663   2.818   8.112   6.878
20926TIP3    H262664   2.928   8.188   6.947
20927TIP3   OH262665   2.565   7.514   7.273
20927TIP3    H162666   2.531   7.512   7.365
20927TIP3    H262667   2.525   7.432   7.239
20928TIP3   OH262668   2.347   7.978   8.323
20928TIP3    H162669   2.311   8.006   8.410
20928TIP3    H262670   2.334   8.060   8.271
20929TIP3   OH262671   2.233   7.869   7.834
20929TIP3    H162672   2.140   7.841   7.853
20929TIP3    H262673   2.246   7.827   7.746
20930TIP3   OH262674   2.725   7.954   7.563
20930TIP3    H162675   2.671   8.025   7.521
20930TIP3    H262676   2.779   7.923   7.488
20931TIP3   OH262677   2.917   8.226   8.635
20931TIP3    H162678   2.885   8.158   8.699
20931TIP3    H262679   3.010   8.235   8.665
20932TIP3   OH262680   2.882   7.981   7.801
20932TIP3    H162681   2.821   8.011   7.730
20932TIP3    H262682   2.915   7.900   7.759
20933TIP3   OH262683   2.168   8.020   8.540
20933TIP3    H162684   2.202   8.068   8.620
20933TIP3    H262685   2.159   7.931   8.576
20934TIP3   OH262686   2.220   7.489   7.238
20934TIP3    H162687   2.211   7.484   7.335
20934TIP3    H262688   2.140   7.539   7.215
20935TIP3   OH262689   1.761   7.532   8.109
20935TIP3    H162690   1.837   7.562   8.163
20935TIP3    H262691   1.803   7.497   8.028
20936TIP3   OH262692   1.735   7.513   7.628
20936TIP3    H162693   1.781   7.551   7.550
20936TIP3    H262694   1.673   7.586   7.649
20937TIP3   OH262695   2.888   8.227   8.222
20937TIP3    H162696   2.923   8.155   8.164
20937TIP3    H262697   2.863   8.174   8.301
20938TIP3   OH262698   2.561   7.692   7.896
20938TIP3    H162699   2.478   7.688   7.948
20938TIP3    H262700   2.629   7.686   7.965
20939TIP3   OH262701   1.996   7.746   7.903
20939TIP3    H162702   1.901   7.753   7.876
20939TIP3    H262703   2.017   7.653   7.882
20940TIP3   OH262704   2.264   7.742   7.593
20940TIP3    H162705   2.358   7.756   7.570
20940TIP3    H262706   2.217   7.763   7.510
20941TIP3   OH262707   3.052   7.766   8.097
20941TIP3    H162708   3.019   7.777   8.189
20941TIP3    H262709   2.986   7.704   8.062
20942TIP3   OH262710   2.106   7.775   7.372
20942TIP3    H162711   2.032   7.731   7.326
20942TIP3    H262712   2.157   7.810   7.296
20943TIP3   OH262713   2.644   8.019   7.994
20943TIP3    H162714   2.715   7.977   7.944
20943TIP3    H262715   2.651   7.975   8.081
20944TIP3   OH262716   2.167   7.504   7.873
20944TIP3    H162717   2.131   7.427   7.920
20944TIP3    H262718   2.218   7.462   7.802
20945TIP3   OH262719   2.620   7.917   8.279
20945TIP3    H162720   2.530   7.950   8.299
20945TIP3    H262721   2.677   7.974   8.334
20946TIP3   OH262722   2.358   8.304   7.378
20946TIP3    H162723   2.285   8.240   7.367
20946TIP3    H262724   2.340   8.338   7.469
20947TIP3   OH262725   3.258   8.542   8.007
20947TIP3    H162726   3.283   8.592   7.926
20947TIP3    H262727   3.173   8.501   7.982
20948TIP3   OH262728   2.812   7.622   7.230
20948TIP3    H162729   2.718   7.601   7.248
20948TIP3    H262730   2.823   7.713   7.265
20949TIP3   OH262731   2.785   8.579   8.347
20949TIP3    H162732   2.794   8.565   8.442
20949TIP3    H262733   2.712   8.641   8.346
20950TIP3   OH262734   2.885   7.863   7.343
20950TIP3    H162735   2.981   7.870   7.362
20950TIP3    H262736   2.867   7.946   7.294
20951TIP3   OH262737   2.052   8.330   8.050
20951TIP3    H162738   2.087   8.303   7.963
20951TIP3    H262739   2.089   8.262   8.108
20952TIP3   OH262740   2.501   8.454   7.197
20952TIP3    H162741   2.454   8.541   7.202
20952TIP3    H262742   2.447   8.400   7.259
20953TIP3   OH262743   2.669   8.340   8.649
20953TIP3    H162744   2.644   8.322   8.556
20953TIP3    H262745   2.763   8.314   8.647
20954TIP3   OH262746   2.951   8.869   8.281
20954TIP3    H162747   2.858   8.889   8.303
20954TIP3    H262748   3.000   8.930   8.339
20955TIP3   OH262749   3.322   7.955   7.181
20955TIP3    H162750   3.261   7.913   7.116
20955TIP3    H262751   3.321   8.046   7.142
20956TIP3   OH262752   3.545   8.816   8.258
20956TIP3    H162753   3.448   8.804   8.245
20956TIP3    H262754   3.576   8.785   8.170
20957TIP3   OH262755   3.026   8.774   7.087
20957TIP3    H162756   3.003   8.705   7.149
20957TIP3    H262757   3.040   8.726   7.003
20958TIP3   OH262758   3.018   8.405   7.926
20958TIP3    H162759   2.926   8.374   7.938
20958TIP3    H262760   3.057   8.327   7.882
20959TIP3   OH262761   2.156   8.628   7.675
20959TIP3    H162762   2.152   8.708   7.619
20959TIP3    H262763   2.063   8.622   7.703
20960TIP3   OH262764   1.714   7.935   7.383
20960TIP3    H162765   1.760   8.019   7.403
20960TIP3    H262766   1.637   7.940   7.443
20961TIP3   OH262767   2.292   8.395   7.624
20961TIP3    H162768   2.254   8.484   7.638
20961TIP3    H262769   2.252   8.345   7.697
20962TIP3   OH262770   2.071   8.858   7.534
20962TIP3    H162771   1.984   8.885   7.569
20962TIP3    H262772   2.115   8.946   7.527
20963TIP3   OH262773   2.824   8.607   8.079
20963TIP3    H162774   2.827   8.590   8.176
20963TIP3    H262775   2.898   8.552   8.049
20964TIP3   OH262776   2.783   8.498   6.989
20964TIP3    H162777   2.835   8.474   7.069
20964TIP3    H262778   2.693   8.477   7.020
20965TIP3   OH262779   3.071   9.124   8.112
20965TIP3    H162780   2.981   9.107   8.142
20965TIP3    H262781   3.058   9.196   8.049
20966TIP3   OH262782   3.122   8.977   6.808
20966TIP3    H162783   3.164   9.052   6.763
20966TIP3    H262784   3.041   9.022   6.841
20967TIP3   OH262785   2.160   7.738   8.667
20967TIP3    H162786   2.081   7.773   8.712
20967TIP3    H262787   2.188   7.672   8.732
20968TIP3   OH262788   2.943   8.433   7.205
20968TIP3    H162789   2.934   8.369   7.278
20968TIP3    H262790   3.040   8.432   7.193
20969TIP3   OH262791   2.151   8.480   6.988
20969TIP3    H162792   2.163   8.387   6.962
20969TIP3    H262793   2.130   8.471   7.083
20970TIP3   OH262794   2.094   8.486   7.260
20970TIP3    H162795   2.165   8.461   7.321
20970TIP3    H262796   2.096   8.585   7.266
20971TIP3   OH262797   1.830   8.180   7.464
20971TIP3    H162798   1.764   8.224   7.521
20971TIP3    H262799   1.843   8.250   7.397
20972TIP3   OH262800   2.978   7.818   8.357
20972TIP3    H162801   3.058   7.854   8.397
20972TIP3    H262802   2.963   7.736   8.410
20973TIP3   OH262803   2.862   7.568   7.520
20973TIP3    H162804   2.846   7.595   7.428
20973TIP3    H262805   2.900   7.650   7.559
20974TIP3   OH262806   2.360   8.685   7.208
20974TIP3    H162807   2.273   8.710   7.245
20974TIP3    H262808   2.376   8.762   7.152
20975TIP3   OH262809   2.549   7.748   7.624
20975TIP3    H162810   2.613   7.821   7.608
20975TIP3    H262811   2.552   7.740   7.722
20976TIP3   OH262812   2.817   8.064   8.428
20976TIP3    H162813   2.845   8.115   8.507
20976TIP3    H262814   2.869   7.983   8.438
20977TIP3   OH262815   2.693   7.475   7.726
20977TIP3    H162816   2.688   7.551   7.787
20977TIP3    H262817   2.753   7.510   7.657
20978TIP3   OH262818   2.102   8.757   7.276
20978TIP3    H162819   2.074   8.827   7.213
20978TIP3    H262820   2.085   8.801   7.363
20979TIP3   OH262821   2.204   7.473   7.514
20979TIP3    H162822   2.201   7.563   7.553
20979TIP3    H262823   2.300   7.455   7.523
20980TIP3   OH262824   3.458   7.968   8.413
20980TIP3    H162825   3.360   7.966   8.420
20980TIP3    H262826   3.470   7.926   8.327
20981TIP3   OH262827   3.108   8.164   7.801
20981TIP3    H162828   3.033   8.103   7.813
20981TIP3    H262829   3.181   8.117   7.848
20982TIP3   OH262830   1.820   8.390   7.270
20982TIP3    H162831   1.884   8.463   7.279
20982TIP3    H262832   1.866   8.336   7.203
20983TIP3   OH262833   1.767   7.665   7.401
20983TIP3    H162834   1.764   7.763   7.399
20983TIP3    H262835   1.680   7.642   7.365
20984TIP3   OH262836   3.085   9.090   7.723
20984TIP3    H162837   3.040   9.144   7.656
20984TIP3    H262838   3.178   9.117   7.707
20985TIP3   OH262839   2.154   7.385   8.276
20985TIP3    H162840   2.122   7.351   8.190
20985TIP3    H262841   2.143   7.307   8.335
20986TIP3   OH262842   1.695   8.610   7.659
20986TIP3    H162843   1.616   8.632   7.709
20986TIP3    H262844   1.671   8.645   7.571
20987TIP3   OH262845   2.311   8.685   6.899
20987TIP3    H162846   2.254   8.616   6.939
20987TIP3    H262847   2.387   8.632   6.871
20988TIP3   OH262848   2.748   8.725   6.813
20988TIP3    H162849   2.794   8.664   6.872
20988TIP3    H262850   2.805   8.726   6.734
20989TIP3   OH262851   1.956   8.203   7.122
20989TIP3    H162852   2.010   8.170   7.196
20989TIP3    H262853   2.025   8.208   7.051
20990TIP3   OH262854   2.468   8.401   6.928
20990TIP3    H162855   2.468   8.414   7.025
20990TIP3    H262856   2.463   8.303   6.924
20991TIP3   OH262857   3.091   8.632   8.304
20991TIP3    H162858   3.161   8.683   8.259
20991TIP3    H262859   3.016   8.694   8.294
20992TIP3   OH262860   2.165   8.106   7.346
20992TIP3    H162861   2.136   8.066   7.429
20992TIP3    H262862   2.200   8.029   7.296
20993TIP3   OH262863   2.440   8.146   8.547
20993TIP3    H162864   2.384   8.203   8.602
20993TIP3    H262865   2.488   8.209   8.490
20994TIP3   OH262866   2.265   7.900   7.185
20994TIP3    H162867   2.238   7.904   7.091
20994TIP3    H262868   2.362   7.906   7.177
20995TIP3   OH262869   2.976   8.588   8.701
20995TIP3    H162870   3.033   8.543   8.638
20995TIP3    H262871   2.957   8.517   8.765
20996TIP3   OH262872   3.086   8.229   6.846
20996TIP3    H162873   3.064   8.186   6.762
20996TIP3    H262874   3.054   8.320   6.825
20997TIP3   OH262875   2.580   7.947   8.666
20997TIP3    H162876   2.574   7.867   8.609
20997TIP3    H262877   2.531   8.014   8.612
20998TIP3   OH262878   2.561   7.735   8.492
20998TIP3    H162879   2.585   7.777   8.408
20998TIP3    H262880   2.466   7.715   8.478
20999TIP3   OH262881   2.595   8.297   8.383
20999TIP3    H162882   2.671   8.287   8.324
20999TIP3    H262883   2.535   8.354   8.331
21000TIP3   OH262884   3.176   8.242   8.762
21000TIP3    H162885   3.223   8.158   8.762
21000TIP3    H262886   3.245   8.303   8.730
21001TIP3   OH262887   3.211   8.495   8.496
21001TIP3    H162888   3.153   8.546   8.434
21001TIP3    H262889   3.298   8.514   8.453
21002TIP3   OH262890   2.469   8.028   8.896
21002TIP3    H162891   2.378   7.992   8.892
21002TIP3    H262892   2.503   8.000   8.808
21003TIP3   OH262893   2.692   7.506   8.572
21003TIP3    H162894   2.643   7.587   8.546
21003TIP3    H262895   2.623   7.437   8.562
21004TIP3   OH262896   2.818   8.021   8.780
21004TIP3    H162897   2.811   8.003   8.875
21004TIP3    H262898   2.731   7.990   8.747
21005TIP3   OH262899   3.059   7.959   8.645
21005TIP3    H162900   2.984   7.966   8.707
21005TIP3    H262901   3.131   7.928   8.703
21006TIP3   OH262902   3.292   7.900   8.790
21006TIP3    H162903   3.302   7.803   8.802
21006TIP3    H262904   3.286   7.930   8.883
21007TIP3   OH262905   2.265   7.837   8.944
21007TIP3    H162906   2.281   7.745   8.917
21007TIP3    H262907   2.265   7.829   9.040
21008TIP3   OH262908   2.782   7.514   8.830
21008TIP3    H162909   2.851   7.445   8.824
21008TIP3    H262910   2.744   7.509   8.739
21009TIP3   OH262911   2.861   7.726   8.984
21009TIP3    H162912   2.829   7.656   8.922
21009TIP3    H262913   2.785   7.788   8.989
21010TIP3   OH262914   2.070   8.952   7.084
21010TIP3    H162915   2.166   8.959   7.071
21010TIP3    H262916   2.040   9.011   7.013
21011TIP3   OH262917   1.551   8.344   7.306
21011TIP3    H162918   1.646   8.367   7.292
21011TIP3    H262919   1.548   8.255   7.265
21012TIP3   OH262920   3.325   9.209   7.701
21012TIP3    H162921   3.350   9.234   7.793
21012TIP3    H262922   3.393   9.254   7.649
21013TIP3   OH262923   3.368   9.219   7.972
21013TIP3    H162924   3.330   9.129   7.979
21013TIP3    H262925   3.441   9.213   8.034
21014TIP3   OH262926   3.381   8.901   8.544
21014TIP3    H162927   3.289   8.882   8.565
21014TIP3    H262928   3.372   8.975   8.482
21015TIP3   OH262929   3.222   8.417   7.180
21015TIP3    H162930   3.289   8.482   7.151
21015TIP3    H262931   3.265   8.380   7.260
21016TIP3   OH262932   3.348   8.288   7.386
21016TIP3    H162933   3.284   8.246   7.448
21016TIP3    H262934   3.417   8.323   7.446
21017TIP3   OH262935   3.403   8.677   7.816
21017TIP3    H162936   3.457   8.611   7.767
21017TIP3    H262937   3.399   8.751   7.753
21018TIP3   OH262938   3.253   8.963   8.003
21018TIP3    H162939   3.184   9.015   8.051
21018TIP3    H262940   3.198   8.918   7.935
21019TIP3   OH262941   3.286   8.191   7.032
21019TIP3    H162942   3.215   8.197   6.964
21019TIP3    H262943   3.261   8.268   7.088
21020TIP3   OH262944   3.165   7.867   6.979
21020TIP3    H162945   3.112   7.908   6.910
21020TIP3    H262946   3.134   7.774   6.976
21021TIP3   OH262947   3.162   8.142   7.533
21021TIP3    H162948   3.173   8.046   7.529
21021TIP3    H262949   3.149   8.158   7.629
21022TIP3   OH262950   1.798   8.198   8.281
21022TIP3    H162951   1.789   8.190   8.184
21022TIP3    H262952   1.894   8.215   8.291
21023TIP3   OH262953   3.452   8.564   8.382
21023TIP3    H162954   3.524   8.497   8.376
21023TIP3    H262955   3.477   8.628   8.314
21024TIP3   OH262956   3.637   8.373   8.412
21024TIP3    H162957   3.562   8.319   8.446
21024TIP3    H262958   3.711   8.309   8.424
21025TIP3   OH262959   3.100   7.605   6.978
21025TIP3    H162960   3.178   7.564   7.019
21025TIP3    H262961   3.028   7.542   6.994
21026TIP3   OH262962   3.159   7.857   7.426
21026TIP3    H162963   3.200   7.769   7.441
21026TIP3    H262964   3.218   7.892   7.357
21027TIP3   OH262965   3.321   8.033   7.920
21027TIP3    H162966   3.407   8.059   7.880
21027TIP3    H262967   3.335   8.068   8.010
21028TIP3   OH262968   3.391   8.176   8.154
21028TIP3    H162969   3.312   8.210   8.200
21028TIP3    H262970   3.423   8.256   8.107
21029TIP3   OH262971   2.005   7.840   8.872
21029TIP3    H162972   2.096   7.867   8.898
21029TIP3    H262973   1.983   7.780   8.947
21030TIP3   OH262974   3.841   7.766   8.709
21030TIP3    H162975   3.901   7.701   8.666
21030TIP3    H262976   3.814   7.821   8.633
21031TIP3   OH262977   3.268   7.607   7.463
21031TIP3    H162978   3.318   7.593   7.546
21031TIP3    H262979   3.207   7.530   7.465
21032TIP3   OH262980   1.968   7.592   8.280
21032TIP3    H162981   2.031   7.518   8.293
21032TIP3    H262982   2.029   7.668   8.279
21033TIP3   OH262983   1.781   7.861   8.365
21033TIP3    H162984   1.830   7.864   8.281
21033TIP3    H262985   1.771   7.955   8.387
21034TIP3   OH262986   3.712   7.907   8.515
21034TIP3    H162987   3.625   7.946   8.532
21034TIP3    H262988   3.686   7.834   8.456
21035TIP3   OH262989   3.368   7.539   7.069
21035TIP3    H162990   3.446   7.487   7.095
21035TIP3    H262991   3.405   7.629   7.081
21036TIP3   OH262992   1.755   7.372   7.858
21036TIP3    H162993   1.661   7.368   7.885
21036TIP3    H262994   1.751   7.430   7.779
21037TIP3   OH262995   2.920   9.073   7.366
21037TIP3    H162996   2.963   9.056   7.280
21037TIP3    H262997   2.973   9.146   7.400
21038TIP3   OH262998   1.977   7.446   8.665
21038TIP3    H162999   1.924   7.447   8.746
21038TIP3    H263000   1.913   7.482   8.601
21039TIP3   OH263001   3.611   7.669   8.394
21039TIP3    H163002   3.520   7.661   8.360
21039TIP3    H263003   3.643   7.577   8.382
21040TIP3   OH263004   2.779   9.151   8.037
21040TIP3    H163005   2.699   9.122   7.991
21040TIP3    H263006   2.833   9.183   7.963
21041TIP3   OH263007   3.013   9.297   7.888
21041TIP3    H163008   3.000   9.356   7.813
21041TIP3    H263009   3.055   9.222   7.842
21042TIP3   OH263010   1.989   8.781   7.882
21042TIP3    H163011   2.025   8.715   7.945
21042TIP3    H263012   2.014   8.866   7.923
21043TIP3   OH263013   2.277   8.895   7.899
21043TIP3    H163014   2.259   8.801   7.889
21043TIP3    H263015   2.204   8.937   7.852
21044TIP3   OH263016   2.814   7.583   8.010
21044TIP3    H163017   2.772   7.514   8.064
21044TIP3    H263018   2.888   7.535   7.969
21045TIP3   OH263019   3.339   7.462   7.915
21045TIP3    H163020   3.376   7.516   7.841
21045TIP3    H263021   3.244   7.483   7.910
21046TIP3   OH263022   3.435   7.564   7.678
21046TIP3    H163023   3.509   7.511   7.640
21046TIP3    H263024   3.472   7.654   7.665
21047TIP3   OH263025   2.065   7.293   8.028
21047TIP3    H163026   1.973   7.260   8.030
21047TIP3    H263027   2.114   7.208   8.025
21048TIP3   OH263028   1.849   7.164   7.676
21048TIP3    H163029   1.880   7.221   7.604
21048TIP3    H263030   1.823   7.228   7.744
21049TIP3   OH263031   2.508   7.326   7.908
21049TIP3    H163032   2.568   7.376   7.850
21049TIP3    H263033   2.529   7.362   7.995
21050TIP3   OH263034   3.056   7.472   7.893
21050TIP3    H163035   3.054   7.433   7.805
21050TIP3    H263036   3.043   7.393   7.950
21051TIP3   OH263037   3.086   7.392   7.454
21051TIP3    H163038   3.000   7.436   7.468
21051TIP3    H263039   3.071   7.308   7.502
21052TIP3   OH263040   1.568   8.728   7.457
21052TIP3    H163041   1.481   8.700   7.422
21052TIP3    H263042   1.566   8.822   7.434
21053TIP3   OH263043   1.969   7.324   7.438
21053TIP3    H163044   2.017   7.259   7.383
21053TIP3    H263045   2.042   7.376   7.475
21054TIP3   OH263046   2.482   7.498   7.537
21054TIP3    H163047   2.539   7.450   7.599
21054TIP3    H263048   2.504   7.590   7.564
21055TIP3   OH263049   2.342   8.920   7.040
21055TIP3    H163050   2.428   8.945   7.002
21055TIP3    H263051   2.318   8.847   6.978
21056TIP3   OH263052   3.058   9.041   7.130
21056TIP3    H163053   3.050   8.943   7.117
21056TIP3    H263054   3.013   9.074   7.050
21057TIP3   OH263055   2.275   7.559   8.909
21057TIP3    H163056   2.235   7.496   8.972
21057TIP3    H263057   2.368   7.560   8.942
21058TIP3   OH263058   2.522   7.559   9.032
21058TIP3    H163059   2.608   7.543   8.990
21058TIP3    H263060   2.516   7.484   9.094
21059TIP3   OH263061   1.642   8.754   7.094
21059TIP3    H163062   1.646   8.789   7.184
21059TIP3    H263063   1.731   8.715   7.081
21060TIP3   OH263064   3.348   7.631   8.825
21060TIP3    H163065   3.366   7.601   8.917
21060TIP3    H263066   3.437   7.626   8.785
21061TIP3   OH263067   4.552   8.557   7.088
21061TIP3    H163068   4.522   8.647   7.064
21061TIP3    H263069   4.478   8.505   7.051
21062TIP3   OH263070   4.549   8.562   7.469
21062TIP3    H163071   4.582   8.527   7.553
21062TIP3    H263072   4.514   8.481   7.428
21063TIP3   OH263073   3.849   8.457   7.838
21063TIP3    H163074   3.880   8.386   7.897
21063TIP3    H263075   3.933   8.497   7.810
21064TIP3   OH263076   4.793   8.861   7.147
21064TIP3    H163077   4.781   8.787   7.207
21064TIP3    H263078   4.826   8.931   7.206
21065TIP3   OH263079   3.823   8.861   7.556
21065TIP3    H163080   3.814   8.763   7.557
21065TIP3    H263081   3.920   8.869   7.548
21066TIP3   OH263082   3.525   8.069   7.330
21066TIP3    H163083   3.480   8.152   7.352
21066TIP3    H263084   3.450   8.015   7.299
21067TIP3   OH263085   3.588   8.348   7.512
21067TIP3    H163086   3.638   8.272   7.550
21067TIP3    H263087   3.651   8.380   7.446
21068TIP3   OH263088   4.449   9.321   7.169
21068TIP3    H163089   4.490   9.255   7.109
21068TIP3    H263090   4.442   9.269   7.250
21069TIP3   OH263091   4.349   8.783   7.515
21069TIP3    H163092   4.386   8.705   7.471
21069TIP3    H263093   4.434   8.828   7.536
21070TIP3   OH263094   5.365   8.101   7.512
21070TIP3    H163095   5.393   8.186   7.552
21070TIP3    H263096   5.384   8.117   7.418
21071TIP3   OH263097   4.771   8.287   7.546
21071TIP3    H163098   4.809   8.199   7.563
21071TIP3    H263099   4.729   8.273   7.459
21072TIP3   OH263100   4.794   8.030   7.135
21072TIP3    H163101   4.869   8.016   7.197
21072TIP3    H263102   4.841   8.071   7.060
21073TIP3   OH263103   3.739   8.148   7.625
21073TIP3    H163104   3.827   8.131   7.663
21073TIP3    H263105   3.746   8.086   7.548
21074TIP3   OH263106   4.175   8.342   7.419
21074TIP3    H163107   4.272   8.336   7.424
21074TIP3    H263108   4.155   8.245   7.424
21075TIP3   OH263109   5.437   8.309   7.684
21075TIP3    H163110   5.355   8.357   7.662
21075TIP3    H263111   5.453   8.341   7.774
21076TIP3   OH263112   4.095   7.931   7.944
21076TIP3    H163113   4.041   7.963   7.870
21076TIP3    H263114   4.038   7.952   8.020
21077TIP3   OH263115   4.439   8.776   6.959
21077TIP3    H163116   4.406   8.757   6.871
21077TIP3    H263117   4.395   8.861   6.979
21078TIP3   OH263118   4.205   8.702   7.740
21078TIP3    H163119   4.142   8.768   7.777
21078TIP3    H263120   4.246   8.751   7.666
21079TIP3   OH263121   5.005   8.034   7.307
21079TIP3    H163122   4.991   7.992   7.392
21079TIP3    H263123   5.057   8.113   7.330
21080TIP3   OH263124   3.983   8.039   7.711
21080TIP3    H163125   4.047   8.108   7.739
21080TIP3    H263126   4.026   8.017   7.625
21081TIP3   OH263127   4.032   8.896   7.841
21081TIP3    H163128   4.006   8.982   7.801
21081TIP3    H263129   3.952   8.880   7.895
21082TIP3   OH263130   3.425   8.587   7.075
21082TIP3    H163131   3.386   8.616   6.990
21082TIP3    H263132   3.457   8.671   7.112
21083TIP3   OH263133   4.864   9.103   7.320
21083TIP3    H163134   4.772   9.095   7.355
21083TIP3    H263135   4.857   9.187   7.270
21084TIP3   OH263136   5.156   8.002   7.679
21084TIP3    H163137   5.068   8.028   7.647
21084TIP3    H263138   5.214   8.034   7.607
21085TIP3   OH263139   4.459   7.646   7.666
21085TIP3    H163140   4.436   7.552   7.674
21085TIP3    H263141   4.380   7.688   7.705
21086TIP3   OH263142   4.563   9.151   6.986
21086TIP3    H163143   4.611   9.067   6.968
21086TIP3    H263144   4.627   9.214   6.946
21087TIP3   OH263145   4.704   8.935   6.896
21087TIP3    H163146   4.684   8.854   6.848
21087TIP3    H263147   4.741   8.899   6.980
21088TIP3   OH263148   5.091   9.015   7.658
21088TIP3    H163149   5.081   8.937   7.599
21088TIP3    H263150   5.076   9.089   7.596
21089TIP3   OH263151   4.382   8.412   6.918
21089TIP3    H163152   4.305   8.464   6.889
21089TIP3    H263153   4.434   8.405   6.835
21090TIP3   OH263154   4.344   8.189   6.625
21090TIP3    H163155   4.411   8.250   6.664
21090TIP3    H263156   4.390   8.104   6.637
21091TIP3   OH263157   5.285   8.652   7.504
21091TIP3    H163158   5.203   8.704   7.507
21091TIP3    H263159   5.316   8.675   7.413
21092TIP3   OH263160   4.729   8.493   6.886
21092TIP3    H163161   4.677   8.515   6.966
21092TIP3    H263162   4.812   8.460   6.926
21093TIP3   OH263163   4.965   8.530   7.799
21093TIP3    H163164   4.960   8.616   7.844
21093TIP3    H263165   4.879   8.529   7.753
21094TIP3   OH263166   3.965   8.489   7.306
21094TIP3    H163167   3.923   8.433   7.237
21094TIP3    H263168   4.040   8.432   7.335
21095TIP3   OH263169   4.092   8.901   7.453
21095TIP3    H163170   4.071   8.862   7.367
21095TIP3    H263171   4.182   8.866   7.470
21096TIP3   OH263172   4.089   8.461   7.660
21096TIP3    H163173   4.124   8.431   7.573
21096TIP3    H263174   4.140   8.544   7.676
21097TIP3   OH263175   4.619   9.100   7.436
21097TIP3    H163176   4.615   9.175   7.497
21097TIP3    H263177   4.609   9.022   7.495
21098TIP3   OH263178   4.236   9.019   7.983
21098TIP3    H163179   4.174   9.080   8.028
21098TIP3    H263180   4.172   8.965   7.931
21099TIP3   OH263181   4.548   8.364   6.707
21099TIP3    H163182   4.623   8.392   6.763
21099TIP3    H263183   4.585   8.382   6.617
21100TIP3   OH263184   3.994   8.574   8.088
21100TIP3    H163185   3.994   8.662   8.131
21100TIP3    H263186   3.898   8.555   8.086
21101TIP3   OH263187   4.311   9.032   6.991
21101TIP3    H163188   4.394   9.081   7.001
21101TIP3    H263189   4.254   9.095   6.946
21102TIP3   OH263190   4.029   9.191   8.073
21102TIP3    H163191   3.994   9.186   7.981
21102TIP3    H263192   3.953   9.158   8.126
21103TIP3   OH263193   5.084   7.585   6.763
21103TIP3    H163194   5.003   7.614   6.810
21103TIP3    H263195   5.108   7.667   6.714
21104TIP3   OH263196   3.830   8.336   7.109
21104TIP3    H163197   3.760   8.372   7.052
21104TIP3    H263198   3.800   8.246   7.125
21105TIP3   OH263199   4.886   8.958   6.310
21105TIP3    H163200   4.895   9.054   6.295
21105TIP3    H263201   4.978   8.928   6.297
21106TIP3   OH263202   3.610   8.717   8.016
21106TIP3    H163203   3.546   8.695   7.945
21106TIP3    H263204   3.647   8.630   8.040
21107TIP3   OH263205   3.464   8.908   7.651
21107TIP3    H163206   3.560   8.900   7.639
21107TIP3    H263207   3.459   8.987   7.707
21108TIP3   OH263208   5.327   9.362   7.702
21108TIP3    H163209   5.329   9.265   7.714
21108TIP3    H263210   5.243   9.383   7.748
21109TIP3   OH263211   4.433   9.147   7.841
21109TIP3    H163212   4.432   9.240   7.872
21109TIP3    H263213   4.361   9.107   7.893
21110TIP3   OH263214   4.194   9.273   6.793
21110TIP3    H163215   4.151   9.255   6.707
21110TIP3    H263216   4.163   9.363   6.814
21111TIP3   OH263217   3.632   9.124   7.176
21111TIP3    H163218   3.681   9.115   7.261
21111TIP3    H263219   3.577   9.044   7.179
21112TIP3   OH263220   4.396   9.175   6.431
21112TIP3    H163221   4.455   9.106   6.394
21112TIP3    H263222   4.432   9.185   6.522
21113TIP3   OH263223   4.447   9.224   6.702
21113TIP3    H163224   4.359   9.233   6.745
21113TIP3    H263225   4.498   9.181   6.772
21114TIP3   OH263226   5.216   8.490   7.979
21114TIP3    H163227   5.137   8.501   7.924
21114TIP3    H263228   5.232   8.394   7.968
21115TIP3   OH263229   3.814   8.902   8.007
21115TIP3    H163230   3.865   8.880   8.088
21115TIP3    H263231   3.741   8.836   8.011
21116TIP3   OH263232   4.215   7.716   7.788
21116TIP3    H163233   4.123   7.691   7.766
21116TIP3    H263234   4.200   7.808   7.817
21117TIP3   OH263235   4.748   7.839   7.982
21117TIP3    H163236   4.815   7.810   8.048
21117TIP3    H263237   4.663   7.818   8.027
21118TIP3   OH263238   4.989   8.266   7.903
21118TIP3    H163239   4.937   8.264   7.986
21118TIP3    H263240   4.963   8.351   7.863
21119TIP3   OH263241   4.637   8.412   6.453
21119TIP3    H163242   4.619   8.358   6.374
21119TIP3    H263243   4.727   8.445   6.433
21120TIP3   OH263244   4.323   7.782   6.746
21120TIP3    H163245   4.324   7.779   6.843
21120TIP3    H263246   4.324   7.687   6.726
21121TIP3   OH263247   4.147   8.241   7.812
21121TIP3    H163248   4.090   8.261   7.889
21121TIP3    H263249   4.128   8.317   7.754
21122TIP3   OH263250   4.517   8.211   7.054
21122TIP3    H163251   4.467   8.281   7.008
21122TIP3    H263252   4.579   8.183   6.983
21123TIP3   OH263253   4.696   8.491   8.141
21123TIP3    H163254   4.673   8.416   8.200
21123TIP3    H263255   4.792   8.499   8.157
21124TIP3   OH263256   4.683   8.241   7.284
21124TIP3    H163257   4.621   8.267   7.213
21124TIP3    H263258   4.716   8.157   7.244
21125TIP3   OH263259   3.960   8.270   8.018
21125TIP3    H163260   3.999   8.328   8.084
21125TIP3    H263261   3.954   8.185   8.067
21126TIP3   OH263262   3.999   7.728   6.721
21126TIP3    H163263   4.012   7.733   6.818
21126TIP3    H263264   3.937   7.801   6.707
21127TIP3   OH263265   3.569   7.783   7.595
21127TIP3    H163266   3.630   7.828   7.656
21127TIP3    H263267   3.624   7.777   7.516
21128TIP3   OH263268   3.522   7.769   7.110
21128TIP3    H163269   3.581   7.807   7.042
21128TIP3    H263270   3.471   7.848   7.135
21129TIP3   OH263271   4.693   8.485   7.711
21129TIP3    H163272   4.724   8.414   7.651
21129TIP3    H263273   4.661   8.431   7.786
21130TIP3   OH263274   3.773   7.973   7.423
21130TIP3    H163275   3.702   7.997   7.361
21130TIP3    H263276   3.836   7.921   7.369
21131TIP3   OH263277   4.064   7.970   7.060
21131TIP3    H163278   4.151   8.011   7.076
21131TIP3    H263279   4.020   8.031   6.998
21132TIP3   OH263280   4.847   8.020   7.587
21132TIP3    H163281   4.808   8.034   7.676
21132TIP3    H263282   4.780   7.962   7.547
21133TIP3   OH263283   3.881   8.050   6.850
21133TIP3    H163284   3.827   7.992   6.794
21133TIP3    H263285   3.948   8.079   6.785
21134TIP3   OH263286   5.016   9.711   7.801
21134TIP3    H163287   5.016   9.731   7.705
21134TIP3    H263288   5.102   9.749   7.828
21135TIP3   OH263289   3.976   8.822   8.226
21135TIP3    H163290   4.055   8.854   8.273
21135TIP3    H263291   3.912   8.817   8.299
21136TIP3   OH263292   4.446   8.285   7.488
21136TIP3    H163293   4.495   8.229   7.427
21136TIP3    H263294   4.429   8.223   7.561
21137TIP3   OH263295   3.929   7.753   7.320
21137TIP3    H163296   3.930   7.691   7.395
21137TIP3    H263297   4.020   7.786   7.317
21138TIP3   OH263298   4.417   8.163   7.788
21138TIP3    H163299   4.326   8.200   7.783
21138TIP3    H263300   4.470   8.237   7.822
21139TIP3   OH263301   4.149   8.565   6.861
21139TIP3    H163302   4.079   8.497   6.853
21139TIP3    H263303   4.134   8.597   6.953
21140TIP3   OH263304   5.053   8.798   7.494
21140TIP3    H163305   5.078   8.847   7.413
21140TIP3    H263306   4.969   8.755   7.468
21141TIP3   OH263307   4.558   8.883   7.859
21141TIP3    H163308   4.573   8.853   7.950
21141TIP3    H263309   4.514   8.969   7.871
21142TIP3   OH263310   4.681   8.127   6.851
21142TIP3    H163311   4.774   8.099   6.849
21142TIP3    H263312   4.667   8.126   6.755
21143TIP3   OH263313   3.844   8.582   7.539
21143TIP3    H163314   3.882   8.556   7.452
21143TIP3    H263315   3.892   8.522   7.598
21144TIP3   OH263316   4.296   8.711   6.682
21144TIP3    H163317   4.250   8.797   6.690
21144TIP3    H263318   4.244   8.656   6.744
21145TIP3   OH263319   3.721   8.509   8.158
21145TIP3    H163320   3.748   8.486   8.249
21145TIP3    H263321   3.659   8.437   8.137
21146TIP3   OH263322   4.451   8.619   8.173
21146TIP3    H163323   4.392   8.562   8.122
21146TIP3    H263324   4.539   8.583   8.146
21147TIP3   OH263325   4.713   9.149   7.756
21147TIP3    H163326   4.618   9.138   7.768
21147TIP3    H263327   4.737   9.199   7.836
21148TIP3   OH263328   5.116   8.197   6.655
21148TIP3    H163329   5.038   8.147   6.622
21148TIP3    H263330   5.102   8.283   6.610
21149TIP3   OH263331   5.342   9.071   7.747
21149TIP3    H163332   5.245   9.064   7.738
21149TIP3    H263333   5.369   9.040   7.657
21150TIP3   OH263334   4.820   9.029   6.574
21150TIP3    H163335   4.800   8.957   6.634
21150TIP3    H263336   4.835   8.984   6.489
21151TIP3   OH263337   4.819   8.659   7.415
21151TIP3    H163338   4.726   8.633   7.425
21151TIP3    H263339   4.854   8.580   7.369
21152TIP3   OH263340   3.947   8.889   7.170
21152TIP3    H163341   3.949   8.968   7.113
21152TIP3    H263342   3.853   8.870   7.173
21153TIP3   OH263343   3.509   8.188   6.869
21153TIP3    H163344   3.558   8.271   6.888
21153TIP3    H263345   3.434   8.196   6.931
21154TIP3   OH263346   4.083   8.653   7.108
21154TIP3    H163347   4.050   8.743   7.130
21154TIP3    H263348   4.051   8.602   7.184
21155TIP3   OH263349   4.218   9.229   7.639
21155TIP3    H163350   4.259   9.298   7.583
21155TIP3    H263351   4.296   9.191   7.683
21156TIP3   OH263352   3.865   9.126   7.017
21156TIP3    H163353   3.780   9.136   7.064
21156TIP3    H263354   3.898   9.219   7.019
21157TIP3   OH263355   4.607   8.868   7.591
21157TIP3    H163356   4.599   8.863   7.688
21157TIP3    H263357   4.680   8.807   7.574
21158TIP3   OH263358   4.580   8.761   6.478
21158TIP3    H163359   4.635   8.736   6.555
21158TIP3    H263360   4.493   8.728   6.507
21159TIP3   OH263361   4.852   9.404   7.648
21159TIP3    H163362   4.775   9.344   7.641
21159TIP3    H263363   4.835   9.464   7.572
21160TIP3   OH263364   4.917   9.234   6.294
21160TIP3    H163365   4.956   9.308   6.244
21160TIP3    H263366   4.837   9.278   6.328
21161TIP3   OH263367   3.936   8.014   8.162
21161TIP3    H163368   3.839   8.013   8.174
21161TIP3    H263369   3.965   7.951   8.230
21162TIP3   OH263370   4.740   8.699   6.698
21162TIP3    H163371   4.726   8.627   6.762
21162TIP3    H263372   4.836   8.690   6.682
21163TIP3   OH263373   3.651   9.091   7.793
21163TIP3    H163374   3.709   9.024   7.832
21163TIP3    H263375   3.678   9.170   7.842
21164TIP3   OH263376   3.942   8.739   6.476
21164TIP3    H163377   3.961   8.648   6.448
21164TIP3    H263378   3.924   8.727   6.571
21165TIP3   OH263379   3.889   8.742   6.750
21165TIP3    H163380   3.966   8.714   6.802
21165TIP3    H263381   3.895   8.840   6.757
21166TIP3   OH263382   3.622   8.433   6.950
21166TIP3    H163383   3.558   8.481   7.008
21166TIP3    H263384   3.642   8.503   6.885
21167TIP3   OH263385   4.771   8.080   7.849
21167TIP3    H163386   4.858   8.111   7.881
21167TIP3    H263387   4.758   7.997   7.898
21168TIP3   OH263388   4.652   7.835   6.996
21168TIP3    H163389   4.631   7.878   6.911
21168TIP3    H263390   4.697   7.909   7.042
21169TIP3   OH263391   4.154   8.941   6.697
21169TIP3    H163392   4.068   8.970   6.732
21169TIP3    H263393   4.172   9.012   6.634
21170TIP3   OH263394   4.342   8.005   7.121
21170TIP3    H163395   4.408   8.073   7.096
21170TIP3    H263396   4.325   8.026   7.214
21171TIP3   OH263397   4.614   8.328   7.918
21171TIP3    H163398   4.640   8.374   8.000
21171TIP3    H263399   4.664   8.244   7.922
21172TIP3   OH263400   4.497   7.734   7.211
21172TIP3    H163401   4.505   7.807   7.274
21172TIP3    H263402   4.548   7.772   7.135
21173TIP3   OH263403   3.897   9.016   6.764
21173TIP3    H163404   3.869   9.086   6.701
21173TIP3    H263405   3.883   9.060   6.850
21174TIP3   OH263406   4.000   7.718   6.993
21174TIP3    H163407   4.002   7.809   7.031
21174TIP3    H263408   4.093   7.695   7.010
21175TIP3   OH263409   5.255   8.223   7.901
21175TIP3    H163410   5.157   8.221   7.907
21175TIP3    H263411   5.267   8.187   7.812
21176TIP3   OH263412   4.905   8.420   7.289
21176TIP3    H163413   4.829   8.359   7.296
21176TIP3    H263414   4.976   8.370   7.335
21177TIP3   OH263415   3.617   8.648   6.756
21177TIP3    H163416   3.685   8.716   6.767
21177TIP3    H263417   3.662   8.591   6.689
21178TIP3   OH263418   3.555   7.912   6.866
21178TIP3    H163419   3.576   8.007   6.873
21178TIP3    H263420   3.458   7.915   6.870
21179TIP3   OH263421   4.872   9.375   7.237
21179TIP3    H163422   4.830   9.424   7.163
21179TIP3    H263423   4.966   9.394   7.217
21180TIP3   OH263424   3.946   7.645   7.770
21180TIP3    H163425   3.918   7.614   7.680
21180TIP3    H263426   3.937   7.564   7.823
21181TIP3   OH263427   3.489   8.860   7.145
21181TIP3    H163428   3.417   8.892   7.201
21181TIP3    H263429   3.464   8.900   7.058
21182TIP3   OH263430   3.684   9.365   8.203
21182TIP3    H163431   3.770   9.333   8.235
21182TIP3    H263432   3.646   9.280   8.174
21183TIP3   OH263433   4.165   9.380   8.221
21183TIP3    H163434   4.242   9.325   8.242
21183TIP3    H263435   4.110   9.314   8.173
21184TIP3   OH263436   4.107   8.942   6.389
21184TIP3    H163437   4.052   8.870   6.426
21184TIP3    H263438   4.184   8.892   6.357
21185TIP3   OH263439   4.758   9.278   8.000
21185TIP3    H163440   4.754   9.204   8.063
21185TIP3    H263441   4.843   9.321   8.021
21186TIP3   OH263442   4.543   8.982   6.299
21186TIP3    H163443   4.586   8.918   6.359
21186TIP3    H263444   4.602   8.982   6.222
21187TIP3   OH263445   3.775   8.786   8.411
21187TIP3    H163446   3.793   8.690   8.406
21187TIP3    H263447   3.689   8.793   8.366
21188TIP3   OH263448   3.752   8.458   6.611
21188TIP3    H163449   3.809   8.427   6.684
21188TIP3    H263450   3.818   8.463   6.539
21189TIP3   OH263451   4.384   8.893   8.188
21189TIP3    H163452   4.341   8.908   8.101
21189TIP3    H263453   4.414   8.800   8.182
21190TIP3   OH263454   4.257   8.655   6.415
21190TIP3    H163455   4.265   8.669   6.511
21190TIP3    H263456   4.260   8.557   6.411
21191TIP3   OH263457   4.878   8.903   7.800
21191TIP3    H163458   4.951   8.946   7.752
21191TIP3    H263459   4.805   8.964   7.779
21192TIP3   OH263460   3.896   8.535   8.398
21192TIP3    H163461   3.973   8.484   8.371
21192TIP3    H263462   3.925   8.572   8.484
21193TIP3   OH263463   3.957   8.364   6.829
21193TIP3    H163464   3.934   8.324   6.914
21193TIP3    H263465   3.995   8.289   6.780
21194TIP3   OH263466   4.228   8.428   8.063
21194TIP3    H163467   4.151   8.488   8.063
21194TIP3    H263468   4.278   8.459   7.984
21195TIP3   OH263469   4.062   8.156   6.672
21195TIP3    H163470   4.037   8.161   6.578
21195TIP3    H263471   4.159   8.162   6.665
21196TIP3   OH263472   4.751   8.831   8.196
21196TIP3    H163473   4.823   8.801   8.140
21196TIP3    H263474   4.744   8.760   8.261
21197TIP3   OH263475   4.882   8.490   6.335
21197TIP3    H163476   4.861   8.438   6.255
21197TIP3    H263477   4.847   8.578   6.308
21198TIP3   OH263478   4.353   8.214   8.186
21198TIP3    H163479   4.353   8.134   8.129
21198TIP3    H263480   4.310   8.280   8.127
21199TIP3   OH263481   4.354   7.998   7.999
21199TIP3    H163482   4.384   8.044   7.917
21199TIP3    H263483   4.261   7.977   7.976
21200TIP3   OH263484   4.383   8.541   7.872
21200TIP3    H163485   4.464   8.538   7.819
21200TIP3    H263486   4.328   8.605   7.823
21201TIP3   OH263487   4.967   8.506   8.249
21201TIP3    H163488   5.011   8.419   8.254
21201TIP3    H263489   5.036   8.560   8.208
21202TIP3   OH263490   5.006   8.761   7.989
21202TIP3    H163491   4.949   8.813   7.928
21202TIP3    H263492   5.094   8.777   7.948
21203TIP3   OH263493   4.230   8.328   8.416
21203TIP3    H163494   4.163   8.258   8.430
21203TIP3    H263495   4.264   8.304   8.328
21204TIP3   OH263496   4.488   7.765   8.062
21204TIP3    H163497   4.440   7.847   8.038
21204TIP3    H263498   4.419   7.698   8.047
21205TIP3   OH263499   4.612   8.270   8.276
21205TIP3    H163500   4.598   8.256   8.372
21205TIP3    H263501   4.523   8.245   8.243
21206TIP3   OH263502   4.854   8.226   8.134
21206TIP3    H163503   4.778   8.221   8.194
21206TIP3    H263504   4.927   8.191   8.189
21207TIP3   OH263505   5.081   8.159   8.283
21207TIP3    H163506   5.094   8.064   8.301
21207TIP3    H263507   5.079   8.198   8.373
21208TIP3   OH263508   4.069   8.108   8.469
21208TIP3    H163509   4.076   8.018   8.433
21208TIP3    H263510   4.106   8.094   8.559
21209TIP3   OH263511   4.581   7.774   8.319
21209TIP3    H163512   4.648   7.703   8.310
21209TIP3    H263513   4.541   7.771   8.230
21210TIP3   OH263514   4.648   7.989   8.478
21210TIP3    H163515   4.626   7.919   8.413
21210TIP3    H263516   4.570   8.049   8.470
21211TIP3   OH263517   3.869   9.218   6.577
21211TIP3    H163518   3.964   9.213   6.559
21211TIP3    H263519   3.840   9.269   6.498
21212TIP3   OH263520   3.349   8.602   6.793
21212TIP3    H163521   3.443   8.624   6.779
21212TIP3    H263522   3.345   8.513   6.752
21213TIP3   OH263523   3.261   9.213   7.208
21213TIP3    H163524   3.195   9.151   7.171
21213TIP3    H263525   3.307   9.155   7.273
21214TIP3   OH263526   3.398   9.064   7.393
21214TIP3    H163527   3.388   8.991   7.456
21214TIP3    H263528   3.449   9.126   7.448
21215TIP3   OH263529   5.122   9.472   7.193
21215TIP3    H163530   5.160   9.502   7.278
21215TIP3    H263531   5.190   9.499   7.129
21216TIP3   OH263532   5.155   9.487   7.479
21216TIP3    H163533   5.111   9.400   7.470
21216TIP3    H263534   5.234   9.460   7.529
21217TIP3   OH263535   5.194   9.157   8.046
21217TIP3    H163536   5.123   9.167   8.112
21217TIP3    H263537   5.243   9.241   8.057
21218TIP3   OH263538   5.018   8.674   6.667
21218TIP3    H163539   5.087   8.737   6.639
21218TIP3    H263540   5.060   8.635   6.747
21219TIP3   OH263541   5.145   8.543   6.871
21219TIP3    H163542   5.080   8.499   6.930
21219TIP3    H263543   5.211   8.578   6.934
21220TIP3   OH263544   5.199   8.933   7.303
21220TIP3    H163545   5.252   8.867   7.255
21220TIP3    H263546   5.197   9.007   7.240
21221TIP3   OH263547   5.032   9.235   7.499
21221TIP3    H163548   4.958   9.273   7.550
21221TIP3    H263549   4.985   9.186   7.428
21222TIP3   OH263550   5.081   8.446   6.517
21222TIP3    H163551   5.009   8.452   6.450
21222TIP3    H263552   5.056   8.521   6.575
21223TIP3   OH263553   4.960   8.397   7.017
21223TIP3    H163554   4.965   8.300   7.005
21223TIP3    H263555   4.947   8.406   7.113
21224TIP3   OH263556   3.585   8.472   7.765
21224TIP3    H163557   3.585   8.440   7.672
21224TIP3    H263558   3.682   8.476   7.782
21225TIP3   OH263559   5.249   8.823   7.876
21225TIP3    H163560   5.321   8.757   7.867
21225TIP3    H263561   5.274   8.889   7.810
21226TIP3   OH263562   5.433   8.629   7.899
21226TIP3    H163563   5.358   8.576   7.932
21226TIP3    H263564   5.506   8.564   7.910
21227TIP3   OH263565   4.966   8.116   6.930
21227TIP3    H163566   5.007   8.027   6.939
21227TIP3    H263567   4.999   8.139   6.842
21228TIP3   OH263568   5.119   8.287   7.409
21228TIP3    H163569   5.204   8.314   7.367
21228TIP3    H263570   5.132   8.325   7.498
21229TIP3   OH263571   5.189   8.433   7.642
21229TIP3    H163572   5.109   8.467   7.686
21229TIP3    H263573   5.220   8.512   7.594
21230TIP3   OH263574   3.802   8.160   8.442
21230TIP3    H163575   3.900   8.153   8.441
21230TIP3    H263576   3.779   8.074   8.481
21231TIP3   OH263577   5.635   8.020   8.196
21231TIP3    H163578   5.696   7.958   8.153
21231TIP3    H263579   5.607   8.077   8.121
21232TIP3   OH263580   5.069   7.862   6.952
21232TIP3    H163581   5.113   7.844   7.037
21232TIP3    H263582   5.005   7.788   6.947
21233TIP3   OH263583   3.766   7.859   7.780
21233TIP3    H163584   3.825   7.781   7.784
21233TIP3    H263585   3.830   7.926   7.752
21234TIP3   OH263586   3.565   8.126   7.841
21234TIP3    H163587   3.619   8.116   7.760
21234TIP3    H263588   3.600   8.209   7.875
21235TIP3   OH263589   5.508   8.163   8.003
21235TIP3    H163590   5.421   8.204   8.019
21235TIP3    H263591   5.481   8.091   7.943
21236TIP3   OH263592   5.182   7.785   6.607
21236TIP3    H163593   5.190   7.726   6.529
21236TIP3    H263594   5.213   7.870   6.574
21237TIP3   OH263595   3.539   7.605   7.328
21237TIP3    H163596   3.460   7.628   7.379
21237TIP3    H263597   3.547   7.681   7.267
21238TIP3   OH263598   4.711   9.334   6.852
21238TIP3    H163599   4.756   9.315   6.767
21238TIP3    H263600   4.773   9.396   6.892
21239TIP3   OH263601   3.771   7.710   8.160
21239TIP3    H163602   3.719   7.704   8.241
21239TIP3    H263603   3.706   7.746   8.098
21240TIP3   OH263604   3.819   9.128   8.247
21240TIP3    H163605   3.731   9.094   8.223
21240TIP3    H263606   3.819   9.108   8.343
21241TIP3   OH263607   3.992   9.167   7.789
21241TIP3    H163608   3.942   9.240   7.746
21241TIP3    H263609   4.076   9.181   7.742
21242TIP3   OH263610   4.435   9.414   7.926
21242TIP3    H163611   4.484   9.413   8.011
21242TIP3    H263612   4.499   9.462   7.868
21243TIP3   OH263613   4.619   9.554   7.787
21243TIP3    H163614   4.689   9.510   7.736
21243TIP3    H263615   4.671   9.620   7.838
21244TIP3   OH263616   5.406   7.927   7.881
21244TIP3    H163617   5.317   7.924   7.843
21244TIP3    H263618   5.436   7.834   7.868
21245TIP3   OH263619   3.671   9.403   7.793
21245TIP3    H163620   3.577   9.425   7.774
21245TIP3    H263621   3.678   9.460   7.873
21246TIP3   OH263622   3.903   9.387   7.658
21246TIP3    H163623   3.816   9.401   7.702
21246TIP3    H263624   3.891   9.437   7.575
21247TIP3   OH263625   4.325   9.431   7.467
21247TIP3    H163626   4.256   9.435   7.398
21247TIP3    H263627   4.348   9.523   7.477
21248TIP3   OH263628   4.600   9.371   7.518
21248TIP3    H163629   4.507   9.382   7.492
21248TIP3    H263630   4.645   9.439   7.466
21249TIP3   OH263631   4.800   9.562   7.427
21249TIP3    H163632   4.789   9.647   7.378
21249TIP3    H263633   4.830   9.502   7.355
21250TIP3   OH263634   3.575   9.218   7.551
21250TIP3    H163635   3.602   9.195   7.642
21250TIP3    H263636   3.647   9.174   7.501
21251TIP3   OH263637   3.770   9.090   7.409
21251TIP3    H163638   3.787   9.006   7.458
21251TIP3    H263639   3.861   9.126   7.403
21252TIP3   OH263640   4.037   9.186   7.409
21252TIP3    H163641   4.070   9.095   7.396
21252TIP3    H263642   4.074   9.205   7.496
21253TIP3   OH263643   4.631   7.843   7.500
21253TIP3    H163644   4.571   7.785   7.548
21253TIP3    H263645   4.695   7.782   7.460
21254TIP3   OH263646   5.139   7.721   7.408
21254TIP3    H163647   5.175   7.773   7.332
21254TIP3    H263648   5.043   7.738   7.399
21255TIP3   OH263649   5.233   7.818   7.171
21255TIP3    H163650   5.306   7.770   7.126
21255TIP3    H263651   5.262   7.911   7.156
21256TIP3   OH263652   3.862   7.548   7.527
21256TIP3    H163653   3.770   7.515   7.523
21256TIP3    H263654   3.912   7.464   7.516
21257TIP3   OH263655   3.610   7.427   7.139
21257TIP3    H163656   3.681   7.477   7.095
21257TIP3    H263657   3.599   7.481   7.221
21258TIP3   OH263658   4.309   7.575   7.399
21258TIP3    H163659   4.360   7.628   7.336
21258TIP3    H263660   4.314   7.631   7.478
21259TIP3   OH263661   4.862   7.724   7.378
21259TIP3    H163662   4.849   7.695   7.287
21259TIP3    H263663   4.842   7.642   7.429
21260TIP3   OH263664   4.882   7.653   6.945
21260TIP3    H163665   4.796   7.699   6.947
21260TIP3    H263666   4.860   7.568   6.989
21261TIP3   OH263667   3.364   8.990   6.944
21261TIP3    H163668   3.279   8.957   6.909
21261TIP3    H263669   3.353   9.085   6.927
21262TIP3   OH263670   3.772   7.569   6.930
21262TIP3    H163671   3.843   7.525   6.881
21262TIP3    H263672   3.827   7.637   6.974
21263TIP3   OH263673   4.284   7.748   7.026
21263TIP3    H163674   4.346   7.713   7.092
21263TIP3    H263675   4.288   7.843   7.050
21264TIP3   OH263676   4.137   9.179   6.526
21264TIP3    H163677   4.225   9.201   6.490
21264TIP3    H263678   4.115   9.104   6.466
21265TIP3   OH263679   4.852   9.295   6.619
21265TIP3    H163680   4.845   9.198   6.605
21265TIP3    H263681   4.809   9.328   6.537
21266TIP3   OH263682   4.068   7.830   8.407
21266TIP3    H163683   4.035   7.759   8.464
21266TIP3    H263684   4.163   7.831   8.433
21267TIP3   OH263685   4.318   7.829   8.526
21267TIP3    H163686   4.402   7.804   8.484
21267TIP3    H263687   4.307   7.757   8.591
21268TIP3   OH263688   3.440   9.013   6.581
21268TIP3    H163689   3.445   9.040   6.674
21268TIP3    H263690   3.529   8.972   6.567
21269TIP3   OH263691   5.144   7.889   8.313
21269TIP3    H163692   5.164   7.859   8.404
21269TIP3    H263693   5.232   7.885   8.271
21270TIP3   OH263694   5.081   9.442   7.807
21270TIP3    H163695   5.004   9.411   7.755
21270TIP3    H263696   5.062   9.538   7.808
21271TIP3   OH263697   6.352   8.812   6.567
21271TIP3    H163698   6.326   8.905   6.555
21271TIP3    H263699   6.270   8.767   6.541
21272TIP3   OH263700   6.337   8.815   6.922
21272TIP3    H163701   6.360   8.810   7.017
21272TIP3    H263702   6.298   8.727   6.909
21273TIP3   OH263703   5.646   8.711   7.323
21273TIP3    H163704   5.679   8.643   7.385
21273TIP3    H263705   5.727   8.757   7.299
21274TIP3   OH263706   6.589   9.111   6.630
21274TIP3    H163707   6.581   9.045   6.700
21274TIP3    H263708   6.618   9.189   6.682
21275TIP3   OH263709   5.613   9.112   7.052
21275TIP3    H163710   5.601   9.014   7.050
21275TIP3    H263711   5.708   9.116   7.039
21276TIP3   OH263712   5.323   8.321   6.825
21276TIP3    H163713   5.274   8.404   6.839
21276TIP3    H263714   5.252   8.264   6.791
21277TIP3   OH263715   5.384   8.610   7.000
21277TIP3    H163716   5.433   8.532   7.035
21277TIP3    H263717   5.447   8.645   6.935
21278TIP3   OH263718   6.250   9.584   6.655
21278TIP3    H163719   6.296   9.515   6.602
21278TIP3    H263720   6.223   9.532   6.732
21279TIP3   OH263721   6.156   9.024   7.029
21279TIP3    H163722   6.177   8.965   6.955
21279TIP3    H263723   6.239   9.076   7.034
21280TIP3   OH263724   7.167   8.353   6.993
21280TIP3    H163725   7.188   8.440   7.034
21280TIP3    H263726   7.173   8.376   6.899
21281TIP3   OH263727   6.556   8.575   7.002
21281TIP3    H163728   6.590   8.511   7.066
21281TIP3    H263729   6.527   8.519   6.927
21282TIP3   OH263730   5.896   8.200   7.000
21282TIP3    H163731   5.877   8.273   6.938
21282TIP3    H263732   5.848   8.127   6.954
21283TIP3   OH263733   6.595   8.286   6.620
21283TIP3    H163734   6.666   8.272   6.686
21283TIP3    H263735   6.646   8.326   6.547
21284TIP3   OH263736   5.529   8.401   7.106
21284TIP3    H163737   5.613   8.383   7.152
21284TIP3    H263738   5.542   8.347   7.025
21285TIP3   OH263739   5.973   8.601   6.899
21285TIP3    H163740   6.067   8.574   6.912
21285TIP3    H263741   5.932   8.519   6.866
21286TIP3   OH263742   7.217   8.569   7.158
21286TIP3    H163743   7.135   8.612   7.125
21286TIP3    H263744   7.185   8.543   7.246
21287TIP3   OH263745   5.891   8.183   7.433
21287TIP3    H163746   5.833   8.221   7.364
21287TIP3    H263747   5.840   8.205   7.514
21288TIP3   OH263748   6.245   9.038   6.433
21288TIP3    H163749   6.198   9.016   6.352
21288TIP3    H263750   6.206   9.125   6.454
21289TIP3   OH263751   5.997   8.954   7.234
21289TIP3    H163752   5.939   9.028   7.263
21289TIP3    H263753   6.047   8.994   7.159
21290TIP3   OH263754   6.804   8.288   6.798
21290TIP3    H163755   6.762   8.269   6.884
21290TIP3    H263756   6.851   8.371   6.818
21291TIP3   OH263757   5.763   8.298   7.217
21291TIP3    H163758   5.825   8.372   7.240
21291TIP3    H263759   5.812   8.258   7.142
21292TIP3   OH263760   5.826   9.155   7.326
21292TIP3    H163761   5.800   9.241   7.288
21292TIP3    H263762   5.747   9.138   7.383
21293TIP3   OH263763   5.222   8.843   6.562
21293TIP3    H163764   5.181   8.875   6.480
21293TIP3    H263765   5.253   8.927   6.603
21294TIP3   OH263766   6.648   9.333   6.780
21294TIP3    H163767   6.566   9.333   6.834
21294TIP3    H263768   6.649   9.426   6.751
21295TIP3   OH263769   6.957   8.263   7.167
21295TIP3    H163770   6.866   8.287   7.141
21295TIP3    H263771   7.009   8.289   7.089
21296TIP3   OH263772   6.250   7.904   7.148
21296TIP3    H163773   6.234   7.809   7.163
21296TIP3    H263774   6.173   7.943   7.193
21297TIP3   OH263775   6.381   9.412   6.489
21297TIP3    H163776   6.425   9.328   6.466
21297TIP3    H263777   6.435   9.475   6.436
21298TIP3   OH263778   6.509   9.190   6.380
21298TIP3    H163779   6.453   9.116   6.357
21298TIP3    H263780   6.546   9.158   6.466
21299TIP3   OH263781   6.175   8.662   6.399
21299TIP3    H163782   6.097   8.715   6.374
21299TIP3    H263783   6.228   8.662   6.317
21300TIP3   OH263784   6.137   8.451   6.118
21300TIP3    H163785   6.203   8.501   6.168
21300TIP3    H263786   6.195   8.388   6.070
21301TIP3   OH263787   7.079   8.887   6.978
21301TIP3    H163788   7.001   8.946   6.990
21301TIP3    H263789   7.117   8.927   6.897
21302TIP3   OH263790   6.528   8.747   6.372
21302TIP3    H163791   6.473   8.772   6.450
21302TIP3    H263792   6.612   8.723   6.417
21303TIP3   OH263793   6.737   8.843   7.193
21303TIP3    H163794   6.778   8.842   7.281
21303TIP3    H263795   6.653   8.800   7.208
21304TIP3   OH263796   5.734   8.724   6.807
21304TIP3    H163797   5.713   8.681   6.722
21304TIP3    H263798   5.827   8.697   6.822
21305TIP3   OH263799   5.890   8.717   7.146
21305TIP3    H163800   5.924   8.696   7.056
21305TIP3    H263801   5.936   8.801   7.166
21306TIP3   OH263802   6.419   9.359   6.926
21306TIP3    H163803   6.412   9.431   6.989
21306TIP3    H263804   6.409   9.279   6.982
21307TIP3   OH263805   6.032   9.277   7.463
21307TIP3    H163806   5.967   9.334   7.508
21307TIP3    H263807   5.971   9.217   7.414
21308TIP3   OH263808   6.367   8.607   6.201
21308TIP3    H163809   6.427   8.666   6.252
21308TIP3    H263810   6.393   8.630   6.108
21309TIP3   OH263811   5.788   8.829   7.573
21309TIP3    H163812   5.790   8.917   7.616
21309TIP3    H263813   5.693   8.811   7.574
21310TIP3   OH263814   6.115   9.287   6.443
21310TIP3    H163815   6.168   9.333   6.508
21310TIP3    H263816   6.027   9.288   6.485
21311TIP3   OH263817   5.829   9.436   7.564
21311TIP3    H163818   5.796   9.443   7.472
21311TIP3    H263819   5.747   9.420   7.615
21312TIP3   OH263820   6.885   7.844   6.249
21312TIP3    H163821   6.803   7.866   6.298
21312TIP3    H263822   6.899   7.926   6.198
21313TIP3   OH263823   5.631   8.583   6.578
21313TIP3    H163824   5.559   8.630   6.531
21313TIP3    H263825   5.586   8.504   6.609
21314TIP3   OH263826   6.681   9.214   5.795
21314TIP3    H163827   6.691   9.311   5.782
21314TIP3    H263828   6.773   9.184   5.783
21315TIP3   OH263829   5.405   8.974   7.502
21315TIP3    H163830   5.342   8.951   7.431
21315TIP3    H263831   5.443   8.887   7.527
21316TIP3   OH263832   5.262   9.162   7.141
21316TIP3    H163833   5.356   9.152   7.120
21316TIP3    H263834   5.261   9.244   7.192
21317TIP3   OH263835   6.216   9.410   7.319
21317TIP3    H163836   6.231   9.480   7.384
21317TIP3    H263837   6.147   9.358   7.366
21318TIP3   OH263838   5.995   9.551   6.258
21318TIP3    H163839   5.931   9.523   6.192
21318TIP3    H263840   5.953   9.630   6.298
21319TIP3   OH263841   5.421   9.378   6.670
21319TIP3    H163842   5.479   9.370   6.748
21319TIP3    H263843   5.376   9.292   6.673
21320TIP3   OH263844   6.192   9.434   5.918
21320TIP3    H163845   6.252   9.363   5.884
21320TIP3    H263846   6.223   9.442   6.011
21321TIP3   OH263847   6.243   9.476   6.190
21321TIP3    H163848   6.153   9.493   6.227
21321TIP3    H263849   6.280   9.424   6.263
21322TIP3   OH263850   6.927   8.794   7.381
21322TIP3    H163851   7.018   8.819   7.355
21322TIP3    H263852   6.937   8.701   7.402
21323TIP3   OH263853   5.608   9.160   7.494
21323TIP3    H163854   5.660   9.136   7.574
21323TIP3    H263855   5.535   9.094   7.498
21324TIP3   OH263856   6.011   7.977   7.276
21324TIP3    H163857   5.921   7.949   7.250
21324TIP3    H263858   5.989   8.062   7.319
21325TIP3   OH263859   6.537   8.071   7.491
21325TIP3    H163860   6.597   8.056   7.566
21325TIP3    H263861   6.448   8.057   7.530
21326TIP3   OH263862   6.840   8.512   7.459
21326TIP3    H163863   6.776   8.501   7.532
21326TIP3    H263864   6.773   8.535   7.391
21327TIP3   OH263865   6.442   8.654   5.945
21327TIP3    H163866   6.410   8.627   5.857
21327TIP3    H263867   6.525   8.701   5.921
21328TIP3   OH263868   6.154   8.028   6.247
21328TIP3    H163869   6.122   8.025   6.339
21328TIP3    H263870   6.117   7.945   6.213
21329TIP3   OH263871   5.939   8.494   7.292
21329TIP3    H163872   5.892   8.518   7.374
21329TIP3    H263873   5.926   8.575   7.238
21330TIP3   OH263874   5.827   8.379   6.808
21330TIP3    H163875   5.734   8.356   6.826
21330TIP3    H263876   5.839   8.337   6.720
21331TIP3   OH263877   6.313   8.463   6.529
21331TIP3    H163878   6.262   8.537   6.489
21331TIP3    H263879   6.369   8.435   6.454
21332TIP3   OH263880   6.500   8.752   7.635
21332TIP3    H163881   6.464   8.670   7.677
21332TIP3    H263882   6.560   8.712   7.569
21333TIP3   OH263883   6.457   8.479   6.768
21333TIP3    H163884   6.404   8.515   6.694
21333TIP3    H263885   6.499   8.404   6.721
21334TIP3   OH263886   5.762   8.526   7.504
21334TIP3    H163887   5.801   8.586   7.569
21334TIP3    H263888   5.752   8.443   7.556
21335TIP3   OH263889   5.810   8.000   6.213
21335TIP3    H163890   5.802   7.999   6.310
21335TIP3    H263891   5.733   8.054   6.188
21336TIP3   OH263892   5.352   8.044   7.090
21336TIP3    H163893   5.432   8.076   7.135
21336TIP3    H263894   5.384   8.016   7.002
21337TIP3   OH263895   5.338   8.033   6.604
21337TIP3    H163896   5.378   8.074   6.525
21337TIP3    H263897   5.268   8.099   6.624
21338TIP3   OH263898   6.432   8.768   7.168
21338TIP3    H163899   6.481   8.709   7.106
21338TIP3    H263900   6.463   8.724   7.250
21339TIP3   OH263901   6.150   8.196   6.867
21339TIP3    H163902   6.070   8.200   6.922
21339TIP3    H263903   6.220   8.208   6.934
21340TIP3   OH263904   5.585   8.259   6.878
21340TIP3    H163905   5.491   8.267   6.850
21340TIP3    H263906   5.608   8.167   6.854
21341TIP3   OH263907   5.857   8.252   6.566
21341TIP3    H163908   5.950   8.271   6.545
21341TIP3    H263909   5.809   8.277   6.483
21342TIP3   OH263910   6.657   8.269   7.035
21342TIP3    H163911   6.641   8.268   7.132
21342TIP3    H263912   6.577   8.222   7.006
21343TIP3   OH263913   5.700   8.286   6.344
21343TIP3    H163914   5.626   8.244   6.297
21343TIP3    H263915   5.750   8.323   6.269
21344TIP3   OH263916   5.763   9.076   7.709
21344TIP3    H163917   5.845   9.109   7.753
21344TIP3    H263918   5.702   9.074   7.785
21345TIP3   OH263919   6.236   8.526   6.961
21345TIP3    H163920   6.314   8.497   6.911
21345TIP3    H263921   6.254   8.493   7.050
21346TIP3   OH263922   5.761   8.019   6.845
21346TIP3    H163923   5.725   7.940   6.890
21346TIP3    H263924   5.806   7.981   6.769
21347TIP3   OH263925   6.205   8.422   7.257
21347TIP3    H163926   6.113   8.455   7.264
21347TIP3    H263927   6.251   8.477   7.323
21348TIP3   OH263928   5.947   8.820   6.351
21348TIP3    H163929   5.877   8.752   6.337
21348TIP3    H263930   5.927   8.852   6.440
21349TIP3   OH263931   6.854   9.041   6.985
21349TIP3    H163932   6.872   9.093   6.903
21349TIP3    H263933   6.767   9.000   6.964
21350TIP3   OH263934   6.408   8.130   6.217
21350TIP3    H163935   6.311   8.114   6.223
21350TIP3    H263936   6.417   8.225   6.239
21351TIP3   OH263937   6.342   9.128   7.348
21351TIP3    H163938   6.389   9.108   7.433
21351TIP3    H263939   6.303   9.214   7.366
21352TIP3   OH263940   6.478   8.378   6.315
21352TIP3    H163941   6.573   8.385   6.334
21352TIP3    H263942   6.460   8.459   6.264
21353TIP3   OH263943   5.635   8.837   7.033
21353TIP3    H163944   5.666   8.811   6.943
21353TIP3    H263945   5.688   8.777   7.087
21354TIP3   OH263946   6.094   8.966   6.168
21354TIP3    H163947   6.047   9.053   6.172
21354TIP3    H263948   6.040   8.912   6.229
21355TIP3   OH263949   5.517   8.765   7.643
21355TIP3    H163950   5.543   8.746   7.735
21355TIP3    H263951   5.454   8.694   7.624
21356TIP3   OH263952   6.238   8.859   7.670
21356TIP3    H163953   6.178   8.811   7.611
21356TIP3    H263954   6.326   8.838   7.634
21357TIP3   OH263955   6.487   9.396   7.269
21357TIP3    H163956   6.394   9.384   7.245
21357TIP3    H263957   6.478   9.415   7.364
21358TIP3   OH263958   6.920   8.467   6.152
21358TIP3    H163959   6.857   8.424   6.091
21358TIP3    H263960   6.917   8.557   6.113
21359TIP3   OH263961   6.622   9.287   6.063
21359TIP3    H163962   6.592   9.222   6.128
21359TIP3    H263963   6.630   9.235   5.981
21360TIP3   OH263964   6.605   8.921   6.888
21360TIP3    H163965   6.513   8.890   6.895
21360TIP3    H263966   6.649   8.841   6.856
21361TIP3   OH263967   5.305   8.448   6.357
21361TIP3    H163968   5.351   8.532   6.379
21361TIP3    H263969   5.228   8.452   6.418
21362TIP3   OH263970   6.010   9.481   7.126
21362TIP3    H163971   6.045   9.556   7.076
21362TIP3    H263972   6.091   9.448   7.170
21363TIP3   OH263973   5.626   9.402   6.464
21363TIP3    H163974   5.570   9.378   6.540
21363TIP3    H263975   5.697   9.452   6.507
21364TIP3   OH263976   6.412   9.126   7.082
21364TIP3    H163977   6.391   9.106   7.176
21364TIP3    H263978   6.480   9.060   7.062
21365TIP3   OH263979   6.373   9.018   5.962
21365TIP3    H163980   6.429   8.990   6.039
21365TIP3    H263981   6.286   8.989   5.995
21366TIP3   OH263982   6.716   9.491   5.783
21366TIP3    H163983   6.757   9.566   5.738
21366TIP3    H263984   6.634   9.534   5.815
21367TIP3   OH263985   5.733   8.267   7.649
21367TIP3    H163986   5.636   8.270   7.660
21367TIP3    H263987   5.760   8.207   7.720
21368TIP3   OH263988   6.535   8.943   6.172
21368TIP3    H163989   6.523   8.883   6.248
21368TIP3    H263990   6.633   8.944   6.166
21369TIP3   OH263991   5.446   9.354   7.284
21369TIP3    H163992   5.498   9.273   7.301
21369TIP3    H263993   5.492   9.416   7.343
21370TIP3   OH263994   5.737   8.996   5.961
21370TIP3    H163995   5.755   8.903   5.936
21370TIP3    H263996   5.723   8.987   6.058
21371TIP3   OH263997   5.685   9.001   6.233
21371TIP3    H163998   5.750   8.977   6.300
21371TIP3    H263999   5.687   9.100   6.239
21372TIP3   OH264000   5.420   8.694   6.438
21372TIP3    H164001   5.355   8.738   6.496
21372TIP3    H264002   5.434   8.765   6.372
21373TIP3   OH264003   6.605   8.259   7.296
21373TIP3    H164004   6.587   8.352   7.323
21373TIP3    H264005   6.575   8.208   7.374
21374TIP3   OH264006   6.454   8.079   6.495
21374TIP3    H164007   6.438   8.103   6.402
21374TIP3    H264008   6.493   8.161   6.532
21375TIP3   OH264009   5.948   9.193   6.172
21375TIP3    H164010   5.866   9.217   6.220
21375TIP3    H264011   5.974   9.280   6.139
21376TIP3   OH264012   6.139   8.260   6.596
21376TIP3    H164013   6.203   8.332   6.579
21376TIP3    H264014   6.145   8.252   6.694
21377TIP3   OH264015   6.310   8.550   7.475
21377TIP3    H164016   6.315   8.646   7.481
21377TIP3    H264017   6.401   8.531   7.444
21378TIP3   OH264018   6.285   7.986   6.699
21378TIP3    H164019   6.278   8.061   6.761
21378TIP3    H264020   6.345   8.024   6.631
21379TIP3   OH264021   5.692   9.271   6.240
21379TIP3    H164022   5.663   9.344   6.181
21379TIP3    H264023   5.670   9.312   6.328
21380TIP3   OH264024   5.797   7.986   6.489
21380TIP3    H164025   5.793   8.077   6.525
21380TIP3    H264026   5.894   7.971   6.498
21381TIP3   OH264027   7.073   8.456   7.354
21381TIP3    H164028   6.995   8.479   7.410
21381TIP3    H264029   7.028   8.406   7.285
21382TIP3   OH264030   6.704   8.671   6.767
21382TIP3    H164031   6.625   8.630   6.805
21382TIP3    H264032   6.775   8.626   6.818
21383TIP3   OH264033   5.413   8.905   6.243
21383TIP3    H164034   5.481   8.973   6.258
21383TIP3    H264035   5.460   8.850   6.177
21384TIP3   OH264036   5.359   8.179   6.372
21384TIP3    H164037   5.358   8.277   6.372
21384TIP3    H264038   5.272   8.158   6.337
21385TIP3   OH264039   6.644   9.601   6.705
21385TIP3    H164040   6.602   9.670   6.650
21385TIP3    H264041   6.737   9.618   6.690
21386TIP3   OH264042   5.746   7.899   7.250
21386TIP3    H164043   5.715   7.867   7.163
21386TIP3    H264044   5.733   7.820   7.306
21387TIP3   OH264045   5.280   9.116   6.637
21387TIP3    H164046   5.199   9.154   6.673
21387TIP3    H264047   5.277   9.152   6.547
21388TIP3   OH264048   5.435   9.649   7.691
21388TIP3    H164049   5.521   9.649   7.737
21388TIP3    H264050   5.413   9.554   7.696
21389TIP3   OH264051   5.901   9.197   5.869
21389TIP3    H164052   5.845   9.131   5.916
21389TIP3    H264053   5.980   9.143   5.852
21390TIP3   OH264054   6.340   9.239   5.788
21390TIP3    H164055   6.379   9.173   5.848
21390TIP3    H264056   6.401   9.236   5.711
21391TIP3   OH264057   5.570   9.056   7.905
21391TIP3    H164058   5.588   8.960   7.902
21391TIP3    H264059   5.484   9.061   7.858
21392TIP3   OH264060   5.549   8.717   6.096
21392TIP3    H164061   5.602   8.682   6.169
21392TIP3    H264062   5.618   8.721   6.025
21393TIP3   OH264063   6.169   9.140   7.669
21393TIP3    H164064   6.151   9.168   7.577
21393TIP3    H264065   6.221   9.059   7.657
21394TIP3   OH264066   6.055   8.916   5.900
21394TIP3    H164067   6.061   8.928   5.997
21394TIP3    H264068   6.058   8.818   5.895
21395TIP3   OH264069   6.647   9.162   7.319
21395TIP3    H164070   6.708   9.165   7.245
21395TIP3    H264071   6.568   9.204   7.282
21396TIP3   OH264072   5.689   8.796   7.882
21396TIP3    H164073   5.766   8.745   7.855
21396TIP3    H264074   5.716   8.827   7.971
21397TIP3   OH264075   5.758   8.621   6.319
21397TIP3    H164076   5.726   8.583   6.403
21397TIP3    H264077   5.792   8.542   6.272
21398TIP3   OH264078   6.027   8.689   7.544
21398TIP3    H164079   5.949   8.748   7.543
21398TIP3    H264080   6.076   8.718   7.463
21399TIP3   OH264081   5.857   8.413   6.159
21399TIP3    H164082   5.831   8.417   6.064
21399TIP3    H264083   5.954   8.418   6.152
21400TIP3   OH264084   6.679   8.745   5.821
21400TIP3    H164085   6.659   8.698   5.738
21400TIP3    H264086   6.645   8.835   5.797
21401TIP3   OH264087   6.131   8.463   7.681
21401TIP3    H164088   6.152   8.389   7.622
21401TIP3    H264089   6.118   8.535   7.616
21402TIP3   OH264090   6.152   8.252   7.479
21402TIP3    H164091   6.180   8.302   7.400
21402TIP3    H264092   6.057   8.236   7.461
21403TIP3   OH264093   6.192   8.798   7.352
21403TIP3    H164094   6.266   8.804   7.288
21403TIP3    H264095   6.130   8.862   7.312
21404TIP3   OH264096   6.016   8.589   7.898
21404TIP3    H164097   5.952   8.517   7.915
21404TIP3    H264098   6.052   8.559   7.811
21405TIP3   OH264099   6.274   8.017   7.554
21405TIP3    H164100   6.230   8.101   7.527
21405TIP3    H264101   6.203   7.952   7.537
21406TIP3   OH264102   6.396   8.535   7.760
21406TIP3    H164103   6.401   8.511   7.854
21406TIP3    H264104   6.306   8.503   7.737
21407TIP3   OH264105   6.647   8.483   7.655
21407TIP3    H164106   6.554   8.482   7.684
21407TIP3    H264107   6.681   8.398   7.685
21408TIP3   OH264108   6.821   8.316   7.783
21408TIP3    H164109   6.917   8.318   7.790
21408TIP3    H264110   6.801   8.406   7.815
21409TIP3   OH264111   5.863   8.365   7.956
21409TIP3    H164112   5.875   8.277   7.917
21409TIP3    H264113   5.901   8.350   8.046
21410TIP3   OH264114   6.376   8.025   7.806
21410TIP3    H164115   6.444   7.956   7.795
21410TIP3    H264116   6.332   8.022   7.718
21411TIP3   OH264117   6.428   8.239   7.969
21411TIP3    H164118   6.414   8.168   7.902
21411TIP3    H264119   6.352   8.299   7.953
21412TIP3   OH264120   5.663   9.479   6.056
21412TIP3    H164121   5.759   9.469   6.041
21412TIP3    H264122   5.640   9.536   5.981
21413TIP3   OH264123   5.144   8.859   6.276
21413TIP3    H164124   5.239   8.880   6.265
21413TIP3    H264125   5.139   8.769   6.238
21414TIP3   OH264126   5.054   9.471   6.694
21414TIP3    H164127   4.990   9.406   6.658
21414TIP3    H264128   5.102   9.415   6.760
21415TIP3   OH264129   5.187   9.326   6.883
21415TIP3    H164130   5.186   9.245   6.937
21415TIP3    H264131   5.247   9.382   6.936
21416TIP3   OH264132   6.815   8.931   6.155
21416TIP3    H164133   6.885   8.994   6.128
21416TIP3    H264134   6.855   8.891   6.235
21417TIP3   OH264135   6.940   8.798   6.357
21417TIP3    H164136   6.874   8.756   6.417
21417TIP3    H264137   7.004   8.837   6.420
21418TIP3   OH264138   6.964   9.175   6.780
21418TIP3    H164139   7.045   9.136   6.743
21418TIP3    H264140   6.957   9.262   6.738
21419TIP3   OH264141   6.880   8.707   6.005
21419TIP3    H164142   6.808   8.709   5.938
21419TIP3    H264143   6.852   8.782   6.061
21420TIP3   OH264144   6.751   8.379   5.959
21420TIP3    H164145   6.709   8.416   5.881
21420TIP3    H264146   6.727   8.284   5.950
21421TIP3   OH264147   6.757   8.654   6.502
21421TIP3    H164148   6.763   8.557   6.499
21421TIP3    H264149   6.741   8.670   6.598
21422TIP3   OH264150   5.381   8.728   7.253
21422TIP3    H164151   5.380   8.698   7.160
21422TIP3    H264152   5.479   8.732   7.269
21423TIP3   OH264153   6.695   8.113   5.945
21423TIP3    H164154   6.767   8.081   6.003
21423TIP3    H264155   6.620   8.056   5.967
21424TIP3   OH264156   6.752   8.370   6.399
21424TIP3    H164157   6.793   8.282   6.414
21424TIP3    H264158   6.810   8.404   6.330
21425TIP3   OH264159   6.914   8.535   6.889
21425TIP3    H164160   7.000   8.565   6.852
21425TIP3    H264161   6.920   8.579   6.977
21426TIP3   OH264162   6.973   8.681   7.115
21426TIP3    H164163   6.900   8.722   7.165
21426TIP3    H264164   7.007   8.761   7.067
21427TIP3   OH264165   5.597   8.415   7.928
21427TIP3    H164166   5.695   8.410   7.928
21427TIP3    H264167   5.575   8.329   7.968
21428TIP3   OH264168   6.863   8.121   6.436
21428TIP3    H164169   6.909   8.107   6.522
21428TIP3    H264170   6.801   8.044   6.436
21429TIP3   OH264171   5.562   8.108   7.262
21429TIP3    H164172   5.625   8.033   7.268
21429TIP3    H264173   5.623   8.183   7.251
21430TIP3   OH264174   5.365   8.381   7.333
21430TIP3    H164175   5.411   8.372   7.247
21430TIP3    H264176   5.395   8.469   7.359
21431TIP3   OH264177   7.305   8.395   7.468
21431TIP3    H164178   7.223   8.432   7.429
21431TIP3    H264179   7.293   8.303   7.440
21432TIP3   OH264180   6.944   8.054   6.074
21432TIP3    H164181   6.983   7.984   6.017
21432TIP3    H264182   7.009   8.126   6.066
21433TIP3   OH264183   5.348   7.896   6.840
21433TIP3    H164184   5.252   7.881   6.854
21433TIP3    H264185   5.347   7.945   6.755
21434TIP3   OH264186   6.507   9.597   6.334
21434TIP3    H164187   6.552   9.574   6.250
21434TIP3    H264188   6.575   9.649   6.379
21435TIP3   OH264189   5.566   7.961   7.645
21435TIP3    H164190   5.515   7.962   7.728
21435TIP3    H264191   5.503   8.003   7.584
21436TIP3   OH264192   5.606   9.400   7.737
21436TIP3    H164193   5.521   9.364   7.707
21436TIP3    H264194   5.606   9.372   7.831
21437TIP3   OH264195   5.784   9.428   7.276
21437TIP3    H164196   5.738   9.502   7.231
21437TIP3    H264197   5.870   9.437   7.229
21438TIP3   OH264198   7.199   8.166   7.361
21438TIP3    H164199   7.108   8.167   7.326
21438TIP3    H264200   7.225   8.072   7.349
21439TIP3   OH264201   5.459   9.688   7.294
21439TIP3    H164202   5.371   9.722   7.268
21439TIP3    H264203   5.454   9.700   7.389
21440TIP3   OH264204   5.694   9.656   7.152
21440TIP3    H164205   5.607   9.673   7.194
21440TIP3    H264206   5.678   9.683   7.060
21441TIP3   OH264207   6.122   9.698   6.954
21441TIP3    H164208   6.055   9.704   6.884
21441TIP3    H264209   6.089   9.764   7.017
21442TIP3   OH264210   6.396   9.656   6.985
21442TIP3    H164211   6.298   9.658   6.977
21442TIP3    H264212   6.424   9.656   6.893
21443TIP3   OH264213   5.370   9.473   7.041
21443TIP3    H164214   5.401   9.447   7.131
21443TIP3    H264215   5.444   9.433   6.989
21444TIP3   OH264216   5.567   9.350   6.899
21444TIP3    H164217   5.587   9.260   6.932
21444TIP3    H264218   5.658   9.384   6.882
21445TIP3   OH264219   5.831   9.461   6.890
21445TIP3    H164220   5.852   9.392   6.822
21445TIP3    H264221   5.889   9.434   6.963
21446TIP3   OH264222   6.408   8.097   6.978
21446TIP3    H164223   6.365   8.031   7.036
21446TIP3    H264224   6.484   8.048   6.943
21447TIP3   OH264225   6.933   7.973   6.889
21447TIP3    H164226   6.968   8.030   6.817
21447TIP3    H264227   6.839   8.000   6.889
21448TIP3   OH264228   7.026   8.079   6.655
21448TIP3    H164229   7.099   8.029   6.613
21448TIP3    H264230   7.058   8.171   6.641
21449TIP3   OH264231   5.659   7.807   7.003
21449TIP3    H164232   5.565   7.777   7.001
21449TIP3    H264233   5.705   7.721   6.997
21450TIP3   OH264234   5.459   7.672   6.651
21450TIP3    H164235   5.476   7.732   6.576
21450TIP3    H264236   5.407   7.730   6.709
21451TIP3   OH264237   6.104   7.835   6.883
21451TIP3    H164238   6.158   7.888   6.822
21451TIP3    H264239   6.120   7.880   6.967
21452TIP3   OH264240   6.647   7.983   6.868
21452TIP3    H164241   6.642   7.953   6.777
21452TIP3    H264242   6.632   7.900   6.919
21453TIP3   OH264243   6.678   7.907   6.428
21453TIP3    H164244   6.593   7.953   6.440
21453TIP3    H264245   6.661   7.823   6.475
21454TIP3   OH264246   5.159   9.244   6.429
21454TIP3    H164247   5.072   9.216   6.395
21454TIP3    H264248   5.153   9.340   6.413
21455TIP3   OH264249   5.560   7.835   6.411
21455TIP3    H164250   5.612   7.775   6.354
21455TIP3    H264251   5.631   7.890   6.450
21456TIP3   OH264252   6.075   8.009   6.513
21456TIP3    H164253   6.137   7.967   6.575
21456TIP3    H264254   6.092   8.103   6.536
21457TIP3   OH264255   5.927   9.436   6.002
21457TIP3    H164256   6.020   9.455   5.975
21457TIP3    H264257   5.912   9.355   5.950
21458TIP3   OH264258   6.653   9.553   6.103
21458TIP3    H164259   6.646   9.454   6.093
21458TIP3    H264260   6.607   9.583   6.023
21459TIP3   OH264261   5.864   8.084   7.891
21459TIP3    H164262   5.831   8.015   7.951
21459TIP3    H264263   5.959   8.087   7.918
21460TIP3   OH264264   6.112   8.083   8.013
21460TIP3    H164265   6.198   8.065   7.971
21460TIP3    H264266   6.105   8.010   8.077
21461TIP3   OH264267   5.238   9.276   6.070
21461TIP3    H164268   5.234   9.299   6.165
21461TIP3    H264269   5.326   9.235   6.062
21462TIP3   OH264270   7.121   8.582   6.314
21462TIP3    H164271   7.071   8.664   6.331
21462TIP3    H264272   7.050   8.526   6.277
21463TIP3   OH264273   7.178   8.867   6.479
21463TIP3    H164274   7.224   8.790   6.520
21463TIP3    H264275   7.241   8.893   6.411
21464TIP3   OH264276   7.691   8.449   6.488
21464TIP3    H164277   7.666   8.511   6.416
21464TIP3    H264278   7.669   8.363   6.450
21465TIP3   OH264279   8.355   8.527   6.092
21465TIP3    H164280   8.382   8.540   6.184
21465TIP3    H264281   8.400   8.601   6.048
21466TIP3   OH264282   7.322   8.663   6.587
21466TIP3    H164283   7.403   8.642   6.638
21466TIP3    H264284   7.334   8.602   6.512
21467TIP3   OH264285   7.745   8.855   6.381
21467TIP3    H164286   7.843   8.845   6.385
21467TIP3    H264287   7.716   8.766   6.354
21468TIP3   OH264288   7.664   8.430   6.905
21468TIP3    H164289   7.626   8.473   6.827
21468TIP3    H264290   7.608   8.470   6.974
21469TIP3   OH264291   7.558   8.574   6.697
21469TIP3    H164292   7.608   8.654   6.721
21469TIP3    H264293   7.611   8.536   6.624
21470TIP3   OH264294   7.020   9.099   6.047
21470TIP3    H164295   6.975   9.125   5.965
21470TIP3    H264296   7.050   9.185   6.083
21471TIP3   OH264297   8.062   8.179   6.637
21471TIP3    H164298   8.034   8.088   6.619
21471TIP3    H264299   7.982   8.214   6.680
21472TIP3   OH264300   7.955   8.896   5.864
21472TIP3    H164301   7.890   8.968   5.855
21472TIP3    H264302   8.024   8.923   5.801
21473TIP3   OH264303   7.930   8.706   5.601
21473TIP3    H164304   7.986   8.751   5.666
21473TIP3    H264305   7.994   8.647   5.557
21474TIP3   OH264306   7.565   9.016   6.264
21474TIP3    H164307   7.514   8.954   6.206
21474TIP3    H264308   7.631   8.954   6.304
21475TIP3   OH264309   8.180   8.873   5.689
21475TIP3    H164310   8.238   8.939   5.728
21475TIP3    H264311   8.194   8.888   5.593
21476TIP3   OH264312   8.675   8.106   5.730
21476TIP3    H164313   8.595   8.125   5.782
21476TIP3    H264314   8.685   8.189   5.679
21477TIP3   OH264315   7.419   8.851   6.090
21477TIP3    H164316   7.352   8.890   6.030
21477TIP3    H264317   7.386   8.760   6.097
21478TIP3   OH264318   7.218   9.636   6.161
21478TIP3    H164319   7.233   9.645   6.256
21478TIP3    H264320   7.158   9.560   6.159
21479TIP3   OH264321   7.993   9.689   5.411
21479TIP3    H164322   8.046   9.621   5.362
21479TIP3    H264323   8.033   9.682   5.498
21480TIP3   OH264324   7.815   8.236   6.765
21480TIP3    H164325   7.727   8.206   6.735
21480TIP3    H264326   7.786   8.318   6.811
21481TIP3   OH264327   8.240   8.917   5.431
21481TIP3    H164328   8.203   8.888   5.346
21481TIP3    H264329   8.327   8.952   5.402
21482TIP3   OH264330   7.953   8.284   5.732
21482TIP3    H164331   7.925   8.280   5.826
21482TIP3    H264332   7.913   8.202   5.699
21483TIP3   OH264333   7.617   8.628   6.297
21483TIP3    H164334   7.523   8.603   6.311
21483TIP3    H264335   7.631   8.594   6.205
21484TIP3   OH264336   8.100   8.714   6.009
21484TIP3    H164337   8.044   8.782   5.965
21484TIP3    H264338   8.149   8.676   5.933
21485TIP3   OH264339   7.608   8.255   5.696
21485TIP3    H164340   7.602   8.258   5.794
21485TIP3    H264341   7.530   8.309   5.672
21486TIP3   OH264342   7.149   8.303   6.570
21486TIP3    H164343   7.226   8.333   6.622
21486TIP3    H264344   7.187   8.268   6.488
21487TIP3   OH264345   7.124   8.282   6.090
21487TIP3    H164346   7.167   8.322   6.011
21487TIP3    H264347   7.061   8.354   6.112
21488TIP3   OH264348   7.950   8.462   6.354
21488TIP3    H164349   7.870   8.450   6.408
21488TIP3    H264350   8.019   8.466   6.422
21489TIP3   OH264351   7.376   8.511   6.358
21489TIP3    H164352   7.282   8.535   6.337
21489TIP3    H264353   7.378   8.418   6.333
21490TIP3   OH264354   7.649   8.516   6.053
21490TIP3    H164355   7.745   8.520   6.033
21490TIP3    H264356   7.606   8.533   5.966
21491TIP3   OH264357   7.492   8.550   5.830
21491TIP3    H164358   7.423   8.501   5.783
21491TIP3    H264359   7.545   8.584   5.755
21492TIP3   OH264360   7.741   9.082   5.835
21492TIP3    H164361   7.675   9.010   5.827
21492TIP3    H264362   7.730   9.110   5.929
21493TIP3   OH264363   8.199   8.392   5.688
21493TIP3    H164364   8.104   8.372   5.703
21493TIP3    H264365   8.209   8.484   5.721
21494TIP3   OH264366   8.267   8.633   5.797
21494TIP3    H164367   8.364   8.631   5.809
21494TIP3    H264368   8.254   8.717   5.749
21495TIP3   OH264369   7.439   9.048   6.505
21495TIP3    H164370   7.474   9.050   6.414
21495TIP3    H264371   7.486   8.975   6.545
21496TIP3   OH264372   7.879   9.223   5.639
21496TIP3    H164373   7.852   9.312   5.670
21496TIP3    H264374   7.840   9.168   5.710
21497TIP3   OH264375   8.718   8.714   5.625
21497TIP3    H164376   8.650   8.666   5.571
21497TIP3    H264377   8.713   8.799   5.574
21498TIP3   OH264378   7.539   9.392   6.159
21498TIP3    H164379   7.576   9.469   6.111
21498TIP3    H264380   7.447   9.392   6.131
21499TIP3   OH264381   7.104   8.704   5.844
21499TIP3    H164382   7.149   8.788   5.865
21499TIP3    H264383   7.026   8.709   5.904
21500TIP3   OH264384   7.703   9.174   6.092
21500TIP3    H164385   7.651   9.255   6.108
21500TIP3    H264386   7.655   9.111   6.149
21501TIP3   OH264387   7.394   9.677   5.954
21501TIP3    H164388   7.327   9.667   6.025
21501TIP3    H264389   7.477   9.659   5.999
21502TIP3   OH264390   8.163   9.274   5.445
21502TIP3    H164391   8.207   9.248   5.527
21502TIP3    H264392   8.072   9.245   5.465
21503TIP3   OH264393   7.474   8.508   7.096
21503TIP3    H164394   7.379   8.523   7.114
21503TIP3    H264395   7.499   8.443   7.162
21504TIP3   OH264396   7.536   9.252   5.450
21504TIP3    H164397   7.549   9.160   5.419
21504TIP3    H264398   7.515   9.237   5.544
21505TIP3   OH264399   7.481   9.258   5.723
21505TIP3    H164400   7.561   9.226   5.768
21505TIP3    H264401   7.488   9.355   5.733
21506TIP3   OH264402   7.219   8.951   5.924
21506TIP3    H164403   7.152   8.994   5.981
21506TIP3    H264404   7.231   9.020   5.856
21507TIP3   OH264405   8.249   8.318   5.961
21507TIP3    H164406   8.230   8.348   5.870
21507TIP3    H264407   8.283   8.400   6.003
21508TIP3   OH264408   7.747   9.468   5.689
21508TIP3    H164409   7.653   9.491   5.703
21508TIP3    H264410   7.768   9.527   5.615
21509TIP3   OH264411   7.930   8.508   6.084
21509TIP3    H164412   7.993   8.581   6.065
21509TIP3    H264413   7.936   8.503   6.182
21510TIP3   OH264414   8.095   8.238   6.186
21510TIP3    H164415   8.064   8.313   6.239
21510TIP3    H264416   8.145   8.282   6.114
21511TIP3   OH264417   7.485   9.535   5.736
21511TIP3    H164418   7.463   9.600   5.665
21511TIP3    H264419   7.445   9.583   5.812
21512TIP3   OH264420   7.586   8.243   5.970
21512TIP3    H164421   7.587   8.327   6.018
21512TIP3    H264422   7.671   8.207   5.999
21513TIP3   OH264423   7.210   9.159   5.729
21513TIP3    H164424   7.279   9.227   5.739
21513TIP3    H264425   7.253   9.102   5.663
21514TIP3   OH264426   7.153   8.434   5.864
21514TIP3    H164427   7.153   8.532   5.860
21514TIP3    H264428   7.070   8.413   5.820
21515TIP3   OH264429   7.544   8.155   6.746
21515TIP3    H164430   7.516   8.114   6.661
21515TIP3    H264431   7.528   8.081   6.807
21516TIP3   OH264432   7.083   9.375   6.116
21516TIP3    H164433   7.015   9.400   6.178
21516TIP3    H264434   7.050   9.415   6.033
21517TIP3   OH264435   7.704   9.450   5.364
21517TIP3    H164436   7.644   9.380   5.400
21517TIP3    H264437   7.775   9.396   5.327
21518TIP3   OH264438   8.134   9.500   5.277
21518TIP3    H164439   8.171   9.426   5.329
21518TIP3    H264440   8.181   9.493   5.191
21519TIP3   OH264441   7.345   8.974   5.583
21519TIP3    H164442   7.399   8.936   5.655
21519TIP3    H264443   7.412   8.977   5.511
21520TIP3   OH264444   7.852   9.168   5.377
21520TIP3    H164445   7.850   9.183   5.474
21520TIP3    H264446   7.854   9.070   5.375
21521TIP3   OH264447   7.557   8.876   5.808
21521TIP3    H164448   7.527   8.830   5.887
21521TIP3    H264449   7.592   8.802   5.754
21522TIP3   OH264450   7.652   8.672   5.644
21522TIP3    H164451   7.627   8.674   5.550
21522TIP3    H264452   7.750   8.676   5.636
21523TIP3   OH264453   8.469   9.001   5.304
21523TIP3    H164454   8.449   8.956   5.220
21523TIP3    H264455   8.442   9.093   5.280
21524TIP3   OH264456   7.464   9.740   5.554
21524TIP3    H164457   7.560   9.731   5.536
21524TIP3    H264458   7.436   9.781   5.470
21525TIP3   OH264459   6.940   9.115   5.765
21525TIP3    H164460   7.035   9.135   5.752
21525TIP3    H264461   6.934   9.025   5.725
21526TIP3   OH264462   6.848   9.727   6.177
21526TIP3    H164463   6.783   9.662   6.143
21526TIP3    H264464   6.901   9.669   6.237
21527TIP3   OH264465   6.996   9.584   6.357
21527TIP3    H164466   6.983   9.518   6.426
21527TIP3    H264467   6.983   9.665   6.410
21528TIP3   OH264468   8.670   8.936   5.478
21528TIP3    H164469   8.599   8.956   5.414
21528TIP3    H264470   8.676   9.020   5.525
21529TIP3   OH264471   8.537   8.633   5.439
21529TIP3    H164472   8.496   8.672   5.361
21529TIP3    H264473   8.510   8.539   5.430
21530TIP3   OH264474   7.178   8.978   6.738
21530TIP3    H164475   7.180   8.951   6.645
21530TIP3    H264476   7.258   9.034   6.746
21531TIP3   OH264477   8.479   8.370   5.420
21531TIP3    H164478   8.558   8.341   5.472
21531TIP3    H264479   8.408   8.311   5.451
21532TIP3   OH264480   8.540   8.620   5.839
21532TIP3    H164481   8.575   8.536   5.876
21532TIP3    H264482   8.617   8.655   5.793
21533TIP3   OH264483   8.644   8.386   5.957
21533TIP3    H164484   8.729   8.347   5.984
21533TIP3    H264485   8.588   8.306   5.942
21534TIP3   OH264486   7.361   8.363   6.734
21534TIP3    H164487   7.427   8.293   6.749
21534TIP3    H264488   7.416   8.443   6.741
21535TIP3   OH264489   7.163   8.633   6.821
21535TIP3    H164490   7.209   8.641   6.736
21535TIP3    H264491   7.169   8.724   6.856
21536TIP3   OH264492   8.720   8.310   5.536
21536TIP3    H164493   8.761   8.233   5.491
21536TIP3    H264494   8.798   8.363   5.560
21537TIP3   OH264495   7.147   8.145   6.323
21537TIP3    H164496   7.053   8.137   6.346
21537TIP3    H264497   7.142   8.197   6.240
21538TIP3   OH264498   7.358   8.207   7.130
21538TIP3    H164499   7.303   8.204   7.210
21538TIP3    H264500   7.297   8.254   7.068
21539TIP3   OH264501   8.197   8.367   6.479
21539TIP3    H164502   8.140   8.297   6.517
21539TIP3    H264503   8.256   8.314   6.420
21540TIP3   OH264504   7.460   8.027   6.525
21540TIP3    H164505   7.370   8.023   6.487
21540TIP3    H264506   7.516   8.055   6.449
21541TIP3   OH264507   7.240   7.923   6.112
21541TIP3    H164508   7.270   7.994   6.052
21541TIP3    H264509   7.219   7.974   6.192
21542TIP3   OH264510   8.391   8.232   6.342
21542TIP3    H164511   8.421   8.202   6.255
21542TIP3    H264512   8.419   8.158   6.399
21543TIP3   OH264513   8.476   8.166   5.914
21543TIP3    H164514   8.388   8.210   5.925
21543TIP3    H264515   8.458   8.081   5.960
21544TIP3   OH264516   6.958   9.505   5.917
21544TIP3    H164517   6.874   9.468   5.883
21544TIP3    H264518   6.945   9.598   5.895
21545TIP3   OH264519   7.359   8.089   5.900
21545TIP3    H164520   7.412   8.034   5.840
21545TIP3    H264521   7.428   8.148   5.938
21546TIP3   OH264522   7.875   8.256   5.995
21546TIP3    H164523   7.908   8.206   6.070
21546TIP3    H264524   7.895   8.348   6.024
21547TIP3   OH264525   7.725   9.693   5.486
21547TIP3    H164526   7.815   9.716   5.458
21547TIP3    H264527   7.709   9.614   5.430
21548TIP3   OH264528   7.036   9.532   5.555
21548TIP3    H164529   7.032   9.550   5.650
21548TIP3    H264530   7.123   9.488   5.545
21549TIP3   OH264531   9.410   8.541   5.187
21549TIP3    H164532   9.388   8.492   5.267
21549TIP3    H264533   9.325   8.581   5.161
21550TIP3   OH264534   8.953   8.567   5.586
21550TIP3    H164535   8.971   8.596   5.494
21550TIP3    H264536   8.873   8.621   5.604
21551TIP3   OH264537   8.941   8.690   5.347
21551TIP3    H164538   8.947   8.786   5.356
21551TIP3    H264539   8.855   8.676   5.306
21552TIP3   OH264540   8.907   8.358   5.744
21552TIP3    H164541   8.854   8.398   5.815
21552TIP3    H264542   8.941   8.438   5.699
21553TIP3   OH264543   9.040   8.168   5.604
21553TIP3    H164544   9.064   8.228   5.532
21553TIP3    H264545   8.995   8.229   5.666
21554TIP3   OH264546   9.142   8.344   5.378
21554TIP3    H164547   9.193   8.279   5.325
21554TIP3    H264548   9.209   8.381   5.436
21555TIP3   OH264549   1.198   9.086   7.262
21555TIP3    H164550   1.237   9.019   7.203
21555TIP3    H264551   1.241   9.168   7.233
21556TIP3   OH264552   3.268   9.668   7.665
21556TIP3    H164553   3.178   9.703   7.653
21556TIP3    H264554   3.304   9.680   7.576
21557TIP3   OH264555   2.637   9.557   7.280
21557TIP3    H164556   2.705   9.568   7.350
21557TIP3    H264557   2.642   9.642   7.237
21558TIP3   OH264558   2.846   9.595   7.451
21558TIP3    H164559   2.844   9.534   7.526
21558TIP3    H264560   2.931   9.639   7.462
21559TIP3   OH264561   2.189   9.718   6.814
21559TIP3    H164562   2.239   9.793   6.847
21559TIP3    H264563   2.247   9.685   6.744
21560TIP3   OH264564   2.926   9.149   6.911
21560TIP3    H164565   2.845   9.168   6.963
21560TIP3    H264566   2.938   9.233   6.864
21561TIP3   OH264567   2.205   9.326   6.907
21561TIP3    H164568   2.169   9.330   6.998
21561TIP3    H264569   2.163   9.243   6.878
21562TIP3   OH264570   2.387   9.725   7.159
21562TIP3    H164571   2.321   9.796   7.159
21562TIP3    H264572   2.427   9.730   7.070
21563TIP3   OH264573   1.853   9.299   6.868
21563TIP3    H164574   1.862   9.299   6.965
21563TIP3    H264575   1.780   9.361   6.856
21564TIP3   OH264576   1.962   9.502   7.093
21564TIP3    H164577   2.001   9.558   7.162
21564TIP3    H264578   1.877   9.546   7.077
21565TIP3   OH264579   1.714   9.577   6.997
21565TIP3    H164580   1.662   9.549   6.919
21565TIP3    H264581   1.762   9.654   6.962
21566TIP3   OH264582   1.745   9.236   7.428
21566TIP3    H164583   1.753   9.245   7.524
21566TIP3    H264584   1.827   9.279   7.398
21567TIP3   OH264585   2.450   9.441   6.867
21567TIP3    H164586   2.355   9.421   6.884
21567TIP3    H264587   2.458   9.536   6.887
21568TIP3   OH264588   2.542   9.703   6.926
21568TIP3    H164589   2.628   9.685   6.970
21568TIP3    H264590   2.555   9.793   6.894
21569TIP3   OH264591   2.962   9.763   6.828
21569TIP3    H164592   2.898   9.722   6.764
21569TIP3    H264593   2.972   9.850   6.786
21570TIP3   OH264594   2.499   9.366   7.149
21570TIP3    H164595   2.476   9.402   7.061
21570TIP3    H264596   2.541   9.443   7.193
21571TIP3   OH264597   2.196   9.556   7.272
21571TIP3    H164598   2.259   9.617   7.229
21571TIP3    H264599   2.186   9.598   7.358
21572TIP3   OH264600   2.335   9.284   7.364
21572TIP3    H164601   2.357   9.342   7.439
21572TIP3    H264602   2.384   9.327   7.291
21573TIP3   OH264603   1.846   9.253   7.141
21573TIP3    H164604   1.848   9.349   7.157
21573TIP3    H264605   1.941   9.233   7.156
21574TIP3   OH264606   1.906   9.714   6.844
21574TIP3    H164607   1.884   9.649   6.774
21574TIP3    H264608   2.000   9.697   6.860
21575TIP3   OH264609   2.795   9.683   6.629
21575TIP3    H164610   2.782   9.722   6.542
21575TIP3    H264611   2.771   9.589   6.615
21576TIP3   OH264612   2.820   9.935   7.178
21576TIP3    H164613   2.820   9.839   7.169
21576TIP3    H264614   2.820   9.947   7.273
21577TIP3   OH264615   2.744   9.411   6.595
21577TIP3    H164616   2.814   9.388   6.660
21577TIP3    H264617   2.666   9.363   6.628
21578TIP3   OH264618   2.796   9.673   7.052
21578TIP3    H164619   2.826   9.583   7.078
21578TIP3    H264620   2.862   9.696   6.985
21579TIP3   OH264621   2.910   9.420   7.097
21579TIP3    H164622   2.952   9.406   7.184
21579TIP3    H264623   2.843   9.349   7.098
21580TIP3   OH264624   2.986   9.360   6.731
21580TIP3    H164625   3.029   9.286   6.683
21580TIP3    H264626   3.055   9.429   6.729
21581TIP3   OH264627   2.439   9.368   7.613
21581TIP3    H164628   2.438   9.337   7.704
21581TIP3    H264629   2.534   9.373   7.594
21582TIP3   OH264630   2.980   9.289   7.566
21582TIP3    H164631   3.016   9.332   7.485
21582TIP3    H264632   2.883   9.293   7.549
21583TIP3   OH264633   3.072   9.378   7.323
21583TIP3    H164634   3.143   9.325   7.281
21583TIP3    H264635   3.105   9.469   7.302
21584TIP3   OH264636   1.488   8.954   7.286
21584TIP3    H164637   1.521   9.009   7.212
21584TIP3    H264638   1.465   9.024   7.351
21585TIP3   OH264639   2.168   9.111   7.524
21585TIP3    H164640   2.221   9.173   7.472
21585TIP3    H264641   2.129   9.170   7.590
21586TIP3   OH264642   2.706   9.286   7.531
21586TIP3    H164643   2.677   9.263   7.442
21586TIP3    H264644   2.683   9.206   7.583
21587TIP3   OH264645   2.723   9.210   7.092
21587TIP3    H164646   2.637   9.256   7.106
21587TIP3    H264647   2.705   9.125   7.137
21588TIP3   OH264648   1.601   9.125   7.080
21588TIP3    H164649   1.651   9.069   7.017
21588TIP3    H264650   1.675   9.177   7.118
21589TIP3   OH264651   2.130   9.287   7.179
21589TIP3    H164652   2.194   9.272   7.250
21589TIP3    H264653   2.119   9.384   7.188
21590TIP3   OH264654   3.168   9.890   6.980
21590TIP3    H164655   3.126   9.966   7.022
21590TIP3    H264656   3.091   9.834   6.957
21591TIP3   OH264657   4.997   9.914   7.146
21591TIP3    H164658   5.028   9.996   7.188
21591TIP3    H264659   5.025   9.929   7.053
21592TIP3   OH264660   4.385  10.088   7.180
21592TIP3    H164661   4.443  10.010   7.194
21592TIP3    H264662   4.359  10.074   7.086
21593TIP3   OH264663   3.737   9.759   7.149
21593TIP3    H164664   3.718   9.831   7.086
21593TIP3    H264665   3.689   9.685   7.104
21594TIP3   OH264666   4.432   9.849   6.773
21594TIP3    H164667   4.506   9.835   6.837
21594TIP3    H264668   4.482   9.882   6.696
21595TIP3   OH264669   3.379   9.963   7.254
21595TIP3    H164670   3.457   9.929   7.300
21595TIP3    H264671   3.383   9.915   7.169
21596TIP3   OH264672   3.816  10.155   7.063
21596TIP3    H164673   3.906  10.117   7.069
21596TIP3    H264674   3.768  10.085   7.014
21597TIP3   OH264675   5.081  10.113   7.324
21597TIP3    H164676   5.002  10.163   7.294
21597TIP3    H264677   5.109  10.165   7.401
21598TIP3   OH264678   3.742   9.739   7.588
21598TIP3    H164679   3.680   9.779   7.524
21598TIP3    H264680   3.688   9.732   7.668
21599TIP3   OH264681   4.637   9.855   6.948
21599TIP3    H164682   4.666   9.791   7.014
21599TIP3    H264683   4.693   9.933   6.969
21600TIP3   OH264684   3.610   9.855   7.371
21600TIP3    H164685   3.674   9.927   7.388
21600TIP3    H264686   3.654   9.811   7.295
21601TIP3   OH264687   4.795   9.816   7.314
21601TIP3    H164688   4.709   9.848   7.282
21601TIP3    H264689   4.856   9.848   7.244
21602TIP3   OH264690   4.092   9.458   7.303
21602TIP3    H164691   4.073   9.363   7.315
21602TIP3    H264692   4.012   9.497   7.346
21603TIP3   OH264693   3.973   9.994   6.277
21603TIP3    H164694   4.031  10.046   6.333
21603TIP3    H264695   4.038   9.943   6.224
21604TIP3   OH264696   4.631  10.330   7.421
21604TIP3    H164697   4.640  10.424   7.401
21604TIP3    H264698   4.534  10.320   7.408
21605TIP3   OH264699   4.724   9.403   6.399
21605TIP3    H164700   4.642   9.426   6.448
21605TIP3    H264701   4.739   9.486   6.348
21606TIP3   OH264702   4.851  10.303   7.604
21606TIP3    H164703   4.768  10.298   7.552
21606TIP3    H264704   4.874  10.208   7.609
21607TIP3   OH264705   3.856   9.542   7.428
21607TIP3    H164706   3.766   9.511   7.404
21607TIP3    H264707   3.832   9.622   7.478
21608TIP3   OH264708   4.620  10.069   7.535
21608TIP3    H164709   4.577  10.068   7.622
21608TIP3    H264710   4.608  10.160   7.502
21609TIP3   OH264711   3.991   9.586   6.395
21609TIP3    H164712   3.961   9.581   6.488
21609TIP3    H264713   3.958   9.501   6.362
21610TIP3   OH264714   3.788  10.061   7.436
21610TIP3    H164715   3.748  10.096   7.517
21610TIP3    H264716   3.781  10.136   7.375
21611TIP3   OH264717   3.668   9.938   6.957
21611TIP3    H164718   3.575   9.910   6.972
21611TIP3    H264719   3.683   9.901   6.867
21612TIP3   OH264720   4.168  10.025   6.690
21612TIP3    H164721   4.089  10.075   6.660
21612TIP3    H264722   4.215  10.008   6.605
21613TIP3   OH264723   4.304  10.041   6.925
21613TIP3    H164724   4.246  10.057   6.847
21613TIP3    H264725   4.350   9.963   6.888
21614TIP3   OH264726   3.647   9.556   6.366
21614TIP3    H164727   3.643   9.555   6.463
21614TIP3    H264728   3.575   9.617   6.345
21615TIP3   OH264729   3.192   9.601   7.231
21615TIP3    H164730   3.268   9.634   7.283
21615TIP3    H264731   3.233   9.568   7.150
21616TIP3   OH264732   3.169   9.580   6.754
21616TIP3    H164733   3.211   9.619   6.675
21616TIP3    H264734   3.109   9.653   6.777
21617TIP3   OH264735   4.366  10.272   7.371
21617TIP3    H164736   4.374  10.209   7.296
21617TIP3    H264737   4.280  10.250   7.406
21618TIP3   OH264738   3.995   9.749   7.020
21618TIP3    H164739   3.909   9.753   7.066
21618TIP3    H264740   4.055   9.779   7.089
21619TIP3   OH264741   3.429   9.818   7.023
21619TIP3    H164742   3.334   9.823   6.996
21619TIP3    H264743   3.453   9.726   7.001
21620TIP3   OH264744   3.700   9.814   6.715
21620TIP3    H164745   3.792   9.833   6.690
21620TIP3    H264746   3.649   9.836   6.634
21621TIP3   OH264747   4.487   9.834   7.228
21621TIP3    H164748   4.428   9.822   7.303
21621TIP3    H264749   4.449   9.771   7.165
21622TIP3   OH264750   3.534   9.828   6.493
21622TIP3    H164751   3.470   9.798   6.427
21622TIP3    H264752   3.586   9.892   6.441
21623TIP3   OH264753   4.072  10.050   7.101
21623TIP3    H164754   4.153  10.050   7.048
21623TIP3    H264755   4.103  10.074   7.188
21624TIP3   OH264756   3.600   9.577   6.996
21624TIP3    H164757   3.568   9.497   7.041
21624TIP3    H264758   3.647   9.541   6.919
21625TIP3   OH264759   4.059   9.947   7.463
21625TIP3    H164760   3.970   9.967   7.428
21625TIP3    H264761   4.103  10.033   7.456
21626TIP3   OH264762   4.248   9.687   6.382
21626TIP3    H164763   4.152   9.669   6.371
21626TIP3    H264764   4.254   9.783   6.370
21627TIP3   OH264765   4.316   9.962   6.458
21627TIP3    H164766   4.409   9.943   6.484
21627TIP3    H264767   4.328  10.029   6.389
21628TIP3   OH264768   4.755  10.017   6.311
21628TIP3    H164769   4.695   9.975   6.245
21628TIP3    H264770   4.763  10.105   6.272
21629TIP3   OH264771   4.287   9.639   6.651
21629TIP3    H164772   4.273   9.658   6.555
21629TIP3    H264773   4.329   9.722   6.682
21630TIP3   OH264774   3.987   9.818   6.748
21630TIP3    H164775   4.056   9.885   6.730
21630TIP3    H264776   3.988   9.813   6.846
21631TIP3   OH264777   4.279  10.075   7.581
21631TIP3    H164778   4.266  10.163   7.622
21631TIP3    H264779   4.376  10.073   7.581
21632TIP3   OH264780   4.124   9.546   6.853
21632TIP3    H164781   4.103   9.627   6.904
21632TIP3    H264782   4.186   9.582   6.785
21633TIP3   OH264783   3.636   9.545   6.642
21633TIP3    H164784   3.634   9.638   6.672
21633TIP3    H264785   3.732   9.528   6.650
21634TIP3   OH264786   4.889  10.033   7.543
21634TIP3    H164787   4.791  10.023   7.538
21634TIP3    H264788   4.914  10.009   7.453
21635TIP3   OH264789   4.529  10.218   6.909
21635TIP3    H164790   4.464  10.150   6.931
21635TIP3    H264791   4.607  10.192   6.962
21636TIP3   OH264792   3.188   9.742   6.534
21636TIP3    H164793   3.216   9.832   6.517
21636TIP3    H264794   3.115   9.729   6.474
21637TIP3   OH264795   3.589   9.458   7.401
21637TIP3    H164796   3.559   9.423   7.315
21637TIP3    H264797   3.578   9.380   7.460
21638TIP3   OH264798   3.704   9.962   6.333
21638TIP3    H164799   3.679   9.917   6.250
21638TIP3    H264800   3.802   9.966   6.325
21639TIP3   OH264801   4.015   9.955   7.794
21639TIP3    H164802   3.925   9.920   7.806
21639TIP3    H264803   3.997  10.049   7.773
21640TIP3   OH264804   4.483  10.022   7.774
21640TIP3    H164805   4.430  10.036   7.852
21640TIP3    H264806   4.565   9.990   7.817
21641TIP3   OH264807   4.705   9.980   7.933
21641TIP3    H164808   4.722   9.884   7.939
21641TIP3    H264809   4.723  10.010   8.023
21642TIP3   OH264810   4.226   9.590   7.923
21642TIP3    H164811   4.296   9.521   7.930
21642TIP3    H264812   4.152   9.538   7.892
21643TIP3   OH264813   4.388   9.806   8.001
21643TIP3    H164814   4.353   9.724   7.963
21643TIP3    H264815   4.310   9.838   8.049
21644TIP3   OH264816   4.593   9.947   6.102
21644TIP3    H164817   4.572   9.954   6.008
21644TIP3    H264818   4.564   9.854   6.119
21645TIP3   OH264819   4.626  10.194   6.654
21645TIP3    H164820   4.626  10.097   6.659
21645TIP3    H264821   4.603  10.218   6.747
21646TIP3   OH264822   5.039  10.477   7.519
21646TIP3    H164823   4.974  10.419   7.564
21646TIP3    H264824   5.121  10.428   7.535
21647TIP3   OH264825   4.527   9.688   6.157
21647TIP3    H164826   4.610   9.638   6.168
21647TIP3    H264827   4.470   9.630   6.105
21648TIP3   OH264828   4.587   9.921   6.551
21648TIP3    H164829   4.628   9.832   6.563
21648TIP3    H264830   4.644   9.955   6.480
21649TIP3   OH264831   4.751  10.103   7.035
21649TIP3    H164832   4.836  10.129   6.991
21649TIP3    H264833   4.772  10.138   7.124
21650TIP3   OH264834   4.838  10.231   7.265
21650TIP3    H164835   4.760  10.264   7.314
21650TIP3    H264836   4.885  10.316   7.245
21651TIP3   OH264837   5.268   9.813   7.830
21651TIP3    H164838   5.331   9.763   7.773
21651TIP3    H264839   5.250   9.892   7.776
21652TIP3   OH264840   4.702   9.677   6.590
21652TIP3    H164841   4.752   9.659   6.672
21652TIP3    H264842   4.642   9.600   6.587
21653TIP3   OH264843   3.402   9.664   7.405
21653TIP3    H164844   3.466   9.590   7.408
21653TIP3    H264845   3.463   9.740   7.400
21654TIP3   OH264846   3.279   9.951   7.515
21654TIP3    H164847   3.287   9.933   7.420
21654TIP3    H264848   3.231  10.035   7.513
21655TIP3   OH264849   5.125   9.979   7.655
21655TIP3    H164850   5.033  10.006   7.631
21655TIP3    H264851   5.131   9.901   7.597
21656TIP3   OH264852   4.791   9.608   6.225
21656TIP3    H164853   4.828   9.538   6.166
21656TIP3    H264854   4.855   9.681   6.213
21657TIP3   OH264855   3.187   9.440   6.983
21657TIP3    H164856   3.094   9.437   7.010
21657TIP3    H264857   3.185   9.498   6.904
21658TIP3   OH264858   3.417   9.486   7.796
21658TIP3    H164859   3.360   9.461   7.871
21658TIP3    H264860   3.363   9.552   7.748
21659TIP3   OH264861   5.044   9.738   7.519
21659TIP3    H164862   4.955   9.731   7.481
21659TIP3    H264863   5.077   9.646   7.506
21660TIP3   OH264864   4.264   9.656   7.158
21660TIP3    H164865   4.206   9.584   7.190
21660TIP3    H264866   4.321   9.610   7.094
21661TIP3   OH264867   4.771   9.545   7.048
21661TIP3    H164868   4.811   9.588   6.969
21661TIP3    H264869   4.676   9.552   7.031
21662TIP3   OH264870   4.867   9.636   6.809
21662TIP3    H164871   4.939   9.583   6.768
21662TIP3    H264872   4.902   9.727   6.791
21663TIP3   OH264873   3.498   9.364   7.154
21663TIP3    H164874   3.406   9.331   7.156
21663TIP3    H264875   3.547   9.279   7.150
21664TIP3   OH264876   3.278   9.234   6.797
21664TIP3    H164877   3.314   9.291   6.727
21664TIP3    H264878   3.255   9.299   6.866
21665TIP3   OH264879   3.941   9.395   7.032
21665TIP3    H164880   4.000   9.444   6.971
21665TIP3    H264881   3.960   9.438   7.116
21666TIP3   OH264882   4.488   9.543   7.016
21666TIP3    H164883   4.488   9.505   6.927
21666TIP3    H264884   4.476   9.463   7.072
21667TIP3   OH264885   4.520   9.466   6.581
21667TIP3    H164886   4.431   9.506   6.585
21667TIP3    H264887   4.504   9.380   6.626
21668TIP3   OH264888   3.402   9.393   6.564
21668TIP3    H164889   3.452   9.332   6.506
21668TIP3    H264890   3.475   9.449   6.600
21669TIP3   OH264891   3.913   9.568   6.663
21669TIP3    H164892   3.975   9.521   6.721
21669TIP3    H264893   3.936   9.661   6.687
21670TIP3   OH264894   3.645   9.559   8.010
21670TIP3    H164895   3.660   9.499   8.086
21670TIP3    H264896   3.697   9.637   8.035
21671TIP3   OH264897   3.981   9.576   8.119
21671TIP3    H164898   4.062   9.527   8.100
21671TIP3    H264899   3.967   9.547   8.210
21672TIP3   OH264900   4.781   9.717   7.942
21672TIP3    H164901   4.801   9.679   8.030
21672TIP3    H264902   4.868   9.709   7.897
21673TIP3   OH264903   4.962  10.149   6.464
21673TIP3    H164904   4.917  10.221   6.511
21673TIP3    H264905   4.889  10.089   6.442
21674TIP3   OH264906   6.145  10.361   6.668
21674TIP3    H164907   6.195  10.281   6.690
21674TIP3    H264908   6.144  10.357   6.571
21675TIP3   OH264909   5.534  10.015   6.635
21675TIP3    H164910   5.514  10.087   6.571
21675TIP3    H264911   5.488   9.940   6.591
21676TIP3   OH264912   6.229  10.101   6.258
21676TIP3    H164913   6.298  10.087   6.326
21676TIP3    H264914   6.283  10.137   6.185
21677TIP3   OH264915   5.157  10.198   6.753
21677TIP3    H164916   5.246  10.189   6.792
21677TIP3    H264917   5.172  10.163   6.664
21678TIP3   OH264918   5.623  10.417   6.514
21678TIP3    H164919   5.705  10.376   6.546
21678TIP3    H264920   5.568  10.340   6.490
21679TIP3   OH264921   5.528  10.001   7.074
21679TIP3    H164922   5.470  10.033   7.003
21679TIP3    H264923   5.474  10.021   7.153
21680TIP3   OH264924   6.445  10.112   6.430
21680TIP3    H164925   6.427  10.033   6.483
21680TIP3    H264926   6.523  10.147   6.473
21681TIP3   OH264927   5.404  10.110   6.855
21681TIP3    H164928   5.463  10.186   6.874
21681TIP3    H264929   5.451  10.070   6.779
21682TIP3   OH264930   5.887   9.715   6.782
21682TIP3    H164931   5.873   9.620   6.805
21682TIP3    H264932   5.811   9.754   6.830
21683TIP3   OH264933   5.778  10.234   5.775
21683TIP3    H164934   5.824  10.298   5.830
21683TIP3    H264935   5.849  10.199   5.719
21684TIP3   OH264936   6.519   9.662   5.885
21684TIP3    H164937   6.437   9.677   5.937
21684TIP3    H264938   6.528   9.746   5.837
21685TIP3   OH264939   5.648   9.793   6.913
21685TIP3    H164940   5.560   9.762   6.885
21685TIP3    H264941   5.623   9.874   6.961
21686TIP3   OH264942   5.798   9.843   5.883
21686TIP3    H164943   5.766   9.843   5.976
21686TIP3    H264944   5.757   9.760   5.852
21687TIP3   OH264945   5.576  10.318   6.923
21687TIP3    H164946   5.527  10.329   7.008
21687TIP3    H264947   5.570  10.407   6.886
21688TIP3   OH264948   5.463  10.195   6.445
21688TIP3    H164949   5.370  10.167   6.462
21688TIP3    H264950   5.477  10.156   6.356
21689TIP3   OH264951   5.965  10.282   6.171
21689TIP3    H164952   5.882  10.333   6.152
21689TIP3    H264953   6.002  10.266   6.083
21690TIP3   OH264954   6.104  10.311   6.402
21690TIP3    H164955   6.045  10.316   6.323
21690TIP3    H264956   6.152  10.230   6.375
21691TIP3   OH264957   5.428  10.333   7.155
21691TIP3    H164958   5.418  10.394   7.228
21691TIP3    H264959   5.395  10.249   7.192
21692TIP3   OH264960   5.448   9.814   5.850
21692TIP3    H164961   5.442   9.813   5.948
21692TIP3    H264962   5.370   9.869   5.830
21693TIP3   OH264963   4.990   9.860   6.722
21693TIP3    H164964   5.066   9.893   6.774
21693TIP3    H264965   5.030   9.825   6.641
21694TIP3   OH264966   4.967   9.838   6.239
21694TIP3    H164967   5.011   9.878   6.161
21694TIP3    H264968   4.905   9.910   6.262
21695TIP3   OH264969   5.792  10.013   6.502
21695TIP3    H164970   5.708  10.007   6.550
21695TIP3    H264971   5.854  10.033   6.574
21696TIP3   OH264972   5.224  10.076   6.511
21696TIP3    H164973   5.130  10.080   6.484
21696TIP3    H264974   5.250   9.984   6.491
21697TIP3   OH264975   5.497  10.069   6.204
21697TIP3    H164976   5.588  10.090   6.178
21697TIP3    H264977   5.445  10.089   6.123
21698TIP3   OH264978   6.257  10.094   6.707
21698TIP3    H164979   6.230  10.069   6.796
21698TIP3    H264980   6.202  10.032   6.656
21699TIP3   OH264981   5.334  10.088   5.983
21699TIP3    H164982   5.267  10.054   5.921
21699TIP3    H264983   5.376  10.157   5.928
21700TIP3   OH264984   5.865  10.316   6.593
21700TIP3    H164985   5.950  10.311   6.546
21700TIP3    H264986   5.896  10.331   6.683
21701TIP3   OH264987   5.395   9.833   6.483
21701TIP3    H164988   5.362   9.754   6.531
21701TIP3    H264989   5.459   9.792   6.422
21702TIP3   OH264990   5.846  10.241   6.918
21702TIP3    H164991   5.752  10.260   6.898
21702TIP3    H264992   5.884  10.329   6.916
21703TIP3   OH264993   6.039   9.962   5.836
21703TIP3    H164994   5.947   9.934   5.859
21703TIP3    H264995   6.046  10.052   5.872
21704TIP3   OH264996   6.115  10.215   5.935
21704TIP3    H164997   6.205  10.200   5.970
21704TIP3    H264998   6.125  10.303   5.895
21705TIP3   OH264999   6.553  10.275   5.797
21705TIP3    H165000   6.490  10.237   5.731
21705TIP3    H265001   6.561  10.364   5.762
21706TIP3   OH265002   5.370  10.086   7.295
21706TIP3    H165003   5.273  10.078   7.298
21706TIP3    H265004   5.398  10.018   7.358
21707TIP3   OH265005   6.090   9.896   6.129
21707TIP3    H165006   6.076   9.924   6.037
21707TIP3    H265007   6.128   9.976   6.171
21708TIP3   OH265008   5.785  10.075   6.235
21708TIP3    H165009   5.852  10.146   6.226
21708TIP3    H265010   5.781  10.065   6.333
21709TIP3   OH265011   5.922   9.807   6.341
21709TIP3    H165012   5.904   9.886   6.396
21709TIP3    H265013   5.982   9.842   6.273
21710TIP3   OH265014   5.434   9.800   6.123
21710TIP3    H165015   5.429   9.890   6.161
21710TIP3    H265016   5.529   9.782   6.138
21711TIP3   OH265017   4.988   9.995   6.015
21711TIP3    H165018   4.998  10.090   6.001
21711TIP3    H265019   4.907   9.972   5.968
21712TIP3   OH265020   5.381   9.714   6.889
21712TIP3    H165021   5.353   9.680   6.801
21712TIP3    H265022   5.372   9.633   6.944
21713TIP3   OH265023   5.504  10.233   5.821
21713TIP3    H165024   5.475  10.177   5.746
21713TIP3    H265025   5.601  10.220   5.820
21714TIP3   OH265026   5.794  10.053   7.114
21714TIP3    H165027   5.815  10.116   7.042
21714TIP3    H265028   5.697  10.043   7.104
21715TIP3   OH265029   5.929   9.817   7.132
21715TIP3    H165030   5.875   9.899   7.124
21715TIP3    H265031   5.859   9.751   7.147
21716TIP3   OH265032   6.382  10.201   5.594
21716TIP3    H165033   6.366  10.217   5.501
21716TIP3    H265034   6.360  10.105   5.599
21717TIP3   OH265035   6.376  10.456   6.143
21717TIP3    H165036   6.386  10.360   6.133
21717TIP3    H265037   6.396  10.470   6.237
21718TIP3   OH265038   6.329   9.936   5.588
21718TIP3    H165039   6.410   9.902   5.633
21718TIP3    H265040   6.262   9.870   5.610
21719TIP3   OH265041   6.388  10.181   6.040
21719TIP3    H165042   6.426  10.091   6.054
21719TIP3    H265043   6.447  10.213   5.969
21720TIP3   OH265044   5.231  10.209   7.546
21720TIP3    H165045   5.323  10.188   7.568
21720TIP3    H265046   5.186  10.140   7.599
21721TIP3   OH265047   6.491   9.930   6.074
21721TIP3    H165048   6.540   9.910   6.156
21721TIP3    H265049   6.429   9.853   6.072
21722TIP3   OH265050   5.195   9.920   6.904
21722TIP3    H165051   5.259   9.846   6.906
21722TIP3    H265052   5.255   9.995   6.888
21723TIP3   OH265053   4.998  10.203   6.975
21723TIP3    H165054   5.048  10.191   6.891
21723TIP3    H265055   5.018  10.296   6.993
21724TIP3   OH265056   6.577   9.873   5.701
21724TIP3    H165057   6.616   9.796   5.654
21724TIP3    H265058   6.650   9.938   5.697
21725TIP3   OH265059   4.984   9.703   6.472
21725TIP3    H165060   4.889   9.695   6.492
21725TIP3    H265061   4.983   9.757   6.390
21726TIP3   OH265062   5.205   9.788   7.288
21726TIP3    H165063   5.148   9.776   7.366
21726TIP3    H265064   5.140   9.817   7.222
21727TIP3   OH265065   6.056   9.910   6.631
21727TIP3    H165066   6.001   9.844   6.678
21727TIP3    H265067   6.113   9.853   6.577
21728TIP3   OH265068   6.559   9.815   6.548
21728TIP3    H165069   6.596   9.844   6.462
21728TIP3    H265070   6.464   9.806   6.527
21729TIP3   OH265071   6.652   9.880   6.299
21729TIP3    H165072   6.727   9.824   6.268
21729TIP3    H265073   6.684   9.967   6.267
21730TIP3   OH265074   5.295   9.621   6.641
21730TIP3    H165075   5.203   9.588   6.640
21730TIP3    H265076   5.345   9.537   6.637
21731TIP3   OH265077   5.080   9.489   6.286
21731TIP3    H165078   5.111   9.548   6.215
21731TIP3    H265079   5.052   9.552   6.354
21732TIP3   OH265080   5.728   9.689   6.518
21732TIP3    H165081   5.804   9.718   6.465
21732TIP3    H265082   5.764   9.691   6.608
21733TIP3   OH265083   6.286   9.796   6.493
21733TIP3    H165084   6.275   9.747   6.410
21733TIP3    H265085   6.273   9.722   6.558
21734TIP3   OH265086   6.312   9.718   6.066
21734TIP3    H165087   6.224   9.758   6.083
21734TIP3    H265088   6.302   9.634   6.115
21735TIP3   OH265089   5.198   9.651   6.049
21735TIP3    H165090   5.250   9.588   5.996
21735TIP3    H265091   5.269   9.707   6.088
21736TIP3   OH265092   5.713   9.827   6.145
21736TIP3    H165093   5.762   9.776   6.212
21736TIP3    H265094   5.735   9.918   6.175
21737TIP3   OH265095   5.499   9.906   7.548
21737TIP3    H165096   5.484   9.824   7.599
21737TIP3    H265097   5.592   9.896   7.523
21738TIP3   OH265098   6.758  10.442   5.968
21738TIP3    H165099   6.687  10.508   5.966
21738TIP3    H265100   6.711  10.359   5.956
21739TIP3   OH265101   7.600  10.090   5.351
21739TIP3    H165102   7.585  10.107   5.444
21739TIP3    H265103   7.550  10.007   5.336
21740TIP3   OH265104   7.244  10.072   5.333
21740TIP3    H165105   7.236  10.067   5.430
21740TIP3    H265106   7.167  10.127   5.311
21741TIP3   OH265107   6.757  10.085   6.159
21741TIP3    H165108   6.844  10.125   6.174
21741TIP3    H265109   6.776  10.033   6.079
21742TIP3   OH265110   6.762  10.098   5.725
21742TIP3    H165111   6.804  10.138   5.646
21742TIP3    H265112   6.702  10.170   5.751
21743TIP3   OH265113   7.126  10.323   5.484
21743TIP3    H165114   7.062  10.302   5.414
21743TIP3    H265115   7.182  10.388   5.437
21744TIP3   OH265116   7.220  10.044   5.607
21744TIP3    H165117   7.195  10.119   5.664
21744TIP3    H265118   7.297  10.008   5.654
21745TIP3   OH265119   6.784  10.257   5.504
21745TIP3    H165120   6.800  10.351   5.488
21745TIP3    H265121   6.708  10.236   5.449
21746TIP3   OH265122   7.296  10.461   5.325
21746TIP3    H165123   7.260  10.427   5.240
21746TIP3    H265124   7.386  10.485   5.300
21747TIP3   OH265125   6.770   9.933   5.936
21747TIP3    H165126   6.675   9.931   5.956
21747TIP3    H265127   6.775   9.998   5.862
21748TIP3   OH265128   7.070   9.862   6.071
21748TIP3    H165129   6.979   9.829   6.086
21748TIP3    H265130   7.122   9.780   6.082
21749TIP3   OH265131   6.874   9.739   5.767
21749TIP3    H165132   6.908   9.799   5.698
21749TIP3    H265133   6.846   9.803   5.836
21750TIP3   OH265134   6.989   9.903   5.531
21750TIP3    H165135   7.035   9.837   5.475
21750TIP3    H265136   7.065   9.956   5.563
21751TIP3   OH265137   6.778   2.149   9.529
21751TIP3    H165138   6.793   2.244   9.509
21751TIP3    H265139   6.870   2.114   9.515
21752TIP3   OH265140   6.252   2.359   9.630
21752TIP3    H165141   6.322   2.293   9.614
21752TIP3    H265142   6.276   2.390   9.718
21753TIP3   OH265143   6.549   1.608   9.675
21753TIP3    H165144   6.514   1.564   9.596
21753TIP3    H265145   6.639   1.629   9.645
21754TIP3   OH265146   6.760   2.206   9.793
21754TIP3    H165147   6.700   2.140   9.829
21754TIP3    H265148   6.762   2.182   9.698
21755TIP3   OH265149   6.816   2.422   9.517
21755TIP3    H165150   6.864   2.495   9.474
21755TIP3    H265151   6.732   2.468   9.537
21756TIP3   OH265152   5.984   2.105   9.593
21756TIP3    H165153   5.943   2.045   9.657
21756TIP3    H265154   6.072   2.063   9.584
21757TIP3   OH265155   6.434   2.164   9.506
21757TIP3    H165156   6.485   2.185   9.587
21757TIP3    H265157   6.500   2.170   9.435
21758TIP3   OH265158   6.785   1.682   9.557
21758TIP3    H165159   6.770   1.629   9.477
21758TIP3    H265160   6.755   1.770   9.526
21759TIP3   OH265161   6.806   2.499   9.802
21759TIP3    H165162   6.830   2.412   9.765
21759TIP3    H265163   6.748   2.535   9.732
21760TIP3   OH265164   7.594   2.158   9.203
21760TIP3    H165165   7.660   2.101   9.162
21760TIP3    H265166   7.642   2.195   9.279
21761TIP3   OH265167   7.516   2.456   9.452
21761TIP3    H165168   7.521   2.530   9.387
21761TIP3    H265169   7.597   2.470   9.502
21762TIP3   OH265170   7.298   2.109   9.444
21762TIP3    H165171   7.327   2.176   9.507
21762TIP3    H265172   7.368   2.111   9.378
21763TIP3   OH265173   7.780   2.385   9.077
21763TIP3    H165174   7.748   2.368   9.169
21763TIP3    H265175   7.861   2.330   9.079
21764TIP3   OH265176   7.569   2.666   9.288
21764TIP3    H165177   7.664   2.655   9.272
21764TIP3    H265178   7.545   2.719   9.210
21765TIP3   OH265179   7.029   2.051   9.491
21765TIP3    H165180   7.124   2.073   9.495
21765TIP3    H265181   7.033   1.959   9.456
21766TIP3   OH265182   7.000   2.656   9.913
21766TIP3    H165183   6.926   2.608   9.872
21766TIP3    H265184   7.015   2.603   9.994
21767TIP3   OH265185   7.058   2.415   9.661
21767TIP3    H165186   6.979   2.399   9.608
21767TIP3    H265187   7.054   2.510   9.676
21768TIP3   OH265188   7.826   2.613   9.211
21768TIP3    H165189   7.877   2.670   9.153
21768TIP3    H265190   7.809   2.535   9.154
21769TIP3   OH265191   7.131   2.459   9.303
21769TIP3    H165192   7.138   2.478   9.397
21769TIP3    H265193   7.220   2.419   9.283
21770TIP3   OH265194   4.616   3.707   9.621
21770TIP3    H165195   4.600   3.802   9.608
21770TIP3    H265196   4.711   3.697   9.599
21771TIP3   OH265197   4.590   3.984   9.651
21771TIP3    H165198   4.677   4.018   9.624
21771TIP3    H265199   4.537   4.064   9.645
21772TIP3   OH265200   7.830   5.417   0.543
21772TIP3    H165201   7.833   5.504   0.495
21772TIP3    H265202   7.824   5.359   0.464
21773TIP3   OH265203   6.308   3.835  10.033
21773TIP3    H165204   6.317   3.801  10.123
21773TIP3    H265205   6.345   3.924  10.041
21774TIP3   OH265206   5.964   4.312  10.040
21774TIP3    H165207   6.017   4.251   9.983
21774TIP3    H265208   6.014   4.311  10.122
21775TIP3   OH265209   5.940   3.757   9.836
21775TIP3    H165210   5.938   3.757   9.739
21775TIP3    H265211   5.935   3.854   9.852
21776TIP3   OH265212   6.100   4.154   9.868
21776TIP3    H165213   6.135   4.067   9.839
21776TIP3    H265214   6.163   4.213   9.820
21777TIP3   OH265215   6.206   3.923   9.766
21777TIP3    H165216   6.258   3.909   9.687
21777TIP3    H265217   6.268   3.893   9.834
21778TIP3   OH265218   5.907   3.397   9.742
21778TIP3    H165219   5.819   3.438   9.727
21778TIP3    H265220   5.946   3.404   9.653
21779TIP3   OH265221   5.879   3.182   9.505
21779TIP3    H165222   5.952   3.228   9.550
21779TIP3    H265223   5.931   3.125   9.444
21780TIP3   OH265224   6.250   3.481   9.765
21780TIP3    H165225   6.226   3.514   9.854
21780TIP3    H265226   6.341   3.452   9.788
21781TIP3   OH265227   6.117   3.354   9.562
21781TIP3    H165228   6.166   3.402   9.633
21781TIP3    H265229   6.111   3.421   9.493
21782TIP3   OH265230   5.858   4.020   9.855
21782TIP3    H165231   5.929   4.086   9.868
21782TIP3    H265232   5.785   4.076   9.825
21783TIP3   OH265233   6.619   2.592   9.620
21783TIP3    H165234   6.531   2.605   9.663
21783TIP3    H265235   6.630   2.674   9.569
21784TIP3   OH265236   6.418   3.958   9.175
21784TIP3    H165237   6.426   4.055   9.159
21784TIP3    H265238   6.511   3.930   9.158
21785TIP3   OH265239   5.731   4.276   9.657
21785TIP3    H165240   5.682   4.261   9.574
21785TIP3    H265241   5.692   4.358   9.690
21786TIP3   OH265242   5.930   4.175   9.296
21786TIP3    H165243   5.989   4.105   9.262
21786TIP3    H265244   5.964   4.188   9.387
21787TIP3   OH265245   5.980   4.224   9.563
21787TIP3    H165246   5.892   4.236   9.607
21787TIP3    H265247   6.034   4.191   9.636
21788TIP3   OH265248   5.878   2.801   9.613
21788TIP3    H165249   5.910   2.802   9.705
21788TIP3    H265250   5.891   2.706   9.594
21789TIP3   OH265251   6.068   3.209   9.878
21789TIP3    H165252   6.026   3.273   9.817
21789TIP3    H265253   6.126   3.161   9.816
21790TIP3   OH265254   5.527   2.744   9.611
21790TIP3    H165255   5.552   2.807   9.680
21790TIP3    H265256   5.462   2.796   9.560
21791TIP3   OH265257   5.435   3.007   9.696
21791TIP3    H165258   5.364   2.980   9.634
21791TIP3    H265259   5.479   3.077   9.644
21792TIP3   OH265260   5.676   3.558   9.723
21792TIP3    H165261   5.605   3.494   9.700
21792TIP3    H265262   5.668   3.557   9.820
21793TIP3   OH265263   6.141   2.879   9.576
21793TIP3    H165264   6.044   2.885   9.575
21793TIP3    H265265   6.169   2.968   9.607
21794TIP3   OH265266   6.232   3.117   9.678
21794TIP3    H165267   6.325   3.121   9.707
21794TIP3    H265268   6.224   3.196   9.621
21795TIP3   OH265269   5.839   3.712   9.557
21795TIP3    H165270   5.794   3.800   9.560
21795TIP3    H265271   5.780   3.660   9.616
21796TIP3   OH265272   6.651   3.191   9.535
21796TIP3    H165273   6.588   3.167   9.464
21796TIP3    H265274   6.686   3.275   9.502
21797TIP3   OH265275   6.325   4.035   9.427
21797TIP3    H165276   6.377   3.987   9.495
21797TIP3    H265277   6.363   3.996   9.346
21798TIP3   OH265278   5.421   4.096   9.859
21798TIP3    H165279   5.340   4.135   9.895
21798TIP3    H265280   5.482   4.171   9.875
21799TIP3   OH265281   6.099   3.734   9.348
21799TIP3    H165282   6.143   3.736   9.434
21799TIP3    H265283   6.005   3.734   9.374
21800TIP3   OH265284   6.449   4.233   9.162
21800TIP3    H165285   6.491   4.306   9.112
21800TIP3    H265286   6.370   4.281   9.195
21801TIP3   OH265287   6.279   3.639   9.545
21801TIP3    H165288   6.264   3.600   9.633
21801TIP3    H265289   6.341   3.712   9.572
21802TIP3   OH265290   5.481   3.737   9.344
21802TIP3    H165291   5.491   3.646   9.311
21802TIP3    H265292   5.457   3.722   9.437
21803TIP3   OH265293   5.429   3.739   9.622
21803TIP3    H165294   5.516   3.728   9.662
21803TIP3    H265295   5.425   3.837   9.613
21804TIP3   OH265296   6.106   2.850   9.847
21804TIP3    H165297   6.128   2.835   9.753
21804TIP3    H265298   6.193   2.878   9.882
21805TIP3   OH265299   5.692   3.939   9.562
21805TIP3    H165300   5.602   3.964   9.589
21805TIP3    H265301   5.712   4.012   9.502
21806TIP3   OH265302   5.430   4.007   9.605
21806TIP3    H165303   5.400   4.083   9.551
21806TIP3    H265304   5.423   4.044   9.696
21807TIP3   OH265305   5.153   3.655   9.617
21807TIP3    H165306   5.222   3.722   9.605
21807TIP3    H265307   5.190   3.585   9.559
21808TIP3   OH265308   6.410   4.375  10.086
21808TIP3    H165309   6.359   4.428  10.021
21808TIP3    H265310   6.499   4.413  10.073
21809TIP3   OH265311   5.642   3.944   9.254
21809TIP3    H165312   5.587   3.871   9.292
21809TIP3    H265313   5.716   3.893   9.216
21810TIP3   OH265314   6.080   3.980   9.165
21810TIP3    H165315   6.150   3.951   9.225
21810TIP3    H265316   6.127   3.987   9.080
21811TIP3   OH265317   5.286   3.460   9.472
21811TIP3    H165318   5.336   3.425   9.548
21811TIP3    H265319   5.357   3.463   9.404
21812TIP3   OH265320   5.797   3.660   9.285
21812TIP3    H165321   5.792   3.673   9.381
21812TIP3    H265322   5.805   3.562   9.279
21813TIP3   OH265323   5.476   3.367   9.672
21813TIP3    H165324   5.481   3.329   9.762
21813TIP3    H265325   5.516   3.294   9.620
21814TIP3   OH265326   5.599   3.157   9.539
21814TIP3    H165327   5.571   3.159   9.445
21814TIP3    H265328   5.696   3.161   9.529
21815TIP3   OH265329   5.401   4.223   9.439
21815TIP3    H165330   5.497   4.219   9.423
21815TIP3    H265331   5.374   4.273   9.360
21816TIP3   OH265332   4.876   3.623   9.589
21816TIP3    H165333   4.965   3.637   9.626
21816TIP3    H265334   4.875   3.525   9.578
21817TIP3   OH265335   6.664   4.477  10.070
21817TIP3    H165336   6.712   4.547  10.117
21817TIP3    H265337   6.699   4.490   9.981
21818TIP3   OH265338   6.679   3.517   9.720
21818TIP3    H165339   6.603   3.509   9.780
21818TIP3    H265340   6.727   3.592   9.758
21819TIP3   OH265341   6.717   3.931  10.100
21819TIP3    H165342   6.794   3.871  10.090
21819TIP3    H265343   6.747   4.010  10.051
21820TIP3   OH265344   6.475   3.142   9.331
21820TIP3    H165345   6.455   3.152   9.238
21820TIP3    H265346   6.454   3.046   9.342
21821TIP3   OH265347   6.479   3.396   9.880
21821TIP3    H165348   6.496   3.302   9.861
21821TIP3    H265349   6.482   3.399   9.977
21822TIP3   OH265350   6.429   2.876   9.344
21822TIP3    H165351   6.510   2.835   9.381
21822TIP3    H265352   6.363   2.805   9.349
21823TIP3   OH265353   6.504   3.133   9.759
21823TIP3    H165354   6.538   3.043   9.778
21823TIP3    H265355   6.561   3.157   9.683
21824TIP3   OH265356   6.593   2.870   9.817
21824TIP3    H165357   6.647   2.870   9.899
21824TIP3    H265358   6.564   2.778   9.809
21825TIP3   OH265359   6.679   2.800   9.447
21825TIP3    H165360   6.724   2.727   9.399
21825TIP3    H265361   6.748   2.869   9.447
21826TIP3   OH265362   6.239   4.323   9.712
21826TIP3    H165363   6.298   4.320   9.634
21826TIP3    H265364   6.279   4.394   9.765
21827TIP3   OH265365   6.401   2.643   9.787
21827TIP3    H165366   6.317   2.690   9.789
21827TIP3    H265367   6.415   2.622   9.881
21828TIP3   OH265368   4.865   4.005   9.693
21828TIP3    H165369   4.841   3.940   9.760
21828TIP3    H265370   4.905   4.074   9.748
21829TIP3   OH265371   5.670   4.180   9.391
21829TIP3    H165372   5.758   4.203   9.356
21829TIP3    H265373   5.648   4.105   9.331
21830TIP3   OH265374   6.387   4.295   9.481
21830TIP3    H165375   6.366   4.200   9.469
21830TIP3    H265376   6.344   4.332   9.402
21831TIP3   OH265377   4.978   4.026   9.446
21831TIP3    H165378   4.950   4.008   9.539
21831TIP3    H265379   5.065   3.981   9.440
21832TIP3   OH265380   7.874   3.819   9.452
21832TIP3    H165381   7.847   3.908   9.420
21832TIP3    H265382   7.806   3.765   9.408
21833TIP3   OH265383   7.800   3.814   9.796
21833TIP3    H165384   7.880   3.794   9.849
21833TIP3    H265385   7.831   3.799   9.706
21834TIP3   OH265386   7.191   3.739  10.193
21834TIP3    H165387   7.204   3.676  10.266
21834TIP3    H265388   7.274   3.730  10.142
21835TIP3   OH265389   8.122   4.118   9.497
21835TIP3    H165390   8.135   4.051   9.565
21835TIP3    H265391   8.149   4.199   9.546
21836TIP3   OH265392   7.150   4.122   9.919
21836TIP3    H165393   7.142   4.024   9.914
21836TIP3    H265394   7.245   4.132   9.897
21837TIP3   OH265395   6.865   3.319   9.680
21837TIP3    H165396   6.821   3.403   9.704
21837TIP3    H265397   6.790   3.258   9.688
21838TIP3   OH265398   6.920   3.607   9.856
21838TIP3    H165399   6.964   3.531   9.901
21838TIP3    H265400   6.987   3.632   9.791
21839TIP3   OH265401   7.773   4.582   9.517
21839TIP3    H165402   7.816   4.511   9.465
21839TIP3    H265403   7.771   4.541   9.605
21840TIP3   OH265404   7.656   4.036   9.876
21840TIP3    H165405   7.689   3.949   9.843
21840TIP3    H265406   7.736   4.088   9.867
21841TIP3   OH265407   7.396   3.210   9.877
21841TIP3    H165408   7.385   3.282   9.812
21841TIP3    H265409   7.363   3.133   9.827
21842TIP3   OH265410   7.060   3.404   9.972
21842TIP3    H165411   7.135   3.383  10.032
21842TIP3    H265412   7.084   3.349   9.895
21843TIP3   OH265413   7.492   3.597   9.770
21843TIP3    H165414   7.585   3.577   9.756
21843TIP3    H265415   7.450   3.516   9.734
21844TIP3   OH265416   7.768   4.033   9.311
21844TIP3    H165417   7.734   4.015   9.223
21844TIP3    H265418   7.725   4.118   9.332
21845TIP3   OH265419   7.518   3.961  10.106
21845TIP3    H165420   7.461   4.037  10.120
21845TIP3    H265421   7.579   3.994  10.038
21846TIP3   OH265422   7.289   3.327  10.100
21846TIP3    H165423   7.366   3.384  10.111
21846TIP3    H265424   7.325   3.263  10.035
21847TIP3   OH265425   6.780   3.843   9.415
21847TIP3    H165426   6.701   3.872   9.369
21847TIP3    H265427   6.772   3.892   9.498
21848TIP3   OH265428   8.172   4.355   9.639
21848TIP3    H165429   8.093   4.346   9.696
21848TIP3    H265430   8.176   4.451   9.625
21849TIP3   OH265431   7.892   4.408   9.340
21849TIP3    H165432   7.941   4.325   9.322
21849TIP3    H265433   7.954   4.472   9.299
21850TIP3   OH265434   8.034   4.193   9.249
21850TIP3    H165435   8.014   4.112   9.200
21850TIP3    H265436   8.070   4.157   9.333
21851TIP3   OH265437   7.715   3.678   9.266
21851TIP3    H165438   7.634   3.727   9.241
21851TIP3    H265439   7.761   3.668   9.181
21852TIP3   OH265440   7.670   3.451   8.983
21852TIP3    H165441   7.737   3.501   9.033
21852TIP3    H265442   7.729   3.388   8.936
21853TIP3   OH265443   8.045   3.746   9.245
21853TIP3    H165444   7.994   3.773   9.324
21853TIP3    H265445   8.130   3.723   9.284
21854TIP3   OH265446   7.292   3.750   9.654
21854TIP3    H165447   7.251   3.690   9.588
21854TIP3    H265448   7.365   3.694   9.689
21855TIP3   OH265449   7.408   4.154   9.806
21855TIP3    H165450   7.394   4.116   9.718
21855TIP3    H265451   7.497   4.118   9.830
21856TIP3   OH265452   7.407   3.722  10.018
21856TIP3    H165453   7.451   3.688   9.938
21856TIP3    H265454   7.466   3.795  10.045
21857TIP3   OH265455   7.955   4.353   9.813
21857TIP3    H165456   7.931   4.447   9.825
21857TIP3    H265457   7.915   4.311   9.889
21858TIP3   OH265458   7.894   3.606   9.063
21858TIP3    H165459   7.954   3.662   9.118
21858TIP3    H265460   7.924   3.630   8.972
21859TIP3   OH265461   7.642   4.288   9.345
21859TIP3    H165462   7.724   4.339   9.354
21859TIP3    H265463   7.583   4.351   9.302
21860TIP3   OH265464   7.160   3.591   9.461
21860TIP3    H165465   7.093   3.633   9.403
21860TIP3    H265466   7.121   3.505   9.478
21861TIP3   OH265467   8.216   4.214   8.665
21861TIP3    H165468   8.228   4.310   8.648
21861TIP3    H265469   8.309   4.181   8.653
21862TIP3   OH265470   6.801   4.179   9.997
21862TIP3    H165471   6.896   4.172   9.979
21862TIP3    H265472   6.797   4.260  10.051
21863TIP3   OH265473   7.523   4.532   9.145
21863TIP3    H165474   7.479   4.512   9.060
21863TIP3    H265475   7.490   4.621   9.165
21864TIP3   OH265476   6.964   4.386   9.528
21864TIP3    H165477   7.011   4.374   9.614
21864TIP3    H265478   6.915   4.301   9.523
21865TIP3   OH265479   7.726   4.433   8.785
21865TIP3    H165480   7.785   4.364   8.747
21865TIP3    H265481   7.761   4.442   8.876
21866TIP3   OH265482   7.776   4.483   9.055
21866TIP3    H165483   7.688   4.491   9.098
21866TIP3    H265484   7.827   4.439   9.125
21867TIP3   OH265485   7.970   3.661   8.809
21867TIP3    H165486   7.944   3.628   8.721
21867TIP3    H265487   8.058   3.697   8.789
21868TIP3   OH265488   7.688   3.033   9.106
21868TIP3    H165489   7.674   3.038   9.202
21868TIP3    H265490   7.647   2.947   9.085
21869TIP3   OH265491   7.348   3.388   9.669
21869TIP3    H165492   7.257   3.355   9.687
21869TIP3    H265493   7.368   3.342   9.585
21870TIP3   OH265494   7.839   3.462   9.390
21870TIP3    H165495   7.794   3.539   9.350
21870TIP3    H265496   7.901   3.434   9.321
21871TIP3   OH265497   7.341   2.997   9.080
21871TIP3    H165498   7.338   2.998   9.177
21871TIP3    H265499   7.265   3.054   9.058
21872TIP3   OH265500   6.911   3.070   9.919
21872TIP3    H165501   6.997   3.103   9.947
21872TIP3    H265502   6.933   3.010   9.846
21873TIP3   OH265503   6.864   3.018   9.470
21873TIP3    H165504   6.906   3.058   9.391
21873TIP3    H265505   6.806   3.092   9.496
21874TIP3   OH265506   7.623   3.260   9.716
21874TIP3    H165507   7.557   3.215   9.772
21874TIP3    H265508   7.703   3.244   9.769
21875TIP3   OH265509   7.120   3.258   9.748
21875TIP3    H165510   7.028   3.266   9.713
21875TIP3    H265511   7.149   3.169   9.718
21876TIP3   OH265512   7.382   3.252   9.432
21876TIP3    H165513   7.479   3.264   9.418
21876TIP3    H265514   7.344   3.281   9.346
21877TIP3   OH265515   7.226   3.291   9.205
21877TIP3    H165516   7.161   3.244   9.150
21877TIP3    H265517   7.283   3.329   9.136
21878TIP3   OH265518   7.287   3.028   9.700
21878TIP3    H165519   7.258   2.945   9.745
21878TIP3    H265520   7.332   2.993   9.623
21879TIP3   OH265521   7.478   3.822   9.214
21879TIP3    H165522   7.407   3.755   9.206
21879TIP3    H265523   7.463   3.854   9.307
21880TIP3   OH265524   7.937   3.147   9.054
21880TIP3    H165525   7.843   3.132   9.079
21880TIP3    H265526   7.962   3.227   9.104
21881TIP3   OH265527   8.031   3.381   9.176
21881TIP3    H165528   8.129   3.382   9.173
21881TIP3    H265529   8.008   3.458   9.121
21882TIP3   OH265530   7.176   3.846   9.886
21882TIP3    H165531   7.214   3.819   9.799
21882TIP3    H265532   7.227   3.791   9.947
21883TIP3   OH265533   7.626   3.968   9.037
21883TIP3    H165534   7.580   4.055   9.044
21883TIP3    H265535   7.573   3.914   9.098
21884TIP3   OH265536   8.466   3.429   8.909
21884TIP3    H165537   8.373   3.403   8.922
21884TIP3    H265538   8.455   3.526   8.897
21885TIP3   OH265539   8.147   4.289   8.926
21885TIP3    H165540   8.134   4.216   8.987
21885TIP3    H265541   8.169   4.244   8.842
21886TIP3   OH265542   7.275   4.145   9.521
21886TIP3    H165543   7.276   4.226   9.466
21886TIP3    H265544   7.181   4.126   9.526
21887TIP3   OH265545   6.836   3.454   9.224
21887TIP3    H165546   6.907   3.521   9.236
21887TIP3    H265547   6.763   3.505   9.260
21888TIP3   OH265548   7.413   3.911   9.461
21888TIP3    H165549   7.379   4.001   9.481
21888TIP3    H265550   7.378   3.860   9.536
21889TIP3   OH265551   7.549   4.484   9.966
21889TIP3    H165552   7.601   4.558   9.931
21889TIP3    H265553   7.609   4.443  10.029
21890TIP3   OH265554   7.194   4.385   9.369
21890TIP3    H165555   7.109   4.392   9.417
21890TIP3    H265556   7.225   4.478   9.373
21891TIP3   OH265557   7.908   4.018   8.831
21891TIP3    H165558   7.962   3.993   8.909
21891TIP3    H265559   7.821   3.987   8.861
21892TIP3   OH265560   8.248   4.490   8.649
21892TIP3    H165561   8.287   4.563   8.597
21892TIP3    H265562   8.168   4.535   8.682
21893TIP3   OH265563   8.061   3.955   9.053
21893TIP3    H165564   8.055   3.884   9.120
21893TIP3    H265565   8.155   3.945   9.025
21894TIP3   OH265566   6.986   4.373  10.131
21894TIP3    H165567   7.032   4.288  10.129
21894TIP3    H265568   7.018   4.406  10.217
21895TIP3   OH265569   7.272   3.998   8.829
21895TIP3    H165570   7.290   3.907   8.800
21895TIP3    H265571   7.254   3.985   8.924
21896TIP3   OH265572   7.219   4.000   9.103
21896TIP3    H165573   7.293   3.973   9.158
21896TIP3    H265574   7.223   4.098   9.109
21897TIP3   OH265575   6.963   3.688   9.294
21897TIP3    H165576   6.901   3.740   9.351
21897TIP3    H265577   6.981   3.756   9.227
21898TIP3   OH265578   7.902   3.108   9.334
21898TIP3    H165579   7.926   3.088   9.243
21898TIP3    H265580   7.989   3.097   9.375
21899TIP3   OH265581   7.485   4.199   9.051
21899TIP3    H165582   7.398   4.226   9.086
21899TIP3    H265583   7.501   4.268   8.985
21900TIP3   OH265584   7.653   3.265   9.446
21900TIP3    H165585   7.733   3.320   9.426
21900TIP3    H265586   7.651   3.270   9.544
21901TIP3   OH265587   7.228   4.274   9.117
21901TIP3    H165588   7.198   4.344   9.055
21901TIP3    H265589   7.212   4.317   9.204
21902TIP3   OH265590   7.331   2.989   9.358
21902TIP3    H165591   7.330   3.081   9.391
21902TIP3    H265592   7.427   2.970   9.368
21903TIP3   OH265593   6.943   3.905   9.105
21903TIP3    H165594   7.009   3.974   9.121
21903TIP3    H265595   6.992   3.852   9.039
21904TIP3   OH265596   6.881   3.180   9.252
21904TIP3    H165597   6.886   3.278   9.244
21904TIP3    H265598   6.821   3.157   9.182
21905TIP3   OH265599   8.207   4.634   9.596
21905TIP3    H165600   8.172   4.684   9.518
21905TIP3    H265601   8.301   4.626   9.573
21906TIP3   OH265602   6.829   4.146   9.509
21906TIP3    H165603   6.746   4.145   9.559
21906TIP3    H265604   6.796   4.162   9.418
21907TIP3   OH265605   7.438   4.201   8.743
21907TIP3    H165606   7.382   4.128   8.779
21907TIP3    H265607   7.513   4.149   8.708
21908TIP3   OH265608   7.873   4.241   8.653
21908TIP3    H165609   7.917   4.177   8.713
21908TIP3    H265610   7.931   4.239   8.574
21909TIP3   OH265611   7.082   3.714   8.964
21909TIP3    H165612   7.140   3.685   9.036
21909TIP3    H265613   7.148   3.720   8.891
21910TIP3   OH265614   7.587   3.914   8.769
21910TIP3    H165615   7.594   3.927   8.866
21910TIP3    H265616   7.590   3.816   8.764
21911TIP3   OH265617   7.285   3.621   9.182
21911TIP3    H165618   7.266   3.581   9.268
21911TIP3    H265619   7.326   3.546   9.133
21912TIP3   OH265620   7.391   3.414   9.026
21912TIP3    H165621   7.367   3.419   8.931
21912TIP3    H265622   7.489   3.418   9.020
21913TIP3   OH265623   8.206   3.746   8.686
21913TIP3    H165624   8.187   3.700   8.602
21913TIP3    H265625   8.177   3.837   8.662
21914TIP3   OH265626   7.198   4.479   8.931
21914TIP3    H165627   7.294   4.472   8.911
21914TIP3    H265628   7.169   4.526   8.850
21915TIP3   OH265629   6.670   3.858   9.131
21915TIP3    H165630   6.765   3.883   9.136
21915TIP3    H265631   6.676   3.768   9.093
21916TIP3   OH265632   6.590   4.471   9.556
21916TIP3    H165633   6.525   4.406   9.522
21916TIP3    H265634   6.635   4.416   9.625
21917TIP3   OH265635   6.717   4.330   9.751
21917TIP3    H165636   6.716   4.249   9.803
21917TIP3    H265637   6.784   4.382   9.799
21918TIP3   OH265638   8.476   4.724   9.548
21918TIP3    H165639   8.457   4.759   9.638
21918TIP3    H265640   8.464   4.800   9.490
21919TIP3   OH265641   8.330   3.932   9.007
21919TIP3    H165642   8.398   4.001   8.988
21919TIP3    H265643   8.345   3.913   9.101
21920TIP3   OH265644   8.344   3.812   9.263
21920TIP3    H165645   8.368   3.729   9.219
21920TIP3    H265646   8.433   3.850   9.274
21921TIP3   OH265647   8.397   3.688   8.873
21921TIP3    H165648   8.334   3.704   8.801
21921TIP3    H265649   8.393   3.773   8.919
21922TIP3   OH265650   8.200   3.387   8.831
21922TIP3    H165651   8.241   3.429   8.754
21922TIP3    H265652   8.208   3.292   8.811
21923TIP3   OH265653   6.933   3.768  10.086
21923TIP3    H165654   6.928   3.718  10.001
21923TIP3    H265655   7.027   3.756  10.109
21924TIP3   OH265656   8.227   3.115   8.815
21924TIP3    H165657   8.304   3.061   8.833
21924TIP3    H265658   8.151   3.055   8.823
21925TIP3   OH265659   6.876   2.887   9.702
21925TIP3    H165660   6.780   2.883   9.716
21925TIP3    H265661   6.882   2.939   9.619
21926TIP3   OH265662   8.037   4.592   9.203
21926TIP3    H165663   8.086   4.574   9.120
21926TIP3    H265664   8.098   4.652   9.249
21927TIP3   OH265665   7.219   4.641  10.003
21927TIP3    H165666   7.152   4.682  10.058
21927TIP3    H265667   7.217   4.694   9.921
21928TIP3   OH265668   7.657   4.705   9.815
21928TIP3    H165669   7.586   4.705   9.749
21928TIP3    H265670   7.647   4.792   9.855
21929TIP3   OH265671   7.919   4.617   9.853
21929TIP3    H165672   7.833   4.659   9.834
21929TIP3    H265673   7.982   4.690   9.832
21930TIP3   OH265674   8.092   4.818   9.781
21930TIP3    H165675   8.111   4.908   9.748
21930TIP3    H265676   8.144   4.761   9.721
21931TIP3   OH265677   6.904   4.478   9.894
21931TIP3    H165678   6.932   4.458   9.987
21931TIP3    H265679   6.980   4.438   9.846
21932TIP3   OH265680   7.102   4.348   9.762
21932TIP3    H165681   7.119   4.264   9.810
21932TIP3    H265682   7.191   4.388   9.759
21933TIP3   OH265683   7.365   4.446   9.763
21933TIP3    H165684   7.398   4.355   9.754
21933TIP3    H265685   7.404   4.468   9.850
21934TIP3   OH265686   7.210   2.809   9.833
21934TIP3    H165687   7.127   2.759   9.851
21934TIP3    H265688   7.254   2.804   9.920
21935TIP3   OH265689   6.958   2.678   9.504
21935TIP3    H165690   7.003   2.733   9.438
21935TIP3    H265691   6.953   2.738   9.581
21936TIP3   OH265692   6.693   4.242   9.293
21936TIP3    H165693   6.607   4.214   9.257
21936TIP3    H265694   6.686   4.338   9.283
21937TIP3   OH265695   7.095   2.839   9.278
21937TIP3    H165696   7.144   2.774   9.223
21937TIP3    H265697   7.169   2.892   9.315
21938TIP3   OH265698   7.613   3.002   9.384
21938TIP3    H165699   7.701   2.962   9.393
21938TIP3    H265700   7.634   3.095   9.408
21939TIP3   OH265701   7.466   4.437   8.878
21939TIP3    H165702   7.555   4.458   8.842
21939TIP3    H265703   7.444   4.362   8.818
21940TIP3   OH265704   8.183   4.554   8.972
21940TIP3    H165705   8.175   4.456   8.960
21940TIP3    H265706   8.141   4.586   8.890
21941TIP3   OH265707   6.770   4.272   8.935
21941TIP3    H165708   6.773   4.295   9.029
21941TIP3    H265709   6.858   4.231   8.921
21942TIP3   OH265710   8.521   4.118   8.935
21942TIP3    H165711   8.535   4.094   8.842
21942TIP3    H265712   8.594   4.179   8.951
21943TIP3   OH265713   9.312   4.785   8.623
21943TIP3    H165714   9.258   4.759   8.546
21943TIP3    H265715   9.266   4.863   8.657
21944TIP3   OH265716   8.763   4.641   9.019
21944TIP3    H165717   8.823   4.598   9.081
21944TIP3    H265718   8.701   4.566   9.003
21945TIP3   OH265719   9.519   4.685   8.255
21945TIP3    H165720   9.579   4.612   8.229
21945TIP3    H265721   9.547   4.701   8.348
21946TIP3   OH265722   9.554   4.736   8.521
21946TIP3    H165723   9.468   4.762   8.563
21946TIP3    H265724   9.564   4.648   8.561
21947TIP3   OH265725   9.352   4.226   8.518
21947TIP3    H165726   9.309   4.308   8.549
21947TIP3    H265727   9.364   4.176   8.599
21948TIP3   OH265728   9.005   4.463   9.043
21948TIP3    H165729   9.046   4.489   8.959
21948TIP3    H265730   8.992   4.368   9.029
21949TIP3   OH265731   8.982   4.653   8.835
21949TIP3    H165732   8.905   4.652   8.894
21949TIP3    H265733   9.013   4.746   8.846
21950TIP3   OH265734   9.953   4.726   8.067
21950TIP3    H165735  10.035   4.776   8.060
21950TIP3    H265736   9.912   4.771   8.143
21951TIP3   OH265737   9.070   4.252   8.314
21951TIP3    H165738   9.079   4.159   8.284
21951TIP3    H265739   9.048   4.238   8.408
21952TIP3   OH265740   9.011   4.264   8.584
21952TIP3    H165741   9.043   4.235   8.670
21952TIP3    H265742   9.013   4.362   8.591
21953TIP3   OH265743   9.282   4.481   8.567
21953TIP3    H165744   9.189   4.504   8.588
21953TIP3    H265745   9.295   4.528   8.484
21954TIP3   OH265746   9.019   4.534   8.598
21954TIP3    H165747   8.987   4.603   8.535
21954TIP3    H265748   9.000   4.579   8.684
21955TIP3   OH265749   8.732   4.188   8.580
21955TIP3    H165750   8.816   4.236   8.588
21955TIP3    H265751   8.768   4.105   8.542
21956TIP3   OH265752   8.652   3.443   8.679
21956TIP3    H165753   8.722   3.491   8.726
21956TIP3    H265754   8.599   3.416   8.756
21957TIP3   OH265755   8.627   4.396   8.999
21957TIP3    H165756   8.539   4.399   9.037
21957TIP3    H265757   8.604   4.415   8.905
21958TIP3   OH265758   9.235   4.454   8.236
21958TIP3    H165759   9.173   4.384   8.269
21958TIP3    H265760   9.307   4.398   8.202
21959TIP3   OH265761   9.679   4.487   8.145
21959TIP3    H165762   9.749   4.431   8.179
21959TIP3    H265763   9.710   4.503   8.053
21960TIP3   OH265764   8.864   3.996   8.418
21960TIP3    H165765   8.867   3.942   8.502
21960TIP3    H265766   8.953   3.980   8.383
21961TIP3   OH265767   9.378   4.176   8.248
21961TIP3    H165768   9.360   4.185   8.345
21961TIP3    H265769   9.377   4.079   8.239
21962TIP3   OH265770   8.995   4.742   8.419
21962TIP3    H165771   9.089   4.734   8.393
21962TIP3    H265772   8.960   4.784   8.338
21963TIP3   OH265773   8.472   4.116   8.626
21963TIP3    H165774   8.566   4.143   8.616
21963TIP3    H265775   8.474   4.025   8.590
21964TIP3   OH265776   8.386   4.730   9.046
21964TIP3    H165777   8.322   4.665   9.009
21964TIP3    H265778   8.433   4.673   9.112
21965TIP3   OH265779   8.516   4.587   9.239
21965TIP3    H165780   8.505   4.506   9.291
21965TIP3    H265781   8.579   4.637   9.293
21966TIP3   OH265782   8.733   4.728   9.361
21966TIP3    H165783   8.743   4.711   9.457
21966TIP3    H265784   8.820   4.702   9.328
21967TIP3   OH265785   8.492   4.507   8.788
21967TIP3    H165786   8.411   4.464   8.754
21967TIP3    H265787   8.474   4.599   8.761
21968TIP3   OH265788   9.259   4.697   8.356
21968TIP3    H165789   9.345   4.720   8.317
21968TIP3    H265790   9.238   4.617   8.302
21969TIP3   OH265791   8.569   4.535   8.422
21969TIP3    H165792   8.565   4.548   8.518
21969TIP3    H265793   8.653   4.487   8.411
21970TIP3   OH265794   4.159   5.459   9.881
21970TIP3    H165795   4.076   5.427   9.843
21970TIP3    H265796   4.129   5.493   9.965
21971TIP3   OH265797   3.735   4.756   9.632
21971TIP3    H165798   3.801   4.816   9.674
21971TIP3    H265799   3.795   4.694   9.586
21972TIP3   OH265800   3.932   4.906   9.731
21972TIP3    H165801   4.003   4.913   9.796
21972TIP3    H265802   3.976   4.932   9.647
21973TIP3   OH265803   4.259   5.516   9.328
21973TIP3    H165804   4.267   5.613   9.313
21973TIP3    H265805   4.352   5.487   9.315
21974TIP3   OH265806   3.599   5.855   9.794
21974TIP3    H165807   3.540   5.824   9.722
21974TIP3    H265808   3.563   5.943   9.815
21975TIP3   OH265809   3.771   5.734   9.446
21975TIP3    H165810   3.830   5.665   9.408
21975TIP3    H265811   3.810   5.744   9.536
21976TIP3   OH265812   3.840   5.780   9.709
21976TIP3    H165813   3.751   5.798   9.749
21976TIP3    H265814   3.882   5.728   9.779
21977TIP3   OH265815   4.026   4.949   9.477
21977TIP3    H165816   3.989   4.927   9.389
21977TIP3    H265817   4.102   5.005   9.452
21978TIP3   OH265818   3.671   5.262   9.693
21978TIP3    H165819   3.629   5.350   9.703
21978TIP3    H265820   3.611   5.207   9.746
21979TIP3   OH265821   4.523   4.768   9.662
21979TIP3    H165822   4.460   4.718   9.606
21979TIP3    H265823   4.509   4.856   9.623
21980TIP3   OH265824   4.196   5.590   9.593
21980TIP3    H165825   4.188   5.518   9.658
21980TIP3    H265826   4.208   5.542   9.509
21981TIP3   OH265827   3.947   5.318   9.486
21981TIP3    H165828   4.004   5.287   9.560
21981TIP3    H265829   3.861   5.288   9.517
21982TIP3   OH265830   4.292   5.792   9.312
21982TIP3    H165831   4.326   5.863   9.255
21982TIP3    H265832   4.212   5.836   9.347
21983TIP3   OH265833   4.107   5.239   9.692
21983TIP3    H165834   4.087   5.212   9.783
21983TIP3    H265835   4.205   5.240   9.692
21984TIP3   OH265836   3.325   5.294   9.495
21984TIP3    H165837   3.350   5.216   9.441
21984TIP3    H265838   3.282   5.248   9.569
21985TIP3   OH265839   3.527   5.495   9.698
21985TIP3    H165840   3.430   5.508   9.689
21985TIP3    H265841   3.559   5.552   9.627
21986TIP3   OH265842   3.265   5.563   9.724
21986TIP3    H165843   3.234   5.628   9.658
21986TIP3    H265844   3.271   5.622   9.801
21987TIP3   OH265845   3.484   5.502   9.404
21987TIP3    H165846   3.431   5.427   9.442
21987TIP3    H265847   3.557   5.452   9.362
21988TIP3   OH265848   3.919   5.544   9.316
21988TIP3    H165849   3.959   5.476   9.374
21988TIP3    H265850   3.975   5.540   9.236
21989TIP3   OH265851   3.170   5.085   9.628
21989TIP3    H165852   3.130   4.999   9.652
21989TIP3    H265853   3.219   5.055   9.549
21990TIP3   OH265854   3.633   5.216   9.427
21990TIP3    H165855   3.640   5.227   9.524
21990TIP3    H265856   3.636   5.118   9.421
21991TIP3   OH265857   3.438   4.744   9.673
21991TIP3    H165858   3.346   4.755   9.641
21991TIP3    H265859   3.489   4.772   9.596
21992TIP3   OH265860   4.262   5.046   9.350
21992TIP3    H165861   4.237   5.001   9.267
21992TIP3    H265862   4.228   5.137   9.329
21993TIP3   OH265863   3.237   5.779   9.570
21993TIP3    H165864   3.334   5.783   9.563
21993TIP3    H265865   3.212   5.836   9.496
21994TIP3   OH265866   4.389   5.239   9.678
21994TIP3    H165867   4.458   5.302   9.649
21994TIP3    H265868   4.435   5.194   9.752
21995TIP3   OH265869   4.522   5.099   9.866
21995TIP3    H165870   4.466   5.071   9.941
21995TIP3    H265871   4.602   5.136   9.909
21996TIP3   OH265872   4.461   5.008   9.533
21996TIP3    H165873   4.389   5.010   9.466
21996TIP3    H265874   4.431   5.082   9.590
21997TIP3   OH265875   4.346   4.672   9.482
21997TIP3    H165876   4.289   4.721   9.422
21997TIP3    H265877   4.312   4.580   9.471
21998TIP3   OH265878   4.277   4.403   9.493
21998TIP3    H165879   4.319   4.328   9.535
21998TIP3    H265880   4.183   4.381   9.502
21999TIP3   OH265881   4.090   5.898   9.868
21999TIP3    H165882   4.135   5.885   9.782
21999TIP3    H265883   4.144   5.969   9.906
22000TIP3   OH265884   3.511   5.745   9.537
22000TIP3    H165885   3.600   5.764   9.502
22000TIP3    H265886   3.486   5.671   9.476
22001TIP3   OH265887   4.232   5.857   9.633
22001TIP3    H165888   4.222   5.759   9.621
22001TIP3    H265889   4.186   5.889   9.553
22002TIP3   OH265890   2.841   5.606   9.611
22002TIP3    H165891   2.864   5.673   9.679
22002TIP3    H265892   2.926   5.561   9.594
22003TIP3   OH265893   5.724   5.372   9.589
22003TIP3    H165894   5.695   5.463   9.569
22003TIP3    H265895   5.646   5.322   9.557
22004TIP3   OH265896   5.709   5.377   9.956
22004TIP3    H165897   5.733   5.347  10.046
22004TIP3    H265898   5.674   5.295   9.917
22005TIP3   OH265899   5.962   5.680   9.649
22005TIP3    H165900   5.955   5.609   9.714
22005TIP3    H265901   5.998   5.753   9.702
22006TIP3   OH265902   5.009   5.670  10.081
22006TIP3    H165903   4.994   5.578  10.051
22006TIP3    H265904   5.101   5.686  10.052
22007TIP3   OH265905   4.704   4.871   9.836
22007TIP3    H165906   4.667   4.960   9.848
22007TIP3    H265907   4.640   4.835   9.770
22008TIP3   OH265908   4.781   5.157   9.930
22008TIP3    H165909   4.825   5.114  10.004
22008TIP3    H265910   4.855   5.194   9.880
22009TIP3   OH265911   5.597   6.135   9.665
22009TIP3    H165912   5.645   6.068   9.611
22009TIP3    H265913   5.613   6.100   9.754
22010TIP3   OH265914   5.518   5.592   9.996
22010TIP3    H165915   5.565   5.515   9.960
22010TIP3    H265916   5.594   5.647  10.023
22011TIP3   OH265917   6.543   4.932  10.021
22011TIP3    H165918   6.533   5.022  10.054
22011TIP3    H265919   6.563   4.948   9.927
22012TIP3   OH265920   5.942   5.105  10.056
22012TIP3    H165921   5.974   5.012  10.066
22012TIP3    H265922   5.911   5.099   9.964
22013TIP3   OH265923   5.310   4.753   9.967
22013TIP3    H165924   5.257   4.827   9.933
22013TIP3    H265925   5.251   4.719  10.039
22014TIP3   OH265926   5.968   4.851   9.641
22014TIP3    H165927   6.038   4.833   9.708
22014TIP3    H265928   6.022   4.884   9.567
22015TIP3   OH265929   5.356   5.161   9.865
22015TIP3    H165930   5.446   5.128   9.881
22015TIP3    H265931   5.306   5.079   9.847
22016TIP3   OH265932   5.612   5.591   9.459
22016TIP3    H165933   5.572   5.573   9.373
22016TIP3    H265934   5.567   5.674   9.484
22017TIP3   OH265935   6.174   4.850   9.821
22017TIP3    H165936   6.189   4.813   9.910
22017TIP3    H265937   6.228   4.930   9.830
22018TIP3   OH265938   4.596   5.403   9.577
22018TIP3    H165939   4.555   5.429   9.492
22018TIP3    H265940   4.627   5.489   9.612
22019TIP3   OH265941   6.028   5.911   9.809
22019TIP3    H165942   5.937   5.911   9.847
22019TIP3    H265943   6.032   6.002   9.773
22020TIP3   OH265944   6.298   4.796  10.063
22020TIP3    H165945   6.273   4.819  10.154
22020TIP3    H265946   6.387   4.834  10.056
22021TIP3   OH265947   5.729   5.968   9.489
22021TIP3    H165948   5.780   5.885   9.474
22021TIP3    H265949   5.793   6.032   9.450
22022TIP3   OH265950   5.874   5.753   9.400
22022TIP3    H165951   5.847   5.670   9.358
22022TIP3    H265952   5.912   5.720   9.484
22023TIP3   OH265953   5.553   5.224   9.419
22023TIP3    H165954   5.474   5.277   9.396
22023TIP3    H265955   5.600   5.221   9.333
22024TIP3   OH265956   5.511   5.008   9.136
22024TIP3    H165957   5.579   5.060   9.183
22024TIP3    H265958   5.568   4.945   9.088
22025TIP3   OH265959   6.453   5.455   9.996
22025TIP3    H165960   6.374   5.512  10.010
22025TIP3    H265961   6.488   5.496   9.914
22026TIP3   OH265962   5.900   5.307   9.390
22026TIP3    H165963   5.846   5.331   9.469
22026TIP3    H265964   5.984   5.281   9.434
22027TIP3   OH265965   5.127   5.303   9.807
22027TIP3    H165966   5.087   5.247   9.736
22027TIP3    H265967   5.210   5.254   9.827
22028TIP3   OH265968   5.255   5.710   9.954
22028TIP3    H165969   5.250   5.670   9.866
22028TIP3    H265970   5.343   5.678   9.984
22029TIP3   OH265971   5.322   5.294  10.106
22029TIP3    H165972   5.358   5.260  10.023
22029TIP3    H265973   5.399   5.318  10.157
22030TIP3   OH265974   5.785   5.923   9.927
22030TIP3    H165975   5.777   6.005   9.981
22030TIP3    H265976   5.773   5.851   9.992
22031TIP3   OH265977   5.740   5.166   9.217
22031TIP3    H165978   5.800   5.225   9.268
22031TIP3    H265979   5.767   5.189   9.124
22032TIP3   OH265980   5.482   5.844   9.497
22032TIP3    H165981   5.565   5.893   9.507
22032TIP3    H265982   5.427   5.905   9.446
22033TIP3   OH265983   6.256   4.406   9.265
22033TIP3    H165984   6.175   4.427   9.316
22033TIP3    H265985   6.270   4.489   9.215
22034TIP3   OH265986   4.993   5.152   9.615
22034TIP3    H165987   4.927   5.193   9.556
22034TIP3    H265988   4.962   5.061   9.619
22035TIP3   OH265989   6.056   5.773   8.814
22035TIP3    H165990   6.066   5.869   8.799
22035TIP3    H265991   6.149   5.743   8.801
22036TIP3   OH265992   5.352   6.088   9.303
22036TIP3    H165993   5.319   6.060   9.215
22036TIP3    H265994   5.337   6.183   9.303
22037TIP3   OH265995   4.805   5.939   9.680
22037TIP3    H165996   4.849   5.929   9.768
22037TIP3    H265997   4.743   5.864   9.684
22038TIP3   OH265998   5.567   5.992   8.934
22038TIP3    H165999   5.625   5.922   8.897
22038TIP3    H266000   5.602   6.000   9.025
22039TIP3   OH266001   5.612   6.042   9.207
22039TIP3    H166002   5.527   6.040   9.256
22039TIP3    H266003   5.672   6.004   9.273
22040TIP3   OH266004   5.817   5.214   8.962
22040TIP3    H166005   5.783   5.187   8.874
22040TIP3    H266006   5.900   5.258   8.936
22041TIP3   OH266007   5.528   4.588   9.263
22041TIP3    H166008   5.497   4.584   9.356
22041TIP3    H266009   5.491   4.504   9.229
22042TIP3   OH266010   5.183   4.953   9.816
22042TIP3    H166011   5.097   4.915   9.844
22042TIP3    H266012   5.197   4.908   9.730
22043TIP3   OH266013   5.692   5.026   9.552
22043TIP3    H166014   5.640   5.097   9.510
22043TIP3    H266015   5.747   4.995   9.477
22044TIP3   OH266016   5.851   5.056   9.793
22044TIP3    H166017   5.790   5.082   9.721
22044TIP3    H266018   5.885   4.973   9.753
22045TIP3   OH266019   5.185   4.560   9.227
22045TIP3    H166020   5.180   4.558   9.324
22045TIP3    H266021   5.106   4.612   9.204
22046TIP3   OH266022   5.804   5.288  10.200
22046TIP3    H166023   5.865   5.228  10.152
22046TIP3    H266024   5.863   5.327  10.266
22047TIP3   OH266025   5.559   4.770   9.865
22047TIP3    H166026   5.469   4.762   9.906
22047TIP3    H266027   5.618   4.748   9.939
22048TIP3   OH266028   4.968   4.807   9.902
22048TIP3    H166029   4.878   4.820   9.866
22048TIP3    H266030   4.992   4.716   9.876
22049TIP3   OH266031   5.229   4.813   9.584
22049TIP3    H166032   5.325   4.825   9.568
22049TIP3    H266033   5.188   4.835   9.498
22050TIP3   OH266034   5.992   4.844  10.076
22050TIP3    H166035   5.970   4.819  10.169
22050TIP3    H266036   5.961   4.767  10.028
22051TIP3   OH266037   5.068   4.848   9.357
22051TIP3    H166038   5.006   4.802   9.298
22051TIP3    H266039   5.126   4.889   9.289
22052TIP3   OH266040   5.607   5.099   9.955
22052TIP3    H166041   5.681   5.050   9.915
22052TIP3    H266042   5.607   5.068  10.047
22053TIP3   OH266043   5.104   4.546   9.846
22053TIP3    H166044   5.138   4.464   9.886
22053TIP3    H266045   5.186   4.582   9.811
22054TIP3   OH266046   5.322   5.379   9.366
22054TIP3    H166047   5.251   5.312   9.356
22054TIP3    H266048   5.305   5.411   9.458
22055TIP3   OH266049   6.223   5.602  10.007
22055TIP3    H166050   6.252   5.666   9.939
22055TIP3    H266051   6.137   5.573   9.972
22056TIP3   OH266052   5.781   4.689   9.230
22056TIP3    H166053   5.684   4.673   9.239
22056TIP3    H266054   5.791   4.784   9.254
22057TIP3   OH266055   5.851   4.937   9.334
22057TIP3    H166056   5.947   4.942   9.350
22057TIP3    H266057   5.834   5.017   9.280
22058TIP3   OH266058   4.986   5.398  10.024
22058TIP3    H166059   5.038   5.374   9.944
22058TIP3    H266060   5.028   5.343  10.092
22059TIP3   OH266061   5.468   5.527   9.189
22059TIP3    H166062   5.422   5.614   9.197
22059TIP3    H266063   5.414   5.471   9.249
22060TIP3   OH266064   6.293   5.027   9.170
22060TIP3    H166065   6.230   4.983   9.109
22060TIP3    H266066   6.291   5.116   9.129
22061TIP3   OH266067   5.990   5.846   9.077
22061TIP3    H166068   5.970   5.774   9.139
22061TIP3    H266069   6.006   5.800   8.993
22062TIP3   OH266070   5.976   5.472   9.928
22062TIP3    H166071   5.883   5.444   9.920
22062TIP3    H266072   6.021   5.399   9.881
22063TIP3   OH266073   5.115   5.696   9.667
22063TIP3    H166074   5.115   5.776   9.613
22063TIP3    H266075   5.020   5.683   9.682
22064TIP3   OH266076   4.687   4.999   9.376
22064TIP3    H166077   4.728   5.086   9.393
22064TIP3    H266078   4.607   5.006   9.433
22065TIP3   OH266079   5.254   5.466   9.612
22065TIP3    H166080   5.219   5.555   9.632
22065TIP3    H266081   5.222   5.416   9.689
22066TIP3   OH266082   5.384   6.048  10.105
22066TIP3    H166083   5.443   6.118  10.076
22066TIP3    H266084   5.429   6.008  10.180
22067TIP3   OH266085   5.025   5.929   9.518
22067TIP3    H166086   4.938   5.925   9.564
22067TIP3    H266087   5.057   6.014   9.547
22068TIP3   OH266088   5.773   5.692  10.087
22068TIP3    H166089   5.768   5.678  10.183
22068TIP3    H266090   5.845   5.633  10.059
22069TIP3   OH266091   5.749   5.575   8.980
22069TIP3    H166092   5.802   5.550   9.059
22069TIP3    H266093   5.661   5.545   9.009
22070TIP3   OH266094   6.089   6.049   8.799
22070TIP3    H166095   6.131   6.122   8.751
22070TIP3    H266096   6.008   6.094   8.830
22071TIP3   OH266097   5.909   5.510   9.198
22071TIP3    H166098   5.898   5.443   9.268
22071TIP3    H266099   6.006   5.506   9.184
22072TIP3   OH266100   5.114   5.556   8.980
22072TIP3    H166101   5.128   5.464   8.949
22072TIP3    H266102   5.094   5.541   9.074
22073TIP3   OH266103   5.061   5.558   9.252
22073TIP3    H166104   5.133   5.529   9.309
22073TIP3    H266105   5.066   5.655   9.259
22074TIP3   OH266106   4.794   5.252   9.453
22074TIP3    H166107   4.728   5.296   9.510
22074TIP3    H266108   4.808   5.322   9.386
22075TIP3   OH266109   5.829   4.643   9.509
22075TIP3    H166110   5.814   4.666   9.416
22075TIP3    H266111   5.867   4.725   9.546
22076TIP3   OH266112   5.329   5.759   9.204
22076TIP3    H166113   5.240   5.785   9.235
22076TIP3    H266114   5.340   5.819   9.129
22077TIP3   OH266115   5.511   4.824   9.604
22077TIP3    H166116   5.576   4.895   9.584
22077TIP3    H266117   5.527   4.812   9.700
22078TIP3   OH266118   5.666   4.558   9.713
22078TIP3    H166119   5.656   4.640   9.765
22078TIP3    H266120   5.729   4.587   9.644
22079TIP3   OH266121   5.071   5.831   9.263
22079TIP3    H166122   5.040   5.901   9.202
22079TIP3    H266123   5.049   5.870   9.350
22080TIP3   OH266124   5.167   4.547   9.501
22080TIP3    H166125   5.170   4.635   9.544
22080TIP3    H266126   5.260   4.520   9.514
22081TIP3   OH266127   6.073   5.237   9.792
22081TIP3    H166128   6.001   5.172   9.799
22081TIP3    H266129   6.147   5.190   9.836
22082TIP3   OH266130   4.787   5.462   9.260
22082TIP3    H166131   4.855   5.531   9.269
22082TIP3    H266132   4.832   5.406   9.193
22083TIP3   OH266133   4.695   4.700   9.406
22083TIP3    H166134   4.731   4.790   9.420
22083TIP3    H266135   4.627   4.720   9.340
22084TIP3   OH266136   6.045   6.181   9.736
22084TIP3    H166137   6.006   6.233   9.663
22084TIP3    H266138   6.140   6.202   9.722
22085TIP3   OH266139   4.658   5.676   9.647
22085TIP3    H166140   4.589   5.707   9.706
22085TIP3    H266141   4.630   5.717   9.562
22086TIP3   OH266142   5.280   5.759   8.897
22086TIP3    H166143   5.223   5.686   8.930
22086TIP3    H266144   5.354   5.708   8.859
22087TIP3   OH266145   5.714   5.800   8.804
22087TIP3    H166146   5.758   5.735   8.863
22087TIP3    H266147   5.771   5.797   8.724
22088TIP3   OH266148   4.923   5.275   9.113
22088TIP3    H166149   4.979   5.242   9.186
22088TIP3    H266150   4.989   5.279   9.041
22089TIP3   OH266151   5.431   5.473   8.920
22089TIP3    H166152   5.435   5.485   9.017
22089TIP3    H266153   5.433   5.375   8.914
22090TIP3   OH266154   5.131   5.179   9.334
22090TIP3    H166155   5.106   5.137   9.417
22090TIP3    H266156   5.168   5.105   9.283
22091TIP3   OH266157   5.232   4.972   9.177
22091TIP3    H166158   5.206   4.976   9.082
22091TIP3    H266159   5.329   4.976   9.169
22092TIP3   OH266160   6.052   5.304   8.839
22092TIP3    H166161   6.033   5.257   8.755
22092TIP3    H266162   6.020   5.393   8.815
22093TIP3   OH266163   5.041   6.042   9.085
22093TIP3    H166164   5.135   6.033   9.061
22093TIP3    H266165   5.007   6.084   9.004
22094TIP3   OH266166   4.519   5.416   9.297
22094TIP3    H166167   4.614   5.437   9.282
22094TIP3    H266168   4.512   5.327   9.256
22095TIP3   OH266169   4.437   6.030   9.705
22095TIP3    H166170   4.369   5.968   9.670
22095TIP3    H266171   4.480   5.974   9.773
22096TIP3   OH266172   4.570   5.887   9.895
22096TIP3    H166173   4.543   5.821   9.960
22096TIP3    H266174   4.610   5.954   9.954
22097TIP3   OH266175   6.298   6.282   9.698
22097TIP3    H166176   6.320   6.340   9.772
22097TIP3    H266177   6.354   6.319   9.628
22098TIP3   OH266178   6.187   5.491   9.172
22098TIP3    H166179   6.256   5.554   9.143
22098TIP3    H266180   6.231   5.452   9.251
22099TIP3   OH266181   6.315   5.358   9.376
22099TIP3    H166182   6.249   5.316   9.435
22099TIP3    H266183   6.378   5.397   9.439
22100TIP3   OH266184   6.343   5.737   9.799
22100TIP3    H166185   6.418   5.683   9.767
22100TIP3    H266186   6.350   5.817   9.744
22101TIP3   OH266187   6.210   6.038  10.000
22101TIP3    H166188   6.138   6.090  10.034
22101TIP3    H266189   6.166   5.979   9.936
22102TIP3   OH266190   6.254   5.266   9.022
22102TIP3    H166191   6.182   5.268   8.954
22102TIP3    H266192   6.226   5.342   9.077
22103TIP3   OH266193   6.123   4.940   8.978
22103TIP3    H166194   6.084   4.976   8.897
22103TIP3    H266195   6.099   4.845   8.970
22104TIP3   OH266196   6.129   5.215   9.522
22104TIP3    H166197   6.138   5.118   9.516
22104TIP3    H266198   6.116   5.229   9.618
22105TIP3   OH266199   6.068   4.674   8.964
22105TIP3    H166200   6.144   4.642   9.016
22105TIP3    H266201   5.996   4.613   8.987
22106TIP3   OH266202   6.126   4.931   9.417
22106TIP3    H166203   6.165   4.841   9.431
22106TIP3    H266204   6.185   4.963   9.346
22107TIP3   OH266205   6.288   5.107   9.900
22107TIP3    H166206   6.377   5.129   9.866
22107TIP3    H266207   6.298   5.141   9.992
22108TIP3   OH266208   6.340   5.242  10.136
22108TIP3    H166209   6.287   5.286  10.203
22108TIP3    H266210   6.388   5.316  10.094
22109TIP3   OH266211   6.233   4.681   9.452
22109TIP3    H166212   6.284   4.666   9.535
22109TIP3    H266213   6.173   4.603   9.453
22110TIP3   OH266214   6.316   4.615   9.086
22110TIP3    H166215   6.356   4.542   9.034
22110TIP3    H266216   6.384   4.685   9.081
22111TIP3   OH266217   4.722   4.500   9.803
22111TIP3    H166218   4.652   4.485   9.868
22111TIP3    H266219   4.746   4.590   9.820
22112TIP3   OH266220   5.875   6.149   9.350
22112TIP3    H166221   5.932   6.135   9.272
22112TIP3    H266222   5.930   6.208   9.405
22113TIP3   OH266223   5.076   6.208  10.145
22113TIP3    H166224   5.011   6.231  10.213
22113TIP3    H266225   5.048   6.258  10.067
22114TIP3   OH266226   5.503   6.271   9.969
22114TIP3    H166227   5.417   6.275   9.926
22114TIP3    H266228   5.505   6.351  10.022
22115TIP3   OH266229   5.762   6.179  10.024
22115TIP3    H166230   5.680   6.215   9.987
22115TIP3    H266231   5.828   6.246   9.996
22116TIP3   OH266232   5.932   6.369   9.921
22116TIP3    H166233   5.948   6.459   9.885
22116TIP3    H266234   5.987   6.314   9.863
22117TIP3   OH266235   4.752   6.044  10.044
22117TIP3    H166236   4.741   6.013  10.135
22117TIP3    H266237   4.826   5.989  10.011
22118TIP3   OH266238   4.944   5.896   9.913
22118TIP3    H166239   4.962   5.817   9.968
22118TIP3    H266240   5.033   5.938   9.910
22119TIP3   OH266241   5.201   5.992   9.904
22119TIP3    H166242   5.240   5.902   9.908
22119TIP3    H266243   5.239   6.028   9.986
22120TIP3   OH266244   5.776   4.651  10.002
22120TIP3    H166245   5.766   4.576  10.062
22120TIP3    H266246   5.852   4.621   9.947
22121TIP3   OH266247   6.296   4.528   9.885
22121TIP3    H166248   6.340   4.586   9.818
22121TIP3    H266249   6.221   4.585   9.911
22122TIP3   OH266250   6.404   4.644   9.663
22122TIP3    H166251   6.477   4.590   9.625
22122TIP3    H266252   6.439   4.735   9.649
22123TIP3   OH266253   4.764   4.295   9.619
22123TIP3    H166254   4.856   4.269   9.608
22123TIP3    H266255   4.758   4.310   9.715
22124TIP3   OH266256   5.527   4.390   9.885
22124TIP3    H166257   5.569   4.464   9.839
22124TIP3    H266258   5.471   4.431   9.950
22125TIP3   OH266259   5.998   4.544   9.886
22125TIP3    H166260   6.027   4.516   9.798
22125TIP3    H266261   5.995   4.459   9.935
22126TIP3   OH266262   6.051   4.467   9.445
22126TIP3    H166263   5.965   4.510   9.458
22126TIP3    H266264   6.037   4.381   9.491
22127TIP3   OH266265   4.536   5.808   9.446
22127TIP3    H166266   4.451   5.773   9.412
22127TIP3    H266267   4.523   5.902   9.425
22128TIP3   OH266268   4.931   4.421   9.423
22128TIP3    H166269   4.971   4.341   9.383
22128TIP3    H266270   5.011   4.462   9.462
22129TIP3   OH266271   5.446   4.568   9.529
22129TIP3    H166272   5.502   4.519   9.592
22129TIP3    H266273   5.472   4.660   9.552
22130TIP3   OH266274   5.309   5.997   9.031
22130TIP3    H166275   5.398   6.017   8.994
22130TIP3    H266276   5.285   5.923   8.971
22131TIP3   OH266277   6.025   6.112   9.121
22131TIP3    H166278   6.017   6.015   9.110
22131TIP3    H266279   5.983   6.144   9.039
22132TIP3   OH266280   4.612   5.833   9.084
22132TIP3    H166281   4.609   5.855   9.178
22132TIP3    H266282   4.700   5.790   9.075
22133TIP3   OH266283   7.485   5.622   9.443
22133TIP3    H166284   7.533   5.616   9.530
22133TIP3    H266285   7.456   5.529   9.436
22134TIP3   OH266286   6.821   5.534   9.816
22134TIP3    H166287   6.841   5.494   9.901
22134TIP3    H266288   6.906   5.570   9.786
22135TIP3   OH266289   7.698   5.907   9.173
22135TIP3    H166290   7.742   5.846   9.237
22135TIP3    H266291   7.758   5.983   9.177
22136TIP3   OH266292   6.792   5.936   9.551
22136TIP3    H166293   6.781   5.838   9.550
22136TIP3    H266294   6.888   5.943   9.538
22137TIP3   OH266295   6.496   5.140   9.331
22137TIP3    H166296   6.444   5.222   9.345
22137TIP3    H266297   6.427   5.082   9.294
22138TIP3   OH266298   6.556   5.426   9.501
22138TIP3    H166299   6.603   5.348   9.538
22138TIP3    H266300   6.610   5.446   9.424
22139TIP3   OH266301   7.380   6.379   9.135
22139TIP3    H166302   7.442   6.323   9.084
22139TIP3    H266303   7.402   6.350   9.224
22140TIP3   OH266304   7.316   5.845   9.458
22140TIP3    H166305   7.352   5.754   9.467
22140TIP3    H266306   7.392   5.896   9.495
22141TIP3   OH266307   8.297   5.178   9.492
22141TIP3    H166308   8.358   5.240   9.536
22141TIP3    H266309   8.333   5.176   9.402
22142TIP3   OH266310   7.734   5.355   9.534
22142TIP3    H166311   7.777   5.269   9.552
22142TIP3    H266312   7.699   5.340   9.445
22143TIP3   OH266313   7.065   5.016   9.501
22143TIP3    H166314   7.045   5.088   9.437
22143TIP3    H266315   7.020   4.941   9.458
22144TIP3   OH266316   7.762   5.109   9.123
22144TIP3    H166317   7.834   5.089   9.187
22144TIP3    H266318   7.815   5.141   9.048
22145TIP3   OH266319   6.701   5.219   9.608
22145TIP3    H166320   6.783   5.195   9.655
22145TIP3    H266321   6.710   5.162   9.529
22146TIP3   OH266322   7.140   5.415   9.402
22146TIP3    H166323   7.234   5.389   9.413
22146TIP3    H266324   7.101   5.332   9.369
22147TIP3   OH266325   7.065   4.995   9.938
22147TIP3    H166326   7.004   5.032   9.872
22147TIP3    H266327   7.006   4.978  10.013
22148TIP3   OH266328   7.136   5.781   9.728
22148TIP3    H166329   7.104   5.848   9.789
22148TIP3    H266330   7.220   5.819   9.699
22149TIP3   OH266331   7.970   5.104   9.294
22149TIP3    H166332   7.964   5.049   9.373
22149TIP3    H266333   8.019   5.181   9.327
22150TIP3   OH266334   6.934   5.111   9.721
22150TIP3    H166335   7.000   5.182   9.740
22150TIP3    H266336   6.978   5.068   9.644
22151TIP3   OH266337   6.392   5.658   9.065
22151TIP3    H166338   6.352   5.685   8.980
22151TIP3    H266339   6.423   5.744   9.101
22152TIP3   OH266340   8.105   5.092   9.673
22152TIP3    H166341   8.022   5.094   9.623
22152TIP3    H266342   8.173   5.113   9.607
22153TIP3   OH266343   7.419   4.715   9.652
22153TIP3    H166344   7.406   4.620   9.671
22153TIP3    H266345   7.340   4.753   9.697
22154TIP3   OH266346   7.549   6.222   8.997
22154TIP3    H166347   7.582   6.137   8.959
22154TIP3    H266348   7.598   6.286   8.940
22155TIP3   OH266349   7.645   5.984   8.895
22155TIP3    H166350   7.658   5.928   8.816
22155TIP3    H266351   7.707   5.945   8.957
22156TIP3   OH266352   7.359   5.491   8.905
22156TIP3    H166353   7.276   5.537   8.884
22156TIP3    H266354   7.397   5.478   8.816
22157TIP3   OH266355   7.309   5.264   8.626
22157TIP3    H166356   7.379   5.316   8.667
22157TIP3    H266357   7.363   5.199   8.576
22158TIP3   OH266358   7.696   5.567   8.878
22158TIP3    H166359   7.643   5.557   8.958
22158TIP3    H266360   7.783   5.536   8.911
22159TIP3   OH266361   6.931   5.564   9.290
22159TIP3    H166362   6.885   5.506   9.226
22159TIP3    H266363   7.005   5.507   9.320
22160TIP3   OH266364   7.058   5.973   9.442
22160TIP3    H166365   7.029   5.936   9.357
22160TIP3    H266366   7.143   5.927   9.456
22161TIP3   OH266367   7.068   5.527   9.652
22161TIP3    H166368   7.096   5.508   9.560
22161TIP3    H266369   7.099   5.619   9.665
22162TIP3   OH266370   7.537   5.421   8.700
22162TIP3    H166371   7.597   5.482   8.749
22162TIP3    H266372   7.562   5.442   8.607
22163TIP3   OH266373   7.274   6.107   9.010
22163TIP3    H166374   7.337   6.180   9.013
22163TIP3    H266375   7.210   6.141   8.946
22164TIP3   OH266376   8.054   4.663   8.752
22164TIP3    H166377   7.972   4.683   8.802
22164TIP3    H266378   8.066   4.746   8.701
22165TIP3   OH266379   6.792   5.406   9.104
22165TIP3    H166380   6.727   5.449   9.045
22165TIP3    H266381   6.757   5.317   9.110
22166TIP3   OH266382   7.851   6.030   8.303
22166TIP3    H166383   7.861   6.126   8.284
22166TIP3    H266384   7.943   5.998   8.290
22167TIP3   OH266385   6.428   5.980   9.637
22167TIP3    H166386   6.524   5.981   9.629
22167TIP3    H266387   6.411   6.056   9.695
22168TIP3   OH266388   7.162   6.345   8.783
22168TIP3    H166389   7.117   6.330   8.698
22168TIP3    H266390   7.131   6.434   8.808
22169TIP3   OH266391   6.597   6.197   9.164
22169TIP3    H166392   6.647   6.189   9.249
22169TIP3    H266393   6.542   6.116   9.168
22170TIP3   OH266394   7.362   6.248   8.418
22170TIP3    H166395   7.422   6.178   8.383
22170TIP3    H266396   7.394   6.259   8.509
22171TIP3   OH266397   7.409   6.296   8.683
22171TIP3    H166398   7.322   6.306   8.729
22171TIP3    H266399   7.466   6.267   8.756
22172TIP3   OH266400   7.182   4.801   9.774
22172TIP3    H166401   7.095   4.765   9.749
22172TIP3    H266402   7.153   4.879   9.825
22173TIP3   OH266403   7.616   5.473   8.450
22173TIP3    H166404   7.578   5.445   8.364
22173TIP3    H266405   7.699   5.514   8.419
22174TIP3   OH266406   7.326   4.843   8.750
22174TIP3    H166407   7.292   4.839   8.842
22174TIP3    H266408   7.288   4.761   8.715
22175TIP3   OH266409   7.115   5.303   9.794
22175TIP3    H166410   7.093   5.337   9.881
22175TIP3    H266411   7.102   5.383   9.738
22176TIP3   OH266412   6.995   5.198   9.312
22176TIP3    H166413   6.903   5.170   9.329
22176TIP3    H266414   7.009   5.158   9.223
22177TIP3   OH266415   7.492   5.292   9.043
22177TIP3    H166416   7.437   5.359   8.997
22177TIP3    H266417   7.542   5.253   8.968
22178TIP3   OH266418   7.643   5.307   9.274
22178TIP3    H166419   7.578   5.320   9.201
22178TIP3    H266420   7.686   5.227   9.239
22179TIP3   OH266421   6.982   4.817   8.716
22179TIP3    H166422   6.972   4.814   8.813
22179TIP3    H266423   6.902   4.868   8.691
22180TIP3   OH266424   6.526   4.869   9.581
22180TIP3    H166425   6.602   4.895   9.637
22180TIP3    H266426   6.567   4.829   9.503
22181TIP3   OH266427   6.497   4.842   9.107
22181TIP3    H166428   6.542   4.879   9.029
22181TIP3    H266429   6.435   4.915   9.127
22182TIP3   OH266430   7.624   5.564   9.667
22182TIP3    H166431   7.670   5.485   9.629
22182TIP3    H266432   7.597   5.533   9.754
22183TIP3   OH266433   7.325   5.028   9.375
22183TIP3    H166434   7.243   5.019   9.426
22183TIP3    H266435   7.394   5.010   9.441
22184TIP3   OH266436   6.758   5.074   9.381
22184TIP3    H166437   6.664   5.080   9.353
22184TIP3    H266438   6.781   4.982   9.358
22185TIP3   OH266439   7.027   5.074   9.070
22185TIP3    H166440   7.121   5.085   9.046
22185TIP3    H266441   6.979   5.093   8.986
22186TIP3   OH266442   7.819   5.095   9.571
22186TIP3    H166443   7.792   5.101   9.666
22186TIP3    H266444   7.755   5.029   9.537
22187TIP3   OH266445   6.868   5.106   8.848
22187TIP3    H166446   6.798   5.059   8.801
22187TIP3    H266447   6.920   5.141   8.773
22188TIP3   OH266448   7.408   5.353   9.468
22188TIP3    H166449   7.473   5.298   9.421
22188TIP3    H266450   7.409   5.312   9.557
22189TIP3   OH266451   6.930   4.833   9.349
22189TIP3    H166452   6.895   4.755   9.397
22189TIP3    H266453   6.981   4.792   9.278
22190TIP3   OH266454   7.385   5.256   9.731
22190TIP3    H166455   7.291   5.267   9.754
22190TIP3    H266456   7.428   5.268   9.817
22191TIP3   OH266457   7.119   5.636   8.860
22191TIP3    H166458   7.049   5.569   8.846
22191TIP3    H266459   7.101   5.666   8.952
22192TIP3   OH266460   7.578   4.944   8.723
22192TIP3    H166461   7.482   4.925   8.727
22192TIP3    H266462   7.584   5.040   8.741
22193TIP3   OH266463   7.646   5.196   8.827
22193TIP3    H166464   7.743   5.197   8.836
22193TIP3    H266465   7.630   5.270   8.765
22194TIP3   OH266466   6.818   5.660   9.528
22194TIP3    H166467   6.852   5.630   9.442
22194TIP3    H266468   6.844   5.587   9.586
22195TIP3   OH266469   7.261   5.781   8.667
22195TIP3    H166470   7.221   5.870   8.681
22195TIP3    H266471   7.215   5.729   8.736
22196TIP3   OH266472   8.087   5.285   8.657
22196TIP3    H166473   8.026   5.239   8.595
22196TIP3    H266474   8.086   5.373   8.614
22197TIP3   OH266475   7.789   6.099   8.564
22197TIP3    H166476   7.768   6.018   8.611
22197TIP3    H266477   7.804   6.066   8.473
22198TIP3   OH266478   7.763   5.734   9.367
22198TIP3    H166479   7.700   5.693   9.428
22198TIP3    H266480   7.816   5.656   9.340
22199TIP3   OH266481   6.914   5.956   9.153
22199TIP3    H166482   6.915   6.039   9.102
22199TIP3    H266483   6.819   5.942   9.163
22200TIP3   OH266484   6.477   5.264   8.859
22200TIP3    H166485   6.522   5.348   8.880
22200TIP3    H266486   6.400   5.269   8.920
22201TIP3   OH266487   7.076   5.734   9.117
22201TIP3    H166488   7.027   5.818   9.124
22201TIP3    H266489   7.028   5.678   9.181
22202TIP3   OH266490   6.834   6.198   9.010
22202TIP3    H166491   6.748   6.209   9.054
22202TIP3    H266492   6.868   6.291   9.013
22203TIP3   OH266493   7.544   5.955   9.556
22203TIP3    H166494   7.542   5.966   9.653
22203TIP3    H266495   7.635   5.920   9.548
22204TIP3   OH266496   7.546   5.830   8.470
22204TIP3    H166497   7.594   5.808   8.552
22204TIP3    H266498   7.456   5.803   8.493
22205TIP3   OH266499   7.882   6.302   8.287
22205TIP3    H166500   7.920   6.370   8.230
22205TIP3    H266501   7.804   6.350   8.320
22206TIP3   OH266502   7.711   5.785   8.701
22206TIP3    H166503   7.698   5.705   8.756
22206TIP3    H266504   7.805   5.771   8.674
22207TIP3   OH266505   6.618   6.179   9.780
22207TIP3    H166506   6.664   6.097   9.800
22207TIP3    H266507   6.637   6.233   9.857
22208TIP3   OH266508   6.910   5.811   8.466
22208TIP3    H166509   6.926   5.719   8.436
22208TIP3    H266510   6.890   5.797   8.560
22209TIP3   OH266511   6.855   5.816   8.740
22209TIP3    H166512   6.933   5.791   8.791
22209TIP3    H266513   6.858   5.914   8.745
22210TIP3   OH266514   6.592   5.510   8.941
22210TIP3    H166515   6.526   5.554   8.998
22210TIP3    H266516   6.606   5.579   8.873
22211TIP3   OH266517   7.751   5.136   9.837
22211TIP3    H166518   7.806   5.191   9.894
22211TIP3    H266519   7.698   5.090   9.903
22212TIP3   OH266520   7.616   4.900   9.001
22212TIP3    H166521   7.605   4.918   8.905
22212TIP3    H266522   7.659   4.981   9.033
22213TIP3   OH266523   7.124   6.016   8.694
22213TIP3    H166524   7.035   6.043   8.723
22213TIP3    H266525   7.140   6.083   8.625
22214TIP3   OH266526   7.312   5.080   9.101
22214TIP3    H166527   7.378   5.150   9.085
22214TIP3    H266528   7.316   5.071   9.199
22215TIP3   OH266529   7.454   4.804   9.204
22215TIP3    H166530   7.455   4.880   9.264
22215TIP3    H266531   7.514   4.837   9.132
22216TIP3   OH266532   6.865   6.088   8.755
22216TIP3    H166533   6.836   6.158   8.691
22216TIP3    H266534   6.850   6.133   8.841
22217TIP3   OH266535   6.965   4.802   8.993
22217TIP3    H166536   6.964   4.892   9.030
22217TIP3    H266537   7.061   4.783   9.000
22218TIP3   OH266538   7.860   5.491   9.273
22218TIP3    H166539   7.786   5.428   9.283
22218TIP3    H266540   7.930   5.446   9.326
22219TIP3   OH266541   6.583   5.719   8.747
22219TIP3    H166542   6.650   5.789   8.756
22219TIP3    H266543   6.628   5.663   8.680
22220TIP3   OH266544   6.528   4.994   8.883
22220TIP3    H166545   6.526   5.092   8.877
22220TIP3    H266546   6.449   4.970   8.833
22221TIP3   OH266547   6.917   4.718   9.753
22221TIP3    H166548   6.886   4.683   9.666
22221TIP3    H266549   6.905   4.639   9.811
22222TIP3   OH266550   6.456   5.932   9.135
22222TIP3    H166551   6.386   5.963   9.193
22222TIP3    H266552   6.430   5.972   9.050
22223TIP3   OH266553   7.075   6.014   8.380
22223TIP3    H166554   7.019   5.941   8.416
22223TIP3    H266555   7.150   5.963   8.344
22224TIP3   OH266556   7.511   6.055   8.290
22224TIP3    H166557   7.559   5.992   8.347
22224TIP3    H266558   7.565   6.055   8.208
22225TIP3   OH266559   6.717   5.532   8.599
22225TIP3    H166560   6.773   5.497   8.670
22225TIP3    H266561   6.784   5.536   8.527
22226TIP3   OH266562   7.227   5.729   8.403
22226TIP3    H166563   7.230   5.743   8.500
22226TIP3    H266564   7.230   5.631   8.399
22227TIP3   OH266565   6.931   5.434   8.825
22227TIP3    H166566   6.900   5.387   8.903
22227TIP3    H266567   6.966   5.361   8.769
22228TIP3   OH266568   7.027   5.230   8.662
22228TIP3    H166569   7.002   5.232   8.568
22228TIP3    H266570   7.125   5.233   8.655
22229TIP3   OH266571   7.849   5.560   8.327
22229TIP3    H166572   7.830   5.513   8.243
22229TIP3    H266573   7.817   5.650   8.302
22230TIP3   OH266574   7.328   5.088   9.969
22230TIP3    H166575   7.345   5.083   9.874
22230TIP3    H266576   7.239   5.049   9.975
22231TIP3   OH266577   6.834   6.289   8.567
22231TIP3    H166578   6.930   6.286   8.550
22231TIP3    H266579   6.806   6.340   8.489
22232TIP3   OH266580   6.314   5.672   8.784
22232TIP3    H166581   6.409   5.694   8.769
22232TIP3    H266582   6.309   5.584   8.743
22233TIP3   OH266583   6.228   6.285   9.198
22233TIP3    H166584   6.162   6.222   9.162
22233TIP3    H266585   6.273   6.228   9.264
22234TIP3   OH266586   6.364   6.136   9.383
22234TIP3    H166587   6.352   6.063   9.447
22234TIP3    H266588   6.419   6.197   9.436
22235TIP3   OH266589   7.982   5.751   8.659
22235TIP3    H166590   8.051   5.812   8.625
22235TIP3    H266591   8.029   5.710   8.735
22236TIP3   OH266592   8.106   5.618   8.861
22236TIP3    H166593   8.048   5.572   8.925
22236TIP3    H266594   8.180   5.651   8.918
22237TIP3   OH266595   8.049   5.522   8.511
22237TIP3    H166596   7.979   5.523   8.442
22237TIP3    H266597   8.022   5.600   8.563
22238TIP3   OH266598   7.918   5.197   8.466
22238TIP3    H166599   7.881   5.232   8.383
22238TIP3    H266600   7.894   5.102   8.458
22239TIP3   OH266601   7.920   5.468   9.005
22239TIP3    H166602   7.934   5.372   8.995
22239TIP3    H266603   7.911   5.477   9.103
22240TIP3   OH266604   6.552   5.546   9.753
22240TIP3    H166605   6.547   5.516   9.660
22240TIP3    H266606   6.649   5.549   9.767
22241TIP3   OH266607   7.863   4.932   8.453
22241TIP3    H166608   7.939   4.897   8.504
22241TIP3    H266609   7.792   4.869   8.472
22242TIP3   OH266610   7.924   5.188   8.902
22242TIP3    H166611   7.964   5.099   8.919
22242TIP3    H266612   7.983   5.217   8.830
22243TIP3   OH266613   8.055   5.359   9.409
22243TIP3    H166614   8.143   5.373   9.366
22243TIP3    H266615   8.081   5.357   9.501
22244TIP3   OH266616   8.028   4.938   8.943
22244TIP3    H166617   8.078   4.920   9.025
22244TIP3    H266618   7.969   4.859   8.940
22245TIP3   OH266619   6.730   4.922   9.758
22245TIP3    H166620   6.790   4.846   9.770
22245TIP3    H266621   6.794   4.995   9.751
22246TIP3   OH266622   6.541   5.192   9.840
22246TIP3    H166623   6.588   5.193   9.753
22246TIP3    H266624   6.544   5.285   9.866
22247TIP3   OH266625   8.112   4.871   8.574
22247TIP3    H166626   8.151   4.798   8.520
22247TIP3    H266627   8.181   4.940   8.566
22248TIP3   OH266628   6.518   4.703   9.337
22248TIP3    H166629   6.424   4.697   9.361
22248TIP3    H266630   6.515   4.760   9.257
22249TIP3   OH266631   7.657   6.403   8.828
22249TIP3    H166632   7.712   6.390   8.747
22249TIP3    H266633   7.728   6.428   8.890
22250TIP3   OH266634   6.740   4.762  10.123
22250TIP3    H166635   6.703   4.738  10.210
22250TIP3    H266636   6.670   4.821  10.087
22251TIP3   OH266637   6.849   6.432   9.627
22251TIP3    H166638   6.848   6.493   9.702
22251TIP3    H266639   6.848   6.492   9.551
22252TIP3   OH266640   6.541   6.289   9.537
22252TIP3    H166641   6.568   6.267   9.629
22252TIP3    H266642   6.617   6.251   9.488
22253TIP3   OH266643   6.735   6.160   9.395
22253TIP3    H166644   6.754   6.080   9.449
22253TIP3    H266645   6.825   6.200   9.388
22254TIP3   OH266646   6.998   6.258   9.394
22254TIP3    H166647   7.036   6.168   9.402
22254TIP3    H266648   7.001   6.290   9.485
22255TIP3   OH266649   7.573   4.909   9.486
22255TIP3    H166650   7.535   4.837   9.540
22255TIP3    H266651   7.649   4.865   9.444
22256TIP3   OH266652   8.108   4.796   9.395
22256TIP3    H166653   8.139   4.845   9.316
22256TIP3    H266654   8.012   4.807   9.391
22257TIP3   OH266655   8.197   4.895   9.158
22257TIP3    H166656   8.269   4.842   9.117
22257TIP3    H266657   8.227   4.986   9.137
22258TIP3   OH266658   6.826   4.623   9.506
22258TIP3    H166659   6.734   4.588   9.507
22258TIP3    H266660   6.876   4.538   9.504
22259TIP3   OH266661   6.609   4.491   9.151
22259TIP3    H166662   6.643   4.548   9.080
22259TIP3    H266663   6.586   4.557   9.220
22260TIP3   OH266664   7.269   4.657   9.386
22260TIP3    H166665   7.330   4.702   9.326
22260TIP3    H266666   7.297   4.689   9.473
22261TIP3   OH266667   7.818   4.802   9.370
22261TIP3    H166668   7.822   4.760   9.283
22261TIP3    H266669   7.805   4.723   9.428
22262TIP3   OH266670   7.848   4.723   8.933
22262TIP3    H166671   7.759   4.760   8.940
22262TIP3    H266672   7.836   4.637   8.979
22263TIP3   OH266673   6.331   6.062   8.934
22263TIP3    H166674   6.247   6.028   8.899
22263TIP3    H266675   6.320   6.156   8.918
22264TIP3   OH266676   6.731   4.650   8.917
22264TIP3    H166677   6.779   4.587   8.860
22264TIP3    H266678   6.805   4.704   8.952
22265TIP3   OH266679   7.242   4.828   9.016
22265TIP3    H166680   7.301   4.778   9.074
22265TIP3    H266681   7.268   4.920   9.041
22266TIP3   OH266682   7.103   6.251   8.516
22266TIP3    H166683   7.190   6.275   8.479
22266TIP3    H266684   7.081   6.176   8.456
22267TIP3   OH266685   7.818   6.368   8.611
22267TIP3    H166686   7.815   6.272   8.592
22267TIP3    H266687   7.785   6.406   8.527
22268TIP3   OH266688   6.408   6.087   8.572
22268TIP3    H166689   6.413   6.110   8.666
22268TIP3    H266690   6.495   6.045   8.556
22269TIP3   OH266691   8.286   5.392   8.818
22269TIP3    H166692   8.241   5.477   8.829
22269TIP3    H266693   8.216   5.339   8.776
22270TIP3   OH266694   8.352   5.676   8.967
22270TIP3    H166695   8.401   5.598   9.000
22270TIP3    H266696   8.410   5.711   8.898
22271TIP3   OH266697   8.884   5.246   8.964
22271TIP3    H166698   8.877   5.328   8.912
22271TIP3    H266699   8.812   5.193   8.927
22272TIP3   OH266700   8.467   5.449   9.091
22272TIP3    H166701   8.560   5.438   9.117
22272TIP3    H266702   8.469   5.398   9.007
22273TIP3   OH266703   8.185   5.915   8.552
22273TIP3    H166704   8.150   5.941   8.465
22273TIP3    H266705   8.215   6.001   8.589
22274TIP3   OH266706   9.103   5.520   8.106
22274TIP3    H166707   9.164   5.568   8.163
22274TIP3    H266708   9.165   5.459   8.060
22275TIP3   OH266709   9.848   4.922   8.238
22275TIP3    H166710   9.765   4.933   8.291
22275TIP3    H266711   9.837   4.993   8.173
22276TIP3   OH266712   8.590   5.652   8.578
22276TIP3    H166713   8.525   5.703   8.526
22276TIP3    H266714   8.541   5.572   8.598
22277TIP3   OH266715   9.424   5.726   7.923
22277TIP3    H166716   9.382   5.689   7.843
22277TIP3    H266717   9.460   5.809   7.890
22278TIP3   OH266718   9.131   5.097   8.234
22278TIP3    H166719   9.094   5.094   8.324
22278TIP3    H266720   9.088   5.017   8.196
22279TIP3   OH266721   8.786   5.433   8.776
22279TIP3    H166722   8.696   5.415   8.807
22279TIP3    H266723   8.785   5.391   8.687
22280TIP3   OH266724   8.780   5.076   8.202
22280TIP3    H166725   8.767   5.068   8.299
22280TIP3    H266726   8.699   5.126   8.178
22281TIP3   OH266727   8.307   5.122   9.063
22281TIP3    H166728   8.384   5.142   9.121
22281TIP3    H266729   8.347   5.084   8.983
22282TIP3   OH266730   8.293   5.099   8.594
22282TIP3    H166731   8.338   5.135   8.515
22282TIP3    H266732   8.232   5.172   8.613
22283TIP3   OH266733   8.548   5.320   8.861
22283TIP3    H166734   8.456   5.323   8.827
22283TIP3    H266735   8.579   5.231   8.836
22284TIP3   OH266736   8.810   5.309   8.536
22284TIP3    H166737   8.896   5.341   8.506
22284TIP3    H266738   8.751   5.336   8.462
22285TIP3   OH266739   8.653   5.363   8.327
22285TIP3    H166740   8.583   5.316   8.278
22285TIP3    H266741   8.711   5.391   8.253
22286TIP3   OH266742   8.707   5.087   8.824
22286TIP3    H166743   8.679   5.010   8.878
22286TIP3    H266744   8.762   5.046   8.757
22287TIP3   OH266745   9.370   5.225   8.215
22287TIP3    H166746   9.277   5.192   8.213
22287TIP3    H266747   9.363   5.309   8.168
22288TIP3   OH266748   8.272   5.520   8.345
22288TIP3    H166749   8.319   5.604   8.364
22288TIP3    H266750   8.196   5.527   8.407
22289TIP3   OH266751   8.703   6.067   7.966
22289TIP3    H166752   8.718   5.977   7.933
22289TIP3    H266753   8.693   6.049   8.062
22290TIP3   OH266754   8.389   5.764   8.428
22290TIP3    H166755   8.323   5.816   8.478
22290TIP3    H266756   8.427   5.831   8.369
22291TIP3   OH266757   9.426   5.129   8.468
22291TIP3    H166758   9.410   5.162   8.376
22291TIP3    H266759   9.429   5.213   8.517
22292TIP3   OH266760   9.082   5.365   8.553
22292TIP3    H166761   9.177   5.349   8.569
22292TIP3    H266762   9.053   5.399   8.639
22293TIP3   OH266763   9.242   5.039   8.694
22293TIP3    H166764   9.284   5.088   8.765
22293TIP3    H266765   9.299   5.066   8.619
22294TIP3   OH266766   8.761   5.047   8.477
22294TIP3    H166767   8.760   5.139   8.511
22294TIP3    H266768   8.856   5.028   8.484
22295TIP3   OH266769   8.369   5.984   8.223
22295TIP3    H166770   8.448   6.032   8.254
22295TIP3    H266771   8.413   5.927   8.157
22296TIP3   OH266772   8.323   5.250   8.369
22296TIP3    H166773   8.324   5.348   8.364
22296TIP3    H266774   8.244   5.228   8.319
22297TIP3   OH266775   8.691   4.973   9.252
22297TIP3    H166776   8.687   4.950   9.157
22297TIP3    H266777   8.713   4.886   9.291
22298TIP3   OH266778   8.243   6.175   8.634
22298TIP3    H166779   8.173   6.226   8.676
22298TIP3    H266780   8.248   6.223   8.549
22299TIP3   OH266781   8.849   6.270   7.854
22299TIP3    H166782   8.794   6.199   7.895
22299TIP3    H266783   8.935   6.249   7.891
22300TIP3   OH266784   8.513   5.783   8.085
22300TIP3    H166785   8.572   5.785   8.163
22300TIP3    H266786   8.582   5.788   8.014
22301TIP3   OH266787   9.018   5.986   7.895
22301TIP3    H166788   9.006   5.991   7.992
22301TIP3    H266789   9.025   5.889   7.885
22302TIP3   OH266790   8.744   5.668   8.323
22302TIP3    H166791   8.691   5.632   8.395
22302TIP3    H266792   8.757   5.592   8.264
22303TIP3   OH266793   8.825   5.467   8.144
22303TIP3    H166794   8.796   5.482   8.051
22303TIP3    H266795   8.921   5.484   8.136
22304TIP3   OH266796   8.108   5.928   8.274
22304TIP3    H166797   8.201   5.954   8.256
22304TIP3    H266798   8.105   5.840   8.232
22305TIP3   OH266799   9.664   5.466   7.934
22305TIP3    H166800   9.643   5.480   7.841
22305TIP3    H266801   9.644   5.370   7.939
22306TIP3   OH266802   9.621   5.202   7.931
22306TIP3    H166803   9.711   5.171   7.957
22306TIP3    H266804   9.564   5.126   7.950
22307TIP3   OH266805   8.501   5.163   9.255
22307TIP3    H166806   8.557   5.082   9.260
22307TIP3    H266807   8.569   5.225   9.221
22308TIP3   OH266808   8.299   5.415   9.311
22308TIP3    H166809   8.334   5.403   9.221
22308TIP3    H266810   8.332   5.505   9.328
22309TIP3   OH266811   9.880   5.148   8.005
22309TIP3    H166812   9.931   5.079   7.958
22309TIP3    H266813   9.946   5.173   8.073
22310TIP3   OH266814   8.313   4.962   8.825
22310TIP3    H166815   8.218   4.953   8.844
22310TIP3    H266816   8.312   5.017   8.744
22311TIP3   OH266817   8.626   4.880   8.993
22311TIP3    H166818   8.534   4.847   8.995
22311TIP3    H266819   8.675   4.795   8.995
22312TIP3   OH266820   8.410   4.748   8.642
22312TIP3    H166821   8.441   4.803   8.568
22312TIP3    H266822   8.384   4.814   8.708
22313TIP3   OH266823   9.062   4.908   8.874
22313TIP3    H166824   9.121   4.953   8.812
22313TIP3    H266825   9.054   4.970   8.947
22314TIP3   OH266826   9.632   4.967   8.389
22314TIP3    H166827   9.552   5.021   8.408
22314TIP3    H266828   9.612   4.886   8.440
22315TIP3   OH266829   8.130   6.318   8.423
22315TIP3    H166830   8.050   6.274   8.390
22315TIP3    H266831   8.112   6.409   8.395
22316TIP3   OH266832   8.526   4.908   8.402
22316TIP3    H166833   8.573   4.843   8.347
22316TIP3    H266834   8.600   4.959   8.440
22317TIP3   OH266835   9.040   5.087   8.498
22317TIP3    H166836   9.097   5.045   8.565
22317TIP3    H266837   9.047   5.181   8.522
22318TIP3   OH266838   8.205   6.340   8.058
22318TIP3    H166839   8.200   6.364   8.151
22318TIP3    H266840   8.294   6.298   8.051
22319TIP3   OH266841   2.101   7.081   9.477
22319TIP3    H166842   2.108   7.173   9.446
22319TIP3    H266843   2.190   7.046   9.453
22320TIP3   OH266844   1.865   6.525   9.613
22320TIP3    H166845   1.838   6.471   9.538
22320TIP3    H266846   1.951   6.559   9.581
22321TIP3   OH266847   2.150   7.126   9.743
22321TIP3    H166848   2.062   7.105   9.780
22321TIP3    H266849   2.136   7.101   9.650
22322TIP3   OH266850   1.813   6.855   9.616
22322TIP3    H166851   1.862   6.813   9.689
22322TIP3    H266852   1.726   6.865   9.658
22323TIP3   OH266853   2.126   7.360   9.460
22323TIP3    H166854   2.131   7.411   9.376
22323TIP3    H266855   2.035   7.379   9.484
22324TIP3   OH266856   1.761   7.091   9.472
22324TIP3    H166857   1.811   7.010   9.490
22324TIP3    H266858   1.793   7.114   9.382
22325TIP3   OH266859   1.456   6.775   9.586
22325TIP3    H166860   1.444   6.783   9.682
22325TIP3    H266861   1.506   6.691   9.577
22326TIP3   OH266862   2.098   6.611   9.506
22326TIP3    H166863   2.085   6.558   9.424
22326TIP3    H266864   2.070   6.698   9.470
22327TIP3   OH266865   2.313   6.580   9.674
22327TIP3    H166866   2.232   6.589   9.619
22327TIP3    H266867   2.284   6.611   9.761
22328TIP3   OH266868   2.168   6.241   9.654
22328TIP3    H166869   2.138   6.299   9.584
22328TIP3    H266870   2.142   6.155   9.622
22329TIP3   OH266871   3.563   6.935   9.740
22329TIP3    H166872   3.533   7.025   9.714
22329TIP3    H266873   3.488   6.883   9.706
22330TIP3   OH266874   3.802   7.233   9.801
22330TIP3    H166875   3.802   7.160   9.863
22330TIP3    H266876   3.842   7.305   9.854
22331TIP3   OH266877   3.463   7.704   9.807
22331TIP3    H166878   3.498   7.618   9.778
22331TIP3    H266879   3.396   7.683   9.874
22332TIP3   OH266880   4.368   6.455  10.152
22332TIP3    H166881   4.377   6.527  10.215
22332TIP3    H266882   4.392   6.498  10.069
22333TIP3   OH266883   3.808   6.398   9.790
22333TIP3    H166884   3.881   6.389   9.855
22333TIP3    H266885   3.855   6.443   9.718
22334TIP3   OH266886   3.455   7.153   9.607
22334TIP3    H166887   3.411   7.133   9.523
22334TIP3    H266888   3.410   7.237   9.632
22335TIP3   OH266889   4.022   6.413   9.961
22335TIP3    H166890   4.021   6.388  10.055
22335TIP3    H266891   4.075   6.494   9.967
22336TIP3   OH266892   2.443   6.935   9.718
22336TIP3    H166893   2.381   6.974   9.655
22336TIP3    H266894   2.467   7.011   9.775
22337TIP3   OH266895   3.870   7.452   9.977
22337TIP3    H166896   3.778   7.453  10.009
22337TIP3    H266897   3.873   7.535   9.923
22338TIP3   OH266898   3.582   7.513   9.644
22338TIP3    H166899   3.634   7.432   9.620
22338TIP3    H266900   3.643   7.581   9.608
22339TIP3   OH266901   3.725   7.302   9.545
22339TIP3    H166902   3.684   7.223   9.507
22339TIP3    H266903   3.756   7.268   9.632
22340TIP3   OH266904   3.395   6.785   9.569
22340TIP3    H166905   3.313   6.835   9.548
22340TIP3    H266906   3.439   6.781   9.482
22341TIP3   OH266907   3.354   6.567   9.285
22341TIP3    H166908   3.422   6.618   9.333
22341TIP3    H266909   3.410   6.503   9.238
22342TIP3   OH266910   4.300   7.002  10.124
22342TIP3    H166911   4.227   7.054  10.162
22342TIP3    H266912   4.326   7.058  10.049
22343TIP3   OH266913   3.741   6.865   9.543
22343TIP3    H166914   3.687   6.890   9.621
22343TIP3    H266915   3.825   6.839   9.587
22344TIP3   OH266916   2.967   6.856   9.946
22344TIP3    H166917   2.917   6.804   9.879
22344TIP3    H266918   3.034   6.793   9.974
22345TIP3   OH266919   3.070   7.293  10.049
22345TIP3    H166920   3.083   7.212   9.997
22345TIP3    H266921   3.136   7.279  10.122
22346TIP3   OH266922   3.621   7.449  10.101
22346TIP3    H166923   3.527   7.469  10.089
22346TIP3    H266924   3.619   7.366  10.151
22347TIP3   OH266925   3.583   6.722   9.368
22347TIP3    H166926   3.641   6.783   9.419
22347TIP3    H266927   3.609   6.745   9.275
22348TIP3   OH266928   3.326   7.406   9.647
22348TIP3    H166929   3.408   7.456   9.655
22348TIP3    H266930   3.267   7.466   9.600
22349TIP3   OH266931   4.099   5.964   9.416
22349TIP3    H166932   4.017   5.985   9.466
22349TIP3    H266933   4.112   6.047   9.366
22350TIP3   OH266934   2.841   6.700   9.759
22350TIP3    H166935   2.774   6.742   9.701
22350TIP3    H266936   2.788   6.632   9.802
22351TIP3   OH266937   3.896   7.331   8.963
22351TIP3    H166938   3.904   7.428   8.949
22351TIP3    H266939   3.989   7.302   8.951
22352TIP3   OH266940   3.201   7.649   9.440
22352TIP3    H166941   3.164   7.621   9.354
22352TIP3    H266942   3.153   7.732   9.455
22353TIP3   OH266943   3.408   7.551   9.084
22353TIP3    H166944   3.467   7.481   9.048
22353TIP3    H266945   3.442   7.558   9.176
22354TIP3   OH266946   3.458   7.598   9.356
22354TIP3    H166947   3.369   7.608   9.398
22354TIP3    H266948   3.509   7.559   9.428
22355TIP3   OH266949   3.659   6.769   9.112
22355TIP3    H166950   3.624   6.744   9.025
22355TIP3    H266951   3.739   6.818   9.086
22356TIP3   OH266952   3.374   6.143   9.413
22356TIP3    H166953   3.339   6.139   9.504
22356TIP3    H266954   3.330   6.064   9.375
22357TIP3   OH266955   3.531   6.586   9.699
22357TIP3    H166956   3.479   6.658   9.657
22357TIP3    H266957   3.587   6.556   9.625
22358TIP3   OH266958   3.704   6.625   9.926
22358TIP3    H166959   3.630   6.643   9.866
22358TIP3    H266960   3.726   6.534   9.898
22359TIP3   OH266961   3.027   6.119   9.384
22359TIP3    H166962   3.013   6.110   9.480
22359TIP3    H266963   2.946   6.166   9.359
22360TIP3   OH266964   2.552   6.153   9.774
22360TIP3    H166965   2.587   6.192   9.691
22360TIP3    H266966   2.531   6.231   9.827
22361TIP3   OH266967   3.084   6.359   9.718
22361TIP3    H166968   3.166   6.401   9.690
22361TIP3    H266969   3.019   6.391   9.652
22362TIP3   OH266970   2.910   6.412   9.515
22362TIP3    H166971   2.836   6.364   9.474
22362TIP3    H266972   2.960   6.440   9.435
22363TIP3   OH266973   3.164   6.937   9.521
22363TIP3    H166974   3.093   6.869   9.510
22363TIP3    H266975   3.151   6.963   9.616
22364TIP3   OH266976   4.060   7.165  10.165
22364TIP3    H166977   4.097   7.223  10.094
22364TIP3    H266978   3.984   7.125  10.118
22365TIP3   OH266979   3.624   6.247   9.382
22365TIP3    H166980   3.527   6.228   9.389
22365TIP3    H266981   3.631   6.341   9.405
22366TIP3   OH266982   3.692   6.495   9.486
22366TIP3    H166983   3.788   6.502   9.500
22366TIP3    H266984   3.673   6.574   9.432
22367TIP3   OH266985   3.310   7.085   9.342
22367TIP3    H166986   3.263   7.171   9.346
22367TIP3    H266987   3.254   7.030   9.401
22368TIP3   OH266988   4.136   6.585   9.319
22368TIP3    H166989   4.073   6.540   9.257
22368TIP3    H266990   4.132   6.674   9.280
22369TIP3   OH266991   3.836   7.404   9.229
22369TIP3    H166992   3.808   7.334   9.290
22369TIP3    H266993   3.846   7.356   9.144
22370TIP3   OH266994   3.832   7.033  10.070
22370TIP3    H166995   3.741   7.001  10.068
22370TIP3    H266996   3.876   6.958  10.024
22371TIP3   OH266997   2.957   7.230   9.764
22371TIP3    H166998   2.960   7.317   9.721
22371TIP3    H266999   2.880   7.238   9.822
22372TIP3   OH267000   2.529   6.568   9.515
22372TIP3    H167001   2.578   6.649   9.540
22372TIP3    H267002   2.452   6.574   9.576
22373TIP3   OH267003   3.119   7.014   9.780
22373TIP3    H167004   3.072   7.099   9.769
22373TIP3    H267005   3.058   6.966   9.839
22374TIP3   OH267006   2.898   7.491   9.659
22374TIP3    H167007   2.829   7.511   9.726
22374TIP3    H267008   2.950   7.573   9.662
22375TIP3   OH267009   3.590   7.132   9.130
22375TIP3    H167010   3.642   7.106   9.209
22375TIP3    H267011   3.501   7.104   9.157
22376TIP3   OH267012   3.930   7.606   8.950
22376TIP3    H167013   3.968   7.679   8.898
22376TIP3    H267014   3.849   7.652   8.982
22377TIP3   OH267015   3.749   7.064   9.347
22377TIP3    H167016   3.740   6.998   9.418
22377TIP3    H267017   3.847   7.063   9.334
22378TIP3   OH267018   2.957   7.112   9.130
22378TIP3    H167019   2.968   7.019   9.100
22378TIP3    H267020   2.936   7.099   9.224
22379TIP3   OH267021   2.900   7.114   9.401
22379TIP3    H167022   2.969   7.088   9.463
22379TIP3    H267023   2.904   7.213   9.406
22380TIP3   OH267024   2.647   6.808   9.598
22380TIP3    H167025   2.574   6.842   9.656
22380TIP3    H267026   2.654   6.882   9.535
22381TIP3   OH267027   3.673   6.194   9.658
22381TIP3    H167028   3.653   6.219   9.566
22381TIP3    H267029   3.709   6.277   9.695
22382TIP3   OH267030   3.170   7.316   9.352
22382TIP3    H167031   3.080   7.338   9.382
22382TIP3    H267032   3.183   7.384   9.285
22383TIP3   OH267033   3.378   6.366   9.747
22383TIP3    H167034   3.437   6.442   9.728
22383TIP3    H267035   3.346   6.389   9.837
22384TIP3   OH267036   3.508   6.103   9.856
22384TIP3    H167037   3.504   6.173   9.922
22384TIP3    H267038   3.563   6.146   9.786
22385TIP3   OH267039   2.910   7.386   9.406
22385TIP3    H167040   2.881   7.457   9.345
22385TIP3    H267041   2.897   7.429   9.493
22386TIP3   OH267042   3.023   6.098   9.666
22386TIP3    H167043   3.016   6.191   9.696
22386TIP3    H267044   3.120   6.089   9.667
22387TIP3   OH267045   3.914   6.801   9.943
22387TIP3    H167046   3.838   6.738   9.951
22387TIP3    H267047   3.985   6.750   9.988
22388TIP3   OH267048   2.626   7.021   9.410
22388TIP3    H167049   2.697   7.088   9.418
22388TIP3    H267050   2.668   6.963   9.343
22389TIP3   OH267051   2.581   6.299   9.537
22389TIP3    H167052   2.573   6.397   9.533
22389TIP3    H267053   2.493   6.270   9.512
22390TIP3   OH267054   3.890   7.694   9.856
22390TIP3    H167055   3.846   7.758   9.797
22390TIP3    H267056   3.983   7.725   9.852
22391TIP3   OH267057   2.509   7.187   9.810
22391TIP3    H167058   2.426   7.215   9.849
22391TIP3    H267059   2.496   7.201   9.716
22392TIP3   OH267060   3.120   7.315   9.043
22392TIP3    H167061   3.063   7.244   9.080
22392TIP3    H267062   3.194   7.263   9.008
22393TIP3   OH267063   3.555   7.357   8.954
22393TIP3    H167064   3.599   7.292   9.012
22393TIP3    H267065   3.611   7.356   8.874
22394TIP3   OH267066   2.761   6.835   9.262
22394TIP3    H167067   2.813   6.798   9.335
22394TIP3    H267068   2.830   6.839   9.192
22395TIP3   OH267069   3.276   7.032   9.071
22395TIP3    H167070   3.276   7.044   9.168
22395TIP3    H267071   3.274   6.934   9.064
22396TIP3   OH267072   2.979   6.735   9.491
22396TIP3    H167073   2.938   6.693   9.569
22396TIP3    H267074   3.009   6.657   9.439
22397TIP3   OH267075   3.072   6.530   9.324
22397TIP3    H167076   3.045   6.534   9.230
22397TIP3    H267077   3.169   6.535   9.316
22398TIP3   OH267078   3.896   6.861   8.989
22398TIP3    H167079   3.873   6.815   8.905
22398TIP3    H267080   3.863   6.951   8.966
22399TIP3   OH267081   2.881   7.594   9.230
22399TIP3    H167082   2.976   7.593   9.213
22399TIP3    H267083   2.851   7.643   9.151
22400TIP3   OH267084   2.351   6.979   9.434
22400TIP3    H167085   2.448   6.999   9.432
22400TIP3    H267086   2.351   6.887   9.401
22401TIP3   OH267087   4.127   7.838   9.856
22401TIP3    H167088   4.190   7.883   9.914
22401TIP3    H267089   4.142   7.887   9.774
22402TIP3   OH267090   4.030   7.047   9.322
22402TIP3    H167091   4.097   7.112   9.294
22402TIP3    H267092   4.073   7.008   9.402
22403TIP3   OH267093   4.157   6.913   9.526
22403TIP3    H167094   4.090   6.872   9.585
22403TIP3    H267095   4.218   6.955   9.591
22404TIP3   OH267096   4.185   7.293   9.954
22404TIP3    H167097   4.260   7.239   9.922
22404TIP3    H267098   4.191   7.371   9.897
22405TIP3   OH267099   4.054   7.616  10.130
22405TIP3    H167100   3.977   7.642  10.182
22405TIP3    H267101   4.016   7.551  10.069
22406TIP3   OH267102   4.095   6.823   9.172
22406TIP3    H167103   4.024   6.825   9.104
22406TIP3    H267104   4.067   6.899   9.227
22407TIP3   OH267105   3.968   6.495   9.126
22407TIP3    H167106   3.922   6.535   9.051
22407TIP3    H267107   3.942   6.401   9.116
22408TIP3   OH267108   3.971   6.773   9.674
22408TIP3    H167109   3.976   6.676   9.668
22408TIP3    H267110   3.955   6.787   9.770
22409TIP3   OH267111   3.910   6.229   9.112
22409TIP3    H167112   3.981   6.197   9.170
22409TIP3    H267113   3.834   6.172   9.135
22410TIP3   OH267114   3.967   6.489   9.567
22410TIP3    H167115   4.007   6.400   9.582
22410TIP3    H267116   4.025   6.521   9.496
22411TIP3   OH267117   4.129   6.667  10.049
22411TIP3    H167118   4.220   6.691  10.020
22411TIP3    H267119   4.132   6.695  10.141
22412TIP3   OH267120   4.077   6.239   9.602
22412TIP3    H167121   4.125   6.223   9.686
22412TIP3    H267122   4.015   6.163   9.601
22413TIP3   OH267123   4.158   6.171   9.239
22413TIP3    H167124   4.195   6.100   9.183
22413TIP3    H267125   4.224   6.243   9.229
22414TIP3   OH267126   3.727   7.696   9.505
22414TIP3    H167127   3.775   7.681   9.421
22414TIP3    H267128   3.769   7.777   9.537
22415TIP3   OH267129   4.153   6.118  10.057
22415TIP3    H167130   4.191   6.159   9.977
22415TIP3    H267131   4.058   6.129  10.039
22416TIP3   OH267132   4.244   6.194   9.815
22416TIP3    H167133   4.320   6.146   9.775
22416TIP3    H267134   4.274   6.287   9.805
22417TIP3   OH267135   3.881   6.102   9.993
22417TIP3    H167136   3.861   6.099   9.899
22417TIP3    H267137   3.890   6.008  10.015
22418TIP3   OH267138   3.895   6.027   9.595
22418TIP3    H167139   3.807   6.069   9.606
22418TIP3    H267140   3.880   5.940   9.637
22419TIP3   OH267141   2.373   7.319   9.599
22419TIP3    H167142   2.291   7.299   9.552
22419TIP3    H267143   2.390   7.409   9.564
22420TIP3   OH267144   2.778   5.979   9.545
22420TIP3    H167145   2.824   5.897   9.529
22420TIP3    H267146   2.824   6.011   9.624
22421TIP3   OH267147   3.298   6.118   9.679
22421TIP3    H167148   3.368   6.089   9.740
22421TIP3    H267149   3.305   6.215   9.694
22422TIP3   OH267150   3.150   7.550   9.181
22422TIP3    H167151   3.236   7.574   9.142
22422TIP3    H267152   3.125   7.477   9.120
22423TIP3   OH267153   3.868   7.670   9.270
22423TIP3    H167154   3.860   7.573   9.257
22423TIP3    H267155   3.823   7.703   9.189
22424TIP3   OH267156   2.449   7.380   9.234
22424TIP3    H167157   2.461   7.448   9.302
22424TIP3    H267158   2.539   7.342   9.225
22425TIP3   OH267159   5.358   7.183   9.226
22425TIP3    H167160   5.336   7.277   9.210
22425TIP3    H267161   5.278   7.141   9.190
22426TIP3   OH267162   5.355   7.189   9.605
22426TIP3    H167163   5.380   7.166   9.697
22426TIP3    H267164   5.313   7.108   9.574
22427TIP3   OH267165   4.662   7.079   9.964
22427TIP3    H167166   4.661   7.063  10.059
22427TIP3    H267167   4.739   7.135   9.951
22428TIP3   OH267168   5.597   7.478   9.284
22428TIP3    H167169   5.595   7.419   9.360
22428TIP3    H267170   5.629   7.561   9.327
22429TIP3   OH267171   4.632   7.494   9.706
22429TIP3    H167172   4.624   7.396   9.705
22429TIP3    H267173   4.726   7.503   9.684
22430TIP3   OH267174   4.339   6.698   9.481
22430TIP3    H167175   4.288   6.779   9.497
22430TIP3    H267176   4.269   6.641   9.444
22431TIP3   OH267177   4.397   6.984   9.652
22431TIP3    H167178   4.445   6.907   9.689
22431TIP3    H267179   4.452   7.008   9.577
22432TIP3   OH267180   5.255   7.951   9.305
22432TIP3    H167181   5.299   7.881   9.253
22432TIP3    H267182   5.246   7.909   9.391
22433TIP3   OH267183   5.158   7.409   9.661
22433TIP3    H167184   5.198   7.336   9.610
22433TIP3    H267185   5.240   7.456   9.685
22434TIP3   OH267186   6.171   6.748   9.656
22434TIP3    H167187   6.166   6.842   9.676
22434TIP3    H267188   6.199   6.751   9.563
22435TIP3   OH267189   5.565   6.916   9.687
22435TIP3    H167190   5.612   6.831   9.705
22435TIP3    H267191   5.540   6.902   9.594
22436TIP3   OH267192   4.911   6.573   9.647
22436TIP3    H167193   4.883   6.646   9.588
22436TIP3    H267194   4.862   6.498   9.606
22437TIP3   OH267195   5.600   6.665   9.277
22437TIP3    H167196   5.672   6.651   9.343
22437TIP3    H267197   5.654   6.699   9.202
22438TIP3   OH267198   4.543   6.780   9.758
22438TIP3    H167199   4.622   6.755   9.808
22438TIP3    H267200   4.551   6.719   9.682
22439TIP3   OH267201   4.984   6.971   9.547
22439TIP3    H167202   5.075   6.940   9.560
22439TIP3    H267203   4.939   6.890   9.517
22440TIP3   OH267204   4.908   6.555  10.089
22440TIP3    H167205   4.845   6.593  10.025
22440TIP3    H267206   4.853   6.544  10.168
22441TIP3   OH267207   5.254   7.409   9.090
22441TIP3    H167208   5.207   7.391   9.008
22441TIP3    H267209   5.210   7.491   9.120
22442TIP3   OH267210   4.989   7.333   9.880
22442TIP3    H167211   4.944   7.413   9.910
22442TIP3    H267212   5.055   7.369   9.817
22443TIP3   OH267213   5.811   6.670   9.446
22443TIP3    H167214   5.819   6.619   9.528
22443TIP3    H267215   5.862   6.750   9.470
22444TIP3   OH267216   4.778   6.671   9.871
22444TIP3    H167217   4.842   6.743   9.890
22444TIP3    H267218   4.824   6.627   9.796
22445TIP3   OH267219   4.234   7.216   9.215
22445TIP3    H167220   4.191   7.242   9.132
22445TIP3    H267221   4.263   7.302   9.251
22446TIP3   OH267222   5.659   7.700   9.425
22446TIP3    H167223   5.580   7.703   9.483
22446TIP3    H267224   5.665   7.794   9.401
22447TIP3   OH267225   5.956   6.621   9.794
22447TIP3    H167226   5.883   6.681   9.777
22447TIP3    H267227   6.030   6.664   9.748
22448TIP3   OH267228   5.371   7.779   9.122
22448TIP3    H167229   5.424   7.697   9.107
22448TIP3    H267230   5.435   7.845   9.087
22449TIP3   OH267231   5.518   7.561   9.036
22449TIP3    H167232   5.464   7.485   9.010
22449TIP3    H267233   5.556   7.529   9.121
22450TIP3   OH267234   5.188   7.036   9.055
22450TIP3    H167235   5.107   7.090   9.037
22450TIP3    H267236   5.233   7.040   8.969
22451TIP3   OH267237   5.148   6.823   8.776
22451TIP3    H167238   5.215   6.875   8.823
22451TIP3    H267239   5.205   6.759   8.729
22452TIP3   OH267240   6.090   7.252   9.629
22452TIP3    H167241   6.017   7.316   9.642
22452TIP3    H267242   6.135   7.293   9.552
22453TIP3   OH267243   5.538   7.120   9.030
22453TIP3    H167244   5.483   7.146   9.108
22453TIP3    H267245   5.622   7.097   9.075
22454TIP3   OH267246   4.768   7.118   9.445
22454TIP3    H167247   4.726   7.061   9.376
22454TIP3    H267248   4.846   7.066   9.471
22455TIP3   OH267249   4.892   7.519   9.597
22455TIP3    H167250   4.878   7.489   9.506
22455TIP3    H267251   4.984   7.491   9.615
22456TIP3   OH267252   4.919   7.084   9.799
22456TIP3    H167253   4.942   7.074   9.705
22456TIP3    H267254   4.949   7.175   9.819
22457TIP3   OH267255   5.434   7.718   9.574
22457TIP3    H167256   5.402   7.801   9.615
22457TIP3    H267257   5.411   7.651   9.640
22458TIP3   OH267258   5.382   6.978   8.854
22458TIP3    H167259   5.437   7.041   8.907
22458TIP3    H267260   5.411   6.999   8.763
22459TIP3   OH267261   5.121   7.657   9.133
22459TIP3    H167262   5.202   7.711   9.142
22459TIP3    H267263   5.060   7.719   9.091
22460TIP3   OH267264   5.894   6.222   8.900
22460TIP3    H167265   5.813   6.239   8.953
22460TIP3    H267266   5.904   6.306   8.851
22461TIP3   OH267267   4.636   6.960   9.249
22461TIP3    H167268   4.572   7.009   9.193
22461TIP3    H267269   4.589   6.877   9.262
22462TIP3   OH267270   5.692   7.587   8.450
22462TIP3    H167271   5.699   7.684   8.436
22462TIP3    H267272   5.786   7.560   8.440
22463TIP3   OH267273   4.267   7.533   9.794
22463TIP3    H167274   4.361   7.533   9.771
22463TIP3    H267275   4.254   7.616   9.843
22464TIP3   OH267276   5.004   7.905   8.932
22464TIP3    H167277   4.957   7.887   8.848
22464TIP3    H267278   4.970   7.993   8.957
22465TIP3   OH267279   4.440   7.754   9.314
22465TIP3    H167280   4.488   7.746   9.400
22465TIP3    H267281   4.382   7.676   9.320
22466TIP3   OH267282   5.204   7.806   8.572
22466TIP3    H167283   5.262   7.737   8.535
22466TIP3    H267284   5.239   7.815   8.663
22467TIP3   OH267285   5.255   7.853   8.843
22467TIP3    H167286   5.166   7.863   8.883
22467TIP3    H267287   5.304   7.815   8.918
22468TIP3   OH267288   5.019   6.365   9.907
22468TIP3    H167289   4.929   6.328   9.894
22468TIP3    H267290   4.998   6.440   9.965
22469TIP3   OH267291   5.473   7.001   8.597
22469TIP3    H167292   5.425   6.993   8.512
22469TIP3    H267293   5.528   7.079   8.579
22470TIP3   OH267294   5.168   6.399   8.901
22470TIP3    H167295   5.129   6.396   8.990
22470TIP3    H267296   5.128   6.318   8.863
22471TIP3   OH267297   4.958   6.865   9.947
22471TIP3    H167298   4.916   6.897  10.027
22471TIP3    H267299   4.945   6.943   9.887
22472TIP3   OH267300   4.838   6.753   9.460
22472TIP3    H167301   4.744   6.731   9.478
22472TIP3    H267302   4.847   6.715   9.370
22473TIP3   OH267303   5.323   6.836   9.186
22473TIP3    H167304   5.273   6.911   9.146
22473TIP3    H267305   5.381   6.810   9.113
22474TIP3   OH267306   5.478   6.868   9.431
22474TIP3    H167307   5.424   6.903   9.357
22474TIP3    H267308   5.515   6.789   9.387
22475TIP3   OH267309   4.824   6.376   8.869
22475TIP3    H167310   4.809   6.371   8.965
22475TIP3    H267311   4.745   6.426   8.840
22476TIP3   OH267312   4.361   6.422   9.732
22476TIP3    H167313   4.437   6.451   9.788
22476TIP3    H267314   4.403   6.384   9.654
22477TIP3   OH267315   4.341   6.402   9.258
22477TIP3    H167316   4.382   6.441   9.177
22477TIP3    H267317   4.277   6.473   9.278
22478TIP3   OH267318   5.454   7.103   9.848
22478TIP3    H167319   5.510   7.042   9.795
22478TIP3    H267320   5.508   7.118   9.926
22479TIP3   OH267321   5.174   6.537   9.574
22479TIP3    H167322   5.078   6.545   9.596
22479TIP3    H267323   5.203   6.625   9.602
22480TIP3   OH267324   4.598   6.633   9.528
22480TIP3    H167325   4.503   6.648   9.505
22480TIP3    H267326   4.608   6.538   9.509
22481TIP3   OH267327   4.871   6.630   9.217
22481TIP3    H167328   4.960   6.647   9.184
22481TIP3    H267329   4.815   6.650   9.138
22482TIP3   OH267330   5.653   6.658   9.715
22482TIP3    H167331   5.628   6.653   9.810
22482TIP3    H267332   5.641   6.568   9.684
22483TIP3   OH267333   4.712   6.658   9.001
22483TIP3    H167334   4.638   6.615   8.954
22483TIP3    H267335   4.762   6.695   8.925
22484TIP3   OH267336   5.245   6.869   9.606
22484TIP3    H167337   5.332   6.873   9.564
22484TIP3    H267338   5.268   6.862   9.701
22485TIP3   OH267339   4.790   6.380   9.498
22485TIP3    H167340   4.741   6.309   9.545
22485TIP3    H267341   4.788   6.349   9.406
22486TIP3   OH267342   5.221   6.785   9.901
22486TIP3    H167343   5.129   6.817   9.912
22486TIP3    H267344   5.272   6.849   9.953
22487TIP3   OH267345   4.962   7.191   9.007
22487TIP3    H167346   4.889   7.127   8.994
22487TIP3    H267347   4.942   7.226   9.097
22488TIP3   OH267348   5.868   7.414   9.636
22488TIP3    H167349   5.893   7.466   9.557
22488TIP3    H267350   5.778   7.384   9.612
22489TIP3   OH267351   5.420   6.501   8.872
22489TIP3    H167352   5.323   6.483   8.877
22489TIP3    H267353   5.427   6.596   8.894
22490TIP3   OH267354   5.488   6.751   8.971
22490TIP3    H167355   5.583   6.759   8.991
22490TIP3    H267356   5.468   6.834   8.923
22491TIP3   OH267357   4.660   7.218   9.683
22491TIP3    H167358   4.692   7.188   9.596
22491TIP3    H267359   4.684   7.143   9.740
22492TIP3   OH267360   5.107   7.341   8.829
22492TIP3    H167361   5.059   7.428   8.832
22492TIP3    H267362   5.051   7.287   8.888
22493TIP3   OH267363   5.926   6.837   8.828
22493TIP3    H167364   5.910   6.767   8.763
22493TIP3    H267365   5.918   6.919   8.773
22494TIP3   OH267366   5.631   7.661   8.715
22494TIP3    H167367   5.604   7.592   8.777
22494TIP3    H267368   5.644   7.613   8.631
22495TIP3   OH267369   5.615   7.294   9.552
22495TIP3    H167370   5.523   7.262   9.560
22495TIP3    H267371   5.658   7.218   9.510
22496TIP3   OH267372   4.755   7.517   9.306
22496TIP3    H167373   4.756   7.599   9.254
22496TIP3    H267374   4.660   7.503   9.315
22497TIP3   OH267375   4.319   6.821   9.012
22497TIP3    H167376   4.362   6.907   9.030
22497TIP3    H267377   4.241   6.827   9.070
22498TIP3   OH267378   4.892   7.283   9.252
22498TIP3    H167379   4.858   7.373   9.267
22498TIP3    H267380   4.853   7.234   9.326
22499TIP3   OH267381   5.023   7.854   9.760
22499TIP3    H167382   5.055   7.932   9.710
22499TIP3    H267383   5.094   7.840   9.823
22500TIP3   OH267384   4.675   7.755   9.159
22500TIP3    H167385   4.588   7.765   9.204
22500TIP3    H267386   4.707   7.848   9.161
22501TIP3   OH267387   5.415   7.494   9.741
22501TIP3    H167388   5.449   7.497   9.831
22501TIP3    H267389   5.488   7.453   9.694
22502TIP3   OH267390   5.384   7.378   8.616
22502TIP3    H167391   5.435   7.357   8.697
22502TIP3    H267392   5.293   7.364   8.646
22503TIP3   OH267393   5.727   7.863   8.438
22503TIP3    H167394   5.769   7.936   8.389
22503TIP3    H267395   5.646   7.909   8.467
22504TIP3   OH267396   5.546   7.311   8.828
22504TIP3    H167397   5.538   7.254   8.907
22504TIP3    H267398   5.643   7.316   8.819
22505TIP3   OH267399   4.469   7.750   9.954
22505TIP3    H167400   4.479   7.656   9.933
22505TIP3    H267401   4.548   7.766  10.006
22506TIP3   OH267402   4.755   7.368   8.616
22506TIP3    H167403   4.765   7.276   8.587
22506TIP3    H267404   4.734   7.357   8.711
22507TIP3   OH267405   4.699   7.374   8.888
22507TIP3    H167406   4.769   7.350   8.950
22507TIP3    H267407   4.700   7.472   8.893
22508TIP3   OH267408   4.435   7.069   9.093
22508TIP3    H167409   4.367   7.113   9.149
22508TIP3    H267410   4.446   7.137   9.024
22509TIP3   OH267411   5.586   6.676   9.982
22509TIP3    H167412   5.645   6.745  10.014
22509TIP3    H267413   5.549   6.641  10.063
22510TIP3   OH267414   5.454   6.454   9.155
22510TIP3    H167415   5.444   6.473   9.060
22510TIP3    H267416   5.498   6.535   9.187
22511TIP3   OH267417   4.964   7.571   8.838
22511TIP3    H167418   4.877   7.597   8.873
22511TIP3    H267419   4.980   7.643   8.775
22512TIP3   OH267420   5.166   6.626   9.261
22512TIP3    H167421   5.222   6.699   9.224
22512TIP3    H267422   5.152   6.658   9.350
22513TIP3   OH267423   5.305   6.372   9.377
22513TIP3    H167424   5.271   6.461   9.396
22513TIP3    H267425   5.365   6.394   9.302
22514TIP3   OH267426   4.707   7.646   8.905
22514TIP3    H167427   4.677   7.715   8.842
22514TIP3    H267428   4.691   7.690   8.991
22515TIP3   OH267429   4.806   6.360   9.149
22515TIP3    H167430   4.805   6.454   9.176
22515TIP3    H267431   4.902   6.342   9.153
22516TIP3   OH267432   5.711   7.048   9.425
22516TIP3    H167433   5.638   6.987   9.444
22516TIP3    H267434   5.787   7.005   9.471
22517TIP3   OH267435   4.424   7.275   8.899
22517TIP3    H167436   4.486   7.349   8.906
22517TIP3    H267437   4.470   7.222   8.830
22518TIP3   OH267438   4.369   6.552   9.031
22518TIP3    H167439   4.367   6.650   9.028
22518TIP3    H267440   4.287   6.529   8.986
22519TIP3   OH267441   5.646   7.972   9.365
22519TIP3    H167442   5.616   8.033   9.295
22519TIP3    H267443   5.737   8.003   9.379
22520TIP3   OH267444   4.759   6.276   9.900
22520TIP3    H167445   4.723   6.240   9.817
22520TIP3    H267446   4.750   6.198   9.960
22521TIP3   OH267447   4.295   7.489   9.285
22521TIP3    H167448   4.223   7.520   9.342
22521TIP3    H267449   4.270   7.530   9.200
22522TIP3   OH267450   4.916   7.573   8.529
22522TIP3    H167451   4.860   7.501   8.566
22522TIP3    H267452   4.990   7.522   8.492
22523TIP3   OH267453   5.351   7.614   8.440
22523TIP3    H167454   5.405   7.556   8.496
22523TIP3    H267455   5.402   7.616   8.357
22524TIP3   OH267456   4.560   7.090   8.749
22524TIP3    H167457   4.615   7.058   8.822
22524TIP3    H267458   4.626   7.095   8.677
22525TIP3   OH267459   5.073   7.289   8.558
22525TIP3    H167460   5.072   7.302   8.655
22525TIP3    H267461   5.069   7.191   8.553
22526TIP3   OH267462   4.771   6.993   8.974
22526TIP3    H167463   4.738   6.951   9.055
22526TIP3    H267464   4.804   6.916   8.922
22527TIP3   OH267465   4.867   6.785   8.813
22527TIP3    H167466   4.840   6.790   8.719
22527TIP3    H267467   4.965   6.792   8.804
22528TIP3   OH267468   5.699   7.115   8.466
22528TIP3    H167469   5.672   7.078   8.380
22528TIP3    H267470   5.667   7.207   8.453
22529TIP3   OH267471   5.174   6.619  10.136
22529TIP3    H167472   5.193   6.656  10.048
22529TIP3    H267473   5.079   6.595  10.127
22530TIP3   OH267474   4.676   7.847   8.717
22530TIP3    H167475   4.771   7.844   8.698
22530TIP3    H267476   4.645   7.897   8.639
22531TIP3   OH267477   4.155   7.230   8.935
22531TIP3    H167478   4.250   7.252   8.920
22531TIP3    H267479   4.149   7.142   8.892
22532TIP3   OH267480   4.070   7.843   9.348
22532TIP3    H167481   4.003   7.782   9.310
22532TIP3    H267482   4.114   7.785   9.413
22533TIP3   OH267483   4.205   7.693   9.534
22533TIP3    H167484   4.192   7.620   9.595
22533TIP3    H267485   4.261   7.753   9.587
22534TIP3   OH267486   5.830   7.296   8.805
22534TIP3    H167487   5.893   7.365   8.776
22534TIP3    H267488   5.874   7.264   8.887
22535TIP3   OH267489   5.957   7.173   9.019
22535TIP3    H167490   5.885   7.130   9.071
22535TIP3    H267491   5.999   7.229   9.086
22536TIP3   OH267492   5.972   7.543   9.423
22536TIP3    H167493   6.065   7.524   9.412
22536TIP3    H267494   5.967   7.639   9.409
22537TIP3   OH267495   5.878   7.060   8.663
22537TIP3    H167496   5.817   7.080   8.588
22537TIP3    H267497   5.861   7.139   8.718
22538TIP3   OH267498   5.768   7.029   9.159
22538TIP3    H167499   5.778   6.933   9.159
22538TIP3    H267500   5.753   7.048   9.254
22539TIP3   OH267501   4.396   7.119   9.894
22539TIP3    H167502   4.388   7.080   9.805
22539TIP3    H267503   4.491   7.106   9.912
22540TIP3   OH267504   5.705   6.547   8.614
22540TIP3    H167505   5.784   6.500   8.649
22540TIP3    H267506   5.638   6.476   8.621
22541TIP3   OH267507   5.761   6.743   9.055
22541TIP3    H167508   5.801   6.654   9.069
22541TIP3    H267509   5.826   6.782   8.994
22542TIP3   OH267510   5.922   6.913   9.538
22542TIP3    H167511   6.011   6.939   9.503
22542TIP3    H267512   5.927   6.957   9.626
22543TIP3   OH267513   5.964   7.056   9.767
22543TIP3    H167514   5.950   7.098   9.853
22543TIP3    H267515   6.012   7.128   9.720
22544TIP3   OH267516   5.872   6.495   9.090
22544TIP3    H167517   5.922   6.481   9.173
22544TIP3    H267518   5.813   6.416   9.091
22545TIP3   OH267519   4.573   6.480   9.895
22545TIP3    H167520   4.633   6.405   9.915
22545TIP3    H267521   4.634   6.555   9.902
22546TIP3   OH267522   4.382   6.748   9.992
22546TIP3    H167523   4.429   6.764   9.908
22546TIP3    H267524   4.379   6.836  10.034
22547TIP3   OH267525   5.949   6.438   8.711
22547TIP3    H167526   5.988   6.358   8.670
22547TIP3    H267527   6.028   6.496   8.718
22548TIP3   OH267528   4.360   6.260   9.486
22548TIP3    H167529   4.266   6.254   9.513
22548TIP3    H267530   4.354   6.317   9.407
22549TIP3   OH267531   5.522   7.965   8.995
22549TIP3    H167532   5.563   7.945   8.908
22549TIP3    H267533   5.583   8.032   9.027
22550TIP3   OH267534   4.676   8.002   9.793
22550TIP3    H167535   4.640   8.071   9.849
22550TIP3    H267536   4.693   8.049   9.710
22551TIP3   OH267537   5.109   8.065   9.610
22551TIP3    H167538   5.045   8.079   9.537
22551TIP3    H267539   5.112   8.154   9.649
22552TIP3   OH267540   5.354   7.958   9.669
22552TIP3    H167541   5.268   7.996   9.645
22552TIP3    H267542   5.414   8.032   9.652
22553TIP3   OH267543   4.382   7.838   9.692
22553TIP3    H167544   4.416   7.829   9.783
22553TIP3    H267545   4.460   7.807   9.641
22554TIP3   OH267546   4.579   7.719   9.547
22554TIP3    H167547   4.599   7.638   9.598
22554TIP3    H267548   4.667   7.763   9.545
22555TIP3   OH267549   4.841   7.816   9.551
22555TIP3    H167550   4.880   7.727   9.540
22555TIP3    H267551   4.877   7.839   9.638
22556TIP3   OH267552   5.947   6.344   9.538
22556TIP3    H167553   5.982   6.400   9.466
22556TIP3    H267554   5.854   6.371   9.542
22557TIP3   OH267555   6.038   6.456   9.305
22557TIP3    H167556   6.111   6.401   9.269
22557TIP3    H267557   6.074   6.546   9.291
22558TIP3   OH267558   4.668   6.180   9.650
22558TIP3    H167559   4.575   6.148   9.654
22558TIP3    H267560   4.715   6.093   9.652
22559TIP3   OH267561   4.461   6.050   9.306
22559TIP3    H167562   4.484   6.106   9.231
22559TIP3    H267563   4.427   6.114   9.371
22560TIP3   OH267564   5.664   6.365   9.529
22560TIP3    H167565   5.666   6.329   9.440
22560TIP3    H267566   5.644   6.284   9.582
22561TIP3   OH267567   5.690   6.280   9.082
22561TIP3    H167568   5.601   6.319   9.090
22561TIP3    H267569   5.677   6.196   9.130
22562TIP3   OH267570   4.173   7.620   9.084
22562TIP3    H167571   4.087   7.588   9.050
22562TIP3    H267572   4.162   7.715   9.066
22563TIP3   OH267573   4.571   6.207   9.068
22563TIP3    H167574   4.619   6.145   9.010
22563TIP3    H267575   4.645   6.260   9.104
22564TIP3   OH267576   5.083   6.384   9.166
22564TIP3    H167577   5.146   6.331   9.216
22564TIP3    H267578   5.110   6.475   9.194
22565TIP3   OH267579   4.945   7.809   8.667
22565TIP3    H167580   5.032   7.832   8.630
22565TIP3    H267581   4.922   7.735   8.606
22566TIP3   OH267582   5.655   7.929   8.756
22566TIP3    H167583   5.652   7.831   8.744
22566TIP3    H267584   5.613   7.959   8.673
22567TIP3   OH267585   4.247   7.644   8.722
22567TIP3    H167586   4.248   7.673   8.814
22567TIP3    H267587   4.336   7.604   8.711
22568TIP3   OH267588   6.132   6.962   8.967
22568TIP3    H167589   6.077   7.041   8.984
22568TIP3    H267590   6.062   6.900   8.941
22569TIP3   OH267591   6.246   7.252   9.103
22569TIP3    H167592   6.269   7.188   9.174
22569TIP3    H267593   6.234   7.191   9.030
22570TIP3   OH267594   6.692   6.833   9.143
22570TIP3    H167595   6.682   6.904   9.076
22570TIP3    H267596   6.647   6.759   9.097
22571TIP3   OH267597   7.398   6.875   8.744
22571TIP3    H167598   7.381   6.895   8.837
22571TIP3    H267599   7.383   6.961   8.703
22572TIP3   OH267600   6.326   7.036   9.243
22572TIP3    H167601   6.409   7.022   9.294
22572TIP3    H267602   6.345   6.977   9.167
22573TIP3   OH267603   6.754   7.243   9.014
22573TIP3    H167604   6.839   7.219   9.054
22573TIP3    H267605   6.718   7.156   8.991
22574TIP3   OH267606   6.699   6.808   9.537
22574TIP3    H167607   6.635   6.861   9.486
22574TIP3    H267608   6.692   6.848   9.625
22575TIP3   OH267609   6.560   6.955   9.353
22575TIP3    H167610   6.609   7.035   9.381
22575TIP3    H267611   6.620   6.917   9.283
22576TIP3   OH267612   6.029   7.471   8.702
22576TIP3    H167613   5.989   7.496   8.616
22576TIP3    H267614   6.055   7.558   8.738
22577TIP3   OH267615   7.052   6.538   9.267
22577TIP3    H167616   7.052   6.446   9.299
22577TIP3    H267617   6.982   6.576   9.325
22578TIP3   OH267618   6.964   7.268   8.516
22578TIP3    H167619   6.902   7.343   8.517
22578TIP3    H267620   7.035   7.303   8.461
22579TIP3   OH267621   6.937   7.079   8.249
22579TIP3    H167622   6.989   7.121   8.320
22579TIP3    H267623   7.005   7.021   8.208
22580TIP3   OH267624   7.194   7.245   8.346
22580TIP3    H167625   7.248   7.318   8.378
22580TIP3    H267626   7.204   7.256   8.249
22581TIP3   OH267627   7.690   6.477   8.388
22581TIP3    H167628   7.610   6.497   8.440
22581TIP3    H267629   7.698   6.559   8.335
22582TIP3   OH267630   6.391   7.264   8.794
22582TIP3    H167631   6.345   7.282   8.709
22582TIP3    H267632   6.413   7.171   8.783
22583TIP3   OH267633   6.235   7.991   8.797
22583TIP3    H167634   6.241   8.010   8.893
22583TIP3    H267635   6.169   7.921   8.797
22584TIP3   OH267636   6.822   6.604   9.413
22584TIP3    H167637   6.736   6.570   9.382
22584TIP3    H267638   6.789   6.686   9.457
22585TIP3   OH267639   7.255   7.294   8.089
22585TIP3    H167640   7.213   7.261   8.007
22585TIP3    H267641   7.341   7.324   8.055
22586TIP3   OH267642   6.967   6.655   8.393
22586TIP3    H167643   6.932   6.648   8.484
22586TIP3    H267644   6.925   6.578   8.352
22587TIP3   OH267645   6.627   7.010   8.945
22587TIP3    H167646   6.538   6.974   8.966
22587TIP3    H267647   6.645   6.966   8.859
22588TIP3   OH267648   7.093   7.065   8.645
22588TIP3    H167649   7.046   7.142   8.608
22588TIP3    H267650   7.156   7.043   8.574
22589TIP3   OH267651   6.619   6.633   8.352
22589TIP3    H167652   6.611   6.632   8.449
22589TIP3    H267653   6.540   6.683   8.326
22590TIP3   OH267654   6.164   6.679   9.219
22590TIP3    H167655   6.236   6.710   9.277
22590TIP3    H267656   6.211   6.639   9.145
22591TIP3   OH267657   6.134   6.655   8.747
22591TIP3    H167658   6.174   6.684   8.663
22591TIP3    H267659   6.105   6.741   8.780
22592TIP3   OH267660   6.957   6.827   9.019
22592TIP3    H167661   6.875   6.827   9.072
22592TIP3    H267662   7.019   6.855   9.089
22593TIP3   OH267663   6.395   6.887   9.018
22593TIP3    H167664   6.301   6.890   8.990
22593TIP3    H267665   6.422   6.795   8.997
22594TIP3   OH267666   6.659   6.884   8.705
22594TIP3    H167667   6.756   6.893   8.695
22594TIP3    H267668   6.623   6.906   8.617
22595TIP3   OH267669   6.501   6.923   8.479
22595TIP3    H167670   6.438   6.874   8.424
22595TIP3    H267671   6.558   6.962   8.410
22596TIP3   OH267672   6.560   6.650   8.982
22596TIP3    H167673   6.533   6.570   9.030
22596TIP3    H267674   6.622   6.614   8.916
22597TIP3   OH267675   6.752   7.452   8.485
22597TIP3    H167676   6.682   7.384   8.478
22597TIP3    H267677   6.738   7.486   8.576
22598TIP3   OH267678   7.215   6.756   8.356
22598TIP3    H167679   7.118   6.741   8.360
22598TIP3    H267680   7.223   6.853   8.371
22599TIP3   OH267681   7.282   7.007   8.456
22599TIP3    H167682   7.380   7.005   8.463
22599TIP3    H267683   7.267   7.085   8.398
22600TIP3   OH267684   6.900   7.587   8.292
22600TIP3    H167685   6.892   7.673   8.336
22600TIP3    H267686   6.856   7.531   8.358
22601TIP3   OH267687   7.723   7.080   8.262
22601TIP3    H167688   7.646   7.050   8.208
22601TIP3    H267689   7.731   7.172   8.227
22602TIP3   OH267690   6.538   7.769   8.794
22602TIP3    H167691   6.593   7.839   8.753
22602TIP3    H267692   6.449   7.799   8.771
22603TIP3   OH267693   6.111   7.082   8.488
22603TIP3    H167694   6.161   7.163   8.508
22603TIP3    H267695   6.038   7.088   8.552
22604TIP3   OH267696   6.697   7.536   8.737
22604TIP3    H167697   6.661   7.626   8.745
22604TIP3    H267698   6.707   7.511   8.830
22605TIP3   OH267699   6.410   8.055   8.601
22605TIP3    H167700   6.344   8.035   8.672
22605TIP3    H267701   6.495   8.030   8.642
22606TIP3   OH267702   7.166   7.619   8.079
22606TIP3    H167703   7.208   7.630   8.166
22606TIP3    H267704   7.078   7.589   8.107
22607TIP3   OH267705   6.547   7.630   8.102
22607TIP3    H167706   6.562   7.538   8.072
22607TIP3    H267707   6.533   7.616   8.198
22608TIP3   OH267708   6.495   7.629   8.380
22608TIP3    H167709   6.582   7.607   8.416
22608TIP3    H267710   6.494   7.726   8.386
22609TIP3   OH267711   6.227   7.324   8.573
22609TIP3    H167712   6.160   7.372   8.626
22609TIP3    H267713   6.244   7.390   8.503
22610TIP3   OH267714   7.244   6.687   8.624
22610TIP3    H167715   7.230   6.715   8.532
22610TIP3    H267716   7.300   6.760   8.658
22611TIP3   OH267717   6.718   7.833   8.294
22611TIP3    H167718   6.633   7.860   8.335
22611TIP3    H267719   6.713   7.873   8.207
22612TIP3   OH267720   6.931   6.879   8.747
22612TIP3    H167721   6.995   6.948   8.716
22612TIP3    H267722   6.948   6.878   8.844
22613TIP3   OH267723   7.086   6.615   8.844
22613TIP3    H167724   7.077   6.695   8.900
22613TIP3    H267725   7.144   6.649   8.772
22614TIP3   OH267726   6.473   7.906   8.383
22614TIP3    H167727   6.449   7.976   8.318
22614TIP3    H267728   6.449   7.956   8.465
22615TIP3   OH267729   6.600   6.617   8.630
22615TIP3    H167730   6.602   6.707   8.668
22615TIP3    H267731   6.696   6.595   8.637
22616TIP3   OH267732   6.220   7.534   8.383
22616TIP3    H167733   6.287   7.604   8.394
22616TIP3    H267734   6.266   7.480   8.314
22617TIP3   OH267735   6.147   6.809   8.525
22617TIP3    H167736   6.164   6.905   8.517
22617TIP3    H267737   6.122   6.786   8.436
22618TIP3   OH267738   6.552   6.528   9.389
22618TIP3    H167739   6.521   6.493   9.303
22618TIP3    H267740   6.543   6.450   9.448
22619TIP3   OH267741   6.083   7.733   8.776
22619TIP3    H167742   6.012   7.769   8.831
22619TIP3    H267743   6.063   7.777   8.690
22620TIP3   OH267744   6.723   7.823   8.010
22620TIP3    H167745   6.668   7.753   8.052
22620TIP3    H267746   6.793   7.769   7.968
22621TIP3   OH267747   6.355   7.344   8.238
22621TIP3    H167748   6.413   7.314   8.311
22621TIP3    H267749   6.422   7.349   8.165
22622TIP3   OH267750   6.854   7.536   8.031
22622TIP3    H167751   6.857   7.554   8.127
22622TIP3    H267752   6.859   7.437   8.032
22623TIP3   OH267753   6.562   7.245   8.458
22623TIP3    H167754   6.554   7.189   8.535
22623TIP3    H267755   6.602   7.183   8.394
22624TIP3   OH267756   6.664   7.045   8.300
22624TIP3    H167757   6.641   7.044   8.204
22624TIP3    H267758   6.762   7.047   8.293
22625TIP3   OH267759   7.486   7.363   7.956
22625TIP3    H167760   7.454   7.326   7.872
22625TIP3    H267761   7.464   7.458   7.942
22626TIP3   OH267762   6.442   8.117   8.214
22626TIP3    H167763   6.535   8.106   8.186
22626TIP3    H267764   6.411   8.162   8.133
22627TIP3   OH267765   5.953   7.483   8.428
22627TIP3    H167766   6.046   7.509   8.408
22627TIP3    H267767   5.947   7.397   8.381
22628TIP3   OH267768   5.857   8.101   8.825
22628TIP3    H167769   5.788   8.047   8.781
22628TIP3    H267770   5.890   8.035   8.890
22629TIP3   OH267771   5.932   7.929   9.021
22629TIP3    H167772   5.961   7.861   9.084
22629TIP3    H267773   5.895   7.995   9.084
22630TIP3   OH267774   7.710   7.316   8.107
22630TIP3    H167775   7.629   7.332   8.053
22630TIP3    H267776   7.696   7.382   8.178
22631TIP3   OH267777   7.538   7.012   8.079
22631TIP3    H167778   7.485   7.040   8.004
22631TIP3    H267779   7.518   6.916   8.081
22632TIP3   OH267780   6.197   7.343   9.391
22632TIP3    H167781   6.200   7.334   9.295
22632TIP3    H267782   6.281   7.392   9.409
22633TIP3   OH267783   7.490   6.746   8.073
22633TIP3    H167784   7.564   6.713   8.128
22633TIP3    H267785   7.415   6.689   8.100
22634TIP3   OH267786   7.553   6.993   8.496
22634TIP3    H167787   7.586   6.905   8.522
22634TIP3    H267788   7.634   7.035   8.465
22635TIP3   OH267789   7.673   6.754   8.577
22635TIP3    H167790   7.739   6.731   8.645
22635TIP3    H267791   7.609   6.681   8.584
22636TIP3   OH267792   6.370   6.739   9.393
22636TIP3    H167793   6.435   6.667   9.405
22636TIP3    H267794   6.428   6.817   9.388
22637TIP3   OH267795   6.172   7.004   9.477
22637TIP3    H167796   6.223   7.011   9.393
22637TIP3    H267797   6.182   7.094   9.513
22638TIP3   OH267798   7.726   6.675   8.194
22638TIP3    H167799   7.767   6.602   8.144
22638TIP3    H267800   7.797   6.742   8.196
22639TIP3   OH267801   6.154   6.509   8.972
22639TIP3    H167802   6.062   6.509   9.003
22639TIP3    H267803   6.151   6.568   8.895
22640TIP3   OH267804   6.352   6.574   9.788
22640TIP3    H167805   6.317   6.592   9.875
22640TIP3    H267806   6.296   6.631   9.732
22641TIP3   OH267807   7.217   6.734   9.139
22641TIP3    H167808   7.150   6.669   9.167
22641TIP3    H267809   7.273   6.683   9.077
22642TIP3   OH267810   6.463   6.436   9.140
22642TIP3    H167811   6.372   6.401   9.145
22642TIP3    H267812   6.514   6.352   9.138
22643TIP3   OH267813   6.244   6.307   8.788
22643TIP3    H167814   6.283   6.362   8.718
22643TIP3    H267815   6.226   6.371   8.858
22644TIP3   OH267816   6.905   6.469   9.025
22644TIP3    H167817   6.962   6.518   8.963
22644TIP3    H267818   6.935   6.505   9.110
22645TIP3   OH267819   7.404   6.609   8.991
22645TIP3    H167820   7.443   6.586   8.907
22645TIP3    H267821   7.401   6.522   9.037
22646TIP3   OH267822   7.486   6.541   8.569
22646TIP3    H167823   7.396   6.579   8.575
22646TIP3    H267824   7.472   6.456   8.615
22647TIP3   OH267825   5.969   7.879   8.580
22647TIP3    H167826   5.884   7.850   8.541
22647TIP3    H267827   5.967   7.973   8.554
22648TIP3   OH267828   6.369   6.467   8.554
22648TIP3    H167829   6.417   6.403   8.498
22648TIP3    H267830   6.444   6.520   8.589
22649TIP3   OH267831   6.876   6.631   8.655
22649TIP3    H167832   6.941   6.586   8.712
22649TIP3    H267833   6.895   6.724   8.681
22650TIP3   OH267834   6.687   8.075   8.111
22650TIP3    H167835   6.778   8.097   8.137
22650TIP3    H267836   6.700   8.001   8.050
22651TIP3   OH267837   6.043   7.895   8.209
22651TIP3    H167838   6.045   7.935   8.297
22651TIP3    H267839   6.134   7.859   8.200
22652TIP3   OH267840   8.362   6.836   7.835
22652TIP3    H167841   8.395   6.904   7.895
22652TIP3    H267842   8.319   6.889   7.767
22653TIP3   OH267843   7.910   6.887   8.203
22653TIP3    H167844   7.977   6.931   8.148
22653TIP3    H267845   7.843   6.958   8.213
22654TIP3   OH267846   7.960   7.084   8.010
22654TIP3    H167847   7.879   7.133   8.030
22654TIP3    H267848   7.928   7.015   7.951
22655TIP3   OH267849   7.917   6.714   8.417
22655TIP3    H167850   7.837   6.739   8.467
22655TIP3    H267851   7.938   6.795   8.368
22656TIP3   OH267852   8.059   6.543   8.261
22656TIP3    H167853   8.070   6.592   8.177
22656TIP3    H267854   7.994   6.599   8.310
22657TIP3   OH267855   8.139   6.694   8.038
22657TIP3    H167856   8.205   6.651   7.980
22657TIP3    H267857   8.185   6.776   8.066
22658TIP3   OH267858   2.968   8.384   8.885
22658TIP3    H167859   3.014   8.411   8.966
22658TIP3    H267860   3.030   8.317   8.850
22659TIP3   OH267861   3.735   7.778   9.051
22659TIP3    H167862   3.654   7.799   9.103
22659TIP3    H267863   3.749   7.862   9.003
22660TIP3   OH267864   3.319   8.572   8.740
22660TIP3    H167865   3.273   8.543   8.658
22660TIP3    H267866   3.399   8.614   8.702
22661TIP3   OH267867   3.011   7.957   8.986
22661TIP3    H167868   2.999   7.958   9.084
22661TIP3    H267869   2.969   7.871   8.969
22662TIP3   OH267870   2.681   7.924   9.027
22662TIP3    H167871   2.644   7.915   9.115
22662TIP3    H267872   2.601   7.954   8.979
22663TIP3   OH267873   3.267   8.030   9.028
22663TIP3    H167874   3.171   8.027   9.008
22663TIP3    H267875   3.289   8.126   9.027
22664TIP3   OH267876   3.365   8.278   9.065
22664TIP3    H167877   3.451   8.276   9.112
22664TIP3    H267878   3.374   8.361   9.017
22665TIP3   OH267879   3.771   8.391   8.953
22665TIP3    H167880   3.704   8.349   8.896
22665TIP3    H267881   3.777   8.478   8.910
22666TIP3   OH267882   3.302   8.049   9.302
22666TIP3    H167883   3.275   8.028   9.211
22666TIP3    H267884   3.370   8.115   9.287
22667TIP3   OH267885   3.536   8.680   8.610
22667TIP3    H167886   3.518   8.630   8.528
22667TIP3    H267887   3.501   8.768   8.584
22668TIP3   OH267888   3.718   8.639   8.805
22668TIP3    H167889   3.669   8.630   8.720
22668TIP3    H267890   3.650   8.685   8.855
22669TIP3   OH267891   3.592   8.317   8.760
22669TIP3    H167892   3.554   8.340   8.675
22669TIP3    H267893   3.575   8.220   8.761
22670TIP3   OH267894   3.545   8.050   8.755
22670TIP3    H167895   3.622   8.015   8.804
22670TIP3    H267896   3.475   7.985   8.773
22671TIP3   OH267897   3.602   8.302   9.189
22671TIP3    H167898   3.643   8.220   9.225
22671TIP3    H267899   3.681   8.346   9.154
22672TIP3   OH267900   3.713   8.053   9.244
22672TIP3    H167901   3.762   8.038   9.327
22672TIP3    H267902   3.653   7.975   9.243
22673TIP3   OH267903   3.793   7.988   8.871
22673TIP3    H167904   3.834   7.915   8.821
22673TIP3    H267905   3.862   8.056   8.871
22674TIP3   OH267906   3.800   7.915   9.709
22674TIP3    H167907   3.836   7.961   9.630
22674TIP3    H267908   3.703   7.921   9.690
22675TIP3   OH267909   3.878   8.007   9.463
22675TIP3    H167910   3.951   7.956   9.421
22675TIP3    H267911   3.910   8.098   9.445
22676TIP3   OH267912   3.532   7.908   9.646
22676TIP3    H167913   3.499   7.867   9.566
22676TIP3    H267914   3.506   7.841   9.713
22677TIP3   OH267915   3.531   7.837   9.234
22677TIP3    H167916   3.441   7.871   9.234
22677TIP3    H267917   3.518   7.752   9.281
22678TIP3   OH267918   2.465   7.682   9.282
22678TIP3    H167919   2.479   7.651   9.191
22678TIP3    H267920   2.441   7.775   9.264
22679TIP3   OH267921   2.984   7.956   9.252
22679TIP3    H167922   2.964   7.908   9.334
22679TIP3    H267923   2.934   8.037   9.265
22680TIP3   OH267924   4.979   9.009   8.875
22680TIP3    H167925   4.935   9.093   8.852
22680TIP3    H267926   4.917   8.946   8.834
22681TIP3   OH267927   3.984   8.501   9.118
22681TIP3    H167928   3.921   8.566   9.154
22681TIP3    H267929   3.926   8.427   9.100
22682TIP3   OH267930   4.556   8.387   9.276
22682TIP3    H167931   4.532   8.458   9.213
22682TIP3    H267932   4.503   8.313   9.239
22683TIP3   OH267933   5.237   8.478   8.914
22683TIP3    H167934   5.309   8.472   8.980
22683TIP3    H267935   5.288   8.503   8.835
22684TIP3   OH267936   4.633   8.782   9.161
22684TIP3    H167937   4.723   8.748   9.178
22684TIP3    H267938   4.583   8.699   9.142
22685TIP3   OH267939   4.845   9.216   8.744
22685TIP3    H167940   4.838   9.184   8.654
22685TIP3    H267941   4.917   9.281   8.736
22686TIP3   OH267942   5.450   8.484   9.087
22686TIP3    H167943   5.442   8.413   9.152
22686TIP3    H267944   5.535   8.524   9.111
22687TIP3   OH267945   4.416   8.463   9.503
22687TIP3    H167946   4.463   8.546   9.521
22687TIP3    H267947   4.470   8.423   9.433
22688TIP3   OH267948   4.897   8.087   9.432
22688TIP3    H167949   4.880   7.993   9.450
22688TIP3    H267950   4.818   8.126   9.478
22689TIP3   OH267951   5.062   9.351   8.661
22689TIP3    H167952   5.105   9.290   8.599
22689TIP3    H267953   5.138   9.401   8.695
22690TIP3   OH267954   4.830   8.860   8.692
22690TIP3    H167955   4.747   8.905   8.667
22690TIP3    H267956   4.873   8.846   8.605
22691TIP3   OH267957   4.785   8.636   8.412
22691TIP3    H167958   4.855   8.688   8.454
22691TIP3    H267959   4.840   8.571   8.363
22692TIP3   OH267960   5.159   8.943   8.668
22692TIP3    H167961   5.101   8.964   8.744
22692TIP3    H267962   5.241   8.924   8.717
22693TIP3   OH267963   4.424   8.928   9.043
22693TIP3    H167964   4.371   8.869   8.985
22693TIP3    H267965   4.495   8.867   9.073
22694TIP3   OH267966   5.008   8.796   8.487
22694TIP3    H167967   5.069   8.853   8.539
22694TIP3    H267968   5.037   8.818   8.395
22695TIP3   OH267969   5.529   8.034   8.536
22695TIP3    H167970   5.448   8.056   8.586
22695TIP3    H267971   5.545   8.117   8.488
22696TIP3   OH267972   4.271   8.764   8.868
22696TIP3    H167973   4.197   8.808   8.821
22696TIP3    H267974   4.231   8.682   8.898
22697TIP3   OH267975   5.331   9.386   8.105
22697TIP3    H167976   5.325   9.479   8.074
22697TIP3    H267977   5.421   9.363   8.074
22698TIP3   OH267978   4.846   9.616   8.190
22698TIP3    H167979   4.903   9.547   8.147
22698TIP3    H267980   4.874   9.606   8.283
22699TIP3   OH267981   4.886   9.624   8.461
22699TIP3    H167982   4.860   9.681   8.536
22699TIP3    H267983   4.952   9.567   8.503
22700TIP3   OH267984   4.670   8.163   9.559
22700TIP3    H167985   4.573   8.148   9.548
22700TIP3    H267986   4.673   8.252   9.598
22701TIP3   OH267987   5.093   8.849   8.237
22701TIP3    H167988   5.055   8.819   8.152
22701TIP3    H267989   5.178   8.886   8.206
22702TIP3   OH267990   4.803   8.215   8.538
22702TIP3    H167991   4.770   8.212   8.629
22702TIP3    H267992   4.764   8.133   8.503
22703TIP3   OH267993   4.481   8.568   9.087
22703TIP3    H167994   4.388   8.543   9.111
22703TIP3    H267995   4.488   8.523   9.000
22704TIP3   OH267996   4.962   8.654   8.820
22704TIP3    H167997   4.910   8.725   8.776
22704TIP3    H267998   5.016   8.621   8.746
22705TIP3   OH267999   5.089   8.671   9.077
22705TIP3    H168000   5.054   8.710   8.995
22705TIP3    H268001   5.140   8.598   9.039
22706TIP3   OH268002   4.460   8.189   8.503
22706TIP3    H168003   4.451   8.187   8.601
22706TIP3    H268004   4.381   8.240   8.478
22707TIP3   OH268005   4.001   8.222   9.359
22707TIP3    H168006   4.070   8.256   9.421
22707TIP3    H268007   4.054   8.189   9.286
22708TIP3   OH268008   3.976   8.213   8.894
22708TIP3    H168009   4.022   8.252   8.816
22708TIP3    H268010   3.913   8.285   8.914
22709TIP3   OH268011   4.808   8.380   9.155
22709TIP3    H168012   4.722   8.382   9.202
22709TIP3    H268013   4.870   8.401   9.226
22710TIP3   OH268014   4.251   8.452   9.158
22710TIP3    H168015   4.154   8.462   9.147
22710TIP3    H268016   4.264   8.356   9.151
22711TIP3   OH268017   4.506   8.437   8.851
22711TIP3    H168018   4.600   8.456   8.830
22711TIP3    H268019   4.458   8.464   8.769
22712TIP3   OH268020   5.287   8.439   9.375
22712TIP3    H168021   5.225   8.482   9.434
22712TIP3    H268022   5.226   8.385   9.322
22713TIP3   OH268023   4.345   8.479   8.633
22713TIP3    H168024   4.275   8.431   8.586
22713TIP3    H268025   4.397   8.514   8.559
22714TIP3   OH268026   4.880   8.700   9.256
22714TIP3    H168027   4.958   8.696   9.196
22714TIP3    H268028   4.918   8.667   9.338
22715TIP3   OH268029   4.412   8.202   9.137
22715TIP3    H168030   4.374   8.125   9.185
22715TIP3    H268031   4.454   8.159   9.061
22716TIP3   OH268032   4.880   8.613   9.576
22716TIP3    H168033   4.809   8.667   9.537
22716TIP3    H268034   4.929   8.679   9.627
22717TIP3   OH268035   4.594   9.008   8.636
22717TIP3    H168036   4.526   8.938   8.630
22717TIP3    H268037   4.577   9.044   8.726
22718TIP3   OH268038   5.055   8.315   8.508
22718TIP3    H168039   4.958   8.298   8.513
22718TIP3    H268040   5.061   8.411   8.528
22719TIP3   OH268041   5.117   8.565   8.606
22719TIP3    H168042   5.214   8.558   8.619
22719TIP3    H268043   5.108   8.642   8.548
22720TIP3   OH268044   4.739   9.162   8.465
22720TIP3    H168045   4.689   9.244   8.480
22720TIP3    H268046   4.689   9.099   8.521
22721TIP3   OH268047   5.560   8.636   8.441
22721TIP3    H168048   5.494   8.604   8.375
22721TIP3    H268049   5.567   8.728   8.413
22722TIP3   OH268050   5.281   9.444   8.376
22722TIP3    H168051   5.235   9.359   8.383
22722TIP3    H268052   5.301   9.446   8.281
22723TIP3   OH268053   3.955   8.635   8.646
22723TIP3    H168054   4.000   8.720   8.665
22723TIP3    H268055   3.878   8.642   8.705
22724TIP3   OH268056   4.525   9.119   8.873
22724TIP3    H168057   4.500   9.198   8.922
22724TIP3    H268058   4.494   9.050   8.935
22725TIP3   OH268059   5.023   9.204   8.258
22725TIP3    H168060   5.073   9.178   8.337
22725TIP3    H268061   4.935   9.170   8.279
22726TIP3   OH268062   5.320   9.648   8.047
22726TIP3    H168063   5.322   9.703   7.967
22726TIP3    H268064   5.280   9.711   8.111
22727TIP3   OH268065   5.184   9.153   8.483
22727TIP3    H168066   5.168   9.078   8.544
22727TIP3    H268067   5.281   9.143   8.469
22728TIP3   OH268068   4.384   9.183   8.250
22728TIP3    H168069   4.400   9.092   8.219
22728TIP3    H268070   4.371   9.170   8.346
22729TIP3   OH268071   4.350   9.190   8.523
22729TIP3    H168072   4.397   9.129   8.581
22729TIP3    H268073   4.360   9.274   8.570
22730TIP3   OH268074   4.058   8.886   8.733
22730TIP3    H168075   4.022   8.948   8.798
22730TIP3    H268076   4.073   8.948   8.659
22731TIP3   OH268077   5.099   8.267   8.786
22731TIP3    H168078   5.084   8.290   8.692
22731TIP3    H268079   5.135   8.351   8.822
22732TIP3   OH268080   4.588   9.405   8.485
22732TIP3    H168081   4.507   9.448   8.458
22732TIP3    H268082   4.648   9.436   8.415
22733TIP3   OH268083   4.789   8.449   8.887
22733TIP3    H168084   4.853   8.521   8.869
22733TIP3    H268085   4.795   8.441   8.984
22734TIP3   OH268086   4.934   8.176   8.993
22734TIP3    H168087   4.914   8.256   9.045
22734TIP3    H268088   4.994   8.213   8.924
22735TIP3   OH268089   4.444   8.173   8.780
22735TIP3    H168090   4.442   8.264   8.817
22735TIP3    H268091   4.540   8.155   8.788
22736TIP3   OH268092   4.063   9.085   8.544
22736TIP3    H168093   4.105   9.172   8.546
22736TIP3    H268094   4.114   9.040   8.473
22737TIP3   OH268095   4.007   8.365   8.669
22737TIP3    H168096   4.007   8.462   8.663
22737TIP3    H268097   3.929   8.341   8.618
22738TIP3   OH268098   4.402   8.083   9.543
22738TIP3    H168099   4.365   8.057   9.457
22738TIP3    H268100   4.381   8.006   9.599
22739TIP3   OH268101   4.559   9.381   8.174
22739TIP3    H168102   4.500   9.307   8.201
22739TIP3    H268103   4.630   9.333   8.127
22740TIP3   OH268104   4.993   9.422   8.072
22740TIP3    H168105   5.041   9.360   8.130
22740TIP3    H268106   5.047   9.422   7.991
22741TIP3   OH268107   4.199   8.906   8.386
22741TIP3    H168108   4.252   8.866   8.457
22741TIP3    H268109   4.265   8.908   8.313
22742TIP3   OH268110   4.706   9.101   8.196
22742TIP3    H168111   4.708   9.111   8.293
22742TIP3    H268112   4.709   9.003   8.188
22743TIP3   OH268113   4.408   8.808   8.612
22743TIP3    H168114   4.375   8.766   8.694
22743TIP3    H268115   4.442   8.731   8.562
22744TIP3   OH268116   4.505   8.603   8.449
22744TIP3    H168117   4.480   8.604   8.355
22744TIP3    H268118   4.603   8.605   8.442
22745TIP3   OH268119   5.325   8.932   8.113
22745TIP3    H168120   5.309   8.883   8.029
22745TIP3    H268121   5.290   9.020   8.085
22746TIP3   OH268122   4.736   8.402   9.699
22746TIP3    H168123   4.807   8.450   9.654
22746TIP3    H268124   4.751   8.427   9.791
22747TIP3   OH268125   4.337   9.679   8.353
22747TIP3    H168126   4.423   9.661   8.310
22747TIP3    H268127   4.281   9.702   8.277
22748TIP3   OH268128   3.791   9.045   8.504
22748TIP3    H168129   3.879   9.063   8.542
22748TIP3    H268130   3.791   8.948   8.493
22749TIP3   OH268131   5.468   9.122   8.465
22749TIP3    H168132   5.544   9.143   8.410
22749TIP3    H268133   5.509   9.087   8.546
22750TIP3   OH268134   5.525   8.899   8.293
22750TIP3    H168135   5.456   8.896   8.223
22750TIP3    H268136   5.483   8.960   8.355
22751TIP3   OH268137   5.384   8.571   8.243
22751TIP3    H168138   5.352   8.600   8.157
22751TIP3    H268139   5.365   8.475   8.239
22752TIP3   OH268140   5.465   8.793   8.715
22752TIP3    H168141   5.423   8.707   8.731
22752TIP3    H268142   5.427   8.850   8.785
22753TIP3   OH268143   5.341   8.304   8.238
22753TIP3    H168144   5.418   8.272   8.288
22753TIP3    H268145   5.271   8.241   8.260
22754TIP3   OH268146   5.387   8.530   8.678
22754TIP3    H168147   5.430   8.443   8.693
22754TIP3    H268148   5.450   8.567   8.613
22755TIP3   OH268149   5.510   8.293   8.726
22755TIP3    H168150   5.559   8.279   8.809
22755TIP3    H268151   5.448   8.217   8.728
22756TIP3   OH268152   4.204   8.280   9.525
22756TIP3    H168153   4.274   8.218   9.550
22756TIP3    H268154   4.246   8.364   9.549
22757TIP3   OH268155   5.588   8.244   8.358
22757TIP3    H168156   5.630   8.171   8.308
22757TIP3    H268157   5.656   8.313   8.356
22758TIP3   OH268158   3.995   8.060   9.114
22758TIP3    H168159   3.905   8.069   9.150
22758TIP3    H268160   3.993   8.124   9.040
22759TIP3   OH268161   5.066   8.285   9.291
22759TIP3    H168162   5.010   8.215   9.329
22759TIP3    H268163   5.124   8.235   9.230
22760TIP3   OH268164   5.567   8.187   9.207
22760TIP3    H168165   5.611   8.218   9.124
22760TIP3    H268166   5.473   8.184   9.180
22761TIP3   OH268167   5.666   8.253   8.957
22761TIP3    H168168   5.741   8.201   8.921
22761TIP3    H268169   5.693   8.341   8.923
22762TIP3   OH268170   4.306   7.994   9.292
22762TIP3    H168171   4.213   7.962   9.295
22762TIP3    H268172   4.354   7.909   9.289
22763TIP3   OH268173   4.093   7.862   8.940
22763TIP3    H168174   4.122   7.922   8.869
22763TIP3    H268175   4.063   7.926   9.008
22764TIP3   OH268176   4.751   8.023   9.173
22764TIP3    H168177   4.808   8.076   9.115
22764TIP3    H268178   4.765   8.065   9.258
22765TIP3   OH268179   5.293   8.170   9.150
22765TIP3    H168180   5.284   8.131   9.062
22765TIP3    H268181   5.279   8.091   9.208
22766TIP3   OH268182   5.323   8.092   8.720
22766TIP3    H168183   5.237   8.137   8.731
22766TIP3    H268184   5.307   8.007   8.766
22767TIP3   OH268185   4.209   8.023   8.704
22767TIP3    H168186   4.258   7.961   8.647
22767TIP3    H268187   4.282   8.077   8.740
22768TIP3   OH268188   4.722   8.198   8.803
22768TIP3    H168189   4.782   8.151   8.864
22768TIP3    H268190   4.743   8.291   8.828
22769TIP3   OH268191   4.590   9.628   8.275
22769TIP3    H168192   4.681   9.641   8.242
22769TIP3    H268193   4.571   9.542   8.232
22770TIP3   OH268194   5.776   8.800   8.560
22770TIP3    H168195   5.764   8.837   8.650
22770TIP3    H268196   5.707   8.732   8.558
22771TIP3   OH268197   6.566   8.479   7.981
22771TIP3    H168198   6.611   8.488   8.067
22771TIP3    H268199   6.534   8.387   7.983
22772TIP3   OH268200   6.240   8.433   7.983
22772TIP3    H168201   6.231   8.434   8.080
22772TIP3    H268202   6.173   8.498   7.957
22773TIP3   OH268203   5.766   8.455   8.812
22773TIP3    H168204   5.846   8.503   8.841
22773TIP3    H268205   5.800   8.412   8.732
22774TIP3   OH268206   5.779   8.475   8.382
22774TIP3    H168207   5.814   8.515   8.299
22774TIP3    H268208   5.712   8.542   8.405
22775TIP3   OH268209   6.152   8.688   8.123
22775TIP3    H168210   6.079   8.665   8.063
22775TIP3    H268211   6.198   8.755   8.070
22776TIP3   OH268212   5.747   8.886   8.133
22776TIP3    H168213   5.799   8.959   8.168
22776TIP3    H268214   5.668   8.888   8.193
22777TIP3   OH268215   6.232   8.414   8.259
22777TIP3    H168216   6.222   8.502   8.299
22777TIP3    H268217   6.324   8.393   8.279
22778TIP3   OH268218   5.799   8.618   8.154
22778TIP3    H168219   5.801   8.716   8.149
22778TIP3    H268220   5.721   8.597   8.104
22779TIP3   OH268221   5.983   9.161   7.853
22779TIP3    H168222   6.044   9.134   7.923
22779TIP3    H268223   6.043   9.152   7.776
22780TIP3   OH268224   6.308   8.846   7.935
22780TIP3    H168225   6.255   8.838   7.853
22780TIP3    H268226   6.396   8.855   7.895
22781TIP3   OH268227   5.583   9.312   8.016
22781TIP3    H168228   5.654   9.326   8.080
22781TIP3    H268229   5.590   9.217   7.993
22782TIP3   OH268230   5.781   8.302   8.585
22782TIP3    H168231   5.689   8.312   8.614
22782TIP3    H268232   5.789   8.371   8.516
22783TIP3   OH268233   6.081   8.222   8.696
22783TIP3    H168234   5.992   8.198   8.726
22783TIP3    H268235   6.135   8.153   8.736
22784TIP3   OH268236   5.888   8.109   8.418
22784TIP3    H168237   5.920   8.171   8.350
22784TIP3    H268238   5.860   8.172   8.488
22785TIP3   OH268239   6.001   8.271   8.189
22785TIP3    H168240   6.048   8.211   8.128
22785TIP3    H268241   6.075   8.324   8.225
22786TIP3   OH268242   4.986  10.091   7.913
22786TIP3    H168243   5.047  10.044   7.856
22786TIP3    H268244   4.899  10.060   7.885
22787TIP3   OH268245   4.957   9.875   8.338
22787TIP3    H168246   4.891   9.938   8.305
22787TIP3    H268247   4.901   9.798   8.355
   9.80000   9.23953   8.00167   0.00000   0.00000  -3.26667   0.00000  -3.26667  -4.61976
