* GENERATED BY CHARMM-GUI (HTTP://WWW.CHARMM-GUI.ORG) V3.7 ON JUN, 13. 2026. JOB
* READ PDB, MANIPULATE STRUCTURE IF NEEDED, AND GENERATE TOPOLOGY FILE
*  DATE:     6/13/26      8: 4:15      CREATED BY USER: charmm-gui
*
       171  EXT
         1         1  GLY       N               0.7510000000        8.8740000000       20.1720000000  PROA      1              97.6100000000
         2         1  GLY       HT1             0.2423492004        8.9332943588       21.0771842592  PROA      1               0.0000000000
         3         1  GLY       HT2             0.3061199896        9.5123102316       19.4818974998  PROA      1               0.0000000000
         4         1  GLY       HT3             1.7428289413        9.1534059299       20.3127384584  PROA      1               0.0000000000
         5         1  GLY       CA              0.6980000000        7.5090000000       19.6740000000  PROA      1              98.0100000000
         6         1  GLY       HA1            -0.3332923094        7.1902209682       19.7074473210  PROA      1               0.0000000000
         7         1  GLY       HA2             1.3019568224        6.8996333973       20.3299048117  PROA      1               0.0000000000
         8         1  GLY       C               1.2140000000        7.3710000000       18.2540000000  PROA      1              98.2600000000
         9         1  GLY       O               1.4380000000        8.3720000000       17.5700000000  PROA      1              98.0000000000
        10         2  PRO       N               1.4230000000        6.1320000000       17.6480000000  PROA      2              98.5300000000
        11         2  PRO       CD              1.4990000000        5.0380000000       18.4410000000  PROA      2              95.9700000000
        12         2  PRO       HD1             0.4776504384        4.7191116614       18.7381697104  PROA      2               0.0000000000
        13         2  PRO       HD2             2.1007614266        5.2714635772       19.3446218677  PROA      2               0.0000000000
        14         2  PRO       CA              1.8250000000        5.9480000000       16.2520000000  PROA      2              98.5500000000
        15         2  PRO       HA              2.6412166669        6.6081151761       16.0059598157  PROA      2               0.0000000000
        16         2  PRO       CB              2.1630000000        4.4570000000       16.1750000000  PROA      2              98.4200000000
        17         2  PRO       HB1             3.1573507711        4.3017367099       15.7046530505  PROA      2               0.0000000000
        18         2  PRO       HB2             1.3974876680        3.9089488242       15.5853414747  PROA      2               0.0000000000
        19         2  PRO       CG              2.1700000000        3.9940000000       17.5960000000  PROA      2              97.5000000000
        20         2  PRO       HG1             1.6237604279        3.0303900934       17.6818627992  PROA      2               0.0000000000
        21         2  PRO       HG2             3.2160202023        3.8452274038       17.9395150555  PROA      2               0.0000000000
        22         2  PRO       C               0.7150000000        6.3060000000       15.2660000000  PROA      2              98.6000000000
        23         2  PRO       O              -0.4620000000        6.3220000000       15.6360000000  PROA      2              98.5100000000
        24         3  GLY       N               1.0870000000        6.6920000000       14.0740000000  PROA      3              98.4000000000
        25         3  GLY       HN              2.0484117715        6.7976439843       13.8330276533  PROA      3               0.0000000000
        26         3  GLY       CA              0.1340000000        6.9940000000       13.0180000000  PROA      3              98.3800000000
        27         3  GLY       HA1             0.6888711149        7.3664593503       12.1696623591  PROA      3               0.0000000000
        28         3  GLY       HA2            -0.5372325327        7.7551353283       13.3873298984  PROA      3               0.0000000000
        29         3  GLY       C              -0.6790000000        5.7890000000       12.5840000000  PROA      3              98.5500000000
        30         3  GLY       O              -0.3470000000        4.6530000000       12.9300000000  PROA      3              98.4700000000
        31         4  ASP       N              -1.8360000000        6.1410000000       11.8990000000  PROA      4              98.2300000000
        32         4  ASP       HN             -2.1646197312        7.0766187522       11.7980090452  PROA      4               0.0000000000
        33         4  ASP       CA             -2.6150000000        5.0670000000       11.2910000000  PROA      4              98.2000000000
        34         4  ASP       HA             -2.8619382597        4.3537311266       12.0632915627  PROA      4               0.0000000000
        35         4  ASP       CB             -3.8900000000        5.6230000000       10.6530000000  PROA      4              98.0400000000
        36         4  ASP       HB1            -4.3747388579        4.8193801269       10.0589457481  PROA      4               0.0000000000
        37         4  ASP       HB2            -3.6179123445        6.4621400976        9.9781005117  PROA      4               0.0000000000
        38         4  ASP       CG             -4.8900000000        6.1340000000       11.6750000000  PROA      4              96.2900000000
        39         4  ASP       OD1            -4.8240000000        5.7210000000       12.8530000000  PROA      4              95.1400000000
        40         4  ASP       OD2            -5.7540000000        6.9550000000       11.2980000000  PROA      4              95.1400000000
        41         4  ASP       C              -1.7920000000        4.3130000000       10.2490000000  PROA      4              98.3900000000
        42         4  ASP       O              -0.9380000000        4.9000000000        9.5810000000  PROA      4              98.2600000000
        43         5  PRO       N              -1.9670000000        3.0620000000       10.0280000000  PROA      5              98.3900000000
        44         5  PRO       CD             -2.8690000000        2.3320000000       10.7320000000  PROA      5              97.1400000000
        45         5  PRO       HD1            -3.8971586105        2.6873455770       10.5093062267  PROA      5               0.0000000000
        46         5  PRO       HD2            -2.6629601692        2.4254905384       11.8190971582  PROA      5               0.0000000000
        47         5  PRO       CA             -1.3010000000        2.3740000000        8.9190000000  PROA      5              98.3800000000
        48         5  PRO       HA             -0.2301714628        2.4223500550        9.0352949164  PROA      5               0.0000000000
        49         5  PRO       CB             -1.8880000000        0.9610000000        8.9780000000  PROA      5              98.2500000000
        50         5  PRO       HB1            -1.0802169538        0.1984172804        8.9833512326  PROA      5               0.0000000000
        51         5  PRO       HB2            -2.5527723719        0.7736046300        8.1079223262  PROA      5               0.0000000000
        52         5  PRO       CG             -2.6630000000        0.9220000000       10.2560000000  PROA      5              97.3900000000
        53         5  PRO       HG1            -3.6461727544        0.4331247260       10.0866863358  PROA      5               0.0000000000
        54         5  PRO       HG2            -2.1016723578        0.3435093880       11.0205617734  PROA      5               0.0000000000
        55         5  PRO       C              -1.5820000000        3.0240000000        7.5660000000  PROA      5              98.5500000000
        56         5  PRO       O              -2.5980000000        3.7050000000        7.4040000000  PROA      5              98.5100000000
        57         6  GLY       N              -0.6390000000        2.7800000000        6.7160000000  PROA      6              98.2100000000
        58         6  GLY       HN              0.1967299104        2.2815329725        6.9318192190  PROA      6               0.0000000000
        59         6  GLY       CA             -0.8190000000        3.2690000000        5.3590000000  PROA      6              98.1900000000
        60         6  GLY       HA1             0.0959818107        3.0818444902        4.8167180274  PROA      6               0.0000000000
        61         6  GLY       HA2            -1.0092801896        4.3306633020        5.4133426103  PROA      6               0.0000000000
        62         6  GLY       C              -1.9690000000        2.5990000000        4.6310000000  PROA      6              98.4900000000
        63         6  GLY       O              -2.4990000000        1.5870000000        5.0950000000  PROA      6              98.4600000000
        64         7  SER       N              -2.2920000000        3.2040000000        3.5420000000  PROA      7              98.5300000000
        65         7  SER       HN             -1.8806866735        4.0593574424        3.2371768615  PROA      7               0.0000000000
        66         7  SER       CA             -3.3220000000        2.6030000000        2.7020000000  PROA      7              98.4900000000
        67         7  SER       HA             -4.1554530649        2.3349255807        3.3341840896  PROA      7               0.0000000000
        68         7  SER       CB             -3.7710000000        3.5840000000        1.6180000000  PROA      7              98.3200000000
        69         7  SER       HB1            -4.5773420149        3.1228069767        1.0086216220  PROA      7               0.0000000000
        70         7  SER       HB2            -2.9098326065        3.8351871205        0.9626190359  PROA      7               0.0000000000
        71         7  SER       OG             -4.2660000000        4.7800000000        2.1960000000  PROA      7              96.5900000000
        72         7  SER       HG1            -5.0093250922        4.5205203895        2.7453069625  PROA      7               0.0000000000
        73         7  SER       C              -2.8270000000        1.3130000000        2.0570000000  PROA      7              98.6800000000
        74         7  SER       O              -1.6190000000        1.0880000000        1.9550000000  PROA      7              98.6300000000
        75         8  ASP       N              -3.8290000000        0.6760000000        1.6650000000  PROA      8              98.4200000000
        76         8  ASP       HN             -4.7811793656        0.9005116916        1.8475750288  PROA      8               0.0000000000
        77         8  ASP       CA             -3.4850000000       -0.4980000000        0.8680000000  PROA      8              98.4200000000
        78         8  ASP       HA             -2.7698208224       -1.0840870493        1.4258438047  PROA      8               0.0000000000
        79         8  ASP       CB             -4.7360000000       -1.3280000000        0.5690000000  PROA      8              98.1900000000
        80         8  ASP       HB1            -4.4705451738       -2.1322873921       -0.1495605276  PROA      8               0.0000000000
        81         8  ASP       HB2            -5.5039441289       -0.6687539078        0.1114739237  PROA      8               0.0000000000
        82         8  ASP       CG             -5.3320000000       -1.9700000000        1.8090000000  PROA      8              96.4700000000
        83         8  ASP       OD1            -4.6790000000       -1.9590000000        2.8760000000  PROA      8              96.0200000000
        84         8  ASP       OD2            -6.4620000000       -2.4950000000        1.7190000000  PROA      8              94.7600000000
        85         8  ASP       C              -2.7980000000       -0.0960000000       -0.4350000000  PROA      8              98.5800000000
        86         8  ASP       O              -3.0530000000        0.9850000000       -0.9690000000  PROA      8              98.5300000000
        87         9  GLY       N              -1.7940000000       -1.0550000000       -0.8970000000  PROA      9              98.3500000000
        88         9  GLY       HN             -1.5234906308       -1.8694398068       -0.3899150049  PROA      9               0.0000000000
        89         9  GLY       CA             -1.1530000000       -0.8000000000       -2.1770000000  PROA      9              98.2900000000
        90         9  GLY       HA1            -0.3683365617       -1.5309479142       -2.3047107805  PROA      9               0.0000000000
        91         9  GLY       HA2            -0.7336903231        0.1946734100       -2.1438969707  PROA      9               0.0000000000
        92         9  GLY       C              -2.1090000000       -0.8930000000       -3.3510000000  PROA      9              98.4800000000
        93         9  GLY       O              -3.2670000000       -1.2830000000       -3.1870000000  PROA      9              98.4000000000
        94        10  PRO       N              -1.5860000000       -0.6470000000       -4.5140000000  PROA      10             98.5900000000
        95        10  PRO       CD             -0.2690000000       -0.2870000000       -4.7540000000  PROA      10             97.6700000000
        96        10  PRO       HD1             0.4074315502       -1.1030514898       -4.4227124465  PROA      10              0.0000000000
        97        10  PRO       HD2            -0.0314808145        0.6482398007       -4.2043071122  PROA      10              0.0000000000
        98        10  PRO       CA             -2.4100000000       -0.7930000000       -5.7160000000  PROA      10             98.5700000000
        99        10  PRO       HA             -3.3785653951       -0.3442068761       -5.5644252294  PROA      10              0.0000000000
       100        10  PRO       CB             -1.5630000000       -0.1330000000       -6.8070000000  PROA      10             98.5100000000
       101        10  PRO       HB1            -1.9363050898        0.8888534735       -7.0317971254  PROA      10              0.0000000000
       102        10  PRO       HB2            -1.5826773100       -0.7356548634       -7.7400031501  PROA      10              0.0000000000
       103        10  PRO       CG             -0.1820000000       -0.0800000000       -6.2390000000  PROA      10             98.0100000000
       104        10  PRO       HG1             0.4447565854       -0.8758590246       -6.6951571222  PROA      10              0.0000000000
       105        10  PRO       HG2             0.2780755753        0.9076229434       -6.4563156949  PROA      10              0.0000000000
       106        10  PRO       C              -2.6990000000       -2.2530000000       -6.0590000000  PROA      10             98.7200000000
       107        10  PRO       O              -1.9840000000       -3.1510000000       -5.6070000000  PROA      10             98.6900000000
       108        11  GLY       N              -3.7040000000       -2.4990000000       -6.7760000000  PROA      11             98.4300000000
       109        11  GLY       HN             -4.3286824510       -1.7830243030       -7.0775694368  PROA      11              0.0000000000
       110        11  GLY       CA             -4.0190000000       -3.8500000000       -7.2120000000  PROA      11             98.4100000000
       111        11  GLY       HA1            -4.9961003574       -3.8290784691       -7.6714845724  PROA      11              0.0000000000
       112        11  GLY       HA2            -4.0318821744       -4.4842408525       -6.3380083057  PROA      11              0.0000000000
       113        11  GLY       C              -3.0180000000       -4.4040000000       -8.2080000000  PROA      11             98.5800000000
       114        11  GLY       O              -2.1620000000       -3.6720000000       -8.7080000000  PROA      11             98.5500000000
       115        12  ASP       N              -2.9450000000       -5.6430000000       -8.5160000000  PROA      12             98.0500000000
       116        12  ASP       HN             -3.5168754176       -6.2796298096       -8.0125382821  PROA      12              0.0000000000
       117        12  ASP       CA             -2.1340000000       -6.3220000000       -9.5220000000  PROA      12             98.0700000000
       118        12  ASP       HA             -1.0983462817       -6.0774567751       -9.3381923059  PROA      12              0.0000000000
       119        12  ASP       CB             -2.3440000000       -7.8350000000       -9.4490000000  PROA      12             97.8400000000
       120        12  ASP       HB1            -1.8213904217       -8.3119304571      -10.3051971552  PROA      12              0.0000000000
       121        12  ASP       HB2            -3.4313203185       -8.0505537049       -9.5192006121  PROA      12              0.0000000000
       122        12  ASP       CG             -1.8160000000       -8.4470000000       -8.1640000000  PROA      12             96.0700000000
       123        12  ASP       OD1            -0.8990000000       -7.8660000000       -7.5440000000  PROA      12             94.9800000000
       124        12  ASP       OD2            -2.3190000000       -9.5200000000       -7.7680000000  PROA      12             94.6200000000
       125        12  ASP       C              -2.4600000000       -5.8130000000      -10.9250000000  PROA      12             98.3600000000
       126        12  ASP       O              -3.5930000000       -5.4110000000      -11.1970000000  PROA      12             98.3000000000
       127        13  PRO       N              -1.5680000000       -5.9090000000      -11.7440000000  PROA      13             98.2000000000
       128        13  PRO       CD             -0.2310000000       -6.0890000000      -11.5070000000  PROA      13             95.2000000000
       129        13  PRO       HD1            -0.0332165043       -7.1518747365      -11.2537001044  PROA      13              0.0000000000
       130        13  PRO       HD2             0.0950244971       -5.4335460997      -10.6720927802  PROA      13              0.0000000000
       131        13  PRO       CA             -1.9380000000       -5.5850000000      -13.1240000000  PROA      13             98.1800000000
       132        13  PRO       HA             -2.4286488364       -4.6258326236      -13.1665634619  PROA      13              0.0000000000
       133        13  PRO       CB             -0.6040000000       -5.6550000000      -13.8710000000  PROA      13             97.9200000000
       134        13  PRO       HB1            -0.4651484931       -4.7601492365      -14.5144599450  PROA      13              0.0000000000
       135        13  PRO       HB2            -0.5552955340       -6.5649879897      -14.5063172941  PROA      13              0.0000000000
       136        13  PRO       CG              0.4340000000       -5.7020000000      -12.7970000000  PROA      13             95.7300000000
       137        13  PRO       HG1             1.2141653565       -6.4485373835      -13.0583758204  PROA      13              0.0000000000
       138        13  PRO       HG2             0.9127194622       -4.7050900429      -12.6907381451  PROA      13              0.0000000000
       139        13  PRO       C              -2.9440000000       -6.5710000000      -13.7120000000  PROA      13             98.4400000000
       140        13  PRO       O              -3.0190000000       -7.7200000000      -13.2690000000  PROA      13             98.4100000000
       141        14  GLY       N              -3.7330000000       -6.2170000000      -14.6600000000  PROA      14             98.0100000000
       142        14  GLY       HN             -3.7507616235       -5.2649317123      -14.9482072794  PROA      14              0.0000000000
       143        14  GLY       CA             -4.6510000000       -7.0610000000      -15.4080000000  PROA      14             98.0500000000
       144        14  GLY       HA1            -5.2005674218       -6.4282167640      -16.0890653655  PROA      14              0.0000000000
       145        14  GLY       HA2            -5.3253338187       -7.5221179756      -14.7016480193  PROA      14              0.0000000000
       146        14  GLY       C              -3.9500000000       -8.1480000000      -16.2020000000  PROA      14             98.3200000000
       147        14  GLY       O              -2.7480000000       -8.0580000000      -16.4590000000  PROA      14             98.3100000000
       148        15  SER       N              -4.4460000000       -9.1990000000      -16.4040000000  PROA      15             98.3000000000
       149        15  SER       HN             -5.3222065401       -9.4065720484      -15.9818855005  PROA      15              0.0000000000
       150        15  SER       CA             -3.9360000000      -10.2940000000      -17.2240000000  PROA      15             98.2100000000
       151        15  SER       HA             -2.9803584477      -10.5965868749      -16.8223058015  PROA      15              0.0000000000
       152        15  SER       CB             -4.9130000000      -11.4700000000      -17.2150000000  PROA      15             97.8700000000
       153        15  SER       HB1            -4.4615006442      -12.3336277850      -17.7484042883  PROA      15              0.0000000000
       154        15  SER       HB2            -5.8564656980      -11.1745114148      -17.7217383217  PROA      15              0.0000000000
       155        15  SER       OG             -5.2150000000      -11.8640000000      -15.8870000000  PROA      15             94.0400000000
       156        15  SER       HG1            -4.3786923281      -12.1172962297      -15.4894695006  PROA      15              0.0000000000
       157        15  SER       C              -3.6860000000       -9.8410000000      -18.6580000000  PROA      15             98.4100000000
       158        15  SER       O              -4.3470000000       -8.9230000000      -19.1490000000  PROA      15             98.3100000000
       159        16  ASP       N              -2.5890000000      -10.1960000000      -19.3960000000  PROA      16             97.5800000000
       160        16  ASP       HN             -1.9129911037      -10.7844488560      -18.9685241743  PROA      16              0.0000000000
       161        16  ASP       CA             -2.2180000000       -9.8470000000      -20.7650000000  PROA      16             97.0900000000
       162        16  ASP       HA             -2.2379689715       -8.7709315549      -20.8535675626  PROA      16              0.0000000000
       163        16  ASP       CB             -0.8240000000      -10.3820000000      -21.0960000000  PROA      16             95.9300000000
       164        16  ASP       HB1            -0.5921841304      -10.1488223596      -22.1569209759  PROA      16              0.0000000000
       165        16  ASP       HB2            -0.8191111445      -11.4837100174      -20.9550217637  PROA      16              0.0000000000
       166        16  ASP       CG              0.2650000000       -9.7820000000      -20.2240000000  PROA      16             88.4200000000
       167        16  ASP       OD1             0.1090000000       -8.6330000000      -19.7590000000  PROA      16             88.5500000000
       168        16  ASP       OD2             1.2890000000      -10.4640000000      -20.0030000000  PROA      16             89.6900000000
       169        16  ASP       C              -3.2390000000      -10.3850000000      -21.7640000000  PROA      16             97.2300000000
       170        16  ASP       OT1            -4.2239638038      -11.0292942003      -21.3141874961  PROA      16              0.0000000000
       171        16  ASP       OT2            -3.0453855243      -10.1576949657      -22.9881102304  PROA      16              0.0000000000
