PSF EXT CMAP XPLOR

         3 !NTITLE
* GENERATED BY CHARMM-GUI (HTTP://WWW.CHARMM-GUI.ORG) V3.7 ON JUN, 13. 2026. JOB
* READ PDB, MANIPULATE STRUCTURE IF NEEDED, AND GENERATE TOPOLOGY FILE          
*  DATE:     6/13/26      8: 4:15      CREATED BY USER: charmm-gui              

       171 !NATOM
         1 PROA     1        GLY      N        NH3     -0.300000       14.0070           0
         2 PROA     1        GLY      HT1      HC       0.330000       1.00800           0
         3 PROA     1        GLY      HT2      HC       0.330000       1.00800           0
         4 PROA     1        GLY      HT3      HC       0.330000       1.00800           0
         5 PROA     1        GLY      CA       CT2      0.130000       12.0110           0
         6 PROA     1        GLY      HA1      HB2      0.900000E-01   1.00800           0
         7 PROA     1        GLY      HA2      HB2      0.900000E-01   1.00800           0
         8 PROA     1        GLY      C        C        0.510000       12.0110           0
         9 PROA     1        GLY      O        O       -0.510000       15.9994           0
        10 PROA     2        PRO      N        N       -0.290000       14.0070           0
        11 PROA     2        PRO      CD       CP3       0.00000       12.0110           0
        12 PROA     2        PRO      HD1      HA2      0.900000E-01   1.00800           0
        13 PROA     2        PRO      HD2      HA2      0.900000E-01   1.00800           0
        14 PROA     2        PRO      CA       CP1      0.200000E-01   12.0110           0
        15 PROA     2        PRO      HA       HB1      0.900000E-01   1.00800           0
        16 PROA     2        PRO      CB       CP2     -0.180000       12.0110           0
        17 PROA     2        PRO      HB1      HA2      0.900000E-01   1.00800           0
        18 PROA     2        PRO      HB2      HA2      0.900000E-01   1.00800           0
        19 PROA     2        PRO      CG       CP2     -0.180000       12.0110           0
        20 PROA     2        PRO      HG1      HA2      0.900000E-01   1.00800           0
        21 PROA     2        PRO      HG2      HA2      0.900000E-01   1.00800           0
        22 PROA     2        PRO      C        C        0.510000       12.0110           0
        23 PROA     2        PRO      O        O       -0.510000       15.9994           0
        24 PROA     3        GLY      N        NH1     -0.470000       14.0070           0
        25 PROA     3        GLY      HN       H        0.310000       1.00800           0
        26 PROA     3        GLY      CA       CT2     -0.200000E-01   12.0110           0
        27 PROA     3        GLY      HA1      HB2      0.900000E-01   1.00800           0
        28 PROA     3        GLY      HA2      HB2      0.900000E-01   1.00800           0
        29 PROA     3        GLY      C        C        0.510000       12.0110           0
        30 PROA     3        GLY      O        O       -0.510000       15.9994           0
        31 PROA     4        ASP      N        NH1     -0.470000       14.0070           0
        32 PROA     4        ASP      HN       H        0.310000       1.00800           0
        33 PROA     4        ASP      CA       CT1      0.700000E-01   12.0110           0
        34 PROA     4        ASP      HA       HB1      0.900000E-01   1.00800           0
        35 PROA     4        ASP      CB       CT2A    -0.280000       12.0110           0
        36 PROA     4        ASP      HB1      HA2      0.900000E-01   1.00800           0
        37 PROA     4        ASP      HB2      HA2      0.900000E-01   1.00800           0
        38 PROA     4        ASP      CG       CC       0.620000       12.0110           0
        39 PROA     4        ASP      OD1      OC      -0.760000       15.9994           0
        40 PROA     4        ASP      OD2      OC      -0.760000       15.9994           0
        41 PROA     4        ASP      C        C        0.510000       12.0110           0
        42 PROA     4        ASP      O        O       -0.510000       15.9994           0
        43 PROA     5        PRO      N        N       -0.290000       14.0070           0
        44 PROA     5        PRO      CD       CP3       0.00000       12.0110           0
        45 PROA     5        PRO      HD1      HA2      0.900000E-01   1.00800           0
        46 PROA     5        PRO      HD2      HA2      0.900000E-01   1.00800           0
        47 PROA     5        PRO      CA       CP1      0.200000E-01   12.0110           0
        48 PROA     5        PRO      HA       HB1      0.900000E-01   1.00800           0
        49 PROA     5        PRO      CB       CP2     -0.180000       12.0110           0
        50 PROA     5        PRO      HB1      HA2      0.900000E-01   1.00800           0
        51 PROA     5        PRO      HB2      HA2      0.900000E-01   1.00800           0
        52 PROA     5        PRO      CG       CP2     -0.180000       12.0110           0
        53 PROA     5        PRO      HG1      HA2      0.900000E-01   1.00800           0
        54 PROA     5        PRO      HG2      HA2      0.900000E-01   1.00800           0
        55 PROA     5        PRO      C        C        0.510000       12.0110           0
        56 PROA     5        PRO      O        O       -0.510000       15.9994           0
        57 PROA     6        GLY      N        NH1     -0.470000       14.0070           0
        58 PROA     6        GLY      HN       H        0.310000       1.00800           0
        59 PROA     6        GLY      CA       CT2     -0.200000E-01   12.0110           0
        60 PROA     6        GLY      HA1      HB2      0.900000E-01   1.00800           0
        61 PROA     6        GLY      HA2      HB2      0.900000E-01   1.00800           0
        62 PROA     6        GLY      C        C        0.510000       12.0110           0
        63 PROA     6        GLY      O        O       -0.510000       15.9994           0
        64 PROA     7        SER      N        NH1     -0.470000       14.0070           0
        65 PROA     7        SER      HN       H        0.310000       1.00800           0
        66 PROA     7        SER      CA       CT1      0.700000E-01   12.0110           0
        67 PROA     7        SER      HA       HB1      0.900000E-01   1.00800           0
        68 PROA     7        SER      CB       CT2      0.500000E-01   12.0110           0
        69 PROA     7        SER      HB1      HA2      0.900000E-01   1.00800           0
        70 PROA     7        SER      HB2      HA2      0.900000E-01   1.00800           0
        71 PROA     7        SER      OG       OH1     -0.660000       15.9994           0
        72 PROA     7        SER      HG1      H        0.430000       1.00800           0
        73 PROA     7        SER      C        C        0.510000       12.0110           0
        74 PROA     7        SER      O        O       -0.510000       15.9994           0
        75 PROA     8        ASP      N        NH1     -0.470000       14.0070           0
        76 PROA     8        ASP      HN       H        0.310000       1.00800           0
        77 PROA     8        ASP      CA       CT1      0.700000E-01   12.0110           0
        78 PROA     8        ASP      HA       HB1      0.900000E-01   1.00800           0
        79 PROA     8        ASP      CB       CT2A    -0.280000       12.0110           0
        80 PROA     8        ASP      HB1      HA2      0.900000E-01   1.00800           0
        81 PROA     8        ASP      HB2      HA2      0.900000E-01   1.00800           0
        82 PROA     8        ASP      CG       CC       0.620000       12.0110           0
        83 PROA     8        ASP      OD1      OC      -0.760000       15.9994           0
        84 PROA     8        ASP      OD2      OC      -0.760000       15.9994           0
        85 PROA     8        ASP      C        C        0.510000       12.0110           0
        86 PROA     8        ASP      O        O       -0.510000       15.9994           0
        87 PROA     9        GLY      N        NH1     -0.470000       14.0070           0
        88 PROA     9        GLY      HN       H        0.310000       1.00800           0
        89 PROA     9        GLY      CA       CT2     -0.200000E-01   12.0110           0
        90 PROA     9        GLY      HA1      HB2      0.900000E-01   1.00800           0
        91 PROA     9        GLY      HA2      HB2      0.900000E-01   1.00800           0
        92 PROA     9        GLY      C        C        0.510000       12.0110           0
        93 PROA     9        GLY      O        O       -0.510000       15.9994           0
        94 PROA     10       PRO      N        N       -0.290000       14.0070           0
        95 PROA     10       PRO      CD       CP3       0.00000       12.0110           0
        96 PROA     10       PRO      HD1      HA2      0.900000E-01   1.00800           0
        97 PROA     10       PRO      HD2      HA2      0.900000E-01   1.00800           0
        98 PROA     10       PRO      CA       CP1      0.200000E-01   12.0110           0
        99 PROA     10       PRO      HA       HB1      0.900000E-01   1.00800           0
       100 PROA     10       PRO      CB       CP2     -0.180000       12.0110           0
       101 PROA     10       PRO      HB1      HA2      0.900000E-01   1.00800           0
       102 PROA     10       PRO      HB2      HA2      0.900000E-01   1.00800           0
       103 PROA     10       PRO      CG       CP2     -0.180000       12.0110           0
       104 PROA     10       PRO      HG1      HA2      0.900000E-01   1.00800           0
       105 PROA     10       PRO      HG2      HA2      0.900000E-01   1.00800           0
       106 PROA     10       PRO      C        C        0.510000       12.0110           0
       107 PROA     10       PRO      O        O       -0.510000       15.9994           0
       108 PROA     11       GLY      N        NH1     -0.470000       14.0070           0
       109 PROA     11       GLY      HN       H        0.310000       1.00800           0
       110 PROA     11       GLY      CA       CT2     -0.200000E-01   12.0110           0
       111 PROA     11       GLY      HA1      HB2      0.900000E-01   1.00800           0
       112 PROA     11       GLY      HA2      HB2      0.900000E-01   1.00800           0
       113 PROA     11       GLY      C        C        0.510000       12.0110           0
       114 PROA     11       GLY      O        O       -0.510000       15.9994           0
       115 PROA     12       ASP      N        NH1     -0.470000       14.0070           0
       116 PROA     12       ASP      HN       H        0.310000       1.00800           0
       117 PROA     12       ASP      CA       CT1      0.700000E-01   12.0110           0
       118 PROA     12       ASP      HA       HB1      0.900000E-01   1.00800           0
       119 PROA     12       ASP      CB       CT2A    -0.280000       12.0110           0
       120 PROA     12       ASP      HB1      HA2      0.900000E-01   1.00800           0
       121 PROA     12       ASP      HB2      HA2      0.900000E-01   1.00800           0
       122 PROA     12       ASP      CG       CC       0.620000       12.0110           0
       123 PROA     12       ASP      OD1      OC      -0.760000       15.9994           0
       124 PROA     12       ASP      OD2      OC      -0.760000       15.9994           0
       125 PROA     12       ASP      C        C        0.510000       12.0110           0
       126 PROA     12       ASP      O        O       -0.510000       15.9994           0
       127 PROA     13       PRO      N        N       -0.290000       14.0070           0
       128 PROA     13       PRO      CD       CP3       0.00000       12.0110           0
       129 PROA     13       PRO      HD1      HA2      0.900000E-01   1.00800           0
       130 PROA     13       PRO      HD2      HA2      0.900000E-01   1.00800           0
       131 PROA     13       PRO      CA       CP1      0.200000E-01   12.0110           0
       132 PROA     13       PRO      HA       HB1      0.900000E-01   1.00800           0
       133 PROA     13       PRO      CB       CP2     -0.180000       12.0110           0
       134 PROA     13       PRO      HB1      HA2      0.900000E-01   1.00800           0
       135 PROA     13       PRO      HB2      HA2      0.900000E-01   1.00800           0
       136 PROA     13       PRO      CG       CP2     -0.180000       12.0110           0
       137 PROA     13       PRO      HG1      HA2      0.900000E-01   1.00800           0
       138 PROA     13       PRO      HG2      HA2      0.900000E-01   1.00800           0
       139 PROA     13       PRO      C        C        0.510000       12.0110           0
       140 PROA     13       PRO      O        O       -0.510000       15.9994           0
       141 PROA     14       GLY      N        NH1     -0.470000       14.0070           0
       142 PROA     14       GLY      HN       H        0.310000       1.00800           0
       143 PROA     14       GLY      CA       CT2     -0.200000E-01   12.0110           0
       144 PROA     14       GLY      HA1      HB2      0.900000E-01   1.00800           0
       145 PROA     14       GLY      HA2      HB2      0.900000E-01   1.00800           0
       146 PROA     14       GLY      C        C        0.510000       12.0110           0
       147 PROA     14       GLY      O        O       -0.510000       15.9994           0
       148 PROA     15       SER      N        NH1     -0.470000       14.0070           0
       149 PROA     15       SER      HN       H        0.310000       1.00800           0
       150 PROA     15       SER      CA       CT1      0.700000E-01   12.0110           0
       151 PROA     15       SER      HA       HB1      0.900000E-01   1.00800           0
       152 PROA     15       SER      CB       CT2      0.500000E-01   12.0110           0
       153 PROA     15       SER      HB1      HA2      0.900000E-01   1.00800           0
       154 PROA     15       SER      HB2      HA2      0.900000E-01   1.00800           0
       155 PROA     15       SER      OG       OH1     -0.660000       15.9994           0
       156 PROA     15       SER      HG1      H        0.430000       1.00800           0
       157 PROA     15       SER      C        C        0.510000       12.0110           0
       158 PROA     15       SER      O        O       -0.510000       15.9994           0
       159 PROA     16       ASP      N        NH1     -0.470000       14.0070           0
       160 PROA     16       ASP      HN       H        0.310000       1.00800           0
       161 PROA     16       ASP      CA       CT1      0.700000E-01   12.0110           0
       162 PROA     16       ASP      HA       HB1      0.900000E-01   1.00800           0
       163 PROA     16       ASP      CB       CT2A    -0.280000       12.0110           0
       164 PROA     16       ASP      HB1      HA2      0.900000E-01   1.00800           0
       165 PROA     16       ASP      HB2      HA2      0.900000E-01   1.00800           0
       166 PROA     16       ASP      CG       CC       0.620000       12.0110           0
       167 PROA     16       ASP      OD1      OC      -0.760000       15.9994           0
       168 PROA     16       ASP      OD2      OC      -0.760000       15.9994           0
       169 PROA     16       ASP      C        CC       0.340000       12.0110           0
       170 PROA     16       ASP      OT1      OC      -0.670000       15.9994           0
       171 PROA     16       ASP      OT2      OC      -0.670000       15.9994           0

       174 !NBOND: bonds
         2         1         3         1         4         1         1         5
         8         5         8        10         5         6         5         7
         9         8        22        14        22        24        10        14
        14        16        16        19        19        11        10        11
        15        14        20        19        21        19        12        11
        13        11        17        16        18        16        23        22
        24        25        24        26        29        26        29        31
        26        27        26        28        30        29        35        33
        38        35        40        38        31        32        31        33
        41        33        41        43        33        34        35        36
        35        37        42        41        38        39        55        47
        55        57        43        47        47        49        49        52
        52        44        43        44        48        47        53        52
        54        52        45        44        46        44        50        49
        51        49        56        55        57        58        57        59
        62        59        62        64        59        60        59        61
        63        62        68        66        71        68        64        65
        64        66        73        66        73        75        66        67
        68        69        68        70        71        72        74        73
        79        77        82        79        84        82        75        76
        75        77        85        77        85        87        77        78
        79        80        79        81        86        85        82        83
        87        88        87        89        92        89        92        94
        89        90        89        91        93        92       106        98
       106       108        94        98        98       100       100       103
       103        95        94        95        99        98       104       103
       105       103        96        95        97        95       101       100
       102       100       107       106       108       109       108       110
       113       110       113       115       110       111       110       112
       114       113       119       117       122       119       124       122
       115       116       115       117       125       117       125       127
       117       118       119       120       119       121       126       125
       122       123       139       131       139       141       127       131
       131       133       133       136       136       128       127       128
       132       131       137       136       138       136       129       128
       130       128       134       133       135       133       140       139
       141       142       141       143       146       143       146       148
       143       144       143       145       147       146       152       150
       155       152       148       149       148       150       157       150
       157       159       150       151       152       153       152       154
       155       156       158       157       163       161       166       163
       168       166       159       160       159       161       169       161
       161       162       163       164       163       165       166       167
       169       171       169       170

       317 !NTHETA: angles
         2         1         3         2         1         4         2         1         5
         3         1         4         3         1         5         4         1         5
         1         5         6         1         5         7         1         5         8
         6         5         7         6         5         8         7         5         8
         5         8         9         5         8        10         9         8        10
         8        10        11         8        10        14        11        10        14
        10        11        12        10        11        13        10        11        19
        12        11        13        12        11        19        13        11        19
        10        14        15        10        14        16        10        14        22
        15        14        16        15        14        22        16        14        22
        14        16        17        14        16        18        14        16        19
        17        16        18        17        16        19        18        16        19
        11        19        16        11        19        20        11        19        21
        16        19        20        16        19        21        20        19        21
        14        22        23        14        22        24        23        22        24
        22        24        25        22        24        26        25        24        26
        24        26        27        24        26        28        24        26        29
        27        26        28        27        26        29        28        26        29
        26        29        30        26        29        31        30        29        31
        29        31        32        29        31        33        32        31        33
        31        33        34        31        33        35        31        33        41
        34        33        35        34        33        41        35        33        41
        33        35        36        33        35        37        33        35        38
        36        35        37        36        35        38        37        35        38
        35        38        39        35        38        40        39        38        40
        33        41        42        33        41        43        42        41        43
        41        43        44        41        43        47        44        43        47
        43        44        45        43        44        46        43        44        52
        45        44        46        45        44        52        46        44        52
        43        47        48        43        47        49        43        47        55
        48        47        49        48        47        55        49        47        55
        47        49        50        47        49        51        47        49        52
        50        49        51        50        49        52        51        49        52
        44        52        49        44        52        53        44        52        54
        49        52        53        49        52        54        53        52        54
        47        55        56        47        55        57        56        55        57
        55        57        58        55        57        59        58        57        59
        57        59        60        57        59        61        57        59        62
        60        59        61        60        59        62        61        59        62
        59        62        63        59        62        64        63        62        64
        62        64        65        62        64        66        65        64        66
        64        66        67        64        66        68        64        66        73
        67        66        68        67        66        73        68        66        73
        66        68        69        66        68        70        66        68        71
        69        68        70        69        68        71        70        68        71
        68        71        72        66        73        74        66        73        75
        74        73        75        73        75        76        73        75        77
        76        75        77        75        77        78        75        77        79
        75        77        85        78        77        79        78        77        85
        79        77        85        77        79        80        77        79        81
        77        79        82        80        79        81        80        79        82
        81        79        82        79        82        83        79        82        84
        83        82        84        77        85        86        77        85        87
        86        85        87        85        87        88        85        87        89
        88        87        89        87        89        90        87        89        91
        87        89        92        90        89        91        90        89        92
        91        89        92        89        92        93        89        92        94
        93        92        94        92        94        95        92        94        98
        95        94        98        94        95        96        94        95        97
        94        95       103        96        95        97        96        95       103
        97        95       103        94        98        99        94        98       100
        94        98       106        99        98       100        99        98       106
       100        98       106        98       100       101        98       100       102
        98       100       103       101       100       102       101       100       103
       102       100       103        95       103       100        95       103       104
        95       103       105       100       103       104       100       103       105
       104       103       105        98       106       107        98       106       108
       107       106       108       106       108       109       106       108       110
       109       108       110       108       110       111       108       110       112
       108       110       113       111       110       112       111       110       113
       112       110       113       110       113       114       110       113       115
       114       113       115       113       115       116       113       115       117
       116       115       117       115       117       118       115       117       119
       115       117       125       118       117       119       118       117       125
       119       117       125       117       119       120       117       119       121
       117       119       122       120       119       121       120       119       122
       121       119       122       119       122       123       119       122       124
       123       122       124       117       125       126       117       125       127
       126       125       127       125       127       128       125       127       131
       128       127       131       127       128       129       127       128       130
       127       128       136       129       128       130       129       128       136
       130       128       136       127       131       132       127       131       133
       127       131       139       132       131       133       132       131       139
       133       131       139       131       133       134       131       133       135
       131       133       136       134       133       135       134       133       136
       135       133       136       128       136       133       128       136       137
       128       136       138       133       136       137       133       136       138
       137       136       138       131       139       140       131       139       141
       140       139       141       139       141       142       139       141       143
       142       141       143       141       143       144       141       143       145
       141       143       146       144       143       145       144       143       146
       145       143       146       143       146       147       143       146       148
       147       146       148       146       148       149       146       148       150
       149       148       150       148       150       151       148       150       152
       148       150       157       151       150       152       151       150       157
       152       150       157       150       152       153       150       152       154
       150       152       155       153       152       154       153       152       155
       154       152       155       152       155       156       150       157       158
       150       157       159       158       157       159       157       159       160
       157       159       161       160       159       161       159       161       162
       159       161       163       159       161       169       162       161       163
       162       161       169       163       161       169       161       163       164
       161       163       165       161       163       166       164       163       165
       164       163       166       165       163       166       163       166       167
       163       166       168       167       166       168       161       169       170
       161       169       171       170       169       171

       471 !NPHI: dihedrals
         1         5         8         9         1         5         8        10
         2         1         5         6         2         1         5         7
         2         1         5         8         3         1         5         6
         3         1         5         7         3         1         5         8
         4         1         5         6         4         1         5         7
         4         1         5         8         5         8        10        11
         5         8        10        14         6         5         8         9
         6         5         8        10         7         5         8         9
         7         5         8        10         8        10        11        12
         8        10        11        13         8        10        11        19
         8        10        14        15         8        10        14        16
         8        10        14        22         9         8        10        11
         9         8        10        14        10        11        19        16
        10        11        19        20        10        11        19        21
        10        14        16        17        10        14        16        18
        10        14        16        19        10        14        22        23
        10        14        22        24        11        10        14        15
        11        10        14        16        11        10        14        22
        11        19        16        14        11        19        16        17
        11        19        16        18        12        11        10        14
        12        11        19        16        12        11        19        20
        12        11        19        21        13        11        10        14
        13        11        19        16        13        11        19        20
        13        11        19        21        14        10        11        19
        14        16        19        20        14        16        19        21
        14        22        24        25        14        22        24        26
        15        14        16        17        15        14        16        18
        15        14        16        19        15        14        22        23
        15        14        22        24        16        14        22        23
        16        14        22        24        17        16        14        22
        17        16        19        20        17        16        19        21
        18        16        14        22        18        16        19        20
        18        16        19        21        19        16        14        22
        22        24        26        27        22        24        26        28
        22        24        26        29        23        22        24        25
        23        22        24        26        24        26        29        30
        24        26        29        31        25        24        26        27
        25        24        26        28        25        24        26        29
        26        29        31        32        26        29        31        33
        27        26        29        30        27        26        29        31
        28        26        29        30        28        26        29        31
        29        31        33        34        29        31        33        35
        29        31        33        41        30        29        31        32
        30        29        31        33        31        33        35        36
        31        33        35        37        31        33        35        38
        31        33        41        42        31        33        41        43
        32        31        33        34        32        31        33        35
        32        31        33        41        33        35        38        39
        33        35        38        40        33        41        43        44
        33        41        43        47        34        33        35        36
        34        33        35        37        34        33        35        38
        34        33        41        42        34        33        41        43
        35        33        41        42        35        33        41        43
        36        35        33        41        36        35        38        39
        36        35        38        40        37        35        33        41
        37        35        38        39        37        35        38        40
        38        35        33        41        41        43        44        45
        41        43        44        46        41        43        44        52
        41        43        47        48        41        43        47        49
        41        43        47        55        42        41        43        44
        42        41        43        47        43        44        52        49
        43        44        52        53        43        44        52        54
        43        47        49        50        43        47        49        51
        43        47        49        52        43        47        55        56
        43        47        55        57        44        43        47        48
        44        43        47        49        44        43        47        55
        44        52        49        47        44        52        49        50
        44        52        49        51        45        44        43        47
        45        44        52        49        45        44        52        53
        45        44        52        54        46        44        43        47
        46        44        52        49        46        44        52        53
        46        44        52        54        47        43        44        52
        47        49        52        53        47        49        52        54
        47        55        57        58        47        55        57        59
        48        47        49        50        48        47        49        51
        48        47        49        52        48        47        55        56
        48        47        55        57        49        47        55        56
        49        47        55        57        50        49        47        55
        50        49        52        53        50        49        52        54
        51        49        47        55        51        49        52        53
        51        49        52        54        52        49        47        55
        55        57        59        60        55        57        59        61
        55        57        59        62        56        55        57        58
        56        55        57        59        57        59        62        63
        57        59        62        64        58        57        59        60
        58        57        59        61        58        57        59        62
        59        62        64        65        59        62        64        66
        60        59        62        63        60        59        62        64
        61        59        62        63        61        59        62        64
        62        64        66        67        62        64        66        68
        62        64        66        73        63        62        64        65
        63        62        64        66        64        66        68        69
        64        66        68        70        64        66        68        71
        64        66        73        74        64        66        73        75
        65        64        66        67        65        64        66        68
        65        64        66        73        66        68        71        72
        66        73        75        76        66        73        75        77
        67        66        68        69        67        66        68        70
        67        66        68        71        67        66        73        74
        67        66        73        75        68        66        73        74
        68        66        73        75        69        68        66        73
        69        68        71        72        70        68        66        73
        70        68        71        72        71        68        66        73
        73        75        77        78        73        75        77        79
        73        75        77        85        74        73        75        76
        74        73        75        77        75        77        79        80
        75        77        79        81        75        77        79        82
        75        77        85        86        75        77        85        87
        76        75        77        78        76        75        77        79
        76        75        77        85        77        79        82        83
        77        79        82        84        77        85        87        88
        77        85        87        89        78        77        79        80
        78        77        79        81        78        77        79        82
        78        77        85        86        78        77        85        87
        79        77        85        86        79        77        85        87
        80        79        77        85        80        79        82        83
        80        79        82        84        81        79        77        85
        81        79        82        83        81        79        82        84
        82        79        77        85        85        87        89        90
        85        87        89        91        85        87        89        92
        86        85        87        88        86        85        87        89
        87        89        92        93        87        89        92        94
        88        87        89        90        88        87        89        91
        88        87        89        92        89        92        94        95
        89        92        94        98        90        89        92        93
        90        89        92        94        91        89        92        93
        91        89        92        94        92        94        95        96
        92        94        95        97        92        94        95       103
        92        94        98        99        92        94        98       100
        92        94        98       106        93        92        94        95
        93        92        94        98        94        95       103       100
        94        95       103       104        94        95       103       105
        94        98       100       101        94        98       100       102
        94        98       100       103        94        98       106       107
        94        98       106       108        95        94        98        99
        95        94        98       100        95        94        98       106
        95       103       100        98        95       103       100       101
        95       103       100       102        96        95        94        98
        96        95       103       100        96        95       103       104
        96        95       103       105        97        95        94        98
        97        95       103       100        97        95       103       104
        97        95       103       105        98        94        95       103
        98       100       103       104        98       100       103       105
        98       106       108       109        98       106       108       110
        99        98       100       101        99        98       100       102
        99        98       100       103        99        98       106       107
        99        98       106       108       100        98       106       107
       100        98       106       108       101       100        98       106
       101       100       103       104       101       100       103       105
       102       100        98       106       102       100       103       104
       102       100       103       105       103       100        98       106
       106       108       110       111       106       108       110       112
       106       108       110       113       107       106       108       109
       107       106       108       110       108       110       113       114
       108       110       113       115       109       108       110       111
       109       108       110       112       109       108       110       113
       110       113       115       116       110       113       115       117
       111       110       113       114       111       110       113       115
       112       110       113       114       112       110       113       115
       113       115       117       118       113       115       117       119
       113       115       117       125       114       113       115       116
       114       113       115       117       115       117       119       120
       115       117       119       121       115       117       119       122
       115       117       125       126       115       117       125       127
       116       115       117       118       116       115       117       119
       116       115       117       125       117       119       122       123
       117       119       122       124       117       125       127       128
       117       125       127       131       118       117       119       120
       118       117       119       121       118       117       119       122
       118       117       125       126       118       117       125       127
       119       117       125       126       119       117       125       127
       120       119       117       125       120       119       122       123
       120       119       122       124       121       119       117       125
       121       119       122       123       121       119       122       124
       122       119       117       125       125       127       128       129
       125       127       128       130       125       127       128       136
       125       127       131       132       125       127       131       133
       125       127       131       139       126       125       127       128
       126       125       127       131       127       128       136       133
       127       128       136       137       127       128       136       138
       127       131       133       134       127       131       133       135
       127       131       133       136       127       131       139       140
       127       131       139       141       128       127       131       132
       128       127       131       133       128       127       131       139
       128       136       133       131       128       136       133       134
       128       136       133       135       129       128       127       131
       129       128       136       133       129       128       136       137
       129       128       136       138       130       128       127       131
       130       128       136       133       130       128       136       137
       130       128       136       138       131       127       128       136
       131       133       136       137       131       133       136       138
       131       139       141       142       131       139       141       143
       132       131       133       134       132       131       133       135
       132       131       133       136       132       131       139       140
       132       131       139       141       133       131       139       140
       133       131       139       141       134       133       131       139
       134       133       136       137       134       133       136       138
       135       133       131       139       135       133       136       137
       135       133       136       138       136       133       131       139
       139       141       143       144       139       141       143       145
       139       141       143       146       140       139       141       142
       140       139       141       143       141       143       146       147
       141       143       146       148       142       141       143       144
       142       141       143       145       142       141       143       146
       143       146       148       149       143       146       148       150
       144       143       146       147       144       143       146       148
       145       143       146       147       145       143       146       148
       146       148       150       151       146       148       150       152
       146       148       150       157       147       146       148       149
       147       146       148       150       148       150       152       153
       148       150       152       154       148       150       152       155
       148       150       157       158       148       150       157       159
       149       148       150       151       149       148       150       152
       149       148       150       157       150       152       155       156
       150       157       159       160       150       157       159       161
       151       150       152       153       151       150       152       154
       151       150       152       155       151       150       157       158
       151       150       157       159       152       150       157       158
       152       150       157       159       153       152       150       157
       153       152       155       156       154       152       150       157
       154       152       155       156       155       152       150       157
       157       159       161       162       157       159       161       163
       157       159       161       169       158       157       159       160
       158       157       159       161       159       161       163       164
       159       161       163       165       159       161       163       166
       159       161       169       170       159       161       169       171
       160       159       161       162       160       159       161       163
       160       159       161       169       161       163       166       167
       161       163       166       168       162       161       163       164
       162       161       163       165       162       161       163       166
       162       161       169       170       162       161       169       171
       163       161       169       170       163       161       169       171
       164       163       161       169       164       163       166       167
       164       163       166       168       165       163       161       169
       165       163       166       167       165       163       166       168
       166       163       161       169

        35 !NIMPHI: impropers
         8         5        10         9        10         8        14        11
        22        14        24        23        24        22        26        25
        29        26        31        30        31        29        33        32
        41        33        43        42        38        35        40        39
        43        41        47        44        55        47        57        56
        57        55        59        58        62        59        64        63
        64        62        66        65        73        66        75        74
        75        73        77        76        85        77        87        86
        82        79        84        83        87        85        89        88
        92        89        94        93        94        92        98        95
       106        98       108       107       108       106       110       109
       113       110       115       114       115       113       117       116
       125       117       127       126       122       119       124       123
       127       125       131       128       139       131       141       140
       141       139       143       142       146       143       148       147
       148       146       150       149       157       150       159       158
       159       157       161       160       166       163       168       167
       169       161       171       170

        16 !NDON: donors
         1         2         1         3         1         4        24        25
        31        32        57        58        64        65        71        72
        75        76        87        88       108       109       115       116
       141       142       148       149       155       156       159       160

        27 !NACC: acceptors
         9         8        23        22        30        29        39        38
        40        38        42        41        56        55        63        62
        71         0        74        73        83        82        84        82
        86        85        93        92       107       106       114       113
       123       122       124       122       126       125       140       139
       147       146       155         0       158       157       167       166
       168       166       170       169       171       169

         0 !NNB

         0         0         0         0         0         0         0         0
         0         0         0         0         0         0         0         0
         0         0         0         0         0         0         0         0
         0         0         0         0         0         0         0         0
         0         0         0         0         0         0         0         0
         0         0         0         0         0         0         0         0
         0         0         0         0         0         0         0         0
         0         0         0         0         0         0         0         0
         0         0         0         0         0         0         0         0
         0         0         0         0         0         0         0         0
         0         0         0         0         0         0         0         0
         0         0         0         0         0         0         0         0
         0         0         0         0         0         0         0         0
         0         0         0         0         0         0         0         0
         0         0         0         0         0         0         0         0
         0         0         0         0         0         0         0         0
         0         0         0         0         0         0         0         0
         0         0         0         0         0         0         0         0
         0         0         0         0         0         0         0         0
         0         0         0         0         0         0         0         0
         0         0         0         0         0         0         0         0
         0         0         0

        46         0 !NGRP NST2
         0         2         0         7         1         0         9         1         0
        15         1         0        18         1         0        21         1         0
        23         1         0        28         1         0        30         1         0
        34         2         0        40         1         0        42         1         0
        48         1         0        51         1         0        54         1         0
        56         1         0        61         1         0        63         1         0
        67         1         0        72         1         0        74         1         0
        78         2         0        84         1         0        86         1         0
        91         1         0        93         1         0        99         1         0
       102         1         0       105         1         0       107         1         0
       112         1         0       114         1         0       118         2         0
       124         1         0       126         1         0       132         1         0
       135         1         0       138         1         0       140         1         0
       145         1         0       147         1         0       151         1         0
       156         1         0       158         1         0       162         2         0
       168         2         0

         0         0 !NUMLP NUMLPH

        14 !NCRTERM: cross-terms
         8        10        14        22        10        14        22        24
        22        24        26        29        24        26        29        31
        29        31        33        41        31        33        41        43
        41        43        47        55        43        47        55        57
        55        57        59        62        57        59        62        64
        62        64        66        73        64        66        73        75
        73        75        77        85        75        77        85        87
        85        87        89        92        87        89        92        94
        92        94        98       106        94        98       106       108
       106       108       110       113       108       110       113       115
       113       115       117       125       115       117       125       127
       125       127       131       139       127       131       139       141
       139       141       143       146       141       143       146       148
       146       148       150       157       148       150       157       159
