Title
29212
    1ASP      N    1   2.478   1.654   4.053  0.4150 -0.0256  0.0830
    1ASP    HT1    2   2.521   1.583   4.115 -0.9158 -0.6677  0.3128
    1ASP    HT2    3   2.450   1.730   4.118  2.4688  1.9353 -1.1716
    1ASP    HT3    4   2.550   1.692   3.989  0.6922 -1.9642 -0.8187
    1ASP     CA    5   2.361   1.594   3.985  0.0316 -0.6128  1.0790
    1ASP     HA    6   2.388   1.528   3.904  0.4201 -0.3590  1.0005
    1ASP     CB    7   2.268   1.529   4.094 -0.3562 -0.5681  0.2413
    1ASP    HB1    8   2.177   1.486   4.047  0.6943 -0.8818 -1.5787
    1ASP    HB2    9   2.225   1.602   4.166  0.7645  0.4193 -0.0632
    1ASP     CG   10   2.340   1.421   4.174 -0.0090  0.2403 -0.5967
    1ASP    OD1   11   2.449   1.372   4.133 -0.1695 -0.2640  0.1271
    1ASP    OD2   12   2.288   1.384   4.285  0.3629  0.0461  0.3389
    1ASP      C   13   2.297   1.709   3.905  0.6188 -0.1905 -0.6755
    1ASP      O   14   2.355   1.777   3.819  0.7339  0.7408 -0.0974
    2GLY      N   15   2.168   1.746   3.922  0.0617  0.2701 -0.0882
    2GLY     HN   16   2.110   1.698   3.988 -0.0653 -0.6080 -0.8059
    2GLY     CA   17   2.099   1.865   3.862 -0.1671 -0.1128  0.2122
    2GLY    HA1   18   1.992   1.866   3.877 -0.1653  0.0275  0.2134
    2GLY    HA2   19   2.119   1.861   3.756 -0.9055 -1.6509  0.0932
    2GLY      C   20   2.155   2.002   3.914  0.1215  0.5852  0.2571
    2GLY      O   21   2.230   2.003   4.018  0.5498 -0.1809  1.2807
    3ASP      N   22   2.124   2.110   3.845  0.1078 -0.1149  0.3062
    3ASP     HN   23   2.051   2.115   3.777 -0.3945 -0.2878  0.8255
    3ASP     CA   24   2.187   2.237   3.876  0.4774  1.1966  0.4025
    3ASP     HA   25   2.224   2.237   3.977 -1.5803 -0.3092  1.2049
    3ASP     CB   26   2.310   2.256   3.777  0.4776  0.2851 -0.2485
    3ASP    HB1   27   2.266   2.290   3.681  0.2053  0.5168 -0.0436
    3ASP    HB2   28   2.364   2.161   3.759  0.0963 -0.4944  2.3362
    3ASP     CG   29   2.412   2.353   3.841  0.3030 -0.5156  0.0916
    3ASP    OD1   30   2.397   2.475   3.825  0.1516  0.0744 -0.0837
    3ASP    OD2   31   2.495   2.307   3.926  0.0930 -0.4540 -1.3996
    3ASP      C   32   2.084   2.350   3.861  0.9187 -0.5355 -0.4216
    3ASP      O   33   1.961   2.340   3.842 -0.2267 -0.3474 -0.3818
    4GLY      N   34   2.123   2.481   3.893 -0.4992  0.1565  0.2141
    4GLY     HN   35   2.221   2.496   3.905 -0.2900  0.4539 -1.5329
    4GLY     CA   36   2.053   2.604   3.892 -0.2488  0.4983  0.5286
    4GLY    HA1   37   2.111   2.677   3.946  0.8424  1.4868 -1.8266
    4GLY    HA2   38   1.952   2.581   3.923  0.1340 -0.1405  1.3298
    4GLY      C   39   2.055   2.660   3.753  0.3277 -0.2367  0.0288
    4GLY      O   40   2.095   2.594   3.659 -0.3991  0.4103 -0.6147
    5PRO      N   41   2.015   2.792   3.742  0.2901  0.5845 -0.5648
    5PRO     CD   42   1.932   2.870   3.830  0.4215  0.1554 -0.7281
    5PRO    HD1   43   1.993   2.897   3.919 -0.5076  1.2018 -0.3910
    5PRO    HD2   44   1.833   2.822   3.850  0.2784  0.5748 -0.4255
    5PRO     CA   45   2.076   2.875   3.639  0.1037 -0.4939 -0.4231
    5PRO     HA   46   2.043   2.842   3.542 -0.8902 -0.2859 -0.1746
    5PRO     CB   47   2.022   3.014   3.674 -0.4365 -0.9840 -0.6022
    5PRO    HB1   48   2.008   3.077   3.583 -0.5296  0.4829  0.3917
    5PRO    HB2   49   2.098   3.072   3.730  0.6929 -1.1410 -1.9257
    5PRO     CG   50   1.899   2.991   3.753  0.5972 -0.3863  0.0648
    5PRO    HG1   51   1.869   3.065   3.831 -4.4856 -2.7613  0.8395
    5PRO    HG2   52   1.819   2.968   3.680 -2.1358  0.6025  2.5295
    5PRO      C   53   2.225   2.870   3.635  0.1993 -0.2189 -0.3624
    5PRO      O   54   2.286   2.864   3.740  0.5828  0.8019 -0.4985
    6GLY      N   55   2.295   2.876   3.521 -0.1291  0.1164 -0.5707
    6GLY     HN   56   2.247   2.883   3.434 -0.0881 -1.4696 -0.7415
    6GLY     CA   57   2.436   2.894   3.506  0.0799 -0.0348 -0.7221
    6GLY    HA1   58   2.448   2.905   3.400  0.8362  0.5248 -0.5824
    6GLY    HA2   59   2.475   2.804   3.551 -0.8782  0.2013  0.6735
    6GLY      C   60   2.487   3.026   3.572  0.7343  0.4047  0.2773
    6GLY      O   61   2.401   3.109   3.595 -0.1683  0.3630  0.5610
    7ASP      N   62   2.614   3.044   3.585  0.5873 -0.2993  0.1632
    7ASP     HN   63   2.678   2.976   3.550  1.3427 -0.6052  1.9942
    7ASP     CA   64   2.674   3.171   3.621  0.7083 -0.3818  0.1738
    7ASP     HA   65   2.636   3.192   3.720  1.0306  1.2026 -0.0107
    7ASP     CB   66   2.826   3.155   3.613  0.5514  0.5043 -0.8218
    7ASP    HB1   67   2.870   3.254   3.638 -0.6602  1.1122 -1.0217
    7ASP    HB2   68   2.861   3.112   3.517  0.6933  0.0406 -0.5636
    7ASP     CG   69   2.871   3.054   3.727 -0.8942 -0.0364  0.1671
    7ASP    OD1   70   2.994   3.038   3.722 -0.2743  0.0285  0.2013
    7ASP    OD2   71   2.794   3.000   3.808  0.9173 -0.0920 -0.5781
    7ASP      C   72   2.630   3.281   3.522 -0.2835 -0.4321  0.3108
    7ASP      O   73   2.611   3.243   3.409  0.3254  0.3284  0.1584
    8PRO      N   74   2.603   3.414   3.552 -0.7528 -0.0116 -0.1391
    8PRO     CD   75   2.621   3.459   3.694  0.2151  0.5530  0.6825
    8PRO    HD1   76   2.728   3.456   3.725  0.2089 -0.2445  0.6627
    8PRO    HD2   77   2.558   3.396   3.761  0.3880 -0.8625 -0.4289
    8PRO     CA   78   2.592   3.522   3.460 -0.2573 -0.3999 -0.3732
    8PRO     HA   79   2.491   3.512   3.422 -0.4088 -1.5835  0.2848
    8PRO     CB   80   2.617   3.652   3.548 -0.0914 -0.1653 -0.5182
    8PRO    HB1   81   2.559   3.739   3.512  0.0243  0.4320  0.6798
    8PRO    HB2   82   2.728   3.661   3.545 -0.1643  1.3660  0.3277
    8PRO     CG   83   2.561   3.600   3.684  0.5880  0.8075 -0.1888
    8PRO    HG1   84   2.565   3.671   3.769 -1.4925 -0.2569  0.8756
    8PRO    HG2   85   2.453   3.597   3.658  0.6160  2.3168 -0.5623
    8PRO      C   86   2.682   3.518   3.335 -0.8634 -0.0646 -0.4891
    8PRO      O   87   2.805   3.493   3.351  0.0808  0.1279  0.5584
    9GLY      N   88   2.628   3.538   3.214  0.3096  0.6352 -0.6736
    9GLY     HN   89   2.530   3.559   3.212  0.2467  0.3273 -1.1279
    9GLY     CA   90   2.690   3.554   3.088 -0.4651 -0.2387  0.0927
    9GLY    HA1   91   2.617   3.529   3.012 -2.7169 -0.3965  2.2006
    9GLY    HA2   92   2.772   3.483   3.089 -1.3463 -1.3561  2.7546
    9GLY      C   93   2.750   3.692   3.064  0.3320 -0.1747  0.4298
    9GLY      O   94   2.776   3.769   3.155  0.1618  0.7485  0.1325
   10ASP      N   95   2.767   3.729   2.935  0.0118 -0.4370 -0.1331
   10ASP     HN   96   2.743   3.675   2.855  2.6868  0.8895 -2.0085
   10ASP     CA   97   2.842   3.845   2.898 -0.4868 -0.3596  0.0671
   10ASP     HA   98   2.933   3.851   2.955 -0.9845 -0.9039  0.9311
   10ASP     CB   99   2.879   3.825   2.754  0.2122 -0.0328 -0.1311
   10ASP    HB1  100   2.898   3.929   2.719 -0.6977  1.2121  2.7583
   10ASP    HB2  101   2.793   3.787   2.694 -1.6113 -0.3703  2.5437
   10ASP     CG  102   3.005   3.738   2.742  0.1643 -0.3314 -0.4067
   10ASP    OD1  103   3.020   3.680   2.626 -0.6474 -0.6923  0.2414
   10ASP    OD2  104   3.083   3.740   2.838 -0.2682 -0.3593 -0.8256
   10ASP      C  105   2.777   3.980   2.919  0.4768 -0.7068 -0.9184
   10ASP      O  106   2.654   3.993   2.920 -0.0693  0.0741 -0.5993
   11GLY      N  107   2.860   4.085   2.944  0.1456 -0.0331  0.1704
   11GLY     HN  108   2.958   4.069   2.951  0.3446  1.4740  1.5128
   11GLY     CA  109   2.807   4.207   2.996 -0.2009 -0.1324  0.2559
   11GLY    HA1  110   2.723   4.236   2.935 -0.3762 -0.5924  0.2804
   11GLY    HA2  111   2.875   4.291   3.003 -0.9316  0.4134  1.1359
   11GLY      C  112   2.753   4.193   3.139 -0.1773  0.9325  0.4381
   11GLY    OT1  113   2.824   4.166   3.240 -0.4738  0.1153  0.2175
   11GLY    OT2  114   2.627   4.207   3.146  0.5773 -0.2526 -0.9150
   12SOD    SOD  115   2.388   2.994   3.045  0.2331  0.5022 -0.3583
   13SOD    SOD  116   4.613   0.800   4.864 -0.5481  0.0697 -0.6361
   14SOD    SOD  117   5.868   1.129   1.963 -0.0840 -0.1763  0.1671
   15SOD    SOD  118   5.189   4.623   4.030 -0.1612 -0.5765 -0.4112
   16SOD    SOD  119   0.004   0.055   5.549 -0.2966  0.5311 -0.0238
   17SOD    SOD  120   6.903   4.024   1.540  0.1558  0.3145  0.1874
   18SOD    SOD  121   1.825   5.808   4.404  0.0632  0.3171 -0.2801
   19SOD    SOD  122   6.050   2.950   4.340 -0.5935  0.4276  0.1882
   20SOD    SOD  123   0.883   5.296   0.566  0.3489 -0.3177 -0.2181
   21SOD    SOD  124   6.046   1.319   0.365  0.2094  0.4936  0.0185
   22SOD    SOD  125   1.568   5.816   3.026 -0.0596  0.0888  0.1264
   23SOD    SOD  126   4.140   3.519   4.637  0.3504  0.4903  0.0095
   24SOD    SOD  127   1.212   0.737   0.142 -0.2459  0.3427 -0.1588
   25SOD    SOD  128   2.858   2.758   1.101  0.1431  0.3391  0.3076
   26SOD    SOD  129   3.820   2.705   3.472 -0.1444 -0.3149  0.2001
   27SOD    SOD  130   1.735   1.878   4.799  0.0365  0.1121  0.2782
   28SOD    SOD  131   5.052   3.319   2.666  0.7619  0.4441  0.2647
   29SOD    SOD  132   1.133   3.424   2.608  0.2138  0.0291  0.3377
   30SOD    SOD  133   2.988   1.236   2.486 -0.7070  0.3395 -0.6577
   31SOD    SOD  134   4.890   2.098   1.917 -0.2194  0.2991 -0.0080
   32SOD    SOD  135   1.484   4.645   3.247 -0.1466  0.0112  0.1685
   33SOD    SOD  136   7.102   2.545   3.146 -0.0310 -0.6073 -0.8280
   34SOD    SOD  137   2.571   6.637   3.275 -0.2518  0.1760 -0.1613
   35SOD    SOD  138   2.809   5.363   4.346  0.3712  0.2405 -0.1582
   36SOD    SOD  139   4.285   3.552   3.802 -0.0958 -0.1453  0.0555
   37SOD    SOD  140   5.329   0.940   0.988  0.9751 -0.6475  0.3448
   38SOD    SOD  141   0.440   5.563   5.308  0.0575  0.6026  0.2835
   39SOD    SOD  142   5.318   2.286   4.700  0.1511  0.2083 -0.1586
   40SOD    SOD  143   3.849   6.419   5.354 -0.5475 -0.2883  0.2357
   41SOD    SOD  144   3.175   5.210   2.493 -0.2375 -0.0804 -0.0951
   42SOD    SOD  145   1.089   0.714   1.490 -0.1460  0.0523 -0.3238
   43CLA    CLA  146   4.080   0.233   1.018 -0.1937 -0.4250 -0.2711
   44CLA    CLA  147   0.358   6.411   0.278  0.1208  0.0399  0.1900
   45CLA    CLA  148   5.123   1.295   0.625  0.1089 -0.0456  0.0056
   46CLA    CLA  149   1.144   5.007   3.240  0.4227  0.0302  0.2243
   47CLA    CLA  150   3.115   2.216   0.402 -0.1211 -0.3926  0.2394
   48CLA    CLA  151   0.340   4.467   3.583 -0.0490  0.3337  0.0952
   49CLA    CLA  152   5.994   4.552   0.190 -0.5362  0.1316 -0.3717
   50CLA    CLA  153   5.259   2.556   4.049  0.2135  0.1723 -0.1891
   51CLA    CLA  154   3.711   3.555   2.028 -0.2886  0.1108  0.1752
   52CLA    CLA  155   3.365   5.415   4.954  0.0895  0.1757 -0.3943
   53CLA    CLA  156   3.558   5.231   0.436  0.2404  0.4113 -0.2438
   54CLA    CLA  157   3.985   2.277   3.570  0.4502 -0.1947  0.2375
   55CLA    CLA  158   7.035   0.810   0.787 -0.1738 -0.1587  0.3325
   56CLA    CLA  159   0.737   4.209   2.160 -0.0820 -0.1468 -0.4347
   57CLA    CLA  160   6.479   1.892   3.045  0.4263 -0.1679  0.2012
   58CLA    CLA  161   3.448   4.481   2.187  0.3657  0.4317 -0.2635
   59CLA    CLA  162   5.758   0.640   0.970  0.3831  0.3313  0.1227
   60CLA    CLA  163   5.983   0.771   5.196  0.4653  0.1604 -0.0392
   61CLA    CLA  164   1.582   2.176   3.589 -0.4051 -0.0870 -0.0987
   62CLA    CLA  165   7.009   2.472   2.557  0.2337 -0.6039 -0.2755
   63CLA    CLA  166   3.486   0.239   2.269 -0.0203 -0.1634 -0.4002
   64CLA    CLA  167   6.432   4.448   1.920  0.0224  0.0516  0.5394
   65CLA    CLA  168   7.177   0.648   2.609 -0.6417 -0.3095  0.2315
   66CLA    CLA  169   4.435   0.230   3.496 -0.3619  0.3468  0.3082
   67CLA    CLA  170   4.185   4.630   5.231  0.0543 -0.0105  0.3505
   68CLA    CLA  171   2.012   4.036   3.507  0.3330 -0.0931 -0.4544
   69CLA    CLA  172   1.636   3.550   0.931 -0.3268  0.1251  0.1384
   70TIP3   OH2  173   1.182   3.402   2.836 -0.4113  0.1680 -0.1882
   70TIP3    H1  174   1.220   3.315   2.849  1.1304  0.7225 -0.7285
   70TIP3    H2  175   1.205   3.451   2.915  1.0605  0.8446 -0.9947
   71TIP3   OH2  176   1.900   6.315   1.551  0.3266  0.5035  0.6780
   71TIP3    H1  177   1.898   6.410   1.563 -0.5021  0.5839 -0.0479
   71TIP3    H2  178   1.949   6.301   1.470 -0.9417  0.4251 -0.1079
   72TIP3   OH2  179   5.558   6.184   0.430  0.3658 -0.0489  0.1621
   72TIP3    H1  180   5.571   6.277   0.414 -0.4472  0.1502  0.5908
   72TIP3    H2  181   5.628   6.141   0.381 -0.3949  0.6669 -1.6461
   73TIP3   OH2  182   7.147   2.954   4.220  0.4622  0.0749  0.2471
   73TIP3    H1  183   7.190   2.936   4.137  2.4763 -1.6158  1.5441
   73TIP3    H2  184   7.119   3.045   4.214  2.0560  0.4952 -1.6150
   74TIP3   OH2  185   6.068   6.498   5.299  0.2084 -0.0302 -0.4643
   74TIP3    H1  186   6.093   6.590   5.291 -0.9290  0.3001 -0.2859
   74TIP3    H2  187   6.135   6.460   5.357  0.4106  0.7919 -0.1504
   75TIP3   OH2  188   2.296   1.497   1.686  0.2754  0.2535  0.0016
   75TIP3    H1  189   2.309   1.506   1.591 -0.1824  1.2355  0.0274
   75TIP3    H2  190   2.328   1.409   1.705  0.9671  0.2726 -0.9643
   76TIP3   OH2  191   3.394   2.563   5.360  0.4403  0.2117  0.4720
   76TIP3    H1  192   3.466   2.562   5.424 -0.2458  1.5594  1.3153
   76TIP3    H2  193   3.333   2.496   5.392  1.1306 -0.6659 -0.0314
   77TIP3   OH2  194   0.415   4.944   1.364  0.0477  0.0338  0.9772
   77TIP3    H1  195   0.439   5.008   1.430 -0.0682 -0.1416  1.1903
   77TIP3    H2  196   0.410   4.861   1.411  3.2402 -0.7377  0.1790
   78TIP3   OH2  197   3.416   4.407   1.543  0.4484 -0.1735  0.0236
   78TIP3    H1  198   3.461   4.333   1.583 -0.6637 -1.1599 -0.4874
   78TIP3    H2  199   3.325   4.399   1.573  0.0011  0.1476 -1.1917
   79TIP3   OH2  200   5.190   5.100   2.912  0.8345  0.0346 -0.0644
   79TIP3    H1  201   5.115   5.135   2.863  2.1215  2.3329 -0.5619
   79TIP3    H2  202   5.228   5.034   2.855  0.3558  0.2834 -0.6837
   80TIP3   OH2  203   0.492   3.050   0.664 -0.6536 -0.0062  0.3380
   80TIP3    H1  204   0.566   3.073   0.721 -0.2378  0.3299 -0.3266
   80TIP3    H2  205   0.471   3.132   0.618 -1.9513  0.1067  1.0830
   81TIP3   OH2  206   2.961   1.216   3.123  0.2102 -0.4343  0.1862
   81TIP3    H1  207   2.970   1.284   3.056  0.8684 -0.3086  0.3941
   81TIP3    H2  208   2.918   1.143   3.078  2.0578 -0.9555 -0.8160
   82TIP3   OH2  209   1.142   2.788   1.750 -0.8998  0.3194 -0.2993
   82TIP3    H1  210   1.063   2.838   1.732 -0.1941  0.8385 -2.2841
   82TIP3    H2  211   1.206   2.853   1.780 -0.4263  0.3983 -1.4240
   83TIP3   OH2  212   6.838   4.389   1.789  0.2985 -0.6529  0.2139
   83TIP3    H1  213   6.862   4.385   1.882  3.1642 -2.3137 -0.4690
   83TIP3    H2  214   6.866   4.475   1.760 -0.8522 -0.0258  0.9008
   84TIP3   OH2  215   2.367   2.473   2.607 -0.4028 -0.1921 -0.1880
   84TIP3    H1  216   2.417   2.554   2.599 -1.0048  0.1124 -0.9806
   84TIP3    H2  217   2.342   2.451   2.517  0.5332 -1.7686 -0.0955
   85TIP3   OH2  218   4.946   4.326   2.728  0.2580  0.1481 -0.1282
   85TIP3    H1  219   4.990   4.395   2.778  1.7088 -0.5718 -0.3515
   85TIP3    H2  220   5.017   4.270   2.697 -0.6166  0.3327 -2.7002
   86TIP3   OH2  221   3.837   3.971   5.144  0.6391  0.3938 -0.1368
   86TIP3    H1  222   3.752   3.930   5.155  0.5983  0.3519 -0.6111
   86TIP3    H2  223   3.845   4.030   5.220 -0.4878  1.5779 -0.9082
   87TIP3   OH2  224   5.986   5.728   2.239  0.5760  0.3056 -0.2282
   87TIP3    H1  225   5.934   5.691   2.168 -0.8582  0.0960  0.8895
   87TIP3    H2  226   6.022   5.809   2.203  0.5247 -0.1920 -1.4252
   88TIP3   OH2  227   2.680   2.918   1.104 -0.5370  0.2014 -0.4911
   88TIP3    H1  228   2.604   2.910   1.161 -0.1872 -0.7387 -0.1252
   88TIP3    H2  229   2.646   2.956   1.023 -1.1870  0.7906  0.0458
   89TIP3   OH2  230   2.419   0.790   0.662  0.4958  0.8008  0.1614
   89TIP3    H1  231   2.369   0.747   0.593 -1.4986 -0.0855  2.0147
   89TIP3    H2  232   2.353   0.834   0.716  2.1843  3.3530  0.2836
   90TIP3   OH2  233   3.315   3.396   4.766 -0.4158 -0.7845  0.4202
   90TIP3    H1  234   3.315   3.483   4.805  2.2342  0.4667 -1.9906
   90TIP3    H2  235   3.223   3.378   4.747 -0.9980  1.6176  0.6604
   91TIP3   OH2  236   5.331   2.384   2.939  0.1540  0.4298  0.0731
   91TIP3    H1  237   5.379   2.393   3.021 -0.2581 -1.0442  0.4900
   91TIP3    H2  238   5.378   2.316   2.891 -0.4228  0.2962 -0.3131
   92TIP3   OH2  239   5.616   3.904   3.509 -0.2051  0.0181 -0.5490
   92TIP3    H1  240   5.586   3.833   3.451  1.1975 -1.1174  0.0308
   92TIP3    H2  241   5.601   3.871   3.597  1.8756 -0.2846 -0.2464
   93TIP3   OH2  242   2.412   0.411   5.757  0.2137  0.2553 -0.2751
   93TIP3    H1  243   2.347   0.473   5.791  1.7038  1.1531  1.0508
   93TIP3    H2  244   2.425   0.348   5.828 -2.1529 -2.4604 -1.9900
   94TIP3   OH2  245   2.963   0.439   0.069 -0.6355 -0.1320  0.0916
   94TIP3    H1  246   3.000   0.356   0.099  2.0032  0.6477 -0.7931
   94TIP3    H2  247   2.888   0.413   0.016  0.1337 -1.9632 -0.1704
   95TIP3   OH2  248   1.391   0.092   3.833  0.6379 -0.1105 -0.5719
   95TIP3    H1  249   1.336   0.095   3.755  0.0107 -0.6098 -0.1658
   95TIP3    H2  250   1.430   0.005   3.832  0.4558 -0.2022 -0.2294
   96TIP3   OH2  251   5.277   3.725   2.091 -0.3887  0.2866  0.6309
   96TIP3    H1  252   5.203   3.684   2.046 -0.9990 -0.5871  2.3316
   96TIP3    H2  253   5.238   3.797   2.141  0.1498  0.7626  0.3765
   97TIP3   OH2  254   1.004   1.605   0.817 -0.4397  0.7376 -0.0603
   97TIP3    H1  255   0.998   1.587   0.910 -2.9641 -4.8471 -0.9093
   97TIP3    H2  256   1.090   1.570   0.792  0.3384  2.4468  0.0716
   98TIP3   OH2  257   3.405   3.089   2.218 -0.6124 -0.1408  0.1817
   98TIP3    H1  258   3.428   3.169   2.171  0.7051 -1.0192 -0.7324
   98TIP3    H2  259   3.489   3.055   2.251 -1.2033 -0.9031  0.9510
   99TIP3   OH2  260   4.057   1.671   2.709 -0.9455  0.4991 -0.0391
   99TIP3    H1  261   4.137   1.679   2.658 -1.6776 -1.5241 -1.6756
   99TIP3    H2  262   4.074   1.718   2.791  2.0731 -0.2755 -0.1272
  100TIP3   OH2  263   2.982   6.607   3.480  0.1299  0.1817 -0.0233
  100TIP3    H1  264   3.033   6.624   3.401  1.0206 -1.7550  0.0688
  100TIP3    H2  265   3.047   6.579   3.545 -0.6374  1.2776  1.2780
  101TIP3   OH2  266   6.378   5.577   2.269  0.1916  0.6822  0.7141
  101TIP3    H1  267   6.392   5.569   2.174 -0.8239 -0.6253  0.6490
  101TIP3    H2  268   6.421   5.659   2.292  0.7298  0.8769 -0.8262
  102TIP3   OH2  269   4.425   6.604   5.042  0.4525  0.3828 -0.5124
  102TIP3    H1  270   4.512   6.570   5.060  1.1282 -0.1012 -3.9469
  102TIP3    H2  271   4.439   6.694   5.013 -0.2628  0.5584 -0.3449
  103TIP3   OH2  272   4.383   1.251   5.859 -0.2547  0.2195 -0.3746
  103TIP3    H1  273   4.308   1.310   5.862 -0.3574  0.0332  0.9761
  103TIP3    H2  274   4.360   1.188   5.790 -1.6171 -0.1948  0.4214
  104TIP3   OH2  275   3.278   5.565   2.809 -0.2390  0.1251  0.0733
  104TIP3    H1  276   3.224   5.537   2.883 -0.0457  0.9744  0.5482
  104TIP3    H2  277   3.358   5.599   2.849 -1.1148  2.8714 -0.3195
  105TIP3   OH2  278   4.999   6.405   0.949 -0.2856  0.2503 -0.8245
  105TIP3    H1  279   4.904   6.405   0.940 -0.3734  1.1331 -0.1108
  105TIP3    H2  280   5.018   6.326   1.000 -0.2482 -1.9304 -3.9046
  106TIP3   OH2  281   4.254   4.066   1.096  0.7608  0.1046  0.4358
  106TIP3    H1  282   4.215   4.142   1.139 -0.6533  0.0845 -0.7339
  106TIP3    H2  283   4.181   4.006   1.083  1.1212  0.0757 -1.8728
  107TIP3   OH2  284   4.519   2.178   2.111  0.1390 -0.0835  0.6619
  107TIP3    H1  285   4.540   2.231   2.188  1.2501  2.4108 -1.2273
  107TIP3    H2  286   4.477   2.239   2.050 -1.0899 -2.0626 -0.6133
  108TIP3   OH2  287   2.547   2.956   1.710  0.1793  0.5802 -0.3703
  108TIP3    H1  288   2.530   2.882   1.767  2.7371  0.2365  0.0829
  108TIP3    H2  289   2.565   3.029   1.770 -1.7396  1.4962 -0.8112
  109TIP3   OH2  290   2.320   3.210   2.388  0.2425 -0.1387 -0.2337
  109TIP3    H1  291   2.378   3.223   2.463  1.0123 -0.3060 -0.7815
  109TIP3    H2  292   2.252   3.276   2.398  0.6373  0.1914  0.3263
  110TIP3   OH2  293   6.372   6.567   1.047  0.4524 -0.3175  0.9824
  110TIP3    H1  294   6.428   6.494   1.073  0.6556 -0.6553 -0.3633
  110TIP3    H2  295   6.419   6.610   0.976 -1.0113 -0.6683 -0.2563
  111TIP3   OH2  296   2.311   3.427   2.169  0.2202  0.3935  0.3515
  111TIP3    H1  297   2.327   3.360   2.235 -1.2982  0.7612  1.1317
  111TIP3    H2  298   2.243   3.482   2.207  0.2043  1.3567 -1.0118
  112TIP3   OH2  299   1.975   4.681   3.117 -0.1705  0.1891  0.6910
  112TIP3    H1  300   2.000   4.643   3.201 -1.3764 -0.5664  0.7396
  112TIP3    H2  301   1.944   4.607   3.065 -0.3193  0.7749 -0.0801
  113TIP3   OH2  302   1.080   4.212   5.328 -0.3489 -0.0831  0.5734
  113TIP3    H1  303   1.147   4.147   5.350  0.1584 -0.0715 -0.8167
  113TIP3    H2  304   0.998   4.161   5.324  0.2380 -0.9824 -1.8094
  114TIP3   OH2  305   0.852   3.743   1.693  0.2516  0.0684 -0.6613
  114TIP3    H1  306   0.763   3.779   1.704  0.1933  0.2279 -1.5740
  114TIP3    H2  307   0.851   3.704   1.606  1.0326 -0.0870 -0.6032
  115TIP3   OH2  308   6.224   6.028   4.161 -0.2007 -0.5632  0.0750
  115TIP3    H1  309   6.174   6.106   4.186  1.1026  0.7761 -1.2357
  115TIP3    H2  310   6.293   6.021   4.228  1.2880  1.0622 -1.1757
  116TIP3   OH2  311   6.423   0.844   4.390  0.0076 -0.0581  0.3261
  116TIP3    H1  312   6.379   0.886   4.316 -1.5703 -1.8746  0.1255
  116TIP3    H2  313   6.513   0.830   4.360 -0.8545 -1.7315 -1.7472
  117TIP3   OH2  314   3.256   3.160   5.570 -0.2310  0.8052  0.1646
  117TIP3    H1  315   3.329   3.202   5.616  0.1318  2.7591 -1.9761
  117TIP3    H2  316   3.273   3.067   5.578  0.0836  1.0324  3.4124
  118TIP3   OH2  317   4.352   3.448   4.614  0.0075 -0.0574 -0.0399
  118TIP3    H1  318   4.396   3.524   4.578 -1.6288  0.1401 -1.8187
  118TIP3    H2  319   4.416   3.378   4.609  0.8517  0.7240 -0.3982
  119TIP3   OH2  320   1.185   5.503   3.151 -0.5137  0.1712 -0.5100
  119TIP3    H1  321   1.244   5.437   3.188  1.0124  1.7118 -0.0974
  119TIP3    H2  322   1.129   5.453   3.091  0.4727 -1.5159 -0.1102
  120TIP3   OH2  323   3.929   3.728   4.995 -0.0331  0.2834  0.1322
  120TIP3    H1  324   3.900   3.814   5.024 -2.6350 -0.6546  0.6102
  120TIP3    H2  325   3.986   3.745   4.920  0.6936  2.4366  1.1104
  121TIP3   OH2  326   1.446   1.088   1.094 -0.3168 -0.8448 -0.2368
  121TIP3    H1  327   1.412   1.034   1.023 -0.1436 -0.2663 -0.7690
  121TIP3    H2  328   1.374   1.093   1.157 -1.2599  0.3909 -1.3561
  122TIP3   OH2  329   3.055   3.650   3.084  0.1243  0.4847  0.2055
  122TIP3    H1  330   3.116   3.719   3.109 -0.7294  2.0750 -1.8066
  122TIP3    H2  331   3.036   3.667   2.991 -0.7587 -1.9815 -0.1317
  123TIP3   OH2  332   5.669   0.574   3.500 -0.0835 -0.3223 -0.1249
  123TIP3    H1  333   5.732   0.640   3.470  0.5357 -0.5342  0.6868
  123TIP3    H2  334   5.704   0.491   3.467 -1.0207 -0.2344 -1.4034
  124TIP3   OH2  335   1.169   4.453   5.213 -0.2302 -0.0186  0.5587
  124TIP3    H1  336   1.159   4.358   5.200  0.3840  0.2061 -1.9415
  124TIP3    H2  337   1.079   4.486   5.212 -0.3540 -0.3690 -0.4576
  125TIP3   OH2  338   2.398   6.159   3.865 -0.2330 -0.3619  0.1189
  125TIP3    H1  339   2.433   6.126   3.948  0.6456  0.6923  0.1827
  125TIP3    H2  340   2.351   6.239   3.889 -0.5142 -0.3917 -0.3212
  126TIP3   OH2  341   4.227   2.385   1.804  0.0080  0.1228 -0.2189
  126TIP3    H1  342   4.156   2.436   1.843  0.2757  1.3408 -1.2399
  126TIP3    H2  343   4.292   2.450   1.779  1.6526 -1.0042  0.9803
  127TIP3   OH2  344   1.815   5.137   3.797  0.0104 -0.0647 -0.3961
  127TIP3    H1  345   1.744   5.173   3.743  0.6593  1.2147 -0.4366
  127TIP3    H2  346   1.892   5.143   3.741  0.1201 -1.8687 -0.5201
  128TIP3   OH2  347   2.657   0.706   4.480 -0.4715  0.1313  0.3219
  128TIP3    H1  348   2.749   0.708   4.452 -1.0520 -1.4123 -2.0188
  128TIP3    H2  349   2.657   0.653   4.560  0.6860  0.2163  0.3922
  129TIP3   OH2  350   2.789   6.649   0.013  0.1939  0.4331 -0.4004
  129TIP3    H1  351   2.795   6.587   0.085 -1.8606  0.0554 -0.5097
  129TIP3    H2  352   2.862   6.709   0.027  0.6329 -0.4345  1.2177
  130TIP3   OH2  353   4.780   1.794   1.008  0.5346  0.4047 -0.5555
  130TIP3    H1  354   4.802   1.751   0.926  0.0145 -1.1239  0.0736
  130TIP3    H2  355   4.856   1.779   1.064 -0.3713 -1.3931  0.2821
  131TIP3   OH2  356   2.552   0.702   3.242  0.1505  0.5480 -0.7976
  131TIP3    H1  357   2.529   0.686   3.334 -0.3935  1.4358 -0.7641
  131TIP3    H2  358   2.474   0.676   3.193 -0.4422  2.2196 -0.8034
  132TIP3   OH2  359   1.443   0.969   0.490 -0.3706 -0.4422  0.0170
  132TIP3    H1  360   1.521   1.008   0.530 -0.3373 -0.8330  0.3432
  132TIP3    H2  361   1.392   1.044   0.460 -0.1702 -0.1561  0.3718
  133TIP3   OH2  362   5.679   1.272   1.940  0.1869  0.2793  0.0105
  133TIP3    H1  363   5.637   1.358   1.943  0.0288  0.1810  2.6081
  133TIP3    H2  364   5.606   1.210   1.933  0.2012  0.2694 -0.0598
  134TIP3   OH2  365   1.628   4.618   2.089  0.4587  0.1692  0.3355
  134TIP3    H1  366   1.602   4.539   2.042 -1.4302  1.1083 -0.3021
  134TIP3    H2  367   1.666   4.675   2.022  1.5059 -0.0195  0.7346
  135TIP3   OH2  368   0.664   0.320   1.261  0.3461  0.4853 -0.5298
  135TIP3    H1  369   0.628   0.233   1.275 -0.4432  0.5869 -1.7829
  135TIP3    H2  370   0.639   0.343   1.172  1.4164  1.5872 -0.5817
  136TIP3   OH2  371   2.743   4.856   1.928 -0.7131  0.2371 -0.4026
  136TIP3    H1  372   2.804   4.789   1.898 -0.2703  0.0189  0.9187
  136TIP3    H2  373   2.698   4.885   1.849  1.3761  0.6813 -1.4840
  137TIP3   OH2  374   4.258   0.878   2.865 -0.2535  0.6339 -0.0134
  137TIP3    H1  375   4.334   0.907   2.815  0.2841  0.5724  0.7481
  137TIP3    H2  376   4.184   0.925   2.826  0.0818  0.2580 -1.1385
  138TIP3   OH2  377   1.428   6.065   1.987  0.3211 -0.0835  0.5281
  138TIP3    H1  378   1.492   6.136   1.996  0.1861  0.2703 -1.0646
  138TIP3    H2  379   1.444   6.029   1.900 -1.1116 -0.5251  0.4257
  139TIP3   OH2  380   6.832   3.638   1.667  0.8287 -0.0154  0.3099
  139TIP3    H1  381   6.775   3.662   1.594  2.2388 -0.9369 -1.1479
  139TIP3    H2  382   6.838   3.543   1.664  1.2964 -0.0403  1.3597
  140TIP3   OH2  383   5.294   3.203   1.298 -0.0885  0.2375  0.5900
  140TIP3    H1  384   5.344   3.148   1.238 -2.3790 -0.6626 -0.6254
  140TIP3    H2  385   5.275   3.282   1.248 -0.1661  0.4407  0.9353
  141TIP3   OH2  386   5.752   6.439   4.293  0.2979 -0.7800 -0.1596
  141TIP3    H1  387   5.773   6.457   4.202 -2.2754 -0.6267 -0.8003
  141TIP3    H2  388   5.819   6.485   4.343  0.7497  0.6174 -1.9499
  142TIP3   OH2  389   2.885   6.134   2.063  0.0834 -0.3615 -0.0123
  142TIP3    H1  390   2.904   6.041   2.057 -0.5619 -0.4677 -0.6202
  142TIP3    H2  391   2.871   6.161   1.972  0.5928  0.4014  0.1270
  143TIP3   OH2  392   4.993   6.174   2.918  0.3863  0.3528 -0.4023
  143TIP3    H1  393   4.907   6.214   2.907 -0.0991 -0.1762  1.2016
  143TIP3    H2  394   5.054   6.247   2.917 -0.2458  0.9003  0.0008
  144TIP3   OH2  395   5.739   2.078   0.448  0.5170  0.3942 -0.0744
  144TIP3    H1  396   5.765   1.992   0.480  1.2884  0.2324 -1.0957
  144TIP3    H2  397   5.774   2.083   0.359 -2.5978  0.3262 -1.4205
  145TIP3   OH2  398   2.233   1.797   0.307  0.1699 -0.0092  0.1629
  145TIP3    H1  399   2.162   1.734   0.321 -0.3457  0.5205  0.0170
  145TIP3    H2  400   2.282   1.797   0.389  0.3238 -0.7804  0.0712
  146TIP3   OH2  401   6.008   4.026   5.143 -0.1869 -0.0923 -0.1154
  146TIP3    H1  402   6.048   3.958   5.088 -1.6545 -0.2909 -0.9701
  146TIP3    H2  403   6.077   4.091   5.155  0.9192 -1.2151 -0.1521
  147TIP3   OH2  404   1.289   3.575   3.018 -0.2702  0.3197 -0.1665
  147TIP3    H1  405   1.237   3.655   3.012  0.4503  0.6630 -2.9649
  147TIP3    H2  406   1.380   3.606   3.020  0.0430 -0.3195  3.6092
  148TIP3   OH2  407   3.918   2.388   3.844  0.2245 -0.4237 -1.1602
  148TIP3    H1  408   3.829   2.358   3.862  0.0747  0.3447 -0.5471
  148TIP3    H2  409   3.935   2.360   3.754 -0.4636 -0.9831 -1.1230
  149TIP3   OH2  410   3.089   2.326   0.983 -0.1658  0.5128  0.3300
  149TIP3    H1  411   3.029   2.329   0.908 -0.3428  0.6153  0.4752
  149TIP3    H2  412   3.078   2.237   1.018 -1.4314  1.0299  1.3253
  150TIP3   OH2  413   0.782   4.518   4.621  0.1483  0.3592  0.1994
  150TIP3    H1  414   0.823   4.497   4.537 -0.4338 -3.5200  0.6744
  150TIP3    H2  415   0.730   4.596   4.604 -1.9821 -1.6322 -3.8872
  151TIP3   OH2  416   6.281   1.145   1.799  0.0978  0.3603  0.2108
  151TIP3    H1  417   6.285   1.094   1.879  0.0501  0.0685  0.0290
  151TIP3    H2  418   6.334   1.095   1.736  1.7479  1.5560  0.5852
  152TIP3   OH2  419   4.628   0.356   1.116 -0.4377 -0.3392  0.4462
  152TIP3    H1  420   4.561   0.288   1.126 -0.6469  0.0210  1.7231
  152TIP3    H2  421   4.588   0.421   1.058 -0.6075 -0.8391 -0.0027
  153TIP3   OH2  422   0.928   4.137   4.536  0.7265  0.0777 -0.3930
  153TIP3    H1  423   0.964   4.048   4.532  2.0246  0.5735 -0.2822
  153TIP3    H2  424   0.945   4.174   4.450  0.5160  0.3486 -0.3195
  154TIP3   OH2  425   2.291   0.968   2.154 -0.0119  0.0235 -0.7695
  154TIP3    H1  426   2.378   0.934   2.133 -0.1376 -1.1006  0.3820
  154TIP3    H2  427   2.295   0.986   2.248 -0.1688  2.6897 -1.2070
  155TIP3   OH2  428   6.484   1.658   4.786 -0.0223 -0.6261  0.2290
  155TIP3    H1  429   6.497   1.638   4.693 -0.4935 -1.4538  0.3317
  155TIP3    H2  430   6.515   1.580   4.832 -0.9367 -0.7232  0.7013
  156TIP3   OH2  431   6.282   3.317   3.358  0.0605  0.1891  0.4491
  156TIP3    H1  432   6.315   3.329   3.270  0.9084  0.5804  0.8125
  156TIP3    H2  433   6.356   3.336   3.415 -0.1197 -1.2311  1.2200
  157TIP3   OH2  434   1.774   0.039   0.129 -0.1525  0.0477 -0.0402
  157TIP3    H1  435   1.767  -0.051   0.159  0.3670  0.1298  0.3477
  157TIP3    H2  436   1.853   0.040   0.075 -0.5016  0.1333 -0.5471
  158TIP3   OH2  437   6.262   1.344   0.305  0.1987 -0.2895 -0.1830
  158TIP3    H1  438   6.279   1.253   0.278 -0.4167 -0.4529 -0.0410
  158TIP3    H2  439   6.313   1.397   0.243  0.3107 -0.7219 -0.4695
  159TIP3   OH2  440   4.446   4.963   1.844  0.5350  0.3004  0.0616
  159TIP3    H1  441   4.525   4.955   1.790  0.7219  0.0110  0.3726
  159TIP3    H2  442   4.473   4.931   1.930 -1.0651 -4.4181 -0.8753
  160TIP3   OH2  443   4.804   2.770   1.614  0.0607  0.5001  0.4563
  160TIP3    H1  444   4.897   2.790   1.623  0.1856  0.3157 -0.3061
  160TIP3    H2  445   4.783   2.794   1.524  0.2793 -2.7986 -0.6333
  161TIP3   OH2  446   3.122   6.482   2.689  0.2300  0.3977  0.1881
  161TIP3    H1  447   3.149   6.401   2.731  0.0282  1.0255  1.5781
  161TIP3    H2  448   3.135   6.466   2.595  0.1451 -1.2426  0.4317
  162TIP3   OH2  449   0.099   6.189   2.254  0.1758  0.1953 -0.1359
  162TIP3    H1  450   0.006   6.163   2.252 -0.2683  1.6933 -0.1127
  162TIP3    H2  451   0.097   6.282   2.275  1.7312  0.1219  0.4269
  163TIP3   OH2  452   3.967   6.708   2.585  0.1523  0.1306 -0.1313
  163TIP3    H1  453   3.977   6.613   2.587  1.5384  0.1798 -2.2558
  163TIP3    H2  454   4.032   6.740   2.647  1.8843 -0.2313 -1.7006
  164TIP3   OH2  455   2.053   5.745   2.391 -0.1789 -0.1783 -0.1178
  164TIP3    H1  456   2.146   5.744   2.365  0.0044  0.1204  0.5069
  164TIP3    H2  457   2.017   5.821   2.346  0.3577  0.8920  1.2095
  165TIP3   OH2  458   2.758   4.243   3.712 -0.1119  0.2661  0.3256
  165TIP3    H1  459   2.700   4.221   3.639  1.1584 -1.2806 -0.2800
  165TIP3    H2  460   2.824   4.301   3.675  0.0599  0.1396  0.4286
  166TIP3   OH2  461   0.036   4.087   2.878  0.8924 -0.2948 -0.3938
  166TIP3    H1  462   0.098   4.038   2.824 -1.5607 -1.5589 -2.2279
  166TIP3    H2  463   0.047   4.052   2.966  2.2504 -0.9828 -0.8159
  167TIP3   OH2  464   0.431   3.829   2.254  0.5128 -0.0631 -0.0415
  167TIP3    H1  465   0.466   3.898   2.198  1.3749 -0.0060  0.5643
  167TIP3    H2  466   0.392   3.875   2.328 -0.5658 -0.1444 -0.5401
  168TIP3   OH2  467   1.625   1.432   2.870  0.6059  0.2981  0.3449
  168TIP3    H1  468   1.536   1.465   2.879  0.1716 -0.4080 -0.9630
  168TIP3    H2  469   1.665   1.445   2.956 -0.9081  0.1948  1.0959
  169TIP3   OH2  470   4.290   3.478   0.638  0.4170 -0.0106  0.2326
  169TIP3    H1  471   4.333   3.561   0.619 -1.5527  1.1092  0.4612
  169TIP3    H2  472   4.312   3.422   0.563  1.0449  0.9839 -0.3451
  170TIP3   OH2  473   2.035   6.661   4.728 -0.0495  0.1675 -0.3170
  170TIP3    H1  474   2.125   6.681   4.704 -0.2562  0.0671 -1.2067
  170TIP3    H2  475   2.043   6.609   4.808  0.6385  0.7954  0.0366
  171TIP3   OH2  476   6.431   5.457   4.117 -0.0221 -0.0430  0.1722
  171TIP3    H1  477   6.487   5.480   4.043  0.4233  1.6801  0.9939
  171TIP3    H2  478   6.344   5.486   4.091 -0.1843 -0.9019 -0.2947
  172TIP3   OH2  479   3.009   4.297   3.588  0.1823  0.3719 -0.2931
  172TIP3    H1  480   2.991   4.204   3.605 -0.8143  0.9803  2.4650
  172TIP3    H2  481   3.103   4.307   3.604  0.0511  0.0626  0.7243
  173TIP3   OH2  482   5.210   1.309   3.417 -0.5689 -0.3118  0.2314
  173TIP3    H1  483   5.281   1.300   3.353  0.5490  0.0294  1.3740
  173TIP3    H2  484   5.166   1.224   3.416 -0.7426 -0.2231 -1.1604
  174TIP3   OH2  485   0.173   0.143   2.474 -0.4261  0.1950  0.1858
  174TIP3    H1  486   0.166   0.123   2.567  1.5983 -0.7857  0.1969
  174TIP3    H2  487   0.267   0.159   2.460 -0.8560  1.6518 -1.4534
  175TIP3   OH2  488   1.131   1.240   5.821  0.1508 -0.2021 -0.0320
  175TIP3    H1  489   1.171   1.224   5.906 -0.1690 -0.2748  0.1048
  175TIP3    H2  490   1.055   1.295   5.840  0.5860  0.5384 -0.3651
  176TIP3   OH2  491   3.427   6.175   0.768  0.1081 -0.0866 -0.1557
  176TIP3    H1  492   3.446   6.250   0.825 -0.6099 -1.4220  1.9604
  176TIP3    H2  493   3.371   6.211   0.699 -0.6159  1.2699  1.0765
  177TIP3   OH2  494   3.837   3.576   4.343  0.6689  0.1998 -0.6940
  177TIP3    H1  495   3.893   3.567   4.420  0.6743  0.6263 -0.6484
  177TIP3    H2  496   3.763   3.517   4.361 -0.0641  1.3699  0.3108
  178TIP3   OH2  497   3.603   0.875   1.730 -0.3112 -0.3537  0.4273
  178TIP3    H1  498   3.667   0.931   1.773 -1.3922 -0.5809  2.4545
  178TIP3    H2  499   3.538   0.856   1.798 -1.7654 -1.3027 -1.1431
  179TIP3   OH2  500   4.933   1.598   1.444 -0.6102 -0.0640 -0.3517
  179TIP3    H1  501   4.847   1.556   1.436  0.3238 -2.0705 -0.5368
  179TIP3    H2  502   4.931   1.671   1.383 -2.0670 -0.2815 -0.5842
  180TIP3   OH2  503   0.319   2.137   5.013  0.8246 -0.3369  0.2031
  180TIP3    H1  504   0.319   2.232   5.023  1.8028 -0.5247  2.8842
  180TIP3    H2  505   0.234   2.109   5.048  0.4930 -0.4585 -0.6826
  181TIP3   OH2  506   1.199   3.004   5.182 -0.0139 -0.3553 -0.2317
  181TIP3    H1  507   1.144   3.080   5.197 -2.2665 -1.6645 -1.4293
  181TIP3    H2  508   1.140   2.929   5.191  1.9896 -1.9641  0.3030
  182TIP3   OH2  509   1.193   6.399   1.592  0.3974 -0.5805 -0.1419
  182TIP3    H1  510   1.205   6.334   1.522 -2.6352 -1.3921 -0.0590
  182TIP3    H2  511   1.204   6.349   1.673 -1.5340 -1.0244 -0.0840
  183TIP3   OH2  512   1.490   3.843   4.080  0.4139 -0.0104  0.1297
  183TIP3    H1  513   1.572   3.891   4.070  0.6731 -0.5680 -0.4362
  183TIP3    H2  514   1.516   3.761   4.122  0.0815 -0.0103  0.3396
  184TIP3   OH2  515   1.848   5.984   1.307  0.0440 -0.0828 -0.2600
  184TIP3    H1  516   1.818   5.898   1.277  0.5499 -0.5408  0.5143
  184TIP3    H2  517   1.943   5.975   1.315 -0.1046 -0.1715  1.9650
  185TIP3   OH2  518   1.595   6.263   2.195  0.2320  0.0493  0.3880
  185TIP3    H1  519   1.588   6.305   2.109 -1.4992  0.8055  0.8582
  185TIP3    H2  520   1.689   6.257   2.211  0.5801  0.2601 -1.3738
  186TIP3   OH2  521   4.451   2.268   5.146  0.3212 -0.1573 -0.0877
  186TIP3    H1  522   4.542   2.242   5.133  0.3278  0.4015 -1.3285
  186TIP3    H2  523   4.400   2.203   5.097  0.0241 -0.5934  0.7785
  187TIP3   OH2  524   5.038   3.479   1.133 -0.1460  0.1445  0.4934
  187TIP3    H1  525   5.004   3.539   1.065 -0.8833 -1.8159 -0.9572
  187TIP3    H2  526   4.968   3.475   1.198 -1.0605 -0.7857 -0.5059
  188TIP3   OH2  527   6.586   5.278   3.608  0.3412  0.0286  0.0635
  188TIP3    H1  528   6.670   5.302   3.568 -0.1869  1.5178 -0.1962
  188TIP3    H2  529   6.553   5.207   3.552  1.3418 -0.4805  0.0845
  189TIP3   OH2  530   1.335   4.619   3.433 -0.2493 -0.3993  0.0736
  189TIP3    H1  531   1.389   4.629   3.512 -0.9727  2.1914  0.3261
  189TIP3    H2  532   1.246   4.639   3.463 -0.7860 -0.9326 -1.1160
  190TIP3   OH2  533   1.106   4.434   4.707 -0.4147  0.4719 -0.1728
  190TIP3    H1  534   1.101   4.527   4.682 -2.3643  0.4434 -0.0526
  190TIP3    H2  535   1.032   4.394   4.662  0.5975 -1.1271 -0.4893
  191TIP3   OH2  536   6.693   3.131   5.459  0.2645 -0.2659  0.6996
  191TIP3    H1  537   6.634   3.204   5.439 -0.0985 -0.2898  1.6518
  191TIP3    H2  538   6.693   3.077   5.380 -1.2815 -0.4724  0.8236
  192TIP3   OH2  539   0.415   2.707   5.501  0.2523 -0.1323 -0.1096
  192TIP3    H1  540   0.365   2.687   5.421  2.1843  0.5748 -1.5827
  192TIP3    H2  541   0.397   2.800   5.517 -0.5550 -0.4011  0.6345
  193TIP3   OH2  542   2.211   2.069   5.001  0.0010 -0.4914  0.1663
  193TIP3    H1  543   2.175   2.035   4.919 -0.7940  0.6684  0.0056
  193TIP3    H2  544   2.201   1.997   5.064  1.4703 -1.7306 -0.9391
  194TIP3   OH2  545   1.294   6.504   5.810  0.0630  0.3077  0.2945
  194TIP3    H1  546   1.351   6.512   5.886  2.1544 -0.4692 -1.1228
  194TIP3    H2  547   1.329   6.566   5.747  1.1372 -2.0751 -1.6047
  195TIP3   OH2  548   5.952   5.506   3.976  0.0234 -0.3923  0.1867
  195TIP3    H1  549   5.996   5.538   3.897  0.2186  1.0820  0.8669
  195TIP3    H2  550   6.019   5.510   4.044 -0.9917  1.5064  1.1496
  196TIP3   OH2  551   0.257   1.606   5.434 -0.4688 -0.0392 -0.0725
  196TIP3    H1  552   0.166   1.604   5.403 -0.7851 -0.0569  0.8207
  196TIP3    H2  553   0.273   1.518   5.466 -0.5453  0.2834  0.8862
  197TIP3   OH2  554   2.220   0.791   2.920  0.0586  0.2412 -0.1431
  197TIP3    H1  555   2.172   0.873   2.933  0.1654  0.7183 -2.3534
  197TIP3    H2  556   2.156   0.732   2.882  0.2718 -0.3565  0.4151
  198TIP3   OH2  557   0.957   1.359   2.141  0.1481  0.3983 -0.3303
  198TIP3    H1  558   0.926   1.378   2.052 -0.6317 -0.2160 -0.1963
  198TIP3    H2  559   1.047   1.392   2.142 -0.2165  1.4613 -0.9840
  199TIP3   OH2  560   3.782   2.282   1.972 -0.2439  0.4549  0.2537
  199TIP3    H1  561   3.825   2.357   2.014 -0.1006 -0.5814  2.0663
  199TIP3    H2  562   3.763   2.222   2.044 -1.8888 -0.5221 -0.9202
  200TIP3   OH2  563   1.014   6.152   1.662  0.0282 -0.4031 -0.3589
  200TIP3    H1  564   1.068   6.197   1.727  0.1266  0.5007 -1.0494
  200TIP3    H2  565   1.067   6.154   1.582 -0.4606 -0.7109 -0.6923
  201TIP3   OH2  566   7.095   2.179   2.595  0.2581 -0.8678  0.3784
  201TIP3    H1  567   7.071   2.269   2.575  1.7615 -0.2779  1.0647
  201TIP3    H2  568   7.026   2.148   2.653 -0.1856 -0.1077  0.2756
  202TIP3   OH2  569   6.019   3.117   2.825 -0.2027  0.4652  0.5500
  202TIP3    H1  570   6.056   3.129   2.737 -2.5756 -2.1450 -0.9504
  202TIP3    H2  571   6.091   3.082   2.876  0.4599 -1.0047 -1.2615
  203TIP3   OH2  572   1.329   0.332   1.289  0.5565  0.0744 -0.1742
  203TIP3    H1  573   1.376   0.302   1.212 -0.1853 -2.3614  0.2405
  203TIP3    H2  574   1.236   0.325   1.265  0.3266  1.7559  0.1037
  204TIP3   OH2  575   6.161   2.323   3.233  0.3439 -0.0768 -0.3879
  204TIP3    H1  576   6.220   2.308   3.158  0.6384 -0.6942 -0.0383
  204TIP3    H2  577   6.220   2.329   3.308 -0.0513 -0.9559  0.0041
  205TIP3   OH2  578   6.217   2.456   4.715 -0.0955 -0.3876  0.2237
  205TIP3    H1  579   6.218   2.461   4.619  0.1866  2.7328  0.2671
  205TIP3    H2  580   6.293   2.507   4.742 -0.1577 -1.2211  2.1424
  206TIP3   OH2  581   4.489   5.547   0.722  0.3685  0.6253 -0.2597
  206TIP3    H1  582   4.559   5.545   0.658  0.8155  1.3495  0.1890
  206TIP3    H2  583   4.420   5.492   0.685  1.3818 -0.5650 -0.4504
  207TIP3   OH2  584   2.324   5.009   3.858 -0.7190 -0.5334  0.0071
  207TIP3    H1  585   2.394   4.953   3.824  1.2780  1.7217  0.0939
  207TIP3    H2  586   2.251   4.950   3.875  0.7968 -2.8578 -1.1042
  208TIP3   OH2  587   4.818   2.588   0.070  0.6697  0.0692 -0.3025
  208TIP3    H1  588   4.784   2.618   0.154  0.7283  0.4589 -0.4165
  208TIP3    H2  589   4.836   2.668   0.021  0.8204 -0.1514 -0.6141
  209TIP3   OH2  590   1.248   2.086   5.377 -0.7150 -0.2795 -0.4541
  209TIP3    H1  591   1.330   2.040   5.396 -1.3905 -1.3224 -0.0101
  209TIP3    H2  592   1.200   2.085   5.460 -0.9853  0.7501 -0.5817
  210TIP3   OH2  593   5.352   1.307   3.813  0.5836 -0.2226  0.0652
  210TIP3    H1  594   5.364   1.234   3.751  2.6407 -1.0273  1.3039
  210TIP3    H2  595   5.440   1.324   3.847  0.0250  2.3723  0.3975
  211TIP3   OH2  596   3.603   2.597   4.244 -0.2418 -0.6285 -0.5042
  211TIP3    H1  597   3.558   2.556   4.318 -2.1185  0.3128 -1.0686
  211TIP3    H2  598   3.559   2.561   4.167  0.8811 -0.6645 -1.1491
  212TIP3   OH2  599   4.957   2.312   5.571 -0.2116 -0.1767 -0.4236
  212TIP3    H1  600   4.995   2.376   5.512 -2.5813  2.1833  0.4704
  212TIP3    H2  601   5.016   2.312   5.647 -1.4253  2.9585  0.6692
  213TIP3   OH2  602   0.078   5.842   2.837 -0.0522  0.2578 -0.4119
  213TIP3    H1  603   0.159   5.873   2.798  1.0196 -0.7882  0.8727
  213TIP3    H2  604   0.076   5.882   2.924  0.2749 -1.4921  0.4458
  214TIP3   OH2  605   0.537   2.730   2.273  0.3884  0.3880 -0.2635
  214TIP3    H1  606   0.567   2.700   2.358  0.1111 -1.1414 -0.6673
  214TIP3    H2  607   0.493   2.653   2.235 -0.0958  1.2401 -1.4943
  215TIP3   OH2  608   3.548   4.645   2.425  0.5109  0.0681 -0.2239
  215TIP3    H1  609   3.577   4.567   2.377  1.9007  0.5097 -0.1598
  215TIP3    H2  610   3.457   4.656   2.400  0.8646 -0.4066 -1.8535
  216TIP3   OH2  611   1.983   5.677   4.481  0.0250  0.3009 -0.6763
  216TIP3    H1  612   2.045   5.741   4.515  1.5456  0.5076 -3.5053
  216TIP3    H2  613   2.028   5.593   4.488 -0.7493 -0.0512  0.2682
  217TIP3   OH2  614   4.544   2.380   4.076  0.0411  0.8116 -0.3375
  217TIP3    H1  615   4.578   2.460   4.035 -0.8849  1.3419 -0.1020
  217TIP3    H2  616   4.498   2.411   4.154  0.4309 -0.0462  0.2505
  218TIP3   OH2  617   4.381   3.497   5.030 -0.2459 -0.4697  0.2840
  218TIP3    H1  618   4.364   3.465   4.941  1.0108  0.1063 -0.1968
  218TIP3    H2  619   4.312   3.458   5.084 -0.6777 -1.3120 -0.8398
  219TIP3   OH2  620   5.943   6.816   0.862 -0.0324  0.8220  0.3000
  219TIP3    H1  621   6.012   6.822   0.928  1.8968 -1.1667 -1.3933
  219TIP3    H2  622   5.901   6.732   0.879  0.3146  0.4081 -0.8189
  220TIP3   OH2  623   5.348   0.982   5.499  0.1785  0.2368 -0.0664
  220TIP3    H1  624   5.287   0.920   5.460 -1.0079  1.1315  0.3166
  220TIP3    H2  625   5.414   0.927   5.542 -0.1537 -0.7381 -0.7625
  221TIP3   OH2  626   3.292   0.472   4.566 -0.3264  0.2112  0.1378
  221TIP3    H1  627   3.358   0.472   4.636 -0.1930 -2.8354  0.1114
  221TIP3    H2  628   3.337   0.434   4.490 -1.7600 -0.7669 -0.2498
  222TIP3   OH2  629   2.918   4.485   2.133  0.0099 -0.3536 -0.3607
  222TIP3    H1  630   2.877   4.409   2.173 -1.5936  0.7158  0.1164
  222TIP3    H2  631   2.846   4.546   2.116  1.0688  0.5695 -1.8873
  223TIP3   OH2  632   6.210   6.745   5.215 -0.0030 -0.2200 -0.5329
  223TIP3    H1  633   6.205   6.810   5.146 -0.4817 -1.6860 -1.9339
  223TIP3    H2  634   6.293   6.699   5.200  0.4735  0.2198  0.6139
  224TIP3   OH2  635   3.512   0.351   4.452  1.2306  0.2067  0.2729
  224TIP3    H1  636   3.592   0.347   4.504  0.1768 -1.5606  1.8362
  224TIP3    H2  637   3.520   0.434   4.403  2.5686  1.6270  2.7170
  225TIP3   OH2  638   2.929   0.788   2.263  0.2952 -0.4437 -0.2037
  225TIP3    H1  639   2.915   0.699   2.231 -1.3622 -0.3313  0.1220
  225TIP3    H2  640   3.024   0.797   2.268  0.5974 -1.2297 -2.8946
  226TIP3   OH2  641   3.445   6.453   4.157 -0.4040  0.1712  0.1801
  226TIP3    H1  642   3.373   6.497   4.203 -0.4982  1.4255 -1.1076
  226TIP3    H2  643   3.469   6.380   4.214 -1.7823  0.5476  1.2849
  227TIP3   OH2  644   5.769   4.272   2.941 -0.2022  0.0253 -0.3212
  227TIP3    H1  645   5.812   4.189   2.963  0.6173  0.3368 -0.7275
  227TIP3    H2  646   5.721   4.253   2.861  1.1078  0.2912 -1.1981
  228TIP3   OH2  647   1.916   4.382   1.947 -0.5112  0.2001 -0.1836
  228TIP3    H1  648   1.952   4.293   1.941 -1.8120 -0.4619  1.2225
  228TIP3    H2  649   1.992   4.439   1.941  0.6148 -1.0938  1.0949
  229TIP3   OH2  650   5.510   3.597   5.825  0.2298  0.3913 -0.3195
  229TIP3    H1  651   5.567   3.619   5.899  2.1457 -0.1463 -1.5437
  229TIP3    H2  652   5.552   3.638   5.750 -0.5708 -0.6959 -1.4076
  230TIP3   OH2  653   4.047   3.163   1.497  0.4169 -0.3274  0.6018
  230TIP3    H1  654   4.039   3.247   1.451  1.3948  0.2163  1.3859
  230TIP3    H2  655   4.139   3.138   1.484  0.1134 -1.3369  0.3016
  231TIP3   OH2  656   6.534   2.793   1.153 -0.0867 -0.0452  0.0241
  231TIP3    H1  657   6.560   2.845   1.229  1.8053 -0.3549 -0.3536
  231TIP3    H2  658   6.511   2.707   1.189  1.7281 -0.4929  0.2129
  232TIP3   OH2  659   1.487   2.872   5.244  0.7069 -0.3887  0.1930
  232TIP3    H1  660   1.420   2.932   5.210  0.4595 -1.2552 -0.8885
  232TIP3    H2  661   1.570   2.913   5.220  0.5957  0.5160  1.2377
  233TIP3   OH2  662   0.385   3.368   3.279 -0.4011 -0.3645  0.1111
  233TIP3    H1  663   0.300   3.409   3.259  0.6973  1.8989 -0.1830
  233TIP3    H2  664   0.406   3.316   3.201 -1.0923 -0.2413 -0.1633
  234TIP3   OH2  665   4.536   0.604   4.764 -0.7099 -0.1265 -0.3499
  234TIP3    H1  666   4.507   0.527   4.812 -0.0987 -0.2539 -0.1777
  234TIP3    H2  667   4.555   0.572   4.676  1.3263 -0.5840  0.1938
  235TIP3   OH2  668   2.490   0.869   0.993  0.2630 -0.2311 -0.1977
  235TIP3    H1  669   2.450   0.837   1.074  0.3904 -1.9555 -0.7800
  235TIP3    H2  670   2.524   0.790   0.950  0.9512  0.7500 -1.5244
  236TIP3   OH2  671   5.793   3.746   1.783  0.1069  0.0001 -0.6653
  236TIP3    H1  672   5.778   3.704   1.699 -0.8966 -1.1724  0.0616
  236TIP3    H2  673   5.710   3.790   1.802 -0.5461 -1.7439  0.7800
  237TIP3   OH2  674   1.379   6.163   3.740  0.0059  0.5161 -0.4643
  237TIP3    H1  675   1.335   6.128   3.817  0.5330 -0.2235 -0.4850
  237TIP3    H2  676   1.464   6.119   3.739 -0.1912  0.1237 -1.7516
  238TIP3   OH2  677   4.248   3.816   5.131  0.1060  0.4352  0.1564
  238TIP3    H1  678   4.222   3.732   5.094  1.6633 -0.5367  1.1441
  238TIP3    H2  679   4.177   3.839   5.190 -0.6922  0.1988 -0.6990
  239TIP3   OH2  680   5.243   5.224   4.855  0.5186  0.3715 -0.2984
  239TIP3    H1  681   5.233   5.231   4.950 -0.7071 -1.2225 -0.2561
  239TIP3    H2  682   5.160   5.257   4.820  0.5923  0.0890 -0.7476
  240TIP3   OH2  683   4.219   2.972   5.543  0.3849 -0.3609 -0.5655
  240TIP3    H1  684   4.260   3.013   5.467 -0.5487  1.8241  0.0337
  240TIP3    H2  685   4.130   3.008   5.544 -0.3741 -2.1394  0.2549
  241TIP3   OH2  686   5.412   1.629   5.150  0.0115 -0.7640 -0.1921
  241TIP3    H1  687   5.376   1.651   5.064  0.6156 -1.3630 -0.6216
  241TIP3    H2  688   5.356   1.673   5.213 -1.7312 -2.0212 -0.8047
  242TIP3   OH2  689   5.094   6.163   2.540 -0.3394 -0.1003  0.0371
  242TIP3    H1  690   5.131   6.114   2.467  0.0807 -0.3315  0.4032
  242TIP3    H2  691   5.127   6.120   2.618  1.3211  1.6904  0.3950
  243TIP3   OH2  692   4.730   4.704   2.078  0.2649 -0.4092 -0.3426
  243TIP3    H1  693   4.776   4.620   2.081 -4.8528 -3.6359  1.3504
  243TIP3    H2  694   4.733   4.736   2.168 -0.0154 -0.1594 -0.4208
  244TIP3   OH2  695   0.833   1.117   5.751  0.2402 -0.3418  0.3965
  244TIP3    H1  696   0.781   1.197   5.760  0.0497 -0.3288 -0.6858
  244TIP3    H2  697   0.855   1.093   5.841 -0.0351  0.7032  0.7623
  245TIP3   OH2  698   1.183   4.698   4.534 -0.1314  0.2491  0.2695
  245TIP3    H1  699   1.110   4.657   4.487  0.1901 -0.2280  0.1772
  245TIP3    H2  700   1.141   4.756   4.597 -0.6822 -1.8834  1.9682
  246TIP3   OH2  701   3.152   6.730   5.675 -0.3512 -0.9456  0.3149
  246TIP3    H1  702   3.247   6.730   5.689 -0.5213 -2.3947  1.8018
  246TIP3    H2  703   3.138   6.676   5.598  0.0643  0.0035 -0.4465
  247TIP3   OH2  704   6.634   0.486   4.875 -0.9513  0.3700  0.4380
  247TIP3    H1  705   6.630   0.550   4.805  1.3846  1.3015  1.0758
  247TIP3    H2  706   6.542   0.474   4.901 -1.6716  1.5609 -1.3322
  248TIP3   OH2  707   0.349   5.224   0.086  0.2570 -0.0039  0.1764
  248TIP3    H1  708   0.395   5.166   0.025 -0.7480  0.9662 -1.5947
  248TIP3    H2  709   0.296   5.165   0.139  2.2133 -0.9980  1.1478
  249TIP3   OH2  710   2.496   4.343   3.819 -0.1365  0.6110 -0.2404
  249TIP3    H1  711   2.534   4.261   3.849 -1.6459 -0.8504 -2.1127
  249TIP3    H2  712   2.572   4.400   3.805  0.9780 -0.5871  0.6923
  250TIP3   OH2  713   6.193   2.529   4.236 -0.5688  0.2679 -0.4330
  250TIP3    H1  714   6.232   2.543   4.150  0.2417  1.1668  0.0764
  250TIP3    H2  715   6.110   2.577   4.233 -0.4995  0.3723 -0.6813
  251TIP3   OH2  716   2.841   3.279   3.195  0.3152 -0.9012  0.6708
  251TIP3    H1  717   2.841   3.346   3.263 -3.5441  0.7565 -0.7124
  251TIP3    H2  718   2.793   3.206   3.233  0.2261 -0.9193  0.5251
  252TIP3   OH2  719   5.314   0.582   3.513  0.7393 -0.1928 -0.2938
  252TIP3    H1  720   5.376   0.579   3.586  0.0741  0.2660  0.3035
  252TIP3    H2  721   5.362   0.624   3.442  1.1905 -0.0583  0.0862
  253TIP3   OH2  722   6.354   6.742   2.165 -0.2522 -0.0707 -0.4851
  253TIP3    H1  723   6.304   6.663   2.143  0.8143 -0.7398 -0.5777
  253TIP3    H2  724   6.445   6.719   2.145  0.2342  0.7421  0.6614
  254TIP3   OH2  725   4.412   4.888   2.989 -0.1864 -0.2711  0.6139
  254TIP3    H1  726   4.506   4.877   2.997 -0.2427 -0.2013  1.4996
  254TIP3    H2  727   4.379   4.875   3.078 -0.9521  0.2283  0.4148
  255TIP3   OH2  728   1.172   1.946   0.563 -0.0231 -0.1245 -0.1041
  255TIP3    H1  729   1.246   1.953   0.503  0.5730 -0.2257  0.6200
  255TIP3    H2  730   1.137   2.036   0.568  1.9743  0.6004  1.9827
  256TIP3   OH2  731   6.064   5.803   4.090 -0.3653 -0.0351  0.0521
  256TIP3    H1  732   6.062   5.829   3.998  0.1135 -2.9162 -0.8455
  256TIP3    H2  733   6.116   5.872   4.132  1.4972  0.1196 -2.2777
  257TIP3   OH2  734   7.035   6.377   2.500  0.6472 -0.1610  0.1829
  257TIP3    H1  735   7.000   6.411   2.583  1.4695 -0.0398  0.4881
  257TIP3    H2  736   7.122   6.345   2.523  0.4766 -1.0840 -0.4202
  258TIP3   OH2  737   0.683   2.148   5.494  0.0215 -0.2620  0.1942
  258TIP3    H1  738   0.757   2.095   5.465  0.5827  1.2484 -1.3334
  258TIP3    H2  739   0.718   2.198   5.569  0.3690  0.0107 -0.1468
  259TIP3   OH2  740   1.444   2.914   0.165  0.5647  0.3255  0.4184
  259TIP3    H1  741   1.439   2.898   0.259  0.3902  1.7082  0.6663
  259TIP3    H2  742   1.537   2.913   0.145  0.5640 -0.8275  0.4376
  260TIP3   OH2  743   0.084   5.897   5.525 -0.0717 -0.0770 -0.1662
  260TIP3    H1  744   0.050   5.921   5.439 -1.5531 -1.3146  0.0452
  260TIP3    H2  745   0.034   5.820   5.551  0.3080  0.2784  1.8246
  261TIP3   OH2  746   5.457   6.256   1.444 -0.2942  0.1378 -0.2167
  261TIP3    H1  747   5.458   6.167   1.481  0.2000  0.1354 -0.2261
  261TIP3    H2  748   5.547   6.270   1.415 -0.7303  0.0180 -1.7172
  262TIP3   OH2  749   3.667   3.047   4.779 -0.0654  0.3336 -0.0510
  262TIP3    H1  750   3.654   2.957   4.748 -0.4238  0.5128 -0.4386
  262TIP3    H2  751   3.652   3.042   4.874 -0.1257 -0.0056 -0.0758
  263TIP3   OH2  752   5.539   1.995   4.480 -0.1176 -0.4306  0.0651
  263TIP3    H1  753   5.563   2.064   4.418  0.0956 -0.4069  0.1735
  263TIP3    H2  754   5.528   1.917   4.426  0.0863 -0.4145 -0.0003
  264TIP3   OH2  755   3.103   5.853   3.704 -0.0423 -0.1115  0.5255
  264TIP3    H1  756   3.191   5.830   3.734  0.3601 -0.0061 -0.5171
  264TIP3    H2  757   3.099   5.949   3.711 -0.5581 -0.1978  1.7901
  265TIP3   OH2  758   3.923   0.844   0.102  0.3419 -0.0640  0.0884
  265TIP3    H1  759   3.931   0.766   0.156 -0.0160  0.7732  1.4035
  265TIP3    H2  760   3.889   0.911   0.162  0.0389  0.9316 -1.1540
  266TIP3   OH2  761   2.464   2.051   3.188  0.1435 -0.4223 -0.2246
  266TIP3    H1  762   2.540   2.101   3.157  0.7935 -1.7311 -0.8300
  266TIP3    H2  763   2.462   2.066   3.283  0.1594  0.9269 -0.4143
  267TIP3   OH2  764   3.567   4.519   4.252  0.0211  0.0557  0.2750
  267TIP3    H1  765   3.615   4.566   4.320  1.3959  1.1114 -1.3248
  267TIP3    H2  766   3.589   4.427   4.264  0.5852  0.2820  0.9827
  268TIP3   OH2  767   2.219   5.449   2.927 -0.2211  0.1533 -0.0479
  268TIP3    H1  768   2.145   5.425   2.983 -0.6110  0.5270 -0.3955
  268TIP3    H2  769   2.187   5.433   2.838 -0.0176  0.6955 -0.2170
  269TIP3   OH2  770   5.245   6.641   3.626  0.1091 -0.2292 -0.2955
  269TIP3    H1  771   5.224   6.632   3.719 -2.6730  1.5203 -0.6129
  269TIP3    H2  772   5.290   6.560   3.602  1.3526 -0.5010  2.6447
  270TIP3   OH2  773   0.317   4.543   4.291  0.2589 -0.6826 -0.4214
  270TIP3    H1  774   0.378   4.616   4.287 -2.9130  2.2989  0.9857
  270TIP3    H2  775   0.325   4.510   4.381 -0.1390 -0.3502 -0.2639
  271TIP3   OH2  776   2.394   1.044   0.165 -1.2097  0.1321 -0.0542
  271TIP3    H1  777   2.322   0.988   0.135 -1.3546  0.4187 -0.2441
  271TIP3    H2  778   2.405   1.108   0.095  0.4143 -0.9797 -0.9023
  272TIP3   OH2  779   0.372   2.552   5.717 -0.1969 -0.0624 -0.6292
  272TIP3    H1  780   0.379   2.603   5.636  0.3302  0.8401 -0.0283
  272TIP3    H2  781   0.373   2.618   5.787  0.4801 -0.8985  0.1653
  273TIP3   OH2  782   4.057   3.860   1.528 -0.2511 -0.4858  0.0816
  273TIP3    H1  783   3.969   3.841   1.560 -0.3228 -1.5286 -0.6948
  273TIP3    H2  784   4.045   3.881   1.436  0.4257 -1.8048 -0.3391
  274TIP3   OH2  785   5.453   0.847   0.815  0.0807 -0.4361  0.3216
  274TIP3    H1  786   5.543   0.875   0.796  1.2655 -2.7811  2.0019
  274TIP3    H2  787   5.427   0.798   0.737  1.2024 -1.7706  0.7589
  275TIP3   OH2  788   2.377   2.630   2.229 -0.0649 -0.3193  0.5610
  275TIP3    H1  789   2.375   2.550   2.176  0.7219  0.6151 -0.9648
  275TIP3    H2  790   2.470   2.646   2.245 -0.1516  0.7287  0.1152
  276TIP3   OH2  791   4.984   4.268   0.309 -0.2604  0.3994 -0.4125
  276TIP3    H1  792   4.943   4.265   0.395 -0.0948  0.4064 -0.3325
  276TIP3    H2  793   4.917   4.237   0.249  0.3908 -2.0061 -0.0020
  277TIP3   OH2  794   1.036   1.893   3.210  0.2518 -0.1026  0.8856
  277TIP3    H1  795   1.015   1.982   3.180  1.3773  0.0081  0.3476
  277TIP3    H2  796   1.088   1.856   3.138 -0.8269 -1.4738  0.7812
  278TIP3   OH2  797   0.700   5.220   0.164 -0.2457  0.2653  0.3868
  278TIP3    H1  798   0.685   5.131   0.132 -2.1426  0.3739  0.8273
  278TIP3    H2  799   0.786   5.217   0.205  0.2616 -1.0304 -0.6914
  279TIP3   OH2  800   5.793   1.285   0.029  0.6829  0.0963 -0.1222
  279TIP3    H1  801   5.804   1.276  -0.066  1.7374  1.8515 -0.2273
  279TIP3    H2  802   5.747   1.206   0.056 -1.2889  0.3723 -2.3568
  280TIP3   OH2  803   2.672   5.378   3.922  0.2935 -0.5954  0.0925
  280TIP3    H1  804   2.737   5.312   3.898  0.4469 -0.1232 -0.8619
  280TIP3    H2  805   2.594   5.353   3.872  1.1190  1.3632 -2.4288
  281TIP3   OH2  806   3.532   6.167   1.117 -0.3981  0.0724 -0.1958
  281TIP3    H1  807   3.577   6.124   1.190 -0.3727 -1.6463 -1.1469
  281TIP3    H2  808   3.439   6.150   1.133 -0.3738 -0.5735 -0.6951
  282TIP3   OH2  809   3.597   5.291   2.702 -0.4272  0.7621  0.2537
  282TIP3    H1  810   3.623   5.211   2.747 -3.1796  0.3108  1.1960
  282TIP3    H2  811   3.639   5.285   2.616  0.7792 -0.8330  0.9040
  283TIP3   OH2  812   1.997   5.939   3.166 -0.4518  0.0326 -0.0388
  283TIP3    H1  813   2.060   5.885   3.120 -1.3843 -0.5411 -0.6660
  283TIP3    H2  814   2.042   6.022   3.180  0.5474 -0.4720 -0.1838
  284TIP3   OH2  815   1.036   6.508   2.239 -0.0619 -0.0434  0.0329
  284TIP3    H1  816   0.997   6.436   2.290  0.0409  0.8138  1.3770
  284TIP3    H2  817   1.127   6.480   2.225 -0.1267 -0.3463  0.2032
  285TIP3   OH2  818   3.170   0.509   3.615  0.0703  0.1438 -0.2761
  285TIP3    H1  819   3.177   0.470   3.703 -0.7646  0.0764 -0.2376
  285TIP3    H2  820   3.198   0.439   3.556 -1.0622 -0.4058 -0.1790
  286TIP3   OH2  821   5.667   3.491   5.211  0.4308  0.1477 -1.0328
  286TIP3    H1  822   5.626   3.572   5.178  1.5823 -0.0693 -3.2139
  286TIP3    H2  823   5.761   3.504   5.195  1.0850 -0.2047  1.9548
  287TIP3   OH2  824   3.604   5.422   5.769 -0.5628  0.2571 -0.4345
  287TIP3    H1  825   3.593   5.330   5.794 -0.6713  0.5278  0.5258
  287TIP3    H2  826   3.576   5.424   5.677 -1.2634 -0.5287 -0.2549
  288TIP3   OH2  827   3.911   5.696   1.448  0.3177  0.4894 -0.5713
  288TIP3    H1  828   3.863   5.764   1.494 -0.8439  0.4576 -1.6877
  288TIP3    H2  829   3.897   5.716   1.355 -0.0040 -1.2291 -0.9170
  289TIP3   OH2  830   7.124   4.695   3.352 -0.5913 -0.4312  0.0261
  289TIP3    H1  831   7.197   4.719   3.409 -2.2442  0.0351  2.0702
  289TIP3    H2  832   7.139   4.745   3.272 -0.2028  2.0282  1.5201
  290TIP3   OH2  833   6.594   4.431   1.050 -0.3528  0.3857  0.2406
  290TIP3    H1  834   6.561   4.402   0.965  0.9013  0.1282 -0.1914
  290TIP3    H2  835   6.602   4.350   1.101  0.5057  0.3104  0.0016
  291TIP3   OH2  836   2.256   0.111   5.271 -0.5233  0.0194  0.5414
  291TIP3    H1  837   2.244   0.152   5.186  1.1517  0.7083  0.5935
  291TIP3    H2  838   2.327   0.047   5.257 -1.2891 -0.9796  1.0720
  292TIP3   OH2  839   2.164   0.441   1.446  0.2683  0.0348  0.0627
  292TIP3    H1  840   2.225   0.473   1.512  1.2687 -2.7386  0.6046
  292TIP3    H2  841   2.083   0.424   1.494  0.7431 -1.1983  0.4813
  293TIP3   OH2  842   4.730   4.237   1.525  0.1472 -0.2235 -0.3619
  293TIP3    H1  843   4.660   4.298   1.549 -0.8499 -0.8018 -1.7093
  293TIP3    H2  844   4.772   4.278   1.449  0.4020 -0.5307 -0.3871
  294TIP3   OH2  845   1.403   3.928   2.034  0.0397  0.7457 -0.0088
  294TIP3    H1  846   1.343   3.994   2.000 -0.5389 -0.3904 -1.3346
  294TIP3    H2  847   1.474   3.926   1.970 -0.2807 -0.3367 -0.3626
  295TIP3   OH2  848   3.699   1.945   0.368 -0.2556 -0.3819  0.0018
  295TIP3    H1  849   3.697   2.013   0.436  1.3980 -1.1180  0.8547
  295TIP3    H2  850   3.622   1.891   0.387 -1.6049  1.1943 -0.6946
  296TIP3   OH2  851   1.216   3.872   0.155  0.2865 -0.1058 -0.1570
  296TIP3    H1  852   1.220   3.831   0.068  3.2949 -1.7915  0.6329
  296TIP3    H2  853   1.224   3.966   0.137  2.3579 -0.5024 -1.7242
  297TIP3   OH2  854   1.620   4.392   1.630  0.3381  0.0437  1.2517
  297TIP3    H1  855   1.670   4.317   1.596 -1.4254 -0.8378  0.5020
  297TIP3    H2  856   1.653   4.467   1.579  1.1557 -0.4377  1.0429
  298TIP3   OH2  857   1.948   4.943   3.088  0.1952 -0.0001  0.5455
  298TIP3    H1  858   1.979   4.985   3.168  0.2385 -0.5728  0.8336
  298TIP3    H2  859   1.942   4.850   3.110  0.6198 -0.2269 -0.2377
  299TIP3   OH2  860   4.795   0.122   1.315  0.4504 -0.2066  0.0642
  299TIP3    H1  861   4.865   0.119   1.381  0.4718  0.2489  0.0651
  299TIP3    H2  862   4.819   0.196   1.259  1.2259 -1.4795 -1.3466
  300TIP3   OH2  863   6.470  -0.005   1.295 -0.1698 -0.1641 -0.5556
  300TIP3    H1  864   6.557   0.027   1.269 -0.1461 -0.3011 -0.6491
  300TIP3    H2  865   6.422   0.073   1.321  0.5480 -0.2529  1.1930
  301TIP3   OH2  866   5.997   4.851   3.142 -0.3755  0.5602 -0.9000
  301TIP3    H1  867   5.941   4.783   3.180  1.7383 -0.4737  0.5768
  301TIP3    H2  868   6.077   4.805   3.118  1.0828  2.5015  0.0237
  302TIP3   OH2  869   1.271   3.654   2.239 -0.1968  0.6380  0.0814
  302TIP3    H1  870   1.357   3.620   2.214 -0.3242 -0.2801  0.8358
  302TIP3    H2  871   1.289   3.743   2.271  0.5315  0.3015  0.6381
  303TIP3   OH2  872   1.285   1.302   2.282 -0.5094  0.7456 -0.0203
  303TIP3    H1  873   1.286   1.208   2.263  0.5626  0.9000 -0.9083
  303TIP3    H2  874   1.310   1.309   2.374  2.1481  0.2136 -0.6018
  304TIP3   OH2  875   4.817   6.334   3.137 -0.0722  0.5366  0.4620
  304TIP3    H1  876   4.748   6.401   3.142 -0.0633  0.5970 -0.1784
  304TIP3    H2  877   4.776   6.262   3.090  0.3779  0.6753 -0.1584
  305TIP3   OH2  878   4.178   6.157   5.644  0.1635  0.8618 -0.0017
  305TIP3    H1  879   4.224   6.076   5.625  0.0063  0.9330 -0.6981
  305TIP3    H2  880   4.247   6.222   5.658  0.3149  0.4147  1.5123
  306TIP3   OH2  881   6.459   6.620   5.605  0.1139 -0.2313  0.2966
  306TIP3    H1  882   6.533   6.585   5.556 -1.2521 -0.9926 -1.2822
  306TIP3    H2  883   6.464   6.715   5.591  1.5598 -0.1128  1.3699
  307TIP3   OH2  884   6.650   3.250   2.625  0.0350 -0.2321 -0.1771
  307TIP3    H1  885   6.693   3.254   2.710 -0.6453 -0.0217  0.1619
  307TIP3    H2  886   6.722   3.237   2.563  0.6040  0.2259  0.3664
  308TIP3   OH2  887   3.607   1.121   4.525 -0.7941  0.1388 -0.2805
  308TIP3    H1  888   3.646   1.173   4.454  0.2860 -0.6496 -0.2806
  308TIP3    H2  889   3.621   1.030   4.499 -1.6764 -0.1725  0.2645
  309TIP3   OH2  890   0.216   5.262   2.461 -0.3786  0.7506  0.2165
  309TIP3    H1  891   0.185   5.339   2.414  1.5293  0.8721 -0.9634
  309TIP3    H2  892   0.312   5.266   2.453  0.0712  0.5075  3.7380
  310TIP3   OH2  893   7.219   2.035   0.356 -0.2989 -0.8975 -0.1432
  310TIP3    H1  894   7.124   2.030   0.355 -0.2774 -1.8350 -2.3304
  310TIP3    H2  895   7.241   2.088   0.279  0.9715 -0.8721  0.2115
  311TIP3   OH2  896   0.295   2.029   1.073  0.6605 -0.4498  0.1692
  311TIP3    H1  897   0.221   2.075   1.114  0.5583 -0.6568  0.2226
  311TIP3    H2  898   0.325   2.088   1.004  0.2529 -0.4928 -0.0472
  312TIP3   OH2  899   0.027   3.762   5.264 -0.3068  0.8043 -0.5839
  312TIP3    H1  900  -0.052   3.707   5.274 -1.1210  2.1029  0.5115
  312TIP3    H2  901   0.085   3.710   5.208 -0.2309 -2.0671  1.8633
  313TIP3   OH2  902   0.586   6.471   3.827 -0.4224 -0.0233 -0.8920
  313TIP3    H1  903   0.517   6.409   3.847 -0.4933 -0.0037 -1.0725
  313TIP3    H2  904   0.550   6.525   3.757  0.2326 -0.8143 -1.8607
  314TIP3   OH2  905   0.357   3.365   0.149  0.1511  0.0863  0.3249
  314TIP3    H1  906   0.300   3.433   0.113 -3.6767 -2.6528  0.6365
  314TIP3    H2  907   0.408   3.334   0.074  0.5165  1.8713 -0.2159
  315TIP3   OH2  908   5.488   0.543   1.128  0.0063 -0.1675  0.2609
  315TIP3    H1  909   5.414   0.513   1.075  0.2161 -1.0260  0.4280
  315TIP3    H2  910   5.559   0.553   1.065  0.1840 -0.9345  0.3237
  316TIP3   OH2  911   0.585   5.494   0.720 -0.0418  0.2021  0.0258
  316TIP3    H1  912   0.498   5.468   0.750  0.0011 -1.6949 -1.3263
  316TIP3    H2  913   0.593   5.585   0.747 -2.1995  0.2485  0.7165
  317TIP3   OH2  914   0.317   6.299   4.080  0.0871  0.2842 -0.3856
  317TIP3    H1  915   0.348   6.223   4.129 -0.1267 -0.6378 -1.6283
  317TIP3    H2  916   0.344   6.282   3.990 -1.1920  1.0064 -0.9326
  318TIP3   OH2  917   7.108   3.394   1.661 -0.1651 -0.0367 -0.1913
  318TIP3    H1  918   7.024   3.348   1.659  0.1240 -0.5992  0.3962
  318TIP3    H2  919   7.170   3.330   1.694  0.4128  0.5143 -0.1874
  319TIP3   OH2  920   2.719   0.396   5.840  0.1591 -0.1604 -0.0052
  319TIP3    H1  921   2.629   0.409   5.809  0.1357  1.3774  0.6675
  319TIP3    H2  922   2.741   0.477   5.885  2.2776 -0.0969 -1.0749
  320TIP3   OH2  923   4.068   2.889   4.743 -0.2058 -0.0264  0.0032
  320TIP3    H1  924   4.114   2.969   4.719 -1.5509  0.6243 -0.5395
  320TIP3    H2  925   4.061   2.892   4.838 -0.4498  0.6402 -0.0307
  321TIP3   OH2  926   4.604   2.323   3.455 -0.7574  0.0276 -0.4726
  321TIP3    H1  927   4.601   2.251   3.519 -1.2079  0.4561  0.0006
  321TIP3    H2  928   4.596   2.402   3.509  0.8366  0.4925 -0.8736
  322TIP3   OH2  929   0.152   4.310   0.897 -0.1287 -0.3243 -0.5516
  322TIP3    H1  930   0.214   4.288   0.828  0.1622  1.0105 -0.7389
  322TIP3    H2  931   0.083   4.359   0.853 -0.5169 -0.4331 -0.0777
  323TIP3   OH2  932   5.310   2.984   5.128 -0.4424 -0.3167  0.0724
  323TIP3    H1  933   5.277   3.073   5.119  1.2808  0.3611  0.0017
  323TIP3    H2  934   5.293   2.961   5.219  0.8410  0.8824  0.6661
  324TIP3   OH2  935   1.188   5.272   0.765  0.4871  0.6448 -0.3578
  324TIP3    H1  936   1.165   5.189   0.807  0.8103  0.5406 -0.3859
  324TIP3    H2  937   1.106   5.322   0.765  0.0483 -0.0367 -1.1928
  325TIP3   OH2  938   6.543   4.374   3.740  0.2903 -0.1424  0.0333
  325TIP3    H1  939   6.627   4.417   3.759  1.5353 -1.1142 -2.7097
  325TIP3    H2  940   6.567   4.294   3.693 -2.0967 -2.1676  1.9216
  326TIP3   OH2  941   3.845   4.337   1.574  0.6337  0.0771  0.5539
  326TIP3    H1  942   3.921   4.301   1.528 -0.7812 -2.3008 -0.0880
  326TIP3    H2  943   3.772   4.281   1.548 -1.1341  1.5170  2.1074
  327TIP3   OH2  944   5.567   4.893   4.414 -0.2553 -0.2320 -0.6040
  327TIP3    H1  945   5.561   4.883   4.319 -0.6867 -0.7685 -0.5259
  327TIP3    H2  946   5.556   4.987   4.428  1.5591  0.1100 -1.1896
  328TIP3   OH2  947   1.633   3.629   4.789  0.0439 -0.1025  0.0604
  328TIP3    H1  948   1.674   3.654   4.872  3.0524 -1.2761 -0.9006
  328TIP3    H2  949   1.596   3.543   4.805  0.1239 -0.0900  0.3179
  329TIP3   OH2  950   0.528   5.173   3.867 -0.1630  0.0294  0.2962
  329TIP3    H1  951   0.489   5.159   3.781  1.1955 -0.3241 -0.2784
  329TIP3    H2  952   0.477   5.246   3.904 -1.5099 -0.5685 -0.3109
  330TIP3   OH2  953   5.214   1.530   1.164 -0.0768  0.3618 -0.1528
  330TIP3    H1  954   5.183   1.467   1.229 -1.5818  1.6693  0.4632
  330TIP3    H2  955   5.255   1.599   1.216 -0.7768  1.1419 -0.6031
  331TIP3   OH2  956   6.456   2.652   4.701  0.1158  0.0783 -0.2240
  331TIP3    H1  957   6.543   2.616   4.689  0.0611  0.1092 -0.7148
  331TIP3    H2  958   6.461   2.701   4.783  0.6432  0.3333 -0.4075
  332TIP3   OH2  959   1.649   0.115   5.825  0.2476  0.2328  0.1670
  332TIP3    H1  960   1.698   0.196   5.816  0.4138  0.2246  0.9939
  332TIP3    H2  961   1.626   0.091   5.735  0.2284  1.1699 -0.0846
  333TIP3   OH2  962   2.158   3.969   4.314 -0.1648 -0.3441  0.1879
  333TIP3    H1  963   2.223   3.995   4.248  1.2585 -1.4063  1.1096
  333TIP3    H2  964   2.119   3.889   4.279  0.1654 -0.5824  0.3656
  334TIP3   OH2  965   3.725   5.732   1.966 -0.7503 -0.2826 -0.2860
  334TIP3    H1  966   3.642   5.686   1.984 -0.5239 -0.6451 -0.1559
  334TIP3    H2  967   3.768   5.679   1.900 -1.1901  0.5952 -1.3077
  335TIP3   OH2  968   0.439   0.284   3.311 -0.0722  0.3837 -0.0822
  335TIP3    H1  969   0.467   0.367   3.350  1.3633 -0.7315  1.3984
  335TIP3    H2  970   0.344   0.285   3.320  0.0931  0.8352  2.1975
  336TIP3   OH2  971   3.056   2.923   0.448 -0.4328  0.0102  0.3192
  336TIP3    H1  972   3.041   2.935   0.542 -1.2734 -0.2643  0.2250
  336TIP3    H2  973   3.138   2.875   0.443 -0.3153  0.1408  0.9072
  337TIP3   OH2  974   0.285   3.139   3.953  0.1628  0.0679  0.4475
  337TIP3    H1  975   0.328   3.059   3.984 -1.7187 -0.6189  1.4264
  337TIP3    H2  976   0.205   3.109   3.911 -0.5608  1.4234  0.7964
  338TIP3   OH2  977   1.419   0.202   4.974 -0.1316  0.0271  0.0594
  338TIP3    H1  978   1.486   0.230   4.912  1.1559  0.0940  1.4169
  338TIP3    H2  979   1.391   0.116   4.942  0.8976 -0.1819 -0.3409
  339TIP3   OH2  980   6.219   1.677   4.944  0.5226  0.1160  0.0119
  339TIP3    H1  981   6.298   1.675   4.890  2.0045  1.8216  1.9617
  339TIP3    H2  982   6.233   1.610   5.010  0.9032  1.1901  1.0512
  340TIP3   OH2  983   4.574   0.375   4.527  0.2543  0.2995 -0.1475
  340TIP3    H1  984   4.620   0.291   4.530  0.7485  0.5664  2.1402
  340TIP3    H2  985   4.631   0.432   4.476  2.1303  0.3556  1.8329
  341TIP3   OH2  986   6.759   1.261   3.757 -0.5677  0.2897  0.5058
  341TIP3    H1  987   6.726   1.179   3.719 -0.8770 -0.3824  2.1370
  341TIP3    H2  988   6.839   1.279   3.708 -1.3452 -0.1004 -0.9759
  342TIP3   OH2  989   1.252   0.310   5.850 -0.1689 -0.1379 -0.0414
  342TIP3    H1  990   1.329   0.259   5.874 -0.5802 -1.3071 -1.1070
  342TIP3    H2  991   1.187   0.245   5.822 -0.7154  0.9431 -1.4147
  343TIP3   OH2  992   1.984   0.597   5.741 -0.1629 -0.3953 -0.2038
  343TIP3    H1  993   2.036   0.614   5.663 -0.6735 -1.0853 -0.7067
  343TIP3    H2  994   1.897   0.573   5.708 -0.2417 -1.2158  0.5398
  344TIP3   OH2  995   1.797   3.732   0.485  0.2621  0.2139 -0.7253
  344TIP3    H1  996   1.795   3.644   0.447  1.4177 -0.2027  0.0923
  344TIP3    H2  997   1.750   3.723   0.568 -1.6555  0.9545 -1.6771
  345TIP3   OH2  998   0.325   3.981   4.502  0.0318 -0.6594  0.3177
  345TIP3    H1  999   0.364   3.921   4.566 -0.4737 -0.2773  1.0006
  345TIP3    H2 1000   0.309   4.062   4.552 -1.3704 -0.7186  0.0047
  346TIP3   OH2 1001   1.668   4.639   3.393  0.6953 -0.3476  0.0432
  346TIP3    H1 1002   1.630   4.589   3.466  2.1722  0.3950  1.3888
  346TIP3    H2 1003   1.751   4.671   3.427  0.3925  1.9481 -1.2081
  347TIP3   OH2 1004   3.808   5.999   2.045  0.3124 -0.1873  0.1324
  347TIP3    H1 1005   3.848   5.939   1.981 -0.1251 -0.4514  0.0978
  347TIP3    H2 1006   3.875   6.065   2.062  0.4923 -0.2075 -0.4787
  348TIP3   OH2 1007   0.290   2.191   0.548  0.1524 -0.4597 -0.4673
  348TIP3    H1 1008   0.239   2.110   0.547 -0.2723 -0.2256  0.9451
  348TIP3    H2 1009   0.305   2.210   0.640 -0.6613  1.6382 -0.7021
  349TIP3   OH2 1010   2.935   0.740   4.371 -0.4055  0.0999 -0.2220
  349TIP3    H1 1011   3.017   0.692   4.383 -0.5850 -0.6959 -1.9384
  349TIP3    H2 1012   2.955   0.829   4.398  1.1241 -0.0176 -0.8849
  350TIP3   OH2 1013   0.053   1.227   1.584  0.1882  0.3945  0.3028
  350TIP3    H1 1014  -0.015   1.294   1.594  0.2434  0.7766 -1.5445
  350TIP3    H2 1015   0.045   1.174   1.663 -1.9694  0.6983  0.3696
  351TIP3   OH2 1016   1.046   3.960   5.567  0.1175  0.2710  0.0942
  351TIP3    H1 1017   0.958   3.987   5.596  0.7483  3.1281 -0.4015
  351TIP3    H2 1018   1.029   3.891   5.503 -1.7029  0.0139  0.7731
  352TIP3   OH2 1019   6.916   4.834   3.418 -0.4139 -0.1916  0.2599
  352TIP3    H1 1020   6.907   4.887   3.339 -0.2415  1.1908  1.1218
  352TIP3    H2 1021   6.960   4.754   3.389  0.8899  0.8624 -0.8208
  353TIP3   OH2 1022   1.437   1.280   0.302  0.3416 -0.6715  0.7151
  353TIP3    H1 1023   1.518   1.318   0.337  0.9592 -3.1329  2.1691
  353TIP3    H2 1024   1.464   1.199   0.261 -1.3584 -1.4614  1.0559
  354TIP3   OH2 1025   2.651   5.887   0.912  0.5014  0.4081 -0.2703
  354TIP3    H1 1026   2.725   5.889   0.973 -0.2421 -0.3935  0.6882
  354TIP3    H2 1027   2.685   5.842   0.835  0.8021 -0.6442  0.4614
  355TIP3   OH2 1028   7.103   6.409   1.009  0.0659 -0.0238  0.1936
  355TIP3    H1 1029   7.155   6.417   0.928 -0.7369  0.9125 -0.2551
  355TIP3    H2 1030   7.154   6.457   1.074 -0.3809  1.2378 -0.3407
  356TIP3   OH2 1031   2.977   4.609   0.337 -0.3274  0.1953 -0.0333
  356TIP3    H1 1032   2.924   4.669   0.284 -2.4694  0.5420  2.3063
  356TIP3    H2 1033   3.044   4.666   0.377 -1.6998  0.9363  1.3427
  357TIP3   OH2 1034   1.292   2.956   1.907 -0.7581 -0.2230  0.4051
  357TIP3    H1 1035   1.249   3.040   1.901  0.5524  0.3487 -3.2879
  357TIP3    H2 1036   1.377   2.975   1.946  0.0416  0.5081 -1.5584
  358TIP3   OH2 1037   1.329   3.721   0.357 -0.1045  0.8030 -0.7069
  358TIP3    H1 1038   1.272   3.756   0.288 -1.2114 -0.7140 -0.6276
  358TIP3    H2 1039   1.294   3.633   0.373  0.0893  1.1328  1.8144
  359TIP3   OH2 1040   0.795   6.288   5.740 -0.2374 -0.3609  0.5980
  359TIP3    H1 1041   0.785   6.319   5.650 -0.2159 -1.4434  0.1972
  359TIP3    H2 1042   0.829   6.363   5.788 -0.7386  0.3887 -0.1839
  360TIP3   OH2 1043   4.828   6.113   3.603  0.3252 -0.0703  0.5534
  360TIP3    H1 1044   4.828   6.148   3.692  3.1779  1.7967 -0.0517
  360TIP3    H2 1045   4.782   6.179   3.552  2.0218  0.8119  0.0946
  361TIP3   OH2 1046   1.526   5.978   3.424 -0.1651 -0.1183  0.1695
  361TIP3    H1 1047   1.537   6.070   3.451 -0.7514  0.2115 -0.7043
  361TIP3    H2 1048   1.611   5.954   3.387 -0.8563  1.0242 -2.3657
  362TIP3   OH2 1049   5.831   2.332   1.424 -0.5195 -0.0491  0.3526
  362TIP3    H1 1050   5.811   2.248   1.384 -0.1870  0.1498 -0.2413
  362TIP3    H2 1051   5.905   2.314   1.482  1.0110  0.2458 -1.4314
  363TIP3   OH2 1052   6.332   0.645   1.312  0.6128 -0.5213  0.2327
  363TIP3    H1 1053   6.302   0.708   1.246  1.5268 -0.1139  0.1853
  363TIP3    H2 1054   6.252   0.604   1.344 -0.0168  0.6640  0.2536
  364TIP3   OH2 1055   0.212   3.224   1.837 -0.0262  0.3492 -0.3562
  364TIP3    H1 1056   0.258   3.153   1.883 -0.3187 -0.3800 -1.1644
  364TIP3    H2 1057   0.165   3.270   1.906  0.0827 -0.3087  0.1697
  365TIP3   OH2 1058   6.431   3.337   3.110  0.3880  0.5715  0.3963
  365TIP3    H1 1059   6.475   3.381   3.182 -0.4359 -0.0105  1.2772
  365TIP3    H2 1060   6.459   3.246   3.116 -1.3858  0.0558  1.3628
  366TIP3   OH2 1061   2.407   2.381   2.148  0.4332  0.4759 -0.1894
  366TIP3    H1 1062   2.330   2.328   2.126  1.5754 -1.2299 -0.2962
  366TIP3    H2 1063   2.418   2.368   2.242  1.2089 -0.2015 -0.3604
  367TIP3   OH2 1064   6.545   4.968   1.358  0.1440  0.2597 -0.3804
  367TIP3    H1 1065   6.502   5.039   1.311 -1.8974 -0.1362  0.7684
  367TIP3    H2 1066   6.636   4.997   1.368 -0.0818  1.6488 -1.9378
  368TIP3   OH2 1067   7.033   1.518   2.098  0.0698  0.3563  0.5685
  368TIP3    H1 1068   7.120   1.496   2.065 -0.6036 -3.5115  0.8606
  368TIP3    H2 1069   6.986   1.551   2.021  0.8215 -0.9724 -0.5151
  369TIP3   OH2 1070   3.421   5.231   1.182  0.1602  0.0812 -0.1301
  369TIP3    H1 1071   3.410   5.148   1.137  0.2356 -0.1850  0.3337
  369TIP3    H2 1072   3.398   5.213   1.273  0.5449  0.4703  0.0538
  370TIP3   OH2 1073   1.823   3.890   4.290  0.0500 -0.0191 -0.3228
  370TIP3    H1 1074   1.886   3.818   4.293  0.1105  0.0602  0.7388
  370TIP3    H2 1075   1.808   3.905   4.197  0.6663 -0.8533 -0.5695
  371TIP3   OH2 1076   4.715   1.378   3.302  0.3882 -0.2423  0.3450
  371TIP3    H1 1077   4.790   1.433   3.281  1.2706 -1.6675 -0.3990
  371TIP3    H2 1078   4.680   1.351   3.217 -2.1726  1.8699  0.6145
  372TIP3   OH2 1079   5.673   4.701   5.048  0.0081 -0.2698 -0.9727
  372TIP3    H1 1080   5.584   4.730   5.072  0.0331  0.0607 -1.2785
  372TIP3    H2 1081   5.683   4.727   4.957  0.4672 -0.1963 -0.9036
  373TIP3   OH2 1082   1.663   1.468   5.401 -0.7910  0.1469  0.1329
  373TIP3    H1 1083   1.585   1.444   5.451 -2.7251  0.8340 -2.3406
  373TIP3    H2 1084   1.690   1.552   5.437 -1.0901 -0.1573  1.1054
  374TIP3   OH2 1085   5.546   2.064   4.066 -0.2472 -0.0832  0.1241
  374TIP3    H1 1086   5.460   2.020   4.064 -1.2798  1.7827  0.9830
  374TIP3    H2 1087   5.554   2.105   3.980 -0.5470  0.3442  0.3005
  375TIP3   OH2 1088   7.142   0.647   0.550  0.5130 -0.0050 -0.0528
  375TIP3    H1 1089   7.083   0.680   0.618 -0.2333 -0.0211 -0.6884
  375TIP3    H2 1090   7.107   0.682   0.469  0.9288 -0.6539 -0.5199
  376TIP3   OH2 1091   4.843   4.011   5.566  0.2823 -0.0699  0.2713
  376TIP3    H1 1092   4.826   3.926   5.525  0.9399 -0.8407  1.5215
  376TIP3    H2 1093   4.926   4.039   5.530  2.3297 -2.0896  2.9755
  377TIP3   OH2 1094   0.944   4.735   1.366 -0.0930 -0.1550  0.2440
  377TIP3    H1 1095   0.966   4.756   1.275 -1.8347 -1.2428 -0.4669
  377TIP3    H2 1096   0.856   4.770   1.378  0.2105  0.1923  1.6163
  378TIP3   OH2 1097   6.720   4.183   1.208 -0.2443  0.4417  0.0306
  378TIP3    H1 1098   6.666   4.125   1.262  0.3554 -0.8242 -0.6781
  378TIP3    H2 1099   6.803   4.190   1.255 -0.1822  0.3963 -0.0705
  379TIP3   OH2 1100   4.574   0.564   3.461  0.3032 -0.5717 -0.1271
  379TIP3    H1 1101   4.544   0.571   3.370 -0.6470  0.1280  0.2308
  379TIP3    H2 1102   4.518   0.497   3.499 -1.7005  1.5338  0.8580
  380TIP3   OH2 1103   0.838   4.291   3.183  0.4359  0.4065 -0.1671
  380TIP3    H1 1104   0.788   4.209   3.183  0.8679  0.1268  0.8157
  380TIP3    H2 1105   0.776   4.357   3.152  0.0613 -0.2798 -0.9027
  381TIP3   OH2 1106   3.187   0.719   1.057  0.3515  0.1312 -0.0673
  381TIP3    H1 1107   3.132   0.653   1.013  0.6934  0.5767 -1.2080
  381TIP3    H2 1108   3.132   0.796   1.063 -0.7383 -0.7827  3.0619
  382TIP3   OH2 1109   4.166   5.187   5.856  0.0422  0.6350  0.0574
  382TIP3    H1 1110   4.089   5.243   5.864  0.5080  1.3905 -0.5948
  382TIP3    H2 1111   4.187   5.188   5.762  1.0148  0.6910  0.2615
  383TIP3   OH2 1112   7.184   4.037   5.301 -0.2032 -0.2432 -0.2350
  383TIP3    H1 1113   7.217   3.947   5.299 -0.0498 -0.1812 -1.2901
  383TIP3    H2 1114   7.089   4.028   5.298 -0.1645 -0.3633 -1.4070
  384TIP3   OH2 1115   2.862   3.178   1.726  0.0103  0.3775  0.3135
  384TIP3    H1 1116   2.831   3.251   1.780  0.9313  0.2273  1.0832
  384TIP3    H2 1117   2.891   3.112   1.789 -0.6477 -0.5927 -0.3735
  385TIP3   OH2 1118   5.225   2.560   2.183  0.6725  0.1545 -0.2847
  385TIP3    H1 1119   5.146   2.575   2.235  3.0234  0.0156  3.7070
  385TIP3    H2 1120   5.261   2.648   2.169  1.5031  0.0365  0.9504
  386TIP3   OH2 1121   1.904   0.299   4.455 -0.5413  0.3663  0.0869
  386TIP3    H1 1122   1.900   0.216   4.408  0.1056 -1.2390  2.6405
  386TIP3    H2 1123   1.988   0.337   4.430 -1.5106  1.0958 -2.2963
  387TIP3   OH2 1124   6.923   3.355   1.387 -0.0574 -0.1528 -0.1849
  387TIP3    H1 1125   7.013   3.361   1.357 -0.3821  0.7593 -0.9922
  387TIP3    H2 1126   6.929   3.366   1.482  1.0485 -3.7954  0.3454
  388TIP3   OH2 1127   2.933   4.732   5.617  0.2272  0.2262 -0.6471
  388TIP3    H1 1128   2.929   4.763   5.526 -0.3592  1.8405 -0.1254
  388TIP3    H2 1129   2.931   4.813   5.669  0.1785 -0.6809  0.8080
  389TIP3   OH2 1130   0.240   1.040   5.241  0.0414  0.2872  0.0620
  389TIP3    H1 1131   0.203   1.059   5.328 -1.1439  0.7678 -0.5246
  389TIP3    H2 1132   0.317   0.987   5.259  0.3042  1.1003  1.4638
  390TIP3   OH2 1133   6.792   5.706   1.185 -0.4679 -0.0992 -0.1747
  390TIP3    H1 1134   6.854   5.656   1.238 -0.6514 -1.3885 -1.1455
  390TIP3    H2 1135   6.836   5.718   1.101 -0.9329  0.2988 -0.3703
  391TIP3   OH2 1136   3.441   2.003   2.998 -0.6238 -0.3111 -0.1005
  391TIP3    H1 1137   3.435   1.927   3.056  0.3108 -0.0339  0.3711
  391TIP3    H2 1138   3.505   2.061   3.040 -0.9503  0.5136 -0.7106
  392TIP3   OH2 1139   1.400   4.117   1.393  0.2743  0.2138 -0.0220
  392TIP3    H1 1140   1.309   4.143   1.384 -0.3025 -1.1490  1.5572
  392TIP3    H2 1141   1.405   4.031   1.352  0.6227 -0.1442  0.7587
  393TIP3   OH2 1142   2.870   1.772   5.820 -0.1107  0.2381  0.0213
  393TIP3    H1 1143   2.859   1.787   5.914 -0.3115 -0.0320  0.0402
  393TIP3    H2 1144   2.927   1.696   5.815  2.3158  1.9422 -0.0644
  394TIP3   OH2 1145   7.152   3.787   0.598  0.3879 -0.7562  0.4226
  394TIP3    H1 1146   7.200   3.790   0.515 -0.7969 -0.6537 -0.2847
  394TIP3    H2 1147   7.074   3.735   0.579  1.0340 -2.3778  2.0104
  395TIP3   OH2 1148   4.353   6.054   3.826 -0.0127  0.1639  0.2039
  395TIP3    H1 1149   4.343   6.088   3.737  0.7041  0.0151  0.0548
  395TIP3    H2 1150   4.312   6.120   3.882 -0.5777  0.2005 -0.2448
  396TIP3   OH2 1151   6.778   6.349   2.380  0.0679 -0.1243 -0.1670
  396TIP3    H1 1152   6.864   6.343   2.422  1.9914 -0.6550 -3.7695
  396TIP3    H2 1153   6.743   6.260   2.385  1.6286 -0.9200 -2.0688
  397TIP3   OH2 1154   5.132   3.043   5.837 -0.1111  0.4272  0.0056
  397TIP3    H1 1155   5.185   2.974   5.798 -0.0031  1.0207 -0.9476
  397TIP3    H2 1156   5.135   3.026   5.931 -0.6815 -1.2714 -0.2566
  398TIP3   OH2 1157   5.124   3.092   2.686 -0.2001 -0.1547  0.2716
  398TIP3    H1 1158   5.090   3.047   2.609  0.5780  3.2377 -2.3419
  398TIP3    H2 1159   5.219   3.076   2.683  0.1190  1.6519 -0.8327
  399TIP3   OH2 1160   0.524   3.559   4.394  0.1417  0.6862  0.0007
  399TIP3    H1 1161   0.551   3.576   4.304 -0.9521  1.5165 -0.1946
  399TIP3    H2 1162   0.606   3.553   4.443  0.7684 -0.1748 -1.1077
  400TIP3   OH2 1163   1.137   4.363   2.603 -0.1820 -0.5945 -0.1928
  400TIP3    H1 1164   1.232   4.366   2.617 -0.0687 -2.8470 -0.1671
  400TIP3    H2 1165   1.127   4.378   2.509  0.2646 -1.0789 -0.3208
  401TIP3   OH2 1166   5.858   5.350   3.652 -0.2153  0.7777  0.0146
  401TIP3    H1 1167   5.839   5.266   3.693  0.0167  1.5243  1.6992
  401TIP3    H2 1168   5.823   5.341   3.563  1.4093 -1.7354 -0.4781
  402TIP3   OH2 1169   7.230   1.301   0.223  0.3769 -0.6385 -0.9555
  402TIP3    H1 1170   7.160   1.273   0.282  2.1972  0.5267  1.9494
  402TIP3    H2 1171   7.183   1.335   0.146 -2.2120 -0.6820  0.4805
  403TIP3   OH2 1172   2.217   1.048   3.516  0.2397  0.1005 -0.2438
  403TIP3    H1 1173   2.218   0.969   3.570  1.7056 -0.1446 -0.6023
  403TIP3    H2 1174   2.292   1.039   3.458  0.5823  1.8902 -0.1272
  404TIP3   OH2 1175   3.753   1.447   5.128  0.1423  0.4871 -0.1380
  404TIP3    H1 1176   3.703   1.501   5.068 -1.8057  0.6497  1.5276
  404TIP3    H2 1177   3.687   1.395   5.175  1.6373 -0.3533  1.1424
  405TIP3   OH2 1178   4.672   2.613   1.952  0.5808  0.3359 -0.3731
  405TIP3    H1 1179   4.754   2.661   1.966  0.3446  0.2859  1.3866
  405TIP3    H2 1180   4.605   2.682   1.950  0.4341  0.2179  0.3833
  406TIP3   OH2 1181   4.850   1.052   3.688 -0.4607  0.5695 -0.0858
  406TIP3    H1 1182   4.811   0.972   3.722  1.9575 -0.5535  0.2364
  406TIP3    H2 1183   4.784   1.087   3.628 -1.8425 -1.3042  0.2535
  407TIP3   OH2 1184   4.552   0.074   0.158 -0.1175  0.3826 -0.2476
  407TIP3    H1 1185   4.524   0.100   0.246  0.1122  0.5927 -0.2363
  407TIP3    H2 1186   4.470   0.055   0.111 -0.2593  0.6607 -0.1107
  408TIP3   OH2 1187   3.349   5.751   1.858 -0.1640  0.1716  0.5248
  408TIP3    H1 1188   3.421   5.807   1.886 -0.4844  0.2563  1.1916
  408TIP3    H2 1189   3.328   5.698   1.935  0.4550 -1.2176 -0.2358
  409TIP3   OH2 1190   2.944   0.343   0.579 -0.5059 -0.0028  0.0092
  409TIP3    H1 1191   2.865   0.291   0.571  0.0278 -0.4823 -3.3326
  409TIP3    H2 1192   2.913   0.434   0.578 -1.1986 -0.0949  2.8933
  410TIP3   OH2 1193   1.490   3.292   4.575  0.0328  0.0839 -0.2432
  410TIP3    H1 1194   1.504   3.217   4.518 -1.2386 -0.1698 -0.2543
  410TIP3    H2 1195   1.434   3.351   4.525 -0.9288 -0.0448  0.6430
  411TIP3   OH2 1196   4.307   4.228   5.393 -0.3042  0.5073  0.4874
  411TIP3    H1 1197   4.340   4.302   5.341 -1.7954 -0.5300 -2.1527
  411TIP3    H2 1198   4.362   4.154   5.367  1.3415  0.6186  3.2923
  412TIP3   OH2 1199   4.831   5.376   3.886  0.4193 -0.0549 -0.7953
  412TIP3    H1 1200   4.921   5.402   3.868  1.0510 -1.5668  0.0038
  412TIP3    H2 1201   4.803   5.333   3.805  1.4747 -2.2162 -0.0862
  413TIP3   OH2 1202   2.569   5.232   5.050  0.2549  0.2816 -0.0465
  413TIP3    H1 1203   2.494   5.269   5.006 -0.9953  1.2304  2.6456
  413TIP3    H2 1204   2.573   5.141   5.020  0.7073  1.2784 -3.4138
  414TIP3   OH2 1205   3.581   5.508   4.507 -0.1978  0.4808  0.0070
  414TIP3    H1 1206   3.510   5.464   4.460 -1.3769  1.1028  1.1311
  414TIP3    H2 1207   3.646   5.439   4.522 -0.5450 -0.1025 -1.0380
  415TIP3   OH2 1208   1.128   3.545   4.127  0.0360  0.5563 -0.1812
  415TIP3    H1 1209   1.217   3.511   4.117 -0.2382 -0.4481  0.6607
  415TIP3    H2 1210   1.077   3.502   4.058 -0.0384  0.2247  0.0773
  416TIP3   OH2 1211   0.448   3.663   5.858  0.0371  0.3799 -0.2958
  416TIP3    H1 1212   0.507   3.739   5.855  1.2792 -0.4047  1.8828
  416TIP3    H2 1213   0.370   3.695   5.903  0.1703  0.6226 -0.2354
  417TIP3   OH2 1214   3.922   1.735   3.645 -0.5185 -0.3899 -0.3412
  417TIP3    H1 1215   3.892   1.709   3.732 -0.7132 -0.5168 -0.4445
  417TIP3    H2 1216   3.961   1.821   3.657 -0.0939 -0.6261 -0.0411
  418TIP3   OH2 1217   0.241   1.891   0.698 -0.0790  0.3007 -0.1247
  418TIP3    H1 1218   0.276   1.937   0.774 -0.8480  1.2537 -0.3229
  418TIP3    H2 1219   0.147   1.909   0.700 -0.3429 -0.9293 -0.4559
  419TIP3   OH2 1220   6.978   0.052  -0.030  0.4570 -0.3074 -0.4807
  419TIP3    H1 1221   7.050   0.071   0.029  0.2015  0.2831 -0.3520
  419TIP3    H2 1222   6.918  -0.003   0.021 -0.0051  0.6187 -0.0221
  420TIP3   OH2 1223   2.543   3.150   2.201  0.6002  0.3598  0.2495
  420TIP3    H1 1224   2.484   3.144   2.276  0.1725  3.1145  0.2215
  420TIP3    H2 1225   2.564   3.243   2.194  3.6254 -0.2773 -0.7878
  421TIP3   OH2 1226   4.030   0.430   5.429 -1.0594  0.1422  0.0092
  421TIP3    H1 1227   3.953   0.449   5.482 -1.0130  0.1952  0.0577
  421TIP3    H2 1228   4.003   0.448   5.339 -1.2418 -0.2690 -0.0224
  422TIP3   OH2 1229   6.964   5.003   4.939  0.5663  0.0468  0.6995
  422TIP3    H1 1230   6.887   5.038   4.983  0.9373  1.1090  0.5359
  422TIP3    H2 1231   7.038   5.036   4.990  0.9395 -0.5891  0.5927
  423TIP3   OH2 1232   3.360   3.169   0.247 -0.3193 -0.6079 -0.3093
  423TIP3    H1 1233   3.392   3.124   0.325  0.4817 -0.5085 -0.5794
  423TIP3    H2 1234   3.373   3.262   0.266 -0.7140 -0.5498 -0.3097
  424TIP3   OH2 1235   1.404   1.202   5.347 -0.6210  0.2647 -0.2874
  424TIP3    H1 1236   1.343   1.135   5.377 -0.1271  0.2031  0.6004
  424TIP3    H2 1237   1.403   1.268   5.416  1.2408 -0.3264  0.3524
  425TIP3   OH2 1238   6.623   5.788   4.287  0.2022 -0.0217  0.0850
  425TIP3    H1 1239   6.613   5.863   4.229  1.8479  0.5521  0.5177
  425TIP3    H2 1240   6.704   5.746   4.259  0.3600 -0.4640  1.1616
  426TIP3   OH2 1241   3.433   4.645   4.829  0.0568 -0.3461 -0.3873
  426TIP3    H1 1242   3.410   4.633   4.737  0.0415  0.3772 -0.4846
  426TIP3    H2 1243   3.435   4.556   4.866 -0.4200 -0.5978 -0.9657
  427TIP3   OH2 1244   4.890   5.098   5.742 -0.1845  0.7515 -0.1816
  427TIP3    H1 1245   4.803   5.117   5.707 -0.6359 -1.5053 -0.4540
  427TIP3    H2 1246   4.877   5.019   5.796  1.8792 -0.3853 -1.2368
  428TIP3   OH2 1247   4.121   6.660   5.084  0.6039  0.1064  0.3110
  428TIP3    H1 1248   4.209   6.628   5.105  0.5053 -0.8547 -0.6437
  428TIP3    H2 1249   4.134   6.717   5.008  0.2983 -0.8676 -0.4974
  429TIP3   OH2 1250   0.673   4.615   5.647 -0.3459  0.1481  0.0760
  429TIP3    H1 1251   0.622   4.622   5.567  1.5803 -0.3265 -1.2751
  429TIP3    H2 1252   0.694   4.522   5.656 -0.9147  0.1153  1.4219
  430TIP3   OH2 1253   3.749   6.639   3.365  0.3384 -0.6176  0.3299
  430TIP3    H1 1254   3.675   6.579   3.366  0.8952 -1.3671 -0.8847
  430TIP3    H2 1255   3.814   6.597   3.309 -0.0465  2.0187 -2.3609
  431TIP3   OH2 1256   7.182   1.673   5.350  0.1361  0.3032 -0.4324
  431TIP3    H1 1257   7.128   1.603   5.315  0.2118 -0.0167  0.0863
  431TIP3    H2 1258   7.127   1.716   5.417  1.0183 -0.9691  1.1746
  432TIP3   OH2 1259   5.759   0.612   4.184 -0.2850  0.0840 -0.1557
  432TIP3    H1 1260   5.691   0.559   4.143 -0.0905  1.3057 -2.2386
  432TIP3    H2 1261   5.838   0.592   4.135 -0.1347  1.9596 -0.7744
  433TIP3   OH2 1262   3.620   3.901   2.001 -0.1829 -0.1434  0.5027
  433TIP3    H1 1263   3.632   3.935   2.090 -0.4144  1.9562 -0.2036
  433TIP3    H2 1264   3.617   3.806   2.011  0.4991  0.0198  2.6425
  434TIP3   OH2 1265   3.780   5.555   3.502  0.2054 -0.2103 -0.1875
  434TIP3    H1 1266   3.875   5.551   3.497  0.3270 -0.3575  1.5109
  434TIP3    H2 1267   3.758   5.647   3.485  0.5549 -0.3317 -1.4022
  435TIP3   OH2 1268   0.258   4.537   0.116 -0.2138 -0.1197 -0.2389
  435TIP3    H1 1269   0.328   4.506   0.058  0.0999 -0.8766  0.5380
  435TIP3    H2 1270   0.179   4.532   0.062  0.3074  0.7777 -1.1382
  436TIP3   OH2 1271   1.915   4.501   1.436 -0.1818 -0.2849 -0.5261
  436TIP3    H1 1272   1.863   4.570   1.476  0.2338  1.2251 -2.4428
  436TIP3    H2 1273   2.005   4.520   1.463 -0.3362 -1.7168  1.1462
  437TIP3   OH2 1274   1.128   0.241   0.215  0.2497 -0.0815 -0.0264
  437TIP3    H1 1275   1.220   0.255   0.240  0.8050 -0.9574 -1.4406
  437TIP3    H2 1276   1.084   0.222   0.298  0.8647  2.5231  0.9960
  438TIP3   OH2 1277   2.120   0.490   1.893 -0.1071 -0.5497 -0.5703
  438TIP3    H1 1278   2.058   0.465   1.961  1.5305  0.9433  1.6027
  438TIP3    H2 1279   2.177   0.555   1.934  1.5696 -0.2517 -3.1000
  439TIP3   OH2 1280   2.479   6.269   0.962  0.0192 -0.0626 -0.2214
  439TIP3    H1 1281   2.483   6.195   1.023  0.1015 -0.5309 -0.7888
  439TIP3    H2 1282   2.386   6.292   0.960  0.0563  0.1338  0.2941
  440TIP3   OH2 1283   2.049   6.777   3.690  0.5845  0.4237 -0.2345
  440TIP3    H1 1284   2.128   6.731   3.662  0.3449 -0.7606  0.9497
  440TIP3    H2 1285   2.038   6.848   3.626  0.9828 -1.1249 -2.1025
  441TIP3   OH2 1286   2.891   0.652   5.660 -0.1142  0.3243  0.1561
  441TIP3    H1 1287   2.800   0.672   5.640 -0.2747 -1.3497 -1.0391
  441TIP3    H2 1288   2.899   0.558   5.643  2.0736  0.6163 -0.7471
  442TIP3   OH2 1289   0.691   5.932   4.266  0.4506  0.8140  0.2643
  442TIP3    H1 1290   0.759   5.912   4.329  0.1033 -0.0709  0.3666
  442TIP3    H2 1291   0.706   5.872   4.193 -1.8236 -1.4245  1.4575
  443TIP3   OH2 1292   3.201   4.932   3.203 -0.1433  0.3211 -0.4321
  443TIP3    H1 1293   3.134   4.992   3.171 -1.1130  0.3860  1.5948
  443TIP3    H2 1294   3.261   4.988   3.254  0.6345  0.0274 -1.0019
  444TIP3   OH2 1295   1.320   5.387  -0.005  0.0113  0.0861 -0.2488
  444TIP3    H1 1296   1.348   5.362   0.083  0.3814  0.5145 -0.2434
  444TIP3    H2 1297   1.253   5.453   0.008  0.0953  0.1797 -0.2880
  445TIP3   OH2 1298   4.516   2.729   1.383 -0.1141  0.1750  0.6052
  445TIP3    H1 1299   4.600   2.768   1.359 -0.9182  1.5212 -0.2232
  445TIP3    H2 1300   4.533   2.636   1.391  1.0046  0.0846 -1.8937
  446TIP3   OH2 1301   1.914   2.237   4.959 -0.0485 -0.2180  0.4841
  446TIP3    H1 1302   1.905   2.146   4.929 -2.0432  0.2539 -0.5299
  446TIP3    H2 1303   1.836   2.253   5.012  1.2260  0.3674  2.2871
  447TIP3   OH2 1304   6.686   4.050   2.600 -0.0279  0.2453 -0.0615
  447TIP3    H1 1305   6.758   4.015   2.546 -0.0862 -1.2250  0.7554
  447TIP3    H2 1306   6.723   4.128   2.640  0.8516 -0.0273 -0.2972
  448TIP3   OH2 1307   4.385   3.544   1.052 -0.2755 -0.7933 -0.1078
  448TIP3    H1 1308   4.404   3.540   1.146  2.1409 -2.7624 -0.5683
  448TIP3    H2 1309   4.365   3.454   1.028 -1.0644 -0.2810 -1.4523
  449TIP3   OH2 1310   0.997   3.438   3.917  0.1123  0.0332  0.1890
  449TIP3    H1 1311   0.985   3.344   3.924 -1.2063  0.2208  0.5719
  449TIP3    H2 1312   1.027   3.452   3.827 -1.6181 -0.5874 -0.5248
  450TIP3   OH2 1313   5.463   1.145   1.613 -0.1466  0.2519 -0.1159
  450TIP3    H1 1314   5.380   1.147   1.565  0.0777 -0.1099 -0.5261
  450TIP3    H2 1315   5.496   1.234   1.608 -0.4653  0.3777 -0.0277
  451TIP3   OH2 1316   3.148   4.052   5.595  0.2663 -0.5689  0.0659
  451TIP3    H1 1317   3.213   3.993   5.558 -0.9251 -0.8463 -1.7221
  451TIP3    H2 1318   3.065   4.006   5.586 -0.7402  1.3779 -1.5934
  452TIP3   OH2 1319   2.684   0.108   3.218 -0.0030 -0.0777  0.2964
  452TIP3    H1 1320   2.736   0.182   3.187  0.6645 -1.0805 -1.0927
  452TIP3    H2 1321   2.744   0.056   3.271 -0.3834  0.1942  1.0113
  453TIP3   OH2 1322   6.893   2.138   0.660  0.5032 -0.5815  0.2725
  453TIP3    H1 1323   6.911   2.225   0.695 -3.9946  0.1413  1.4189
  453TIP3    H2 1324   6.861   2.088   0.735 -0.6636 -1.9709 -1.0786
  454TIP3   OH2 1325   6.172   4.824   0.876  0.0294 -0.1911  0.3064
  454TIP3    H1 1326   6.190   4.733   0.852  1.0938  0.4036 -1.3113
  454TIP3    H2 1327   6.097   4.849   0.822  0.2743  0.1414  0.1209
  455TIP3   OH2 1328   1.180   6.100   4.792  0.0458  0.4734 -0.2533
  455TIP3    H1 1329   1.203   6.183   4.834 -0.1563  0.2044  0.3869
  455TIP3    H2 1330   1.257   6.078   4.739 -0.3672  1.6963 -1.4301
  456TIP3   OH2 1331   1.822   1.675   4.783  0.4231 -0.1654  0.0335
  456TIP3    H1 1332   1.858   1.629   4.707 -1.0025 -0.8207 -0.2748
  456TIP3    H2 1333   1.884   1.656   4.853  1.6486  0.2607 -0.8871
  457TIP3   OH2 1334   1.825   5.970   4.017  0.2680  0.1159 -0.1246
  457TIP3    H1 1335   1.857   6.041   3.961  0.2862  1.0783  1.0507
  457TIP3    H2 1336   1.740   6.001   4.049  0.7155  0.0726  1.1806
  458TIP3   OH2 1337   1.286   5.660   5.338  0.3619 -0.0569  0.3282
  458TIP3    H1 1338   1.220   5.642   5.405  1.5333  1.7093  2.0460
  458TIP3    H2 1339   1.235   5.683   5.260 -1.0196 -0.7624  0.9828
  459TIP3   OH2 1340   0.793   0.744   4.234  0.1566 -0.7527  0.0717
  459TIP3    H1 1341   0.844   0.799   4.295 -1.2228  2.1098 -1.1802
  459TIP3    H2 1342   0.853   0.728   4.161  0.2482 -0.0293 -0.0168
  460TIP3   OH2 1343   3.005   4.785   3.543  0.0152  0.4481 -0.4794
  460TIP3    H1 1344   2.945   4.714   3.565  1.2815 -0.4817  0.0608
  460TIP3    H2 1345   2.963   4.828   3.468 -2.5182  1.3601  1.3156
  461TIP3   OH2 1346   1.831   1.964   1.065 -0.1263 -0.2393  0.0202
  461TIP3    H1 1347   1.820   1.953   1.160  1.9545  1.2191  0.4941
  461TIP3    H2 1348   1.920   1.934   1.048  0.3249  1.5840 -1.0640
  462TIP3   OH2 1349   5.283   2.308   1.025  0.6658 -0.2988  0.5255
  462TIP3    H1 1350   5.361   2.326   1.078  0.7849 -1.3681  0.7375
  462TIP3    H2 1351   5.210   2.335   1.080  0.8144 -0.9322  1.0435
  463TIP3   OH2 1352   0.761   2.592   2.154  0.1839 -0.2145 -0.0404
  463TIP3    H1 1353   0.714   2.652   2.096 -1.2888 -1.1210  0.1594
  463TIP3    H2 1354   0.840   2.570   2.106  0.0444  0.7482 -0.7470
  464TIP3   OH2 1355   1.125   1.662   5.876 -0.4966 -0.1901  0.1211
  464TIP3    H1 1356   1.158   1.672   5.787  0.9180  0.6749  0.7216
  464TIP3    H2 1357   1.030   1.673   5.867 -0.3472  0.1778 -1.2347
  465TIP3   OH2 1358   0.653   2.905   5.684 -0.4578  0.2974 -0.0129
  465TIP3    H1 1359   0.654   2.810   5.681 -0.0849  0.2237  1.5356
  465TIP3    H2 1360   0.712   2.932   5.613  0.0625 -0.6539  0.0458
  466TIP3   OH2 1361   1.805   4.661   4.356 -0.0081 -0.5786  0.0981
  466TIP3    H1 1362   1.763   4.724   4.415 -0.7520  0.1296 -1.1465
  466TIP3    H2 1363   1.768   4.680   4.270  1.0232 -1.6087 -0.6065
  467TIP3   OH2 1364   1.852   6.326   5.397 -0.1200 -0.4682  1.1038
  467TIP3    H1 1365   1.863   6.262   5.467  1.6374 -0.4075  0.9082
  467TIP3    H2 1366   1.773   6.297   5.351 -0.3315 -1.4862  2.0621
  468TIP3   OH2 1367   6.441   1.420   3.493  0.3691  0.3461  0.3601
  468TIP3    H1 1368   6.428   1.461   3.578 -0.4204 -1.9327  1.4221
  468TIP3    H2 1369   6.352   1.409   3.458  0.5997  0.0602 -0.1444
  469TIP3   OH2 1370   3.007   0.612   2.452 -0.0306  0.0023 -0.3993
  469TIP3    H1 1371   2.946   0.675   2.414  0.2903  0.5628 -0.0021
  469TIP3    H2 1372   2.969   0.589   2.537  0.1924  0.1685 -0.2549
  470TIP3   OH2 1373   4.720   0.889   0.976 -0.4838 -0.3526  0.3512
  470TIP3    H1 1374   4.788   0.957   0.975  0.2754 -1.0908 -0.0204
  470TIP3    H2 1375   4.642   0.932   0.942  0.4761 -0.1399 -1.7551
  471TIP3   OH2 1376   3.598   1.824   1.991  0.6789 -0.7053  0.4169
  471TIP3    H1 1377   3.544   1.902   2.005 -1.4596 -2.4001  2.4074
  471TIP3    H2 1378   3.619   1.826   1.897 -1.0503  1.1694  0.0007
  472TIP3   OH2 1379   3.650   3.465   5.293 -0.5181  0.2196 -0.0970
  472TIP3    H1 1380   3.641   3.374   5.321  1.6158  0.3429  1.1992
  472TIP3    H2 1381   3.579   3.511   5.337  0.7687 -0.1916  2.5947
  473TIP3   OH2 1382   6.944   0.262   3.661  0.3856  0.5800 -0.3396
  473TIP3    H1 1383   6.991   0.340   3.691 -0.6277  0.0321  3.1192
  473TIP3    H2 1384   6.993   0.189   3.698 -2.5710 -0.0267  2.9928
  474TIP3   OH2 1385   6.032   4.843   4.743  0.3594  0.0115  0.1492
  474TIP3    H1 1386   6.001   4.846   4.652  0.3936  0.6292  0.1504
  474TIP3    H2 1387   6.115   4.891   4.741  1.1537 -1.3271  0.2130
  475TIP3   OH2 1388   6.822   3.648   3.894  0.3102 -0.0993 -0.4935
  475TIP3    H1 1389   6.742   3.659   3.843  0.9355  1.0303 -1.2772
  475TIP3    H2 1390   6.803   3.689   3.979  0.0170  0.0710 -0.6413
  476TIP3   OH2 1391   3.049   1.557   5.834  0.6077  0.2940  0.1555
  476TIP3    H1 1392   3.114   1.610   5.788  1.6310  0.2019  1.4324
  476TIP3    H2 1393   3.085   1.469   5.834 -0.1318 -0.0140 -0.2174
  477TIP3   OH2 1394   5.407   5.829   1.670 -0.1956  0.0936  0.0707
  477TIP3    H1 1395   5.406   5.880   1.589  0.0227 -1.3542 -0.8859
  477TIP3    H2 1396   5.444   5.745   1.645  0.2745 -0.2563  1.7815
  478TIP3   OH2 1397   5.557   3.386   2.601  0.0220  0.0468 -0.8711
  478TIP3    H1 1398   5.616   3.338   2.660 -1.0871 -0.8395 -0.4443
  478TIP3    H2 1399   5.609   3.399   2.522  0.5922 -1.2925 -0.7526
  479TIP3   OH2 1400   1.291   5.610   3.966  0.2629  0.0044 -0.2043
  479TIP3    H1 1401   1.274   5.609   3.872  0.2058  1.9316 -0.2455
  479TIP3    H2 1402   1.376   5.567   3.976 -0.8110 -2.4463 -0.8329
  480TIP3   OH2 1403   4.983   6.464   5.491 -0.6126  0.4499 -0.1003
  480TIP3    H1 1404   4.934   6.521   5.550  0.1940 -1.1812  2.2904
  480TIP3    H2 1405   4.935   6.381   5.492  1.4450 -0.8114  1.3897
  481TIP3   OH2 1406   6.722   4.601   4.577 -0.1270  1.0767  0.1521
  481TIP3    H1 1407   6.745   4.551   4.499 -1.9254 -0.2377  0.3942
  481TIP3    H2 1408   6.738   4.692   4.553 -0.9464  0.7294 -1.8798
  482TIP3   OH2 1409   3.018   6.176   5.313  0.3861  0.4936 -0.0097
  482TIP3    H1 1410   2.946   6.233   5.340  0.0199 -0.0833  0.2390
  482TIP3    H2 1411   2.979   6.116   5.250  0.5212 -0.1674  0.5300
  483TIP3   OH2 1412   1.051   3.989   0.904 -0.0365 -0.0244 -0.4182
  483TIP3    H1 1413   1.045   3.975   0.809  0.2737  1.3632 -0.6594
  483TIP3    H2 1414   0.963   4.012   0.931  0.3249  2.0002 -0.8135
  484TIP3   OH2 1415   1.765   6.390   0.855 -0.2397  0.1093  0.2090
  484TIP3    H1 1416   1.742   6.483   0.856 -1.5743 -0.1784  2.1735
  484TIP3    H2 1417   1.694   6.348   0.806  1.3031  0.2425 -2.3396
  485TIP3   OH2 1418   4.820   0.292   0.224  0.4656  0.6448 -0.0825
  485TIP3    H1 1419   4.830   0.342   0.305  2.4419  0.1272  0.0297
  485TIP3    H2 1420   4.764   0.218   0.248  0.0514  1.1434  0.5080
  486TIP3   OH2 1421   2.968   5.265   1.193  0.1487 -0.0205  0.0796
  486TIP3    H1 1422   3.021   5.257   1.115 -0.6832  0.7987 -0.6028
  486TIP3    H2 1423   2.878   5.250   1.163 -0.1337 -0.2271  0.9801
  487TIP3   OH2 1424   0.120   3.904   2.612  0.1116  0.3302 -0.0762
  487TIP3    H1 1425   0.028   3.902   2.636  0.3065  3.0527  1.3470
  487TIP3    H2 1426   0.150   3.814   2.623 -1.9731 -0.2922  1.0439
  488TIP3   OH2 1427   4.166   2.052   2.676 -0.7150  0.0925 -0.1154
  488TIP3    H1 1428   4.258   2.074   2.662 -0.3286 -1.4717 -0.1764
  488TIP3    H2 1429   4.132   2.034   2.588 -0.9902  0.2676 -0.0485
  489TIP3   OH2 1430   5.765   5.089   1.197  0.1295 -0.2882 -0.2175
  489TIP3    H1 1431   5.696   5.024   1.210  0.7433 -1.0021 -0.4492
  489TIP3    H2 1432   5.806   5.065   1.114  0.1045  0.6518 -0.5165
  490TIP3   OH2 1433   5.883   5.568   2.430  0.4064  0.4721 -0.6652
  490TIP3    H1 1434   5.917   5.630   2.366 -0.9831  0.9861 -0.9566
  490TIP3    H2 1435   5.835   5.623   2.492  0.0634 -0.2108 -0.3191
  491TIP3   OH2 1436   4.451   0.172   1.759 -0.2503  0.2779 -0.0002
  491TIP3    H1 1437   4.438   0.181   1.664  0.7371  0.5408 -0.1215
  491TIP3    H2 1438   4.470   0.261   1.789 -0.8986  0.2504  0.5079
  492TIP3   OH2 1439   0.874   1.962   2.292 -0.6630 -0.5276  0.0876
  492TIP3    H1 1440   0.879   1.938   2.384 -2.2264 -1.4914 -0.0431
  492TIP3    H2 1441   0.831   2.048   2.292 -0.2287 -0.3097  0.2754
  493TIP3   OH2 1442   1.058   6.234   0.351  0.9164 -0.0281 -0.2387
  493TIP3    H1 1443   1.149   6.219   0.375  0.7254  1.0373  1.2347
  493TIP3    H2 1444   1.038   6.322   0.381 -0.5794 -0.1930 -0.6336
  494TIP3   OH2 1445   0.867   0.719   1.888  0.1459 -0.3305 -0.3398
  494TIP3    H1 1446   0.948   0.737   1.936 -0.9908  0.3098  1.4619
  494TIP3    H2 1447   0.874   0.627   1.862  1.7601 -0.0828 -0.9098
  495TIP3   OH2 1448   6.116   1.572   3.386  0.3284  0.3490 -0.0789
  495TIP3    H1 1449   6.142   1.480   3.386 -1.7660 -0.3009 -0.5950
  495TIP3    H2 1450   6.193   1.619   3.353  1.7491 -1.0840  1.0309
  496TIP3   OH2 1451   0.192   4.211   5.741  0.6319  0.5950 -0.3014
  496TIP3    H1 1452   0.234   4.292   5.713  1.8643  0.0069 -0.2248
  496TIP3    H2 1453   0.213   4.148   5.671 -3.0092  1.0654 -2.0540
  497TIP3   OH2 1454   5.247   2.276   2.536  0.3135 -0.1857 -0.2912
  497TIP3    H1 1455   5.282   2.364   2.547 -0.7436  0.1403  0.7165
  497TIP3    H2 1456   5.308   2.219   2.583 -0.3581  0.3480  1.2916
  498TIP3   OH2 1457   3.437   5.842   3.513 -0.1844  0.6685 -0.1292
  498TIP3    H1 1458   3.439   5.773   3.446 -0.7158  1.1488 -0.6573
  498TIP3    H2 1459   3.388   5.804   3.585  0.1372  0.2451 -0.1277
  499TIP3   OH2 1460   5.324   2.833   1.236 -0.4504 -0.0501 -0.2179
  499TIP3    H1 1461   5.359   2.918   1.208 -3.6202  1.3794 -0.2719
  499TIP3    H2 1462   5.304   2.787   1.154  1.7308 -1.1688 -0.1978
  500TIP3   OH2 1463   5.380   2.255   3.945  0.0768  0.2887 -0.1026
  500TIP3    H1 1464   5.452   2.238   3.884 -1.0128  0.8106 -1.6081
  500TIP3    H2 1465   5.413   2.325   4.002  1.5033 -0.9272  0.6477
  501TIP3   OH2 1466   2.578   1.302   2.366  0.3069 -0.5305 -0.0325
  501TIP3    H1 1467   2.536   1.374   2.414  1.9483  0.2251  0.3262
  501TIP3    H2 1468   2.559   1.320   2.274  1.6358  1.0233 -0.0396
  502TIP3   OH2 1469   3.639   2.457   0.774 -0.5034  0.1575 -0.1617
  502TIP3    H1 1470   3.722   2.489   0.741 -0.3787  0.1617  0.1480
  502TIP3    H2 1471   3.604   2.529   0.826  0.4787 -0.6898  1.7778
  503TIP3   OH2 1472   2.705   5.989   4.335 -0.0572  0.1981  0.2373
  503TIP3    H1 1473   2.793   6.018   4.357  0.1509  0.5115 -0.9317
  503TIP3    H2 1474   2.715   5.898   4.307  0.0608  0.5129 -0.7947
  504TIP3   OH2 1475   1.858   1.319   1.740  0.2314 -0.7251 -0.0564
  504TIP3    H1 1476   1.842   1.409   1.768 -1.1417 -0.7809 -0.5695
  504TIP3    H2 1477   1.872   1.270   1.820 -1.2460 -0.4425  0.4152
  505TIP3   OH2 1478   4.616   5.755   0.247 -0.1771  0.8300 -0.4401
  505TIP3    H1 1479   4.663   5.739   0.328 -1.2410 -0.7780 -0.0897
  505TIP3    H2 1480   4.658   5.698   0.183 -0.7192  0.4617 -0.4745
  506TIP3   OH2 1481   6.502   1.127   2.830 -0.0547 -0.3554 -0.3334
  506TIP3    H1 1482   6.468   1.104   2.743 -1.2654 -1.3146  0.3600
  506TIP3    H2 1483   6.503   1.044   2.878  2.8354 -0.2899 -0.1157
  507TIP3   OH2 1484   3.231   0.166   2.444 -0.4090  0.0638 -0.6426
  507TIP3    H1 1485   3.260   0.075   2.438 -1.1659 -0.3453  1.1235
  507TIP3    H2 1486   3.299   0.216   2.399  0.9547 -1.2165 -0.1114
  508TIP3   OH2 1487   1.388   4.456   5.387  0.3467  0.0814 -0.0371
  508TIP3    H1 1488   1.356   4.397   5.456  1.1505  0.8283  1.0033
  508TIP3    H2 1489   1.322   4.448   5.318 -1.1596  0.2125  1.2984
  509TIP3   OH2 1490   5.925   0.910   5.567 -0.9253 -0.3921  0.3202
  509TIP3    H1 1491   5.897   0.873   5.650  0.6509 -0.8881  0.6817
  509TIP3    H2 1492   5.933   0.834   5.508  0.9050 -0.5004  0.6384
  510TIP3   OH2 1493   3.603   1.605   1.144  0.0604  0.2105 -0.7450
  510TIP3    H1 1494   3.557   1.605   1.229  0.3464 -1.3913 -0.5553
  510TIP3    H2 1495   3.660   1.682   1.148  2.0313 -1.2405  1.6549
  511TIP3   OH2 1496   3.794   3.877   0.174 -0.2835 -0.1942  0.1142
  511TIP3    H1 1497   3.884   3.882   0.140  0.5356  1.0094  2.3016
  511TIP3    H2 1498   3.740   3.904   0.100  1.0824 -1.4629 -1.4274
  512TIP3   OH2 1499   4.929   5.181   2.877 -1.1954 -0.2041 -0.3267
  512TIP3    H1 1500   4.897   5.227   2.955  1.7583  0.8452  0.4076
  512TIP3    H2 1501   4.964   5.250   2.821  0.1170 -1.2295 -0.8234
  513TIP3   OH2 1502   5.794   1.820   0.501 -0.3492  0.4391 -0.6014
  513TIP3    H1 1503   5.761   1.778   0.421 -0.9009  1.0932 -0.7261
  513TIP3    H2 1504   5.729   1.800   0.568  0.9733 -1.6112  0.1632
  514TIP3   OH2 1505   0.287   1.733   1.083 -0.0666 -0.3911 -0.0544
  514TIP3    H1 1506   0.285   1.828   1.080  1.5772 -0.3653 -1.8767
  514TIP3    H2 1507   0.358   1.712   1.144  0.4326 -0.4382 -0.6521
  515TIP3   OH2 1508   4.353   5.358   3.271  0.2151  0.2881  0.9544
  515TIP3    H1 1509   4.402   5.434   3.303  0.2826  0.4141  0.5585
  515TIP3    H2 1510   4.391   5.340   3.185 -0.7435  0.6766  0.4401
  516TIP3   OH2 1511   5.783   5.273   5.090  0.1995 -0.1713  0.4623
  516TIP3    H1 1512   5.818   5.361   5.073 -0.2649 -0.1357 -0.3990
  516TIP3    H2 1513   5.851   5.214   5.059  0.0218 -0.1040 -0.0746
  517TIP3   OH2 1514   2.479   0.901   4.409 -0.2448 -0.6400  0.2208
  517TIP3    H1 1515   2.505   0.986   4.443  0.1417 -0.9125  0.6161
  517TIP3    H2 1516   2.542   0.840   4.446 -0.8876 -1.1804  0.4402
  518TIP3   OH2 1517   3.176   1.316   2.792 -0.0475  0.6166  0.8142
  518TIP3    H1 1518   3.098   1.324   2.847 -1.1821  1.8050 -0.8697
  518TIP3    H2 1519   3.144   1.282   2.708  1.0409  2.0956 -0.2588
  519TIP3   OH2 1520   0.444   4.791   5.789 -0.7452 -0.9013  0.0520
  519TIP3    H1 1521   0.441   4.719   5.726  1.7890  0.1088 -1.3666
  519TIP3    H2 1522   0.388   4.859   5.750 -0.3113 -0.8066 -0.4167
  520TIP3   OH2 1523   1.608   3.322   3.593 -0.0522 -0.0156 -0.1208
  520TIP3    H1 1524   1.539   3.387   3.603 -2.0779 -2.2307  1.2642
  520TIP3    H2 1525   1.651   3.320   3.678 -0.5863 -1.0617  0.1393
  521TIP3   OH2 1526   5.598   0.998   5.668 -0.1504  0.9489 -0.2374
  521TIP3    H1 1527   5.643   0.913   5.673 -0.2307  0.9422  0.5463
  521TIP3    H2 1528   5.646   1.054   5.728  0.6108  1.8212 -1.6111
  522TIP3   OH2 1529   4.720   2.103   0.601  0.4031  0.1572 -0.2108
  522TIP3    H1 1530   4.815   2.099   0.605  0.4083 -0.8743 -0.8917
  522TIP3    H2 1531   4.701   2.153   0.521  0.3599  1.3460  0.5279
  523TIP3   OH2 1532   1.121   0.853   1.678  0.4791  0.1002  0.0377
  523TIP3    H1 1533   1.188   0.890   1.736 -0.3239 -1.4734  2.0597
  523TIP3    H2 1534   1.081   0.930   1.636  1.2725  1.2720  1.3624
  524TIP3   OH2 1535   4.204   2.654   0.326  0.6841  0.3419  0.2688
  524TIP3    H1 1536   4.146   2.609   0.265 -0.2913 -0.7137  1.9018
  524TIP3    H2 1537   4.155   2.658   0.408  3.2888 -1.7120  2.1065
  525TIP3   OH2 1538   2.169   0.124   3.080 -0.1897 -0.2101 -0.5548
  525TIP3    H1 1539   2.124   0.138   3.164 -0.6010  0.6957 -0.9129
  525TIP3    H2 1540   2.262   0.119   3.103 -0.1383  1.6648 -0.2013
  526TIP3   OH2 1541   1.717   4.100   2.253  0.7846 -0.1939  0.4421
  526TIP3    H1 1542   1.644   4.125   2.195 -0.5290  0.3120  2.2120
  526TIP3    H2 1543   1.737   4.010   2.228 -0.4124 -0.3291 -0.1400
  527TIP3   OH2 1544   0.762   5.420   4.624 -0.1952  0.1491 -0.0930
  527TIP3    H1 1545   0.842   5.394   4.578  0.5120  2.1099 -0.0435
  527TIP3    H2 1546   0.754   5.355   4.694  2.1092  0.6030  0.7023
  528TIP3   OH2 1547   6.689   3.100   0.356 -0.1322  0.1113  0.2597
  528TIP3    H1 1548   6.766   3.130   0.403 -0.3241 -1.3542  1.5727
  528TIP3    H2 1549   6.682   3.160   0.281  1.4715  1.1013  0.8532
  529TIP3   OH2 1550   5.926   0.765   2.796  0.0826  0.8694  1.0902
  529TIP3    H1 1551   5.853   0.711   2.765  0.5665  1.2140 -0.7781
  529TIP3    H2 1552   5.892   0.854   2.796  0.4792  1.0278  0.2388
  530TIP3   OH2 1553   5.158   0.008   5.136  0.1718 -0.3404  0.4118
  530TIP3    H1 1554   5.210   0.087   5.124 -0.1184 -0.1647  0.2982
  530TIP3    H2 1555   5.083   0.020   5.078 -1.1620  0.4252  2.2029
  531TIP3   OH2 1556   3.669   2.222   3.595 -0.8222  0.7049 -0.0929
  531TIP3    H1 1557   3.764   2.234   3.596 -0.7826  0.4829 -0.7492
  531TIP3    H2 1558   3.653   2.157   3.663 -0.3769 -0.0788 -0.7111
  532TIP3   OH2 1559   5.596   3.612   4.692 -0.9480  0.3035 -0.3206
  532TIP3    H1 1560   5.633   3.652   4.613 -1.2097  0.3976 -0.3956
  532TIP3    H2 1561   5.523   3.669   4.716 -0.6149  0.5088  0.2313
  533TIP3   OH2 1562   7.018   2.955   2.645  0.0715 -0.4903  0.2948
  533TIP3    H1 1563   6.970   2.971   2.726  0.1561  0.3719  0.1922
  533TIP3    H2 1564   6.963   2.991   2.576  0.8177  0.4880  0.1733
  534TIP3   OH2 1565   6.103   0.985   1.207  0.6019 -0.0321  0.5485
  534TIP3    H1 1566   6.109   0.922   1.279 -1.8164 -2.7521 -1.4131
  534TIP3    H2 1567   6.160   0.949   1.139  0.0029  0.4715 -0.2326
  535TIP3   OH2 1568   3.168   1.703   2.498 -0.3622 -0.4391 -0.5577
  535TIP3    H1 1569   3.263   1.700   2.513 -0.2907 -1.8642 -1.1096
  535TIP3    H2 1570   3.131   1.734   2.580  0.6655  1.5229 -0.7805
  536TIP3   OH2 1571   0.424   6.595   3.598 -0.0271  0.4633  0.1965
  536TIP3    H1 1572   0.483   6.667   3.576  1.2555 -0.5130  0.3393
  536TIP3    H2 1573   0.438   6.531   3.528 -1.4710  0.5014 -0.1660
  537TIP3   OH2 1574   3.254   4.493   2.569 -0.4040  0.2498  0.0768
  537TIP3    H1 1575   3.209   4.478   2.486 -0.6419 -0.2876  0.2983
  537TIP3    H2 1576   3.306   4.414   2.583 -0.8011  0.0915  0.7103
  538TIP3   OH2 1577   0.245   4.304   4.481  0.1863  0.2727 -0.0615
  538TIP3    H1 1578   0.221   4.280   4.391 -0.3397 -1.4284  0.4953
  538TIP3    H2 1579   0.338   4.326   4.476  0.9987 -2.8763 -0.5066
  539TIP3   OH2 1580   7.172   4.657   4.211 -0.3823 -0.2032  0.0772
  539TIP3    H1 1581   7.120   4.668   4.131  0.3921 -0.4683 -0.4679
  539TIP3    H2 1582   7.204   4.745   4.232 -2.7751  0.4107  1.6516
  540TIP3   OH2 1583   1.910   4.402   4.414 -0.0492  0.2433  0.2994
  540TIP3    H1 1584   1.834   4.361   4.457  0.0597 -0.4935 -0.1872
  540TIP3    H2 1585   1.874   4.480   4.371 -0.6256 -0.3250 -0.2787
  541TIP3   OH2 1586   6.329   4.890   4.118 -0.2467 -0.3333  0.4060
  541TIP3    H1 1587   6.321   4.844   4.035  1.4683  0.5894 -0.3358
  541TIP3    H2 1588   6.350   4.980   4.094  0.2578 -0.0325  1.8211
  542TIP3   OH2 1589   0.765   3.071   0.295 -0.3579  0.4345 -0.1807
  542TIP3    H1 1590   0.825   3.113   0.234 -0.0088 -1.9682 -1.5890
  542TIP3    H2 1591   0.699   3.029   0.240 -0.4106 -1.2625  1.1082
  543TIP3   OH2 1592   6.492   5.811   2.735 -0.2073  0.6012 -0.0459
  543TIP3    H1 1593   6.430   5.788   2.666  0.4045 -1.4830  0.0397
  543TIP3    H2 1594   6.578   5.807   2.694  0.1202 -0.0816  0.6724
  544TIP3   OH2 1595   1.720   1.336   4.667  0.0229  0.4257  0.6066
  544TIP3    H1 1596   1.679   1.308   4.749  0.8137  0.4806  1.0251
  544TIP3    H2 1597   1.733   1.255   4.618 -0.4931  0.3973  0.5046
  545TIP3   OH2 1598   6.019   5.010   5.141 -0.2019  0.5398  0.6003
  545TIP3    H1 1599   5.947   4.957   5.176  1.3528 -0.4643  2.4697
  545TIP3    H2 1600   6.053   4.959   5.068 -0.2295  0.1166  0.8775
  546TIP3   OH2 1601   3.752   2.682   0.558  0.1563 -0.1044  0.2023
  546TIP3    H1 1602   3.806   2.662   0.481 -0.5268 -1.3213  0.0080
  546TIP3    H2 1603   3.664   2.693   0.523 -0.5253 -2.5377  0.9593
  547TIP3   OH2 1604   2.926   4.923   0.572  0.0189 -0.2320 -0.1235
  547TIP3    H1 1605   2.925   4.952   0.664  1.5052  2.1806 -0.7537
  547TIP3    H2 1606   2.858   4.975   0.530 -0.2200 -0.8584 -0.5166
  548TIP3   OH2 1607   1.426   0.792   1.562  0.3244 -0.4848 -0.3817
  548TIP3    H1 1608   1.379   0.846   1.498  0.0314 -0.1399  0.1257
  548TIP3    H2 1609   1.397   0.703   1.543 -0.8954 -0.2353  0.2154
  549TIP3   OH2 1610   0.679   1.230   3.300  0.3798  0.2307 -0.1266
  549TIP3    H1 1611   0.695   1.179   3.379 -0.3538  0.9862  0.5271
  549TIP3    H2 1612   0.679   1.321   3.329 -2.4154  0.4311 -0.4893
  550TIP3   OH2 1613   1.603   4.517   0.253  0.5277  0.2968  0.2750
  550TIP3    H1 1614   1.627   4.490   0.165 -0.4568 -0.7172  0.3012
  550TIP3    H2 1615   1.639   4.606   0.261  2.8084 -0.5127 -0.2301
  551TIP3   OH2 1616   3.377   3.570   1.716  0.6463  0.6362 -0.0085
  551TIP3    H1 1617   3.383   3.639   1.650 -0.2631  1.5596  0.8313
  551TIP3    H2 1618   3.426   3.604   1.791  1.3156 -0.2189 -0.0501
  552TIP3   OH2 1619   5.494   5.029   3.284 -0.1189  0.0225 -0.1018
  552TIP3    H1 1620   5.412   5.065   3.250 -0.1128  0.0000 -0.1411
  552TIP3    H2 1621   5.530   5.099   3.338 -0.7959 -0.4278  0.9770
  553TIP3   OH2 1622   5.984   6.782   1.576  0.3366  0.1383  0.3504
  553TIP3    H1 1623   5.947   6.809   1.660  0.1965  0.4972  0.1771
  553TIP3    H2 1624   6.077   6.769   1.593  0.1842 -0.5117  0.7293
  554TIP3   OH2 1625   3.714   2.870   1.132 -0.4876  0.0194  0.1115
  554TIP3    H1 1626   3.764   2.829   1.202 -2.3431 -3.6728 -0.5058
  554TIP3    H2 1627   3.628   2.887   1.171 -0.8512 -0.0243 -0.6586
  555TIP3   OH2 1628   0.626   0.079   3.303 -0.2373  0.4030 -0.1605
  555TIP3    H1 1629   0.541   0.122   3.291  0.0944  0.9481 -0.6140
  555TIP3    H2 1630   0.653   0.103   3.392  0.3756  1.9469 -0.7267
  556TIP3   OH2 1631   4.432   2.583   1.022 -0.2606  0.1256  0.1188
  556TIP3    H1 1632   4.443   2.488   1.018 -0.9063 -0.1319  2.7747
  556TIP3    H2 1633   4.521   2.617   1.035 -0.2500 -0.2990  1.2321
  557TIP3   OH2 1634   5.646   6.037   2.092 -0.1165  0.0370  0.1921
  557TIP3    H1 1635   5.632   6.007   2.002  1.3981  1.4347 -0.5742
  557TIP3    H2 1636   5.599   6.120   2.098 -0.0732  0.0322  0.6261
  558TIP3   OH2 1637   4.828   3.035   2.033  0.2579 -0.3001  0.0994
  558TIP3    H1 1638   4.780   3.026   1.950 -0.1641 -1.9360  0.4855
  558TIP3    H2 1639   4.877   3.116   2.023 -0.3940 -0.0509 -1.4439
  559TIP3   OH2 1640   5.420   2.475   5.876  0.0802  0.1604  0.4322
  559TIP3    H1 1641   5.342   2.521   5.846 -1.3444 -0.7943  2.4853
  559TIP3    H2 1642   5.492   2.535   5.855 -1.1520  1.0648 -1.5019
  560TIP3   OH2 1643   5.628   0.363   3.872  0.4085  0.1481 -0.7674
  560TIP3    H1 1644   5.675   0.290   3.911 -0.2151  0.4273  0.5519
  560TIP3    H2 1645   5.579   0.324   3.800 -0.6746 -0.9393  0.5106
  561TIP3   OH2 1646   2.025   6.113   5.091  0.0082 -0.1034 -0.0630
  561TIP3    H1 1647   2.068   6.191   5.126  0.0180  1.2477 -2.7750
  561TIP3    H2 1648   1.963   6.087   5.159  1.5747  0.8786  1.8589
  562TIP3   OH2 1649   0.718   2.032   4.127 -0.2972  0.9449 -0.1932
  562TIP3    H1 1650   0.788   2.024   4.193 -1.9612 -0.6016  1.5006
  562TIP3    H2 1651   0.741   1.967   4.060 -0.6054 -0.2875  0.8641
  563TIP3   OH2 1652   1.537   5.938   1.210 -1.0279  0.1486 -0.0566
  563TIP3    H1 1653   1.544   5.899   1.123  1.3193  1.6490 -0.6170
  563TIP3    H2 1654   1.562   6.030   1.198 -0.6417  0.4041  2.2143
  564TIP3   OH2 1655   0.350   6.076   2.965 -0.0699  0.1763  0.3005
  564TIP3    H1 1656   0.370   6.169   2.957 -0.8467  0.4665  1.4017
  564TIP3    H2 1657   0.375   6.053   3.054  0.9614 -0.9129 -0.2366
  565TIP3   OH2 1658   1.431   6.320   1.014 -0.8162  0.3626  0.2279
  565TIP3    H1 1659   1.501   6.304   0.951 -2.4795 -1.1272 -1.3458
  565TIP3    H2 1660   1.401   6.409   0.995 -0.2384  0.5180  0.0276
  566TIP3   OH2 1661   5.075   2.483   0.504  0.0844  0.2556 -0.1294
  566TIP3    H1 1662   4.983   2.465   0.524  0.3717  0.2368  1.3356
  566TIP3    H2 1663   5.094   2.432   0.426 -1.2828  0.6837 -0.7723
  567TIP3   OH2 1664   0.979   1.382   1.041  0.0257  0.3092 -0.2203
  567TIP3    H1 1665   0.903   1.418   1.087 -0.7407 -0.5082 -0.8165
  567TIP3    H2 1666   0.943   1.350   0.958  1.2459  1.0983 -1.0863
  568TIP3   OH2 1667   2.732   3.950   3.403  0.6393 -0.3771 -0.1034
  568TIP3    H1 1668   2.768   4.010   3.337  1.4032  0.1745  0.7977
  568TIP3    H2 1669   2.771   3.865   3.380  0.1500 -0.3954 -0.9246
  569TIP3   OH2 1670   1.632   5.342   2.427  0.0165  0.3748 -0.0249
  569TIP3    H1 1671   1.684   5.322   2.349  0.3305 -1.3746  0.6004
  569TIP3    H2 1672   1.694   5.343   2.499 -0.3156  1.7242  0.2737
  570TIP3   OH2 1673   2.636   0.327   4.141  0.4461  0.5540  0.2441
  570TIP3    H1 1674   2.566   0.392   4.137  0.5057  0.7453  1.7823
  570TIP3    H2 1675   2.628   0.287   4.227  0.6048 -1.3055 -0.5531
  571TIP3   OH2 1676   4.359   0.359   2.632  0.2407  0.7413  0.0991
  571TIP3    H1 1677   4.326   0.338   2.719  0.4008 -0.0155 -0.0133
  571TIP3    H2 1678   4.322   0.291   2.576  2.9253 -0.9115  0.1676
  572TIP3   OH2 1679   6.886   6.198   2.916  0.2444  0.1399 -0.2639
  572TIP3    H1 1680   6.911   6.115   2.874 -0.7595  0.2458 -1.1050
  572TIP3    H2 1681   6.844   6.171   2.998 -1.0662 -0.2454 -1.0467
  573TIP3   OH2 1682   2.584   0.332   2.057 -0.0977 -0.8663  0.2885
  573TIP3    H1 1683   2.493   0.305   2.060  0.0875 -1.4858  0.5421
  573TIP3    H2 1684   2.624   0.291   2.133  0.6896 -1.7763 -0.5745
  574TIP3   OH2 1685   2.039   4.279   3.090  0.1057 -0.1665  0.5828
  574TIP3    H1 1686   1.962   4.332   3.110 -1.0443 -1.3226 -0.6345
  574TIP3    H2 1687   2.112   4.341   3.097 -1.0629  1.2985  0.3373
  575TIP3   OH2 1688   4.553   5.524   1.389 -0.2044 -0.3778 -0.2317
  575TIP3    H1 1689   4.485   5.536   1.323 -1.4632 -0.0643  1.0591
  575TIP3    H2 1690   4.505   5.515   1.471  1.3572  1.4491  0.9753
  576TIP3   OH2 1691   2.709   1.051   4.570  0.0820 -0.4793  0.3175
  576TIP3    H1 1692   2.756   1.010   4.643 -0.1348  0.1618  0.8244
  576TIP3    H2 1693   2.730   1.144   4.576 -0.4435 -0.3274 -0.0623
  577TIP3   OH2 1694   4.606   1.260   4.973 -0.3941  0.1200 -0.3558
  577TIP3    H1 1695   4.530   1.256   4.914 -0.5618  0.4076 -0.1683
  577TIP3    H2 1696   4.682   1.263   4.915 -0.5392  0.0422 -0.5511
  578TIP3   OH2 1697   7.150   6.073   4.212  0.3386  0.3092  0.3305
  578TIP3    H1 1698   7.233   6.045   4.252  0.4570  0.3876  0.1383
  578TIP3    H2 1699   7.152   6.035   4.124 -0.1657 -0.3232  0.5853
  579TIP3   OH2 1700   3.649   3.803   4.565 -0.2732 -0.1825  0.6927
  579TIP3    H1 1701   3.567   3.822   4.518  0.6345  0.1115 -0.8226
  579TIP3    H2 1702   3.675   3.886   4.603 -0.3369 -0.1222  0.6062
  580TIP3   OH2 1703   0.072   3.745   4.178  0.0175  0.0021  0.1723
  580TIP3    H1 1704   0.057   3.840   4.177  0.2934  0.0446 -1.0923
  580TIP3    H2 1705   0.167   3.736   4.187  0.0045 -0.1642  0.1465
  581TIP3   OH2 1706   4.517   4.417   1.658 -0.6687  0.6255 -0.3238
  581TIP3    H1 1707   4.445   4.357   1.675 -0.4577  0.8924  1.7702
  581TIP3    H2 1708   4.546   4.445   1.745  1.1596  1.4729 -1.1466
  582TIP3   OH2 1709   4.263   1.618   0.597  0.4440 -0.6983  0.0952
  582TIP3    H1 1710   4.173   1.642   0.620  1.1474  1.4692  0.8486
  582TIP3    H2 1711   4.284   1.544   0.654 -0.9323 -1.4239 -0.2931
  583TIP3   OH2 1712   2.967   0.941   4.116  0.4449 -0.2201  0.6441
  583TIP3    H1 1713   2.935   1.008   4.055 -1.1142 -1.6798 -0.2323
  583TIP3    H2 1714   2.929   0.967   4.200 -2.3930 -1.3181 -0.1741
  584TIP3   OH2 1715   2.941   5.000   5.736 -0.5138 -0.3274  0.1618
  584TIP3    H1 1716   2.955   5.046   5.819 -0.2742 -2.2648  1.2582
  584TIP3    H2 1717   2.846   5.000   5.724 -0.7191 -1.5939  1.4383
  585TIP3   OH2 1718   5.919   2.616   4.259  0.5299  0.0275  0.0598
  585TIP3    H1 1719   5.895   2.703   4.230 -0.8531 -0.3232  0.1033
  585TIP3    H2 1720   5.949   2.628   4.350 -1.2533  0.2557  0.6543
  586TIP3   OH2 1721   6.624   5.245   0.268 -0.0189 -0.5499 -0.6691
  586TIP3    H1 1722   6.554   5.278   0.324  0.0342 -0.8113 -0.4471
  586TIP3    H2 1723   6.638   5.155   0.298  1.5302  0.0121  0.3783
  587TIP3   OH2 1724   1.040   6.105   0.947  0.2346 -0.3363  0.6985
  587TIP3    H1 1725   1.011   6.066   0.865  0.1132 -0.8169  0.9685
  587TIP3    H2 1726   0.994   6.189   0.952  0.3287 -0.2532  0.2248
  588TIP3   OH2 1727   4.817   1.846   0.704  0.3237 -0.1775  0.0181
  588TIP3    H1 1728   4.783   1.931   0.675 -0.9797 -1.0370 -1.1242
  588TIP3    H2 1729   4.755   1.782   0.667  1.6151 -1.6626  0.3340
  589TIP3   OH2 1730   5.236   4.527   2.164  0.4584 -0.0160  0.0839
  589TIP3    H1 1731   5.201   4.524   2.075  1.9588 -1.1735 -0.5267
  589TIP3    H2 1732   5.280   4.612   2.170  1.0885 -0.2771 -0.6197
  590TIP3   OH2 1733   6.756   3.388   3.120  0.2240 -0.4395 -0.3641
  590TIP3    H1 1734   6.838   3.424   3.087 -0.4257  1.1008 -0.3996
  590TIP3    H2 1735   6.771   3.372   3.213 -0.3637  3.0043  0.4551
  591TIP3   OH2 1736   2.920   0.203   5.343  0.3896  0.2778 -0.0451
  591TIP3    H1 1737   2.863   0.251   5.283 -0.1910 -0.7912 -0.3739
  591TIP3    H2 1738   3.003   0.195   5.297  0.2182  0.2339 -0.3462
  592TIP3   OH2 1739   1.537   2.894   1.558  0.0137 -0.2849 -0.3563
  592TIP3    H1 1740   1.534   2.978   1.605 -0.3302 -0.6678  0.3286
  592TIP3    H2 1741   1.517   2.829   1.625  3.3894 -1.2522 -0.1120
  593TIP3   OH2 1742   6.688   0.052   4.933  0.1621 -0.3881 -0.0564
  593TIP3    H1 1743   6.744   0.130   4.943 -0.6746  0.4131 -1.2315
  593TIP3    H2 1744   6.738  -0.005   4.875  0.3619 -0.2759  0.0044
  594TIP3   OH2 1745   3.316   3.133   2.476  0.3325  0.1649 -0.2737
  594TIP3    H1 1746   3.380   3.097   2.538  0.7559 -0.4952 -1.0671
  594TIP3    H2 1747   3.356   3.120   2.390 -0.2450  1.0678 -0.6915
  595TIP3   OH2 1748   4.348   3.320   0.855 -0.0404  0.0773  0.0341
  595TIP3    H1 1749   4.328   3.392   0.795  1.8406 -1.1723 -2.2682
  595TIP3    H2 1750   4.351   3.242   0.799  3.3329 -0.9382  1.3628
  596TIP3   OH2 1751   0.566   4.666   0.627 -0.0572 -0.4566 -0.0922
  596TIP3    H1 1752   0.505   4.686   0.555  0.5272  1.5171 -0.1182
  596TIP3    H2 1753   0.613   4.588   0.597 -0.2524 -0.0407 -1.5935
  597TIP3   OH2 1754   0.047   2.298   0.733  0.4039 -0.3080  0.4576
  597TIP3    H1 1755  -0.042   2.333   0.742  0.7278  0.5923  0.3047
  597TIP3    H2 1756   0.090   2.318   0.816  1.1462  1.3580 -0.2714
  598TIP3   OH2 1757   5.697   3.693   3.931  0.5678  0.2009  0.3105
  598TIP3    H1 1758   5.773   3.646   3.897  1.0282  0.4554  0.9816
  598TIP3    H2 1759   5.733   3.759   3.990 -0.1277  0.8551  0.0231
  599TIP3   OH2 1760   4.914   0.282   4.060  0.3563  0.0162  0.0836
  599TIP3    H1 1761   4.958   0.363   4.034  0.5590  0.7935  2.5337
  599TIP3    H2 1762   4.833   0.280   4.008  0.6085  1.5062 -0.4113
  600TIP3   OH2 1763   4.400   1.332   4.174 -0.5888  0.6090 -0.0240
  600TIP3    H1 1764   4.373   1.275   4.102 -0.5792  0.1991  0.2953
  600TIP3    H2 1765   4.420   1.416   4.131 -3.6478  1.4006 -0.1488
  601TIP3   OH2 1766   3.652   6.048   0.654 -0.1661  0.5436 -0.1975
  601TIP3    H1 1767   3.581   6.101   0.689  0.4258  1.2430 -0.0302
  601TIP3    H2 1768   3.715   6.111   0.620  0.4439 -0.0567 -0.2119
  602TIP3   OH2 1769   6.957   5.234   0.686 -0.2055  0.3972  0.1954
  602TIP3    H1 1770   6.994   5.149   0.711 -0.8039 -1.1199 -3.5126
  602TIP3    H2 1771   7.009   5.298   0.736  1.4484 -2.0394  1.8006
  603TIP3   OH2 1772   2.065   4.656   4.090 -0.1918 -0.3857  0.6062
  603TIP3    H1 1773   2.150   4.611   4.094  0.0583  0.1230  1.5878
  603TIP3    H2 1774   2.086   4.746   4.115 -1.1272 -0.4229  1.5592
  604TIP3   OH2 1775   1.206   2.506   5.676 -0.0203  0.2552  0.4258
  604TIP3    H1 1776   1.210   2.593   5.716 -1.6213  0.1865  0.8000
  604TIP3    H2 1777   1.295   2.471   5.685  0.2370  1.1814  1.8137
  605TIP3   OH2 1778   1.632   1.784   3.410 -0.0222  0.1049 -0.0554
  605TIP3    H1 1779   1.608   1.833   3.331  0.1500  0.2371 -0.0253
  605TIP3    H2 1780   1.566   1.810   3.475  0.0099  0.2204 -0.0687
  606TIP3   OH2 1781   6.851   1.508   2.526 -0.7620 -0.3490  0.1216
  606TIP3    H1 1782   6.883   1.448   2.459 -1.9698 -0.6957 -0.1811
  606TIP3    H2 1783   6.898   1.590   2.510 -1.1612 -0.3653 -1.2850
  607TIP3   OH2 1784   2.027   5.226   1.115 -0.0910 -0.3537  0.8406
  607TIP3    H1 1785   2.038   5.305   1.062 -0.7092 -0.2891  0.8032
  607TIP3    H2 1786   2.116   5.203   1.142 -0.0450  1.2806  2.2074
  608TIP3   OH2 1787   2.316   2.832   1.561  0.0194  0.4583  0.6902
  608TIP3    H1 1788   2.295   2.890   1.488 -0.2648  0.5972  0.8806
  608TIP3    H2 1789   2.375   2.883   1.616 -1.3867  1.1174  1.6159
  609TIP3   OH2 1790   1.311   6.420   0.670 -0.2300 -0.0713  0.0279
  609TIP3    H1 1791   1.299   6.363   0.594 -1.3988  0.4463 -0.2101
  609TIP3    H2 1792   1.370   6.489   0.640 -2.3866  1.3915 -1.2076
  610TIP3   OH2 1793   6.462   1.541   4.231  0.1747  0.4015  0.4586
  610TIP3    H1 1794   6.456   1.633   4.255 -0.7625 -0.2678  3.2415
  610TIP3    H2 1795   6.372   1.514   4.214  0.4338 -0.0009 -0.3053
  611TIP3   OH2 1796   6.007   5.555   4.527  0.4041 -0.1206  0.3498
  611TIP3    H1 1797   6.010   5.495   4.453  0.7348 -0.7156  0.8370
  611TIP3    H2 1798   5.944   5.517   4.587  0.2723  0.2634  0.4577
  612TIP3   OH2 1799   2.318   5.208   3.130  0.2506 -0.5178  0.8670
  612TIP3    H1 1800   2.391   5.168   3.177  0.4550 -1.6868 -0.4003
  612TIP3    H2 1801   2.323   5.172   3.042 -0.3476  1.3508  0.0296
  613TIP3   OH2 1802   4.170   0.896  -0.034  0.5314  0.4255 -0.5745
  613TIP3    H1 1803   4.111   0.906   0.041 -0.5435 -0.4837 -1.2567
  613TIP3    H2 1804   4.253   0.869   0.005  0.1261  0.4225  0.3292
  614TIP3   OH2 1805   4.675   6.010   3.241 -0.0613  0.1856  0.7651
  614TIP3    H1 1806   4.771   6.018   3.237 -0.0800  0.9731  1.6222
  614TIP3    H2 1807   4.650   6.065   3.314 -0.9393 -2.0357  2.2360
  615TIP3   OH2 1808   4.644   6.191   5.669 -0.1151 -0.0359  0.6905
  615TIP3    H1 1809   4.651   6.121   5.734  1.8814  0.5558  1.1764
  615TIP3    H2 1810   4.551   6.215   5.669 -0.2393 -0.3390  3.0174
  616TIP3   OH2 1811   6.789   4.880   5.482 -0.7049  0.1330  0.5891
  616TIP3    H1 1812   6.874   4.840   5.464 -2.0842 -2.0884 -1.6445
  616TIP3    H2 1813   6.773   4.937   5.406 -1.8633 -0.7216  0.1603
  617TIP3   OH2 1814   5.666   0.047   1.012  0.0810 -0.0691 -0.5096
  617TIP3    H1 1815   5.707   0.085   1.090  0.4963 -0.0694 -0.7212
  617TIP3    H2 1816   5.612  -0.024   1.045  0.3186 -0.1225 -0.2282
  618TIP3   OH2 1817   6.156   2.250   0.825  0.5337  0.3262 -0.2526
  618TIP3    H1 1818   6.146   2.313   0.753 -0.5455  0.6754  0.1919
  618TIP3    H2 1819   6.234   2.199   0.800 -0.9216 -0.9113 -2.6871
  619TIP3   OH2 1820   0.337   2.789   1.081 -0.3964  0.0434 -0.2485
  619TIP3    H1 1821   0.261   2.731   1.088  0.8439 -1.4475  2.2087
  619TIP3    H2 1822   0.345   2.807   0.987 -1.3036 -3.1964 -1.0644
  620TIP3   OH2 1823   1.740   4.784   4.609  0.3180 -0.0273  0.1730
  620TIP3    H1 1824   1.816   4.830   4.645 -0.0566  1.1438 -0.4632
  620TIP3    H2 1825   1.756   4.692   4.629  0.5116  0.4631  2.5613
  621TIP3   OH2 1826   0.219   4.551   1.527 -0.0334 -0.1649 -0.2602
  621TIP3    H1 1827   0.262   4.601   1.457 -0.1628  0.3745  0.0390
  621TIP3    H2 1828   0.132   4.531   1.493 -0.3514  0.7017  0.0001
  622TIP3   OH2 1829   1.446   4.629   4.496  0.1657  0.6064  0.3809
  622TIP3    H1 1830   1.355   4.639   4.527  0.5748  1.1743  1.4624
  622TIP3    H2 1831   1.478   4.719   4.489  1.0687  0.3721  1.3377
  623TIP3   OH2 1832   1.981   2.376   3.538  0.6776  0.1935  0.0850
  623TIP3    H1 1833   2.010   2.449   3.593  1.1170 -0.8529  1.2902
  623TIP3    H2 1834   1.972   2.302   3.599 -0.9485 -0.4624 -0.8809
  624TIP3   OH2 1835   2.640   4.176   4.643  0.4235  0.2516 -0.4331
  624TIP3    H1 1836   2.693   4.251   4.617 -0.3633  0.6888 -0.8027
  624TIP3    H2 1837   2.551   4.210   4.650  0.3606 -0.1587  1.4743
  625TIP3   OH2 1838   3.396   4.385   4.920 -0.3791  0.0600 -0.1714
  625TIP3    H1 1839   3.342   4.336   4.858 -0.8856 -0.0532  0.3453
  625TIP3    H2 1840   3.350   4.375   5.004  0.9415 -0.8377  0.4849
  626TIP3   OH2 1841   3.121   5.886   4.813 -0.4536 -0.7292 -0.2707
  626TIP3    H1 1842   3.100   5.797   4.786 -2.4139  0.2114 -2.1812
  626TIP3    H2 1843   3.053   5.909   4.877 -2.0830  0.4028 -2.2471
  627TIP3   OH2 1844   1.312   1.053   3.635 -0.2508  0.2894  0.6927
  627TIP3    H1 1845   1.380   1.027   3.697 -0.2546  0.0349  0.5894
  627TIP3    H2 1846   1.233   1.063   3.688 -0.4164 -0.6032  0.6235
  628TIP3   OH2 1847   2.932   1.006   4.816 -0.2065  0.3787 -0.6528
  628TIP3    H1 1848   3.017   1.002   4.772 -0.6532  0.5092 -1.5516
  628TIP3    H2 1849   2.953   1.012   4.909  0.7743 -2.5861 -0.5757
  629TIP3   OH2 1850   1.993   1.049   4.671 -0.1590 -0.2348  0.5450
  629TIP3    H1 1851   2.021   0.961   4.646 -0.3642 -0.3748  0.8037
  629TIP3    H2 1852   1.913   1.064   4.621  0.6825  0.3992 -0.6509
  630TIP3   OH2 1853   0.172   4.773   0.275  0.3533  0.0727  0.1232
  630TIP3    H1 1854   0.185   4.686   0.236  0.1653 -0.2157  0.6913
  630TIP3    H2 1855   0.077   4.784   0.278  0.3428 -0.2039  1.1279
  631TIP3   OH2 1856   1.575   5.431   1.193  0.2659  0.4440  0.2237
  631TIP3    H1 1857   1.576   5.484   1.272  1.4758  1.0631 -0.1711
  631TIP3    H2 1858   1.483   5.410   1.178 -0.1590  1.7959  0.8173
  632TIP3   OH2 1859   2.095   5.660   5.788 -0.4561  0.3210  0.0327
  632TIP3    H1 1860   2.107   5.602   5.863  0.0190  1.2972  0.7219
  632TIP3    H2 1861   2.143   5.617   5.717  1.2929  0.6642  0.9652
  633TIP3   OH2 1862   3.303   5.664   2.408  0.0519  0.0130  0.2074
  633TIP3    H1 1863   3.293   5.735   2.344  0.9297  1.4443  1.6051
  633TIP3    H2 1864   3.259   5.696   2.487  1.1396 -0.6526  1.1048
  634TIP3   OH2 1865   0.244   0.391   0.221  0.1784 -0.0789  0.0435
  634TIP3    H1 1866   0.256   0.365   0.130  0.2014 -0.3713  0.1293
  634TIP3    H2 1867   0.285   0.322   0.272  1.5915  0.8699  0.2489
  635TIP3   OH2 1868   1.206   2.769   2.105  0.8198  0.4245 -0.0477
  635TIP3    H1 1869   1.217   2.831   2.033 -0.1136 -0.2363 -0.7813
  635TIP3    H2 1870   1.295   2.749   2.134  1.1300  2.0634  0.1793
  636TIP3   OH2 1871   3.286   1.862   1.842 -0.1215 -0.2470 -0.2848
  636TIP3    H1 1872   3.259   1.929   1.905  0.4475 -1.2848  1.1071
  636TIP3    H2 1873   3.350   1.906   1.786  2.1419 -0.2082  2.1412
  637TIP3   OH2 1874   5.649   3.510   3.196  0.1381  0.2546  0.3620
  637TIP3    H1 1875   5.738   3.526   3.164  0.5291 -1.2531  0.5951
  637TIP3    H2 1876   5.598   3.493   3.117  0.1893  0.5239  0.2688
  638TIP3   OH2 1877   0.811   5.522   5.851 -0.4785 -0.3396 -0.9544
  638TIP3    H1 1878   0.758   5.508   5.930 -0.0442 -1.6527 -0.8632
  638TIP3    H2 1879   0.854   5.438   5.837  1.0066  0.4767 -1.4490
  639TIP3   OH2 1880   1.294   5.289   5.865 -0.3220  0.4699  0.1376
  639TIP3    H1 1881   1.374   5.243   5.841 -0.3587  0.5112 -0.0613
  639TIP3    H2 1882   1.325   5.369   5.908 -0.2530 -0.2767  1.5347
  640TIP3   OH2 1883   3.597   3.038   0.400  0.0742  0.0833  0.2074
  640TIP3    H1 1884   3.686   3.033   0.364  0.7181  2.2148  1.3257
  640TIP3    H2 1885   3.597   3.117   0.454 -1.7522 -1.2480  2.3515
  641TIP3   OH2 1886   4.407   4.755   4.739  0.1469 -0.0479  0.3554
  641TIP3    H1 1887   4.408   4.660   4.746  0.3039 -0.1080 -0.3769
  641TIP3    H2 1888   4.485   4.783   4.787  0.9922 -0.4090 -0.7515
  642TIP3   OH2 1889   1.471   2.229   0.377 -0.4152 -0.2131 -0.1359
  642TIP3    H1 1890   1.544   2.178   0.341  0.9052  0.1556  1.8666
  642TIP3    H2 1891   1.411   2.239   0.303  0.4364 -2.5051 -1.2658
  643TIP3   OH2 1892   3.406   0.966   5.280  0.3655 -0.0461 -0.0498
  643TIP3    H1 1893   3.412   1.030   5.209  1.7294  0.0321  0.1123
  643TIP3    H2 1894   3.391   1.019   5.358 -0.3680 -0.0771 -0.1612
  644TIP3   OH2 1895   3.021   1.328   5.585  0.5322  0.0498 -0.9195
  644TIP3    H1 1896   2.974   1.343   5.667 -0.9289  1.3941 -1.9360
  644TIP3    H2 1897   3.077   1.253   5.602 -3.6241 -3.2573 -0.2170
  645TIP3   OH2 1898   1.436   0.931   2.854  0.1478  0.0463  0.3946
  645TIP3    H1 1899   1.369   0.972   2.909 -1.3098 -1.5239 -0.1286
  645TIP3    H2 1900   1.459   0.999   2.790 -0.0272  1.0198  1.3361
  646TIP3   OH2 1901   4.406   4.058   5.161 -0.2550  0.5757 -0.1650
  646TIP3    H1 1902   4.330   4.054   5.104  1.5822 -0.8345 -2.6977
  646TIP3    H2 1903   4.431   3.967   5.174  0.3705  0.9551  1.6009
  647TIP3   OH2 1904   4.383   4.001   2.857 -0.2401 -0.5592 -0.2810
  647TIP3    H1 1905   4.467   3.973   2.893  0.6557  1.0506 -1.0456
  647TIP3    H2 1906   4.371   3.948   2.779  1.6729  1.3469 -1.9903
  648TIP3   OH2 1907   4.528   1.161   1.318  0.2188  0.3369  0.3616
  648TIP3    H1 1908   4.461   1.093   1.320 -1.9315  2.3335  1.0475
  648TIP3    H2 1909   4.559   1.166   1.409  1.9101 -1.0677 -0.0892
  649TIP3   OH2 1910   4.523   3.906   4.503  0.3091 -0.6386 -0.3717
  649TIP3    H1 1911   4.525   3.875   4.413 -2.7689 -2.5026  0.0457
  649TIP3    H2 1912   4.509   3.827   4.555  2.6097  0.2980  1.8640
  650TIP3   OH2 1913   7.029   0.817   0.342  0.1703  0.2412  0.0736
  650TIP3    H1 1914   6.983   0.740   0.311  0.2123  0.5919 -0.8986
  650TIP3    H2 1915   6.970   0.856   0.407 -1.1773  0.9526 -1.4868
  651TIP3   OH2 1916   4.376   3.566   2.849 -0.6029  0.3541  0.2111
  651TIP3    H1 1917   4.287   3.570   2.815  0.3967  1.0801 -2.6514
  651TIP3    H2 1918   4.391   3.473   2.867 -1.2610 -0.1212 -1.4675
  652TIP3   OH2 1919   0.632   0.443   1.684 -0.5875  0.3834 -0.5255
  652TIP3    H1 1920   0.628   0.539   1.677 -1.5784  0.4285  0.3812
  652TIP3    H2 1921   0.631   0.426   1.778  0.7897 -0.4976 -0.6426
  653TIP3   OH2 1922   2.099   2.439   4.832 -0.0259 -0.0658  0.4386
  653TIP3    H1 1923   2.088   2.424   4.738  2.3270  2.1077 -0.3073
  653TIP3    H2 1924   2.047   2.371   4.874  1.0261 -2.8989 -2.4474
  654TIP3   OH2 1925   1.571   6.664   5.712  0.4305  0.6444  0.2733
  654TIP3    H1 1926   1.619   6.740   5.679 -0.7158  0.0060 -3.3065
  654TIP3    H2 1927   1.639   6.600   5.735  1.3589  1.5227  0.0387
  655TIP3   OH2 1928   1.305   0.562   0.723 -0.5807 -0.1513  0.0170
  655TIP3    H1 1929   1.244   0.617   0.673  1.0021 -0.0564 -1.9412
  655TIP3    H2 1930   1.289   0.473   0.692  0.8004 -0.0243 -1.1792
  656TIP3   OH2 1931   0.130   1.365   2.668  0.2502  0.2492  0.1253
  656TIP3    H1 1932   0.135   1.381   2.574 -0.2359  0.5818  0.1527
  656TIP3    H2 1933   0.050   1.314   2.680  0.1406  0.4749  0.3870
  657TIP3   OH2 1934   3.380   2.072   0.343  0.0674  0.1758 -0.1954
  657TIP3    H1 1935   3.301   2.121   0.364  0.7629  0.1929  2.7359
  657TIP3    H2 1936   3.434   2.133   0.294 -1.4236  0.3487 -1.7396
  658TIP3   OH2 1937   0.986   4.315   0.816  0.2403 -0.6596  0.1741
  658TIP3    H1 1938   1.056   4.251   0.803  0.1339 -0.7189 -0.1298
  658TIP3    H2 1939   0.976   4.322   0.911  1.4080  0.1622  0.2595
  659TIP3   OH2 1940   5.419   0.430   5.333  0.5947  0.0851  0.0853
  659TIP3    H1 1941   5.454   0.361   5.389  0.3828  1.6112  2.1995
  659TIP3    H2 1942   5.484   0.500   5.337 -0.5577  1.1699  0.3852
  660TIP3   OH2 1943   4.455   1.108   1.871 -0.2974  0.5015 -0.4417
  660TIP3    H1 1944   4.534   1.083   1.918  0.2798  1.3939 -0.9194
  660TIP3    H2 1945   4.408   1.166   1.931 -1.7843 -1.8405  0.7880
  661TIP3   OH2 1946   3.743   2.482   2.732 -0.0215 -0.3341 -0.0924
  661TIP3    H1 1947   3.798   2.432   2.792  0.3086  1.6967  1.3865
  661TIP3    H2 1948   3.658   2.488   2.776 -0.0982  0.3015 -0.3183
  662TIP3   OH2 1949   3.449   1.353   4.229 -0.6070 -0.0366 -0.0097
  662TIP3    H1 1950   3.399   1.416   4.177 -0.2786 -1.0353 -1.5976
  662TIP3    H2 1951   3.416   1.364   4.318 -1.5830  1.3387 -0.5051
  663TIP3   OH2 1952   0.991   2.369   5.516 -0.1403  0.2128  0.0019
  663TIP3    H1 1953   1.055   2.366   5.586  1.4588  0.0734 -1.4157
  663TIP3    H2 1954   0.972   2.277   5.496 -0.1033  0.2461 -0.1868
  664TIP3   OH2 1955   2.522   4.114   1.355  0.1881  0.3024  0.2491
  664TIP3    H1 1956   2.515   4.197   1.306  0.1502 -0.5550 -1.2813
  664TIP3    H2 1957   2.431   4.087   1.369  0.2028  0.0812 -0.0635
  665TIP3   OH2 1958   3.535   5.220   2.309 -0.7714 -0.5789  0.0846
  665TIP3    H1 1959   3.460   5.264   2.350  0.8649  1.8532  0.6938
  665TIP3    H2 1960   3.519   5.228   2.215 -0.3964  1.8037  0.1467
  666TIP3   OH2 1961   3.800   1.002   3.449 -0.1345 -0.3988  0.1258
  666TIP3    H1 1962   3.826   0.918   3.487 -0.1463 -0.4413  0.0391
  666TIP3    H2 1963   3.872   1.024   3.390 -0.9782 -1.2405 -1.2658
  667TIP3   OH2 1964   7.113   2.282   1.532 -0.2860 -0.5564 -0.3736
  667TIP3    H1 1965   7.107   2.307   1.440  0.7996 -0.1384 -0.3531
  667TIP3    H2 1966   7.031   2.312   1.570 -0.3907  0.0462 -1.0361
  668TIP3   OH2 1967   2.932   3.366   0.923  0.1373 -0.0137  0.5421
  668TIP3    H1 1968   2.966   3.284   0.887  0.6554 -0.4309  1.9331
  668TIP3    H2 1969   2.968   3.434   0.865 -0.7011 -0.7631 -0.9194
  669TIP3   OH2 1970   5.730   0.374   4.465  0.5097 -0.1238  0.2243
  669TIP3    H1 1971   5.737   0.469   4.477  1.2384  0.0461 -1.3149
  669TIP3    H2 1972   5.736   0.361   4.370  0.2912 -1.7090  0.3954
  670TIP3   OH2 1973   6.451   5.540   1.444 -0.2486 -0.2376 -0.3900
  670TIP3    H1 1974   6.463   5.537   1.539  1.7506  0.0656 -0.5776
  670TIP3    H2 1975   6.454   5.449   1.416 -0.9959 -0.3383 -0.1619
  671TIP3   OH2 1976   5.494   3.947   1.438 -0.1561  0.3952  0.3413
  671TIP3    H1 1977   5.486   3.932   1.532 -1.4840  0.4469  0.2623
  671TIP3    H2 1978   5.407   3.977   1.411 -0.1271 -0.6899 -1.0927
  672TIP3   OH2 1979   3.083   2.381   5.302 -0.4405 -0.3728  0.0127
  672TIP3    H1 1980   3.040   2.296   5.305  0.1686 -0.6635  1.4146
  672TIP3    H2 1981   3.177   2.361   5.307 -0.2914  0.3715  0.3220
  673TIP3   OH2 1982   4.091   0.945   1.204  0.2768 -0.2679 -0.1528
  673TIP3    H1 1983   4.140   0.876   1.248  0.4511 -0.7783 -1.1074
  673TIP3    H2 1984   4.023   0.970   1.267  2.0663  0.8493  1.4184
  674TIP3   OH2 1985   2.838   5.752   2.234 -0.7293  0.3681 -0.6559
  674TIP3    H1 1986   2.828   5.839   2.271 -1.4732 -0.4801  1.2906
  674TIP3    H2 1987   2.923   5.754   2.190  0.0694  1.5754  0.8502
  675TIP3   OH2 1988   5.461   3.065   1.128 -0.4542 -0.2222 -0.0658
  675TIP3    H1 1989   5.447   3.119   1.050 -0.5801 -1.7557 -1.1620
  675TIP3    H2 1990   5.557   3.058   1.135 -0.4265  0.6195  0.4324
  676TIP3   OH2 1991   5.791   3.210   2.713 -0.2231  0.5009  0.1903
  676TIP3    H1 1992   5.880   3.202   2.749  0.2658 -3.2513 -1.4176
  676TIP3    H2 1993   5.798   3.279   2.648  0.8769  1.7920  1.5884
  677TIP3   OH2 1994   0.864   6.685   2.380  0.0214 -0.1614 -0.0400
  677TIP3    H1 1995   0.823   6.609   2.422  0.7266 -0.6183 -0.1694
  677TIP3    H2 1996   0.934   6.648   2.327 -0.7321  0.4309 -1.5085
  678TIP3   OH2 1997   5.460   5.194   3.720 -0.2262  0.0292  0.1395
  678TIP3    H1 1998   5.390   5.156   3.774  0.9298  0.0608  1.7426
  678TIP3    H2 1999   5.476   5.280   3.759  1.1333 -0.2402  0.2238
  679TIP3   OH2 2000   5.644   0.236   1.781  0.0928 -0.4612  0.0676
  679TIP3    H1 2001   5.636   0.176   1.707 -0.1991  0.4458 -0.6522
  679TIP3    H2 2002   5.706   0.193   1.840  0.4575 -1.1259 -0.7721
  680TIP3   OH2 2003   4.979   0.921   1.833 -0.0753  0.1351  0.2673
  680TIP3    H1 2004   4.896   0.949   1.795 -1.2192 -0.9795  1.8151
  680TIP3    H2 2005   5.025   0.878   1.761 -0.0786  2.2156 -1.0430
  681TIP3   OH2 2006   3.714   1.889   3.506  0.6272 -0.5217 -0.1824
  681TIP3    H1 2007   3.766   1.823   3.553  0.7776 -0.0528  0.3106
  681TIP3    H2 2008   3.763   1.904   3.425  1.6678  0.4557  0.5993
  682TIP3   OH2 2009   6.710   4.662   1.163 -0.1888  0.6151  0.5406
  682TIP3    H1 2010   6.659   4.582   1.150  0.8061 -0.0200  0.4392
  682TIP3    H2 2011   6.694   4.686   1.255 -0.4412  0.2579  0.5924
  683TIP3   OH2 2012   0.327   4.757   5.295 -0.3964 -0.1814 -0.3517
  683TIP3    H1 2013   0.301   4.703   5.221 -0.2413  0.4058 -0.8451
  683TIP3    H2 2014   0.419   4.778   5.278 -0.2988 -0.2194  0.1160
  684TIP3   OH2 2015   0.789   1.238   1.509 -0.2945 -0.1823 -0.7116
  684TIP3    H1 2016   0.816   1.256   1.599  0.0380  0.6389 -0.9711
  684TIP3    H2 2017   0.753   1.150   1.513  4.2493 -2.3063 -0.7459
  685TIP3   OH2 2018   0.177   1.070   4.980 -0.1557 -0.1345 -0.4761
  685TIP3    H1 2019   0.149   1.160   4.968  3.3133  0.9137 -2.0752
  685TIP3    H2 2020   0.193   1.062   5.074 -2.0008  0.3174 -0.0760
  686TIP3   OH2 2021   3.231  -0.030   5.780 -0.0283  0.2625 -0.6149
  686TIP3    H1 2022   3.197   0.058   5.764 -0.3329 -0.3480 -4.0297
  686TIP3    H2 2023   3.307  -0.016   5.837 -1.8347  2.3203  1.5090
  687TIP3   OH2 2024   3.284   6.093   1.181  0.1254 -0.1345  0.5124
  687TIP3    H1 2025   3.217   6.123   1.242 -1.4253 -1.9532 -0.1866
  687TIP3    H2 2026   3.289   5.998   1.197  0.5455 -0.4561 -1.3363
  688TIP3   OH2 2027   1.806   5.407   1.811  0.0984 -0.2448  0.3024
  688TIP3    H1 2028   1.887   5.376   1.850  0.2438  0.0631  0.2487
  688TIP3    H2 2029   1.762   5.328   1.779  1.0078 -0.2942 -0.8973
  689TIP3   OH2 2030   4.233   3.111   4.684 -0.1997 -0.2463  0.4616
  689TIP3    H1 2031   4.285   3.040   4.646 -0.2300  0.0544 -0.1652
  689TIP3    H2 2032   4.294   3.160   4.738  0.2570  0.2749 -0.4958
  690TIP3   OH2 2033   1.953   2.810   4.597  0.7980  0.1948  0.3684
  690TIP3    H1 2034   2.004   2.888   4.577  1.6436 -0.8381 -1.7799
  690TIP3    H2 2035   1.865   2.843   4.616  2.0152  1.9662  3.6390
  691TIP3   OH2 2036   5.114   2.278   0.810  0.1384  0.0174  0.1955
  691TIP3    H1 2037   5.172   2.265   0.885  0.7369  0.1292 -0.2367
  691TIP3    H2 2038   5.171   2.315   0.742 -0.0180 -1.6100 -0.8585
  692TIP3   OH2 2039   2.654   5.008   4.097  1.1271 -0.2726 -0.4621
  692TIP3    H1 2040   2.600   5.000   4.018  1.3264 -0.2763 -0.5964
  692TIP3    H2 2041   2.677   5.100   4.102 -0.0904  0.0138  0.3860
  693TIP3   OH2 2042   5.592   1.345   3.925 -0.3996  0.6061  0.3983
  693TIP3    H1 2043   5.676   1.362   3.881 -0.2885 -0.6911  0.0469
  693TIP3    H2 2044   5.617   1.296   4.003 -0.8672 -0.7929 -0.2820
  694TIP3   OH2 2045   6.028   1.178   0.136  0.3789 -0.2446  0.2255
  694TIP3    H1 2046   6.021   1.084   0.120  1.4246 -0.4451  0.8854
  694TIP3    H2 2047   5.939   1.210   0.124  0.3015 -1.0418 -1.6533
  695TIP3   OH2 2048   3.760   3.302   0.421 -0.2946 -0.2968  0.2255
  695TIP3    H1 2049   3.725   3.321   0.333 -0.6281 -0.4648  0.3196
  695TIP3    H2 2050   3.852   3.283   0.406 -0.3691 -0.4191 -0.1066
  696TIP3   OH2 2051   5.145   5.557   4.131  0.1143 -0.0632 -0.3381
  696TIP3    H1 2052   5.054   5.552   4.161  0.1624  1.3074  0.1382
  696TIP3    H2 2053   5.163   5.651   4.128  1.6291 -0.3290 -0.0568
  697TIP3   OH2 2054   4.168   5.589   0.265 -0.9610 -0.1790  0.0493
  697TIP3    H1 2055   4.079   5.607   0.232 -2.2004  0.3550  3.3330
  697TIP3    H2 2056   4.167   5.495   0.285 -0.6787 -0.2221 -0.1314
  698TIP3   OH2 2057   1.805   6.528   5.659  0.2250 -0.0043 -0.8443
  698TIP3    H1 2058   1.898   6.523   5.634  0.2188 -1.6007 -0.6219
  698TIP3    H2 2059   1.758   6.534   5.576  0.3218 -3.3066 -1.2474
  699TIP3   OH2 2060   2.484   5.147   0.129  0.3333  0.1029  0.2584
  699TIP3    H1 2061   2.529   5.157   0.213 -0.7006  0.3086  0.7971
  699TIP3    H2 2062   2.446   5.233   0.112  1.8107  0.5309 -1.2036
  700TIP3   OH2 2063   2.496   0.822   4.833 -0.3970 -0.1995 -0.2218
  700TIP3    H1 2064   2.457   0.735   4.840 -1.4660  0.3843  3.3386
  700TIP3    H2 2065   2.422   0.880   4.814 -0.0885  0.1647 -0.3285
  701TIP3   OH2 2066   1.968   0.096   3.458  0.5840  0.3450  0.7140
  701TIP3    H1 2067   1.975   0.047   3.540  0.7072 -0.5908  0.1693
  701TIP3    H2 2068   1.918   0.038   3.400 -1.0412  1.7250  0.6607
  702TIP3   OH2 2069   3.187   4.734   1.888  0.5721 -0.0183  0.0000
  702TIP3    H1 2070   3.218   4.714   1.800  0.5288  0.3941 -0.1111
  702TIP3    H2 2071   3.102   4.691   1.893  0.6713 -0.2244 -0.0835
  703TIP3   OH2 2072   3.454   2.986   1.713  0.2354  0.4398 -0.3266
  703TIP3    H1 2073   3.503   3.050   1.766  1.9730 -1.2112  0.1536
  703TIP3    H2 2074   3.368   2.982   1.755  1.4481 -0.5858  2.2900
  704TIP3   OH2 2075   4.122   5.443   5.382 -0.2428  0.1800  0.0825
  704TIP3    H1 2076   4.208   5.433   5.422 -0.7641  1.2588  1.5856
  704TIP3    H2 2077   4.061   5.439   5.456 -1.5034 -0.6891 -0.9554
  705TIP3   OH2 2078   3.515   6.216   4.740  0.2731  0.0208  0.2994
  705TIP3    H1 2079   3.478   6.182   4.821 -0.5482  1.1737  0.4222
  705TIP3    H2 2080   3.453   6.188   4.672  1.2327 -1.4064 -0.0359
  706TIP3   OH2 2081   1.436   6.003   3.074 -0.4383  0.3481 -0.3196
  706TIP3    H1 2082   1.393   6.065   3.015 -0.1084 -0.4238 -1.3969
  706TIP3    H2 2083   1.364   5.960   3.120 -0.6970  0.9395 -0.1541
  707TIP3   OH2 2084   3.892   4.939   0.236 -0.3324  0.9544  0.1887
  707TIP3    H1 2085   3.863   4.949   0.327  1.1053  2.9023  0.4959
  707TIP3    H2 2086   3.826   4.984   0.184 -0.7134  0.5621  0.3208
  708TIP3   OH2 2087   2.288   2.315   1.776 -0.7765 -0.3523 -0.0876
  708TIP3    H1 2088   2.290   2.333   1.682  0.0845 -2.5587 -0.5624
  708TIP3    H2 2089   2.378   2.332   1.805 -1.1241  0.6674  0.4377
  709TIP3   OH2 2090   1.777   5.159   3.065  0.5040 -0.4096  0.0663
  709TIP3    H1 2091   1.833   5.086   3.037  0.3064  0.0349 -1.6396
  709TIP3    H2 2092   1.756   5.205   2.983  0.6383  1.5797  1.0895
  710TIP3   OH2 2093   2.264   6.131   1.402  0.0781 -0.3460  0.1547
  710TIP3    H1 2094   2.356   6.159   1.392 -0.7174  1.9457 -1.6522
  710TIP3    H2 2095   2.231   6.185   1.474  0.5378 -2.4683  2.0579
  711TIP3   OH2 2096   3.079   5.411  -0.008 -0.5539  0.1399  0.6584
  711TIP3    H1 2097   3.109   5.488   0.040 -2.5931 -0.0961  2.4574
  711TIP3    H2 2098   3.085   5.339   0.055 -0.2694 -0.8680 -0.4622
  712TIP3   OH2 2099   1.800   6.531   0.188 -0.7161 -0.2638 -0.2089
  712TIP3    H1 2100   1.713   6.503   0.160 -0.9829  0.9120 -0.6132
  712TIP3    H2 2101   1.857   6.513   0.113 -0.3557 -2.1077  0.4638
  713TIP3   OH2 2102   0.177   6.533   3.991 -0.0811 -0.0662 -0.3211
  713TIP3    H1 2103   0.211   6.445   4.007 -1.3121 -0.4404  0.3339
  713TIP3    H2 2104   0.137   6.529   3.905  0.6055  0.0987 -0.6564
  714TIP3   OH2 2105   1.309   0.309   0.614 -0.4793 -0.3964  0.3611
  714TIP3    H1 2106   1.361   0.273   0.686 -1.0504  0.9484  1.4863
  714TIP3    H2 2107   1.324   0.248   0.541  2.1688 -0.3892  0.8125
  715TIP3   OH2 2108   3.507   0.330   0.383  0.4982 -0.3834 -0.2855
  715TIP3    H1 2109   3.456   0.282   0.449  1.4986 -0.6511  0.3216
  715TIP3    H2 2110   3.538   0.408   0.429  0.8401 -0.3500 -0.5716
  716TIP3   OH2 2111   4.149   2.688   0.992  0.0989 -0.4087 -0.6356
  716TIP3    H1 2112   4.237   2.655   1.009 -0.0473 -0.5730 -0.1769
  716TIP3    H2 2113   4.160   2.782   0.977  0.2038 -0.2040  0.6438
  717TIP3   OH2 2114   5.546   1.616   1.229 -0.0881 -0.0075 -0.4173
  717TIP3    H1 2115   5.561   1.523   1.213 -0.4375 -0.1306 -0.0331
  717TIP3    H2 2116   5.489   1.643   1.157  0.1747 -0.0391 -0.6427
  718TIP3   OH2 2117   1.724   1.094   1.617 -0.5585 -0.2338  0.2526
  718TIP3    H1 2118   1.741   1.061   1.529 -0.0869  0.4023  0.0923
  718TIP3    H2 2119   1.803   1.144   1.639 -0.3521 -0.9985  1.3369
  719TIP3   OH2 2120   4.543   5.667   4.271  0.2282 -0.0120 -0.2661
  719TIP3    H1 2121   4.451   5.649   4.291  0.2714  1.1059  1.1102
  719TIP3    H2 2122   4.542   5.698   4.180 -0.6184 -0.8336 -0.5618
  720TIP3   OH2 2123   3.219   0.252   5.741 -0.4666 -0.1515 -0.0062
  720TIP3    H1 2124   3.308   0.246   5.774 -0.1136 -1.1226 -1.0864
  720TIP3    H2 2125   3.168   0.282   5.817  0.4633 -1.3470  1.1525
  721TIP3   OH2 2126   0.100   4.254   5.385 -0.0705 -0.0680 -0.0120
  721TIP3    H1 2127   0.059   4.185   5.333  0.9516 -0.4227 -0.3765
  721TIP3    H2 2128   0.134   4.209   5.463  1.7527 -0.2521 -0.8690
  722TIP3   OH2 2129   4.407   0.933   4.833  0.4053  0.0409  0.4602
  722TIP3    H1 2130   4.390   0.974   4.918  0.4594  1.2223 -0.0703
  722TIP3    H2 2131   4.419   1.007   4.773  0.5285 -0.7688 -0.5459
  723TIP3   OH2 2132   3.540   0.989   2.245 -0.0817  0.3207  0.1415
  723TIP3    H1 2133   3.578   0.944   2.321 -0.2467  0.1819  0.1422
  723TIP3    H2 2134   3.487   0.922   2.202 -0.0879  0.4335 -0.0276
  724TIP3   OH2 2135   5.070   1.944   1.774  0.1816 -0.2173 -0.3118
  724TIP3    H1 2136   5.120   1.901   1.844  0.7109 -0.6021 -0.9203
  724TIP3    H2 2137   5.137   1.976   1.713 -0.1330  2.2042  0.5125
  725TIP3   OH2 2138   5.020   3.199   3.535 -0.1547  0.0037 -0.3176
  725TIP3    H1 2139   4.986   3.135   3.597  1.5076 -2.8609 -2.1229
  725TIP3    H2 2140   4.946   3.220   3.478 -0.3473 -1.8467 -0.8186
  726TIP3   OH2 2141   3.601   0.664   3.395  0.2246  0.2211  0.2455
  726TIP3    H1 2142   3.580   0.757   3.392 -0.7402  0.0037 -0.4464
  726TIP3    H2 2143   3.635   0.644   3.307 -0.3223 -0.2333  0.1283
  727TIP3   OH2 2144   7.031   1.003   5.189 -0.6016 -0.1101 -0.4519
  727TIP3    H1 2145   6.952   1.048   5.159 -0.5189 -0.4694 -1.2310
  727TIP3    H2 2146   7.057   1.051   5.268 -1.2508  0.3906 -0.5315
  728TIP3   OH2 2147   4.803   6.008   1.353  0.2882 -0.1000  0.3137
  728TIP3    H1 2148   4.763   6.095   1.354 -1.3570 -0.8147  1.9086
  728TIP3    H2 2149   4.783   5.972   1.439  1.6625 -1.7623 -0.0122
  729TIP3   OH2 2150   1.201   1.715   0.339  0.2779 -0.5251  0.0604
  729TIP3    H1 2151   1.253   1.792   0.362  0.7766 -0.8734  0.1322
  729TIP3    H2 2152   1.265   1.643   0.337 -0.8184 -1.9899  4.9472
  730TIP3   OH2 2153   1.218   1.021   4.706 -0.3302 -0.0577  0.1085
  730TIP3    H1 2154   1.256   0.991   4.788  1.0539 -0.7524 -0.7545
  730TIP3    H2 2155   1.202   0.941   4.656  2.4026  0.4604 -1.7951
  731TIP3   OH2 2156   0.410   4.906   2.317 -0.1025 -0.8860  0.3731
  731TIP3    H1 2157   0.317   4.923   2.330 -0.2232 -1.8537  0.8092
  731TIP3    H2 2158   0.453   4.956   2.387 -0.0827  1.4819 -1.1959
  732TIP3   OH2 2159   6.068   4.329   0.377 -0.3899  0.1203 -0.2209
  732TIP3    H1 2160   6.070   4.399   0.312  0.4332  0.2115 -0.1063
  732TIP3    H2 2161   6.071   4.374   0.462  3.6494 -0.0023 -0.0828
  733TIP3   OH2 2162   4.480   6.515   4.121  0.0302 -0.4699 -0.0913
  733TIP3    H1 2163   4.448   6.504   4.031  1.1761  0.5448 -0.6532
  733TIP3    H2 2164   4.573   6.495   4.116  0.6818  2.0517  0.2768
  734TIP3   OH2 2165   5.912   0.203   2.965  0.0050  0.3148 -0.5483
  734TIP3    H1 2166   5.940   0.292   2.985 -0.0323  0.0555  0.7127
  734TIP3    H2 2167   5.940   0.189   2.874  0.7327  1.3201 -0.4965
  735TIP3   OH2 2168   4.196   2.716   5.455 -0.2146  0.0424  0.6845
  735TIP3    H1 2169   4.196   2.772   5.533  2.2268  1.6183 -0.3068
  735TIP3    H2 2170   4.195   2.778   5.381  0.9818 -1.2599 -0.4921
  736TIP3   OH2 2171   4.865   2.384   4.083 -0.0969 -0.2604  0.1568
  736TIP3    H1 2172   4.932   2.323   4.054  1.0386  0.9678  0.1077
  736TIP3    H2 2173   4.883   2.465   4.035 -0.9089  0.4400  0.9802
  737TIP3   OH2 2174   3.923   0.296   5.153  0.5962  0.4203  0.2854
  737TIP3    H1 2175   3.929   0.259   5.065 -1.1246  1.3137 -0.2458
  737TIP3    H2 2176   3.829   0.299   5.172  0.9512 -1.6944  3.0308
  738TIP3   OH2 2177   2.962   5.949   3.483 -0.8367 -0.0554  0.0463
  738TIP3    H1 2178   2.872   5.928   3.508 -0.4115 -1.5907  0.3962
  738TIP3    H2 2179   3.016   5.895   3.540  0.2974  0.2485 -0.6973
  739TIP3   OH2 2180   2.157   5.907   1.725  0.2726  0.1992  0.3175
  739TIP3    H1 2181   2.161   5.998   1.695  0.0617 -0.1020 -0.6843
  739TIP3    H2 2182   2.242   5.870   1.700 -0.1792 -0.2547 -0.6216
  740TIP3   OH2 2183   7.019   4.057   5.789  0.1963  0.2062 -0.4009
  740TIP3    H1 2184   6.992   4.147   5.812 -0.6545 -0.4186  1.2160
  740TIP3    H2 2185   6.972   4.039   5.708 -1.0710  0.6101  0.2115
  741TIP3   OH2 2186   6.975   5.061   3.097 -0.7333  0.5377 -0.1142
  741TIP3    H1 2187   7.013   4.974   3.111  0.3634  0.9510 -0.4568
  741TIP3    H2 2188   7.043   5.110   3.050 -0.5511  2.2030  1.7638
  742TIP3   OH2 2189   0.089   4.565   3.732 -0.1346  0.1405  0.5796
  742TIP3    H1 2190   0.160   4.521   3.684 -0.4563  0.3182 -0.0708
  742TIP3    H2 2191   0.133   4.633   3.782 -0.0333  1.5832 -1.3817
  743TIP3   OH2 2192   6.165   6.682   2.809  0.2379 -0.0194  0.0991
  743TIP3    H1 2193   6.209   6.666   2.893  0.4305  0.0553  0.0147
  743TIP3    H2 2194   6.230   6.656   2.744 -0.4925 -1.6377 -0.0240
  744TIP3   OH2 2195   5.477   4.130   5.037 -0.2124  0.2572  0.2893
  744TIP3    H1 2196   5.531   4.159   5.111 -0.5737  1.0074  0.2745
  744TIP3    H2 2197   5.419   4.064   5.074  3.4198 -3.7834 -0.5312
  745TIP3   OH2 2198   2.335   2.575   2.905 -0.2363  0.2285 -0.2933
  745TIP3    H1 2199   2.320   2.669   2.914  0.8256  0.3452  0.3555
  745TIP3    H2 2200   2.392   2.566   2.829 -1.5033 -0.0277 -1.2534
  746TIP3   OH2 2201   5.544   4.682   0.223  0.0336  0.1671  0.0771
  746TIP3    H1 2202   5.544   4.681   0.127 -1.0304  0.0349  0.0587
  746TIP3    H2 2203   5.628   4.721   0.247  0.5123 -0.2414 -0.8991
  747TIP3   OH2 2204   4.477   2.725   5.783 -0.6243 -0.1671 -0.2007
  747TIP3    H1 2205   4.477   2.639   5.825 -1.0881 -0.1025 -0.0643
  747TIP3    H2 2206   4.569   2.747   5.774 -0.5001 -0.6681 -0.2125
  748TIP3   OH2 2207   4.147   2.441   5.481  0.0326  0.1060 -0.1334
  748TIP3    H1 2208   4.189   2.523   5.455 -0.4242 -0.0328 -1.3329
  748TIP3    H2 2209   4.127   2.454   5.574  2.0980  0.4205  0.3206
  749TIP3   OH2 2210   6.302   2.668   5.852  0.9157  0.2571 -0.2998
  749TIP3    H1 2211   6.386   2.714   5.852  1.4148 -0.6211 -0.6174
  749TIP3    H2 2212   6.277   2.665   5.759  0.8205  0.0132 -0.2669
  750TIP3   OH2 2213   5.595   4.976   4.787 -0.0401  0.1313  0.5228
  750TIP3    H1 2214   5.524   4.984   4.724 -0.0861  1.3456  0.7095
  750TIP3    H2 2215   5.633   4.889   4.770 -0.8526 -0.0694 -0.3104
  751TIP3   OH2 2216   4.609   2.799   4.511 -0.1520  0.2834 -0.1118
  751TIP3    H1 2217   4.530   2.749   4.529 -0.0896  0.5913  1.1038
  751TIP3    H2 2218   4.668   2.778   4.584  0.2403  1.3384 -0.1010
  752TIP3   OH2 2219   2.562   4.600   4.959 -0.4088  0.1339 -0.2444
  752TIP3    H1 2220   2.614   4.606   5.039  1.3363  0.7058 -1.3615
  752TIP3    H2 2221   2.623   4.566   4.893 -1.3993  0.9986 -1.6562
  753TIP3   OH2 2222   0.797   3.622   4.443  0.2958  0.3596  0.2316
  753TIP3    H1 2223   0.860   3.581   4.503 -0.2329 -2.9031 -1.2300
  753TIP3    H2 2224   0.851   3.673   4.383  1.1194  0.9248  1.4078
  754TIP3   OH2 2225   6.445   1.467   0.470  0.0523  0.8771  0.3694
  754TIP3    H1 2226   6.376   1.420   0.423 -1.7831  2.8309  0.9568
  754TIP3    H2 2227   6.509   1.491   0.402 -0.1164 -0.4610 -0.2819
  755TIP3   OH2 2228   4.134   2.018   1.584  0.3318 -0.7533 -0.3639
  755TIP3    H1 2229   4.175   2.053   1.663 -0.3145  0.2789 -0.4670
  755TIP3    H2 2230   4.099   2.094   1.539  1.3462 -1.2563 -2.0579
  756TIP3   OH2 2231   6.156   4.085   1.520 -0.0842  0.1489  0.2587
  756TIP3    H1 2232   6.248   4.061   1.531  0.0396  0.7189  0.4870
  756TIP3    H2 2233   6.158   4.173   1.482 -0.5325  0.2221  0.3946
  757TIP3   OH2 2234   4.045   1.968   5.614 -0.0705  0.0218  0.4859
  757TIP3    H1 2235   4.099   1.891   5.630 -0.8758 -0.3149  1.7134
  757TIP3    H2 2236   3.955   1.934   5.613 -0.5150  1.0388  1.9463
  758TIP3   OH2 2237   3.003   3.997   0.694  0.3265  0.3067  0.2653
  758TIP3    H1 2238   3.070   3.928   0.688 -0.2016 -0.1658 -0.3402
  758TIP3    H2 2239   2.969   4.005   0.604  1.0374  2.0329  0.1065
  759TIP3   OH2 2240   0.854   4.583   4.883  0.1168  0.0421 -0.8415
  759TIP3    H1 2241   0.827   4.550   4.797 -1.1759 -2.1552  0.3334
  759TIP3    H2 2242   0.950   4.574   4.883 -0.0476 -2.0739 -1.2489
  760TIP3   OH2 2243   5.107   3.068   4.196  0.0081  0.0560 -0.6222
  760TIP3    H1 2244   5.157   3.146   4.174  1.8268 -1.2620 -1.3944
  760TIP3    H2 2245   5.161   3.021   4.258 -1.1366 -0.5413 -0.0464
  761TIP3   OH2 2246   0.206   4.934   4.663 -0.0373  0.5393 -0.3412
  761TIP3    H1 2247   0.195   4.886   4.581  1.1482  0.0014 -0.2135
  761TIP3    H2 2248   0.230   5.022   4.636 -0.0970  0.4805 -0.5855
  762TIP3   OH2 2249   3.456   0.806   1.965 -0.0361  0.0196 -0.6984
  762TIP3    H1 2250   3.523   0.779   2.029  0.5920 -0.7284 -1.6415
  762TIP3    H2 2251   3.397   0.731   1.959  1.0852 -0.7856 -2.5002
  763TIP3   OH2 2252   5.090   5.615   3.558 -0.0644 -0.0682 -0.4276
  763TIP3    H1 2253   5.014   5.671   3.542 -0.0881  0.0898  0.2372
  763TIP3    H2 2254   5.165   5.671   3.540 -0.0524  0.6426  1.6279
  764TIP3   OH2 2255   5.276   5.561   5.879 -0.0618 -0.5579  0.2307
  764TIP3    H1 2256   5.274   5.465   5.882  0.2389 -0.5529  0.7685
  764TIP3    H2 2257   5.369   5.583   5.878 -0.0343 -0.2338  2.6460
  765TIP3   OH2 2258   4.256   0.684   0.403 -0.0266 -0.4478  0.7876
  765TIP3    H1 2259   4.331   0.652   0.353 -0.5398 -1.5479  0.6981
  765TIP3    H2 2260   4.223   0.607   0.449  0.5380  0.5518  2.9997
  766TIP3   OH2 2261   6.348   1.513   1.086 -0.2815  0.1635 -0.5006
  766TIP3    H1 2262   6.322   1.425   1.058  0.4056  0.2291 -1.3890
  766TIP3    H2 2263   6.407   1.497   1.160  2.1540 -0.3383 -2.3966
  767TIP3   OH2 2264   1.064   3.512   1.853  0.2075  0.6715  0.4817
  767TIP3    H1 2265   0.970   3.497   1.837  0.3955 -0.2086  0.1513
  767TIP3    H2 2266   1.066   3.583   1.917 -0.6938  0.4828  0.7362
  768TIP3   OH2 2267   5.653   1.984   1.313  0.3173  0.1282  0.0804
  768TIP3    H1 2268   5.599   1.950   1.384  0.4539 -0.0707  0.0931
  768TIP3    H2 2269   5.600   2.052   1.272 -0.1151 -0.3573 -0.1817
  769TIP3   OH2 2270   4.381   2.283   1.537  0.6017  0.3452 -0.2285
  769TIP3    H1 2271   4.468   2.280   1.578  0.5224 -1.1071 -0.1089
  769TIP3    H2 2272   4.322   2.305   1.609  0.6483 -0.6361  0.1239
  770TIP3   OH2 2273   3.513   5.893   4.222  0.4712 -0.2395  0.4445
  770TIP3    H1 2274   3.460   5.969   4.196 -0.0816 -1.1393 -1.2566
  770TIP3    H2 2275   3.493   5.880   4.315  0.6486  1.7172  0.8018
  771TIP3   OH2 2276   6.827   3.548   0.937  0.1463 -0.5214  0.4101
  771TIP3    H1 2277   6.850   3.623   0.992  1.9716 -0.0831 -0.8590
  771TIP3    H2 2278   6.864   3.472   0.983 -0.2136 -0.4433  0.8364
  772TIP3   OH2 2279   0.499   3.110   4.433  0.6163 -0.3808 -0.0005
  772TIP3    H1 2280   0.533   3.032   4.477  0.9590 -0.2070  0.0483
  772TIP3    H2 2281   0.409   3.088   4.411  0.1139 -0.1227  1.6435
  773TIP3   OH2 2282   2.541   5.927   2.930  0.9080 -0.2230  0.0771
  773TIP3    H1 2283   2.579   5.995   2.875  0.6912 -0.0379  0.1527
  773TIP3    H2 2284   2.616   5.881   2.967  1.0861 -1.3828 -1.6238
  774TIP3   OH2 2285   4.670   1.339   4.176 -0.0452 -0.3564 -0.2762
  774TIP3    H1 2286   4.581   1.311   4.197 -0.7607  0.7083 -1.6905
  774TIP3    H2 2287   4.724   1.264   4.199 -1.4166 -1.3816 -0.2229
  775TIP3   OH2 2288   6.589   3.837   1.892  0.5393 -0.0481  0.7901
  775TIP3    H1 2289   6.521   3.903   1.881 -0.0734 -0.8646 -0.7336
  775TIP3    H2 2290   6.569   3.795   1.976 -1.4719 -0.9056 -0.0567
  776TIP3   OH2 2291   3.936   2.494   0.735 -0.0572 -0.4006  0.5238
  776TIP3    H1 2292   3.959   2.508   0.826  0.4420 -1.2790  0.5370
  776TIP3    H2 2293   3.966   2.573   0.690 -0.7995  0.2799  1.1895
  777TIP3   OH2 2294   1.956   2.914   1.706 -0.6795  0.7152 -0.2260
  777TIP3    H1 2295   2.030   2.962   1.668  0.4572 -0.8296 -0.0351
  777TIP3    H2 2296   1.910   2.878   1.630  0.6516 -1.0003 -0.2751
  778TIP3   OH2 2297   2.567   3.801   0.756  1.0531 -0.0973  0.1501
  778TIP3    H1 2298   2.602   3.754   0.680  1.0084 -0.2079  0.1977
  778TIP3    H2 2299   2.478   3.768   0.765  0.0484  1.9183 -1.4409
  779TIP3   OH2 2300   4.845   4.982   1.991 -0.3917 -0.0407 -0.5615
  779TIP3    H1 2301   4.864   5.007   1.901 -1.2346 -0.2114 -0.7955
  779TIP3    H2 2302   4.834   4.886   1.988  0.4765 -0.1649 -0.1066
  780TIP3   OH2 2303   5.698   3.457   3.713 -0.6254 -0.2136  0.3116
  780TIP3    H1 2304   5.667   3.499   3.633 -0.7354  0.7515  0.8565
  780TIP3    H2 2305   5.787   3.490   3.724  0.0489 -1.7061 -0.3511
  781TIP3   OH2 2306   6.914   2.474   0.106 -0.1099 -1.3865 -0.0867
  781TIP3    H1 2307   6.885   2.392   0.066 -1.3277 -1.3321  0.6114
  781TIP3    H2 2308   6.839   2.502   0.159  0.2305  0.2436 -0.4057
  782TIP3   OH2 2309   2.322   0.018   4.692  0.0896  0.2227  0.3963
  782TIP3    H1 2310   2.398   0.060   4.652  1.5106 -1.9613  0.6701
  782TIP3    H2 2311   2.264   0.091   4.715  1.8212  1.9108 -0.3363
  783TIP3   OH2 2312   6.780   5.107   1.392 -0.2518 -0.3260 -0.6568
  783TIP3    H1 2313   6.808   5.181   1.447  0.5142 -0.8231 -0.3641
  783TIP3    H2 2314   6.820   5.124   1.307  0.9730 -1.0399 -0.2359
  784TIP3   OH2 2315   2.585   4.628   4.185  0.3860 -0.3128 -0.2595
  784TIP3    H1 2316   2.654   4.687   4.214 -0.4094  1.2163 -1.3280
  784TIP3    H2 2317   2.632   4.556   4.142  1.3333  0.7437 -1.0640
  785TIP3   OH2 2318   1.460   1.827   5.000 -0.9286 -0.1772  0.0376
  785TIP3    H1 2319   1.537   1.803   5.051 -0.4254  0.5669 -0.3578
  785TIP3    H2 2320   1.396   1.759   5.020 -1.1472  0.6748  2.5636
  786TIP3   OH2 2321   5.075   4.831   1.948  0.5057  0.1877  0.7352
  786TIP3    H1 2322   5.127   4.757   1.917  0.1963  0.1376  0.3198
  786TIP3    H2 2323   5.002   4.836   1.886  0.1670  0.4267  1.1509
  787TIP3   OH2 2324   0.324   3.921   2.917 -0.1300  0.3173 -0.0535
  787TIP3    H1 2325   0.401   3.872   2.945  0.2950 -0.0894 -1.8212
  787TIP3    H2 2326   0.281   3.865   2.853 -1.7289  0.6918  0.6397
  788TIP3   OH2 2327   4.156   1.986   5.213  0.2362  0.1662 -0.4999
  788TIP3    H1 2328   4.119   2.072   5.231  1.5116  0.9134 -1.3430
  788TIP3    H2 2329   4.229   1.978   5.274 -1.0396 -1.1859  0.9592
  789TIP3   OH2 2330   6.359   3.859   1.415 -0.5399 -0.2948  0.1580
  789TIP3    H1 2331   6.428   3.846   1.350 -0.8901 -0.7241 -0.1361
  789TIP3    H2 2332   6.400   3.910   1.484 -0.0179 -0.2735 -0.1642
  790TIP3   OH2 2333   5.435   2.649   1.758  0.1030 -0.5931 -0.5416
  790TIP3    H1 2334   5.443   2.588   1.831  0.7485  2.9986  2.6951
  790TIP3    H2 2335   5.342   2.671   1.755  0.4545  1.5345  1.4403
  791TIP3   OH2 2336   0.086   0.589   0.326 -0.5234  0.6227 -0.8011
  791TIP3    H1 2337   0.118   0.679   0.334  0.7876  0.0234  1.9499
  791TIP3    H2 2338   0.165   0.535   0.319 -1.2756 -0.3878 -2.1445
  792TIP3   OH2 2339   7.091   3.271   4.742 -0.4326  0.9368 -0.1934
  792TIP3    H1 2340   7.007   3.305   4.710  0.6955  4.8545  0.4642
  792TIP3    H2 2341   7.132   3.231   4.665 -2.4432 -0.1723 -0.7461
  793TIP3   OH2 2342   6.091   5.370   2.077 -0.0643  0.0003 -0.4325
  793TIP3    H1 2343   6.080   5.351   2.171 -1.2998  0.9932 -0.3557
  793TIP3    H2 2344   6.018   5.326   2.034  0.1316  0.0856 -0.8580
  794TIP3   OH2 2345   4.529   1.768   2.566 -0.7550 -0.1744  0.2579
  794TIP3    H1 2346   4.566   1.823   2.497 -1.2605  0.4357  0.4611
  794TIP3    H2 2347   4.602   1.713   2.595 -0.2658  0.3334 -0.0021
  795TIP3   OH2 2348   1.701   3.352   5.228  0.3963  0.1682  0.0375
  795TIP3    H1 2349   1.767   3.296   5.267 -0.9835 -1.4826  0.1175
  795TIP3    H2 2350   1.730   3.365   5.138  0.6027 -0.9376 -0.0711
  796TIP3   OH2 2351   6.697   2.202   4.769  0.6232  0.7027 -0.0244
  796TIP3    H1 2352   6.674   2.138   4.836  0.8711  0.0447 -0.5537
  796TIP3    H2 2353   6.768   2.160   4.719  0.0970  0.9610 -1.0185
  797TIP3   OH2 2354   4.153   0.096   4.410 -0.5870 -0.7779 -0.2149
  797TIP3    H1 2355   4.068   0.121   4.374 -0.2827 -0.2722 -0.5786
  797TIP3    H2 2356   4.131   0.051   4.493 -1.1507  0.4124  0.2986
  798TIP3   OH2 2357   5.333   4.703   3.867 -0.1177 -0.3641 -1.0270
  798TIP3    H1 2358   5.302   4.744   3.786  1.1286  0.2285 -1.2339
  798TIP3    H2 2359   5.424   4.732   3.874 -0.1584 -0.5486  0.4965
  799TIP3   OH2 2360   2.306   0.246   2.063 -0.1415  0.4306 -0.1516
  799TIP3    H1 2361   2.250   0.169   2.060 -0.8294  0.7514  2.2173
  799TIP3    H2 2362   2.274   0.302   1.992 -0.9562 -0.6114 -0.6263
  800TIP3   OH2 2363   1.200   5.129   1.820  0.2406 -0.0215 -0.2169
  800TIP3    H1 2364   1.174   5.221   1.823  0.3890  0.0468 -0.7685
  800TIP3    H2 2365   1.137   5.084   1.875 -0.0559  0.3633 -0.2354
  801TIP3   OH2 2366   6.603   0.192   3.227  0.5851  0.0721 -0.3321
  801TIP3    H1 2367   6.584   0.261   3.291  0.1840  0.5341 -0.9385
  801TIP3    H2 2368   6.689   0.160   3.252  0.9729  1.1001 -0.3049
  802TIP3   OH2 2369   5.420   0.599   4.860 -0.4456  0.3990 -0.1397
  802TIP3    H1 2370   5.393   0.686   4.889 -1.1540  0.4423 -0.8830
  802TIP3    H2 2371   5.485   0.571   4.924 -0.6797  1.2089  0.4656
  803TIP3   OH2 2372   1.259   5.565   2.209  0.6291  0.0207  0.2870
  803TIP3    H1 2373   1.314   5.492   2.179 -0.5009 -0.4302 -0.7724
  803TIP3    H2 2374   1.279   5.636   2.149 -0.1573 -0.2445 -0.3010
  804TIP3   OH2 2375   3.281   4.008   2.634 -0.1893  0.1601 -0.3081
  804TIP3    H1 2376   3.199   4.025   2.680 -1.2890 -1.3842 -1.5950
  804TIP3    H2 2377   3.317   3.930   2.677  0.3660  0.5456 -0.0628
  805TIP3   OH2 2378   6.744   2.751   5.471  0.0660  0.7118  0.0671
  805TIP3    H1 2379   6.750   2.780   5.380  0.2713  0.3035 -0.0512
  805TIP3    H2 2380   6.830   2.712   5.490 -0.4340 -0.4781 -0.0146
  806TIP3   OH2 2381   1.566   2.675   3.890  0.2695  0.6482 -0.0156
  806TIP3    H1 2382   1.615   2.593   3.889  0.6184  0.8531 -0.4838
  806TIP3    H2 2383   1.482   2.654   3.849  0.7120  0.7227 -0.9974
  807TIP3   OH2 2384   6.782   2.831   3.199 -0.5149 -0.0095  0.4634
  807TIP3    H1 2385   6.756   2.764   3.263  1.8763  0.2529  1.8174
  807TIP3    H2 2386   6.875   2.815   3.183 -0.2517  2.0363 -0.3790
  808TIP3   OH2 2387   3.986   1.081   1.628 -0.8161 -0.5766  0.5356
  808TIP3    H1 2388   4.062   1.134   1.654  0.3103 -2.5165  1.3506
  808TIP3    H2 2389   3.999   1.066   1.534  1.1848 -2.8522  1.0742
  809TIP3   OH2 2390   1.523   3.061   5.517  0.0471  0.4627 -0.7705
  809TIP3    H1 2391   1.604   3.043   5.469  1.8027  0.1240  2.1256
  809TIP3    H2 2392   1.495   2.976   5.550 -1.9525  0.4654 -2.2885
  810TIP3   OH2 2393   3.751   4.182   4.042  0.5703 -0.0332  0.2102
  810TIP3    H1 2394   3.833   4.134   4.051  1.7143  2.1451  2.7723
  810TIP3    H2 2395   3.778   4.268   4.007 -0.8806  0.1111 -0.6230
  811TIP3   OH2 2396   4.993   1.525   1.710 -0.1999  0.1932  0.5299
  811TIP3    H1 2397   4.987   1.595   1.645  0.2570 -0.1269  0.1308
  811TIP3    H2 2398   4.917   1.538   1.767  0.2118  1.3856  0.8401
  812TIP3   OH2 2399   6.511   0.335   4.559 -0.1789  0.2674 -0.1734
  812TIP3    H1 2400   6.498   0.325   4.464  2.5710  0.8111 -0.6752
  812TIP3    H2 2401   6.603   0.314   4.573 -0.6528 -0.2884  2.4905
  813TIP3   OH2 2402   1.681   1.755   2.920  0.0331 -0.1248  0.4397
  813TIP3    H1 2403   1.701   1.829   2.978 -1.2295  1.4329 -1.0062
  813TIP3    H2 2404   1.617   1.703   2.968 -0.3353  0.6505  0.8018
  814TIP3   OH2 2405   0.861   1.275   0.803  0.2782 -0.2270 -0.3798
  814TIP3    H1 2406   0.808   1.203   0.769  0.7111  0.5129 -2.8387
  814TIP3    H2 2407   0.871   1.334   0.728  0.2763  2.2066  1.4346
  815TIP3   OH2 2408   7.106   6.588   4.934  0.5102 -0.2729  0.3386
  815TIP3    H1 2409   7.118   6.562   4.843 -1.3331 -0.7164  0.1864
  815TIP3    H2 2410   7.091   6.683   4.931 -0.3581 -0.4139  0.0825
  816TIP3   OH2 2411   3.273   3.984   1.928 -0.5188 -0.4469  0.3681
  816TIP3    H1 2412   3.356   4.022   1.958  0.1274  0.5135 -2.3390
  816TIP3    H2 2413   3.279   3.985   1.832 -3.4173 -0.9375  0.0837
  817TIP3   OH2 2414   1.668   6.516   2.073 -0.1186 -0.2370 -0.0633
  817TIP3    H1 2415   1.721   6.525   2.152 -0.1245  2.9102 -0.2912
  817TIP3    H2 2416   1.596   6.578   2.085 -0.6112 -0.3215 -2.1512
  818TIP3   OH2 2417   3.566   2.106   4.366 -0.1188 -0.2169 -0.0212
  818TIP3    H1 2418   3.514   2.031   4.396 -0.3092  0.5990  1.7762
  818TIP3    H2 2419   3.546   2.112   4.272 -2.3651 -0.6460  0.3748
  819TIP3   OH2 2420   2.011   0.949   3.065  0.0700  0.0916  0.4443
  819TIP3    H1 2421   1.922   0.983   3.055 -0.4364 -1.3764 -0.4656
  819TIP3    H2 2422   2.009   0.898   3.146 -0.2983 -0.9335 -0.1811
  820TIP3   OH2 2423   0.133   1.750   3.432 -0.2895  0.1057  0.3296
  820TIP3    H1 2424   0.177   1.665   3.431 -0.0680  0.1746  1.6120
  820TIP3    H2 2425   0.201   1.813   3.408 -0.1752  0.0175  0.4195
  821TIP3   OH2 2426   1.870   5.457   5.168  0.0895 -0.1725  0.1108
  821TIP3    H1 2427   1.927   5.533   5.183 -0.0563 -0.2618  1.2354
  821TIP3    H2 2428   1.853   5.423   5.256 -0.2484 -1.2161 -0.3457
  822TIP3   OH2 2429   5.683   4.850   1.754 -0.1727  0.4337 -0.2462
  822TIP3    H1 2430   5.750   4.798   1.799 -1.1565  0.5573  1.4143
  822TIP3    H2 2431   5.726   4.933   1.735 -0.1021  0.8677  1.6569
  823TIP3   OH2 2432   6.407   4.663   3.835 -0.4548 -0.2405  0.0501
  823TIP3    H1 2433   6.378   4.602   3.903  0.9899 -2.0994 -0.9101
  823TIP3    H2 2434   6.502   4.667   3.845 -0.5025  1.9131  0.0750
  824TIP3   OH2 2435   6.224   3.628   5.827  0.2272 -0.8992 -0.0612
  824TIP3    H1 2436   6.168   3.643   5.750 -0.1163  1.1539  0.5078
  824TIP3    H2 2437   6.167   3.650   5.901  1.0252 -1.3142  0.6753
  825TIP3   OH2 2438   6.196   1.835   3.107  0.5578 -0.3893 -0.4240
  825TIP3    H1 2439   6.203   1.897   3.180  0.6698  0.6676 -1.2976
  825TIP3    H2 2440   6.280   1.844   3.061  0.3866 -0.8523 -0.8218
  826TIP3   OH2 2441   1.324   2.658   3.750  0.1671 -0.1224  0.4992
  826TIP3    H1 2442   1.319   2.566   3.776  0.7110 -0.5693 -0.9108
  826TIP3    H2 2443   1.240   2.677   3.710  0.1532 -0.0714  0.5515
  827TIP3   OH2 2444   2.754   2.713   5.061 -0.6009  0.1222 -0.3026
  827TIP3    H1 2445   2.756   2.741   5.153  0.9154  1.2655 -0.6524
  827TIP3    H2 2446   2.809   2.634   5.059 -2.4901 -1.2760  0.1432
  828TIP3   OH2 2447   1.069   3.340   2.183  0.1154  0.0101  0.9732
  828TIP3    H1 2448   1.059   3.245   2.190  0.1029 -0.3248 -2.2643
  828TIP3    H2 2449   0.981   3.372   2.161  0.5627  0.4693 -0.1962
  829TIP3   OH2 2450   7.040   2.250   3.851 -0.0088  0.0190  0.0126
  829TIP3    H1 2451   6.952   2.283   3.830 -0.7812 -1.8952  0.0070
  829TIP3    H2 2452   7.089   2.328   3.878 -1.3809  1.3123 -0.9956
  830TIP3   OH2 2453   5.771   4.761   2.355 -0.6198 -0.2014 -0.0919
  830TIP3    H1 2454   5.721   4.690   2.315  0.6533 -0.0896 -2.0307
  830TIP3    H2 2455   5.717   4.791   2.428 -2.3275 -1.5121 -0.7578
  831TIP3   OH2 2456   4.221   6.189   0.593 -0.2411 -0.0982 -0.3388
  831TIP3    H1 2457   4.220   6.127   0.665  1.7896  0.3522  0.1524
  831TIP3    H2 2458   4.244   6.136   0.516 -1.7814 -0.4668 -0.5861
  832TIP3   OH2 2459   1.263   2.843   3.009  0.4492  0.2044 -0.0095
  832TIP3    H1 2460   1.198   2.912   2.999  0.5176  0.2035 -0.5134
  832TIP3    H2 2461   1.270   2.804   2.922  1.5049  0.5599 -0.1087
  833TIP3   OH2 2462   3.441   4.962   4.853  0.3274  0.0273 -0.0413
  833TIP3    H1 2463   3.430   4.879   4.899  0.2291 -1.0798 -1.9392
  833TIP3    H2 2464   3.369   5.017   4.885 -0.1775 -0.9564  0.5577
  834TIP3   OH2 2465   4.285   3.698   3.113 -0.2442  0.0641 -0.5571
  834TIP3    H1 2466   4.279   3.694   3.018 -2.0913 -1.0475 -0.4246
  834TIP3    H2 2467   4.368   3.654   3.133  0.7345  1.3047 -1.6775
  835TIP3   OH2 2468   0.822   0.823   2.927 -0.1971 -0.3531  0.4287
  835TIP3    H1 2469   0.912   0.833   2.958  0.2935  0.7239 -1.2602
  835TIP3    H2 2470   0.787   0.912   2.925 -1.4402 -0.7822  1.3423
  836TIP3   OH2 2471   1.280   5.727   3.000  0.3074  0.2571  0.0543
  836TIP3    H1 2472   1.276   5.643   3.045  1.2590  0.2606  0.1588
  836TIP3    H2 2473   1.254   5.791   3.066  1.0652  0.1949  0.4197
  837TIP3   OH2 2474   4.384   3.417   5.823  0.5746 -0.2119  0.5545
  837TIP3    H1 2475   4.378   3.513   5.818  2.6015 -0.0528  0.2451
  837TIP3    H2 2476   4.369   3.388   5.733 -3.3582 -0.5212  1.1543
  838TIP3   OH2 2477   3.221   4.997   3.554 -0.3034 -0.1640 -0.1320
  838TIP3    H1 2478   3.168   4.917   3.555 -0.0053 -0.3712  1.0720
  838TIP3    H2 2479   3.306   4.969   3.518 -0.2242 -0.3815  0.2187
  839TIP3   OH2 2480   0.901   3.218   0.089  0.0251 -0.0974 -0.1638
  839TIP3    H1 2481   0.966   3.211   0.019  1.0764  1.1946  0.6317
  839TIP3    H2 2482   0.848   3.295   0.065  0.1614  0.1330  0.2675
  840TIP3   OH2 2483   0.921   6.343   4.423 -0.4134  0.4242 -0.4703
  840TIP3    H1 2484   0.921   6.430   4.383 -0.1027 -0.6437 -2.9993
  840TIP3    H2 2485   0.908   6.283   4.350  0.1070 -1.7180  1.0867
  841TIP3   OH2 2486   3.540   4.674   4.026 -0.1764  0.3370 -0.2482
  841TIP3    H1 2487   3.544   4.633   4.112 -1.7859 -0.5813 -0.5547
  841TIP3    H2 2488   3.513   4.603   3.967 -2.1017  1.5570 -0.9595
  842TIP3   OH2 2489   3.353   2.520   2.053  0.4998  0.7836 -0.0607
  842TIP3    H1 2490   3.369   2.539   2.145  0.1467  1.0249 -0.0454
  842TIP3    H2 2491   3.271   2.471   2.053  0.3822  0.9773 -0.2640
  843TIP3   OH2 2492   5.921   1.820   3.753 -0.0025  0.1354 -0.5194
  843TIP3    H1 2493   5.962   1.738   3.777  1.9547  1.4065  0.7601
  843TIP3    H2 2494   5.829   1.809   3.778  0.5932 -1.0191  1.3995
  844TIP3   OH2 2495   4.447   1.103   2.696  0.6371  0.3097 -0.3485
  844TIP3    H1 2496   4.461   1.052   2.616  0.2472 -0.7067  0.2115
  844TIP3    H2 2497   4.397   1.180   2.667 -0.0423 -0.3632 -0.9863
  845TIP3   OH2 2498   2.258   2.133   0.481 -0.2453 -0.1200 -0.2613
  845TIP3    H1 2499   2.297   2.167   0.401 -0.4658 -1.0466 -0.7795
  845TIP3    H2 2500   2.329   2.083   0.523 -0.4072 -0.4507 -0.3790
  846TIP3   OH2 2501   0.393   4.361   5.621  0.0353 -0.0596 -0.5161
  846TIP3    H1 2502   0.388   4.319   5.535  1.7880 -0.2433 -0.5518
  846TIP3    H2 2503   0.466   4.318   5.665 -0.0550  0.8837  0.5966
  847TIP3   OH2 2504   4.164   4.550   0.395  0.5038  0.5903  0.6006
  847TIP3    H1 2505   4.107   4.499   0.452  0.4257 -1.8490 -1.5153
  847TIP3    H2 2506   4.105   4.604   0.343  0.2151 -0.5262 -0.2632
  848TIP3   OH2 2507   1.554   3.272   5.685  0.1443  0.1975  0.1127
  848TIP3    H1 2508   1.475   3.326   5.681 -1.1545 -1.6040 -0.0520
  848TIP3    H2 2509   1.537   3.202   5.621  1.8506 -0.2657  0.1413
  849TIP3   OH2 2510   4.029   2.913   2.284 -0.1341  0.4025  0.6758
  849TIP3    H1 2511   3.977   2.955   2.216  0.7893 -1.0153 -0.9760
  849TIP3    H2 2512   4.007   2.820   2.278  1.8312 -0.0949  0.5707
  850TIP3   OH2 2513   3.452   6.451   1.391 -0.4489  0.0722  0.3247
  850TIP3    H1 2514   3.471   6.459   1.297 -0.3568 -0.0658  0.3320
  850TIP3    H2 2515   3.537   6.461   1.434 -0.6597  1.4396  0.4694
  851TIP3   OH2 2516   0.085   2.534   1.178 -0.4501  1.0322 -0.0930
  851TIP3    H1 2517   0.042   2.559   1.096 -1.1941  0.3355  0.0682
  851TIP3    H2 2518   0.016   2.491   1.229  0.6991 -1.1826 -0.3019
  852TIP3   OH2 2519   2.135   2.498   1.057  0.4999 -0.0959  0.5180
  852TIP3    H1 2520   2.115   2.496   1.151 -1.4780 -1.3439  0.1327
  852TIP3    H2 2521   2.050   2.495   1.014  1.4005 -1.2986 -1.3248
  853TIP3   OH2 2522   3.822   1.555   0.149  0.1682  0.1791 -0.5652
  853TIP3    H1 2523   3.873   1.561   0.230 -0.7798 -0.0564  0.0715
  853TIP3    H2 2524   3.733   1.535   0.178  0.3178 -2.8269 -1.8066
  854TIP3   OH2 2525   1.437   1.406   5.541  1.0128  0.1559 -0.5841
  854TIP3    H1 2526   1.460   1.397   5.633  0.3756 -1.0733 -0.5079
  854TIP3    H2 2527   1.343   1.427   5.542  1.4488  2.2548 -0.9265
  855TIP3   OH2 2528   0.627   3.897   4.263  0.1874 -0.5628  0.2868
  855TIP3    H1 2529   0.661   3.876   4.176  1.2682 -2.4073  1.1001
  855TIP3    H2 2530   0.705   3.911   4.317 -0.4650  0.3481  1.0216
  856TIP3   OH2 2531   6.136   2.706   2.797  0.2175  0.0890 -0.2643
  856TIP3    H1 2532   6.060   2.751   2.760  0.8998  1.2681 -0.2514
  856TIP3    H2 2533   6.170   2.654   2.725 -0.9961 -1.0183 -0.0871
  857TIP3   OH2 2534   1.697   0.757   0.870  0.3788 -0.5245 -0.9006
  857TIP3    H1 2535   1.739   0.679   0.834 -0.3278 -1.7703  0.8178
  857TIP3    H2 2536   1.613   0.725   0.903  0.6395  0.6609  1.0496
  858TIP3   OH2 2537   5.417   4.720   2.103  0.0823 -0.0378 -0.3512
  858TIP3    H1 2538   5.443   4.740   2.013  1.8983 -1.8467 -0.3106
  858TIP3    H2 2539   5.466   4.641   2.125 -0.4850  0.2130  2.1627
  859TIP3   OH2 2540   0.402   3.957   2.502  0.2229 -0.1698  0.0502
  859TIP3    H1 2541   0.440   4.045   2.505  4.1656 -1.6631  2.5546
  859TIP3    H2 2542   0.320   3.964   2.550  0.6625  2.0351  0.5907
  860TIP3   OH2 2543   5.080   0.519   3.688 -0.1281 -0.0629 -0.3507
  860TIP3    H1 2544   5.172   0.542   3.672 -0.4620  0.1606 -2.1235
  860TIP3    H2 2545   5.031   0.571   3.624 -1.3101 -1.8867 -0.9848
  861TIP3   OH2 2546   2.651   0.253   2.306  0.4014 -0.7783 -0.3216
  861TIP3    H1 2547   2.569   0.217   2.340 -0.7698  0.3898 -1.7473
  861TIP3    H2 2548   2.696   0.288   2.383 -1.7878  1.0955  0.2325
  862TIP3   OH2 2549   2.899   1.259   0.771 -0.4799  0.4041  0.4418
  862TIP3    H1 2550   2.911   1.223   0.683 -2.3805 -1.1658  0.7465
  862TIP3    H2 2551   2.890   1.353   0.757  1.4863  0.4833 -0.7545
  863TIP3   OH2 2552   6.294   1.221   4.790 -0.0142 -0.3010 -0.0277
  863TIP3    H1 2553   6.376   1.247   4.747 -0.4463 -0.9362 -1.3091
  863TIP3    H2 2554   6.264   1.146   4.739 -1.3387 -0.1344  0.4793
  864TIP3   OH2 2555   4.363   3.343   2.395  0.2178  0.6741 -0.4025
  864TIP3    H1 2556   4.313   3.423   2.414  0.3617  0.4087  1.1553
  864TIP3    H2 2557   4.297   3.275   2.384  0.1968  0.4388  1.0942
  865TIP3   OH2 2558   6.805   4.985   2.128 -0.4492 -0.1528  0.2459
  865TIP3    H1 2559   6.883   4.934   2.151  0.2447  0.5278 -0.5370
  865TIP3    H2 2560   6.734   4.921   2.126 -0.0614 -0.6570  1.7083
  866TIP3   OH2 2561   6.355   3.062   3.939  0.0204  0.1429  0.0137
  866TIP3    H1 2562   6.400   2.979   3.921 -0.4066 -0.2511  0.6927
  866TIP3    H2 2563   6.304   3.044   4.018 -1.3007  0.5686 -0.7071
  867TIP3   OH2 2564   0.564   0.103   1.371  0.0497 -0.0608 -0.5383
  867TIP3    H1 2565   0.509   0.025   1.364 -1.3368  0.8302 -0.1437
  867TIP3    H2 2566   0.524   0.154   1.442  0.9604  0.9656 -0.7406
  868TIP3   OH2 2567   3.078   1.702   2.764  0.0509  0.0399 -0.5173
  868TIP3    H1 2568   3.165   1.710   2.804 -1.2018 -0.8278  2.7491
  868TIP3    H2 2569   3.044   1.619   2.799 -1.6567 -0.2419 -2.6820
  869TIP3   OH2 2570   2.051   4.791   2.351 -0.1469  0.4100 -0.5290
  869TIP3    H1 2571   1.986   4.741   2.400 -1.3979  0.9191 -1.6118
  869TIP3    H2 2572   2.104   4.834   2.418  0.0968 -1.2506  0.3999
  870TIP3   OH2 2573   2.591   4.487   3.094 -0.0228 -0.5731 -0.5091
  870TIP3    H1 2574   2.550   4.465   3.010  0.0810 -1.0103 -0.4493
  870TIP3    H2 2575   2.644   4.410   3.115 -0.6236 -0.7709  0.3140
  871TIP3   OH2 2576   6.767   1.763   1.638 -0.4491 -0.0529 -0.1427
  871TIP3    H1 2577   6.773   1.713   1.557  0.0618 -0.3118  0.0523
  871TIP3    H2 2578   6.786   1.854   1.612 -0.7989 -0.0510 -0.3971
  872TIP3   OH2 2579   1.195   5.408   1.757 -0.0996  0.3542 -0.1488
  872TIP3    H1 2580   1.258   5.376   1.692  0.2512 -0.4941  0.5745
  872TIP3    H2 2581   1.239   5.483   1.798  0.6739 -0.5172  0.6729
  873TIP3   OH2 2582   2.464   6.421   0.581 -0.0632 -0.0669 -0.6798
  873TIP3    H1 2583   2.539   6.472   0.613 -0.2862 -1.4556  2.4934
  873TIP3    H2 2584   2.389   6.479   0.592 -0.1498 -0.5064  1.7641
  874TIP3   OH2 2585   3.023   1.567   5.442 -0.4536 -0.1199 -0.0490
  874TIP3    H1 2586   3.019   1.482   5.487 -1.3713 -1.0103 -1.7159
  874TIP3    H2 2587   2.934   1.582   5.411 -0.1304  1.0898 -0.4385
  875TIP3   OH2 2588   3.252   5.209   5.577 -0.2202 -0.5070 -0.0641
  875TIP3    H1 2589   3.340   5.239   5.601 -0.1142 -0.5153 -0.4384
  875TIP3    H2 2590   3.216   5.174   5.658  0.4624 -1.3500 -0.1036
  876TIP3   OH2 2591   5.106   1.704   4.943 -0.8663 -0.9359  0.0173
  876TIP3    H1 2592   5.046   1.751   4.885  0.3585  0.3164 -0.2888
  876TIP3    H2 2593   5.073   1.721   5.031 -0.6876  0.1878 -0.1166
  877TIP3   OH2 2594   3.236   6.521   0.232  0.0037  0.1458  0.1240
  877TIP3    H1 2595   3.239   6.617   0.226 -0.0532  0.0850 -1.1939
  877TIP3    H2 2596   3.162   6.496   0.177  1.8429 -0.8204 -2.0509
  878TIP3   OH2 2597   5.985   6.743   4.609 -0.3944 -0.9065  0.0130
  878TIP3    H1 2598   6.072   6.781   4.624 -0.6512  0.5863 -1.9654
  878TIP3    H2 2599   5.949   6.791   4.535 -3.2421 -0.9659  1.1995
  879TIP3   OH2 2600   4.071   3.731   0.340  0.2027 -0.0130  0.0269
  879TIP3    H1 2601   4.006   3.698   0.403 -0.1747  0.9315  0.1452
  879TIP3    H2 2602   4.123   3.654   0.317  0.9792 -0.2464  2.2354
  880TIP3   OH2 2603   6.918   5.033   4.339  0.7974 -0.4343  0.0757
  880TIP3    H1 2604   7.007   5.051   4.368  0.2878  1.2227  0.7051
  880TIP3    H2 2605   6.903   5.096   4.268 -0.1513 -0.1476  0.5234
  881TIP3   OH2 2606   0.629   2.033   0.128  0.0959  0.0763  0.0438
  881TIP3    H1 2607   0.566   2.025   0.200  0.5513 -0.5635  0.3874
  881TIP3    H2 2608   0.698   1.970   0.150  0.1685 -0.2439 -1.0301
  882TIP3   OH2 2609   0.822   1.928   5.352 -0.2333  0.1575 -0.6739
  882TIP3    H1 2610   0.786   1.855   5.402 -5.3066  2.7023  0.0300
  882TIP3    H2 2611   0.818   1.899   5.261  0.5730 -1.3688 -0.2486
  883TIP3   OH2 2612   6.861   0.124   5.795  0.1116 -0.5635  0.1223
  883TIP3    H1 2613   6.887   0.203   5.843  0.9763 -0.8947  0.2260
  883TIP3    H2 2614   6.800   0.079   5.854  1.5260 -1.2032  1.1634
  884TIP3   OH2 2615   5.992   6.498   4.475 -0.8923 -0.4029  0.3637
  884TIP3    H1 2616   6.011   6.432   4.542  0.8629 -0.4184 -0.0994
  884TIP3    H2 2617   6.002   6.582   4.520  1.0318 -0.3936  0.0031
  885TIP3   OH2 2618   6.296   2.321   1.024  0.5848 -0.4561  0.4829
  885TIP3    H1 2619   6.252   2.338   0.941  0.2744  1.3244  0.9560
  885TIP3    H2 2620   6.226   2.297   1.084  0.5666 -0.0661  0.6245
  886TIP3   OH2 2621   2.935   0.236   3.188 -0.6152  0.0923 -0.3281
  886TIP3    H1 2622   3.011   0.292   3.197 -0.1649 -0.2748 -1.6001
  886TIP3    H2 2623   2.860   0.293   3.207 -0.0155  0.2472  1.7479
  887TIP3   OH2 2624   1.851   6.321   1.950  0.5899  0.2668  0.2697
  887TIP3    H1 2625   1.817   6.235   1.922  0.9814  0.2660 -0.2308
  887TIP3    H2 2626   1.786   6.383   1.919  1.4895  0.3619 -1.6411
  888TIP3   OH2 2627   4.137   1.171   3.656  0.1308  0.2546 -0.5733
  888TIP3    H1 2628   4.197   1.219   3.599  1.9423 -0.8324  0.3449
  888TIP3    H2 2629   4.174   1.084   3.663 -1.0485 -0.1804  0.8001
  889TIP3   OH2 2630   6.125   3.728   1.650  0.1540 -0.0228  0.4564
  889TIP3    H1 2631   6.099   3.811   1.611 -1.2551 -0.4464  0.4587
  889TIP3    H2 2632   6.068   3.663   1.609 -1.7890 -0.4379  3.5215
  890TIP3   OH2 2633   4.348   3.987   1.380 -0.3261 -0.1994  0.1647
  890TIP3    H1 2634   4.334   3.898   1.349  0.0797 -0.3377  0.3645
  890TIP3    H2 2635   4.265   4.032   1.366 -1.0958 -1.0865  1.6565
  891TIP3   OH2 2636   4.221   5.154   5.579  0.3028 -0.1647  0.1404
  891TIP3    H1 2637   4.255   5.169   5.491  0.2539  0.7684  0.2750
  891TIP3    H2 2638   4.181   5.067   5.575 -1.2968  0.5814 -1.2616
  892TIP3   OH2 2639   1.833   5.173   4.520  0.3111 -0.0692  0.3293
  892TIP3    H1 2640   1.749   5.219   4.512  0.4324  0.1269  0.1639
  892TIP3    H2 2641   1.809   5.081   4.530  0.0903 -0.1129 -0.5116
  893TIP3   OH2 2642   5.146   0.445   5.603  0.3889  0.6263  0.5191
  893TIP3    H1 2643   5.087   0.488   5.540 -0.4403 -2.0263 -0.6376
  893TIP3    H2 2644   5.220   0.416   5.550 -0.4450 -1.8943  0.6388
  894TIP3   OH2 2645   3.562   3.076   2.654  0.1385  0.0462  0.4515
  894TIP3    H1 2646   3.633   3.015   2.675  0.1808 -0.6773 -1.5678
  894TIP3    H2 2647   3.604   3.144   2.601 -0.2569  0.8935  1.1993
  895TIP3   OH2 2648   5.480   3.476   3.898 -0.1402  0.4633  0.3976
  895TIP3    H1 2649   5.565   3.492   3.858  1.0611 -1.6026  1.9198
  895TIP3    H2 2650   5.476   3.539   3.970 -0.0404  0.7805  0.1271
  896TIP3   OH2 2651   6.769   0.587   1.985 -0.4847 -1.0007  0.0672
  896TIP3    H1 2652   6.810   0.512   2.027  1.6435 -0.0788 -0.1942
  896TIP3    H2 2653   6.759   0.651   2.056 -0.9652 -1.0113  0.0117
  897TIP3   OH2 2654   7.117   5.562   2.321  0.0387  0.8386 -0.0901
  897TIP3    H1 2655   7.030   5.564   2.360  0.2325  0.8341  0.3422
  897TIP3    H2 2656   7.105   5.514   2.239 -0.4180  1.0772 -0.1655
  898TIP3   OH2 2657   3.458   2.241   0.773  0.0071 -0.6207  0.6225
  898TIP3    H1 2658   3.534   2.288   0.807 -0.0255  0.8376 -1.1818
  898TIP3    H2 2659   3.482   2.217   0.684 -1.7435  0.1561 -0.1002
  899TIP3   OH2 2660   5.179   2.293   4.535  0.3172 -0.0543  0.3395
  899TIP3    H1 2661   5.196   2.229   4.465  2.5484  1.9317 -1.1301
  899TIP3    H2 2662   5.150   2.371   4.489 -1.7316  0.2593  2.0315
  900TIP3   OH2 2663   5.377   4.989   2.161 -0.2656  0.0962 -0.1037
  900TIP3    H1 2664   5.347   5.019   2.075 -1.5007 -0.9423 -0.0727
  900TIP3    H2 2665   5.410   4.900   2.145  0.4169  0.2651  0.3364
  901TIP3   OH2 2666   6.329   5.009   0.203 -0.0904 -0.1783 -0.1984
  901TIP3    H1 2667   6.284   5.065   0.140  0.0441 -0.2751 -0.3811
  901TIP3    H2 2668   6.286   4.924   0.195  0.2835 -0.3373 -0.5466
  902TIP3   OH2 2669   0.732   5.758   5.182 -0.6019 -0.3871  0.6585
  902TIP3    H1 2670   0.685   5.754   5.265 -1.1117 -1.7773  0.3395
  902TIP3    H2 2671   0.812   5.807   5.201 -0.5143 -1.0282  2.0706
  903TIP3   OH2 2672   4.071   1.319   2.726 -0.0622  0.3259  0.2579
  903TIP3    H1 2673   4.059   1.229   2.759 -0.3187 -0.5620 -2.1066
  903TIP3    H2 2674   4.015   1.372   2.783  0.2115 -0.9444  1.8166
  904TIP3   OH2 2675   7.213   4.067   5.014  0.4137 -0.1636  0.6569
  904TIP3    H1 2676   7.124   4.102   5.005  0.4070 -0.4086 -0.4082
  904TIP3    H2 2677   7.227   4.061   5.108 -0.9280 -0.6873  0.8483
  905TIP3   OH2 2678   0.828   5.817   2.648 -0.2024  0.8725  0.2087
  905TIP3    H1 2679   0.838   5.742   2.590  0.7132  1.3410 -0.2676
  905TIP3    H2 2680   0.918   5.848   2.663 -0.3859  0.6748  1.9986
  906TIP3   OH2 2681   6.550   2.134   1.461 -0.0479  0.6144  0.1331
  906TIP3    H1 2682   6.579   2.102   1.375 -0.4527  2.1832 -0.6142
  906TIP3    H2 2683   6.479   2.075   1.485 -1.2793  1.3379 -1.5518
  907TIP3   OH2 2684   5.493   3.820   3.819  0.0601  0.4867  0.2826
  907TIP3    H1 2685   5.571   3.767   3.834 -0.0383  0.7053  1.7777
  907TIP3    H2 2686   5.425   3.757   3.794  0.2976  0.0628  0.6808
  908TIP3   OH2 2687   5.683   2.454   0.765 -0.1831  0.1068 -0.4166
  908TIP3    H1 2688   5.742   2.495   0.828 -0.9977 -1.8840  1.8144
  908TIP3    H2 2689   5.737   2.390   0.719 -0.3476 -1.2300  1.1438
  909TIP3   OH2 2690   1.679   2.882   4.041  0.5075 -0.0687 -0.0240
  909TIP3    H1 2691   1.654   2.812   3.979 -0.9380 -0.6819  1.1873
  909TIP3    H2 2692   1.738   2.839   4.103 -0.8004 -0.4149  1.0357
  910TIP3   OH2 2693   6.157   2.266   2.543 -0.3000  0.1921  0.2204
  910TIP3    H1 2694   6.218   2.208   2.497  0.7758  2.3620 -1.2783
  910TIP3    H2 2695   6.147   2.227   2.630  1.8979 -1.1680 -0.0644
  911TIP3   OH2 2696   2.272   1.587   0.125  0.3375  0.3309  0.3172
  911TIP3    H1 2697   2.198   1.603   0.067 -1.2352  1.0417  2.4038
  911TIP3    H2 2698   2.266   1.656   0.191  2.3797 -0.1010  1.0402
  912TIP3   OH2 2699   0.572   2.315   3.248 -0.3274 -0.5048  0.1819
  912TIP3    H1 2700   0.631   2.325   3.173 -0.1885 -1.1297  0.2005
  912TIP3    H2 2701   0.629   2.292   3.321 -0.4437  0.2890  0.5310
  913TIP3   OH2 2702   2.692   3.733   5.176  0.1350 -0.4850  0.3780
  913TIP3    H1 2703   2.687   3.829   5.176  0.8352 -0.4288 -0.9918
  913TIP3    H2 2704   2.633   3.706   5.247 -0.1898  0.9445  0.6829
  914TIP3   OH2 2705   1.849   6.563   3.395 -0.0288  0.0164 -0.2649
  914TIP3    H1 2706   1.778   6.549   3.333 -0.0254  1.1230 -0.5503
  914TIP3    H2 2707   1.806   6.600   3.472 -0.0535 -1.4912  0.4768
  915TIP3   OH2 2708   4.404   3.646   1.865 -0.1730 -0.0163  0.7496
  915TIP3    H1 2709   4.356   3.643   1.783  0.8011 -0.2699  0.1727
  915TIP3    H2 2710   4.447   3.732   1.865  1.2863 -0.7136  0.1197
  916TIP3   OH2 2711   5.581   3.809   1.981  0.3808 -1.1272  0.1702
  916TIP3    H1 2712   5.576   3.758   2.061 -2.0377 -0.6273  0.4207
  916TIP3    H2 2713   5.490   3.827   1.958  1.0537  0.2990 -1.6859
  917TIP3   OH2 2714   0.444   1.070   4.882 -0.1099 -0.4224  1.0167
  917TIP3    H1 2715   0.460   1.008   4.811 -2.3661 -0.9293  0.8637
  917TIP3    H2 2716   0.359   1.043   4.918 -0.6287  1.9099  1.6745
  918TIP3   OH2 2717   5.347   3.953   0.266  0.1842  0.2659  0.5805
  918TIP3    H1 2718   5.430   3.998   0.249 -0.0536  0.2293 -0.7965
  918TIP3    H2 2719   5.286   3.989   0.201 -0.4189 -0.9425  0.4534
  919TIP3   OH2 2720   5.674   4.923   4.133  0.2135  0.5603 -0.1032
  919TIP3    H1 2721   5.643   4.834   4.113 -2.5835  1.5674 -0.6686
  919TIP3    H2 2722   5.709   4.955   4.050  0.0547  0.4321 -0.2202
  920TIP3   OH2 2723   1.842   5.316   2.213 -0.1410  0.7440  0.3265
  920TIP3    H1 2724   1.853   5.403   2.175  0.3031  0.0038 -1.3752
  920TIP3    H2 2725   1.929   5.293   2.245  1.4399 -1.2119 -4.3512
  921TIP3   OH2 2726   4.853   2.542   2.994 -0.3005 -0.5175 -0.1708
  921TIP3    H1 2727   4.808   2.559   3.077  0.0734 -0.2212 -0.0247
  921TIP3    H2 2728   4.906   2.620   2.979 -0.2696 -0.6248 -0.6272
  922TIP3   OH2 2729   5.597   6.594   1.641 -0.1596 -0.6382 -0.1808
  922TIP3    H1 2730   5.564   6.675   1.679  0.5828  0.0369 -0.9389
  922TIP3    H2 2731   5.690   6.611   1.623 -0.0250 -1.6053 -0.4812
  923TIP3   OH2 2732   5.352   1.996   1.000 -0.2001 -0.1174 -0.3867
  923TIP3    H1 2733   5.406   2.061   0.955  1.4742 -2.1018 -1.3903
  923TIP3    H2 2734   5.263   2.014   0.970  0.4562  0.6468 -1.9879
  924TIP3   OH2 2735   3.553   2.436   2.217 -1.0093 -0.2072 -0.1510
  924TIP3    H1 2736   3.491   2.408   2.285  0.9183 -0.2772  1.6869
  924TIP3    H2 2737   3.542   2.373   2.146 -1.1110 -1.8903  1.3035
  925TIP3   OH2 2738   0.047   3.534   4.347 -0.2120 -0.0663 -0.1514
  925TIP3    H1 2739   0.067   3.601   4.281 -1.8254  1.7193  1.0731
  925TIP3    H2 2740   0.133   3.500   4.374  0.6214  1.1910 -1.1274
  926TIP3   OH2 2741   0.413   0.918   0.391  0.2214  0.7337  0.3764
  926TIP3    H1 2742   0.326   0.903   0.355  0.1735  0.8120  0.4608
  926TIP3    H2 2743   0.472   0.903   0.316  0.2298 -0.4870  0.6006
  927TIP3   OH2 2744   6.361   1.908   0.832 -0.0663 -0.1798  0.4172
  927TIP3    H1 2745   6.358   2.002   0.814  1.6489 -0.0819  0.4491
  927TIP3    H2 2746   6.279   1.890   0.879 -0.3055  1.3459  0.6411
  928TIP3   OH2 2747   1.812   3.010   1.927 -0.0421  0.1295 -0.4021
  928TIP3    H1 2748   1.847   2.965   1.850  1.6200  1.3602 -0.4331
  928TIP3    H2 2749   1.885   3.011   1.989 -0.8357  0.6076  0.5485
  929TIP3   OH2 2750   4.653   2.081   0.218 -0.6808 -0.2845  0.0141
  929TIP3    H1 2751   4.650   2.002   0.272  0.9671  0.6965  1.6574
  929TIP3    H2 2752   4.746   2.096   0.202 -1.0550  0.2130 -2.0331
  930TIP3   OH2 2753   3.238   2.532   0.882 -0.0906 -0.1871 -0.2388
  930TIP3    H1 2754   3.212   2.440   0.887 -0.0940 -0.1754 -0.0598
  930TIP3    H2 2755   3.177   2.570   0.819  0.0726 -0.3638 -0.5090
  931TIP3   OH2 2756   3.131   3.803   1.568  0.4197 -0.2517 -0.0814
  931TIP3    H1 2757   3.166   3.829   1.653  0.5065 -0.5326 -0.0277
  931TIP3    H2 2758   3.105   3.711   1.580 -1.6197  0.3197  0.2927
  932TIP3   OH2 2759   3.867   4.561   1.296  0.2444 -0.0013  0.6145
  932TIP3    H1 2760   3.942   4.567   1.236 -0.5698  0.3407 -0.3891
  932TIP3    H2 2761   3.873   4.640   1.350  0.8510 -0.1917  0.8297
  933TIP3   OH2 2762   0.749   6.010   1.003  0.0172 -0.8778 -0.2776
  933TIP3    H1 2763   0.683   6.054   0.949  0.9489 -0.8647 -1.4311
  933TIP3    H2 2764   0.736   6.047   1.091 -2.1293 -1.5776 -0.2502
  934TIP3   OH2 2765   6.308   0.892   5.373 -0.4772 -0.0499 -0.2276
  934TIP3    H1 2766   6.241   0.883   5.305  0.0214 -0.2720 -0.6979
  934TIP3    H2 2767   6.313   0.986   5.389 -0.9019 -0.0319 -0.1848
  935TIP3   OH2 2768   3.442   4.567   1.202  0.4544 -0.3313  0.1375
  935TIP3    H1 2769   3.501   4.578   1.278  2.0574 -0.3893 -1.0425
  935TIP3    H2 2770   3.469   4.634   1.141 -1.1796  0.0457 -0.2068
  936TIP3   OH2 2771   6.288   4.534   5.890 -0.4575  0.5981 -0.2837
  936TIP3    H1 2772   6.231   4.519   5.814  0.7422  0.6958 -1.2383
  936TIP3    H2 2773   6.357   4.469   5.882  0.1694  1.1774  0.2375
  937TIP3   OH2 2774   5.412   3.767   3.369 -0.8606  0.1491 -0.5215
  937TIP3    H1 2775   5.329   3.719   3.374 -0.6951 -0.1330 -0.4898
  937TIP3    H2 2776   5.395   3.848   3.418 -0.8705 -0.2635  0.1706
  938TIP3   OH2 2777   6.488   5.575   2.015 -0.1198 -0.4620 -0.8325
  938TIP3    H1 2778   6.534   5.634   1.955 -1.3541  0.0233 -1.3221
  938TIP3    H2 2779   6.548   5.501   2.025  1.1989  0.5775 -0.6774
  939TIP3   OH2 2780   1.452   1.134   5.749  0.0959  0.0121  0.0001
  939TIP3    H1 2781   1.479   1.225   5.747  1.5601 -0.4170 -0.3305
  939TIP3    H2 2782   1.378   1.129   5.689 -0.1923  1.0309  0.2595
  940TIP3   OH2 2783   2.361   6.569   4.722  0.2364  0.1427  0.0757
  940TIP3    H1 2784   2.412   6.635   4.675  0.2208  1.0388  1.2570
  940TIP3    H2 2785   2.353   6.604   4.811 -0.6180 -0.9977  0.4751
  941TIP3   OH2 2786   2.650   1.393   0.507  0.1905 -0.8713  0.7003
  941TIP3    H1 2787   2.587   1.419   0.574 -1.5966  0.5864 -1.4215
  941TIP3    H2 2788   2.602   1.330   0.452  0.9892 -0.6656 -0.2552
  942TIP3   OH2 2789   1.271   1.427   4.445  1.3788  0.1196 -0.1321
  942TIP3    H1 2790   1.255   1.404   4.537  1.1446  0.4505 -0.0893
  942TIP3    H2 2791   1.364   1.451   4.443  1.6508 -0.8672 -0.1917
  943TIP3   OH2 2792   3.831   6.140   3.083 -0.0600  0.2271  0.1612
  943TIP3    H1 2793   3.905   6.117   3.139 -1.4320  0.9247  2.4048
  943TIP3    H2 2794   3.766   6.072   3.099 -0.4128  0.3258 -0.7812
  944TIP3   OH2 2795   3.972   1.693   3.096  0.5997  0.1293 -0.2216
  944TIP3    H1 2796   4.003   1.775   3.057 -1.9240  0.9998 -0.6357
  944TIP3    H2 2797   4.043   1.665   3.153  2.2493  1.6746 -1.3964
  945TIP3   OH2 2798   5.193   6.427   0.745  0.2333 -0.3063  0.5440
  945TIP3    H1 2799   5.105   6.410   0.777 -0.3824 -0.3566 -1.0767
  945TIP3    H2 2800   5.250   6.406   0.819 -1.1370  0.3899  1.8485
  946TIP3   OH2 2801   0.081   3.921   2.204  0.3449  0.3112  0.6112
  946TIP3    H1 2802   0.050   3.943   2.116  0.8154 -1.0822  0.0556
  946TIP3    H2 2803   0.121   3.834   2.194 -0.0861 -0.1277  2.3172
  947TIP3   OH2 2804   4.581   1.567   4.944  0.2059  0.6706  0.5108
  947TIP3    H1 2805   4.583   1.473   4.959  2.6496  0.5454 -0.0945
  947TIP3    H2 2806   4.524   1.601   5.012 -0.3599 -1.1939  1.0335
  948TIP3   OH2 2807   1.344   4.085   5.207  0.3143 -0.1700  0.2253
  948TIP3    H1 2808   1.342   4.142   5.131 -0.4031  1.1162  1.1545
  948TIP3    H2 2809   1.436   4.067   5.222  0.5649  0.8091 -0.0712
  949TIP3   OH2 2810   5.641   0.576   2.692  0.3381 -0.3281 -0.5947
  949TIP3    H1 2811   5.674   0.639   2.628  1.6621 -0.3768  0.0199
  949TIP3    H2 2812   5.556   0.611   2.718  0.2004  0.1888 -1.6692
  950TIP3   OH2 2813   2.478   1.445   0.701  0.0271  0.5065 -0.4296
  950TIP3    H1 2814   2.450   1.426   0.790  2.9360  0.4051  0.5855
  950TIP3    H2 2815   2.501   1.538   0.703  3.3741 -0.1882  0.0738
  951TIP3   OH2 2816   3.744  -0.006   5.250  0.0170 -0.2866  1.0439
  951TIP3    H1 2817   3.767   0.082   5.279 -0.8278  0.9963 -1.8407
  951TIP3    H2 2818   3.826  -0.044   5.219 -0.0628  0.6206 -0.3453
  952TIP3   OH2 2819   1.030   4.654   5.650  0.1623  0.6296  0.1368
  952TIP3    H1 2820   0.988   4.617   5.572  1.5680  0.4017 -0.5536
  952TIP3    H2 2821   1.101   4.594   5.670  1.8198  2.3044 -0.3595
  953TIP3   OH2 2822   4.141   5.168   3.017 -0.2417 -1.1240 -0.5539
  953TIP3    H1 2823   4.124   5.151   3.110  0.6341 -0.5439 -0.2704
  953TIP3    H2 2824   4.055   5.165   2.976 -0.6688 -1.1887  0.3159
  954TIP3   OH2 2825   0.731   4.137   4.987  0.4846  0.0782  0.4485
  954TIP3    H1 2826   0.724   4.183   4.903 -0.2089 -0.5218  0.1598
  954TIP3    H2 2827   0.791   4.065   4.970 -0.6304 -0.8102  0.0790
  955TIP3   OH2 2828   4.150   5.390   3.683 -0.1471 -0.5135  0.2205
  955TIP3    H1 2829   4.218   5.451   3.712  0.5474 -1.4335  0.5699
  955TIP3    H2 2830   4.127   5.341   3.762 -0.5305 -0.8601 -0.1043
  956TIP3   OH2 2831   6.209   0.406   4.655  0.1004 -0.0243  0.0268
  956TIP3    H1 2832   6.161   0.398   4.572  1.6428  1.8811 -1.1225
  956TIP3    H2 2833   6.301   0.403   4.629  0.6188 -0.1873  1.7996
  957TIP3   OH2 2834   5.372   2.234   3.272 -0.0451  0.0260 -0.2021
  957TIP3    H1 2835   5.384   2.168   3.202 -0.6626  1.2516 -1.5022
  957TIP3    H2 2836   5.378   2.183   3.353  1.8708 -1.2934 -1.0668
  958TIP3   OH2 2837   4.699   3.827   2.027 -0.4237  0.0161 -0.1555
  958TIP3    H1 2838   4.638   3.851   1.958  0.5647 -1.3338 -1.5677
  958TIP3    H2 2839   4.659   3.860   2.108 -1.0583  2.6843 -1.4461
  959TIP3   OH2 2840   0.476   0.104   2.489  0.1401 -0.1525 -0.0882
  959TIP3    H1 2841   0.488   0.046   2.565 -0.3576 -0.4419 -0.2289
  959TIP3    H2 2842   0.564   0.112   2.451  0.5106  0.4690  0.8532
  960TIP3   OH2 2843   3.460   1.665   1.383  0.0841  0.3428  0.2622
  960TIP3    H1 2844   3.390   1.716   1.422  0.3966  0.0487  1.2298
  960TIP3    H2 2845   3.527   1.660   1.451  0.0585 -1.3494  0.1938
  961TIP3   OH2 2846   4.888   2.883   3.355  0.2858  0.3194 -0.4244
  961TIP3    H1 2847   4.940   2.940   3.412  0.0469  0.4119 -0.2985
  961TIP3    H2 2848   4.951   2.820   3.321  0.3897  0.1113  0.1402
  962TIP3   OH2 2849   1.022   4.601   3.472  0.0877  0.9471 -0.3536
  962TIP3    H1 2850   0.967   4.523   3.462  2.1277 -0.4803 -1.0690
  962TIP3    H2 2851   1.029   4.637   3.384  0.3881  1.0417 -0.2906
  963TIP3   OH2 2852   4.024   2.117   2.398 -0.0164 -0.5562 -0.2139
  963TIP3    H1 2853   4.035   2.199   2.448 -1.2372 -1.4480  1.6670
  963TIP3    H2 2854   3.929   2.109   2.388  0.0133 -2.1939  0.4965
  964TIP3   OH2 2855   1.375   0.102   1.849 -0.1479 -0.5688 -0.1881
  964TIP3    H1 2856   1.349   0.070   1.936 -1.9206 -1.3951 -0.9665
  964TIP3    H2 2857   1.388   0.022   1.798  3.1853 -0.1730 -0.1403
  965TIP3   OH2 2858   6.673   0.953   2.601  0.3576 -0.4125  0.3751
  965TIP3    H1 2859   6.591   0.943   2.553  0.5502  0.5200 -0.1675
  965TIP3    H2 2860   6.722   0.873   2.581 -0.7657 -1.4275  1.4556
  966TIP3   OH2 2861   0.376   2.052   2.961  0.1348 -0.3260  0.1964
  966TIP3    H1 2862   0.349   2.064   3.052  2.1719  1.3685  0.6366
  966TIP3    H2 2863   0.346   2.131   2.916 -0.8750 -1.1557 -0.6787
  967TIP3   OH2 2864   3.714   1.382   0.544  0.4130 -0.3741  0.0271
  967TIP3    H1 2865   3.636   1.380   0.600 -1.5210  4.7242 -1.8761
  967TIP3    H2 2866   3.717   1.294   0.505 -2.4977 -1.7734  2.4920
  968TIP3   OH2 2867   0.943   6.510   5.728 -0.4355  0.0776 -0.1137
  968TIP3    H1 2868   0.879   6.581   5.724  0.5829  0.9683 -1.5683
  968TIP3    H2 2869   0.993   6.528   5.808  0.4279  1.6161 -0.9444
  969TIP3   OH2 2870   2.352   2.030   2.207 -0.1715  0.0856 -0.0016
  969TIP3    H1 2871   2.301   2.052   2.129 -1.4943 -1.0399  0.5164
  969TIP3    H2 2872   2.308   2.078   2.278  0.3840  0.2630  0.2260
  970TIP3   OH2 2873   2.496   6.127   4.384 -0.0167  0.2883 -0.2687
  970TIP3    H1 2874   2.481   6.122   4.478 -0.7924  0.8686 -0.3572
  970TIP3    H2 2875   2.572   6.071   4.369 -0.9094 -1.1823  0.4755
  971TIP3   OH2 2876   0.036   3.838   5.525  0.6448  0.2488  0.5362
  971TIP3    H1 2877   0.047   3.794   5.441  2.1738 -1.8477  1.7412
  971TIP3    H2 2878  -0.039   3.795   5.565 -0.1311  1.2948  0.2606
  972TIP3   OH2 2879   2.734   5.816   3.108  0.0636 -0.2901 -0.2152
  972TIP3    H1 2880   2.821   5.825   3.146  0.6028 -1.1213 -1.2188
  972TIP3    H2 2881   2.702   5.733   3.143  0.0639 -0.4572 -0.6163
  973TIP3   OH2 2882   3.614   3.745   5.498  0.4870 -0.0907  0.2676
  973TIP3    H1 2883   3.598   3.839   5.491  2.2178  0.1529 -1.1941
  973TIP3    H2 2884   3.585   3.722   5.587 -0.5030  1.6868  0.4503
  974TIP3   OH2 2885   3.841   5.699   4.832 -0.4316  0.5153 -0.0876
  974TIP3    H1 2886   3.777   5.649   4.882 -1.1044  0.9540 -0.4993
  974TIP3    H2 2887   3.794   5.777   4.804  0.2411  0.7702 -0.5293
  975TIP3   OH2 2888   4.076   6.493   4.018  0.3549 -0.4094  0.5215
  975TIP3    H1 2889   4.099   6.561   3.953  0.0046  0.4838  1.3058
  975TIP3    H2 2890   4.038   6.542   4.091 -0.1197 -1.4887  1.0153
  976TIP3   OH2 2891   1.610   4.790   3.106  0.0053 -0.1059 -0.2700
  976TIP3    H1 2892   1.657   4.763   3.028 -1.8892 -0.2719 -1.4139
  976TIP3    H2 2893   1.618   4.886   3.107  1.4619 -0.2144  0.3116
  977TIP3   OH2 2894   0.278   1.319   1.504  1.0919 -0.4401 -0.1995
  977TIP3    H1 2895   0.274   1.387   1.437  0.9897  1.8968  1.9833
  977TIP3    H2 2896   0.187   1.291   1.516  0.8227  0.5980  0.3037
  978TIP3   OH2 2897   6.079   3.189   5.321 -0.0725  0.1655  0.6728
  978TIP3    H1 2898   6.034   3.107   5.344 -0.5075  0.3267  0.4015
  978TIP3    H2 2899   6.098   3.230   5.405 -0.9790  0.3875  0.7862
  979TIP3   OH2 2900   1.986   3.979   2.434  0.0125 -0.1258  0.9446
  979TIP3    H1 2901   2.020   3.974   2.345  2.2729 -1.0952  1.7874
  979TIP3    H2 2902   1.934   4.059   2.436 -1.5830 -0.9610 -1.6695
  980TIP3   OH2 2903   3.448   0.577   1.113  0.1418 -0.1095  0.0244
  980TIP3    H1 2904   3.512   0.534   1.170 -0.0534  0.0476  0.3667
  980TIP3    H2 2905   3.410   0.645   1.167 -1.2912 -1.0623  0.2844
  981TIP3   OH2 2906   1.279   4.805   5.836 -0.0292 -0.6754 -0.0361
  981TIP3    H1 2907   1.311   4.724   5.876  1.0213 -0.9347 -1.3363
  981TIP3    H2 2908   1.214   4.776   5.772 -0.5162 -0.3766  0.3069
  982TIP3   OH2 2909   3.939   1.328   3.373  0.2332 -0.2836 -0.1379
  982TIP3    H1 2910   3.874   1.300   3.308 -1.9270  0.2823  1.6216
  982TIP3    H2 2911   4.004   1.258   3.374 -1.0213 -1.5196 -1.1322
  983TIP3   OH2 2912   2.277   2.231   4.615 -0.8754  0.1123 -0.0637
  983TIP3    H1 2913   2.338   2.276   4.557 -0.9987  0.4126  0.0341
  983TIP3    H2 2914   2.304   2.139   4.613 -2.6557 -0.4761 -2.9077
  984TIP3   OH2 2915   6.485   5.347   2.422 -0.7028 -0.1257  0.2972
  984TIP3    H1 2916   6.446   5.408   2.359  0.1057 -0.9280 -1.0265
  984TIP3    H2 2917   6.579   5.361   2.414 -0.4104 -2.3456 -0.9543
  985TIP3   OH2 2918   1.641   3.021   1.338  0.0240  0.2106 -0.1385
  985TIP3    H1 2919   1.609   2.979   1.417 -1.0919  1.8224  0.3171
  985TIP3    H2 2920   1.716   3.073   1.367 -0.1457  0.4919 -0.1919
  986TIP3   OH2 2921   2.432   5.851   2.700 -1.1468 -0.7686 -0.3066
  986TIP3    H1 2922   2.445   5.864   2.793  1.7602 -1.1485 -0.5735
  986TIP3    H2 2923   2.418   5.756   2.691  0.7613 -1.0659 -0.4117
  987TIP3   OH2 2924   0.398   0.338   2.640 -0.0527  0.5285 -0.0269
  987TIP3    H1 2925   0.406   0.246   2.614 -1.4772  0.8594 -1.8431
  987TIP3    H2 2926   0.313   0.344   2.682 -0.7216  1.2830 -1.4074
  988TIP3   OH2 2927   6.314   1.871   4.568  0.5962 -0.0209 -0.0943
  988TIP3    H1 2928   6.311   1.965   4.585 -0.4541  0.0780 -0.7658
  988TIP3    H2 2929   6.330   1.832   4.654  1.1589  0.7634  0.1736
  989TIP3   OH2 2930   1.887   3.982   1.853 -0.1511  0.4556  0.0018
  989TIP3    H1 2931   1.922   3.992   1.764  0.1266 -0.4984  0.0003
  989TIP3    H2 2932   1.940   4.041   1.906  0.3898  0.2386 -0.2855
  990TIP3   OH2 2933   1.239   4.487   5.738 -0.4376  0.6732  0.1163
  990TIP3    H1 2934   1.266   4.416   5.679 -1.8100 -0.3884  0.6742
  990TIP3    H2 2935   1.269   4.459   5.824 -0.0051  1.3335  0.1823
  991TIP3   OH2 2936   5.991   1.614   5.775 -0.1938  0.2084  0.0313
  991TIP3    H1 2937   6.037   1.549   5.828 -1.6810 -0.3673  0.6906
  991TIP3    H2 2938   5.961   1.565   5.698 -0.9898  0.1890  0.3462
  992TIP3   OH2 2939   0.243   5.884   4.993 -1.1196 -0.2293 -0.4171
  992TIP3    H1 2940   0.255   5.938   5.071 -0.8311 -1.4593  0.4219
  992TIP3    H2 2941   0.320   5.902   4.939 -0.2834 -0.8699  0.5286
  993TIP3   OH2 2942   1.503   3.203   0.129  0.3509 -0.1198 -0.6463
  993TIP3    H1 2943   1.492   3.214   0.035 -0.3798 -1.9113 -0.8066
  993TIP3    H2 2944   1.471   3.115   0.147 -2.0701  1.0842  1.6675
  994TIP3   OH2 2945   0.016   0.103   5.785  0.4890 -0.2283  0.4134
  994TIP3    H1 2946  -0.009   0.188   5.821  1.0869  0.1428 -0.0364
  994TIP3    H2 2947   0.031   0.048   5.862 -1.1187 -0.3040  0.7131
  995TIP3   OH2 2948   3.323   4.616   5.562 -0.5782 -0.0439 -0.2727
  995TIP3    H1 2949   3.344   4.583   5.649 -1.6152  1.1830  0.4874
  995TIP3    H2 2950   3.318   4.538   5.507  0.7600 -0.7797  0.5979
  996TIP3   OH2 2951   2.896   2.580   0.347 -0.1499 -0.2981 -0.0547
  996TIP3    H1 2952   2.824   2.623   0.301  0.0502 -0.5544 -0.6156
  996TIP3    H2 2953   2.971   2.589   0.288  0.7010  1.3339  1.1539
  997TIP3   OH2 2954   2.524   6.662   4.523  0.2221  1.5432  0.3282
  997TIP3    H1 2955   2.596   6.670   4.587  0.0047 -0.3931  0.8606
  997TIP3    H2 2956   2.562   6.615   4.450  0.0212  2.3417 -0.3080
  998TIP3   OH2 2957   3.183   2.902   0.721 -0.2072 -0.6453  0.5334
  998TIP3    H1 2958   3.176   2.807   0.715  0.2092 -0.6795  0.5291
  998TIP3    H2 2959   3.257   2.917   0.780 -1.9081 -0.3101  2.6904
  999TIP3   OH2 2960   6.087   0.703   5.830  0.0221  0.0117  0.6095
  999TIP3    H1 2961   6.175   0.721   5.864 -0.0472  0.5232  0.5312
  999TIP3    H2 2962   6.100   0.696   5.735 -0.4942  3.4203  0.1838
 1000TIP3   OH2 2963   0.882   5.966   1.434  0.0839  0.2472 -0.2557
 1000TIP3    H1 2964   0.885   6.027   1.360 -1.1151  0.1514 -0.4053
 1000TIP3    H2 2965   0.973   5.956   1.461  0.3152  2.1977 -0.1465
 1001TIP3   OH2 2966   3.281   4.853   3.837 -0.0817  0.0917 -0.4810
 1001TIP3    H1 2967   3.246   4.918   3.776  0.0135  0.7656  0.1734
 1001TIP3    H2 2968   3.208   4.793   3.854 -0.9412  1.4755  0.8693
 1002TIP3   OH2 2969   5.173   4.777   5.097  0.5637  0.6012 -0.2823
 1002TIP3    H1 2970   5.268   4.770   5.104  0.6724  0.6116 -1.4935
 1002TIP3    H2 2971   5.150   4.717   5.025 -0.2678  1.1187 -0.4626
 1003TIP3   OH2 2972   3.069   3.844   4.503  0.6713 -0.1389  0.6749
 1003TIP3    H1 2973   3.037   3.756   4.524  0.2955 -0.6995 -1.8535
 1003TIP3    H2 2974   3.003   3.903   4.539  0.0856 -0.9754  1.0074
 1004TIP3   OH2 2975   6.986   1.469   5.288  0.2314 -0.5304 -0.3691
 1004TIP3    H1 2976   6.975   1.503   5.199 -0.1982 -0.7093 -0.3859
 1004TIP3    H2 2977   6.897   1.449   5.317  0.4859 -1.7515 -0.3927
 1005TIP3   OH2 2978   0.693   1.041   5.068 -0.2836 -0.1369 -0.0229
 1005TIP3    H1 2979   0.641   1.085   5.000  0.9384  0.9373 -0.3132
 1005TIP3    H2 2980   0.777   1.024   5.025 -0.2405 -1.4503  0.5585
 1006TIP3   OH2 2981   2.188   0.543   2.676 -0.1680 -0.4498  0.8375
 1006TIP3    H1 2982   2.221   0.516   2.591 -1.2964 -1.5252  0.7058
 1006TIP3    H2 2983   2.110   0.594   2.656 -0.2459 -0.4156  1.2139
 1007TIP3   OH2 2984   6.134   1.427   2.768 -0.0340 -0.0044  0.1724
 1007TIP3    H1 2985   6.131   1.485   2.691 -0.3410 -0.0661  0.1391
 1007TIP3    H2 2986   6.227   1.405   2.776  0.0999  0.5656  0.2408
 1008TIP3   OH2 2987   4.135   5.264   3.904  0.0162 -0.2749 -0.1070
 1008TIP3    H1 2988   4.142   5.326   3.977  1.7103  2.4089 -2.3028
 1008TIP3    H2 2989   4.205   5.200   3.920  1.4097  1.1897 -0.0834
 1009TIP3   OH2 2990   2.533   5.616   5.778  0.9230  0.6082  0.1251
 1009TIP3    H1 2991   2.465   5.621   5.845  0.3149 -0.2817 -0.3986
 1009TIP3    H2 2992   2.614   5.637   5.824  0.3711  1.1050  0.8925
 1010TIP3   OH2 2993   5.097   6.469   4.098 -0.4775  0.1735 -0.1332
 1010TIP3    H1 2994   5.153   6.419   4.158 -0.2642  0.1699 -0.3312
 1010TIP3    H2 2995   5.084   6.553   4.142 -1.7854 -0.4573  0.7331
 1011TIP3   OH2 2996   6.823   1.741   4.862  0.1981  0.4824 -0.4819
 1011TIP3    H1 2997   6.844   1.776   4.775  0.1297  0.0251 -0.6816
 1011TIP3    H2 2998   6.733   1.769   4.878  0.1509  0.4181 -0.6335
 1012TIP3   OH2 2999   3.912   6.525   4.692  0.1585 -0.9538 -0.5662
 1012TIP3    H1 3000   3.952   6.472   4.623  2.1493 -2.1575  1.3688
 1012TIP3    H2 3001   3.967   6.509   4.769 -0.6118  2.0557  0.7561
 1013TIP3   OH2 3002   2.512   4.304   0.566 -0.9822  0.5693  0.6359
 1013TIP3    H1 3003   2.579   4.243   0.533 -1.7497  0.2171 -0.3281
 1013TIP3    H2 3004   2.454   4.249   0.619 -1.0469  0.6887  0.6880
 1014TIP3   OH2 3005   6.479   4.052   2.286  0.0886 -0.2838 -0.2078
 1014TIP3    H1 3006   6.485   4.126   2.225  1.4302  1.6405  2.0886
 1014TIP3    H2 3007   6.534   3.984   2.247  3.1449  1.8761  0.0187
 1015TIP3   OH2 3008   6.698   3.232   2.889  0.0691  0.4840 -0.6744
 1015TIP3    H1 3009   6.628   3.170   2.908  1.3541 -1.4231 -1.7622
 1015TIP3    H2 3010   6.688   3.301   2.955 -0.9905 -1.2456  1.0876
 1016TIP3   OH2 3011   6.731   5.120   2.881 -0.1850  0.3363  0.2708
 1016TIP3    H1 3012   6.795   5.105   2.812 -1.6843  0.6596 -1.2649
 1016TIP3    H2 3013   6.779   5.105   2.963  1.3607 -1.2082 -0.8467
 1017TIP3   OH2 3014   1.068   0.069   1.850  0.3101  0.2062  0.0343
 1017TIP3    H1 3015   1.000   0.090   1.914  0.7208  0.0072  0.5389
 1017TIP3    H2 3016   1.140   0.035   1.902  0.4382 -0.4986 -0.5848
 1018TIP3   OH2 3017   0.888   4.416   5.287 -0.5528  0.1475 -0.3263
 1018TIP3    H1 3018   0.964   4.372   5.327  0.1671  2.0178  0.4753
 1018TIP3    H2 3019   0.827   4.345   5.268  0.6399 -1.2231  0.6916
 1019TIP3   OH2 3020   5.861   0.961   1.067 -0.3743  0.2983  0.1333
 1019TIP3    H1 3021   5.947   0.982   1.104 -1.0928  1.1539  1.3701
 1019TIP3    H2 3022   5.847   0.869   1.092 -1.0107  0.9455  2.4701
 1020TIP3   OH2 3023   0.252   3.921   1.075 -0.6040 -0.5230  0.1319
 1020TIP3    H1 3024   0.310   3.915   0.999  1.4022 -1.7573  1.6522
 1020TIP3    H2 3025   0.260   3.835   1.118  0.0591  0.8132  2.8975
 1021TIP3   OH2 3026   6.183   6.462   4.873 -0.0206 -0.7616 -0.7336
 1021TIP3    H1 3027   6.246   6.430   4.937 -0.2978 -0.2331 -0.1916
 1021TIP3    H2 3028   6.104   6.479   4.924  0.3555  1.5941 -0.8412
 1022TIP3   OH2 3029   5.896   4.663   1.457  0.3235 -0.0324  0.2876
 1022TIP3    H1 3030   5.951   4.585   1.447 -1.7367 -1.6382  0.7167
 1022TIP3    H2 3031   5.873   4.664   1.550  0.7280  1.4251  0.3946
 1023TIP3   OH2 3032   3.073   4.986   0.149  0.1202  0.1977  0.6409
 1023TIP3    H1 3033   3.096   4.973   0.241  1.4249  1.5037  0.5385
 1023TIP3    H2 3034   3.011   5.059   0.151  1.5374  1.4702  0.3991
 1024TIP3   OH2 3035   4.083   2.442   5.771 -0.7313  0.4490 -0.0321
 1024TIP3    H1 3036   4.062   2.426   5.863 -0.4085 -0.0272 -0.0380
 1024TIP3    H2 3037   3.999   2.462   5.730 -0.9168  0.3477  0.3014
 1025TIP3   OH2 3038   2.615   3.450   1.712 -0.0611 -0.3709 -0.0516
 1025TIP3    H1 3039   2.577   3.504   1.643  0.2896  0.3035  0.2698
 1025TIP3    H2 3040   2.688   3.502   1.746  0.5036 -1.1992  0.0348
 1026TIP3   OH2 3041   4.367   1.509   1.460  0.2696 -0.0445  0.0778
 1026TIP3    H1 3042   4.341   1.442   1.397  1.6749 -1.3714  0.8395
 1026TIP3    H2 3043   4.304   1.502   1.531 -1.0919  1.2016 -0.9348
 1027TIP3   OH2 3044   3.763   4.013   4.711  0.2380  0.0925  0.6349
 1027TIP3    H1 3045   3.794   4.045   4.627 -0.9694 -0.2731  0.0267
 1027TIP3    H2 3046   3.684   4.066   4.729 -1.1133 -1.6874  0.1821
 1028TIP3   OH2 3047   4.202   2.662   4.321 -0.0213 -0.1098  0.0619
 1028TIP3    H1 3048   4.108   2.654   4.310 -0.0884  0.9250 -0.2213
 1028TIP3    H2 3049   4.230   2.720   4.250  1.3529 -2.9947 -1.9643
 1029TIP3   OH2 3050   5.571   5.002   3.020  0.3127  0.4204 -0.4683
 1029TIP3    H1 3051   5.536   5.019   3.108  0.4893 -1.7914  0.0808
 1029TIP3    H2 3052   5.601   4.911   3.023  0.3546  0.2972 -2.8285
 1030TIP3   OH2 3053   6.761   2.909   2.316  0.0486 -0.5299 -0.4219
 1030TIP3    H1 3054   6.824   2.839   2.334 -1.5148 -1.7878  0.5059
 1030TIP3    H2 3055   6.706   2.912   2.394 -1.5416 -0.0724 -1.5004
 1031TIP3   OH2 3056   3.205   0.630   5.362  0.1931 -0.7913 -0.0069
 1031TIP3    H1 3057   3.274   0.682   5.321  0.0668  1.0214  1.9194
 1031TIP3    H2 3058   3.248   0.585   5.434 -0.4260 -0.4624  0.5767
 1032TIP3   OH2 3059   3.796   3.757   3.215  0.4038 -0.1614  0.0047
 1032TIP3    H1 3060   3.706   3.768   3.246  0.5829  0.9716  0.1893
 1032TIP3    H2 3061   3.789   3.761   3.119  0.0624 -1.8516 -0.0583
 1033TIP3   OH2 3062   3.815   6.044   3.763 -0.0245  0.0889  0.4491
 1033TIP3    H1 3063   3.814   5.951   3.787  0.0213 -0.4511 -1.4140
 1033TIP3    H2 3064   3.733   6.079   3.798  0.7398 -0.1850  2.6811
 1034TIP3   OH2 3065   0.282   5.579   0.322  0.3219  0.0308  0.2325
 1034TIP3    H1 3066   0.364   5.532   0.340  0.6476  0.6524  0.4089
 1034TIP3    H2 3067   0.284   5.594   0.227  0.5606  0.3028  0.2781
 1035TIP3   OH2 3068   1.342   1.377   0.051  0.1774  0.8048 -0.3190
 1035TIP3    H1 3069   1.417   1.436   0.061  0.8282 -0.1277  0.4357
 1035TIP3    H2 3070   1.325   1.343   0.139  0.8762 -1.3615 -0.9413
 1036TIP3   OH2 3071   0.461   6.393   3.412 -0.7161  0.0741 -0.0835
 1036TIP3    H1 3072   0.379   6.347   3.392 -1.0820  0.5035  0.3945
 1036TIP3    H2 3073   0.507   6.397   3.328 -0.7862 -0.9454 -0.1725
 1037TIP3   OH2 3074   3.208   2.776   2.559 -0.4390 -0.2070 -0.8423
 1037TIP3    H1 3075   3.188   2.683   2.555  1.4293 -0.9877  2.9635
 1037TIP3    H2 3076   3.129   2.816   2.595 -0.5272 -0.6788 -0.4975
 1038TIP3   OH2 3077   0.288   0.428   2.930 -0.0417 -0.8253  0.4049
 1038TIP3    H1 3078   0.253   0.470   3.009 -0.6383 -1.3925  0.4574
 1038TIP3    H2 3079   0.210   0.406   2.878  0.2856 -1.3418  0.1222
 1039TIP3   OH2 3080   3.939   5.366   2.076  0.5289 -0.2759  0.1315
 1039TIP3    H1 3081   3.951   5.288   2.022 -0.1560 -0.3778  0.1151
 1039TIP3    H2 3082   3.974   5.342   2.161  0.9942 -0.3494 -0.0811
 1040TIP3   OH2 3083   4.868   5.324   5.353  0.1214  0.2330  0.1717
 1040TIP3    H1 3084   4.876   5.349   5.261  0.4754 -1.2913 -0.2417
 1040TIP3    H2 3085   4.775   5.304   5.364 -0.7939  4.1251  1.2311
 1041TIP3   OH2 3086   2.064   2.524   0.195  0.5371  0.0647 -0.5955
 1041TIP3    H1 3087   2.072   2.538   0.289 -0.6943 -0.3196 -0.4238
 1041TIP3    H2 3088   2.053   2.429   0.186  1.2134  0.0305 -1.1801
 1042TIP3   OH2 3089   5.003   0.192   5.638 -0.6066  0.1965 -0.0444
 1042TIP3    H1 3090   5.033   0.283   5.639  0.9511 -0.2791  0.5236
 1042TIP3    H2 3091   4.976   0.176   5.547  0.5300  0.8039 -0.5100
 1043TIP3   OH2 3092   5.403   3.207   0.013 -0.2560  0.6265 -0.1278
 1043TIP3    H1 3093   5.406   3.219   0.108  1.3122 -2.6296  0.3840
 1043TIP3    H2 3094   5.481   3.252  -0.020 -0.3892  1.1154  0.2214
 1044TIP3   OH2 3095   6.117   1.116   2.597  0.1428  0.3212 -0.3108
 1044TIP3    H1 3096   6.119   1.163   2.514  0.1697 -0.0358 -0.5135
 1044TIP3    H2 3097   6.024   1.096   2.611  0.0478  1.0057  0.1043
 1045TIP3   OH2 3098   6.878   2.525   3.102 -0.0070 -0.1042 -0.1669
 1045TIP3    H1 3099   6.820   2.546   3.175 -0.6734 -0.6017 -0.5376
 1045TIP3    H2 3100   6.819   2.496   3.033  0.6784 -0.4540 -0.6124
 1046TIP3   OH2 3101   1.070   5.018   1.118 -0.6474 -0.1091 -0.1351
 1046TIP3    H1 3102   1.011   4.949   1.088 -0.6271 -0.3474  0.3757
 1046TIP3    H2 3103   1.145   5.013   1.059 -1.6435  0.9751 -1.5709
 1047TIP3   OH2 3104   6.911   3.352   0.000 -0.4050 -0.2837  0.2976
 1047TIP3    H1 3105   6.875   3.268  -0.028  0.4931 -0.9209  1.0233
 1047TIP3    H2 3106   6.900   3.352   0.095  2.0821 -0.8042  0.6435
 1048TIP3   OH2 3107   6.600   1.261   2.167 -0.3037 -0.1171  0.2998
 1048TIP3    H1 3108   6.649   1.218   2.237  0.9611  1.2036  0.2880
 1048TIP3    H2 3109   6.659   1.262   2.092 -0.3642  1.3702  0.2282
 1049TIP3   OH2 3110   4.163   0.357   1.860  0.2435  0.1741  0.2153
 1049TIP3    H1 3111   4.174   0.400   1.776  3.1504  0.8148  0.8335
 1049TIP3    H2 3112   4.069   0.362   1.877 -0.0587  2.6104 -1.6530
 1050TIP3   OH2 3113   6.273   3.642   3.016  0.6013  0.0941 -0.0718
 1050TIP3    H1 3114   6.313   3.583   3.080  0.5531  0.9992  0.8246
 1050TIP3    H2 3115   6.338   3.713   3.006 -0.2602  0.9934  0.5272
 1051TIP3   OH2 3116   6.402   2.677   3.509  0.1861  0.2630  0.4232
 1051TIP3    H1 3117   6.367   2.742   3.570 -0.1732  0.7970 -0.3339
 1051TIP3    H2 3118   6.333   2.666   3.443  0.2841 -0.8246  0.4898
 1052TIP3   OH2 3119   3.867   2.890   3.634  0.0836 -0.2989  0.3424
 1052TIP3    H1 3120   3.929   2.932   3.693 -0.9234 -0.4283  1.5271
 1052TIP3    H2 3121   3.785   2.885   3.684 -0.9878  0.1596 -1.2782
 1053TIP3   OH2 3122   3.800   5.435   0.386 -0.4057  0.3017 -0.6175
 1053TIP3    H1 3123   3.740   5.362   0.368  0.4364 -0.5294 -0.1297
 1053TIP3    H2 3124   3.845   5.450   0.302  0.0327 -0.3236 -0.5036
 1054TIP3   OH2 3125   5.181   2.895   3.972 -0.5162 -0.1910 -0.1550
 1054TIP3    H1 3126   5.150   2.900   4.062  0.5604  2.5120  0.1671
 1054TIP3    H2 3127   5.103   2.909   3.918 -0.7829  0.7872  0.4636
 1055TIP3   OH2 3128   5.587   2.297   3.443 -0.5042 -0.1370 -0.2538
 1055TIP3    H1 3129   5.554   2.382   3.412 -0.5181 -0.8498 -2.2831
 1055TIP3    H2 3130   5.681   2.301   3.428 -0.5260 -0.5456 -0.4934
 1056TIP3   OH2 3131   0.087   6.304   2.565 -0.0729  0.0085  0.6205
 1056TIP3    H1 3132   0.114   6.212   2.576 -1.6438 -0.3745  1.5844
 1056TIP3    H2 3133   0.098   6.342   2.652 -1.4685  0.1352  0.7616
 1057TIP3   OH2 3134   0.016   4.369   4.281 -0.2035 -0.1109 -0.4032
 1057TIP3    H1 3135   0.050   4.335   4.199 -0.9355  0.3967 -0.9305
 1057TIP3    H2 3136  -0.009   4.459   4.262  0.6696  0.3862  0.6794
 1058TIP3   OH2 3137   3.119   5.624   5.631 -0.0811 -0.0449  0.0242
 1058TIP3    H1 3138   3.207   5.640   5.597 -0.5234 -0.4558 -1.3961
 1058TIP3    H2 3139   3.116   5.671   5.714  2.0052 -1.3207  0.8931
 1059TIP3   OH2 3140   5.781   5.378   2.039 -0.1069 -0.1402  0.3958
 1059TIP3    H1 3141   5.784   5.343   2.128  1.2897  1.6441  1.1034
 1059TIP3    H2 3142   5.707   5.439   2.039  1.0395  1.3231  0.9750
 1060TIP3   OH2 3143   3.629   6.286   5.853  0.1429 -0.4256  0.5814
 1060TIP3    H1 3144   3.539   6.257   5.864  0.2937 -1.7551 -1.1608
 1060TIP3    H2 3145   3.664   6.290   5.942 -2.1206  2.0222  1.4675
 1061TIP3   OH2 3146   6.507   3.300   0.537 -0.0004 -0.0148  0.1251
 1061TIP3    H1 3147   6.462   3.254   0.466  1.1875 -1.4519  0.2523
 1061TIP3    H2 3148   6.587   3.334   0.498  0.0244  0.3344  0.4706
 1062TIP3   OH2 3149   2.162   4.252   4.365  0.1980  0.6754  0.2679
 1062TIP3    H1 3150   2.081   4.297   4.389  0.8060  0.6362  2.6665
 1062TIP3    H2 3151   2.139   4.159   4.366  0.4378  0.6051  1.8899
 1063TIP3   OH2 3152   6.631   4.348   5.581 -0.6917 -0.0984 -0.4628
 1063TIP3    H1 3153   6.636   4.443   5.581 -0.4006 -0.1129 -0.1051
 1063TIP3    H2 3154   6.587   4.326   5.663 -0.7474 -0.2716 -0.5381
 1064TIP3   OH2 3155   6.810   6.726   5.588 -0.6914  0.2599  0.2222
 1064TIP3    H1 3156   6.774   6.754   5.673  1.5634 -0.7341  1.5801
 1064TIP3    H2 3157   6.883   6.786   5.572 -0.9939  0.3273 -0.9697
 1065TIP3   OH2 3158   6.782   3.669   5.686 -0.1122  0.4498  0.4331
 1065TIP3    H1 3159   6.763   3.741   5.625 -0.3924 -1.3114 -1.6796
 1065TIP3    H2 3160   6.696   3.643   5.719  0.0871  1.8379  2.2405
 1066TIP3   OH2 3161   3.279   0.821   4.099 -0.3951  0.1482 -0.8414
 1066TIP3    H1 3162   3.207   0.878   4.124  1.2341  1.5073  1.1464
 1066TIP3    H2 3163   3.247   0.732   4.115 -0.8952  0.7809  2.5475
 1067TIP3   OH2 3164   1.632   0.260   3.814  0.4625  0.2328 -0.4944
 1067TIP3    H1 3165   1.594   0.177   3.843  0.4758  0.4550  0.1668
 1067TIP3    H2 3166   1.557   0.309   3.779  0.2748  0.3474  0.0587
 1068TIP3   OH2 3167   3.539   4.951   3.817 -0.9207 -0.2581 -0.1871
 1068TIP3    H1 3168   3.571   4.969   3.906  1.0556 -1.3660 -0.6094
 1068TIP3    H2 3169   3.448   4.925   3.829 -0.4839 -1.0923  1.6197
 1069TIP3   OH2 3170   2.429   5.523   3.618  0.4019 -0.8273  0.1408
 1069TIP3    H1 3171   2.457   5.446   3.669 -2.3466 -0.8176  1.8167
 1069TIP3    H2 3172   2.363   5.489   3.558  0.8981 -0.1318 -0.8343
 1070TIP3   OH2 3173   3.008   1.211   0.211  0.4358  0.2511 -0.0092
 1070TIP3    H1 3174   3.035   1.119   0.202  0.5163  0.3661 -1.0633
 1070TIP3    H2 3175   2.915   1.210   0.188  0.5323  0.4972 -0.4067
 1071TIP3   OH2 3176   0.070   4.457   4.899  1.0672 -0.0861 -0.1852
 1071TIP3    H1 3177   0.061   4.437   4.806 -0.8960 -0.0153 -0.0357
 1071TIP3    H2 3178   0.075   4.372   4.941 -0.4942 -0.1929 -0.1629
 1072TIP3   OH2 3179   5.557   0.639   2.105 -0.4082  0.2214  0.2462
 1072TIP3    H1 3180   5.549   0.623   2.199  2.2853  0.2754  0.5576
 1072TIP3    H2 3181   5.521   0.560   2.064 -1.8462  0.3082  1.2741
 1073TIP3   OH2 3182   6.552   5.735   5.873  0.7021  0.1816 -0.5131
 1073TIP3    H1 3183   6.498   5.700   5.802  2.1186 -1.3856 -0.8723
 1073TIP3    H2 3184   6.627   5.676   5.878  1.5183  1.2769  1.1385
 1074TIP3   OH2 3185   3.566   4.236   2.842 -0.5721  0.5464 -0.4348
 1074TIP3    H1 3186   3.646   4.256   2.793 -1.8913 -0.2281 -3.1009
 1074TIP3    H2 3187   3.553   4.312   2.899  1.2733  1.3239 -0.9556
 1075TIP3   OH2 3188   4.921   1.846   1.328  0.7582  0.1720 -0.2077
 1075TIP3    H1 3189   4.847   1.881   1.279 -0.4435 -1.6264  0.2596
 1075TIP3    H2 3190   4.903   1.870   1.419  0.8902 -0.0395 -0.1262
 1076TIP3   OH2 3191   3.438   1.699   2.206 -0.0540  0.0920  0.1981
 1076TIP3    H1 3192   3.364   1.760   2.212 -1.0634 -0.8999 -1.2256
 1076TIP3    H2 3193   3.492   1.733   2.135  0.0849  0.0338  0.2746
 1077TIP3   OH2 3194   3.875   4.706   3.734  0.4936 -0.0506 -0.4646
 1077TIP3    H1 3195   3.947   4.642   3.729  0.0616 -0.7288  1.3256
 1077TIP3    H2 3196   3.850   4.707   3.826 -1.7055  0.2995 -1.0126
 1078TIP3   OH2 3197   0.686   4.445   4.317  0.2216  0.2340 -0.1312
 1078TIP3    H1 3198   0.735   4.401   4.248 -0.3600  0.1370 -0.4816
 1078TIP3    H2 3199   0.645   4.520   4.274 -0.6150 -0.1536 -0.0192
 1079TIP3   OH2 3200   0.469   3.164   0.932  0.0196 -0.1817  0.4135
 1079TIP3    H1 3201   0.520   3.110   0.993  1.7131 -1.3047 -1.8424
 1079TIP3    H2 3202   0.517   3.246   0.927  0.3554 -0.4045 -0.0353
 1080TIP3   OH2 3203   0.180   1.069   5.519  0.4536  0.4732 -0.0036
 1080TIP3    H1 3204   0.169   1.100   5.609  0.2567  2.2876 -0.6100
 1080TIP3    H2 3205   0.168   0.974   5.525 -2.1952  0.8097  1.4767
 1081TIP3   OH2 3206   6.184   6.037   0.284  0.2273 -0.3469 -0.1311
 1081TIP3    H1 3207   6.275   6.059   0.303  0.2263 -0.0455 -0.4696
 1081TIP3    H2 3208   6.184   5.941   0.278  0.8721 -0.2880 -1.7921
 1082TIP3   OH2 3209   2.146   1.912   1.833  0.4577 -0.0919 -0.3061
 1082TIP3    H1 3210   2.150   1.838   1.773  0.2394  0.4928 -1.0571
 1082TIP3    H2 3211   2.095   1.880   1.907 -0.3974 -0.4300 -1.0247
 1083TIP3   OH2 3212   2.309   6.578   4.267  0.2153  0.2470  0.0444
 1083TIP3    H1 3213   2.308   6.663   4.223 -0.6755  0.3675  0.2667
 1083TIP3    H2 3214   2.282   6.597   4.357  0.1589 -0.2463  0.1350
 1084TIP3   OH2 3215   0.102   4.429   2.164  0.6411  0.4314  0.0082
 1084TIP3    H1 3216   0.098   4.438   2.069 -1.4513 -1.6656 -0.2065
 1084TIP3    H2 3217   0.134   4.340   2.179  0.2149  0.4568  1.2092
 1085TIP3   OH2 3218   7.121   6.491   3.366  0.1490 -0.0099 -0.5862
 1085TIP3    H1 3219   7.033   6.528   3.374 -0.1615 -0.7068 -0.7397
 1085TIP3    H2 3220   7.180   6.564   3.385 -0.4732 -0.1168  2.0982
 1086TIP3   OH2 3221   6.751   1.298   1.904  0.0790  0.3221 -0.4099
 1086TIP3    H1 3222   6.719   1.255   1.825  1.8369 -1.3933 -0.2661
 1086TIP3    H2 3223   6.835   1.255   1.922  1.4394  3.1022  0.3974
 1087TIP3   OH2 3224   0.452   4.340   3.315 -1.0103 -0.0430  0.4125
 1087TIP3    H1 3225   0.493   4.257   3.337  0.6721  0.8144  0.6250
 1087TIP3    H2 3226   0.415   4.371   3.398 -0.0010  0.2895  0.7500
 1088TIP3   OH2 3227   2.336   0.062   0.217  0.2111  0.6315 -0.4873
 1088TIP3    H1 3228   2.388   0.073   0.297 -3.0108 -0.6337  1.9708
 1088TIP3    H2 3229   2.388   0.003   0.163  1.1488 -1.0558  2.0845
 1089TIP3   OH2 3230   7.073   6.597   4.039  0.3942 -0.3087  0.5909
 1089TIP3    H1 3231   7.020   6.619   4.116 -1.0002  0.0410 -0.4232
 1089TIP3    H2 3232   7.135   6.532   4.071 -2.3325 -2.7743  1.3514
 1090TIP3   OH2 3233   5.112   5.009   5.231 -0.1320  0.0582 -0.1569
 1090TIP3    H1 3234   5.119   4.916   5.208 -2.0484 -0.0953 -0.3137
 1090TIP3    H2 3235   5.201   5.036   5.250  0.6269 -1.5344 -1.2042
 1091TIP3   OH2 3236   2.975   6.252   1.260 -0.1130 -0.0881 -0.7651
 1091TIP3    H1 3237   2.993   6.287   1.173  0.4750 -1.5382 -1.2584
 1091TIP3    H2 3238   3.049   6.282   1.313 -0.7278  1.2259 -0.6111
 1092TIP3   OH2 3239   5.485   4.722   2.972  0.1666  0.6351  0.0378
 1092TIP3    H1 3240   5.508   4.690   3.060 -0.1500 -0.2910 -0.2099
 1092TIP3    H2 3241   5.555   4.689   2.916 -0.6422 -0.4024 -0.3706
 1093TIP3   OH2 3242   3.629   0.688   2.141  0.2032  0.1711 -0.1971
 1093TIP3    H1 3243   3.626   0.664   2.234 -1.4306 -1.7258 -0.6760
 1093TIP3    H2 3244   3.719   0.718   2.127  0.8684 -0.7694  1.6926
 1094TIP3   OH2 3245   0.844   6.189   2.635  0.2567  0.0627  0.3563
 1094TIP3    H1 3246   0.756   6.151   2.639  0.9187 -1.5088  0.8134
 1094TIP3    H2 3247   0.882   6.150   2.556  0.5726  0.6981  0.1906
 1095TIP3   OH2 3248   4.083   4.499   5.494  0.0613  0.3060 -0.2132
 1095TIP3    H1 3249   4.128   4.557   5.556  0.0257 -0.9795  1.0587
 1095TIP3    H2 3250   4.123   4.518   5.410  1.1492  1.0489  0.4523
 1096TIP3   OH2 3251   3.283   2.488   1.465  0.1642 -0.0400 -0.1671
 1096TIP3    H1 3252   3.361   2.460   1.513  0.7193  0.1135 -0.9642
 1096TIP3    H2 3253   3.232   2.538   1.529  1.5193  1.2824 -0.0707
 1097TIP3   OH2 3254   3.144   2.643   4.870 -0.2712 -0.1499  0.1933
 1097TIP3    H1 3255   3.115   2.637   4.961 -1.5354  0.0673 -0.1747
 1097TIP3    H2 3256   3.228   2.689   4.875 -1.3360  1.8380  1.1000
 1098TIP3   OH2 3257   3.646   0.452   1.269 -0.0995  0.0666 -0.0787
 1098TIP3    H1 3258   3.714   0.519   1.277  0.4335 -0.3514 -0.9182
 1098TIP3    H2 3259   3.684   0.387   1.209 -1.0820 -0.3769 -0.2333
 1099TIP3   OH2 3260   5.544   4.354   5.536  0.2749  0.3628  0.0273
 1099TIP3    H1 3261   5.502   4.433   5.571 -4.4282 -0.0144 -3.7340
 1099TIP3    H2 3262   5.594   4.385   5.461  0.2709 -0.0024 -0.1269
 1100TIP3   OH2 3263   3.117   6.285   0.802 -0.3452 -0.4296 -0.3924
 1100TIP3    H1 3264   3.174   6.340   0.748  1.7739 -1.1793  0.9988
 1100TIP3    H2 3265   3.078   6.224   0.739  0.2729  0.1675 -1.3949
 1101TIP3   OH2 3266   2.748   2.637   4.739  0.3350  0.2666  0.0157
 1101TIP3    H1 3267   2.713   2.566   4.793  1.5238  0.3142  0.8872
 1101TIP3    H2 3268   2.697   2.714   4.764 -0.6882 -0.1721 -0.6423
 1102TIP3   OH2 3269   0.235   5.672   5.298  0.3115 -0.4269  0.3555
 1102TIP3    H1 3270   0.182   5.672   5.218 -0.1277  2.1692  0.5824
 1102TIP3    H2 3271   0.171   5.667   5.369  0.3774  1.3876  0.5942
 1103TIP3   OH2 3272   4.688   0.214   4.886  0.0338 -0.1540  0.1136
 1103TIP3    H1 3273   4.710   0.206   4.793 -1.8924  1.9198 -0.6420
 1103TIP3    H2 3274   4.744   0.285   4.918  1.5285 -1.6196  0.9263
 1104TIP3   OH2 3275   6.321   0.202   1.381 -0.1278  0.5711  0.2058
 1104TIP3    H1 3276   6.230   0.215   1.409 -0.0801  0.2910  0.5031
 1104TIP3    H2 3277   6.335   0.268   1.313 -0.5417  0.6415  0.1841
 1105TIP3   OH2 3278   7.013   1.288   4.980 -0.0556  0.2266  0.1815
 1105TIP3    H1 3279   6.949   1.238   5.031 -0.3151  0.1877 -0.1775
 1105TIP3    H2 3280   6.983   1.378   4.985  0.5649  0.4000  1.0587
 1106TIP3   OH2 3281   5.466   1.511   3.483 -0.0163 -0.1602 -0.0110
 1106TIP3    H1 3282   5.485   1.421   3.508 -0.0883 -0.5539 -1.3034
 1106TIP3    H2 3283   5.391   1.535   3.537 -0.2429 -1.0125  0.0697
 1107TIP3   OH2 3284   4.611   3.916   2.268  0.3856  0.0831 -0.0479
 1107TIP3    H1 3285   4.517   3.903   2.259 -0.0255  0.9054  2.2836
 1107TIP3    H2 3286   4.620   4.003   2.306  2.0002 -0.4728  0.9539
 1108TIP3   OH2 3287   4.653   2.132   4.142  0.5525 -0.5169  0.6850
 1108TIP3    H1 3288   4.629   2.224   4.129 -0.6769 -0.6166  1.9556
 1108TIP3    H2 3289   4.702   2.108   4.064 -0.5069  0.7664 -0.4283
 1109TIP3   OH2 3290   7.162   5.357   4.814  0.5897 -0.3557 -0.0899
 1109TIP3    H1 3291   7.076   5.394   4.796  0.7446 -0.3494 -0.8735
 1109TIP3    H2 3292   7.197   5.410   4.885 -1.1302 -2.0616  2.1770
 1110TIP3   OH2 3293   4.880   1.812   3.844 -0.4768 -0.0829 -0.6480
 1110TIP3    H1 3294   4.799   1.761   3.843 -0.0807 -0.7296 -1.5177
 1110TIP3    H2 3295   4.916   1.800   3.756  2.4866 -2.9545  0.7482
 1111TIP3   OH2 3296   1.837   3.351   2.463 -0.7493 -0.4556 -0.0772
 1111TIP3    H1 3297   1.746   3.380   2.461  0.0308  2.2447  0.2477
 1111TIP3    H2 3298   1.862   3.354   2.555 -0.0362 -0.1850 -0.2761
 1112TIP3   OH2 3299   0.325   6.504   5.093 -0.4720 -0.3230 -0.1056
 1112TIP3    H1 3300   0.354   6.480   5.005 -0.3757  0.9167 -0.4344
 1112TIP3    H2 3301   0.282   6.426   5.126  1.2384 -1.4978 -0.4839
 1113TIP3   OH2 3302   5.806   5.663   0.249  0.7200 -0.4423 -0.3849
 1113TIP3    H1 3303   5.765   5.578   0.232 -1.0871 -0.2791  2.4595
 1113TIP3    H2 3304   5.895   5.642   0.277  0.8070 -1.2491 -1.2184
 1114TIP3   OH2 3305   4.026   6.187   1.207  0.0988  0.2872  0.1594
 1114TIP3    H1 3306   3.943   6.143   1.222 -0.5816  1.6719  0.5936
 1114TIP3    H2 3307   4.014   6.275   1.242  1.6184  0.6460 -0.1235
 1115TIP3   OH2 3308   5.597   2.938   5.133  0.0637 -0.0095 -0.6922
 1115TIP3    H1 3309   5.628   2.993   5.204  0.6875  0.1467 -1.0740
 1115TIP3    H2 3310   5.508   2.967   5.116  0.7189  1.6257 -1.5896
 1116TIP3   OH2 3311   2.068   3.067   5.809 -0.2408 -0.2604  0.1903
 1116TIP3    H1 3312   2.053   2.974   5.821  1.6705 -0.9312 -1.8852
 1116TIP3    H2 3313   2.147   3.086   5.858  1.0083 -0.4417 -1.6563
 1117TIP3   OH2 3314   2.970   3.726   5.689 -0.0757 -0.4855  0.0582
 1117TIP3    H1 3315   2.939   3.816   5.675 -0.2209 -0.6644 -0.7711
 1117TIP3    H2 3316   2.940   3.678   5.613 -0.6908 -1.4272  0.8759
 1118TIP3   OH2 3317   4.809   2.450   0.532 -0.2832 -0.3734 -0.0473
 1118TIP3    H1 3318   4.737   2.482   0.587  0.2368  0.6056  0.1006
 1118TIP3    H2 3319   4.766   2.405   0.460 -0.9948 -1.5095  1.0386
 1119TIP3   OH2 3320   2.299   3.258   5.461 -0.5547 -0.1420  0.5558
 1119TIP3    H1 3321   2.303   3.269   5.366  1.4218  2.1678  0.8073
 1119TIP3    H2 3322   2.206   3.249   5.481 -1.3086  2.3805 -1.3541
 1120TIP3   OH2 3323   0.381   2.267   1.238 -0.0152  0.2389  0.2382
 1120TIP3    H1 3324   0.294   2.229   1.227  0.0210  0.0928  0.4755
 1120TIP3    H2 3325   0.365   2.361   1.244 -0.1408  0.2269  0.1066
 1121TIP3   OH2 3326   5.152   3.472   0.726 -0.6063  0.2153 -0.0220
 1121TIP3    H1 3327   5.193   3.519   0.798 -0.1530 -0.6648  0.3034
 1121TIP3    H2 3328   5.067   3.515   0.715 -0.2361  1.0555  0.3086
 1122TIP3   OH2 3329   4.399   0.018   3.952 -0.2228 -0.4552  0.2189
 1122TIP3    H1 3330   4.404  -0.021   3.865  2.9652 -1.6687  0.7868
 1122TIP3    H2 3331   4.387   0.111   3.936 -0.6036 -0.7631 -1.4882
 1123TIP3   OH2 3332   3.910   3.054   2.086 -0.2067 -0.0029  0.0252
 1123TIP3    H1 3333   3.988   3.090   2.044  0.4728 -1.1664  0.2222
 1123TIP3    H2 3334   3.848   3.039   2.015 -0.3599  1.1622 -0.1029
 1124TIP3   OH2 3335   5.827   0.698   1.275 -0.1755 -0.0301 -0.8299
 1124TIP3    H1 3336   5.820   0.676   1.182 -1.4527  0.6268 -0.9107
 1124TIP3    H2 3337   5.738   0.720   1.301  0.0144 -1.0981  0.8026
 1125TIP3   OH2 3338   3.298   2.095   1.416  0.5741 -0.4738  0.0513
 1125TIP3    H1 3339   3.342   2.179   1.407 -0.1309 -0.0842  0.1811
 1125TIP3    H2 3340   3.330   2.043   1.342 -0.4740  0.5933 -1.2190
 1126TIP3   OH2 3341   2.702   4.994   0.061 -0.0904  0.2560 -0.2957
 1126TIP3    H1 3342   2.768   5.063   0.066 -0.9535  1.4412 -3.2816
 1126TIP3    H2 3343   2.621   5.035   0.090 -0.0692 -0.4287  0.7960
 1127TIP3   OH2 3344   4.208   3.728   3.627  0.2080  0.1247  0.3560
 1127TIP3    H1 3345   4.205   3.815   3.668 -0.2427 -0.4174  1.4959
 1127TIP3    H2 3346   4.176   3.744   3.538 -1.0625  0.9365  0.9243
 1128TIP3   OH2 3347   2.851   5.219   0.091 -0.4947 -0.1776 -0.5242
 1128TIP3    H1 3348   2.814   5.304   0.117  0.4955  0.1198 -0.0577
 1128TIP3    H2 3349   2.894   5.237   0.007 -1.1808 -0.4677 -0.9444
 1129TIP3   OH2 3350   7.170   1.996   3.909  0.2109  0.0187 -0.1991
 1129TIP3    H1 3351   7.120   1.951   3.841  1.4948  0.3240 -1.4056
 1129TIP3    H2 3352   7.150   2.089   3.896  1.3235  0.1716 -0.9189
 1130TIP3   OH2 3353   7.084   1.192   3.900 -0.5055 -0.1097  0.0464
 1130TIP3    H1 3354   7.047   1.195   3.812 -0.9647 -0.6233  0.2171
 1130TIP3    H2 3355   7.145   1.265   3.903  1.4609 -1.5797 -1.5628
 1131TIP3   OH2 3356   3.194   3.625   5.826 -0.0067 -0.5139  0.6548
 1131TIP3    H1 3357   3.128   3.679   5.784 -0.1538 -0.2276  1.2446
 1131TIP3    H2 3358   3.183   3.538   5.786  0.7104  0.0398 -0.8144
 1132TIP3   OH2 3359   1.884   6.542   1.292 -0.0290  0.6800  0.2282
 1132TIP3    H1 3360   1.805   6.491   1.305 -0.0445 -0.0633 -2.1988
 1132TIP3    H2 3361   1.955   6.485   1.322 -0.3676  1.9401  3.9023
 1133TIP3   OH2 3362   2.664   0.873   5.876 -0.0557 -0.4580  0.1106
 1133TIP3    H1 3363   2.649   0.887   5.783 -0.0780 -1.2141 -0.0012
 1133TIP3    H2 3364   2.576   0.856   5.912 -0.2447  1.1293  0.5166
 1134TIP3   OH2 3365   0.145   2.342   1.661 -0.0479 -1.0702  0.3335
 1134TIP3    H1 3366   0.172   2.253   1.680 -2.8934 -1.8125  1.3539
 1134TIP3    H2 3367   0.055   2.334   1.628 -0.8881  1.4499  1.7188
 1135TIP3   OH2 3368   3.488   1.972   2.710 -0.2382  0.1093 -0.1351
 1135TIP3    H1 3369   3.558   1.999   2.652 -0.2604  0.3491 -0.0512
 1135TIP3    H2 3370   3.500   2.024   2.789  0.9653 -1.5895  0.8670
 1136TIP3   OH2 3371   6.007   2.060   3.887 -0.1415 -0.0503 -0.0248
 1136TIP3    H1 3372   6.092   2.090   3.854  0.1306 -0.7799 -0.0081
 1136TIP3    H2 3373   5.997   1.972   3.851 -2.4616  1.2119 -2.8441
 1137TIP3   OH2 3374   6.865   3.375   4.614  0.0498  0.9042  0.8185
 1137TIP3    H1 3375   6.782   3.374   4.661 -0.1761  1.7372  0.4544
 1137TIP3    H2 3376   6.842   3.395   4.524  0.4808 -0.7041  0.3178
 1138TIP3   OH2 3377   5.025   4.597   1.333  0.2740 -0.4992 -0.0463
 1138TIP3    H1 3378   4.985   4.661   1.275  0.3469 -0.0974  0.3399
 1138TIP3    H2 3379   5.116   4.624   1.340 -0.3414  1.3251  2.6623
 1139TIP3   OH2 3380   2.149   3.918   2.664 -0.7049 -0.1948  0.2299
 1139TIP3    H1 3381   2.112   3.936   2.578  0.5845  0.7484 -0.1677
 1139TIP3    H2 3382   2.243   3.917   2.650 -0.4852 -0.3647  1.5686
 1140TIP3   OH2 3383   6.661   6.418   2.743  0.1392  0.5179 -0.5071
 1140TIP3    H1 3384   6.752   6.446   2.757  0.3913  0.1715 -1.3827
 1140TIP3    H2 3385   6.645   6.436   2.651 -0.5845  0.2733 -0.4333
 1141TIP3   OH2 3386   5.275   4.407   5.163  0.4774 -0.0343  0.0138
 1141TIP3    H1 3387   5.215   4.422   5.090  0.6485 -1.0322 -0.3527
 1141TIP3    H2 3388   5.232   4.339   5.215  0.2441  0.8446  0.9831
 1142TIP3   OH2 3389   1.940   1.549   1.891 -0.4329  0.2329  0.3493
 1142TIP3    H1 3390   1.931   1.615   1.823  1.0379 -0.4236 -0.5414
 1142TIP3    H2 3391   2.006   1.586   1.951  2.0419 -1.1985 -1.2867
 1143TIP3   OH2 3392   6.754   5.485   2.313  0.0863 -0.3781  0.2699
 1143TIP3    H1 3393   6.805   5.440   2.380 -0.0415  1.0989  1.4049
 1143TIP3    H2 3394   6.767   5.432   2.234  2.4960 -0.6630  0.7661
 1144TIP3   OH2 3395   5.180   4.828   4.433  0.5569  0.0724  0.5258
 1144TIP3    H1 3396   5.119   4.873   4.375  0.4007 -1.1302 -0.2830
 1144TIP3    H2 3397   5.178   4.878   4.514 -1.6026 -0.0015  0.5743
 1145TIP3   OH2 3398   4.850   3.403   3.401 -0.2860  0.0918  0.0228
 1145TIP3    H1 3399   4.887   3.491   3.394 -0.0845 -0.0689 -0.9617
 1145TIP3    H2 3400   4.844   3.371   3.311 -0.6206 -0.7979  0.3461
 1146TIP3   OH2 3401   4.032   4.549   5.808  0.1317 -0.2572  0.5636
 1146TIP3    H1 3402   3.941   4.551   5.778  0.2453  0.7477  0.2493
 1146TIP3    H2 3403   4.083   4.573   5.731  0.5878  0.1863  0.9966
 1147TIP3   OH2 3404   1.160   2.183   3.791  0.0770  0.7313 -0.1603
 1147TIP3    H1 3405   1.086   2.215   3.739  0.5950  0.4644 -1.0734
 1147TIP3    H2 3406   1.210   2.129   3.731  0.0665 -0.5456  0.9360
 1148TIP3   OH2 3407   4.783   0.160   4.630  0.4479 -0.0969  0.0083
 1148TIP3    H1 3408   4.813   0.237   4.581 -1.3992  0.6603 -0.0013
 1148TIP3    H2 3409   4.789   0.088   4.566  2.9317 -0.2028  0.2449
 1149TIP3   OH2 3410   2.707   5.074   0.521  0.1989 -0.3508  0.0907
 1149TIP3    H1 3411   2.673   5.114   0.601  1.5879 -0.8615  0.9742
 1149TIP3    H2 3412   2.706   5.145   0.457 -0.3871  0.2284  0.7187
 1150TIP3   OH2 3413   6.393   1.530   1.690 -0.0562 -0.5602  0.0044
 1150TIP3    H1 3414   6.313   1.489   1.723 -0.0836 -1.0472 -0.6530
 1150TIP3    H2 3415   6.444   1.548   1.769 -1.5197  1.3232  0.5956
 1151TIP3   OH2 3416   4.414   5.910   0.629 -0.4555  0.2963 -0.5797
 1151TIP3    H1 3417   4.381   5.848   0.564  0.5354 -1.2990  0.3743
 1151TIP3    H2 3418   4.395   5.869   0.713  1.2534  0.7232  0.0555
 1152TIP3   OH2 3419   6.823   3.429   0.292 -0.6061  0.4449 -0.5207
 1152TIP3    H1 3420   6.752   3.437   0.355  1.2528  0.4953  1.6848
 1152TIP3    H2 3421   6.862   3.343   0.311  1.3067  1.3638 -0.0886
 1153TIP3   OH2 3422   1.226   4.994   0.441 -0.0439 -0.0608 -0.1637
 1153TIP3    H1 3423   1.266   4.925   0.493 -1.3171  0.6216  1.8257
 1153TIP3    H2 3424   1.229   4.961   0.351  3.0221 -0.9015  0.1520
 1154TIP3   OH2 3425   2.114   3.037   0.818  0.1564  0.5675  0.5542
 1154TIP3    H1 3426   2.040   3.095   0.831 -1.9680 -1.9239  0.5015
 1154TIP3    H2 3427   2.148   3.061   0.732 -0.0331  2.3162  0.9393
 1155TIP3   OH2 3428   6.399   3.686   0.096 -0.0889 -0.5068 -0.1785
 1155TIP3    H1 3429   6.329   3.743   0.064 -2.1405 -1.5219  2.1457
 1155TIP3    H2 3430   6.374   3.599   0.067 -0.5030 -1.0464  1.6962
 1156TIP3   OH2 3431   0.501   1.714   3.908 -0.0858 -0.0789 -0.0522
 1156TIP3    H1 3432   0.482   1.729   3.815 -1.8748  0.2353  0.3123
 1156TIP3    H2 3433   0.431   1.762   3.954  1.2877  0.5296  1.4850
 1157TIP3   OH2 3434   1.983   4.141   2.794 -0.2684  0.1217  0.2798
 1157TIP3    H1 3435   2.047   4.085   2.751  0.8946  1.8795 -0.3706
 1157TIP3    H2 3436   2.019   4.157   2.881 -1.1995 -1.0649  0.9223
 1158TIP3   OH2 3437   4.104   3.834   0.681 -0.0381 -0.3155  0.2058
 1158TIP3    H1 3438   4.015   3.802   0.666 -0.4300  0.8672 -0.1454
 1158TIP3    H2 3439   4.141   3.773   0.745 -0.9754 -1.0278  0.0951
 1159TIP3   OH2 3440   4.049   3.890   0.987 -0.4219 -0.7558 -0.0914
 1159TIP3    H1 3441   4.106   3.817   0.960 -0.0733  0.3214 -2.5674
 1159TIP3    H2 3442   3.965   3.871   0.946 -0.1768  0.4535 -1.2059
 1160TIP3   OH2 3443   0.401   5.362   4.938 -0.1245  0.3466  0.4177
 1160TIP3    H1 3444   0.417   5.367   5.032 -0.1488 -0.0812  0.4478
 1160TIP3    H2 3445   0.313   5.398   4.926  1.1457  3.7571  0.1242
 1161TIP3   OH2 3446   6.469   6.162   3.792  0.1139 -0.1446  0.0098
 1161TIP3    H1 3447   6.486   6.190   3.882 -0.3604 -0.1057  0.0914
 1161TIP3    H2 3448   6.423   6.235   3.752 -2.2747 -1.2088  0.5941
 1162TIP3   OH2 3449   1.648   1.175   0.951  0.0588  0.3275  0.3454
 1162TIP3    H1 3450   1.571   1.133   0.987  1.9905 -1.8057  2.2935
 1162TIP3    H2 3451   1.666   1.127   0.870  0.7691 -1.0129  1.2475
 1163TIP3   OH2 3452   3.753   1.161   2.908  0.1733 -0.0678  0.0872
 1163TIP3    H1 3453   3.702   1.195   2.835 -1.0238 -0.3403  0.7670
 1163TIP3    H2 3454   3.699   1.090   2.944  0.9968 -0.3147  0.8859
 1164TIP3   OH2 3455   5.305   6.708   0.204 -0.0730  0.3022  0.4195
 1164TIP3    H1 3456   5.248   6.633   0.220 -0.7129  0.8040  0.5683
 1164TIP3    H2 3457   5.332   6.699   0.113 -1.0685  0.4898  0.0899
 1165TIP3   OH2 3458   2.552   0.358   1.489  0.1573  0.1047  0.0199
 1165TIP3    H1 3459   2.463   0.370   1.521 -0.3512 -0.7726 -1.0178
 1165TIP3    H2 3460   2.602   0.332   1.566 -0.1364  2.0277  0.9286
 1166TIP3   OH2 3461   2.308   3.683   0.480 -0.3591  0.4256 -0.5527
 1166TIP3    H1 3462   2.287   3.590   0.470  1.0734 -0.0932  0.8043
 1166TIP3    H2 3463   2.259   3.727   0.411 -0.8931 -1.3687 -1.3610
 1167TIP3   OH2 3464   1.283   4.478   0.715 -0.6049 -0.2110 -0.3947
 1167TIP3    H1 3465   1.319   4.465   0.627 -2.3058 -0.9161 -1.0416
 1167TIP3    H2 3466   1.275   4.390   0.751  1.9037  0.1756  1.3099
 1168TIP3   OH2 3467   1.898   2.579   2.149 -0.2707 -0.5625  0.2368
 1168TIP3    H1 3468   1.984   2.598   2.186 -0.4079 -1.5691  1.1081
 1168TIP3    H2 3469   1.911   2.584   2.054 -0.1460  3.1654  0.2788
 1169TIP3   OH2 3470   2.672   3.239   2.963  0.0802  0.3150  1.0430
 1169TIP3    H1 3471   2.725   3.251   3.041 -1.0242  0.4192  1.7971
 1169TIP3    H2 3472   2.585   3.216   2.996 -0.6868  1.4264 -0.1092
 1170TIP3   OH2 3473   4.381   1.186   3.946  0.3667 -0.2348  0.0802
 1170TIP3    H1 3474   4.323   1.136   3.888  0.2941  0.4897 -0.4853
 1170TIP3    H2 3475   4.456   1.208   3.891  1.0051 -0.8122  0.6914
 1171TIP3   OH2 3476   2.625   5.071   3.570 -0.0988  0.1805 -0.4090
 1171TIP3    H1 3477   2.613   4.990   3.520 -0.4870  1.2753 -2.1670
 1171TIP3    H2 3478   2.699   5.115   3.528  0.1252  0.7237  0.5372
 1172TIP3   OH2 3479   2.853   1.459   5.025 -0.7454  0.3539  0.3113
 1172TIP3    H1 3480   2.946   1.444   5.046 -1.0124  1.5896  2.8362
 1172TIP3    H2 3481   2.806   1.401   5.085 -1.6672 -0.8201 -1.4671
 1173TIP3   OH2 3482   0.979   5.633   1.608 -0.5623  0.1407  0.0811
 1173TIP3    H1 3483   1.069   5.661   1.591 -1.1580  1.6287 -0.7970
 1173TIP3    H2 3484   0.985   5.539   1.621  1.3016  0.3733  1.3305
 1174TIP3   OH2 3485   6.786   2.103   4.538 -0.3287 -0.4047  0.0807
 1174TIP3    H1 3486   6.691   2.115   4.541 -0.1780  0.9233  2.5024
 1174TIP3    H2 3487   6.814   2.158   4.465 -1.4113 -0.7490 -0.6202
 1175TIP3   OH2 3488   4.340   4.941   1.117  0.2839 -0.1949  0.2056
 1175TIP3    H1 3489   4.394   4.864   1.099 -2.5647 -1.8348 -2.0609
 1175TIP3    H2 3490   4.343   4.992   1.036  0.6997  1.2440  1.0735
 1176TIP3   OH2 3491   3.884   6.560   0.041 -0.1517  0.2475 -0.1377
 1176TIP3    H1 3492   3.905   6.558  -0.052 -0.2351  1.0248 -0.1772
 1176TIP3    H2 3493   3.865   6.652   0.060  3.1042  0.7619  1.3754
 1177TIP3   OH2 3494   3.206   1.398   3.319  0.3103  0.3509  0.1419
 1177TIP3    H1 3495   3.133   1.399   3.382 -0.1917  1.8121 -0.4292
 1177TIP3    H2 3496   3.275   1.350   3.365 -1.3467 -2.1345  0.2518
 1178TIP3   OH2 3497   0.769   5.989   4.749 -0.5746 -0.0291  0.8168
 1178TIP3    H1 3498   0.776   6.072   4.700 -0.0832 -1.9115 -2.6691
 1178TIP3    H2 3499   0.848   5.986   4.803 -0.1510  1.3767  0.3209
 1179TIP3   OH2 3500   4.493   3.076   5.841 -0.1135 -0.3494 -0.1417
 1179TIP3    H1 3501   4.533   3.113   5.920 -0.0334 -1.4873  0.3633
 1179TIP3    H2 3502   4.399   3.081   5.857 -0.1992  1.5788 -0.9886
 1180TIP3   OH2 3503   1.205   5.092   5.046  0.4384 -0.4035 -0.3248
 1180TIP3    H1 3504   1.261   5.033   5.097 -0.2571 -0.5755  0.2572
 1180TIP3    H2 3505   1.131   5.037   5.019 -0.5932  0.3521  0.8526
 1181TIP3   OH2 3506   4.880   6.219   0.624  0.0093 -0.4129 -0.2745
 1181TIP3    H1 3507   4.931   6.141   0.601  0.4336 -0.2758  0.1945
 1181TIP3    H2 3508   4.835   6.195   0.705  1.1991  0.2894  0.6224
 1182TIP3   OH2 3509   6.655   5.024   0.456 -0.0227 -0.4401 -0.0817
 1182TIP3    H1 3510   6.583   4.972   0.422 -1.3859  1.3905 -0.0981
 1182TIP3    H2 3511   6.695   4.968   0.523 -0.1741 -2.2621 -1.4414
 1183TIP3   OH2 3512   3.963   3.816   1.870  0.3183 -0.1907 -0.0506
 1183TIP3    H1 3513   3.880   3.769   1.877  0.5707 -0.4485  1.3251
 1183TIP3    H2 3514   4.030   3.748   1.865  0.5350  0.0229 -0.1226
 1184TIP3   OH2 3515   0.692   2.317   0.004 -0.4414  0.4403 -0.3552
 1184TIP3    H1 3516   0.656   2.389   0.055  0.2322  0.1871  0.4997
 1184TIP3    H2 3517   0.666   2.238   0.053  2.2407  0.2915  0.9874
 1185TIP3   OH2 3518   5.495   0.178   3.641 -0.0810  0.4052  0.2720
 1185TIP3    H1 3519   5.442   0.173   3.561  0.4811  1.9952 -0.2369
 1185TIP3    H2 3520   5.584   0.164   3.611  0.0446  0.1002  0.7756
 1186TIP3   OH2 3521   3.575   3.852   1.183  0.2814  0.4928  0.8206
 1186TIP3    H1 3522   3.485   3.820   1.195 -0.7734  1.9797 -2.1228
 1186TIP3    H2 3523   3.627   3.773   1.169 -1.1373 -0.2979 -0.3132
 1187TIP3   OH2 3524   0.127   2.343   2.507 -0.2427 -0.0391 -0.1868
 1187TIP3    H1 3525   0.155   2.253   2.522  2.5180  0.8827  0.7230
 1187TIP3    H2 3526   0.043   2.349   2.553 -1.2504 -2.4863 -1.5201
 1188TIP3   OH2 3527   0.443   0.263   3.913 -0.1278 -1.0569 -0.3469
 1188TIP3    H1 3528   0.450   0.222   3.827 -1.4521 -0.4882 -0.7568
 1188TIP3    H2 3529   0.377   0.211   3.959 -0.5574 -0.4430 -0.2506
 1189TIP3   OH2 3530   5.627   2.065   3.561 -0.1319 -0.3447  0.4750
 1189TIP3    H1 3531   5.719   2.090   3.568  0.4713 -1.8584 -1.4225
 1189TIP3    H2 3532   5.585   2.140   3.518  0.7240 -0.5999 -0.8583
 1190TIP3   OH2 3533   2.257   5.837   4.191  0.0785  0.0417  0.2390
 1190TIP3    H1 3534   2.204   5.826   4.112 -0.5264 -0.3855  0.6942
 1190TIP3    H2 3535   2.326   5.897   4.165 -1.3160  1.6073 -0.0410
 1191TIP3   OH2 3536   4.652   4.570   3.316  0.0600 -0.0210 -0.4204
 1191TIP3    H1 3537   4.586   4.561   3.247 -0.7642  2.2487 -0.0401
 1191TIP3    H2 3538   4.678   4.662   3.311 -1.7336  0.9477  3.7028
 1192TIP3   OH2 3539   1.513   4.260   2.132 -0.5651  0.0240  0.4226
 1192TIP3    H1 3540   1.424   4.262   2.097 -0.3792 -2.5433 -0.4209
 1192TIP3    H2 3541   1.562   4.318   2.074 -1.1208 -0.8841 -1.0105
 1193TIP3   OH2 3542   6.502   4.317   1.419  0.1017 -0.3074 -0.5668
 1193TIP3    H1 3543   6.558   4.350   1.348  3.6905 -3.4437  0.4391
 1193TIP3    H2 3544   6.551   4.336   1.499 -0.3353 -2.8465  0.4241
 1194TIP3   OH2 3545   2.524   2.018   2.798 -0.1782  0.4197 -0.2828
 1194TIP3    H1 3546   2.463   2.042   2.867 -1.0657  0.4811 -1.0793
 1194TIP3    H2 3547   2.485   2.053   2.718 -0.0496 -1.1694 -1.0700
 1195TIP3   OH2 3548   2.558   4.985   4.947 -0.0024  0.3337 -0.5278
 1195TIP3    H1 3549   2.654   4.980   4.942 -0.0150  0.0874 -0.5498
 1195TIP3    H2 3550   2.527   4.918   4.886 -0.1861  0.2006 -0.2892
 1196TIP3   OH2 3551   3.707   5.120   0.175  0.0060 -0.3730 -0.1822
 1196TIP3    H1 3552   3.648   5.088   0.106 -1.0062  0.0826  0.4373
 1196TIP3    H2 3553   3.648   5.151   0.244  0.9804  0.3045  0.3752
 1197TIP3   OH2 3554   6.399   0.334   0.305 -0.6232  0.8888  0.2182
 1197TIP3    H1 3555   6.468   0.343   0.239  0.2578 -3.2435  0.3002
 1197TIP3    H2 3556   6.432   0.383   0.380  0.5801  1.8096 -0.8538
 1198TIP3   OH2 3557   5.033   1.597   5.688 -0.1645 -0.7097  0.3677
 1198TIP3    H1 3558   5.116   1.644   5.694 -0.4497 -0.0133 -0.8322
 1198TIP3    H2 3559   5.054   1.507   5.709  0.7994 -0.4500  0.5523
 1199TIP3   OH2 3560   2.989   4.269   4.936  0.1975 -0.1706  0.0368
 1199TIP3    H1 3561   3.029   4.246   5.020  1.6859 -1.7219 -1.0379
 1199TIP3    H2 3562   2.895   4.274   4.955  0.5016 -0.4850  1.7881
 1200TIP3   OH2 3563   0.427   1.634   2.455  0.2283 -0.8398 -0.0709
 1200TIP3    H1 3564   0.500   1.576   2.434  1.0144  0.6681 -1.8029
 1200TIP3    H2 3565   0.469   1.716   2.481 -0.8580 -0.8399  1.8461
 1201TIP3   OH2 3566   1.420   2.662   2.579 -0.3118 -0.5642  0.2762
 1201TIP3    H1 3567   1.503   2.710   2.571 -0.6732  0.2047  0.9902
 1201TIP3    H2 3568   1.403   2.629   2.491 -1.0812  2.3669 -0.7942
 1202TIP3   OH2 3569   2.546   0.944   1.957 -0.2044 -0.2891 -0.3146
 1202TIP3    H1 3570   2.492   0.904   1.890  1.6700 -1.5346 -1.1705
 1202TIP3    H2 3571   2.634   0.910   1.940  0.9343  1.8968  0.7705
 1203TIP3   OH2 3572   1.155   5.946   3.801  0.4640  0.2452 -0.0622
 1203TIP3    H1 3573   1.129   5.854   3.798 -0.5420  0.5254 -1.3324
 1203TIP3    H2 3574   1.207   5.958   3.721 -0.4305  1.0227 -0.5574
 1204TIP3   OH2 3575   4.322   1.913   5.439 -0.0673  0.1437 -0.1781
 1204TIP3    H1 3576   4.292   1.959   5.517 -0.0370  0.3682 -0.2974
 1204TIP3    H2 3577   4.406   1.954   5.419  0.0550 -0.1027 -0.1671
 1205TIP3   OH2 3578   3.434   1.835   4.250 -0.4486 -0.0742  0.3095
 1205TIP3    H1 3579   3.431   1.926   4.221  1.0160  1.1027  3.3797
 1205TIP3    H2 3580   3.522   1.806   4.228 -0.6462 -0.4999  0.0719
 1206TIP3   OH2 3581   3.292   0.179   0.506 -0.1551  0.2572 -0.8050
 1206TIP3    H1 3582   3.322   0.148   0.591  0.5806  0.8484 -0.8332
 1206TIP3    H2 3583   3.259   0.268   0.523  0.1701  0.4505 -1.1653
 1207TIP3   OH2 3584   3.167   4.469   3.119 -0.1997  0.0795 -0.4921
 1207TIP3    H1 3585   3.112   4.435   3.189  0.5541 -0.1627 -0.0050
 1207TIP3    H2 3586   3.136   4.558   3.104 -1.0674 -0.2314 -0.5967
 1208TIP3   OH2 3587   0.501   3.190   1.814 -0.3029 -0.5742 -0.4185
 1208TIP3    H1 3588   0.525   3.098   1.803 -0.1845 -0.4574 -1.2228
 1208TIP3    H2 3589   0.457   3.213   1.732  1.3223  0.5889 -1.0336
 1209TIP3   OH2 3590   3.310   0.181   2.769 -0.4629 -0.3304  0.6987
 1209TIP3    H1 3591   3.284   0.089   2.775 -0.2709 -0.3707  0.8833
 1209TIP3    H2 3592   3.315   0.198   2.674 -1.9158 -0.1122  0.6314
 1210TIP3   OH2 3593   0.678   5.788   1.421  0.2944  0.2771 -0.2902
 1210TIP3    H1 3594   0.714   5.709   1.380 -1.6098 -1.6855  1.5236
 1210TIP3    H2 3595   0.753   5.847   1.431  1.8966 -1.4788 -1.2624
 1211TIP3   OH2 3596   0.908   0.803   0.093 -0.3565  0.5878  0.2055
 1211TIP3    H1 3597   0.838   0.753   0.053  0.7633  0.0604 -1.1886
 1211TIP3    H2 3598   0.963   0.738   0.137  0.4403  0.6942 -0.5910
 1212TIP3   OH2 3599   6.118   0.861   2.412 -0.4306 -0.1028 -0.2153
 1212TIP3    H1 3600   6.063   0.937   2.394  0.9918  1.3049  1.0650
 1212TIP3    H2 3601   6.166   0.846   2.331 -1.4655 -0.3437 -0.8134
 1213TIP3   OH2 3602   4.211   6.697   0.226  0.3855  0.1352  0.2358
 1213TIP3    H1 3603   4.173   6.750   0.156 -0.3609 -1.2951 -0.4827
 1213TIP3    H2 3604   4.177   6.736   0.307 -1.4814 -0.2066 -0.3317
 1214TIP3   OH2 3605   2.190   5.098   0.816  0.2002 -0.3596  0.7822
 1214TIP3    H1 3606   2.256   5.166   0.830  0.2476 -0.0449 -0.7123
 1214TIP3    H2 3607   2.235   5.031   0.765 -0.7530  0.1701 -0.8613
 1215TIP3   OH2 3608   4.777   6.662   1.615 -0.7425 -0.0483  0.2923
 1215TIP3    H1 3609   4.802   6.754   1.608 -2.2615  0.4499  1.0835
 1215TIP3    H2 3610   4.685   6.659   1.586 -0.5188 -1.4432 -0.4014
 1216TIP3   OH2 3611   5.296   1.768   3.420 -0.3300 -0.0738 -0.0486
 1216TIP3    H1 3612   5.273   1.709   3.347  0.6242 -0.2556 -0.2129
 1216TIP3    H2 3613   5.247   1.848   3.401 -1.4849 -0.7187  0.0640
 1217TIP3   OH2 3614   3.893   0.767   3.567  0.5120 -0.0055  0.1127
 1217TIP3    H1 3615   3.920   0.690   3.517 -0.8411 -0.8681  0.6468
 1217TIP3    H2 3616   3.807   0.744   3.601 -0.2545  2.0467 -0.3174
 1218TIP3   OH2 3617   4.124   3.645   3.931  0.1856  0.5460  0.1152
 1218TIP3    H1 3618   4.089   3.556   3.926 -2.0497  1.2472  1.5242
 1218TIP3    H2 3619   4.046   3.700   3.936  1.3753  2.8819 -3.2965
 1219TIP3   OH2 3620   4.925   2.078   3.206  0.0370 -0.4640  0.0674
 1219TIP3    H1 3621   4.977   2.133   3.148  0.0021  0.8176  1.2020
 1219TIP3    H2 3622   4.895   2.137   3.275 -1.4533 -1.5484  0.3994
 1220TIP3   OH2 3623   1.632   1.818   5.740 -0.4190  0.3366  0.1672
 1220TIP3    H1 3624   1.568   1.747   5.741 -0.3562  0.2821  0.2717
 1220TIP3    H2 3625   1.579   1.897   5.730 -0.3940  0.1716 -1.5601
 1221TIP3   OH2 3626   2.176   3.043   4.572  0.0986  0.9761  0.3645
 1221TIP3    H1 3627   2.210   2.965   4.528  1.9359  1.5867  0.6160
 1221TIP3    H2 3628   2.205   3.035   4.662 -0.3572  1.5827  0.5721
 1222TIP3   OH2 3629   5.433   4.741   1.741  0.4793  0.0062  0.1286
 1222TIP3    H1 3630   5.433   4.696   1.656  0.2647  0.0119  0.1253
 1222TIP3    H2 3631   5.524   4.771   1.752  0.3320  0.7212 -0.4746
 1223TIP3   OH2 3632   2.816   5.437   5.787 -0.1807 -0.6205 -0.5585
 1223TIP3    H1 3633   2.869   5.426   5.866  0.3735 -0.5361 -0.9063
 1223TIP3    H2 3634   2.881   5.441   5.716 -0.6389 -0.0958 -0.9513
 1224TIP3   OH2 3635   0.299   6.589   5.346 -0.4299 -0.3463  0.3988
 1224TIP3    H1 3636   0.319   6.545   5.263 -0.0308 -0.4411  0.5418
 1224TIP3    H2 3637   0.378   6.578   5.398  0.6593  2.5490 -0.4206
 1225TIP3   OH2 3638   4.305  -0.003   0.055 -0.5832 -0.2237  0.1859
 1225TIP3    H1 3639   4.232   0.058   0.049  1.5545  2.8832  2.6681
 1225TIP3    H2 3640   4.303  -0.052  -0.027 -3.3249  2.1189 -1.3056
 1226TIP3   OH2 3641   0.944   5.334   0.328 -0.3680 -0.3742  0.4585
 1226TIP3    H1 3642   0.930   5.387   0.250  0.3217  0.4355  0.8611
 1226TIP3    H2 3643   1.000   5.262   0.299  3.1067  1.9028  0.8392
 1227TIP3   OH2 3644   5.793   5.631   1.134  0.1338 -0.4401  0.2514
 1227TIP3    H1 3645   5.792   5.550   1.082 -0.2600 -0.3020  0.0305
 1227TIP3    H2 3646   5.743   5.693   1.080  0.2585 -0.1128  0.5146
 1228TIP3   OH2 3647   2.311   1.178   2.977  0.5682  0.2161  0.1283
 1228TIP3    H1 3648   2.371   1.106   2.998  1.2598  1.1116  1.3648
 1228TIP3    H2 3649   2.263   1.194   3.058 -0.2159  0.5680 -0.3909
 1229TIP3   OH2 3650   6.667   3.264   1.415  0.1326  0.6154  0.1240
 1229TIP3    H1 3651   6.659   3.253   1.321  0.6045 -1.3977  0.2808
 1229TIP3    H2 3652   6.757   3.294   1.428 -0.0103  1.1367 -0.0734
 1230TIP3   OH2 3653   1.609   0.371   2.615 -0.1179  0.6134 -0.0526
 1230TIP3    H1 3654   1.546   0.300   2.612  1.3775 -0.7287 -0.9906
 1230TIP3    H2 3655   1.667   0.355   2.541  0.4994  2.6074 -0.0600
 1231TIP3   OH2 3656   7.139   5.828   3.446 -0.2418 -0.0371  0.1937
 1231TIP3    H1 3657   7.044   5.816   3.443 -0.3791  1.0558 -0.8741
 1231TIP3    H2 3658   7.170   5.803   3.359  0.6272 -1.5234  0.8955
 1232TIP3   OH2 3659   7.083   4.165   4.609  0.5619  0.0404  0.1124
 1232TIP3    H1 3660   7.054   4.209   4.529 -2.0432 -1.7668 -0.0802
 1232TIP3    H2 3661   7.156   4.218   4.641 -0.2411  2.5171 -1.8310
 1233TIP3   OH2 3662   4.509   0.533   0.338 -0.8455  0.8299 -0.5738
 1233TIP3    H1 3663   4.442   0.464   0.335 -0.9391  0.9378 -0.9783
 1233TIP3    H2 3664   4.545   0.527   0.427 -0.2643 -0.2965 -0.8709
 1234TIP3   OH2 3665   6.612   2.810   0.905 -0.2213  0.5179 -0.3641
 1234TIP3    H1 3666   6.621   2.900   0.875  0.3521  0.8326  0.7122
 1234TIP3    H2 3667   6.570   2.816   0.991 -0.5462 -0.2687 -0.4524
 1235TIP3   OH2 3668   0.884   1.236   2.395 -0.3901 -0.3773  0.2712
 1235TIP3    H1 3669   0.921   1.274   2.315  1.5738  2.1877  2.1728
 1235TIP3    H2 3670   0.935   1.156   2.409  1.6311  0.8687  0.5631
 1236TIP3   OH2 3671   0.674   6.522   1.710 -0.3755  0.1808  0.4029
 1236TIP3    H1 3672   0.755   6.517   1.761  0.1997 -0.1841 -0.5230
 1236TIP3    H2 3673   0.703   6.517   1.619 -1.5256 -1.2750  0.0809
 1237TIP3   OH2 3674   0.355   0.891   2.502  0.1480  0.1873 -0.2358
 1237TIP3    H1 3675   0.357   0.796   2.510  0.3421  0.1726 -0.4592
 1237TIP3    H2 3676   0.301   0.920   2.576 -0.3036 -0.1253 -0.4421
 1238TIP3   OH2 3677   1.824   4.120   0.425 -0.1004 -0.1917  0.2158
 1238TIP3    H1 3678   1.882   4.195   0.436  0.1252 -0.3988  0.4442
 1238TIP3    H2 3679   1.789   4.129   0.336 -0.3320  0.3626  0.3582
 1239TIP3   OH2 3680   4.523   0.108   5.105  0.2054 -0.9269  0.1197
 1239TIP3    H1 3681   4.604   0.124   5.056 -0.2124 -0.5112 -0.4475
 1239TIP3    H2 3682   4.483   0.194   5.113 -0.3124 -1.1708  0.1642
 1240TIP3   OH2 3683   4.861   3.927   0.774 -0.0019 -0.0520 -0.2533
 1240TIP3    H1 3684   4.779   3.904   0.729  1.1998 -1.6527 -1.7978
 1240TIP3    H2 3685   4.925   3.933   0.703  1.2039  1.3484  0.9050
 1241TIP3   OH2 3686   0.671   1.724   1.217  0.2682  0.4132  0.0804
 1241TIP3    H1 3687   0.646   1.801   1.165 -1.5208 -1.3029 -1.7857
 1241TIP3    H2 3688   0.596   1.708   1.274  0.6246  0.0398  0.4507
 1242TIP3   OH2 3689   0.771   2.348   4.657 -0.5839  0.4701 -0.0519
 1242TIP3    H1 3690   0.849   2.311   4.616 -0.8540  0.4833 -0.6002
 1242TIP3    H2 3691   0.702   2.283   4.639 -1.4118  1.8517 -2.3168
 1243TIP3   OH2 3692   3.966   2.636   2.302  0.3643 -0.2574 -0.2139
 1243TIP3    H1 3693   3.887   2.603   2.344  0.2780  1.9476  1.5712
 1243TIP3    H2 3694   4.031   2.643   2.373  1.2277  0.6508 -1.0414
 1244TIP3   OH2 3695   6.837   2.082   5.545  0.2552 -0.4180  0.4559
 1244TIP3    H1 3696   6.884   2.164   5.528 -0.4552 -0.2237 -0.6268
 1244TIP3    H2 3697   6.745   2.109   5.553 -0.1410 -1.2443 -1.1000
 1245TIP3   OH2 3698   0.808   6.739   3.973  0.4084  0.3629  0.4582
 1245TIP3    H1 3699   0.883   6.771   4.024 -0.6253  0.1303  2.2270
 1245TIP3    H2 3700   0.737   6.800   3.993 -0.3493 -0.4192  0.2515
 1246TIP3   OH2 3701   0.541   3.485   1.373 -0.0981  0.0867 -0.1402
 1246TIP3    H1 3702   0.621   3.507   1.325  1.0734 -1.3924  1.0242
 1246TIP3    H2 3703   0.514   3.400   1.337 -1.4638  0.7954 -0.8658
 1247TIP3   OH2 3704   6.997   1.574   5.004  0.2040  0.1944  0.5778
 1247TIP3    H1 3705   7.092   1.583   5.000  0.3106 -1.0604 -0.2087
 1247TIP3    H2 3706   6.965   1.623   4.929  0.5471 -2.6952 -1.6034
 1248TIP3   OH2 3707   2.693   1.256   0.971 -0.0257 -0.4647 -0.0240
 1248TIP3    H1 3708   2.750   1.242   0.896 -0.5174  0.7998 -0.6717
 1248TIP3    H2 3709   2.735   1.208   1.043  2.7404  1.6247 -0.0537
 1249TIP3   OH2 3710   1.166   4.594   4.956  0.4506 -0.6940  0.0126
 1249TIP3    H1 3711   1.178   4.519   5.015 -0.1850 -1.5425 -0.8961
 1249TIP3    H2 3712   1.252   4.636   4.953  0.5396 -0.7454  1.3798
 1250TIP3   OH2 3713   0.356   4.370   3.007 -0.2898 -0.4452  0.8835
 1250TIP3    H1 3714   0.318   4.315   3.075  1.7674 -0.4925  2.0394
 1250TIP3    H2 3715   0.422   4.423   3.051  0.4071  0.2642 -0.8881
 1251TIP3   OH2 3716   4.151   4.632   1.194 -0.1419 -0.4476 -0.0749
 1251TIP3    H1 3717   4.168   4.715   1.237  0.7758 -0.5790 -0.1556
 1251TIP3    H2 3718   4.210   4.570   1.237  0.9129 -0.5531 -1.5700
 1252TIP3   OH2 3719   3.463   0.471   2.484 -0.9964 -0.9092  0.4470
 1252TIP3    H1 3720   3.529   0.444   2.548 -1.4966 -1.0850  0.8952
 1252TIP3    H2 3721   3.459   0.399   2.422 -0.1210 -0.5069 -0.1070
 1253TIP3   OH2 3722   5.359   2.982   0.375  0.3156  0.0708 -0.5649
 1253TIP3    H1 3723   5.453   2.983   0.358  0.3724  0.8591 -0.2482
 1253TIP3    H2 3724   5.324   3.056   0.325 -0.2467 -0.6263 -1.2377
 1254TIP3   OH2 3725   2.092   2.249   0.258 -0.1822 -0.8191 -0.6461
 1254TIP3    H1 3726   2.181   2.267   0.226 -0.4704 -0.4136 -1.2329
 1254TIP3    H2 3727   2.084   2.154   0.254  0.2110 -0.8538 -0.6306
 1255TIP3   OH2 3728   6.719   0.411   1.356  0.1211  0.0411 -0.7044
 1255TIP3    H1 3729   6.723   0.322   1.390  1.5033  0.1735 -0.4864
 1255TIP3    H2 3730   6.775   0.411   1.279  2.6180  1.3979  0.9643
 1256TIP3   OH2 3731   1.546   3.192   4.308  0.6297 -0.0323  0.3426
 1256TIP3    H1 3732   1.630   3.204   4.264  1.1917 -2.3082  0.6517
 1256TIP3    H2 3733   1.484   3.172   4.238  0.9034 -0.7872  0.3040
 1257TIP3   OH2 3734   3.433   0.885   4.871 -0.0854 -0.4781  0.1555
 1257TIP3    H1 3735   3.382   0.939   4.931 -1.6194 -0.8620 -0.7411
 1257TIP3    H2 3736   3.391   0.897   4.786  2.2269  0.3179 -0.9744
 1258TIP3   OH2 3737   6.353   0.442   4.877  0.0216  0.6884  0.0200
 1258TIP3    H1 3738   6.273   0.421   4.830  0.1749  0.8577 -0.3168
 1258TIP3    H2 3739   6.337   0.412   4.967  0.5477 -1.6256 -0.6079
 1259TIP3   OH2 3740   5.583   5.274   2.976 -0.2136 -0.7187  0.2373
 1259TIP3    H1 3741   5.488   5.274   2.962 -0.5717 -0.2046  2.3170
 1259TIP3    H2 3742   5.604   5.181   2.991 -0.4023 -0.8229 -0.1354
 1260TIP3   OH2 3743   2.281   5.371   4.211 -0.2594  0.0561 -0.4897
 1260TIP3    H1 3744   2.342   5.444   4.199  0.7850 -0.8314 -0.7318
 1260TIP3    H2 3745   2.302   5.311   4.140 -0.7839 -0.6975 -0.0137
 1261TIP3   OH2 3746   6.290   4.274   4.226  0.2580 -0.0812  0.8208
 1261TIP3    H1 3747   6.212   4.264   4.281  0.2777 -2.8065  0.4873
 1261TIP3    H2 3748   6.267   4.231   4.144  1.8556 -0.2134  0.4172
 1262TIP3   OH2 3749   2.862   4.364   4.533 -0.2318  0.2545  0.3914
 1262TIP3    H1 3750   2.909   4.289   4.496 -0.3736 -1.1235  2.8108
 1262TIP3    H2 3751   2.898   4.440   4.486 -0.3232 -1.2905 -2.3722
 1263TIP3   OH2 3752   4.273   4.699   5.595 -0.1351  0.3403  0.0852
 1263TIP3    H1 3753   4.339   4.732   5.533 -1.0896  1.2322 -0.4886
 1263TIP3    H2 3754   4.311   4.717   5.681  1.0299 -0.5449 -0.2200
 1264TIP3   OH2 3755   6.732   5.603   3.071 -0.1705  0.3521  0.3594
 1264TIP3    H1 3756   6.751   5.522   3.120 -1.9518  0.2572  0.9653
 1264TIP3    H2 3757   6.639   5.597   3.051 -0.0691  1.7326 -0.6063
 1265TIP3   OH2 3758   5.055   4.900   3.360 -0.2544 -0.3478  0.2395
 1265TIP3    H1 3759   5.000   4.969   3.397  1.0837  1.7967 -1.4941
 1265TIP3    H2 3760   5.143   4.938   3.358  0.5175 -2.0655 -0.9235
 1266TIP3   OH2 3761   1.364   1.806   2.014 -0.7477 -0.4266 -0.4902
 1266TIP3    H1 3762   1.383   1.718   1.981 -1.2984 -0.8028  0.1657
 1266TIP3    H2 3763   1.271   1.804   2.036 -0.8509  0.4353 -0.8048
 1267TIP3   OH2 3764   5.973   3.813   5.854 -0.2714  0.3819 -0.1627
 1267TIP3    H1 3765   6.025   3.851   5.783 -0.2636 -0.2474 -0.4937
 1267TIP3    H2 3766   6.014   3.847   5.934 -0.2766  1.0857 -0.4530
 1268TIP3   OH2 3767   0.062   6.746   2.798  0.8394  0.1354  0.2938
 1268TIP3    H1 3768  -0.032   6.727   2.799  0.7813 -0.0440 -2.3267
 1268TIP3    H2 3769   0.069   6.836   2.830 -0.5641  1.0936 -1.8597
 1269TIP3   OH2 3770   2.128   0.972   5.212 -0.2324  0.0038 -0.5881
 1269TIP3    H1 3771   2.160   0.884   5.191 -0.5240 -0.0976 -0.6046
 1269TIP3    H2 3772   2.056   0.987   5.151 -0.8937 -0.1712  0.1349
 1270TIP3   OH2 3773   7.096   0.214   2.626 -0.1240 -0.3903  0.3517
 1270TIP3    H1 3774   7.033   0.283   2.609 -0.6017 -0.4176  1.8465
 1270TIP3    H2 3775   7.094   0.159   2.547  0.9494  1.7553 -1.2683
 1271TIP3   OH2 3776   6.231   2.382   2.125  0.0269  0.0790  0.2561
 1271TIP3    H1 3777   6.302   2.412   2.068  0.3872 -1.0619  0.0675
 1271TIP3    H2 3778   6.238   2.437   2.203  0.4227  0.7127 -0.2129
 1272TIP3   OH2 3779   6.055   3.125   4.966 -0.4900  0.3688 -0.2672
 1272TIP3    H1 3780   6.091   3.080   5.042 -3.0255 -0.9484  0.2562
 1272TIP3    H2 3781   6.103   3.208   4.963  0.8227 -0.2417  1.7548
 1273TIP3   OH2 3782   2.739   0.500   2.467  0.4840  0.0718  0.0737
 1273TIP3    H1 3783   2.713   0.432   2.529 -1.2536  1.3129  0.8045
 1273TIP3    H2 3784   2.736   0.581   2.518  0.3562  0.9546 -1.2834
 1274TIP3   OH2 3785   0.316   4.093   1.898 -0.3008  0.4519 -0.2497
 1274TIP3    H1 3786   0.310   4.031   1.826  2.1317 -1.6421  1.2010
 1274TIP3    H2 3787   0.405   4.127   1.894  0.6958 -1.3588  2.8808
 1275TIP3   OH2 3788   2.538   1.092   3.621 -0.0970  0.8845 -0.3086
 1275TIP3    H1 3789   2.600   1.068   3.552  0.4473 -0.4618  0.6075
 1275TIP3    H2 3790   2.516   1.183   3.602  2.2463  1.4668 -0.6333
 1276TIP3   OH2 3791   1.846   6.449   2.888  0.3887 -0.2427 -0.6388
 1276TIP3    H1 3792   1.857   6.417   2.798 -0.1878 -0.6406 -0.5767
 1276TIP3    H2 3793   1.766   6.500   2.885  2.0298  2.5050 -1.0616
 1277TIP3   OH2 3794   2.275   1.024   5.757  0.0719 -0.2668 -0.7325
 1277TIP3    H1 3795   2.262   0.952   5.695 -1.0327 -0.5776 -0.1683
 1277TIP3    H2 3796   2.212   1.090   5.729 -2.4577 -1.4827  1.6091
 1278TIP3   OH2 3797   3.482   5.709   5.644 -0.1618 -0.4759 -0.2960
 1278TIP3    H1 3798   3.444   5.797   5.653  1.2460  0.0427  0.9991
 1278TIP3    H2 3799   3.491   5.678   5.734  1.2188 -1.1049 -0.6323
 1279TIP3   OH2 3800   3.043   1.929   3.754 -0.4098  0.3704  0.9909
 1279TIP3    H1 3801   3.057   2.024   3.756  1.2269  0.1583  1.0879
 1279TIP3    H2 3802   3.004   1.908   3.839 -3.6289  1.2860 -0.1012
 1280TIP3   OH2 3803   0.533   1.853   0.342 -0.0207  0.0490 -0.2418
 1280TIP3    H1 3804   0.551   1.935   0.387 -0.2650 -0.1049  0.1389
 1280TIP3    H2 3805   0.443   1.831   0.365 -0.0305 -0.2175 -0.5119
 1281TIP3   OH2 3806   5.897   2.361   2.548  0.2088  0.2140  0.0943
 1281TIP3    H1 3807   5.879   2.411   2.469 -1.4327 -0.3912  0.0484
 1281TIP3    H2 3808   5.981   2.318   2.530  0.7030  1.4089 -0.6131
 1282TIP3   OH2 3809   5.072   4.350   4.699  0.1320 -0.0820  0.1456
 1282TIP3    H1 3810   5.138   4.334   4.766  0.2867  0.3598  0.1036
 1282TIP3    H2 3811   5.020   4.422   4.735 -0.0636 -0.1465 -0.0107
 1283TIP3   OH2 3812   6.018   5.242   4.519 -0.2304  0.2161 -0.2631
 1283TIP3    H1 3813   6.023   5.169   4.456  0.5268  0.1364 -0.1241
 1283TIP3    H2 3814   6.108   5.254   4.548 -0.0778  2.2225 -1.4141
 1284TIP3   OH2 3815   1.394   1.441   4.065  0.0917  0.1087  0.8106
 1284TIP3    H1 3816   1.490   1.433   4.068  0.1013  0.4353  1.7648
 1284TIP3    H2 3817   1.376   1.526   4.105 -0.6377 -0.3141  1.4219
 1285TIP3   OH2 3818   5.579   3.974   0.081 -0.3282  0.3243 -0.2557
 1285TIP3    H1 3819   5.629   4.032   0.139  1.0449 -1.1522  0.1025
 1285TIP3    H2 3820   5.546   4.033   0.012  0.0634  1.7009  0.6879
 1286TIP3   OH2 3821   6.651   3.603   5.351  0.3560  0.0076  0.2677
 1286TIP3    H1 3822   6.614   3.668   5.292  0.9170  2.0072  1.9745
 1286TIP3    H2 3823   6.583   3.588   5.416  0.7958  0.0692  0.7487
 1287TIP3   OH2 3824   2.333   0.802   2.527 -0.0969 -0.0286  0.0841
 1287TIP3    H1 3825   2.270   0.830   2.594 -2.7681 -1.9704 -1.4050
 1287TIP3    H2 3826   2.373   0.884   2.496 -2.0546  1.3550  0.9867
 1288TIP3   OH2 3827   4.839   0.265   3.068  0.2515  0.3160 -0.2768
 1288TIP3    H1 3828   4.862   0.332   3.132  1.0461 -0.4205  0.2235
 1288TIP3    H2 3829   4.923   0.227   3.042 -0.1298  0.0571 -1.1599
 1289TIP3   OH2 3830   6.544   2.319   1.150  0.1263 -0.0490  0.1297
 1289TIP3    H1 3831   6.544   2.226   1.173  1.7067 -0.8191 -2.5147
 1289TIP3    H2 3832   6.466   2.331   1.096 -0.5691  0.4118  1.2110
 1290TIP3   OH2 3833   4.861   1.162   5.378  0.2524 -0.4776 -0.1802
 1290TIP3    H1 3834   4.783   1.184   5.430  0.7127  1.2184 -0.1418
 1290TIP3    H2 3835   4.880   1.242   5.330  3.6969  0.2431  2.0414
 1291TIP3   OH2 3836   5.960   3.021   3.120  0.0498 -0.5601 -0.3134
 1291TIP3    H1 3837   5.875   3.061   3.103 -0.1491 -0.0564  1.6109
 1291TIP3    H2 3838   6.024   3.089   3.101  0.0904 -1.0084 -1.9813
 1292TIP3   OH2 3839   7.125   1.982   3.191 -0.3773 -0.6756  0.0205
 1292TIP3    H1 3840   7.158   1.897   3.160  0.6678  0.2970 -1.6478
 1292TIP3    H2 3841   7.030   1.976   3.181 -0.4441 -2.0309  1.0309
 1293TIP3   OH2 3842   0.955   2.511   0.554 -0.0122 -0.3236  0.4820
 1293TIP3    H1 3843   0.950   2.448   0.627  0.4275  0.6646  1.3935
 1293TIP3    H2 3844   1.044   2.546   0.559  0.0580 -0.3085 -0.6113
 1294TIP3   OH2 3845   1.957   0.575   3.261 -0.2138 -0.3004  0.2795
 1294TIP3    H1 3846   1.864   0.596   3.258 -0.3087 -0.6388  0.7220
 1294TIP3    H2 3847   1.961   0.489   3.304  0.4008  0.4284  1.7648
 1295TIP3   OH2 3848   3.979   5.086   2.427 -0.4045  0.5779 -0.2577
 1295TIP3    H1 3849   3.985   5.021   2.497 -0.1121  2.1722  1.2706
 1295TIP3    H2 3850   3.894   5.128   2.440 -0.6439  0.4482 -1.2967
 1296TIP3   OH2 3851   3.858   4.940   2.812 -0.3018 -0.4380 -0.4927
 1296TIP3    H1 3852   3.925   4.927   2.745 -0.6176  1.2526 -1.1939
 1296TIP3    H2 3853   3.836   4.852   2.842 -0.1451 -1.2524 -2.6102
 1297TIP3   OH2 3854   2.074   0.018   2.487  0.7137 -0.0745 -0.8712
 1297TIP3    H1 3855   2.101  -0.060   2.536 -1.1638 -0.1394  0.1759
 1297TIP3    H2 3856   2.112   0.091   2.535  0.4307 -0.2453 -0.3723
 1298TIP3   OH2 3857   6.535   2.836   3.993 -0.6774 -0.4800  0.7621
 1298TIP3    H1 3858   6.606   2.862   4.052  1.4227 -1.5234 -1.1385
 1298TIP3    H2 3859   6.515   2.746   4.017 -0.4501 -0.6069  0.4831
 1299TIP3   OH2 3860   5.888   1.926   4.416 -0.4882  0.0964  0.2749
 1299TIP3    H1 3861   5.930   1.942   4.501 -1.2728  0.2365  0.6437
 1299TIP3    H2 3862   5.821   1.861   4.435 -1.0501  0.5540 -0.1206
 1300TIP3   OH2 3863   1.458   2.772   1.265  0.2297 -0.6217 -0.2029
 1300TIP3    H1 3864   1.496   2.812   1.344  0.0364 -0.3630 -0.2397
 1300TIP3    H2 3865   1.408   2.697   1.298  0.4775 -0.7489 -0.1184
 1301TIP3   OH2 3866   2.595   1.362   4.383 -0.1386  0.5542 -0.3995
 1301TIP3    H1 3867   2.512   1.325   4.351  0.3389 -0.1990 -0.8295
 1301TIP3    H2 3868   2.614   1.434   4.323  0.1053 -0.0332 -1.0389
 1302TIP3   OH2 3869   1.950   0.030   2.249 -0.3939  0.6264 -0.2921
 1302TIP3    H1 3870   2.027   0.049   2.196  1.0999 -0.6112  1.3104
 1302TIP3    H2 3871   1.983   0.026   2.339 -1.9029 -2.0295  0.2455
 1303TIP3   OH2 3872   2.135   0.688   5.154 -0.5454  0.3841  0.6230
 1303TIP3    H1 3873   2.047   0.678   5.190 -0.4303 -1.3374  0.5064
 1303TIP3    H2 3874   2.169   0.598   5.148  1.0721  0.9857  0.3086
 1304TIP3   OH2 3875   0.056   1.126   4.313  0.6878  0.5498 -0.8979
 1304TIP3    H1 3876   0.106   1.170   4.382  0.9374  3.3568 -2.6957
 1304TIP3    H2 3877   0.110   1.135   4.234  0.0267 -1.7569 -1.7006
 1305TIP3   OH2 3878   4.474   0.648   1.608  0.7468 -0.1113 -0.1614
 1305TIP3    H1 3879   4.410   0.581   1.582  0.3667  0.4802 -0.7891
 1305TIP3    H2 3880   4.540   0.646   1.538  0.9727 -0.1349  0.0509
 1306TIP3   OH2 3881   6.462   2.926   2.073  0.1324  0.1755 -0.8957
 1306TIP3    H1 3882   6.459   2.946   1.979 -1.4658  0.9689 -0.7072
 1306TIP3    H2 3883   6.447   3.010   2.116 -1.7011 -0.5658  0.0097
 1307TIP3   OH2 3884   1.217   6.034   2.298  0.7287 -0.2280  0.6906
 1307TIP3    H1 3885   1.249   5.950   2.265  0.4454  0.2360 -0.8073
 1307TIP3    H2 3886   1.294   6.092   2.294  0.9625 -0.4139  1.8558
 1308TIP3   OH2 3887   2.667   3.990   4.414  0.0488 -0.3587 -0.3715
 1308TIP3    H1 3888   2.676   4.066   4.472 -0.6710  0.1286 -0.8688
 1308TIP3    H2 3889   2.728   3.926   4.448 -0.6520 -0.2376  1.1775
 1309TIP3   OH2 3890   2.769   4.442   4.092 -0.1987 -0.1271  0.4079
 1309TIP3    H1 3891   2.750   4.349   4.077 -0.2345 -0.4188  2.0630
 1309TIP3    H2 3892   2.864   4.448   4.083 -0.4233  0.2339 -2.3381
 1310TIP3   OH2 3893   5.097   4.895   5.614  0.4928  0.3443 -0.2437
 1310TIP3    H1 3894   5.018   4.929   5.572  1.4724  1.6308 -1.1419
 1310TIP3    H2 3895   5.154   4.971   5.622  0.1671  0.3666  4.1510
 1311TIP3   OH2 3896   4.084   6.445   2.544  0.2114  0.6000 -0.3104
 1311TIP3    H1 3897   4.150   6.465   2.478 -0.3262  0.9621 -0.7464
 1311TIP3    H2 3898   4.046   6.361   2.516  1.2170 -0.1588  0.5307
 1312TIP3   OH2 3899   2.223   3.999   1.515 -0.2349  0.1671  0.7070
 1312TIP3    H1 3900   2.185   3.913   1.533 -1.3447  0.4528 -0.1817
 1312TIP3    H2 3901   2.165   4.061   1.560  1.6777  0.4069  3.1132
 1313TIP3   OH2 3902   3.957   1.934   0.496  0.3030  0.7874 -0.1506
 1313TIP3    H1 3903   3.894   1.917   0.426  0.1242  0.9381 -0.0279
 1313TIP3    H2 3904   3.919   1.894   0.574  1.2855 -0.8557 -0.4614
 1314TIP3   OH2 3905   0.898   1.879   1.804 -0.2080 -0.3593  0.0166
 1314TIP3    H1 3906   0.862   1.893   1.891 -0.3749 -0.3575 -0.0533
 1314TIP3    H2 3907   0.822   1.867   1.748 -0.0847 -0.9894 -0.0218
 1315TIP3   OH2 3908   4.043   2.715   1.709 -0.2702 -0.3157 -0.2404
 1315TIP3    H1 3909   4.043   2.636   1.656  0.2844 -0.1481 -0.4932
 1315TIP3    H2 3910   3.954   2.750   1.699 -0.3289 -0.5698 -0.6309
 1316TIP3   OH2 3911   6.306   0.843   1.038  0.2109  0.0621 -0.5155
 1316TIP3    H1 3912   6.394   0.821   1.007 -0.2490 -1.1788 -1.0089
 1316TIP3    H2 3913   6.249   0.829   0.963 -0.5982 -0.6141  0.1986
 1317TIP3   OH2 3914   0.660   2.893   2.055  0.5385  0.2577 -0.4777
 1317TIP3    H1 3915   0.613   2.845   2.123  2.3237 -0.1036  0.5620
 1317TIP3    H2 3916   0.748   2.906   2.091  1.1732  1.1304 -2.2280
 1318TIP3   OH2 3917   6.657   3.216   4.435  0.0518  0.0334 -0.5747
 1318TIP3    H1 3918   6.702   3.296   4.408  0.1351  0.2338  0.1465
 1318TIP3    H2 3919   6.636   3.230   4.527 -2.0097  0.1810 -1.0209
 1319TIP3   OH2 3920   2.520   5.933   4.816  0.6715  0.2279 -0.1271
 1319TIP3    H1 3921   2.483   5.986   4.745  0.0760 -0.6788 -0.5102
 1319TIP3    H2 3922   2.461   5.950   4.890  1.3611  1.2665  0.2097
 1320TIP3   OH2 3923   5.314   0.917   4.376  0.3447 -0.1790  0.2639
 1320TIP3    H1 3924   5.269   0.906   4.460 -0.0210 -1.7735 -0.0989
 1320TIP3    H2 3925   5.402   0.883   4.392  0.0575 -1.1614 -0.1612
 1321TIP3   OH2 3926   5.684   2.305   4.960 -0.2177 -0.4691 -0.1448
 1321TIP3    H1 3927   5.772   2.283   4.928 -0.4630 -0.9818 -0.4790
 1321TIP3    H2 3928   5.698   2.333   5.051  0.0951 -2.3237  0.4258
 1322TIP3   OH2 3929   1.032   3.131   0.692  0.2242 -0.2573  0.0975
 1322TIP3    H1 3930   1.088   3.133   0.614 -0.5278  1.3901 -0.4522
 1322TIP3    H2 3931   1.087   3.166   0.762  0.5814 -0.7866  0.0886
 1323TIP3   OH2 3932   3.586   4.879   1.424 -0.6126 -0.0311 -0.4515
 1323TIP3    H1 3933   3.516   4.886   1.489  0.3292  0.1750  0.5735
 1323TIP3    H2 3934   3.603   4.785   1.418 -0.1643  0.0032  0.2026
 1324TIP3   OH2 3935   4.633   3.504   3.979 -0.9088  0.1748 -0.5406
 1324TIP3    H1 3936   4.605   3.431   4.035  2.2107 -0.2519  0.6216
 1324TIP3    H2 3937   4.655   3.462   3.896  0.1016 -0.1237 -0.1367
 1325TIP3   OH2 3938   3.139   1.988   0.941 -0.2128  0.2676 -0.5331
 1325TIP3    H1 3939   3.072   1.969   0.875  0.0400  0.7659 -0.9382
 1325TIP3    H2 3940   3.197   1.912   0.939 -0.9565 -0.3433  0.0786
 1326TIP3   OH2 3941   1.891   3.096   0.304  0.0697 -0.5166  0.3946
 1326TIP3    H1 3942   1.954   3.124   0.371 -0.1332 -2.5853  1.5578
 1326TIP3    H2 3943   1.806   3.121   0.339  0.1170  1.1348 -0.5805
 1327TIP3   OH2 3944   2.474   0.078   0.455 -0.3591  0.1503  0.2654
 1327TIP3    H1 3945   2.540   0.144   0.476  0.5860 -0.0099 -1.9639
 1327TIP3    H2 3946   2.515  -0.006   0.474 -0.2328  0.0878 -0.2553
 1328TIP3   OH2 3947   6.884   2.630   1.367  0.6198  0.0306  0.1988
 1328TIP3    H1 3948   6.902   2.718   1.335 -0.1675  0.1013 -0.0650
 1328TIP3    H2 3949   6.792   2.632   1.394 -0.2249 -1.4101 -2.2844
 1329TIP3   OH2 3950   5.929   2.367   5.893 -0.7634 -0.5246  0.8116
 1329TIP3    H1 3951   5.882   2.383   5.811 -0.0431  0.2838  0.5490
 1329TIP3    H2 3952   5.946   2.453   5.929  0.7217 -0.7691  0.7757
 1330TIP3   OH2 3953   3.721   1.737   3.178  0.1661 -0.7188  0.5438
 1330TIP3    H1 3954   3.719   1.824   3.139  1.6521 -0.1192  1.7299
 1330TIP3    H2 3955   3.800   1.697   3.142 -0.6796 -1.7336 -0.2524
 1331TIP3   OH2 3956   3.160   5.483   1.097 -0.1545 -0.3652 -0.1329
 1331TIP3    H1 3957   3.251   5.467   1.073  0.1867 -0.6739  1.3154
 1331TIP3    H2 3958   3.141   5.419   1.166 -1.3347 -0.0043 -0.0974
 1332TIP3   OH2 3959   5.856   2.360   3.300  0.0042 -0.7862 -0.1756
 1332TIP3    H1 3960   5.873   2.438   3.248 -0.1338  0.5255  1.6521
 1332TIP3    H2 3961   5.930   2.355   3.361 -1.0949 -0.7832  1.2025
 1333TIP3   OH2 3962   7.002   4.630   2.874  0.2164  0.4391  0.2650
 1333TIP3    H1 3963   6.989   4.544   2.833 -0.9647  1.1949 -1.0320
 1333TIP3    H2 3964   7.085   4.662   2.838 -0.5278  0.8473 -1.1324
 1334TIP3   OH2 3965   3.265   0.899   2.503  0.3456 -0.2698 -0.0812
 1334TIP3    H1 3966   3.246   0.897   2.410 -1.6933 -1.2761  0.2974
 1334TIP3    H2 3967   3.343   0.955   2.511  0.5293 -0.1220 -2.3419
 1335TIP3   OH2 3968   1.237   2.199   4.189  0.9550  0.1469  0.0183
 1335TIP3    H1 3969   1.179   2.269   4.220  0.6001  0.7371 -1.8822
 1335TIP3    H2 3970   1.325   2.235   4.202  0.9295 -0.3808  2.0299
 1336TIP3   OH2 3971   5.331   0.198   1.051  0.0097  0.2736 -0.7173
 1336TIP3    H1 3972   5.247   0.169   1.086  1.0425  0.5942  2.3203
 1336TIP3    H2 3973   5.344   0.146   0.972 -2.7353 -0.1951 -0.9486
 1337TIP3   OH2 3974   6.403   6.234   2.447 -0.1440 -0.2335 -0.1845
 1337TIP3    H1 3975   6.362   6.195   2.524  1.3354 -0.0937  0.6949
 1337TIP3    H2 3976   6.332   6.283   2.405 -1.1186 -0.8178  0.7322
 1338TIP3   OH2 3977   0.398   3.241   5.258  0.0106 -0.1917  0.1847
 1338TIP3    H1 3978   0.446   3.223   5.177 -0.2646  1.4101 -0.3715
 1338TIP3    H2 3979   0.432   3.325   5.288 -1.5446  0.3835  0.4432
 1339TIP3   OH2 3980   7.016   3.466   2.998 -0.2223  0.8019  0.7577
 1339TIP3    H1 3981   6.967   3.443   2.919 -1.9228  1.9692  1.4190
 1339TIP3    H2 3982   7.056   3.550   2.977  2.1787 -0.4313 -0.0142
 1340TIP3   OH2 3983   7.089   5.303   3.835  0.8297  0.2145  0.6151
 1340TIP3    H1 3984   7.049   5.216   3.840 -0.0025  0.5429 -0.0545
 1340TIP3    H2 3985   7.183   5.286   3.831  0.6142 -0.7667 -1.4987
 1341TIP3   OH2 3986   6.918   1.010   2.759  0.7349 -0.1264  1.0659
 1341TIP3    H1 3987   6.878   1.065   2.826 -0.6174 -0.1496  0.3109
 1341TIP3    H2 3988   6.844   0.977   2.708  1.5044 -2.3681  1.2762
 1342TIP3   OH2 3989   4.746   3.109   0.796  0.5766 -0.2598  0.1690
 1342TIP3    H1 3990   4.838   3.107   0.770  0.8957  0.1187  1.2442
 1342TIP3    H2 3991   4.723   3.016   0.808 -0.1395 -0.6748 -3.1954
 1343TIP3   OH2 3992   1.616   4.598   2.352 -0.0514  0.4840 -0.3244
 1343TIP3    H1 3993   1.632   4.609   2.258 -1.8346 -2.0575 -1.0374
 1343TIP3    H2 3994   1.659   4.516   2.374 -1.2306  0.0977  0.6230
 1344TIP3   OH2 3995   3.522   5.062   4.607  0.2241  0.0692  0.5358
 1344TIP3    H1 3996   3.487   5.029   4.689  0.1888  0.6751  0.7699
 1344TIP3    H2 3997   3.549   5.152   4.627  1.0662 -0.0879  0.1225
 1345TIP3   OH2 3998   4.201   2.561   2.718 -0.0046  0.2292 -0.3415
 1345TIP3    H1 3999   4.128   2.575   2.778  0.0152  3.9110 -0.9167
 1345TIP3    H2 4000   4.276   2.542   2.775 -0.5062  1.0954  0.6397
 1346TIP3   OH2 4001   3.682   6.733   0.409  0.0072  0.5774  0.2979
 1346TIP3    H1 4002   3.743   6.738   0.483 -0.4500 -1.2311  0.8472
 1346TIP3    H2 4003   3.716   6.664   0.354 -1.6848 -0.7379  0.8105
 1347TIP3   OH2 4004   6.240   4.054   4.650 -0.1629  0.1905  0.0827
 1347TIP3    H1 4005   6.320   4.045   4.598  0.0667  0.5959  0.3586
 1347TIP3    H2 4006   6.184   4.112   4.599 -0.5813 -0.6725 -0.4563
 1348TIP3   OH2 4007   5.526   6.469   0.849  0.1176  0.0076  0.4969
 1348TIP3    H1 4008   5.486   6.550   0.816 -0.3327 -1.4491 -2.9418
 1348TIP3    H2 4009   5.457   6.429   0.903 -0.4783  0.8283  0.3656
 1349TIP3   OH2 4010   3.667   4.165   3.164  0.5915 -0.2275 -0.2927
 1349TIP3    H1 4011   3.606   4.182   3.093 -0.0542 -1.0616  0.0484
 1349TIP3    H2 4012   3.624   4.197   3.243  0.1220 -1.7318  0.0970
 1350TIP3   OH2 4013   1.359   5.091   2.182  0.0719 -0.6330  0.2048
 1350TIP3    H1 4014   1.347   5.004   2.219 -1.5393 -0.3246  0.4769
 1350TIP3    H2 4015   1.277   5.137   2.199  2.0136  2.1942  3.2489
 1351TIP3   OH2 4016   1.487   2.332   2.165  0.0554 -0.1897 -0.4691
 1351TIP3    H1 4017   1.502   2.329   2.071 -1.3411  0.5954 -0.7441
 1351TIP3    H2 4018   1.568   2.369   2.201  0.1400  0.6686 -1.4896
 1352TIP3   OH2 4019   1.547   2.409   4.879 -0.3123  0.4784  0.2287
 1352TIP3    H1 4020   1.539   2.423   4.974  1.9127 -1.0372  0.7038
 1352TIP3    H2 4021   1.631   2.449   4.856 -0.4728  0.1400 -0.9808
 1353TIP3   OH2 4022   2.601   2.868   2.938 -0.0231  0.1129 -0.2092
 1353TIP3    H1 4023   2.612   2.901   2.849  0.7106 -0.6157 -0.4011
 1353TIP3    H2 4024   2.649   2.785   2.939  0.9693  0.6581  1.1872
 1354TIP3   OH2 4025   3.100   0.264   0.801 -0.4861  0.7065  0.3926
 1354TIP3    H1 4026   3.190   0.297   0.804 -0.3038  0.1600  1.1380
 1354TIP3    H2 4027   3.057   0.317   0.734  0.6458  0.3493 -0.6429
 1355TIP3   OH2 4028   2.641   4.243   3.464 -0.5755 -0.5947  0.0090
 1355TIP3    H1 4029   2.697   4.235   3.387 -0.4021 -0.7174  0.1472
 1355TIP3    H2 4030   2.572   4.178   3.450 -1.3316  0.3342 -0.7063
 1356TIP3   OH2 4031   0.170   2.297   2.879  0.0936  0.0963  0.1855
 1356TIP3    H1 4032   0.203   2.340   2.957  1.5378 -1.2971  0.3948
 1356TIP3    H2 4033   0.102   2.237   2.910  0.1170  0.1065  0.2546
 1357TIP3   OH2 4034   1.094   6.658   5.309  0.1330  0.6280  0.3420
 1357TIP3    H1 4035   1.174   6.689   5.268  0.5620 -0.4653  0.3124
 1357TIP3    H2 4036   1.025   6.675   5.244  0.5563  0.3673 -0.1838
 1358TIP3   OH2 4037   7.046   3.686   5.718  0.6646 -0.4114  0.5555
 1358TIP3    H1 4038   6.954   3.667   5.698  0.8367  0.0110 -0.7114
 1358TIP3    H2 4039   7.047   3.698   5.813 -0.8263  0.8121  0.4588
 1359TIP3   OH2 4040   5.405   3.038   4.028  0.1405  0.2479 -0.4266
 1359TIP3    H1 4041   5.380   3.127   4.005 -2.4806  0.5868  2.9407
 1359TIP3    H2 4042   5.337   2.983   3.987 -0.9243  0.3019  1.1821
 1360TIP3   OH2 4043   0.355   0.751   5.390 -0.6268 -0.1443 -0.2607
 1360TIP3    H1 4044   0.360   0.656   5.391  1.1798 -0.0959  1.2319
 1360TIP3    H2 4045   0.408   0.778   5.315  0.4879 -0.2980  0.4530
 1361TIP3   OH2 4046   2.492   5.268   1.374  0.0990 -0.3176  0.0506
 1361TIP3    H1 4047   2.577   5.225   1.376  0.4784  0.4399  1.8483
 1361TIP3    H2 4048   2.512   5.362   1.377 -0.7689 -0.1459  2.6366
 1362TIP3   OH2 4049   2.195   3.821   0.237 -0.5375 -0.3381 -0.4011
 1362TIP3    H1 4050   2.103   3.844   0.221 -0.2098  0.2443 -1.6219
 1362TIP3    H2 4051   2.237   3.904   0.258 -0.3329 -0.6432  0.4168
 1363TIP3   OH2 4052   1.860   3.199   0.848  0.6983  0.6515  0.0291
 1363TIP3    H1 4053   1.892   3.290   0.843  0.0494  0.8433 -0.8030
 1363TIP3    H2 4054   1.773   3.207   0.886  0.8474  0.3177  0.4452
 1364TIP3   OH2 4055   5.865   6.367   0.552  0.1221 -0.4067  0.1544
 1364TIP3    H1 4056   5.847   6.370   0.458 -1.7238 -1.2912  0.4351
 1364TIP3    H2 4057   5.935   6.303   0.561 -0.1517 -0.8155 -0.5658
 1365TIP3   OH2 4058   0.760   2.014   4.464  0.2003  0.7448  0.0931
 1365TIP3    H1 4059   0.811   2.027   4.545 -0.2823 -0.8607  0.6896
 1365TIP3    H2 4060   0.826   2.002   4.396  0.6088  1.5005  0.3384
 1366TIP3   OH2 4061   3.727   4.961   4.835 -0.3249  0.0546 -0.2944
 1366TIP3    H1 4062   3.635   4.933   4.834  0.0589 -1.3293 -2.1231
 1366TIP3    H2 4063   3.768   4.906   4.902 -0.8652  1.0032  0.8694
 1367TIP3   OH2 4064   2.756   5.112   5.305  0.0372 -0.1426  0.0822
 1367TIP3    H1 4065   2.805   5.065   5.373 -1.6052 -1.4904  0.4273
 1367TIP3    H2 4066   2.822   5.142   5.243  1.3708 -0.9642  1.0527
 1368TIP3   OH2 4067   0.971   5.918   5.241  0.7865  0.2070 -0.2888
 1368TIP3    H1 4068   1.011   5.941   5.324 -2.6084  0.2975  1.5171
 1368TIP3    H2 4069   0.940   6.002   5.205 -0.9971 -0.1569  0.2826
 1369TIP3   OH2 4070   2.703   5.161   4.457 -0.0206  0.3037 -0.0204
 1369TIP3    H1 4071   2.610   5.143   4.444  0.3478  0.3238 -3.7453
 1369TIP3    H2 4072   2.730   5.100   4.525 -2.5281 -0.3974  0.4570
 1370TIP3   OH2 4073   6.322   5.295   4.349  0.3790  0.4204 -0.2406
 1370TIP3    H1 4074   6.303   5.208   4.313 -1.1011  0.8692 -0.5929
 1370TIP3    H2 4075   6.387   5.332   4.290  0.6110 -0.2281 -0.4025
 1371TIP3   OH2 4076   5.540   0.192   0.324  0.2063  0.0136  0.0752
 1371TIP3    H1 4077   5.592   0.272   0.317  0.2967 -0.0330  0.2116
 1371TIP3    H2 4078   5.496   0.184   0.240 -0.1441  0.4432  0.2173
 1372TIP3   OH2 4079   5.746   1.407   2.496  0.0981  0.1445  0.4472
 1372TIP3    H1 4080   5.665   1.355   2.498 -0.7560  1.4477  1.5616
 1372TIP3    H2 4081   5.781   1.399   2.585  0.0154  1.3404  0.6004
 1373TIP3   OH2 4082   5.002   2.754   5.124 -0.4437  0.1463 -0.2665
 1373TIP3    H1 4083   4.923   2.700   5.125 -1.2265  1.2380 -0.2874
 1373TIP3    H2 4084   5.011   2.785   5.214 -1.1008  1.4618 -0.6270
 1374TIP3   OH2 4085   0.259   2.743   2.812  0.9125  0.6464  0.2756
 1374TIP3    H1 4086   0.226   2.744   2.722 -0.1532  0.5146  0.6531
 1374TIP3    H2 4087   0.285   2.834   2.828 -1.5108  1.3094  0.7496
 1375TIP3   OH2 4088   0.332   5.429   0.802 -0.0765  0.1380  0.9156
 1375TIP3    H1 4089   0.267   5.437   0.732 -0.4528  0.5174  1.2983
 1375TIP3    H2 4090   0.280   5.435   0.882  0.1839 -1.5958  1.2366
 1376TIP3   OH2 4091   7.182   3.005   3.371 -0.1994  0.4179  0.0125
 1376TIP3    H1 4092   7.106   2.999   3.430 -0.5693  0.2162 -0.4789
 1376TIP3    H2 4093   7.164   3.082   3.317 -1.0776 -0.7770 -1.5016
 1377TIP3   OH2 4094   3.562   5.809   4.522  0.6289 -0.1043  0.7770
 1377TIP3    H1 4095   3.526   5.821   4.609 -0.2315  0.6585  0.3335
 1377TIP3    H2 4096   3.565   5.714   4.510  1.5476 -0.2443  1.9395
 1378TIP3   OH2 4097   0.955   0.149   4.947  0.1917 -0.4130  0.1611
 1378TIP3    H1 4098   1.035   0.100   4.930 -0.2004 -0.4503 -1.8107
 1378TIP3    H2 4099   0.885   0.084   4.942 -0.0649 -0.1950  0.7920
 1379TIP3   OH2 4100   5.813   5.950   1.444 -0.1884 -0.4530  0.5308
 1379TIP3    H1 4101   5.869   5.872   1.440 -0.9938 -1.0200 -0.1024
 1379TIP3    H2 4102   5.797   5.972   1.352  0.6975  0.9803  0.6833
 1380TIP3   OH2 4103   4.820   5.901   4.721  0.0213 -0.4196 -0.2972
 1380TIP3    H1 4104   4.780   5.943   4.797 -0.0582 -0.8969 -0.0758
 1380TIP3    H2 4105   4.750   5.848   4.682  0.4525 -1.3555  0.1640
 1381TIP3   OH2 4106   2.027   0.389   5.357 -0.3855 -0.1562 -0.5466
 1381TIP3    H1 4107   2.088   0.365   5.287 -0.8810 -0.7787 -0.7727
 1381TIP3    H2 4108   1.952   0.428   5.311  0.1440  1.3232 -0.2258
 1382TIP3   OH2 4109   1.082   3.444   0.434  0.3056  0.1776  0.3229
 1382TIP3    H1 4110   1.107   3.439   0.527 -0.4757 -2.0646  0.4843
 1382TIP3    H2 4111   0.992   3.410   0.432 -0.0438  1.1062 -1.1606
 1383TIP3   OH2 4112   2.843   5.616   1.304  0.1609 -0.4498 -0.3460
 1383TIP3    H1 4113   2.896   5.689   1.336 -0.3778  0.0459 -0.5719
 1383TIP3    H2 4114   2.907   5.548   1.281  0.9220  1.0041 -2.9116
 1384TIP3   OH2 4115   4.597   6.547   1.869 -0.3743  0.1127 -0.0144
 1384TIP3    H1 4116   4.634   6.615   1.812 -0.6549  0.1709 -0.1265
 1384TIP3    H2 4117   4.597   6.469   1.814 -0.4466  0.1197 -0.0242
 1385TIP3   OH2 4118   4.815   4.802   5.569  0.0168  0.0666 -0.4413
 1385TIP3    H1 4119   4.868   4.731   5.532 -0.8956  0.3507 -2.4594
 1385TIP3    H2 4120   4.850   4.881   5.529  0.2699  0.6495  0.8855
 1386TIP3   OH2 4121   1.217   3.242   1.903  0.1178 -0.3012  0.4152
 1386TIP3    H1 4122   1.147   3.306   1.918 -0.4114 -1.0351  1.1500
 1386TIP3    H2 4123   1.298   3.290   1.920 -0.0402  1.1112 -2.2666
 1387TIP3   OH2 4124   2.276   4.710   5.888 -0.3741  0.1140  0.3881
 1387TIP3    H1 4125   2.314   4.732   5.803 -0.5526  0.6886  0.4490
 1387TIP3    H2 4126   2.265   4.615   5.886 -0.4355  0.1288 -0.2552
 1388TIP3   OH2 4127   5.427   4.338   4.308 -0.2444  0.2393  0.0444
 1388TIP3    H1 4128   5.496   4.396   4.341 -0.8853  1.1221 -0.1249
 1388TIP3    H2 4129   5.352   4.356   4.365 -0.9473  0.7806 -1.0187
 1389TIP3   OH2 4130   3.895   4.300   5.492  0.1024 -0.3208 -0.1854
 1389TIP3    H1 4131   3.841   4.289   5.571  0.2256 -2.2819 -0.3148
 1389TIP3    H2 4132   3.954   4.372   5.513 -0.1306 -0.5451  1.3848
 1390TIP3   OH2 4133   5.839   6.437   0.286  0.2226  0.1963  0.4286
 1390TIP3    H1 4134   5.831   6.379   0.210  1.1696  1.5496 -0.7642
 1390TIP3    H2 4135   5.812   6.523   0.253 -0.1997  0.6488  1.8821
 1391TIP3   OH2 4136   1.519   6.358   5.523 -0.4458  0.4594  0.1353
 1391TIP3    H1 4137   1.470   6.409   5.587 -2.3545  0.2793 -1.1161
 1391TIP3    H2 4138   1.514   6.409   5.442  0.6041 -0.0682 -0.2897
 1392TIP3   OH2 4139   4.045   5.481   1.275 -0.0769  0.0644  0.1857
 1392TIP3    H1 4140   4.009   5.515   1.193 -0.1543  1.4074  0.7495
 1392TIP3    H2 4141   4.058   5.558   1.329  1.0374 -0.6897  1.0375
 1393TIP3   OH2 4142   0.818   1.763   3.585  0.3202  0.3992 -0.0108
 1393TIP3    H1 4143   0.876   1.832   3.552 -1.0348  0.5018 -2.4285
 1393TIP3    H2 4144   0.737   1.809   3.607  0.1956 -0.1218  0.6368
 1394TIP3   OH2 4145   5.232   6.099   0.834 -0.1258  0.5331 -0.7398
 1394TIP3    H1 4146   5.207   6.184   0.872 -1.0916 -0.4334  0.8983
 1394TIP3    H2 4147   5.313   6.118   0.787 -0.8280  2.5589 -1.2586
 1395TIP3   OH2 4148   7.067   5.366   3.105 -0.6635  0.4312  0.5523
 1395TIP3    H1 4149   7.149   5.333   3.067 -0.1337  1.2026  0.9834
 1395TIP3    H2 4150   7.055   5.313   3.184 -1.4350 -0.7481 -0.3141
 1396TIP3   OH2 4151   1.064   2.514   3.845  0.5752  0.3985  0.3200
 1396TIP3    H1 4152   1.153   2.487   3.869  0.7897  0.2981 -0.5603
 1396TIP3    H2 4153   1.055   2.602   3.882  2.0337  1.5362 -1.8348
 1397TIP3   OH2 4154   3.285   0.344   3.420  0.3860  0.0939  0.0435
 1397TIP3    H1 4155   3.372   0.363   3.385  0.6903 -0.8071  0.2851
 1397TIP3    H2 4156   3.275   0.249   3.408 -0.4375  0.1433  0.2986
 1398TIP3   OH2 4157   4.643   2.872   5.382  0.2401  0.9852 -0.3899
 1398TIP3    H1 4158   4.627   2.818   5.459 -1.8255  2.3518  0.2092
 1398TIP3    H2 4159   4.608   2.820   5.309  0.6145  0.4431 -0.1918
 1399TIP3   OH2 4160   3.165   1.388   2.493 -0.5786 -0.4712 -0.2456
 1399TIP3    H1 4161   3.143   1.478   2.517 -0.3833 -0.3107 -0.6486
 1399TIP3    H2 4162   3.247   1.396   2.444  0.2705 -1.0262  1.0256
 1400TIP3   OH2 4163   2.651   2.477   0.161  0.1150  0.0942  0.1689
 1400TIP3    H1 4164   2.657   2.557   0.214 -1.2270  0.8359 -0.7329
 1400TIP3    H2 4165   2.642   2.407   0.226  0.3614  0.7680  0.9563
 1401TIP3   OH2 4166   5.963   1.697   2.786 -0.5277 -0.4165 -0.4769
 1401TIP3    H1 4167   5.914   1.696   2.704 -0.0566  0.1256 -0.7815
 1401TIP3    H2 4168   6.054   1.684   2.759 -0.3505 -0.0782 -0.0585
 1402TIP3   OH2 4169   2.083   4.940   3.942  0.0106  0.5690  0.1722
 1402TIP3    H1 4170   2.098   4.954   4.035 -0.1005 -2.1743  0.7024
 1402TIP3    H2 4171   1.988   4.931   3.934 -0.1485  2.4635 -0.5425
 1403TIP3   OH2 4172   2.560   4.485   3.375 -0.4995  0.4093 -0.1536
 1403TIP3    H1 4173   2.525   4.474   3.287  1.6523 -0.0057 -1.0171
 1403TIP3    H2 4174   2.542   4.401   3.418  0.0513 -0.0695 -0.8278
 1404TIP3   OH2 4175   0.446   0.626   0.479  0.1725 -0.2411 -0.1621
 1404TIP3    H1 4176   0.372   0.666   0.524 -0.5105 -1.4611 -0.1479
 1404TIP3    H2 4177   0.523   0.651   0.531 -0.3861 -0.0674  0.5951
 1405TIP3   OH2 4178   2.323   6.000   2.507 -0.0129 -0.7077  0.5300
 1405TIP3    H1 4179   2.360   5.965   2.588  1.5049 -1.0864 -0.2934
 1405TIP3    H2 4180   2.364   6.086   2.497 -2.5142  0.7291  1.7068
 1406TIP3   OH2 4181   2.235   0.317   2.874 -0.5931  0.9814 -0.0139
 1406TIP3    H1 4182   2.186   0.240   2.901 -0.0123  0.5574 -0.1365
 1406TIP3    H2 4183   2.192   0.391   2.918 -2.5734  0.8966 -1.7053
 1407TIP3   OH2 4184   4.072   1.714   5.244 -0.1317  0.2617 -0.0419
 1407TIP3    H1 4185   4.076   1.799   5.200 -2.0118  0.1676 -0.4966
 1407TIP3    H2 4186   4.152   1.710   5.296 -0.4490  2.8017  0.8224
 1408TIP3   OH2 4187   4.536   4.428   5.344  0.1323  0.0864 -0.0771
 1408TIP3    H1 4188   4.545   4.431   5.439  0.0899 -1.5949  0.0085
 1408TIP3    H2 4189   4.604   4.487   5.312  0.4610  0.3021  0.9826
 1409TIP3   OH2 4190   3.025   2.575   1.092 -0.4371  0.3121  0.5393
 1409TIP3    H1 4191   3.044   2.491   1.049  0.7834 -0.3156  2.1980
 1409TIP3    H2 4192   3.111   2.610   1.114 -0.9600  1.8368  0.2226
 1410TIP3   OH2 4193   5.780   4.757   4.798  0.0626  0.2405 -0.8196
 1410TIP3    H1 4194   5.741   4.722   4.717  1.9189 -0.7815 -1.3180
 1410TIP3    H2 4195   5.869   4.781   4.773  0.3329  0.9046  0.6952
 1411TIP3   OH2 4196   5.659   2.796   3.034 -0.1344 -0.2600 -0.2518
 1411TIP3    H1 4197   5.595   2.738   2.993  0.1180 -0.3929 -0.4649
 1411TIP3    H2 4198   5.680   2.860   2.966 -0.0102 -0.2438 -0.1993
 1412TIP3   OH2 4199   0.070   2.570   4.250 -0.4400 -0.0407 -0.2961
 1412TIP3    H1 4200   0.093   2.494   4.303 -1.6556 -1.2249 -1.4067
 1412TIP3    H2 4201   0.092   2.645   4.306  0.3146 -1.1938  1.0191
 1413TIP3   OH2 4202   4.726   4.890   0.319 -0.1599 -0.4866  0.6058
 1413TIP3    H1 4203   4.724   4.798   0.291 -1.7162  0.1011 -1.4290
 1413TIP3    H2 4204   4.818   4.916   0.308  0.0119 -1.3809 -0.3032
 1414TIP3   OH2 4205   4.872   3.281   5.787  0.1409  0.4793  0.4702
 1414TIP3    H1 4206   4.937   3.351   5.778  1.6521 -1.1628 -2.9787
 1414TIP3    H2 4207   4.898   3.235   5.867  2.1124  0.9785  0.1575
 1415TIP3   OH2 4208   7.132   3.030   0.711  0.1110 -0.4148 -0.6013
 1415TIP3    H1 4209   7.139   2.951   0.658  0.7602 -0.1244 -0.9507
 1415TIP3    H2 4210   7.122   3.101   0.648  1.3103 -0.0184 -0.3658
 1416TIP3   OH2 4211   1.669   0.246   0.352 -0.3332  0.1063  0.4155
 1416TIP3    H1 4212   1.709   0.285   0.430  0.3645  1.4796 -0.5994
 1416TIP3    H2 4213   1.734   0.184   0.320 -0.4286 -0.1213  0.6596
 1417TIP3   OH2 4214   6.870   4.653   2.441 -0.7023  0.4303 -0.0251
 1417TIP3    H1 4215   6.957   4.615   2.456  0.0838  0.8823 -2.7407
 1417TIP3    H2 4216   6.856   4.711   2.515  1.7570  1.0408  0.0558
 1418TIP3   OH2 4217   5.738   0.122   3.948 -0.1698 -0.0633  0.7081
 1418TIP3    H1 4218   5.813   0.065   3.966 -0.0428 -0.7180 -1.5912
 1418TIP3    H2 4219   5.662   0.071   3.977 -0.0460 -1.3999 -1.1819
 1419TIP3   OH2 4220   6.983   6.743   2.844 -0.0740  0.5439 -0.4430
 1419TIP3    H1 4221   6.992   6.750   2.939  0.5195 -1.8014 -0.2493
 1419TIP3    H2 4222   6.891   6.721   2.830  0.1674 -0.6788 -0.2378
 1420TIP3   OH2 4223   3.878   2.905   0.676 -0.2037 -0.4143 -0.1521
 1420TIP3    H1 4224   3.831   2.826   0.649 -0.9219  0.4878 -1.7012
 1420TIP3    H2 4225   3.922   2.934   0.596  0.0109  0.7712  0.3851
 1421TIP3   OH2 4226   0.163   1.754   2.084  0.2592  0.3413 -0.1363
 1421TIP3    H1 4227   0.109   1.687   2.041  1.3363 -0.5138 -0.1969
 1421TIP3    H2 4228   0.103   1.797   2.146 -0.2496 -1.2791  0.5546
 1422TIP3   OH2 4229   3.429   3.106   2.899 -0.1920 -0.8951  0.0844
 1422TIP3    H1 4230   3.493   3.068   2.839 -1.2717 -0.6378 -1.3009
 1422TIP3    H2 4231   3.473   3.184   2.935  0.5108 -1.0975 -0.3188
 1423TIP3   OH2 4232   0.456   2.266   4.154  0.1263  0.3833  0.4738
 1423TIP3    H1 4233   0.430   2.319   4.229 -0.1369  1.5861 -0.4317
 1423TIP3    H2 4234   0.461   2.177   4.188  0.6588  0.9867  2.0614
 1424TIP3   OH2 4235   1.098   4.716   1.949  0.0860  0.9595 -0.4588
 1424TIP3    H1 4236   1.063   4.777   2.014  0.6964  2.2553 -1.3018
 1424TIP3    H2 4237   1.146   4.651   2.000 -1.4617  0.5401  0.5361
 1425TIP3   OH2 4238   5.370   6.684   0.825  0.0010 -0.3121  0.7185
 1425TIP3    H1 4239   5.319   6.713   0.901 -1.2097  0.6809 -0.4297
 1425TIP3    H2 4240   5.315   6.704   0.750  2.2638  1.2420 -0.6368
 1426TIP3   OH2 4241   5.318   2.529   2.614 -0.2867  0.5947  0.7067
 1426TIP3    H1 4242   5.271   2.514   2.696 -0.3557  0.5436  0.6586
 1426TIP3    H2 4243   5.295   2.618   2.589 -0.5003  0.5108  0.5939
 1427TIP3   OH2 4244   7.066   5.803   1.574  0.4982  0.0654  0.1667
 1427TIP3    H1 4245   7.128   5.843   1.635 -1.3485 -0.3528  2.4465
 1427TIP3    H2 4246   7.049   5.716   1.610  0.4290 -0.7784 -1.7941
 1428TIP3   OH2 4247   4.197   5.322   1.041  0.0461  0.8240 -0.1389
 1428TIP3    H1 4248   4.139   5.383   0.995  0.9205  1.1155 -0.8784
 1428TIP3    H2 4249   4.137   5.265   1.090 -0.8786  0.9327 -1.1022
 1429TIP3   OH2 4250   3.873   1.238   4.961  0.1296 -0.3146  0.1678
 1429TIP3    H1 4251   3.852   1.320   5.006  1.6010 -0.7368  1.7515
 1429TIP3    H2 4252   3.816   1.237   4.884 -0.5855  1.7342  0.6103
 1430TIP3   OH2 4253   2.030   2.245   1.155  0.3811 -0.1946  0.1887
 1430TIP3    H1 4254   1.973   2.252   1.078 -0.9474 -1.4029  1.0228
 1430TIP3    H2 4255   2.022   2.330   1.199 -0.0847 -0.0454 -0.1733
 1431TIP3   OH2 4256   5.758   4.102   5.507 -0.6563 -0.5878 -0.1773
 1431TIP3    H1 4257   5.796   4.178   5.552 -1.5116 -0.2399 -0.0253
 1431TIP3    H2 4258   5.761   4.032   5.572 -1.8074 -0.1112  0.4140
 1432TIP3   OH2 4259   0.863   6.204   1.272 -0.5509 -0.2066 -0.2826
 1432TIP3    H1 4260   0.890   6.231   1.184  0.4726  1.0296  0.3787
 1432TIP3    H2 4261   0.784   6.255   1.289  0.4058  1.1314  0.2882
 1433TIP3   OH2 4262   0.035   1.538   0.692  0.5373 -0.5515  0.0708
 1433TIP3    H1 4263   0.024   1.549   0.786 -0.6597  0.9067 -0.2036
 1433TIP3    H2 4264  -0.015   1.609   0.653  2.5634  0.0435 -1.6401
 1434TIP3   OH2 4265   3.306   3.173   4.128  0.0200  0.6387  0.5814
 1434TIP3    H1 4266   3.360   3.129   4.063  0.8433  2.4668 -0.0443
 1434TIP3    H2 4267   3.253   3.235   4.078  0.1175  1.5508  1.5691
 1435TIP3   OH2 4268   5.524   3.079   1.614 -0.5197 -0.6129 -0.2444
 1435TIP3    H1 4269   5.521   3.020   1.539  1.8042 -0.9895 -0.1031
 1435TIP3    H2 4270   5.550   3.024   1.688  0.1911  0.2742  0.1976
 1436TIP3   OH2 4271   3.673   1.713   2.461 -0.2641  0.0303  0.2993
 1436TIP3    H1 4272   3.702   1.671   2.381 -1.2637 -1.5274  0.7077
 1436TIP3    H2 4273   3.592   1.758   2.437  0.4936  1.2836  0.0005
 1437TIP3   OH2 4274   4.306   2.749   2.214 -0.2488 -0.4452  0.2163
 1437TIP3    H1 4275   4.264   2.749   2.300  0.1984 -0.7036  0.4365
 1437TIP3    H2 4276   4.258   2.815   2.164  1.0191  1.4741  1.4046
 1438TIP3   OH2 4277   4.158   4.398   4.171 -0.3228 -0.0386 -0.1091
 1438TIP3    H1 4278   4.169   4.373   4.079  0.7009  0.9137 -0.2586
 1438TIP3    H2 4279   4.244   4.382   4.210 -0.3115  1.0078  0.3241
 1439TIP3   OH2 4280   2.075   4.722   3.745  0.3743 -0.1512 -0.9451
 1439TIP3    H1 4281   2.034   4.766   3.819  0.2257 -0.4720 -0.8317
 1439TIP3    H2 4282   2.165   4.706   3.773  0.5624  0.5042 -1.1723
 1440TIP3   OH2 4283   2.957   6.092   0.922 -0.0890  0.2722  0.0973
 1440TIP3    H1 4284   2.942   6.179   0.959  0.2785 -0.1050  1.1476
 1440TIP3    H2 4285   2.944   6.104   0.828 -0.9913  1.2505  0.3300
 1441TIP3   OH2 4286   0.128   5.258   0.439  0.2498 -1.0177  0.1100
 1441TIP3    H1 4287   0.041   5.291   0.416 -0.1117 -1.4121  0.8680
 1441TIP3    H2 4288   0.167   5.329   0.490  0.9206 -0.2821 -1.3542
 1442TIP3   OH2 4289   4.324   3.072   1.372 -0.5769 -0.7961  0.5218
 1442TIP3    H1 4290   4.348   2.984   1.402  0.1885 -0.5928  0.5292
 1442TIP3    H2 4291   4.408   3.117   1.363 -1.0513  1.1382  4.1625
 1443TIP3   OH2 4292   6.302   6.425   5.448 -0.1569 -0.3333  0.2353
 1443TIP3    H1 4293   6.382   6.376   5.467  0.7432  0.7356 -0.6607
 1443TIP3    H2 4294   6.309   6.504   5.502  0.2590  0.5831 -1.1100
 1444TIP3   OH2 4295   3.091   5.994   5.520 -0.3337  0.3737 -0.1139
 1444TIP3    H1 4296   2.997   5.998   5.539 -0.9783 -1.0403 -2.6410
 1444TIP3    H2 4297   3.103   6.051   5.444  0.7644  0.1244 -0.1437
 1445TIP3   OH2 4298   5.341   0.892   0.550  0.3415 -0.4325 -0.9596
 1445TIP3    H1 4299   5.300   0.839   0.482  1.6736 -2.3616 -0.3254
 1445TIP3    H2 4300   5.291   0.974   0.549 -1.8034 -1.6664 -1.9692
 1446TIP3   OH2 4301   4.792   2.920   3.111 -0.2127 -0.4018  0.0187
 1446TIP3    H1 4302   4.873   2.963   3.084 -0.7271  0.2103 -0.5875
 1446TIP3    H2 4303   4.806   2.899   3.204  0.1138  0.9572  0.2960
 1447TIP3   OH2 4304   5.783   5.280   2.294 -0.0805  0.0713  0.1791
 1447TIP3    H1 4305   5.773   5.185   2.307 -0.9672  0.2589  0.9838
 1447TIP3    H2 4306   5.696   5.315   2.311  0.2378  1.0352 -0.1449
 1448TIP3   OH2 4307   4.971   0.862   5.667  0.0892 -0.0589  0.3035
 1448TIP3    H1 4308   4.953   0.942   5.717 -0.5940 -1.1834  1.9154
 1448TIP3    H2 4309   4.885   0.835   5.634  0.2574 -0.3442  0.0972
 1449TIP3   OH2 4310   6.051   4.465   3.939 -0.5869  0.7132  0.1051
 1449TIP3    H1 4311   6.141   4.472   3.973 -0.4171 -0.6039 -0.0210
 1449TIP3    H2 4312   6.062   4.425   3.853 -1.3297 -0.0559  0.3568
 1450TIP3   OH2 4313   5.077   2.204   2.792  0.2484  0.1135  0.1477
 1450TIP3    H1 4314   5.076   2.227   2.885 -0.9511  0.3133  0.0993
 1450TIP3    H2 4315   5.114   2.281   2.749 -0.6278  0.6428  0.3207
 1451TIP3   OH2 4316   0.567   4.167   5.764 -0.2666  0.0152 -0.2959
 1451TIP3    H1 4317   0.509   4.093   5.782  0.6351 -1.0232 -1.4645
 1451TIP3    H2 4318   0.561   4.222   5.842 -1.6877 -0.8042  0.2005
 1452TIP3   OH2 4319   3.896   1.868   2.560  0.3770 -0.2814 -0.0784
 1452TIP3    H1 4320   3.842   1.807   2.509 -0.4541 -0.8350  1.4104
 1452TIP3    H2 4321   3.949   1.812   2.616  2.1607  0.2805 -1.1423
 1453TIP3   OH2 4322   4.368   3.721   0.554  0.2774  0.0585  0.3563
 1453TIP3    H1 4323   4.302   3.761   0.611 -2.8622 -3.3030 -0.5145
 1453TIP3    H2 4324   4.333   3.735   0.465  0.7405 -1.6783 -0.1404
 1454TIP3   OH2 4325   6.156   1.455   1.360  0.2310 -0.2795  0.0102
 1454TIP3    H1 4326   6.139   1.394   1.289  0.8562 -0.6050  0.1326
 1454TIP3    H2 4327   6.071   1.494   1.380  0.1111  0.0944 -1.1628
 1455TIP3   OH2 4328   4.094   6.459   4.885 -0.1506 -0.3273  0.0904
 1455TIP3    H1 4329   4.102   6.493   4.974  0.5849 -1.4261  0.4625
 1455TIP3    H2 4330   4.146   6.379   4.885  2.5333  1.2177 -2.1771
 1456TIP3   OH2 4331   5.107   3.118   1.477  0.3634 -0.0066  0.5879
 1456TIP3    H1 4332   5.043   3.190   1.481 -0.8801 -0.8901 -1.6851
 1456TIP3    H2 4333   5.178   3.152   1.423  0.7553  0.2035  1.2308
 1457TIP3   OH2 4334   1.339   5.431   3.457 -0.2714  0.5984 -0.0286
 1457TIP3    H1 4335   1.290   5.349   3.461 -0.7100  0.8132 -0.7805
 1457TIP3    H2 4336   1.431   5.404   3.447 -0.2387  0.1961  1.2412
 1458TIP3   OH2 4337   2.491   3.871   2.742  0.2720 -0.1245 -0.1284
 1458TIP3    H1 4338   2.433   3.921   2.800  0.8627  0.1588  0.2226
 1458TIP3    H2 4339   2.579   3.886   2.777  0.5262 -0.8272 -0.4547
 1459TIP3   OH2 4340   3.253   6.351   1.936 -0.5426  0.2364 -0.1407
 1459TIP3    H1 4341   3.266   6.375   2.027 -0.6648 -1.6996  0.4426
 1459TIP3    H2 4342   3.161   6.370   1.919 -0.6315  0.1979  0.2865
 1460TIP3   OH2 4343   3.704   1.282   1.312  0.3129  0.1784 -0.2859
 1460TIP3    H1 4344   3.643   1.279   1.386  1.6663 -1.2248  0.8335
 1460TIP3    H2 4345   3.648   1.275   1.234 -0.9630 -1.1796  0.7070
 1461TIP3   OH2 4346   1.681   2.912   4.635  0.5317  0.0523  0.1591
 1461TIP3    H1 4347   1.612   2.949   4.580  0.7280 -2.2654 -1.8265
 1461TIP3    H2 4348   1.639   2.839   4.681  1.1417 -0.0135  0.6336
 1462TIP3   OH2 4349   0.934   0.988   3.379  0.2596  0.0075  0.5896
 1462TIP3    H1 4350   0.878   1.029   3.444  0.9260 -0.0794  1.2257
 1462TIP3    H2 4351   1.013   1.042   3.376  0.0817  0.2397 -0.4369
 1463TIP3   OH2 4352   3.922   2.213   1.261 -0.4310 -0.0199 -0.0068
 1463TIP3    H1 4353   3.865   2.271   1.209 -0.6560 -0.9506 -0.8366
 1463TIP3    H2 4354   3.909   2.127   1.222  0.4384 -0.5053  0.7571
 1464TIP3   OH2 4355   1.588   3.177   3.340 -0.2728 -0.0889 -0.2812
 1464TIP3    H1 4356   1.593   3.215   3.427 -0.1475  0.0943 -0.3668
 1464TIP3    H2 4357   1.671   3.131   3.328 -1.0317 -1.7383  0.4292
 1465TIP3   OH2 4358   7.014   1.034   4.432 -0.2441  0.6416  0.8058
 1465TIP3    H1 4359   6.961   1.111   4.412  0.7623  0.9559 -0.7919
 1465TIP3    H2 4360   7.096   1.048   4.385 -0.1044 -1.4859  0.3130
 1466TIP3   OH2 4361   2.106   6.534   5.581  0.7191 -0.2274 -0.5406
 1466TIP3    H1 4362   2.154   6.561   5.503  0.7849 -0.6555 -0.6488
 1466TIP3    H2 4363   2.097   6.440   5.572  2.6156 -0.6219  1.0183
 1467TIP3   OH2 4364   6.641   0.046   5.617 -0.8946  0.8899  0.3475
 1467TIP3    H1 4365   6.604   0.103   5.685  2.0996  0.2374  2.7427
 1467TIP3    H2 4366   6.694   0.105   5.563 -0.1724  0.8656  1.0095
 1468TIP3   OH2 4367   6.272   5.109   0.579  0.1878  0.0840 -0.7127
 1468TIP3    H1 4368   6.258   5.116   0.674  0.1519 -1.1928 -0.6068
 1468TIP3    H2 4369   6.318   5.026   0.568  1.0367  0.6656 -1.7443
 1469TIP3   OH2 4370   1.839   2.790   5.616  0.2876  0.4748  0.1056
 1469TIP3    H1 4371   1.802   2.727   5.678 -1.4312 -0.3477 -1.6308
 1469TIP3    H2 4372   1.934   2.775   5.620  0.1449 -0.2165  1.7645
 1470TIP3   OH2 4373   2.356   2.288   2.392  0.4930 -0.8818 -0.4365
 1470TIP3    H1 4374   2.413   2.228   2.441 -1.6587 -1.2986  1.7659
 1470TIP3    H2 4375   2.269   2.271   2.427 -0.6708  1.3144 -2.0627
 1471TIP3   OH2 4376   5.907   1.902   5.228 -0.2114 -0.3080  0.7874
 1471TIP3    H1 4377   5.840   1.959   5.189 -0.4654 -0.7348  0.5944
 1471TIP3    H2 4378   5.891   1.816   5.189  1.5426 -0.0634 -0.5883
 1472TIP3   OH2 4379   6.181   1.452   4.379 -0.3785  0.2875 -0.5871
 1472TIP3    H1 4380   6.089   1.429   4.390  0.3206 -1.9282  1.4722
 1472TIP3    H2 4381   6.185   1.546   4.396 -2.2462  0.4254 -0.7609
 1473TIP3   OH2 4382   0.300   4.962   4.335  0.1858  0.0369 -0.3142
 1473TIP3    H1 4383   0.380   4.959   4.283  0.0375  0.2572 -0.5591
 1473TIP3    H2 4384   0.309   5.041   4.389  0.9001 -0.8519  0.9206
 1474TIP3   OH2 4385   7.000   5.875   0.773  0.0464 -0.5198  0.1178
 1474TIP3    H1 4386   7.069   5.827   0.726 -1.4532 -1.1006 -1.6422
 1474TIP3    H2 4387   7.005   5.964   0.738 -0.5133 -0.7406 -0.5645
 1475TIP3   OH2 4388   1.185   3.876   5.327 -0.3380 -0.6996 -0.0099
 1475TIP3    H1 4389   1.224   3.858   5.413 -0.6330 -1.4258 -0.0160
 1475TIP3    H2 4390   1.244   3.939   5.286  0.0559 -0.6991  0.5435
 1476TIP3   OH2 4391   4.720   0.737   2.133  0.9344  0.6373 -0.4152
 1476TIP3    H1 4392   4.815   0.734   2.123  1.0693  0.4897  0.7510
 1476TIP3    H2 4393   4.689   0.663   2.081  1.5142  0.3219 -0.3321
 1477TIP3   OH2 4394   1.446   0.686   0.107  0.4875  0.4313 -0.1622
 1477TIP3    H1 4395   1.431   0.592   0.114  2.9215  0.1106  2.7620
 1477TIP3    H2 4396   1.512   0.705   0.173 -1.3281  4.5495  0.8161
 1478TIP3   OH2 4397   1.367   5.091   2.943 -0.5727 -0.2153  0.0546
 1478TIP3    H1 4398   1.408   5.071   2.859 -1.6122 -1.1229 -0.2681
 1478TIP3    H2 4399   1.334   5.006   2.973 -0.2529  0.1070  1.3658
 1479TIP3   OH2 4400   1.386   3.659   5.809 -0.3370 -0.5229 -0.4753
 1479TIP3    H1 4401   1.316   3.686   5.750 -0.1505 -0.2672 -0.5832
 1479TIP3    H2 4402   1.366   3.701   5.892 -0.6939 -1.0232 -0.3060
 1480TIP3   OH2 4403   6.906   2.698   5.902 -0.2799 -0.0828  0.5926
 1480TIP3    H1 4404   6.877   2.613   5.869  1.7404 -1.3994  1.9900
 1480TIP3    H2 4405   6.960   2.733   5.831  2.6296 -2.1257  1.6054
 1481TIP3   OH2 4406   6.179   5.279   5.621 -0.3964 -0.4292  0.4780
 1481TIP3    H1 4407   6.196   5.185   5.618  0.9420 -0.2258  0.7910
 1481TIP3    H2 4408   6.233   5.315   5.550 -2.0512 -0.0238 -0.6395
 1482TIP3   OH2 4409   2.816   4.581   1.583  0.1497 -0.3858  0.1975
 1482TIP3    H1 4410   2.740   4.563   1.637 -2.5326 -1.9831 -3.6442
 1482TIP3    H2 4411   2.786   4.644   1.518  2.2862 -0.5993 -1.1254
 1483TIP3   OH2 4412   2.298   0.204   5.015 -0.3690 -0.1228 -0.2535
 1483TIP3    H1 4413   2.326   0.225   4.925 -0.1945  2.6874  0.3658
 1483TIP3    H2 4414   2.377   0.168   5.056  0.0688  0.2813 -0.7194
 1484TIP3   OH2 4415   4.815   2.429   4.927  0.1483 -0.1984 -0.1255
 1484TIP3    H1 4416   4.734   2.400   4.887 -0.2595  1.2160 -0.3923
 1484TIP3    H2 4417   4.880   2.428   4.856  0.4443 -1.5509  0.1412
 1485TIP3   OH2 4418   3.393   3.439   2.350  0.2746 -0.4193 -0.1846
 1485TIP3    H1 4419   3.350   3.454   2.434  0.2675  0.0754 -0.2742
 1485TIP3    H2 4420   3.321   3.423   2.288  0.2225  0.2255 -0.2975
 1486TIP3   OH2 4421   6.895   2.065   1.599 -0.1560 -0.1015 -0.5975
 1486TIP3    H1 4422   6.950   2.140   1.623 -0.1224 -1.0107  2.6513
 1486TIP3    H2 4423   6.853   2.091   1.517  0.9395  2.8750 -0.3311
 1487TIP3   OH2 4424   0.104   6.769   5.819 -0.4141  0.0303  0.6973
 1487TIP3    H1 4425   0.051   6.695   5.847  0.6914 -0.0904  2.6302
 1487TIP3    H2 4426   0.076   6.786   5.729 -0.9742 -2.4571  0.3390
 1488TIP3   OH2 4427   5.606   0.614   5.295 -0.1095 -0.2206 -0.4364
 1488TIP3    H1 4428   5.618   0.628   5.200  2.4305  4.1710  0.2305
 1488TIP3    H2 4429   5.678   0.557   5.320  1.8883  2.0166 -0.7221
 1489TIP3   OH2 4430   0.759   5.119   1.817 -0.1978 -0.6703 -0.1516
 1489TIP3    H1 4431   0.806   5.087   1.740  0.6184  1.1051 -0.4482
 1489TIP3    H2 4432   0.688   5.056   1.830  1.3755 -2.6331 -0.5589
 1490TIP3   OH2 4433   6.662   0.758   4.335  0.2922  0.0506 -0.4728
 1490TIP3    H1 4434   6.743   0.775   4.383  0.5449  2.5337 -1.6109
 1490TIP3    H2 4435   6.687   0.696   4.267  0.6515 -1.0219  0.5953
 1491TIP3   OH2 4436   2.711   6.268   5.405 -0.1326  0.1442  0.6511
 1491TIP3    H1 4437   2.739   6.190   5.451  1.6690  0.8991  0.9090
 1491TIP3    H2 4438   2.693   6.332   5.475  2.5155  1.2629  0.4012
 1492TIP3   OH2 4439   5.914   5.951   1.723  0.3980 -0.4853  0.3278
 1492TIP3    H1 4440   5.944   5.861   1.715 -3.7004 -1.9611 -0.7799
 1492TIP3    H2 4441   5.881   5.973   1.636  0.0683  1.6138  0.9282
 1493TIP3   OH2 4442   0.533   4.648   0.900 -0.1772  0.3344 -0.5074
 1493TIP3    H1 4443   0.623   4.652   0.932 -0.7306 -0.5682  1.2831
 1493TIP3    H2 4444   0.542   4.639   0.805  1.6012  0.5645 -0.3945
 1494TIP3   OH2 4445   1.208   4.491   2.056  0.0582  0.2675  0.9337
 1494TIP3    H1 4446   1.120   4.473   2.022  1.1342 -0.7824 -1.5579
 1494TIP3    H2 4447   1.248   4.404   2.062  1.6506  0.8736 -0.2432
 1495TIP3   OH2 4448   5.062   6.094   0.107  0.1681 -0.3364 -0.4308
 1495TIP3    H1 4449   5.090   6.150   0.179  2.4777  0.1889 -1.6190
 1495TIP3    H2 4450   5.013   6.024   0.149  0.8665  0.2976  1.5804
 1496TIP3   OH2 4451   2.291   1.522   4.536  0.1207 -0.0747  0.4824
 1496TIP3    H1 4452   2.314   1.458   4.469  0.7962  1.0041 -0.3553
 1496TIP3    H2 4453   2.263   1.470   4.611 -0.5378 -1.3158 -0.5875
 1497TIP3   OH2 4454   5.346   3.154   4.716 -0.3832 -0.2174  0.6989
 1497TIP3    H1 4455   5.410   3.145   4.646  1.2193 -4.1237  2.3336
 1497TIP3    H2 4456   5.397   3.180   4.793 -1.7750  2.0805  0.9271
 1498TIP3   OH2 4457   4.288   4.887   2.318  0.3018 -0.0440 -0.3230
 1498TIP3    H1 4458   4.286   4.799   2.355 -0.8747  0.2652  0.3719
 1498TIP3    H2 4459   4.284   4.946   2.393 -0.4093  0.5980 -0.8475
 1499TIP3   OH2 4460   0.302   4.253   5.051 -0.6054 -0.0268 -0.0746
 1499TIP3    H1 4461   0.290   4.160   5.073  0.0834 -0.3359 -0.9661
 1499TIP3    H2 4462   0.328   4.253   4.959 -0.2748  1.0296  0.0082
 1500TIP3   OH2 4463   0.742   2.979   4.304 -0.3659  0.1432  0.3176
 1500TIP3    H1 4464   0.664   3.031   4.325 -0.4852  0.4148 -0.7150
 1500TIP3    H2 4465   0.812   3.044   4.295  0.0330 -0.1198  1.4554
 1501TIP3   OH2 4466   1.832   5.725   1.186  0.0366 -0.6904 -1.1443
 1501TIP3    H1 4467   1.912   5.733   1.134  1.8964  0.7049  1.7064
 1501TIP3    H2 4468   1.839   5.639   1.227  0.7618 -0.0842  0.0579
 1502TIP3   OH2 4469   0.682   4.824   1.315  0.1380  0.6535 -0.3669
 1502TIP3    H1 4470   0.673   4.919   1.326 -1.1224  0.7101 -1.5610
 1502TIP3    H2 4471   0.592   4.793   1.308  0.5580 -0.5749 -0.5110
 1503TIP3   OH2 4472   1.523   1.444   0.834  0.3490  0.3309  0.0895
 1503TIP3    H1 4473   1.521   1.365   0.888 -1.3454 -1.6926 -2.6627
 1503TIP3    H2 4474   1.577   1.506   0.884  3.7025 -3.2534  1.4705
 1504TIP3   OH2 4475   3.685   2.296   3.950  0.8023 -0.3020 -0.8108
 1504TIP3    H1 4476   3.717   2.210   3.979  1.0291 -0.2133 -0.7975
 1504TIP3    H2 4477   3.605   2.309   4.000  1.2419 -0.1048 -0.1389
 1505TIP3   OH2 4478   2.775   0.786   4.766  0.0383 -0.3491  0.0279
 1505TIP3    H1 4479   2.682   0.804   4.783  0.3185  1.2270  0.0033
 1505TIP3    H2 4480   2.818   0.871   4.773  0.8994 -0.2400 -3.9582
 1506TIP3   OH2 4481   5.476   2.595   4.581  0.4593  0.5681 -0.7879
 1506TIP3    H1 4482   5.529   2.593   4.660 -0.2541  0.2295 -0.3003
 1506TIP3    H2 4483   5.514   2.664   4.527 -0.5376  2.5767  0.9315
 1507TIP3   OH2 4484   1.171   1.819   1.235 -0.0130 -0.0379 -0.1418
 1507TIP3    H1 4485   1.218   1.884   1.184  1.2928  0.2800  1.3929
 1507TIP3    H2 4486   1.099   1.868   1.276  2.0297  0.9881  2.4937
 1508TIP3   OH2 4487   5.386   6.448   3.825 -0.4891  0.1972 -0.0395
 1508TIP3    H1 4488   5.391   6.494   3.909  1.6441 -1.9450  1.1170
 1508TIP3    H2 4489   5.320   6.379   3.839 -0.2204 -0.0874 -0.1677
 1509TIP3   OH2 4490   2.632   4.478   5.437  0.2287  0.3462 -0.4662
 1509TIP3    H1 4491   2.713   4.444   5.474  0.9926  1.6655 -0.9066
 1509TIP3    H2 4492   2.637   4.456   5.344  0.7240  1.6343 -0.7528
 1510TIP3   OH2 4493   2.746   3.213   2.540  0.0497 -0.0840  0.3416
 1510TIP3    H1 4494   2.801   3.280   2.581  0.8205 -0.4290 -0.0950
 1510TIP3    H2 4495   2.803   3.136   2.533 -1.1546 -1.1732  1.8693
 1511TIP3   OH2 4496   1.305   5.282   0.495  0.0121 -0.0713  0.7530
 1511TIP3    H1 4497   1.260   5.276   0.579 -0.0450  0.0266  0.7293
 1511TIP3    H2 4498   1.278   5.204   0.447 -2.1555  1.2199 -0.2645
 1512TIP3   OH2 4499   3.986   3.089   5.540  0.0904 -0.6223  0.2780
 1512TIP3    H1 4500   3.961   3.170   5.584  0.4099 -0.7378  0.6843
 1512TIP3    H2 4501   3.941   3.092   5.456 -0.9602 -0.6398  0.8279
 1513TIP3   OH2 4502   2.364   2.889   0.252  0.2182  0.5989 -0.3477
 1513TIP3    H1 4503   2.402   2.970   0.218  0.2500  0.1823 -1.3453
 1513TIP3    H2 4504   2.274   2.888   0.217  0.1435  0.3144 -0.1559
 1514TIP3   OH2 4505   0.506   0.152   4.681 -0.4856 -0.2879 -1.5062
 1514TIP3    H1 4506   0.593   0.122   4.706  0.3139  1.1258 -2.4891
 1514TIP3    H2 4507   0.501   0.136   4.587 -1.3852 -0.5545 -1.4236
 1515TIP3   OH2 4508   3.671   0.643   2.873  0.5756 -0.0891  0.0462
 1515TIP3    H1 4509   3.722   0.564   2.852 -0.8857 -0.5858 -2.0111
 1515TIP3    H2 4510   3.586   0.609   2.900  0.8800  0.7595  2.2343
 1516TIP3   OH2 4511   0.740   0.166   2.626  0.1073  0.2347  0.1658
 1516TIP3    H1 4512   0.779   0.247   2.594  0.1615  0.1680  0.0622
 1516TIP3    H2 4513   0.762   0.163   2.719 -0.2230  0.5295  0.2529
 1517TIP3   OH2 4514   4.102   3.615   2.746  0.4533 -0.0704  0.1799
 1517TIP3    H1 4515   4.151   3.672   2.687 -2.1539 -0.3486 -2.5081
 1517TIP3    H2 4516   4.039   3.570   2.689 -1.4350 -1.3466  3.0205
 1518TIP3   OH2 4517   0.630   4.135   4.493  0.2493 -0.2763  0.1456
 1518TIP3    H1 4518   0.716   4.152   4.532 -0.3851 -0.1362  1.5284
 1518TIP3    H2 4519   0.598   4.057   4.537 -0.7450  0.2389  0.3679
 1519TIP3   OH2 4520   1.713   4.046   5.142  0.2149  0.0329  0.0266
 1519TIP3    H1 4521   1.774   4.094   5.198 -1.0194  1.3756  0.2515
 1519TIP3    H2 4522   1.768   4.014   5.070  1.6014 -0.7448  1.3599
 1520TIP3   OH2 4523   4.164   1.971   0.924 -0.3513  0.4336  0.3383
 1520TIP3    H1 4524   4.163   1.875   0.917 -0.5432  0.4468  0.1809
 1520TIP3    H2 4525   4.249   1.991   0.964  0.1404  0.2634 -0.5819
 1521TIP3   OH2 4526   6.533   6.252   3.097  0.3129 -1.0586  0.4657
 1521TIP3    H1 4527   6.492   6.319   3.043 -1.0497  0.2686  2.9301
 1521TIP3    H2 4528   6.524   6.171   3.047 -2.1504 -0.1624 -0.6722
 1522TIP3   OH2 4529   1.432   4.393   2.615 -0.0704 -0.2682 -0.1812
 1522TIP3    H1 4530   1.450   4.345   2.535 -0.2791  0.0366 -0.4129
 1522TIP3    H2 4531   1.514   4.389   2.665 -0.1722 -1.1026 -0.0671
 1523TIP3   OH2 4532   1.310   3.419   5.675  0.2572  0.0715 -0.5257
 1523TIP3    H1 4533   1.276   3.466   5.598  2.4747  0.2379 -1.5023
 1523TIP3    H2 4534   1.328   3.488   5.739 -2.7063 -0.1707  0.7107
 1524TIP3   OH2 4535   1.542   0.166   4.507  0.4994  0.1753  0.9035
 1524TIP3    H1 4536   1.527   0.071   4.499  1.4136  0.0912  0.0404
 1524TIP3    H2 4537   1.613   0.174   4.570  1.5815  0.1782 -0.2867
 1525TIP3   OH2 4538   2.999   2.196   3.845 -0.2215 -0.1349 -0.3221
 1525TIP3    H1 4539   3.047   2.196   3.927 -1.1834 -0.9540  0.2584
 1525TIP3    H2 4540   2.999   2.288   3.817 -1.6479  0.5262  1.6451
 1526TIP3   OH2 4541   0.877   5.752   3.599 -0.2132  0.5956  0.0794
 1526TIP3    H1 4542   0.965   5.756   3.636 -0.3947 -0.0085  0.5901
 1526TIP3    H2 4543   0.884   5.686   3.529 -0.8505 -1.4335  1.8358
 1527TIP3   OH2 4544   4.078   2.279   1.457  0.1107 -0.3488  0.2182
 1527TIP3    H1 4545   4.164   2.288   1.417  0.3164  2.8447  1.1601
 1527TIP3    H2 4546   4.021   2.249   1.386  1.5039 -0.0896 -1.0489
 1528TIP3   OH2 4547   3.336   2.712   1.843  0.6551  0.0842 -0.3064
 1528TIP3    H1 4548   3.405   2.775   1.865  1.2026 -0.5482 -0.1829
 1528TIP3    H2 4549   3.337   2.649   1.916 -0.7839  0.6602  0.2439
 1529TIP3   OH2 4550   0.615   4.608   3.564 -0.2127 -0.0720 -0.0882
 1529TIP3    H1 4551   0.609   4.661   3.644 -2.5575 -0.4561  0.0489
 1529TIP3    H2 4552   0.529   4.567   3.555  0.9448 -2.4717 -1.1835
 1530TIP3   OH2 4553   5.124   6.041   3.790  0.0344 -1.0104 -0.1112
 1530TIP3    H1 4554   5.159   6.082   3.711  0.2687 -1.9415 -0.5010
 1530TIP3    H2 4555   5.143   6.104   3.860 -0.4998 -0.0109 -0.8358
 1531TIP3   OH2 4556   2.972   3.581   4.560 -0.0993 -0.0356  0.2195
 1531TIP3    H1 4557   2.922   3.600   4.639  0.1337 -0.4527  0.4712
 1531TIP3    H2 4558   2.906   3.555   4.495 -0.2517 -0.0951  0.3990
 1532TIP3   OH2 4559   0.260   6.352   1.205  0.5988  0.5902  0.2188
 1532TIP3    H1 4560   0.310   6.395   1.136  2.9582 -2.3401 -0.1078
 1532TIP3    H2 4561   0.321   6.347   1.279 -0.5662  0.3252  1.1894
 1533TIP3   OH2 4562   3.674   1.334   2.705  0.0517 -0.3109  0.6064
 1533TIP3    H1 4563   3.591   1.381   2.708  0.5102  0.6090 -0.3341
 1533TIP3    H2 4564   3.738   1.400   2.677  0.6185 -1.6336 -1.4649
 1534TIP3   OH2 4565   2.068   6.267   5.604  0.0905  0.1382  0.2236
 1534TIP3    H1 4566   2.131   6.212   5.556 -0.3782  0.1964 -0.4728
 1534TIP3    H2 4567   2.034   6.209   5.673 -1.0732 -0.7656 -1.0613
 1535TIP3   OH2 4568   4.261   0.512   5.552 -0.1739  0.9636 -0.7157
 1535TIP3    H1 4569   4.169   0.496   5.530 -0.3725  4.5661 -3.7169
 1535TIP3    H2 4570   4.310   0.459   5.489 -0.3110  0.9111 -0.7792
 1536TIP3   OH2 4571   7.100   1.958   1.184 -0.5349  0.3729  0.0485
 1536TIP3    H1 4572   7.130   1.873   1.217 -2.5398 -0.6792 -0.6488
 1536TIP3    H2 4573   7.140   1.966   1.098 -1.9962 -0.9435 -0.8130
 1537TIP3   OH2 4574   2.671   6.469   1.058  0.2950  0.1301  0.4158
 1537TIP3    H1 4575   2.603   6.434   1.002  0.2617 -0.8053  1.0115
 1537TIP3    H2 4576   2.624   6.511   1.130  0.3418  0.9498 -0.0199
 1538TIP3   OH2 4577   5.818   5.390   2.622 -0.1929  0.1736  0.0278
 1538TIP3    H1 4578   5.774   5.449   2.683 -2.0957 -0.5981 -0.5377
 1538TIP3    H2 4579   5.804   5.429   2.536  2.6267  1.3450 -0.0279
 1539TIP3   OH2 4580   2.222   0.735   0.178  0.3275 -0.6688  0.4642
 1539TIP3    H1 4581   2.257   0.685   0.104  0.3272 -0.5173  0.3607
 1539TIP3    H2 4582   2.251   0.687   0.256 -0.1875 -1.1646  0.3524
 1540TIP3   OH2 4583   1.898   2.107   3.683  0.3263  0.4641  0.6018
 1540TIP3    H1 4584   1.931   2.040   3.623 -0.0140  0.4844  0.3870
 1540TIP3    H2 4585   1.817   2.137   3.642  0.5026  1.0449  0.6709
 1541TIP3   OH2 4586   3.655   4.513   3.214  0.0592  0.6954 -0.0955
 1541TIP3    H1 4587   3.604   4.582   3.255 -1.8977 -1.1908  0.7946
 1541TIP3    H2 4588   3.635   4.520   3.121 -1.4705  0.3189  0.1812
 1542TIP3   OH2 4589   4.943   3.683   4.232 -0.5434 -0.4291  0.2912
 1542TIP3    H1 4590   4.958   3.745   4.303 -1.1224 -0.0156  0.0679
 1542TIP3    H2 4591   4.968   3.731   4.153 -2.8412  0.2626 -0.0836
 1543TIP3   OH2 4592   5.982   6.107   4.517  0.3789  0.5325 -0.4670
 1543TIP3    H1 4593   5.910   6.165   4.491 -0.0959  0.2480  0.1733
 1543TIP3    H2 4594   6.035   6.161   4.577 -0.3842  0.1502  0.5910
 1544TIP3   OH2 4595   1.824   1.616   1.656 -0.3175  0.1769  0.2727
 1544TIP3    H1 4596   1.777   1.558   1.596 -1.3091 -1.1547  2.2508
 1544TIP3    H2 4597   1.761   1.685   1.678  0.3065  1.1231 -0.7607
 1545TIP3   OH2 4598   3.845   4.761   4.008  0.0157 -0.6052 -0.4576
 1545TIP3    H1 4599   3.870   4.699   4.077  0.7575  0.6161  0.4101
 1545TIP3    H2 4600   3.754   4.739   3.988 -0.9431  0.2841  2.3976
 1546TIP3   OH2 4601   6.153   4.046   1.925 -0.2625  0.3722  0.3121
 1546TIP3    H1 4602   6.058   4.042   1.936 -0.2306  1.5275  1.2434
 1546TIP3    H2 4603   6.185   3.965   1.965 -0.9169 -0.6359 -1.1283
 1547TIP3   OH2 4604   1.224   1.306   4.717  0.0230 -0.4480 -0.2742
 1547TIP3    H1 4605   1.221   1.211   4.720  2.1087 -0.5453  0.3274
 1547TIP3    H2 4606   1.291   1.330   4.781 -2.8295  1.6638  2.1994
 1548TIP3   OH2 4607   3.255   5.823   3.080  0.2405 -0.5853  0.1853
 1548TIP3    H1 4608   3.337   5.797   3.039  0.5260  1.2149 -0.4717
 1548TIP3    H2 4609   3.193   5.833   3.008  0.9476  3.3651 -0.1062
 1549TIP3   OH2 4610   4.099   0.552   1.389  0.1705 -0.2778 -0.0547
 1549TIP3    H1 4611   4.039   0.554   1.314  0.1039  1.1971  0.0095
 1549TIP3    H2 4612   4.041   0.552   1.465  0.2060  1.8126  0.0176
 1550TIP3   OH2 4613   1.973   2.698   4.835  0.1459 -0.2462 -0.0940
 1550TIP3    H1 4614   2.016   2.615   4.816 -1.0424 -0.7441 -0.7311
 1550TIP3    H2 4615   1.937   2.726   4.750 -0.8994  0.0705  0.4353
 1551TIP3   OH2 4616   1.710   0.984   5.068  0.0495 -1.0961 -0.8137
 1551TIP3    H1 4617   1.798   1.020   5.078 -0.6930  0.2164  1.6342
 1551TIP3    H2 4618   1.657   1.058   5.039 -0.5374 -1.4844 -0.7364
 1552TIP3   OH2 4619   3.763   0.893   4.427 -0.2747 -0.0773 -0.4681
 1552TIP3    H1 4620   3.713   0.889   4.346 -0.4084 -0.7599 -0.3605
 1552TIP3    H2 4621   3.853   0.907   4.399  0.0405 -2.4427 -0.8972
 1553TIP3   OH2 4622   0.544   1.123   5.532  0.1064  0.3218 -0.1577
 1553TIP3    H1 4623   0.629   1.093   5.500 -0.0038  0.4696 -0.6046
 1553TIP3    H2 4624   0.492   1.043   5.541  0.2450  0.2463 -0.0297
 1554TIP3   OH2 4625   6.963   3.870   3.139 -0.0811  0.4025 -0.0973
 1554TIP3    H1 4626   6.960   3.836   3.049  1.2592 -0.1034  0.0326
 1554TIP3    H2 4627   7.045   3.919   3.144  0.6653 -0.9060  1.2915
 1555TIP3   OH2 4628   0.925   2.777   4.483  0.2480  0.3165  0.2571
 1555TIP3    H1 4629   0.896   2.774   4.391  1.1667  1.3715 -0.0931
 1555TIP3    H2 4630   0.897   2.863   4.514 -0.9005 -0.4044  1.2853
 1556TIP3   OH2 4631   2.460   2.510   0.772  0.3037 -0.3606  0.1766
 1556TIP3    H1 4632   2.439   2.520   0.865 -0.2030 -0.4096  0.0696
 1556TIP3    H2 4633   2.445   2.596   0.734  1.9319  0.0569  0.4004
 1557TIP3   OH2 4634   1.034   0.460   1.608 -0.0324 -0.2927 -0.0288
 1557TIP3    H1 4635   0.989   0.453   1.693  0.2393 -1.0534  0.0573
 1557TIP3    H2 4636   0.978   0.412   1.547 -0.8734  1.2798 -0.5688
 1558TIP3   OH2 4637   5.896   3.979   1.933 -0.0211 -0.0172 -0.0492
 1558TIP3    H1 4638   5.840   3.959   2.007  1.6607  0.0075  1.2833
 1558TIP3    H2 4639   5.864   3.922   1.863 -1.5751 -0.1110  0.6975
 1559TIP3   OH2 4640   6.091   1.595   3.829  0.4482 -0.2639 -0.4644
 1559TIP3    H1 4641   6.108   1.528   3.895 -0.0294  0.3900  0.3449
 1559TIP3    H2 4642   6.060   1.546   3.753  2.8367 -1.2138 -0.9237
 1560TIP3   OH2 4643   1.618   5.890   2.807  0.4203  0.2741  0.1878
 1560TIP3    H1 4644   1.609   5.894   2.712  1.7283  2.8434  0.0697
 1560TIP3    H2 4645   1.705   5.925   2.824 -0.1077  0.6830  2.3764
 1561TIP3   OH2 4646   1.171   5.174   4.135 -0.0088  0.6536  0.2979
 1561TIP3    H1 4647   1.081   5.206   4.129 -0.5610 -0.7273  0.9193
 1561TIP3    H2 4648   1.176   5.129   4.219  1.0311  0.0196 -0.0748
 1562TIP3   OH2 4649   1.744   1.883   0.765  0.0373  0.1433  0.0964
 1562TIP3    H1 4650   1.784   1.841   0.842 -0.4136  1.3115  1.0103
 1562TIP3    H2 4651   1.763   1.976   0.777 -2.0286  0.6191  0.0175
 1563TIP3   OH2 4652   1.264   3.751   3.959  0.4951 -0.1158  0.2960
 1563TIP3    H1 4653   1.196   3.721   4.018  1.5826 -0.9940  1.1372
 1563TIP3    H2 4654   1.333   3.783   4.017  1.3527 -0.4829 -0.5046
 1564TIP3   OH2 4655   4.233   1.724   3.187 -0.1931 -0.5206 -0.6850
 1564TIP3    H1 4656   4.299   1.662   3.217  0.5419  0.0606 -1.0714
 1564TIP3    H2 4657   4.282   1.789   3.136 -0.8481  0.7339  0.2419
 1565TIP3   OH2 4658   3.570   3.200   5.329 -0.2453 -0.4058  0.6278
 1565TIP3    H1 4659   3.594   3.237   5.414  0.1281 -0.0268  0.3614
 1565TIP3    H2 4660   3.481   3.168   5.341 -0.3904  0.1338  1.0052
 1566TIP3   OH2 4661   1.816   1.091   4.241  0.0818  0.2936  0.2706
 1566TIP3    H1 4662   1.732   1.129   4.266 -0.9879  0.1545 -2.6609
 1566TIP3    H2 4663   1.848   1.148   4.170  2.2565  0.0579  0.9697
 1567TIP3   OH2 4664   3.810   5.739   1.197  0.0756  0.2723  0.3422
 1567TIP3    H1 4665   3.772   5.654   1.219 -0.3514 -0.2711 -2.1416
 1567TIP3    H2 4666   3.748   5.778   1.136  2.0268  0.6645 -1.5368
 1568TIP3   OH2 4667   4.788   1.752   4.995 -0.1143  0.1186  0.0933
 1568TIP3    H1 4668   4.716   1.688   4.991 -1.9104  2.0185  0.5889
 1568TIP3    H2 4669   4.759   1.824   4.938  0.8387  1.4625  1.2456
 1569TIP3   OH2 4670   1.615   1.867   2.298 -0.3866  0.0007 -0.0920
 1569TIP3    H1 4671   1.576   1.815   2.369  2.6334 -0.9841  1.0113
 1569TIP3    H2 4672   1.590   1.957   2.319 -1.3318 -0.4834  1.0082
 1570TIP3   OH2 4673   5.285   5.177   0.209 -0.3832  0.1514  0.5675
 1570TIP3    H1 4674   5.349   5.108   0.226 -0.5889 -0.7679 -1.9251
 1570TIP3    H2 4675   5.338   5.255   0.190  0.0162 -0.3782 -0.5950
 1571TIP3   OH2 4676   5.976   0.781   0.490  0.1857 -0.4888 -0.4066
 1571TIP3    H1 4677   6.054   0.733   0.516  0.7981  0.1965 -0.9505
 1571TIP3    H2 4678   5.941   0.816   0.571 -0.2194 -1.7426 -0.0090
 1572TIP3   OH2 4679   7.052   2.879   0.325  0.2091  0.3743 -0.0710
 1572TIP3    H1 4680   7.140   2.849   0.350  0.3377  0.5060 -0.3656
 1572TIP3    H2 4681   7.067   2.949   0.261 -0.1247 -0.0961 -0.6726
 1573TIP3   OH2 4682   4.748   1.613   2.665 -0.1204 -0.1240 -0.4494
 1573TIP3    H1 4683   4.738   1.541   2.727  0.2762 -0.5513 -0.8797
 1573TIP3    H2 4684   4.839   1.641   2.675 -0.2041  0.1639 -0.4631
 1574TIP3   OH2 4685   4.131   6.788   3.619  0.3715  0.5763 -0.4714
 1574TIP3    H1 4686   4.090   6.762   3.536 -0.2226  1.5957 -0.5102
 1574TIP3    H2 4687   4.207   6.840   3.593  0.2502  0.7987 -0.3885
 1575TIP3   OH2 4688   4.365   6.045   4.570 -0.5197 -0.2156 -0.4855
 1575TIP3    H1 4689   4.279   6.027   4.532 -1.2791  1.0768  0.5313
 1575TIP3    H2 4690   4.377   6.140   4.557  0.4682 -0.2670 -0.0375
 1576TIP3   OH2 4691   2.682   5.650   3.830  0.3095 -0.0237 -0.5249
 1576TIP3    H1 4692   2.680   5.559   3.858 -2.6559 -0.1429 -0.7798
 1576TIP3    H2 4693   2.773   5.677   3.842  0.7847 -2.2885  1.7971
 1577TIP3   OH2 4694   3.921   6.259   0.054  0.0221 -0.4720 -0.0886
 1577TIP3    H1 4695   3.949   6.240   0.144  0.0726 -1.5798 -0.3232
 1577TIP3    H2 4696   3.948   6.350   0.039  2.4851 -1.0973  0.1095
 1578TIP3   OH2 4697   0.848   4.611   0.887 -0.1909  0.5243  0.2906
 1578TIP3    H1 4698   0.889   4.587   0.804 -0.3465  1.1238  0.0418
 1578TIP3    H2 4699   0.890   4.553   0.951 -0.6539 -0.5206 -0.3140
 1579TIP3   OH2 4700   7.090   2.328   3.064  0.3241 -0.5584  0.3215
 1579TIP3    H1 4701   7.124   2.255   3.012 -0.5088 -0.0409 -1.0169
 1579TIP3    H2 4702   6.995   2.328   3.047  0.1909  0.3243  0.9479
 1580TIP3   OH2 4703   4.497   3.477   1.283  0.1595 -0.6422  0.3155
 1580TIP3    H1 4704   4.528   3.388   1.296  3.6543  0.2515 -0.8028
 1580TIP3    H2 4705   4.515   3.521   1.366  1.3990 -0.3072 -0.0985
 1581TIP3   OH2 4706   0.088   1.516   1.074 -0.4345  0.7647  0.2016
 1581TIP3    H1 4707   0.156   1.583   1.063 -0.2054  0.8008  1.6201
 1581TIP3    H2 4708   0.133   1.433   1.059 -0.2229  0.8230  0.5059
 1582TIP3   OH2 4709   4.867   5.368   1.821  0.5100 -0.1529  0.0334
 1582TIP3    H1 4710   4.884   5.406   1.735 -1.0520 -0.5654 -0.4793
 1582TIP3    H2 4711   4.889   5.438   1.883  2.0737  0.0073 -0.6335
 1583TIP3   OH2 4712   3.926   1.444   2.912  0.3099  0.0124 -0.2743
 1583TIP3    H1 4713   3.961   1.514   2.967  0.6627 -1.5600  1.6202
 1583TIP3    H2 4714   3.834   1.436   2.938  0.4209 -0.5888 -0.0285
 1584TIP3   OH2 4715   3.553   6.820   0.667  0.0959 -0.7175 -0.0675
 1584TIP3    H1 4716   3.627   6.765   0.642 -0.3146 -0.0953 -3.0585
 1584TIP3    H2 4717   3.476   6.769   0.642 -0.4252 -0.3176  0.6720
 1585TIP3   OH2 4718   6.528   4.369   0.805 -0.0714  0.3781 -0.1577
 1585TIP3    H1 4719   6.457   4.348   0.745 -1.2801  2.0633  0.6221
 1585TIP3    H2 4720   6.593   4.415   0.751 -0.3366  0.3190 -0.5270
 1586TIP3   OH2 4721   6.318   2.573   5.581 -0.2268  0.0017 -0.3918
 1586TIP3    H1 4722   6.328   2.647   5.521 -0.9098 -1.3817 -2.3103
 1586TIP3    H2 4723   6.229   2.541   5.566  0.1136 -1.3382  0.2371
 1587TIP3   OH2 4724   4.628   2.323   0.353 -0.0530 -1.1718  0.0812
 1587TIP3    H1 4725   4.548   2.359   0.393  0.1049 -0.6277 -0.0867
 1587TIP3    H2 4726   4.597   2.254   0.295 -0.4807 -0.4024 -0.6253
 1588TIP3   OH2 4727   1.506   6.609   0.629 -0.3728  0.3926 -0.1135
 1588TIP3    H1 4728   1.582   6.554   0.606 -0.5118  0.5297 -0.9499
 1588TIP3    H2 4729   1.536   6.698   0.612 -1.0589  0.3810 -1.5206
 1589TIP3   OH2 4730   3.759   0.444   5.546  0.0756  0.1787  0.5018
 1589TIP3    H1 4731   3.734   0.361   5.505 -0.5714  1.0953 -1.0321
 1589TIP3    H2 4732   3.685   0.503   5.530  1.5448  1.8027 -0.6832
 1590TIP3   OH2 4733   7.044   2.414   1.297 -0.0237 -0.4003 -0.5614
 1590TIP3    H1 4734   6.987   2.481   1.336  1.2347 -0.0713  0.8067
 1590TIP3    H2 4735   7.010   2.402   1.209 -0.4885  1.8375 -0.7531
 1591TIP3   OH2 4736   0.937   4.645   3.726 -0.0760 -0.0437 -0.6757
 1591TIP3    H1 4737   0.982   4.625   3.644 -1.5381 -0.4111 -1.4235
 1591TIP3    H2 4738   0.895   4.730   3.710  1.1162  0.7756  0.3585
 1592TIP3   OH2 4739   0.410   3.236   3.040  0.2819 -0.3683  0.4642
 1592TIP3    H1 4740   0.400   3.140   3.036  3.5991 -0.8316  0.4146
 1592TIP3    H2 4741   0.445   3.260   2.954  0.3146  0.7749  0.7802
 1593TIP3   OH2 4742   0.185   2.364   5.655 -0.3015 -0.0436 -0.1941
 1593TIP3    H1 4743   0.245   2.431   5.687 -0.9361  0.1687  0.5865
 1593TIP3    H2 4744   0.136   2.407   5.584  2.0813 -0.9377 -2.5461
 1594TIP3   OH2 4745   6.707   0.348   3.981 -0.5324 -0.5155  0.2547
 1594TIP3    H1 4746   6.751   0.421   4.024 -0.0854  0.8315 -2.3240
 1594TIP3    H2 4747   6.620   0.381   3.960 -0.8428 -1.2479  0.3401
 1595TIP3   OH2 4748   5.391   5.228   2.603 -0.0319  0.5299 -0.3706
 1595TIP3    H1 4749   5.453   5.172   2.651 -1.9005 -1.0698  0.3311
 1595TIP3    H2 4750   5.355   5.286   2.670  2.2414  3.0555 -1.1795
 1596TIP3   OH2 4751   6.107   0.384   3.931 -0.0052 -0.0570  0.2066
 1596TIP3    H1 4752   6.192   0.363   3.893 -0.5999  0.3584 -1.4774
 1596TIP3    H2 4753   6.060   0.427   3.859 -1.9277 -1.0328  0.8208
 1597TIP3   OH2 4754   2.966   3.758   3.356  0.3505  0.0393  0.0058
 1597TIP3    H1 4755   3.007   3.832   3.312  0.2136  0.1315  0.0332
 1597TIP3    H2 4756   2.918   3.712   3.287 -0.5647  0.6640  0.2097
 1598TIP3   OH2 4757   1.306   1.975   1.743 -0.1026  0.2097  0.5819
 1598TIP3    H1 4758   1.240   1.935   1.686 -0.4017 -0.4187  1.3633
 1598TIP3    H2 4759   1.352   1.901   1.782  1.5153  0.6255 -0.4403
 1599TIP3   OH2 4760   6.163   0.600   3.251 -0.0002  0.0649  0.2869
 1599TIP3    H1 4761   6.183   0.624   3.161 -1.7261  0.3214 -0.0595
 1599TIP3    H2 4762   6.154   0.504   3.249 -0.2370  0.0911  0.1516
 1600TIP3   OH2 4763   5.923   2.840   1.700 -0.2891  0.4832 -0.2374
 1600TIP3    H1 4764   5.887   2.797   1.777 -0.6605 -0.3429 -0.8513
 1600TIP3    H2 4765   5.899   2.783   1.627  2.0862 -0.0259 -0.7200
 1601TIP3   OH2 4766   2.181   5.798   3.005 -0.0927 -0.4087  0.3252
 1601TIP3    H1 4767   2.163   5.871   2.946  0.8430 -0.5417 -0.1446
 1601TIP3    H2 4768   2.149   5.721   2.959 -2.3734 -0.1965  1.4121
 1602TIP3   OH2 4769   3.056   4.237   5.198  0.6971  0.1408  0.7128
 1602TIP3    H1 4770   3.030   4.159   5.246 -0.3024 -0.1956 -0.3133
 1602TIP3    H2 4771   3.151   4.236   5.199  0.6899 -0.4576  1.6889
 1603TIP3   OH2 4772   3.140   2.815   3.165 -0.2173 -0.1299  0.0501
 1603TIP3    H1 4773   3.207   2.822   3.097  0.2941 -0.2107  0.5341
 1603TIP3    H2 4774   3.126   2.720   3.175  0.7529 -0.1946  1.0379
 1604TIP3   OH2 4775   3.460   3.830   1.599  0.1922  0.1349 -0.5808
 1604TIP3    H1 4776   3.446   3.882   1.520 -0.4488  0.7888 -0.0510
 1604TIP3    H2 4777   3.506   3.888   1.659  0.3938 -0.2512 -0.3563
 1605TIP3   OH2 4778   5.185   5.730   1.801  0.3020 -0.6028 -0.1701
 1605TIP3    H1 4779   5.192   5.643   1.763 -1.4246 -0.7436 -0.2607
 1605TIP3    H2 4780   5.181   5.789   1.725 -0.8814 -0.6859 -0.2007
 1606TIP3   OH2 4781   5.876   1.439   1.003 -0.0177 -0.4777  0.2890
 1606TIP3    H1 4782   5.940   1.377   1.040 -1.1521 -1.0132  1.4349
 1606TIP3    H2 4783   5.915   1.525   1.018  0.0113 -0.7292  1.9246
 1607TIP3   OH2 4784   6.456   0.017   4.493 -0.3448  0.5645  0.5670
 1607TIP3    H1 4785   6.375   0.014   4.543  0.1581  1.5587  1.4887
 1607TIP3    H2 4786   6.459   0.106   4.456  0.0518  0.3554  0.0727
 1608TIP3   OH2 4787   0.039   4.077   2.411  0.0773 -0.3877 -0.0660
 1608TIP3    H1 4788   0.077   4.022   2.480 -1.5027 -0.3527  0.8579
 1608TIP3    H2 4789   0.058   4.030   2.330 -2.8267 -3.4043  0.7950
 1609TIP3   OH2 4790   1.482   2.822   5.641  0.8430  0.1603  0.1736
 1609TIP3    H1 4791   1.434   2.770   5.577  1.3804 -2.1059  1.5134
 1609TIP3    H2 4792   1.447   2.793   5.726  2.2966  0.8451  1.0394
 1610TIP3   OH2 4793   0.182   3.640   5.049 -0.5756  0.0500 -0.3078
 1610TIP3    H1 4794   0.204   3.690   4.971  0.4506 -1.0019 -0.7185
 1610TIP3    H2 4795   0.250   3.573   5.055 -1.4672 -0.8077  0.6610
 1611TIP3   OH2 4796   3.112   5.017   4.276 -0.0134 -0.0498 -0.1760
 1611TIP3    H1 4797   3.198   4.993   4.241 -0.0950 -1.2965  0.4221
 1611TIP3    H2 4798   3.126   5.024   4.371 -0.9045 -1.8895  0.1196
 1612TIP3   OH2 4799   2.502   0.033   5.204 -0.7170 -0.0801  0.0646
 1612TIP3    H1 4800   2.507   0.119   5.247 -1.7805 -0.2206  0.4836
 1612TIP3    H2 4801   2.528  -0.029   5.271  0.4767 -0.0712 -0.3629
 1613TIP3   OH2 4802   2.727   1.889   0.496  0.0122 -0.0505  0.2376
 1613TIP3    H1 4803   2.752   1.797   0.481  0.4221 -0.1279  1.3018
 1613TIP3    H2 4804   2.797   1.939   0.454  0.4323 -0.2442  0.6932
 1614TIP3   OH2 4805   2.654   4.461   2.776  0.0151  0.1886 -0.0725
 1614TIP3    H1 4806   2.747   4.447   2.759 -0.0710 -0.6651  0.1228
 1614TIP3    H2 4807   2.611   4.387   2.733 -0.8292  1.9853 -2.5794
 1615TIP3   OH2 4808   1.720   4.583   5.353  0.4416  0.1465  0.1467
 1615TIP3    H1 4809   1.806   4.543   5.350 -0.1397 -1.1766  0.4435
 1615TIP3    H2 4810   1.660   4.516   5.321 -0.7322  0.2342  1.9559
 1616TIP3   OH2 4811   4.689   6.168   2.972  0.5053 -0.4752  0.0927
 1616TIP3    H1 4812   4.669   6.108   2.900  2.1280  0.8808 -1.6024
 1616TIP3    H2 4813   4.611   6.167   3.026 -0.6989 -1.7635 -1.5462
 1617TIP3   OH2 4814   2.468   5.761   5.306 -0.0151 -0.0333 -0.0945
 1617TIP3    H1 4815   2.408   5.697   5.269  0.6416 -1.1871  0.7611
 1617TIP3    H2 4816   2.450   5.760   5.400 -0.7767  1.9109 -0.1642
 1618TIP3   OH2 4817   4.148   1.377   5.604 -0.1443 -0.0237  0.3325
 1618TIP3    H1 4818   4.090   1.432   5.551  0.6080  1.3176  0.8506
 1618TIP3    H2 4819   4.215   1.437   5.636 -0.9829 -0.5833  3.4585
 1619TIP3   OH2 4820   5.563   5.205   4.415  0.2371  0.3629  0.1147
 1619TIP3    H1 4821   5.612   5.227   4.494  0.5817 -0.5158  0.1656
 1619TIP3    H2 4822   5.630   5.201   4.346 -0.1511  1.7741 -0.3734
 1620TIP3   OH2 4823   0.498   0.350   4.281 -0.3436  0.2528 -0.2803
 1620TIP3    H1 4824   0.570   0.333   4.342 -0.9535 -0.3794  0.2774
 1620TIP3    H2 4825   0.509   0.442   4.256  1.4630 -0.1838 -1.2864
 1621TIP3   OH2 4826   6.439   1.231   4.109 -0.7545  0.0712 -0.3494
 1621TIP3    H1 4827   6.475   1.264   4.027 -0.8319  1.7687  0.2590
 1621TIP3    H2 4828   6.501   1.165   4.138  0.2967  0.8225 -0.8295
 1622TIP3   OH2 4829   2.040   4.203   0.224 -0.2511  0.2870  0.0368
 1622TIP3    H1 4830   1.996   4.278   0.266  0.1221  0.4606  0.1197
 1622TIP3    H2 4831   2.133   4.221   0.234 -0.1576 -0.2274  0.1195
 1623TIP3   OH2 4832   6.536   4.341   0.490  0.0122  0.3635 -0.0668
 1623TIP3    H1 4833   6.588   4.261   0.490  2.3356  1.7508  1.8932
 1623TIP3    H2 4834   6.467   4.325   0.554  0.4929 -0.0493  0.3541
 1624TIP3   OH2 4835   1.712   1.069   5.717  0.5235  0.4426  0.2386
 1624TIP3    H1 4836   1.704   1.104   5.628  2.0417 -0.7360 -0.4014
 1624TIP3    H2 4837   1.622   1.066   5.749 -0.5379 -2.1518 -2.4925
 1625TIP3   OH2 4838   5.788   4.819   0.223  0.3424 -0.7128 -0.0442
 1625TIP3    H1 4839   5.870   4.771   0.233  0.1539 -0.7259  1.8681
 1625TIP3    H2 4840   5.815   4.906   0.193  1.2034 -0.3394  1.6851
 1626TIP3   OH2 4841   5.085   4.960   4.671 -0.6473  0.1244  0.5600
 1626TIP3    H1 4842   5.075   4.942   4.765 -1.9453 -1.6695  0.1451
 1626TIP3    H2 4843   5.005   5.007   4.647 -0.5437  0.1590  0.2844
 1627TIP3   OH2 4844   3.383   3.260   0.800 -0.2290  0.1699  0.1946
 1627TIP3    H1 4845   3.475   3.246   0.822 -0.2648  0.0469  0.2688
 1627TIP3    H2 4846   3.342   3.174   0.811 -0.4273  0.3026  0.5455
 1628TIP3   OH2 4847   2.242   1.032   4.843 -0.0281 -0.4068 -0.4762
 1628TIP3    H1 4848   2.163   1.069   4.804 -0.2580  0.7360  0.9820
 1628TIP3    H2 4849   2.222   0.940   4.856 -0.9194 -0.2454 -0.6576
 1629TIP3   OH2 4850   3.128   2.175   0.071 -0.0295 -0.3538 -0.5928
 1629TIP3    H1 4851   3.218   2.158   0.042  0.6423 -1.2646  1.7992
 1629TIP3    H2 4852   3.138   2.207   0.161 -2.0960  0.0682 -0.4707
 1630TIP3   OH2 4853   3.758   6.554   1.815 -0.0132  0.2460 -0.1785
 1630TIP3    H1 4854   3.710   6.564   1.897  0.1449  0.6835 -0.1375
 1630TIP3    H2 4855   3.803   6.470   1.824 -0.5933 -0.0600 -0.1279
 1631TIP3   OH2 4856   2.704   2.228   3.178 -0.3419 -0.2873 -0.0006
 1631TIP3    H1 4857   2.677   2.320   3.184  0.0196 -0.2360  1.1337
 1631TIP3    H2 4858   2.767   2.218   3.250  2.8586 -0.3240 -2.6009
 1632TIP3   OH2 4859   1.861   0.588   5.257 -0.0532  0.2322  0.4818
 1632TIP3    H1 4860   1.859   0.642   5.336 -0.7849  0.2971  0.4292
 1632TIP3    H2 4861   1.769   0.580   5.232  0.2155  0.7268 -0.7166
 1633TIP3   OH2 4862   2.160   4.491   2.342 -0.3903 -0.1046  0.2803
 1633TIP3    H1 4863   2.207   4.570   2.370  1.1003 -0.8235 -0.1026
 1633TIP3    H2 4864   2.068   4.519   2.335 -0.2734  1.0234  2.3188
 1634TIP3   OH2 4865   6.524   3.104   0.982 -0.3584  0.7850 -0.2073
 1634TIP3    H1 4866   6.548   3.088   0.891  1.2616 -0.9547  0.4504
 1634TIP3    H2 4867   6.529   3.199   0.992 -1.0642  1.0429 -2.0376
 1635TIP3   OH2 4868   6.371   2.767   2.546 -0.1772  0.1286  0.2222
 1635TIP3    H1 4869   6.352   2.673   2.539  0.4684 -0.0416  0.7458
 1635TIP3    H2 4870   6.466   2.772   2.555 -0.2101  0.8359  0.2141
 1636TIP3   OH2 4871   0.735   0.813   2.398  0.1102 -0.0985  0.1506
 1636TIP3    H1 4872   0.753   0.787   2.488  0.7393  0.9137  0.3369
 1636TIP3    H2 4873   0.682   0.893   2.406 -1.2799 -0.9237 -0.3991
 1637TIP3   OH2 4874   5.255   0.032   0.324 -0.1287 -0.1314  0.3951
 1637TIP3    H1 4875   5.171   0.018   0.280  0.0494 -1.2314  0.3807
 1637TIP3    H2 4876   5.320   0.010   0.258  0.1574 -0.5288  0.8055
 1638TIP3   OH2 4877   3.038   6.612   0.908 -0.1156 -0.3692  0.0425
 1638TIP3    H1 4878   3.095   6.558   0.852 -1.3619 -1.3510 -0.3427
 1638TIP3    H2 4879   3.076   6.605   0.995  0.5821 -0.6583 -0.2731
 1639TIP3   OH2 4880   3.214   2.186   2.815  0.7830  0.1834 -0.1072
 1639TIP3    H1 4881   3.283   2.129   2.850  0.7876  2.0395  3.2543
 1639TIP3    H2 4882   3.150   2.194   2.886 -1.0545  1.4719 -1.8004
 1640TIP3   OH2 4883   6.505   6.219   0.644 -0.1286 -0.6736  0.6438
 1640TIP3    H1 4884   6.552   6.302   0.653 -0.0782 -0.4817 -1.0443
 1640TIP3    H2 4885   6.478   6.197   0.733  0.0916  1.0094  1.1656
 1641TIP3   OH2 4886   6.886   1.574   0.967  0.2173 -0.1555 -0.5807
 1641TIP3    H1 4887   6.865   1.487   1.002  1.2986  0.3731  1.5166
 1641TIP3    H2 4888   6.801   1.610   0.940 -0.4856 -1.1369  0.2490
 1642TIP3   OH2 4889   5.729   0.111   3.509  0.0853  0.0710 -0.3134
 1642TIP3    H1 4890   5.725   0.111   3.413  0.2071  1.4850 -0.3366
 1642TIP3    H2 4891   5.792   0.179   3.530 -0.9513  0.7188  0.8016
 1643TIP3   OH2 4892  -0.007   4.046   3.138  0.3233  0.3192  0.0758
 1643TIP3    H1 4893  -0.067   4.120   3.130  1.0799  0.7413 -2.4037
 1643TIP3    H2 4894   0.075   4.085   3.167  0.8170  0.5768 -1.5471
 1644TIP3   OH2 4895   6.327   6.537   5.822 -0.0861  0.3711  0.3267
 1644TIP3    H1 4896   6.369   6.567   5.741  1.1194  0.8560  1.0916
 1644TIP3    H2 4897   6.256   6.599   5.836  0.3880  0.9590  0.2079
 1645TIP3   OH2 4898   0.615   0.035   1.982 -0.1537 -0.2462  0.1877
 1645TIP3    H1 4899   0.577   0.084   2.054  0.5425  0.1965  0.2667
 1645TIP3    H2 4900   0.605  -0.057   2.006 -2.9560 -0.2709 -0.6982
 1646TIP3   OH2 4901   1.930   3.899   0.283 -0.0138 -0.5037  0.9616
 1646TIP3    H1 4902   1.897   3.830   0.341  1.8369 -1.8021  0.5312
 1646TIP3    H2 4903   1.948   3.972   0.342 -0.3684 -0.9883  1.6896
 1647TIP3   OH2 4904   4.882   0.634   1.559  0.2778  0.0892  0.2012
 1647TIP3    H1 4905   4.803   0.660   1.607 -0.1180  0.2255 -0.5014
 1647TIP3    H2 4906   4.884   0.693   1.484  0.6847 -0.3586 -0.1456
 1648TIP3   OH2 4907   1.618   0.802   0.306 -0.4215  0.2029 -0.1281
 1648TIP3    H1 4908   1.588   0.891   0.292 -1.5139 -0.2315 -0.6547
 1648TIP3    H2 4909   1.636   0.797   0.400  0.4902  1.2102 -0.2328
 1649TIP3   OH2 4910   3.256   5.720   3.351 -0.2243  0.0411  0.4430
 1649TIP3    H1 4911   3.299   5.739   3.268 -1.7660  1.9068 -0.0051
 1649TIP3    H2 4912   3.223   5.631   3.342  0.3487 -0.0787 -0.5930
 1650TIP3   OH2 4913   5.803   1.182   4.990  0.0081  0.2848  0.2924
 1650TIP3    H1 4914   5.897   1.191   4.980  0.0291  0.1161  0.3411
 1650TIP3    H2 4915   5.782   1.098   4.949 -0.0389  0.0494  0.7881
 1651TIP3   OH2 4916   0.268   1.779   3.080  0.7098  0.3256  0.1611
 1651TIP3    H1 4917   0.257   1.836   3.004  1.3668 -0.3600 -0.4595
 1651TIP3    H2 4918   0.362   1.763   3.086  0.4549 -1.7502 -0.4851
 1652TIP3   OH2 4919   6.547   2.842   4.907  1.0086  0.1860 -0.3297
 1652TIP3    H1 4920   6.505   2.918   4.946  0.7603 -0.1626  0.0931
 1652TIP3    H2 4921   6.633   2.838   4.949  2.3832  2.1525 -2.7319
 1653TIP3   OH2 4922   3.281   2.625   1.137 -0.0752  0.3359  0.1607
 1653TIP3    H1 4923   3.358   2.604   1.190 -2.2911 -2.2301  2.7219
 1653TIP3    H2 4924   3.299   2.585   1.051  2.5633  2.4180 -0.3800
 1654TIP3   OH2 4925   3.220   4.122   3.947 -0.2609 -0.1789 -0.3633
 1654TIP3    H1 4926   3.138   4.073   3.955  0.0993 -0.7595 -0.1971
 1654TIP3    H2 4927   3.247   4.108   3.856  0.0680 -0.6653 -0.1981
 1655TIP3   OH2 4928   1.432   4.667   4.107 -0.2163 -0.1107  0.6036
 1655TIP3    H1 4929   1.432   4.715   4.024 -0.6691 -0.6019  0.3100
 1655TIP3    H2 4930   1.524   4.645   4.122 -0.0439  0.5918  0.5947
 1656TIP3   OH2 4931   5.052   4.467   4.222  0.4772 -0.4619  0.4423
 1656TIP3    H1 4932   5.058   4.375   4.195 -1.1210 -1.0328  1.8805
 1656TIP3    H2 4933   5.094   4.470   4.308  2.1241  0.5655 -0.3446
 1657TIP3   OH2 4934   2.828   2.135   0.262  0.0703  0.1173 -0.2840
 1657TIP3    H1 4935   2.905   2.163   0.311 -0.6163  1.4749  0.0474
 1657TIP3    H2 4936   2.852   2.147   0.170  0.5919 -0.3981 -0.2207
 1658TIP3   OH2 4937   6.721   3.241   5.714 -0.3709 -0.4493  0.7752
 1658TIP3    H1 4938   6.748   3.168   5.769  0.4391 -0.1943  0.7382
 1658TIP3    H2 4939   6.710   3.203   5.627 -1.4207 -0.8049  1.0528
 1659TIP3   OH2 4940   3.223   6.038   2.458 -0.1367  1.1431  0.9999
 1659TIP3    H1 4941   3.260   6.081   2.535  0.1106  0.9011  1.0148
 1659TIP3    H2 4942   3.263   6.083   2.383 -0.4889  1.4774  1.0106
 1660TIP3   OH2 4943   3.777   0.712   1.232 -0.1189  0.3140  0.1709
 1660TIP3    H1 4944   3.750   0.773   1.164 -0.5847 -2.0699 -1.9079
 1660TIP3    H2 4945   3.862   0.679   1.202  0.1547 -0.0230  1.2774
 1661TIP3   OH2 4946   2.135   5.776   5.422 -0.0630  0.0729 -0.0876
 1661TIP3    H1 4947   2.168   5.712   5.485 -1.9392 -1.1172 -0.2702
 1661TIP3    H2 4948   2.083   5.726   5.361 -1.3981  1.7372 -0.3889
 1662TIP3   OH2 4949   4.182   0.224   5.255  0.0687  0.8186  0.3557
 1662TIP3    H1 4950   4.189   0.132   5.281  1.8703  0.5307 -0.9596
 1662TIP3    H2 4951   4.088   0.239   5.245 -0.3059 -0.6352  1.3563
 1663TIP3   OH2 4952   4.565   5.072   0.694 -0.1154  0.1404 -0.1906
 1663TIP3    H1 4953   4.617   5.141   0.738  1.5340 -1.3063  0.2538
 1663TIP3    H2 4954   4.596   4.991   0.733 -2.2876 -0.8683 -0.4385
 1664TIP3   OH2 4955   3.728   2.628   4.834 -0.2681  0.1636 -0.2382
 1664TIP3    H1 4956   3.797   2.608   4.897 -0.2458  1.5189  0.1908
 1664TIP3    H2 4957   3.760   2.705   4.787 -0.4985 -0.5285 -1.6035
 1665TIP3   OH2 4958   3.774   0.002   3.567 -0.4226  0.3061  0.3674
 1665TIP3    H1 4959   3.816   0.075   3.521  0.0145  0.8131  1.5487
 1665TIP3    H2 4960   3.754  -0.061   3.497  1.2361  0.5511 -0.3741
 1666TIP3   OH2 4961   2.712   3.516   5.680  0.1572  0.6721 -0.5202
 1666TIP3    H1 4962   2.777   3.468   5.630  0.6051 -1.0280  1.5633
 1666TIP3    H2 4963   2.628   3.484   5.647  0.4530 -1.3613  0.5955
 1667TIP3   OH2 4964   4.254   5.467   0.592 -0.4595  0.0751  0.8328
 1667TIP3    H1 4965   4.280   5.385   0.549 -0.2222 -2.1760  4.8298
 1667TIP3    H2 4966   4.158   5.465   0.589 -0.4956  1.5407 -2.0759
 1668TIP3   OH2 4967   2.489   1.493   2.180  0.1198  0.0294 -0.2047
 1668TIP3    H1 4968   2.413   1.445   2.213  0.3658  0.6811  1.4311
 1668TIP3    H2 4969   2.454   1.578   2.153  0.3665  0.7004  1.4749
 1669TIP3   OH2 4970   5.206   2.518   4.714  0.3436 -0.3442  0.4129
 1669TIP3    H1 4971   5.182   2.555   4.799  0.0924 -0.6733  0.4907
 1669TIP3    H2 4972   5.283   2.567   4.686 -0.1124  0.3805  0.4136
 1670TIP3   OH2 4973   1.752   5.953   3.041  0.5666 -0.1208 -0.0067
 1670TIP3    H1 4974   1.817   5.945   3.111  1.2305  1.4218 -0.4186
 1670TIP3    H2 4975   1.761   6.043   3.009 -2.7693  0.7381  0.9436
 1671TIP3   OH2 4976   3.853   2.072   2.856  0.0896  0.3663  0.2627
 1671TIP3    H1 4977   3.919   2.002   2.857  1.5972  1.7179  0.0230
 1671TIP3    H2 4978   3.832   2.083   2.764 -1.7988 -1.1744  0.4371
 1672TIP3   OH2 4979   3.418   1.184   3.996  0.0716  0.0556  0.1232
 1672TIP3    H1 4980   3.471   1.241   4.053  0.8271 -0.2997 -0.2088
 1672TIP3    H2 4981   3.439   1.211   3.907 -2.3277  1.7109 -0.0319
 1673TIP3   OH2 4982   3.872   1.139   3.707 -0.1769 -0.1100 -0.0836
 1673TIP3    H1 4983   3.964   1.161   3.720 -0.4770  0.8322  0.5883
 1673TIP3    H2 4984   3.866   1.109   3.616  1.1153 -2.0192  0.3868
 1674TIP3   OH2 4985   3.853   4.121   4.480 -0.2179  0.7512 -0.1610
 1674TIP3    H1 4986   3.944   4.135   4.452 -0.2604  0.5017 -0.4317
 1674TIP3    H2 4987   3.801   4.177   4.422 -0.2387  0.9122  0.0096
 1675TIP3   OH2 4988   5.741   3.163   4.341  0.2448 -0.2097 -0.2667
 1675TIP3    H1 4989   5.776   3.096   4.400 -0.8927  0.8816  1.7355
 1675TIP3    H2 4990   5.788   3.243   4.365 -0.4606  0.3192 -0.6074
 1676TIP3   OH2 4991   3.951   1.871   4.865  0.6941  0.2661  0.6659
 1676TIP3    H1 4992   4.027   1.816   4.851  0.7903  0.7565 -0.9838
 1676TIP3    H2 4993   3.960   1.942   4.800 -0.5750  0.9486  1.1881
 1677TIP3   OH2 4994   2.583   2.020   1.844  0.0854  0.4493 -0.7432
 1677TIP3    H1 4995   2.571   2.105   1.886  0.4331  0.2115 -0.1510
 1677TIP3    H2 4996   2.499   2.003   1.801  0.4814  1.7478 -2.1064
 1678TIP3   OH2 4997   0.235   0.069   3.970 -0.5944  0.6468 -0.3924
 1678TIP3    H1 4998   0.184   0.094   3.893 -0.5718 -0.6977 -0.8758
 1678TIP3    H2 4999   0.190   0.111   4.043 -3.3075 -1.6243 -0.6043
 1679TIP3   OH2 5000   6.833   2.702   1.710  0.3649 -0.1872 -0.0308
 1679TIP3    H1 5001   6.859   2.786   1.748  0.1383 -0.9374  1.8668
 1679TIP3    H2 5002   6.896   2.689   1.639 -0.8746  2.5365 -1.8396
 1680TIP3   OH2 5003   2.950   5.434   4.851 -0.3181 -0.6121 -0.0289
 1680TIP3    H1 5004   2.955   5.433   4.946  1.4974  0.2174 -0.0750
 1680TIP3    H2 5005   3.039   5.413   4.822 -0.7198 -0.3407 -1.5313
 1681TIP3   OH2 5006   3.914   0.506   3.425  0.0737 -0.0963  0.0664
 1681TIP3    H1 5007   3.858   0.545   3.358  1.5852 -0.5066 -1.5231
 1681TIP3    H2 5008   3.993   0.480   3.378  1.0027 -0.8794  1.9376
 1682TIP3   OH2 5009   1.500   1.480   4.822 -0.0372  0.8049 -0.1371
 1682TIP3    H1 5010   1.543   1.462   4.906 -1.4933  1.4072  0.7767
 1682TIP3    H2 5011   1.566   1.459   4.756  0.4160 -1.7955  1.0503
 1683TIP3   OH2 5012   0.250   2.582   1.770  0.2133 -0.4080 -0.2043
 1683TIP3    H1 5013   0.226   2.496   1.736 -1.4616  0.4665 -1.3548
 1683TIP3    H2 5014   0.197   2.592   1.849 -0.8826  0.2133 -0.9890
 1684TIP3   OH2 5015   0.766   1.471   0.252 -0.2423  0.0232 -0.5613
 1684TIP3    H1 5016   0.738   1.460   0.343  1.0188  0.5573 -0.0956
 1684TIP3    H2 5017   0.685   1.494   0.206 -0.6903  1.0866  0.6686
 1685TIP3   OH2 5018   0.301   1.988   3.556  0.0191 -0.6543 -0.5467
 1685TIP3    H1 5019   0.362   1.919   3.583  1.0339  0.1265 -0.8070
 1685TIP3    H2 5020   0.269   2.024   3.639  0.3972 -0.6494 -0.3973
 1686TIP3   OH2 5021   2.508   3.140   0.326  0.5094  0.0482  0.2841
 1686TIP3    H1 5022   2.473   3.150   0.414  0.5699  3.1687  0.0797
 1686TIP3    H2 5023   2.541   3.227   0.304  0.8553 -0.7282 -2.6712
 1687TIP3   OH2 5024   2.011   6.251   4.451  0.7516  0.0703  0.4572
 1687TIP3    H1 5025   1.981   6.330   4.408 -0.5320 -1.0407 -0.7786
 1687TIP3    H2 5026   2.102   6.242   4.423 -0.1940 -0.9696 -2.7504
 1688TIP3   OH2 5027   5.330   1.704   5.417 -0.2581 -0.5788  0.5759
 1688TIP3    H1 5028   5.399   1.744   5.469 -0.4141 -0.7468  0.9160
 1688TIP3    H2 5029   5.286   1.778   5.375 -0.5535 -0.3903  1.2103
 1689TIP3   OH2 5030   5.711   5.230   1.462 -0.4350  0.2652 -0.2811
 1689TIP3    H1 5031   5.724   5.310   1.512 -0.6176 -0.4374  0.9421
 1689TIP3    H2 5032   5.781   5.231   1.397 -1.0478  1.8962 -0.9695
 1690TIP3   OH2 5033   3.563   0.587   4.314 -0.2326 -0.1914 -0.3040
 1690TIP3    H1 5034   3.574   0.663   4.256 -1.8038  0.4631  0.2164
 1690TIP3    H2 5035   3.635   0.596   4.377  0.7923 -0.2665 -1.4308
 1691TIP3   OH2 5036   3.561   0.982   2.998  0.6502 -0.0984  0.0670
 1691TIP3    H1 5037   3.516   1.053   2.952  2.2743 -0.3096 -2.0188
 1691TIP3    H2 5038   3.502   0.907   2.992  0.3070  0.2195 -0.6209
 1692TIP3   OH2 5039   5.146   2.306   5.741 -0.1865  0.0074 -0.5787
 1692TIP3    H1 5040   5.091   2.365   5.792 -1.6075 -1.2649 -0.5616
 1692TIP3    H2 5041   5.169   2.236   5.802  0.0310 -0.3469 -1.0661
 1693TIP3   OH2 5042   3.507   6.497   5.068 -0.3852 -0.0663  0.4574
 1693TIP3    H1 5043   3.490   6.586   5.097 -0.5371  0.0728 -0.0494
 1693TIP3    H2 5044   3.499   6.500   4.973  1.4064 -0.2296  0.2757
 1694TIP3   OH2 5045   2.455   5.408   4.464 -0.0562  0.0946  0.2384
 1694TIP3    H1 5046   2.519   5.343   4.493 -1.5051 -1.0135  1.0169
 1694TIP3    H2 5047   2.403   5.363   4.398  0.0682  1.0613 -0.5530
 1695TIP3   OH2 5048   2.080   5.728   1.066  0.1613 -0.6576 -0.1543
 1695TIP3    H1 5049   2.138   5.700   1.136  1.6594  2.0413 -0.1880
 1695TIP3    H2 5050   2.136   5.736   0.989 -0.7534 -0.2613 -0.8089
 1696TIP3   OH2 5051   3.677   6.467   1.559 -0.6224  0.2034 -0.4093
 1696TIP3    H1 5052   3.701   6.500   1.646  0.1812 -1.6358  0.1038
 1696TIP3    H2 5053   3.738   6.510   1.500 -0.4281  0.6087  0.0765
 1697TIP3   OH2 5054   2.304   5.584   0.162  0.2426 -0.4217  0.0172
 1697TIP3    H1 5055   2.246   5.643   0.115  0.2752 -0.9115 -0.6531
 1697TIP3    H2 5056   2.386   5.586   0.114  1.2096  1.1507  1.6172
 1698TIP3   OH2 5057   5.111   0.729   1.690  0.3325 -0.7658  0.0129
 1698TIP3    H1 5058   5.042   0.665   1.674  0.1751 -0.9826  1.4493
 1698TIP3    H2 5059   5.170   0.686   1.751  0.8286  0.0441  0.1193
 1699TIP3   OH2 5060   0.326   3.894   0.763 -0.1156 -0.6439  0.6328
 1699TIP3    H1 5061   0.253   3.953   0.777  0.9918  0.4745  1.9615
 1699TIP3    H2 5062   0.381   3.938   0.699  0.2451 -0.6735  0.9186
 1700TIP3   OH2 5063   1.777   3.428   0.515 -0.1712 -0.2345  0.0775
 1700TIP3    H1 5064   1.852   3.450   0.571 -0.8734 -0.3177  1.0803
 1700TIP3    H2 5065   1.703   3.475   0.554 -0.1403  2.4335 -2.7058
 1701TIP3   OH2 5066   1.926   6.319   0.636  0.0084 -0.1548 -0.3388
 1701TIP3    H1 5067   1.943   6.225   0.629 -1.9005 -0.5691  0.1484
 1701TIP3    H2 5068   1.886   6.330   0.722 -0.2945  1.0352 -0.6111
 1702TIP3   OH2 5069   5.548   2.653   1.124 -0.4316 -0.4697  0.1248
 1702TIP3    H1 5070   5.539   2.747   1.140 -1.5473 -0.5819  0.3019
 1702TIP3    H2 5071   5.491   2.613   1.190 -0.9455 -1.2025 -0.7453
 1703TIP3   OH2 5072   5.548   3.836   5.419 -0.6125  0.0769 -0.0461
 1703TIP3    H1 5073   5.468   3.871   5.460 -0.8166  1.3214 -1.4081
 1703TIP3    H2 5074   5.585   3.911   5.372 -0.1938 -1.1764 -1.7945
 1704TIP3   OH2 5075   1.949   4.065   1.606 -0.8178 -0.0351  0.2656
 1704TIP3    H1 5076   1.891   3.999   1.570 -1.5504  1.4915 -1.4943
 1704TIP3    H2 5077   1.967   4.124   1.533  1.1462  0.8036  1.3432
 1705TIP3   OH2 5078   5.027   3.971   4.961 -0.2213 -0.5562  0.0458
 1705TIP3    H1 5079   5.012   4.020   4.880 -0.4159  0.9759  0.9589
 1705TIP3    H2 5080   5.014   4.036   5.031 -0.5081 -1.9389  1.3294
 1706TIP3   OH2 5081   5.927   3.962   1.491 -0.4976  0.0064  0.2006
 1706TIP3    H1 5082   6.019   3.981   1.475 -0.0582 -1.5652  0.6246
 1706TIP3    H2 5083   5.908   3.887   1.434 -1.5317  0.3291  0.0931
 1707TIP3   OH2 5084   5.403   6.441   3.443  0.4014  0.2078 -0.3489
 1707TIP3    H1 5085   5.429   6.370   3.502  2.1203 -0.6943 -2.0574
 1707TIP3    H2 5086   5.482   6.460   3.392 -0.9086  1.1095 -2.1722
 1708TIP3   OH2 5087   1.387   3.512   4.416 -0.3365  0.0231  0.2128
 1708TIP3    H1 5088   1.402   3.484   4.325 -0.5785 -0.1070  0.2115
 1708TIP3    H2 5089   1.469   3.554   4.442  0.4728 -1.7084  0.5922
 1709TIP3   OH2 5090   6.431   4.067   1.589 -1.0244  0.2436  0.1084
 1709TIP3    H1 5091   6.429   4.067   1.685  0.6236  0.9382  0.1822
 1709TIP3    H2 5092   6.453   4.156   1.565 -0.5408 -0.1268 -0.8822
 1710TIP3   OH2 5093   3.414   6.156   4.979 -0.0204  0.3732 -0.2230
 1710TIP3    H1 5094   3.391   6.067   5.005  0.2317  0.2174 -0.5257
 1710TIP3    H2 5095   3.439   6.200   5.061  0.1853  0.0656 -0.1201
 1711TIP3   OH2 5096   1.690   1.344   0.354  0.0163 -0.3102 -0.3430
 1711TIP3    H1 5097   1.776   1.335   0.314  0.1618  0.5690 -0.2572
 1711TIP3    H2 5098   1.707   1.360   0.447 -0.1261  1.7603 -0.6241
 1712TIP3   OH2 5099   0.923   5.377   0.776 -0.3700  0.0150 -0.1218
 1712TIP3    H1 5100   0.862   5.341   0.839 -0.3477  0.3612  0.0952
 1712TIP3    H2 5101   0.914   5.472   0.783 -0.5048  0.0554 -0.7701
 1713TIP3   OH2 5102   2.151   3.767   5.569 -0.4574  0.7445 -0.3778
 1713TIP3    H1 5103   2.119   3.679   5.587 -3.1160  1.6115 -0.4318
 1713TIP3    H2 5104   2.086   3.825   5.609  0.2872  2.6873 -1.8102
 1714TIP3   OH2 5105   6.829   2.565   1.086 -0.5060  0.1153 -0.1773
 1714TIP3    H1 5106   6.805   2.601   1.171 -2.0070  1.3863 -1.0705
 1714TIP3    H2 5107   6.915   2.604   1.067 -0.3902  0.2154  0.5248
 1715TIP3   OH2 5108   3.899   2.242   0.686  0.2277  0.6415  0.1255
 1715TIP3    H1 5109   3.834   2.206   0.746 -1.5604  2.1437 -0.8044
 1715TIP3    H2 5110   3.909   2.334   0.713  1.5216  0.5935 -0.1295
 1716TIP3   OH2 5111   3.117   5.714   2.582 -0.0985 -0.4504 -0.1620
 1716TIP3    H1 5112   3.152   5.657   2.651 -0.1606  0.8510  0.9865
 1716TIP3    H2 5113   3.023   5.699   2.584 -0.1557 -0.0625  0.3941
 1717TIP3   OH2 5114   2.922   1.916   2.817 -0.1531  0.2678 -0.8529
 1717TIP3    H1 5115   3.007   1.881   2.790  0.4226 -0.0178  1.1793
 1717TIP3    H2 5116   2.925   1.915   2.912 -1.8914  1.6195 -0.7381
 1718TIP3   OH2 5117   4.563   6.439   3.850 -0.5066 -0.0322 -0.0029
 1718TIP3    H1 5118   4.474   6.407   3.834 -0.4891 -0.5522  0.8755
 1718TIP3    H2 5119   4.598   6.457   3.763 -1.3980 -0.0204 -0.3698
 1719TIP3   OH2 5120   0.166   6.741   1.131 -0.0179 -0.4689 -0.8044
 1719TIP3    H1 5121   0.111   6.666   1.154  1.3279 -1.1313  0.3779
 1719TIP3    H2 5122   0.202   6.771   1.214 -0.6406  1.6294 -1.2165
 1720TIP3   OH2 5123   2.978   2.418   5.663 -0.5303  0.3087 -0.3930
 1720TIP3    H1 5124   2.932   2.497   5.691  1.2456  1.3456 -0.1939
 1720TIP3    H2 5125   3.071   2.441   5.673  0.0475 -1.2854 -1.7628
 1721TIP3   OH2 5126   3.174   0.416   3.149  0.2038 -0.3241 -0.1403
 1721TIP3    H1 5127   3.191   0.510   3.145 -0.3841 -0.2036  0.0190
 1721TIP3    H2 5128   3.228   0.385   3.221 -1.5232  0.3674  1.5562
 1722TIP3   OH2 5129   0.169   2.914   1.739  0.0427 -0.2593 -0.3486
 1722TIP3    H1 5130   0.184   2.819   1.737 -0.5349 -0.3504 -0.3514
 1722TIP3    H2 5131   0.102   2.927   1.806 -1.3628 -0.0721 -1.7256
 1723TIP3   OH2 5132   3.896   1.450   1.733  0.0728  0.6872 -0.4245
 1723TIP3    H1 5133   3.927   1.410   1.652  0.9753  1.0129 -0.2502
 1723TIP3    H2 5134   3.801   1.446   1.727  0.0745 -2.2516 -0.0494
 1724TIP3   OH2 5135   6.928   6.695   0.142  0.0981  0.2098 -0.2142
 1724TIP3    H1 5136   6.878   6.744   0.076  2.1688 -0.0183 -2.0833
 1724TIP3    H2 5137   7.003   6.751   0.162  0.0627 -0.2059  1.1636
 1725TIP3   OH2 5138   5.129   0.815   3.107  0.0643 -0.0230  0.0846
 1725TIP3    H1 5139   5.050   0.793   3.157  0.7227 -0.5224  0.9372
 1725TIP3    H2 5140   5.194   0.750   3.136  0.5871 -0.0655 -1.1248
 1726TIP3   OH2 5141   6.890   6.066   5.711  0.5766  0.6286 -0.3831
 1726TIP3    H1 5142   6.857   6.013   5.638  0.1332 -1.3829  1.2064
 1726TIP3    H2 5143   6.973   6.101   5.679 -0.8956  2.1803 -2.8671
 1727TIP3   OH2 5144   4.485   5.869   3.399 -0.4515  0.2636  0.2557
 1727TIP3    H1 5145   4.474   5.962   3.377 -0.2588  0.2136 -0.0612
 1727TIP3    H2 5146   4.455   5.862   3.489  0.6795  0.8561  0.6910
 1728TIP3   OH2 5147   5.845   5.298   0.650 -0.2293 -0.3839  0.1282
 1728TIP3    H1 5148   5.929   5.276   0.691  0.3172  1.7241  0.2349
 1728TIP3    H2 5149   5.791   5.331   0.722  1.0829  4.3561 -0.7242
 1729TIP3   OH2 5150   3.712   5.710   3.157  0.0611  0.1720 -0.5602
 1729TIP3    H1 5151   3.717   5.700   3.253 -0.5007  1.8698 -0.3280
 1729TIP3    H2 5152   3.790   5.665   3.124  1.1433  0.9492  0.8157
 1730TIP3   OH2 5153   1.961   6.208   3.867 -0.2186 -0.0800  0.3407
 1730TIP3    H1 5154   2.028   6.167   3.813 -1.1157 -0.1789 -0.7214
 1730TIP3    H2 5155   1.942   6.291   3.824 -1.3743 -0.4303  0.1241
 1731TIP3   OH2 5156   0.149   6.639   0.563  0.2286  0.2235 -0.1231
 1731TIP3    H1 5157   0.090   6.567   0.539  0.1993  0.2554 -0.1479
 1731TIP3    H2 5158   0.159   6.632   0.658  0.9714 -0.3754 -0.2370
 1732TIP3   OH2 5159   0.434   1.192   0.483  0.2971  0.1582  0.3060
 1732TIP3    H1 5160   0.343   1.216   0.502  0.0343 -1.6284  1.5350
 1732TIP3    H2 5161   0.427   1.111   0.432  1.1783 -0.8056  1.6512
 1733TIP3   OH2 5162   6.275   4.290   1.121 -0.2532  0.5023 -0.1753
 1733TIP3    H1 5163   6.227   4.289   1.038  2.2065 -0.7980 -1.7184
 1733TIP3    H2 5164   6.270   4.200   1.153  0.0434  0.6563  0.3216
 1734TIP3   OH2 5165   5.679   4.842   2.604 -0.0967 -0.1869 -0.0077
 1734TIP3    H1 5166   5.723   4.815   2.685 -0.9098  1.0322  0.8795
 1734TIP3    H2 5167   5.604   4.893   2.633 -0.5685  0.0545 -1.5440
 1735TIP3   OH2 5168   2.998   0.890   2.825 -0.0366  0.2531  0.8744
 1735TIP3    H1 5169   3.030   0.876   2.914  0.6272 -0.6989  0.4970
 1735TIP3    H2 5170   2.992   0.802   2.787 -1.5065  0.5353  0.3716
 1736TIP3   OH2 5171   1.444   1.267   3.062  0.1765  0.3614 -0.6648
 1736TIP3    H1 5172   1.504   1.327   3.017  1.6169  0.1615  0.8890
 1736TIP3    H2 5173   1.502   1.212   3.115 -1.3994  0.0892  0.8327
 1737TIP3   OH2 5174   1.283   4.444   0.015 -0.0755 -0.1370  0.0005
 1737TIP3    H1 5175   1.364   4.429  -0.034 -0.2091  2.0355 -1.0003
 1737TIP3    H2 5176   1.255   4.357   0.042  0.0217 -1.5095 -3.7496
 1738TIP3   OH2 5177   4.501   0.498   3.132 -0.0841  0.4520  0.0451
 1738TIP3    H1 5178   4.455   0.417   3.110  3.9298 -1.8439 -0.9412
 1738TIP3    H2 5179   4.481   0.558   3.061 -1.1464 -0.5932 -0.5652
 1739TIP3   OH2 5180   3.108   4.730   1.344  0.3463  0.2135 -0.0636
 1739TIP3    H1 5181   3.113   4.758   1.253  2.2244 -0.5265 -0.2341
 1739TIP3    H2 5182   3.087   4.636   1.339  2.5497 -0.3518  0.1109
 1740TIP3   OH2 5183   4.390   5.835   1.282  0.2074  0.8833 -0.7197
 1740TIP3    H1 5184   4.356   5.839   1.371  0.5765  0.1738 -0.5395
 1740TIP3    H2 5185   4.377   5.744   1.255 -2.3900  1.6526 -2.4048
 1741TIP3   OH2 5186   6.093   2.209   1.234  0.1518 -0.4807 -0.1127
 1741TIP3    H1 5187   6.068   2.301   1.225 -0.7475 -0.7110 -0.0613
 1741TIP3    H2 5188   6.101   2.196   1.329 -3.0791 -1.2647  0.1886
 1742TIP3   OH2 5189   2.435   0.626   0.390  0.5327 -0.7472 -1.0088
 1742TIP3    H1 5190   2.522   0.589   0.408  0.0927 -0.5878  2.0897
 1742TIP3    H2 5191   2.384   0.552   0.359  1.2712 -1.3033 -0.9344
 1743TIP3   OH2 5192   0.703   0.745   0.545  0.4740 -0.3560 -0.6081
 1743TIP3    H1 5193   0.708   0.800   0.467  1.1599 -2.5000 -2.1649
 1743TIP3    H2 5194   0.736   0.660   0.517 -0.1206 -1.4760  1.8045
 1744TIP3   OH2 5195   6.540   5.124   4.541  0.0388 -0.2195 -0.2741
 1744TIP3    H1 5196   6.633   5.104   4.530  0.4279  1.9909 -1.7028
 1744TIP3    H2 5197   6.498   5.084   4.466  0.1499  0.4186 -0.6855
 1745TIP3   OH2 5198   1.672   1.021   1.891 -0.1761  0.0908 -0.4795
 1745TIP3    H1 5199   1.746   1.018   1.952 -0.6362 -2.2164  0.0605
 1745TIP3    H2 5200   1.712   1.014   1.804  0.3658  1.4996 -0.3667
 1746TIP3   OH2 5201   6.770   3.019   1.577  0.5686  0.3936 -0.3145
 1746TIP3    H1 5202   6.775   2.976   1.662  0.7413 -1.5745 -1.2434
 1746TIP3    H2 5203   6.860   3.016   1.543  0.7541  2.2836 -0.0886
 1747TIP3   OH2 5204   0.295   4.132   3.706 -0.3844 -0.0026 -0.6607
 1747TIP3    H1 5205   0.279   4.226   3.698 -0.1021  0.3287  1.8672
 1747TIP3    H2 5206   0.390   4.123   3.698 -0.4671 -0.1838 -1.5581
 1748TIP3   OH2 5207   0.475   0.512   4.566  0.4381  0.4513  0.1379
 1748TIP3    H1 5208   0.523   0.491   4.646  0.1130 -1.6019 -0.1494
 1748TIP3    H2 5209   0.519   0.589   4.530  1.4442  0.5722  1.5582
 1749TIP3   OH2 5210   5.284   3.097   5.395 -0.2440  0.2498 -0.3274
 1749TIP3    H1 5211   5.191   3.083   5.412  0.0476 -0.8819  0.4481
 1749TIP3    H2 5212   5.300   3.188   5.422 -1.1397  0.4873 -0.5785
 1750TIP3   OH2 5213   2.340   5.808   0.506  0.3886  0.1383 -0.2104
 1750TIP3    H1 5214   2.300   5.876   0.450 -2.5971  0.2713  1.8289
 1750TIP3    H2 5215   2.392   5.857   0.570  0.7884  0.2585 -0.6243
 1751TIP3   OH2 5216   7.198   3.219   1.150  0.2903 -0.3789  0.1176
 1751TIP3    H1 5217   7.195   3.135   1.103  0.6131 -0.0178 -0.5630
 1751TIP3    H2 5218   7.161   3.282   1.088  0.5631  0.0764  0.4160
 1752TIP3   OH2 5219   5.740   4.324   0.554  0.1934  0.4950  0.0059
 1752TIP3    H1 5220   5.823   4.331   0.601  0.3544 -1.0534  0.0038
 1752TIP3    H2 5221   5.699   4.410   0.564  0.5143  0.4214  2.4304
 1753TIP3   OH2 5222   0.196   2.874   4.731  0.3541 -0.3291 -0.0474
 1753TIP3    H1 5223   0.226   2.964   4.718 -0.2651 -0.0164  0.6456
 1753TIP3    H2 5224   0.144   2.877   4.811  1.1338 -1.5047  0.5271
 1754TIP3   OH2 5225   6.877   1.017   4.808 -0.3587 -0.0037 -0.4952
 1754TIP3    H1 5226   6.800   1.023   4.752 -0.6570  0.1509 -0.0698
 1754TIP3    H2 5227   6.879   1.100   4.855  2.1916  1.7229 -3.2142
 1755TIP3   OH2 5228   5.817   0.683   3.213  0.2855 -0.0292  0.4058
 1755TIP3    H1 5229   5.798   0.772   3.244 -0.1820  0.4956 -1.2762
 1755TIP3    H2 5230   5.903   0.690   3.171 -0.2987 -0.0458 -0.8437
 1756TIP3   OH2 5231   4.943   2.238   1.687 -0.4395  0.5302 -0.1734
 1756TIP3    H1 5232   4.931   2.333   1.693 -0.3854  0.4724  1.2550
 1756TIP3    H2 5233   4.942   2.219   1.593  0.2319  2.0323 -0.5105
 1757TIP3   OH2 5234   3.323   5.962   5.634 -0.6161 -0.1018  0.0913
 1757TIP3    H1 5235   3.370   6.034   5.593 -0.0513 -1.1804 -1.2278
 1757TIP3    H2 5236   3.230   5.982   5.619 -0.4687  0.3749 -0.2070
 1758TIP3   OH2 5237   4.371   5.704   0.453  0.7593  0.2802  0.2823
 1758TIP3    H1 5238   4.324   5.646   0.393 -0.7102  2.6783 -1.0318
 1758TIP3    H2 5239   4.461   5.706   0.419  0.2607  0.5386 -1.0747
 1759TIP3   OH2 5240   4.958   4.096   4.700 -0.0002 -0.7843 -0.4795
 1759TIP3    H1 5241   5.005   4.178   4.687  1.6938 -1.6607 -0.2681
 1759TIP3    H2 5242   4.866   4.121   4.707  0.6819  1.4928  2.7862
 1760TIP3   OH2 5243   0.205   3.408   1.122 -0.1917 -0.3219 -0.0153
 1760TIP3    H1 5244   0.196   3.474   1.053 -2.6099  0.2487  0.7212
 1760TIP3    H2 5245   0.151   3.335   1.091 -1.1375 -0.1404  1.1372
 1761TIP3   OH2 5246   1.267   1.406   0.481 -0.6067 -0.0461  0.0469
 1761TIP3    H1 5247   1.316   1.352   0.418  0.7928  0.3508  0.7460
 1761TIP3    H2 5248   1.175   1.390   0.460 -0.1969 -1.2324 -0.9863
 1762TIP3   OH2 5249   4.342   6.262   3.584 -0.2563 -0.3237 -0.1565
 1762TIP3    H1 5250   4.344   6.293   3.674 -1.4089  0.5905 -0.4083
 1762TIP3    H2 5251   4.311   6.338   3.533 -1.5418 -1.3716 -1.0337
 1763TIP3   OH2 5252   2.245   6.456   1.163  0.1175 -0.0937 -0.3765
 1763TIP3    H1 5253   2.247   6.425   1.254 -0.3250 -1.1308 -0.6979
 1763TIP3    H2 5254   2.255   6.551   1.169 -0.7904 -0.0482  0.8174
 1764TIP3   OH2 5255   1.558   4.048   0.028  0.0597  0.3801 -0.3072
 1764TIP3    H1 5256   1.547   3.989   0.102 -1.1815  1.7322  0.6419
 1764TIP3    H2 5257   1.636   4.099   0.049 -0.5469  1.0731  0.3236
 1765TIP3   OH2 5258   3.364   3.648   0.219  0.1122  0.2499  0.0246
 1765TIP3    H1 5259   3.284   3.699   0.231 -0.1136  0.1936 -1.1225
 1765TIP3    H2 5260   3.361   3.620   0.127  1.8392  0.9131 -0.2718
 1766TIP3   OH2 5261   5.951   2.684   5.015  0.2568 -0.6534  0.2918
 1766TIP3    H1 5262   5.875   2.729   4.981  1.0588 -0.4269 -1.2610
 1766TIP3    H2 5263   5.973   2.619   4.948  0.6490 -1.6265  1.3265
 1767TIP3   OH2 5264   6.950   5.495   2.559  0.3178 -0.1933 -0.1817
 1767TIP3    H1 5265   6.970   5.583   2.592 -0.2003 -0.4207  0.7728
 1767TIP3    H2 5266   6.876   5.466   2.613 -0.4718 -0.6353 -1.4792
 1768TIP3   OH2 5267   1.598   3.032   0.570  0.1137 -0.0578  0.0896
 1768TIP3    H1 5268   1.538   2.971   0.526  0.6882  0.7726 -1.9980
 1768TIP3    H2 5269   1.625   3.092   0.500  1.5829  0.9895  1.5037
 1769TIP3   OH2 5270   1.509   1.229   3.509  0.0925  0.1931  0.2451
 1769TIP3    H1 5271   1.428   1.200   3.551 -0.4533  0.0280 -0.8905
 1769TIP3    H2 5272   1.562   1.150   3.502 -0.1110  0.0785 -0.0196
 1770TIP3   OH2 5273   1.706   4.195   3.004  0.5127 -0.0572 -0.4485
 1770TIP3    H1 5274   1.671   4.126   3.060  0.1883  0.4751  0.0222
 1770TIP3    H2 5275   1.779   4.232   3.053  0.5504  0.0764 -0.6028
 1771TIP3   OH2 5276   0.051   0.922   2.470  0.1638  0.2967  0.6747
 1771TIP3    H1 5277   0.049   0.831   2.499  0.0358 -0.0371 -0.3502
 1771TIP3    H2 5278   0.115   0.964   2.527  1.3848 -0.7939  0.1519
 1772TIP3   OH2 5279   3.169   3.023   2.900 -0.1972  0.0716 -0.3878
 1772TIP3    H1 5280   3.137   3.096   2.953  1.3022 -0.4297  1.2916
 1772TIP3    H2 5281   3.258   3.049   2.875  0.0214 -0.7913 -0.5439
 1773TIP3   OH2 5282   3.065   1.614   2.241  0.5853  0.2554 -0.4146
 1773TIP3    H1 5283   3.132   1.677   2.216 -0.2639  1.0431 -0.7312
 1773TIP3    H2 5284   3.062   1.619   2.337  0.2769  0.9493 -0.4590
 1774TIP3   OH2 5285   2.965   3.780   4.917 -0.3822 -0.0276 -0.0394
 1774TIP3    H1 5286   3.056   3.805   4.905 -0.3051 -0.1285  0.3037
 1774TIP3    H2 5287   2.917   3.863   4.920 -0.0835  0.1290  1.4398
 1775TIP3   OH2 5288   4.807   4.252   0.071 -0.1845  0.1221  0.1119
 1775TIP3    H1 5289   4.739   4.198   0.111 -0.4014  1.3162  1.4671
 1775TIP3    H2 5290   4.759   4.316   0.018  0.0271 -0.4958 -0.8468
 1776TIP3   OH2 5291   2.248   6.384   3.434  0.1938 -0.7375  0.3374
 1776TIP3    H1 5292   2.152   6.378   3.430 -0.0509  1.0934  1.8144
 1776TIP3    H2 5293   2.279   6.295   3.417 -1.8175 -1.5831  0.8299
 1777TIP3   OH2 5294   0.895   0.688   3.380 -0.1728  0.2780 -0.2268
 1777TIP3    H1 5295   0.876   0.653   3.293  0.7574 -0.8995  0.0248
 1777TIP3    H2 5296   0.918   0.780   3.364 -2.0472  0.6637 -0.9659
 1778TIP3   OH2 5297   7.031   0.736   1.124 -0.4538  0.5711  0.5324
 1778TIP3    H1 5298   7.018   0.734   1.030 -1.8359  0.9687  0.6923
 1778TIP3    H2 5299   7.124   0.754   1.135 -0.0892 -0.4057 -0.7423
 1779TIP3   OH2 5300   5.133   2.274   4.080  0.2827  0.0755  0.5526
 1779TIP3    H1 5301   5.149   2.368   4.081  1.2370 -0.0586 -0.1767
 1779TIP3    H2 5302   5.221   2.235   4.078 -0.0895 -0.7827 -0.8990
 1780TIP3   OH2 5303   1.285   3.799   4.370  0.1441  0.0849 -0.3395
 1780TIP3    H1 5304   1.201   3.776   4.408  1.2952 -0.8923  1.7496
 1780TIP3    H2 5305   1.330   3.715   4.359  2.6872  0.7743  3.2279
 1781TIP3   OH2 5306   4.907   0.240   0.746 -0.0582  0.5236 -0.0110
 1781TIP3    H1 5307   4.917   0.253   0.652 -0.3657 -0.3038 -0.1634
 1781TIP3    H2 5308   4.955   0.313   0.786  2.8630 -0.8947 -0.7334
 1782TIP3   OH2 5309   4.007   2.742   3.353  0.0823  0.2386  1.0981
 1782TIP3    H1 5310   4.069   2.762   3.283  0.3682  0.3082  1.3681
 1782TIP3    H2 5311   4.059   2.698   3.420 -0.4093 -0.8280  0.8001
 1783TIP3   OH2 5312   6.746   5.325   4.971  0.6645  0.1961 -0.0344
 1783TIP3    H1 5313   6.749   5.256   5.038  0.8582  0.2977  0.0624
 1783TIP3    H2 5314   6.679   5.295   4.909  0.3256  0.2058  0.3209
 1784TIP3   OH2 5315   3.654   3.289   5.583 -0.1961 -0.3752  0.0990
 1784TIP3    H1 5316   3.715   3.347   5.627 -0.6240 -0.6524  1.0870
 1784TIP3    H2 5317   3.629   3.225   5.649 -0.7276 -0.9117 -0.5964
 1785TIP3   OH2 5318   7.216   4.533   1.363 -0.5768 -0.3359  0.0480
 1785TIP3    H1 5319   7.251   4.497   1.281  2.1706 -1.6947  1.6579
 1785TIP3    H2 5320   7.139   4.480   1.382 -1.4096  0.1762 -1.7390
 1786TIP3   OH2 5321   4.174   0.688   4.806  0.2118 -0.3993  0.3490
 1786TIP3    H1 5322   4.231   0.704   4.731 -1.1635  0.9539 -0.4414
 1786TIP3    H2 5323   4.150   0.595   4.799 -0.9217  0.0051 -1.6449
 1787TIP3   OH2 5324   6.219   6.755   4.801  0.2689  0.4289  0.0228
 1787TIP3    H1 5325   6.284   6.736   4.733  0.9336  1.7861  0.2407
 1787TIP3    H2 5326   6.226   6.682   4.862 -0.7897 -1.1526 -1.6540
 1788TIP3   OH2 5327   3.283   1.590   4.136 -0.6744 -0.3586 -0.3485
 1788TIP3    H1 5328   3.309   1.675   4.173  0.7782 -0.0943 -1.8688
 1788TIP3    H2 5329   3.206   1.609   4.084 -2.5515 -0.6763  2.1031
 1789TIP3   OH2 5330   3.629   1.288   4.737  0.2399  0.0771  1.2316
 1789TIP3    H1 5331   3.722   1.296   4.716 -0.0093  0.5663  0.3075
 1789TIP3    H2 5332   3.593   1.233   4.668 -0.5154  1.3959  0.5451
 1790TIP3   OH2 5333   6.547   6.629   0.567  0.2877  0.7371 -0.2974
 1790TIP3    H1 5334   6.485   6.563   0.538  1.5978 -0.6463 -0.0286
 1790TIP3    H2 5335   6.590   6.659   0.487 -1.1400  2.2061 -0.5754
 1791TIP3   OH2 5336   3.284   1.767   5.744  0.1373 -0.1805 -0.1311
 1791TIP3    H1 5337   3.373   1.777   5.778  0.7842 -0.7487 -1.5904
 1791TIP3    H2 5338   3.295   1.755   5.650 -1.6064  1.7547 -0.6590
 1792TIP3   OH2 5339   0.903   1.083   4.884  0.2317  0.1796  0.8456
 1792TIP3    H1 5340   0.907   1.168   4.841 -1.2893  0.2389  0.7518
 1792TIP3    H2 5341   0.904   1.020   4.812  0.6802  0.1466  0.8801
 1793TIP3   OH2 5342   4.767   4.130   2.706  0.1067  0.0434  0.2479
 1793TIP3    H1 5343   4.832   4.197   2.727 -0.6124  0.3014  1.7895
 1793TIP3    H2 5344   4.689   4.156   2.754 -0.4759 -1.4040  0.1360
 1794TIP3   OH2 5345   1.328   5.897   2.536 -0.3176 -0.0307 -0.5713
 1794TIP3    H1 5346   1.339   5.990   2.520  1.0198 -0.2223 -0.9119
 1794TIP3    H2 5347   1.414   5.859   2.516 -1.1608 -1.4968 -1.6548
 1795TIP3   OH2 5348   3.217   6.325   1.390  0.1401 -0.2923  0.4698
 1795TIP3    H1 5349   3.293   6.384   1.388  0.8909 -1.2497  0.2610
 1795TIP3    H2 5350   3.201   6.311   1.483 -0.8625  1.2471  0.5671
 1796TIP3   OH2 5351   5.184   1.997   3.364 -0.6539  0.3289 -0.2594
 1796TIP3    H1 5352   5.089   2.007   3.372 -0.7611 -1.4090  1.4141
 1796TIP3    H2 5353   5.219   2.037   3.444  0.1258  1.6779 -1.2369
 1797TIP3   OH2 5354   1.320   5.299   1.184 -0.3313 -0.0655  0.6163
 1797TIP3    H1 5355   1.364   5.240   1.245  1.3128  1.4116  0.9612
 1797TIP3    H2 5356   1.277   5.242   1.121  1.5202 -1.6380  0.6909
 1798TIP3   OH2 5357   0.881   2.346   1.199 -0.2683  0.5014  0.1181
 1798TIP3    H1 5358   0.824   2.372   1.272 -0.4880  0.0545  0.1081
 1798TIP3    H2 5359   0.824   2.348   1.122  0.2553  2.1827 -0.2617
 1799TIP3   OH2 5360   0.127   1.980   4.345 -0.2843  0.1053 -0.0540
 1799TIP3    H1 5361   0.215   1.993   4.380  0.1268 -1.8600 -0.2556
 1799TIP3    H2 5362   0.099   2.067   4.317  0.7387  1.1370  1.9401
 1800TIP3   OH2 5363   0.061   0.454   1.324  0.3188 -0.0225  0.6106
 1800TIP3    H1 5364   0.147   0.419   1.304  0.1385 -0.1365  0.0168
 1800TIP3    H2 5365   0.031   0.495   1.242  0.2439  0.9365  1.0961
 1801TIP3   OH2 5366   2.666   1.191   4.872  0.0600  0.2244  0.3794
 1801TIP3    H1 5367   2.634   1.133   4.941 -2.0110  1.4844  0.5532
 1801TIP3    H2 5368   2.758   1.167   4.862  0.1394 -0.7913  2.7659
 1802TIP3   OH2 5369   1.550   1.477   3.420 -0.0523  0.4305  0.3752
 1802TIP3    H1 5370   1.533   1.387   3.448  1.1629  1.0360  3.5521
 1802TIP3    H2 5371   1.640   1.476   3.388  0.0010  0.5119  0.5184
 1803TIP3   OH2 5372   1.269   2.766   5.826  0.0189  0.0325  0.6074
 1803TIP3    H1 5373   1.197   2.829   5.823  0.1601  0.1593 -0.8500
 1803TIP3    H2 5374   1.346   2.818   5.849  0.5315  0.8773 -2.5462
 1804TIP3   OH2 5375   0.736   4.147   1.644 -0.8411  0.3890  0.3922
 1804TIP3    H1 5376   0.693   4.183   1.566 -0.8939 -2.7800 -1.2232
 1804TIP3    H2 5377   0.829   4.167   1.631 -1.1547  2.4042  1.0490
 1805TIP3   OH2 5378   2.455   4.723   1.363  0.3846  0.6384 -0.2371
 1805TIP3    H1 5379   2.432   4.810   1.331  0.2956  0.7268  0.0715
 1805TIP3    H2 5380   2.495   4.680   1.287 -0.4555  0.6097 -0.6849
 1806TIP3   OH2 5381   7.156   0.737   4.561  0.1865  0.3776 -0.1502
 1806TIP3    H1 5382   7.201   0.766   4.481  0.3114 -0.5313 -0.4134
 1806TIP3    H2 5383   7.064   0.757   4.545  0.2375  0.3911 -0.4374
 1807TIP3   OH2 5384   3.733   0.895   1.455  0.0798  0.4575 -0.2865
 1807TIP3    H1 5385   3.707   0.845   1.533 -0.7418  0.3330 -0.6242
 1807TIP3    H2 5386   3.720   0.835   1.382  2.0994  0.1364 -0.4230
 1808TIP3   OH2 5387   0.207   2.174   5.436  0.3752  0.1669 -0.3014
 1808TIP3    H1 5388   0.218   2.254   5.487 -0.6847  0.7269 -0.9329
 1808TIP3    H2 5389   0.296   2.140   5.425  0.6438 -0.2228  2.2898
 1809TIP3   OH2 5390   3.600   4.032   3.489  0.1098  0.0400 -0.2884
 1809TIP3    H1 5391   3.609   4.111   3.436  1.5965 -0.1880 -0.4208
 1809TIP3    H2 5392   3.652   4.050   3.568 -0.2195 -0.4896  0.0607
 1810TIP3   OH2 5393   6.062   0.472   2.990  0.5123  0.4569 -0.2009
 1810TIP3    H1 5394   6.082   0.415   2.915  0.5729  0.6491 -0.3311
 1810TIP3    H2 5395   6.107   0.554   2.970  1.2915  0.2099  0.4863
 1811TIP3   OH2 5396   4.508   1.915   3.096 -0.2592  0.6006  0.2451
 1811TIP3    H1 5397   4.462   1.870   3.024  2.7723  0.1593 -1.6176
 1811TIP3    H2 5398   4.560   1.982   3.052 -0.1525  1.9840  2.3701
 1812TIP3   OH2 5399   5.074   3.479   5.816  0.3807  0.5969 -0.3134
 1812TIP3    H1 5400   5.076   3.544   5.886  2.0135  2.1220 -1.6810
 1812TIP3    H2 5401   5.085   3.529   5.736 -0.0325 -1.2211 -1.5791
 1813TIP3   OH2 5402   6.471   6.206   4.058  0.1954 -0.7744  0.0915
 1813TIP3    H1 5403   6.533   6.143   4.096  1.1579  0.0315 -0.0918
 1813TIP3    H2 5404   6.385   6.170   4.079  0.7191 -1.9512  0.3169
 1814TIP3   OH2 5405   4.816   6.270   4.608  0.2329  0.0948 -0.1522
 1814TIP3    H1 5406   4.862   6.186   4.607 -0.9233 -0.5516 -0.9335
 1814TIP3    H2 5407   4.886   6.336   4.605  1.1815 -0.8030  0.9131
 1815TIP3   OH2 5408   3.154   1.624   4.431 -0.2933 -0.2288  0.1821
 1815TIP3    H1 5409   3.139   1.529   4.427 -0.8508 -0.1286 -0.2313
 1815TIP3    H2 5410   3.248   1.633   4.444 -0.2242 -0.8406  0.1283
 1816TIP3   OH2 5411   0.201   1.318  -0.005  0.2031  0.1427  0.1581
 1816TIP3    H1 5412   0.171   1.270   0.073 -2.9727  0.3030 -0.8167
 1816TIP3    H2 5413   0.149   1.398  -0.004  3.2839  2.2842  0.1427
 1817TIP3   OH2 5414   2.503   0.222   2.842 -0.1823  0.1790  0.3024
 1817TIP3    H1 5415   2.559   0.256   2.912 -0.7977 -1.4519  1.6673
 1817TIP3    H2 5416   2.417   0.260   2.861 -0.5000 -0.7787  0.8692
 1818TIP3   OH2 5417   3.074   1.073   2.638 -0.3809  0.3302  0.0742
 1818TIP3    H1 5418   3.041   1.023   2.712 -1.7327  0.6369 -0.2989
 1818TIP3    H2 5419   3.138   1.015   2.596 -0.3964 -0.2584  0.8409
 1819TIP3   OH2 5420   5.694  -0.006   0.252 -0.1282 -0.2248 -0.0624
 1819TIP3    H1 5421   5.636   0.067   0.275  0.3348  0.3297 -0.6217
 1819TIP3    H2 5422   5.733   0.020   0.168  0.3793 -0.9157 -0.0470
 1820TIP3   OH2 5423   5.920   3.060   3.431  0.4388  0.1786 -0.7876
 1820TIP3    H1 5424   5.934   2.998   3.359 -2.0395 -1.3041 -0.1193
 1820TIP3    H2 5425   5.873   3.133   3.390  0.0936 -0.1073 -0.9083
 1821TIP3   OH2 5426   4.115   3.562   5.439  0.3362 -0.0355  0.7129
 1821TIP3    H1 5427   4.123   3.654   5.414 -0.4535  0.3772  1.9234
 1821TIP3    H2 5428   4.032   3.533   5.401  1.1867 -0.6570 -0.7873
 1822TIP3   OH2 5429   0.529   3.828   0.405  0.1857  0.2043  0.1092
 1822TIP3    H1 5430   0.434   3.843   0.411 -0.4435 -2.5122 -1.3449
 1822TIP3    H2 5431   0.560   3.836   0.496 -1.7887 -0.7191  0.9182
 1823TIP3   OH2 5432   0.086   0.399   2.334 -0.2350  1.0793 -0.4855
 1823TIP3    H1 5433   0.134   0.319   2.357 -0.9026  0.2840 -1.7543
 1823TIP3    H2 5434   0.094   0.454   2.412  1.6123  0.4503 -0.1679
 1824TIP3   OH2 5435   5.073   6.431   2.488  0.7512  0.5604 -0.4812
 1824TIP3    H1 5436   5.152   6.480   2.508  2.3510 -1.4427 -1.4908
 1824TIP3    H2 5437   5.095   6.340   2.507 -1.4116 -0.0476 -0.5499
 1825TIP3   OH2 5438   4.461   6.251   5.405 -0.2682 -0.0282  0.4464
 1825TIP3    H1 5439   4.436   6.298   5.485 -1.9254 -0.4761  0.2298
 1825TIP3    H2 5440   4.462   6.159   5.431 -2.9199 -0.4043 -0.4624
 1826TIP3   OH2 5441   4.094   0.259   3.018 -0.0627 -0.3150 -0.0557
 1826TIP3    H1 5442   4.136   0.219   2.942  1.1640 -1.1915  1.0395
 1826TIP3    H2 5443   4.081   0.186   3.079 -2.4876  0.0720 -0.0170
 1827TIP3   OH2 5444   0.590   6.127   4.437  0.0411 -0.4478 -0.3845
 1827TIP3    H1 5445   0.624   6.208   4.399 -1.1580  0.2248 -0.0649
 1827TIP3    H2 5446   0.618   6.059   4.376  3.2231 -0.1745  0.5723
 1828TIP3   OH2 5447   5.276   6.017   1.273  0.5560  0.0421 -0.3061
 1828TIP3    H1 5448   5.250   6.044   1.362 -0.1765  0.7710 -0.7274
 1828TIP3    H2 5449   5.321   5.934   1.286 -0.8611 -0.6215  0.6019
 1829TIP3   OH2 5450   1.320   5.515   0.265 -0.1756 -0.3652 -0.2884
 1829TIP3    H1 5451   1.310   5.472   0.349 -0.0095 -0.7921 -0.4831
 1829TIP3    H2 5452   1.232   5.543   0.241 -0.0771  0.6838  0.5024
 1830TIP3   OH2 5453   6.166   6.649   1.741 -0.1764 -0.2789  0.1604
 1830TIP3    H1 5454   6.078   6.627   1.773 -0.5231  1.9261  0.8855
 1830TIP3    H2 5455   6.222   6.580   1.776 -1.3380 -0.6732  1.3287
 1831TIP3   OH2 5456   0.724   1.549   5.225  0.1234  0.3785  0.5417
 1831TIP3    H1 5457   0.673   1.524   5.302  0.6291 -1.6049  0.2909
 1831TIP3    H2 5458   0.698   1.486   5.158  0.4710  1.4102 -0.6052
 1832TIP3   OH2 5459   2.729   1.958   5.283 -0.2807 -0.1775 -0.0559
 1832TIP3    H1 5460   2.794   2.021   5.253 -0.0212 -0.9806 -1.2689
 1832TIP3    H2 5461   2.662   1.958   5.213 -1.4747  0.4430  1.0371
 1833TIP3   OH2 5462   4.660   2.047   1.898  0.3340 -0.4829 -0.1125
 1833TIP3    H1 5463   4.599   2.087   1.960  0.8554 -1.4996  1.0957
 1833TIP3    H2 5464   4.613   1.969   1.865  0.0424  0.0711 -1.0649
 1834TIP3   OH2 5465   3.618   0.027   3.776  0.5534  0.4150  0.2930
 1834TIP3    H1 5466   3.576   0.113   3.774 -2.8643 -1.1050 -1.7055
 1834TIP3    H2 5467   3.662   0.019   3.692  1.6621  0.5067  0.8442
 1835TIP3   OH2 5468   6.926   3.197   0.436  0.2445 -0.2861  0.2184
 1835TIP3    H1 5469   6.892   3.217   0.523 -0.6993 -1.9233  0.2764
 1835TIP3    H2 5470   7.020   3.186   0.449  0.1787 -0.0297  0.9390
 1836TIP3   OH2 5471   1.198   6.753   2.156  0.4004 -0.4598  0.4775
 1836TIP3    H1 5472   1.146   6.782   2.231  0.3364  1.2834 -0.2080
 1836TIP3    H2 5473   1.137   6.700   2.105  0.2174 -1.0094  1.2451
 1837TIP3   OH2 5474   3.988   2.526   1.532  0.5073  0.0802  0.0526
 1837TIP3    H1 5475   4.025   2.440   1.513  1.4935  0.5100  0.0205
 1837TIP3    H2 5476   3.972   2.565   1.446 -1.1069 -0.5301  0.0248
 1838TIP3   OH2 5477   4.602   4.145   4.235  0.2183  0.3007 -0.2611
 1838TIP3    H1 5478   4.695   4.166   4.240  0.8047 -1.5961 -1.9374
 1838TIP3    H2 5479   4.597   4.052   4.257 -1.3525  0.4594  0.1966
 1839TIP3   OH2 5480   6.897   1.239   2.464  0.2449  0.1491  0.1392
 1839TIP3    H1 5481   6.983   1.281   2.455  0.5228 -0.6886 -1.5339
 1839TIP3    H2 5482   6.886   1.226   2.558  0.9346  2.2934  0.5673
 1840TIP3   OH2 5483   3.358   0.815   2.887 -0.1701 -0.3643 -0.1552
 1840TIP3    H1 5484   3.374   0.767   2.806 -0.5793  1.1857 -1.2159
 1840TIP3    H2 5485   3.353   0.907   2.859  0.2991  0.2736  1.7226
 1841TIP3   OH2 5486   1.161   5.899   1.386 -0.6394 -0.1352 -0.4533
 1841TIP3    H1 5487   1.137   5.889   1.294  0.8224 -1.0930 -0.7663
 1841TIP3    H2 5488   1.190   5.812   1.413  2.5577  0.8529 -0.2206
 1842TIP3   OH2 5489   4.002   5.256   4.988 -0.1005  0.4989  0.2790
 1842TIP3    H1 5490   3.916   5.292   4.971 -0.4622 -0.1652  0.6383
 1842TIP3    H2 5491   4.063   5.318   4.947 -0.8191 -0.0322 -1.7516
 1843TIP3   OH2 5492   4.325   4.071   3.410  0.2524 -0.1683  0.1024
 1843TIP3    H1 5493   4.403   4.112   3.374 -0.5956  1.4596  0.0345
 1843TIP3    H2 5494   4.286   4.023   3.336 -0.2064  1.1965 -0.5671
 1844TIP3   OH2 5495   1.444   1.546   1.969  0.3232 -0.1419 -0.1692
 1844TIP3    H1 5496   1.436   1.574   1.877 -1.8926  1.1831  0.3417
 1844TIP3    H2 5497   1.388   1.469   1.974 -0.5851  0.5242  0.2955
 1845TIP3   OH2 5498   2.568   2.374   4.780 -0.3050 -0.1446  0.1113
 1845TIP3    H1 5499   2.474   2.361   4.790 -0.6884  2.3468  0.3198
 1845TIP3    H2 5500   2.608   2.306   4.834 -1.8709 -2.5697 -1.5442
 1846TIP3   OH2 5501   1.477   0.878   4.018 -0.4591  0.0195 -0.3784
 1846TIP3    H1 5502   1.475   0.968   3.984 -0.2014  0.6038  1.0627
 1846TIP3    H2 5503   1.570   0.860   4.032 -0.4986 -0.5428 -0.8064
 1847TIP3   OH2 5504   1.294   4.308   4.015  0.5864  0.0753  0.1881
 1847TIP3    H1 5505   1.373   4.325   3.964  0.4711 -1.1095 -0.4323
 1847TIP3    H2 5506   1.324   4.256   4.089  0.0500 -3.4504 -1.8328
 1848TIP3   OH2 5507   1.155   5.442   4.166 -0.7081  0.6369 -0.0111
 1848TIP3    H1 5508   1.186   5.490   4.089 -1.5486  0.3303 -0.5608
 1848TIP3    H2 5509   1.178   5.351   4.148 -0.3665  0.6420  0.3863
 1849TIP3   OH2 5510   7.125   6.183   5.626  0.1733  0.1718 -0.0018
 1849TIP3    H1 5511   7.132   6.225   5.541 -0.2131  1.3311  0.5176
 1849TIP3    H2 5512   7.172   6.100   5.616  2.1124  1.2788 -0.6989
 1850TIP3   OH2 5513   5.147   4.854   1.601  0.0118 -0.1917 -0.1877
 1850TIP3    H1 5514   5.191   4.894   1.526  0.0317  0.1402  0.0020
 1850TIP3    H2 5515   5.216   4.803   1.645 -0.4025 -1.9520 -1.4576
 1851TIP3   OH2 5516   6.549   2.433   3.296  0.0393 -0.4760 -0.5456
 1851TIP3    H1 5517   6.588   2.390   3.219  1.0130 -0.2983 -0.1604
 1851TIP3    H2 5518   6.521   2.360   3.352 -0.6898 -0.6062 -1.0695
 1852TIP3   OH2 5519   1.043   4.150   1.662  0.7270 -0.5038 -0.1506
 1852TIP3    H1 5520   1.106   4.160   1.591  2.2483 -1.1580  1.0389
 1852TIP3    H2 5521   1.068   4.067   1.705  0.1269  0.0628  1.3793
 1853TIP3   OH2 5522   3.426   6.773   3.274  0.1967  0.3831  0.0140
 1853TIP3    H1 5523   3.488   6.718   3.322  0.7397  0.6034 -0.4111
 1853TIP3    H2 5524   3.424   6.735   3.186  0.2388  0.7726 -0.1585
 1854TIP3   OH2 5525   4.595   6.513   4.630 -0.4119 -0.0870  0.8462
 1854TIP3    H1 5526   4.647   6.584   4.665  0.9932  0.4744 -2.0901
 1854TIP3    H2 5527   4.632   6.434   4.670 -0.5554  0.6304  2.4630
 1855TIP3   OH2 5528   1.640   0.371   1.669  0.4212 -0.5461 -0.8442
 1855TIP3    H1 5529   1.597   0.286   1.666 -0.5207 -0.0789 -0.9994
 1855TIP3    H2 5530   1.622   0.410   1.583 -0.6516  0.5134 -0.1627
 1856TIP3   OH2 5531   1.667   2.610   1.128 -0.1218  0.3866  0.5649
 1856TIP3    H1 5532   1.696   2.587   1.216 -0.5154 -1.6633  0.2114
 1856TIP3    H2 5533   1.580   2.648   1.141 -0.1927  0.0663  1.0608
 1857TIP3   OH2 5534   1.543   0.653   2.626 -0.4808 -0.2634  0.4901
 1857TIP3    H1 5535   1.613   0.649   2.691 -0.2123  1.1784  0.3101
 1857TIP3    H2 5536   1.514   0.562   2.617  2.3496 -1.1497 -0.5660
 1858TIP3   OH2 5537   3.505   6.458   1.094 -0.2087  0.3221  0.1804
 1858TIP3    H1 5538   3.412   6.457   1.074  0.1172  0.0013 -1.5529
 1858TIP3    H2 5539   3.530   6.365   1.093  0.4212  0.4793 -1.0861
 1859TIP3   OH2 5540   3.885   0.334   3.637  0.1243  0.1632  0.1593
 1859TIP3    H1 5541   3.839   0.368   3.714  0.6128  2.0750 -0.3277
 1859TIP3    H2 5542   3.906   0.412   3.586 -0.1194 -1.0495 -1.8945
 1860TIP3   OH2 5543   0.832   3.414   5.772  0.2790 -0.0971 -0.4650
 1860TIP3    H1 5544   0.901   3.449   5.828  1.8965 -1.8971 -1.2256
 1860TIP3    H2 5545   0.839   3.465   5.691  0.3450  0.0995 -0.3371
 1861TIP3   OH2 5546   3.832   4.298   2.482 -0.0598 -0.0686  0.0330
 1861TIP3    H1 5547   3.797   4.351   2.410 -1.2912 -0.6303  0.1936
 1861TIP3    H2 5548   3.780   4.218   2.480 -0.3544  0.0473  1.7709
 1862TIP3   OH2 5549   3.717   5.404   1.669 -0.0405 -0.2904  0.2517
 1862TIP3    H1 5550   3.645   5.467   1.669  0.7468  0.8051 -3.1378
 1862TIP3    H2 5551   3.680   5.324   1.633  0.1681 -0.0609 -0.4840
 1863TIP3   OH2 5552   5.857   3.907   2.570  0.1905 -0.0171  0.5126
 1863TIP3    H1 5553   5.925   3.952   2.521 -0.1383  0.6376  0.6544
 1863TIP3    H2 5554   5.783   3.902   2.510  0.6135 -1.4708  0.0582
 1864TIP3   OH2 5555   3.504   2.446   3.637  0.0966 -0.2410 -0.0115
 1864TIP3    H1 5556   3.561   2.389   3.585  0.9029 -0.2380  0.8595
 1864TIP3    H2 5557   3.470   2.390   3.706 -0.4985 -0.0871 -0.1703
 1865TIP3   OH2 5558   4.631   6.265   4.799  0.3838 -0.1665  0.5036
 1865TIP3    H1 5559   4.680   6.235   4.876 -1.3536 -2.9153  0.6702
 1865TIP3    H2 5560   4.694   6.259   4.727  1.5850  0.9462  1.4046
 1866TIP3   OH2 5561   3.230   2.171   4.663  0.5496  0.0765 -0.0758
 1866TIP3    H1 5562   3.293   2.127   4.720  0.4167  1.6101  1.3192
 1866TIP3    H2 5563   3.192   2.240   4.717 -1.8226 -0.3235 -1.0975
 1867TIP3   OH2 5564   1.354   5.834   2.117  0.6859  0.1126 -0.9158
 1867TIP3    H1 5565   1.366   5.918   2.073  1.0438  1.3955  1.4679
 1867TIP3    H2 5566   1.442   5.799   2.125  0.6462 -0.0135 -1.0365
 1868TIP3   OH2 5567   4.581   4.153   3.721 -0.6588  0.0730 -0.1544
 1868TIP3    H1 5568   4.650   4.087   3.715 -0.4984  0.3378 -1.4738
 1868TIP3    H2 5569   4.594   4.193   3.807  2.4955  1.8913 -1.2991
 1869TIP3   OH2 5570   5.863   0.576   5.453  0.4528  0.4044 -0.3201
 1869TIP3    H1 5571   5.927   0.505   5.449  2.1639  1.7437  1.3555
 1869TIP3    H2 5572   5.878   0.626   5.373  0.8541  0.1608 -0.4014
 1870TIP3   OH2 5573   6.812   1.168   5.109 -0.0785  0.1712  0.4518
 1870TIP3    H1 5574   6.764   1.085   5.108 -1.1128  0.7478  0.5307
 1870TIP3    H2 5575   6.746   1.233   5.133  0.8935  0.9145  1.1678
 1871TIP3   OH2 5576   0.405   1.029   1.373 -0.8159 -0.1481 -0.6081
 1871TIP3    H1 5577   0.434   0.967   1.306 -1.5550 -0.1022 -0.9720
 1871TIP3    H2 5578   0.373   1.104   1.323 -0.7726  0.1517 -0.1876
 1872TIP3   OH2 5579   0.721   2.812   0.977  0.0738  0.6540  0.3697
 1872TIP3    H1 5580   0.726   2.744   1.045 -3.0797 -0.7413 -0.6347
 1872TIP3    H2 5581   0.650   2.870   1.007  2.1278  3.1469  0.7698
 1873TIP3   OH2 5582   2.131   5.658   3.803  0.3249 -0.2401 -0.5442
 1873TIP3    H1 5583   2.224   5.658   3.826  0.2341 -0.7221 -0.1578
 1873TIP3    H2 5584   2.088   5.700   3.878 -0.1639 -3.3325  1.0875
 1874TIP3   OH2 5585   7.107   5.364   0.359  0.4181 -0.1269  0.5540
 1874TIP3    H1 5586   7.049   5.298   0.398  0.7839 -1.5191 -1.1145
 1874TIP3    H2 5587   7.064   5.448   0.377 -1.2064 -0.9825  0.8854
 1875TIP3   OH2 5588   2.815   3.578   4.797 -0.1913  0.3027  0.0951
 1875TIP3    H1 5589   2.808   3.668   4.828 -0.4956  0.4946 -0.5103
 1875TIP3    H2 5590   2.811   3.525   4.876 -0.8951  0.7850  0.3988
 1876TIP3   OH2 5591   1.097   5.988   4.469 -0.0236  0.2138 -0.1853
 1876TIP3    H1 5592   1.014   5.951   4.439 -0.5985  1.0759  0.3069
 1876TIP3    H2 5593   1.128   6.041   4.395  1.3841 -2.0456 -1.3540
 1877TIP3   OH2 5594   6.588   5.568   5.329 -0.1926 -0.0504  0.0937
 1877TIP3    H1 5595   6.538   5.644   5.300 -0.7884 -0.6855 -0.5655
 1877TIP3    H2 5596   6.591   5.576   5.425  1.4695  1.8642 -0.0420
 1878TIP3   OH2 5597   6.216   2.837   1.859  0.6245  0.3963  0.0161
 1878TIP3    H1 5598   6.253   2.781   1.928  0.3896 -0.3108 -0.4156
 1878TIP3    H2 5599   6.144   2.883   1.902 -0.7344 -1.4272 -0.1681
 1879TIP3   OH2 5600   4.646   1.839   0.327 -0.1279 -0.1117 -0.3811
 1879TIP3    H1 5601   4.731   1.795   0.329 -0.6772 -1.2719 -1.1844
 1879TIP3    H2 5602   4.599   1.802   0.402 -0.1985 -0.0408 -0.3904
 1880TIP3   OH2 5603   5.121   3.381   5.202 -0.1653  0.1412 -0.0789
 1880TIP3    H1 5604   5.033   3.420   5.202  0.1220  0.8049  0.4779
 1880TIP3    H2 5605   5.123   3.328   5.281  0.4977  1.4663  0.8342
 1881TIP3   OH2 5606   0.906   3.348   5.163 -0.0918 -0.2318 -0.2301
 1881TIP3    H1 5607   0.850   3.308   5.229  0.2445 -0.3579 -0.0142
 1881TIP3    H2 5608   0.992   3.310   5.179  0.0325 -0.1224 -0.6241
 1882TIP3   OH2 5609   1.417   4.270   3.537 -0.0704  0.3052 -0.6494
 1882TIP3    H1 5610   1.376   4.237   3.457  0.0814  0.1064 -0.6459
 1882TIP3    H2 5611   1.396   4.205   3.603 -2.5229  1.7644  0.1467
 1883TIP3   OH2 5612   5.265   3.800   2.658  0.1232  0.4684 -0.3523
 1883TIP3    H1 5613   5.248   3.777   2.749  0.6171  1.0777 -0.0954
 1883TIP3    H2 5614   5.190   3.767   2.610 -1.1189  1.8296  0.5553
 1884TIP3   OH2 5615   1.888   5.562   3.129 -0.2309  0.0736  0.0722
 1884TIP3    H1 5616   1.935   5.555   3.212  1.1874 -1.3392 -0.7979
 1884TIP3    H2 5617   1.923   5.491   3.075 -1.3612  0.7329 -1.6245
 1885TIP3   OH2 5618   6.145   3.320   3.864  0.4508  0.1156 -0.2160
 1885TIP3    H1 5619   6.176   3.410   3.874 -1.7450  0.6741  3.1295
 1885TIP3    H2 5620   6.211   3.266   3.907 -0.2341  0.6715  1.6335
 1886TIP3   OH2 5621   2.879   5.224   3.848  0.1783  0.0779 -0.1267
 1886TIP3    H1 5622   2.884   5.204   3.755  0.1113  1.7948 -0.5406
 1886TIP3    H2 5623   2.951   5.175   3.888  1.1873  0.5536 -1.3236
 1887TIP3   OH2 5624   2.671   0.353   0.025 -0.3223 -0.0533  0.0806
 1887TIP3    H1 5625   2.625   0.422   0.074 -1.7448 -1.0615  0.2176
 1887TIP3    H2 5626   2.673   0.386  -0.065  1.4025  1.3463  0.5693
 1888TIP3   OH2 5627   2.203   2.070   3.392  0.0579 -0.4858 -0.0835
 1888TIP3    H1 5628   2.217   2.163   3.372  1.3308 -0.7925 -0.7829
 1888TIP3    H2 5629   2.278   2.047   3.447  0.0188 -1.2171 -0.3384
 1889TIP3   OH2 5630   5.506   3.433   1.302 -0.5203 -0.3742  0.2472
 1889TIP3    H1 5631   5.473   3.348   1.330  0.8411 -0.8682  0.4124
 1889TIP3    H2 5632   5.483   3.492   1.374 -0.9703 -0.7174  0.3901
 1890TIP3   OH2 5633   0.316   3.593   2.879  0.3016 -0.3617  0.0629
 1890TIP3    H1 5634   0.240   3.560   2.928  0.4059 -1.2378 -0.3477
 1890TIP3    H2 5635   0.305   3.557   2.791  1.9141 -1.7100  0.3626
 1891TIP3   OH2 5636   1.947   6.237   4.135  0.0440 -0.1776  0.0295
 1891TIP3    H1 5637   1.928   6.262   4.045 -2.2439  0.4248  0.6140
 1891TIP3    H2 5638   2.033   6.274   4.153  0.3174  0.1208 -1.7398
 1892TIP3   OH2 5639   2.335   5.591   2.630 -0.0774  0.1898 -0.0185
 1892TIP3    H1 5640   2.334   5.602   2.535 -2.4276 -0.4992 -0.1159
 1892TIP3    H2 5641   2.267   5.526   2.648 -2.7126  3.2956  2.4189
 1893TIP3   OH2 5642   1.760   0.202   2.432  0.0678  0.7255  0.0438
 1893TIP3    H1 5643   1.812   0.187   2.353  0.2267  0.7101  0.1498
 1893TIP3    H2 5644   1.795   0.140   2.496 -0.1625  0.6329  0.0787
 1894TIP3   OH2 5645   5.104   0.638   5.043 -0.0447 -0.0794 -0.1146
 1894TIP3    H1 5646   5.151   0.567   4.999 -0.9879 -0.4156 -0.6242
 1894TIP3    H2 5647   5.081   0.699   4.973  1.3978  1.1346  0.4227
 1895TIP3   OH2 5648   0.719   1.661   2.612 -0.2347  0.1015 -0.3599
 1895TIP3    H1 5649   0.787   1.593   2.612 -0.6845 -0.4064 -2.0505
 1895TIP3    H2 5650   0.675   1.651   2.696 -0.3946 -1.8337 -0.6262
 1896TIP3   OH2 5651   3.205   1.850   2.194  0.1497 -0.1930 -0.1001
 1896TIP3    H1 5652   3.235   1.916   2.132 -0.0586 -1.5159 -1.7094
 1896TIP3    H2 5653   3.117   1.879   2.219  0.6723  0.9393  0.4670
 1897TIP3   OH2 5654   4.646   3.955   5.767  0.5827  0.1817 -0.4918
 1897TIP3    H1 5655   4.715   3.991   5.712  0.2863  1.4260 -0.0832
 1897TIP3    H2 5656   4.565   3.985   5.726  0.3677  1.4491  0.8032
 1898TIP3   OH2 5657   4.460   3.715   3.822  0.5861  0.8621 -0.3287
 1898TIP3    H1 5658   4.435   3.785   3.882 -0.2522  1.4691 -1.3370
 1898TIP3    H2 5659   4.545   3.685   3.853 -1.1193 -1.0462  3.0934
 1899TIP3   OH2 5660   0.749   3.415   4.700  0.3093  0.3964  0.4970
 1899TIP3    H1 5661   0.770   3.333   4.744 -0.4913 -0.7326 -1.1153
 1899TIP3    H2 5662   0.709   3.388   4.617 -1.1414  2.4039  0.4649
 1900TIP3   OH2 5663   6.358   5.700   3.281  1.0074 -0.2385  0.2089
 1900TIP3    H1 5664   6.304   5.740   3.349  0.4692  1.4301 -1.1434
 1900TIP3    H2 5665   6.398   5.624   3.324 -0.4557 -0.0861  1.9452
 1901TIP3   OH2 5666   1.217   4.799   1.470  0.1628  0.5459  0.7483
 1901TIP3    H1 5667   1.124   4.819   1.458  0.1161  0.0226  0.2222
 1901TIP3    H2 5668   1.254   4.880   1.505  0.1038  1.7997 -1.8865
 1902TIP3   OH2 5669   7.226   3.539   5.480 -0.1667 -0.4427 -0.1982
 1902TIP3    H1 5670   7.258   3.506   5.396  0.6014 -1.2572  0.3931
 1902TIP3    H2 5671   7.133   3.556   5.466  0.1391  0.2901 -1.4616
 1903TIP3   OH2 5672   2.302   4.135   2.089  0.0589 -0.2495  0.3910
 1903TIP3    H1 5673   2.398   4.140   2.085  0.2121 -0.7009  2.3319
 1903TIP3    H2 5674   2.284   4.041   2.095 -0.5294 -0.1743 -0.0966
 1904TIP3   OH2 5675   4.478   0.926   5.278  0.2299 -0.4679 -0.3322
 1904TIP3    H1 5676   4.498   1.012   5.241 -0.2830 -0.1353  0.1528
 1904TIP3    H2 5677   4.545   0.913   5.346  0.3397 -0.4804 -0.4411
 1905TIP3   OH2 5678   1.438   2.053   0.840 -0.3026  0.3029 -0.0680
 1905TIP3    H1 5679   1.371   1.990   0.816  2.0455 -2.5229  0.1723
 1905TIP3    H2 5680   1.490   2.065   0.761  0.2054  0.7228  0.3150
 1906TIP3   OH2 5681   6.274   4.337   4.928 -0.4642  0.0120  0.4989
 1906TIP3    H1 5682   6.302   4.246   4.922 -1.3992 -0.1831 -1.4732
 1906TIP3    H2 5683   6.346   4.387   4.890 -1.0055 -0.1328 -0.7369
 1907TIP3   OH2 5684   0.279   3.209   5.521 -0.4287 -0.3357 -0.3027
 1907TIP3    H1 5685   0.326   3.224   5.439  0.5891  0.5196  0.3935
 1907TIP3    H2 5686   0.195   3.252   5.510 -0.3305 -0.3025 -0.9317
 1908TIP3   OH2 5687   3.694   2.594   3.085 -0.5632  0.5977  0.4737
 1908TIP3    H1 5688   3.673   2.516   3.136  2.8652 -1.1906 -0.4993
 1908TIP3    H2 5689   3.626   2.597   3.017 -2.2943  0.0976  2.1019
 1909TIP3   OH2 5690   0.317   0.817   1.703  0.2849  0.2722 -0.6200
 1909TIP3    H1 5691   0.370   0.887   1.666 -1.1100  1.6373 -0.1193
 1909TIP3    H2 5692   0.326   0.828   1.798 -1.1519  0.7550 -0.5228
 1910TIP3   OH2 5693   5.110   4.071   2.996 -0.3755  0.1078  0.0419
 1910TIP3    H1 5694   5.138   4.012   3.066  2.0527  0.4832 -0.5500
 1910TIP3    H2 5695   5.084   4.151   3.042  2.0793  0.6956  0.5456
 1911TIP3   OH2 5696   6.234   1.399   1.890  0.4904 -0.1180  0.6856
 1911TIP3    H1 5697   6.192   1.368   1.970 -0.4814 -0.5557  0.0244
 1911TIP3    H2 5698   6.258   1.319   1.843 -2.4040 -0.0224 -1.2241
 1912TIP3   OH2 5699   3.524   1.262   3.366  0.0696 -0.2581 -0.1574
 1912TIP3    H1 5700   3.619   1.265   3.361  0.1448  0.4297  1.1973
 1912TIP3    H2 5701   3.494   1.344   3.328  0.2187  0.9903  2.2103
 1913TIP3   OH2 5702   3.023   2.649   4.633  0.0468 -0.0528  0.1533
 1913TIP3    H1 5703   3.078   2.647   4.711 -0.1605  0.1376  0.3063
 1913TIP3    H2 5704   2.933   2.645   4.666 -0.0952  1.3004  0.0099
 1914TIP3   OH2 5705   6.350   2.658   2.103 -0.0161 -0.5266  0.2540
 1914TIP3    H1 5706   6.360   2.753   2.112 -1.9003 -0.2374 -0.3030
 1914TIP3    H2 5707   6.319   2.629   2.189  1.2786 -0.7740  0.6558
 1915TIP3   OH2 5708   4.593   2.264   1.713  0.2262 -0.5617 -0.2924
 1915TIP3    H1 5709   4.610   2.194   1.776  1.1347 -0.3545 -0.2817
 1915TIP3    H2 5710   4.664   2.327   1.728 -1.1201  0.8412  0.3584
 1916TIP3   OH2 5711   2.408   5.671   3.850  0.5691  0.6262  0.5539
 1916TIP3    H1 5712   2.499   5.696   3.866  0.8934 -1.3809  2.3954
 1916TIP3    H2 5713   2.413   5.603   3.782  0.3559  1.0216  0.1367
 1917TIP3   OH2 5714   2.332   4.810   1.731  0.1400 -0.3550  0.1051
 1917TIP3    H1 5715   2.287   4.745   1.785 -0.5997 -0.8978 -1.1309
 1917TIP3    H2 5716   2.271   4.882   1.723  0.4816 -0.0206  0.4644
 1918TIP3   OH2 5717   0.183   1.012   2.692 -0.7467 -0.5083  0.4359
 1918TIP3    H1 5718   0.092   0.998   2.719 -0.8085 -0.0161  0.4887
 1918TIP3    H2 5719   0.218   1.073   2.757 -0.4845 -0.4118  0.2031
 1919TIP3   OH2 5720   0.983   4.749   1.680  0.3093  0.1482  0.5677
 1919TIP3    H1 5721   0.993   4.754   1.775  0.2978  1.0356  0.5353
 1919TIP3    H2 5722   0.997   4.657   1.659  0.9196  0.0457  1.3605
 1920TIP3   OH2 5723   0.813   1.376   2.627  0.1623  0.4200 -0.6514
 1920TIP3    H1 5724   0.832   1.342   2.540  3.8686 -0.8969  0.4965
 1920TIP3    H2 5725   0.771   1.302   2.672  0.9071  0.0738 -0.5072
 1921TIP3   OH2 5726   6.137   3.215   3.096  0.1188 -0.0177 -0.0816
 1921TIP3    H1 5727   6.231   3.203   3.086  0.4375  1.5875  0.7403
 1921TIP3    H2 5728   6.127   3.257   3.182 -1.2058  1.3168 -0.8545
 1922TIP3   OH2 5729   5.053   1.729   1.004 -0.6342 -0.2189  0.4256
 1922TIP3    H1 5730   5.077   1.680   0.925 -1.7099 -0.0519 -0.0127
 1922TIP3    H2 5731   5.089   1.676   1.076  0.2067 -0.4593 -0.1462
 1923TIP3   OH2 5732   5.501   1.566   1.481 -0.0724 -0.3229 -0.1464
 1923TIP3    H1 5733   5.547   1.579   1.398 -1.0260 -1.0098 -0.8102
 1923TIP3    H2 5734   5.411   1.546   1.455 -0.8260  1.1800  1.1109
 1924TIP3   OH2 5735   4.950   1.421   5.249  0.5340 -0.2214 -0.6174
 1924TIP3    H1 5736   5.027   1.380   5.211  1.5381  1.3759 -0.4119
 1924TIP3    H2 5737   4.950   1.510   5.214 -2.0494 -0.5605 -1.7558
 1925TIP3   OH2 5738   1.201   5.331   1.467  0.0978  0.2358  0.4660
 1925TIP3    H1 5739   1.229   5.285   1.388  1.1133  0.6599  0.5631
 1925TIP3    H2 5740   1.277   5.383   1.493  0.0321 -0.4420  2.1320
 1926TIP3   OH2 5741   1.137   2.775   4.264 -0.4099 -0.0669 -0.4247
 1926TIP3    H1 5742   1.198   2.751   4.195 -1.2971 -1.9625 -0.6250
 1926TIP3    H2 5743   1.054   2.790   4.219 -0.3922  1.3547 -0.0340
 1927TIP3   OH2 5744   2.171   4.302   3.454  0.0845 -0.8142  0.1897
 1927TIP3    H1 5745   2.189   4.325   3.545 -0.2069 -0.4855  0.1625
 1927TIP3    H2 5746   2.120   4.221   3.459  1.3743 -1.6521  0.2757
 1928TIP3   OH2 5747   2.670   5.987   3.545  0.3245 -0.5158  0.0013
 1928TIP3    H1 5748   2.609   5.927   3.502  0.5020 -1.4207  0.9735
 1928TIP3    H2 5749   2.643   5.988   3.637 -1.9251  3.6456 -0.4445
 1929TIP3   OH2 5750   7.128   5.050   2.074  1.1429  0.2140  0.3220
 1929TIP3    H1 5751   7.092   4.987   2.136 -0.2931  0.4940 -0.1724
 1929TIP3    H2 5752   7.190   5.000   2.021  1.0219 -0.4532  0.8043
 1930TIP3   OH2 5753   5.536   2.822   1.411 -0.1740 -0.2789  0.3144
 1930TIP3    H1 5754   5.449   2.814   1.374 -0.4333  0.5643  0.7303
 1930TIP3    H2 5755   5.551   2.737   1.455 -0.0559 -1.0976 -1.2443
 1931TIP3   OH2 5756   5.578   5.338   4.048  0.4081  0.0328  0.1289
 1931TIP3    H1 5757   5.653   5.300   4.094 -2.0207 -0.7394  3.8499
 1931TIP3    H2 5758   5.574   5.428   4.078 -0.9354 -0.3332  1.1094
 1932TIP3   OH2 5759   5.283   3.071   2.206  0.1635 -0.4408  0.3169
 1932TIP3    H1 5760   5.362   3.123   2.218  0.7010 -1.3019  0.5705
 1932TIP3    H2 5761   5.211   3.134   2.219  0.7899  0.4613 -0.4603
 1933TIP3   OH2 5762   0.431   5.301   4.187 -0.3696 -0.3235  0.2648
 1933TIP3    H1 5763   0.491   5.369   4.218  0.5809 -0.8681 -0.3458
 1933TIP3    H2 5764   0.406   5.330   4.099 -0.3185 -0.5332  0.1820
 1934TIP3   OH2 5765   1.714   4.849   5.279 -0.1281 -0.1447  0.1539
 1934TIP3    H1 5766   1.705   4.759   5.309 -2.9607 -0.4806 -1.4199
 1934TIP3    H2 5767   1.669   4.901   5.345  1.7962  0.2577  1.2422
 1935TIP3   OH2 5768   3.538   1.544   5.371 -0.1821 -0.2242 -0.2789
 1935TIP3    H1 5769   3.582   1.488   5.434  0.0985 -0.6003 -0.8031
 1935TIP3    H2 5770   3.450   1.508   5.363 -0.6516  0.6149  0.8777
 1936TIP3   OH2 5771   4.214   6.012   0.345 -0.1796  0.0736 -0.0534
 1936TIP3    H1 5772   4.289   6.020   0.287  1.2662  0.4038  1.7893
 1936TIP3    H2 5773   4.229   5.930   0.393 -1.4696 -0.3265 -0.2982
 1937TIP3   OH2 5774   6.886   2.381   1.664 -0.7494  0.3277  0.3994
 1937TIP3    H1 5775   6.848   2.452   1.613  0.3091  0.5854 -0.0673
 1937TIP3    H2 5776   6.836   2.380   1.745 -0.7179  1.6747  0.4546
 1938TIP3   OH2 5777   0.302   0.132   1.446  0.2636 -0.0372  0.4835
 1938TIP3    H1 5778   0.352   0.169   1.519  0.9682  0.3504 -0.1725
 1938TIP3    H2 5779   0.319   0.038   1.450  1.3889  0.1276  0.0428
 1939TIP3   OH2 5780   6.583   2.150   5.598  0.8987 -1.1623  0.8569
 1939TIP3    H1 5781   6.501   2.124   5.641  0.1937 -1.6961 -0.7302
 1939TIP3    H2 5782   6.567   2.239   5.567  0.8127 -1.3546  0.3334
 1940TIP3   OH2 5783   3.777   1.496   4.028 -0.5120  0.0724  0.4407
 1940TIP3    H1 5784   3.783   1.481   4.122 -3.4118 -0.3925  0.6307
 1940TIP3    H2 5785   3.835   1.431   3.989 -0.3240 -0.6332  1.8564
 1941TIP3   OH2 5786   3.739   3.338   1.798 -0.0420 -0.2741 -0.7143
 1941TIP3    H1 5787   3.764   3.411   1.855  1.3046 -1.1930 -0.0707
 1941TIP3    H2 5788   3.647   3.321   1.821  0.2006 -0.0349  0.5285
 1942TIP3   OH2 5789   2.727   1.891   0.829 -0.1465 -0.4680  0.0395
 1942TIP3    H1 5790   2.713   1.951   0.903 -0.8596 -1.6546  0.8968
 1942TIP3    H2 5791   2.821   1.894   0.813 -0.2219  1.2490 -0.2722
 1943TIP3   OH2 5792   5.702   6.253   1.172 -0.1081  0.1488 -0.1954
 1943TIP3    H1 5793   5.712   6.247   1.077 -0.0269  1.2661 -0.2758
 1943TIP3    H2 5794   5.685   6.346   1.188 -0.0207 -0.0094  0.8939
 1944TIP3   OH2 5795   3.891   6.309   1.685  0.6102  0.3382 -0.7735
 1944TIP3    H1 5796   3.877   6.215   1.674  0.6748  0.4165 -1.5952
 1944TIP3    H2 5797   3.907   6.342   1.597  1.1812  1.0277 -0.4352
 1945TIP3   OH2 5798   4.053   3.378   1.332  0.0550  0.3326  0.8993
 1945TIP3    H1 5799   3.977   3.435   1.320  0.1121  0.2960  0.3374
 1945TIP3    H2 5800   4.081   3.356   1.243  0.2412 -0.2997  1.1120
 1946TIP3   OH2 5801   1.919   3.871   5.694  0.7405 -0.1766  0.1766
 1946TIP3    H1 5802   1.864   3.844   5.768 -0.0471 -2.9864 -1.3209
 1946TIP3    H2 5803   1.859   3.917   5.636  1.1578  1.2026  0.7928
 1947TIP3   OH2 5804   0.767   2.301   3.043 -0.8770  0.2871  0.7371
 1947TIP3    H1 5805   0.845   2.356   3.047 -1.8799  1.6661  3.2852
 1947TIP3    H2 5806   0.742   2.302   2.951  2.4006 -0.7773 -0.3312
 1948TIP3   OH2 5807   6.535   0.303   4.242 -0.3083  0.2386  0.1821
 1948TIP3    H1 5808   6.484   0.240   4.192  0.9332  0.2884 -1.2206
 1948TIP3    H2 5809   6.477   0.378   4.252 -1.6651 -0.9206  1.5276
 1949TIP3   OH2 5810   6.698   4.665   1.922 -0.0597 -0.3039  0.1373
 1949TIP3    H1 5811   6.623   4.632   1.873  0.5521 -1.5918  0.0141
 1949TIP3    H2 5812   6.733   4.736   1.869  1.0703 -2.1723 -1.7725
 1950TIP3   OH2 5813   5.548   4.438   2.681 -0.6682  0.3767  0.1627
 1950TIP3    H1 5814   5.464   4.408   2.716 -0.8612 -1.3768 -1.6527
 1950TIP3    H2 5815   5.602   4.359   2.678  0.9513  1.3947  0.9040
 1951TIP3   OH2 5816   0.247   4.623   5.033  0.1407 -0.4773 -0.3859
 1951TIP3    H1 5817   0.339   4.600   5.017  0.4998  0.9658 -0.5950
 1951TIP3    H2 5818   0.200   4.588   4.957  0.9746  1.2618 -1.7691
 1952TIP3   OH2 5819   1.606   3.981   4.826 -0.1654 -0.1688 -0.6161
 1952TIP3    H1 5820   1.701   3.994   4.825 -0.2912  0.8961 -1.3521
 1952TIP3    H2 5821   1.583   3.972   4.733 -0.8556  0.2739 -0.4941
 1953TIP3   OH2 5822   6.440   5.136   2.916  0.0685  0.4876 -0.1444
 1953TIP3    H1 5823   6.435   5.137   2.821  1.2196  4.0579 -0.3402
 1953TIP3    H2 5824   6.534   5.144   2.935 -0.2700  1.8666  1.1855
 1954TIP3   OH2 5825   3.641   3.495   4.566 -0.2388  0.3591  0.3138
 1954TIP3    H1 5826   3.617   3.586   4.549 -0.1073  0.1037 -1.5044
 1954TIP3    H2 5827   3.563   3.445   4.540 -0.1122 -0.0874  0.7699
 1955TIP3   OH2 5828   3.402   5.826   1.563  0.5499  0.5341 -0.6885
 1955TIP3    H1 5829   3.395   5.882   1.486  1.6412 -0.9670 -1.9564
 1955TIP3    H2 5830   3.312   5.805   1.587  0.2077  0.5190 -1.9665
 1956TIP3   OH2 5831   3.104   4.728   3.023  0.2043  0.1607  0.2580
 1956TIP3    H1 5832   3.150   4.798   3.069  1.5835 -0.9847  0.6904
 1956TIP3    H2 5833   3.153   4.717   2.941 -0.8966  0.6713 -0.4964
 1957TIP3   OH2 5834   3.425   3.627   4.887  0.0534  0.1572  0.4111
 1957TIP3    H1 5835   3.512   3.588   4.879 -0.1345 -0.0707 -0.7321
 1957TIP3    H2 5836   3.418   3.651   4.979  1.0231 -0.5269  0.6830
 1958TIP3   OH2 5837   1.269   1.625   4.830 -1.1087  0.0798 -0.8063
 1958TIP3    H1 5838   1.264   1.678   4.750 -0.1583  1.2805 -0.1101
 1958TIP3    H2 5839   1.356   1.587   4.828  0.0290  2.3445  0.9364
 1959TIP3   OH2 5840   2.484   3.504   4.038 -0.2068  0.2823  0.0251
 1959TIP3    H1 5841   2.413   3.467   4.090  0.3783 -0.1962  0.5133
 1959TIP3    H2 5842   2.445   3.576   3.990 -1.2728 -0.6552 -0.5661
 1960TIP3   OH2 5843   3.153   2.338   2.156 -0.1985  0.7714  0.3923
 1960TIP3    H1 5844   3.085   2.302   2.099  0.3019 -0.3671  0.4837
 1960TIP3    H2 5845   3.120   2.326   2.245  0.1674  0.0997  0.4425
 1961TIP3   OH2 5846   2.686   0.949   2.688 -0.0146  0.0375 -0.6589
 1961TIP3    H1 5847   2.611   0.924   2.634 -0.6548  1.3806 -0.4337
 1961TIP3    H2 5848   2.702   0.873   2.745 -0.6811 -0.5688 -1.2695
 1962TIP3   OH2 5849   1.529   2.843   3.643 -0.2022  0.2906 -0.7933
 1962TIP3    H1 5850   1.566   2.768   3.690 -1.1556  0.3868  0.1655
 1962TIP3    H2 5851   1.582   2.851   3.564  1.8788  0.4861  0.5326
 1963TIP3   OH2 5852   0.447   5.219   0.420  0.0439  0.5210  0.3341
 1963TIP3    H1 5853   0.475   5.295   0.369  0.5229  0.2217  0.1450
 1963TIP3    H2 5854   0.433   5.150   0.355 -1.7450  0.8158  0.3451
 1964TIP3   OH2 5855   2.476   0.977   1.423 -0.1723  0.1984  0.1916
 1964TIP3    H1 5856   2.494   0.936   1.338  1.2006  0.1429  0.4819
 1964TIP3    H2 5857   2.381   0.971   1.433 -0.2252 -0.9991 -0.7436
 1965TIP3   OH2 5858   1.163   2.746   3.540  0.5678 -0.2544  0.4587
 1965TIP3    H1 5859   1.213   2.827   3.535  1.4571 -0.7051  1.5956
 1965TIP3    H2 5860   1.228   2.676   3.538 -0.0637 -0.8867  0.9986
 1966TIP3   OH2 5861   5.024   2.514   1.553 -0.4508  0.0074  0.0356
 1966TIP3    H1 5862   4.938   2.549   1.529  0.3253  1.6657 -0.4768
 1966TIP3    H2 5863   5.042   2.449   1.485 -0.9563  0.2303 -0.3244
 1967TIP3   OH2 5864   6.684   1.493   3.368  0.7039  0.2865 -0.2820
 1967TIP3    H1 5865   6.610   1.454   3.416  2.2775 -0.4633  1.6912
 1967TIP3    H2 5866   6.645   1.529   3.289 -1.5383 -1.4605 -0.0736
 1968TIP3   OH2 5867   3.061   3.261   2.423 -0.1380 -0.1107  0.5284
 1968TIP3    H1 5868   3.119   3.186   2.439 -0.2302 -0.3159 -0.0805
 1968TIP3    H2 5869   3.025   3.282   2.510 -0.0799 -0.7466  0.7113
 1969TIP3   OH2 5870   2.363   0.440   5.471 -0.3149 -0.4303  0.0908
 1969TIP3    H1 5871   2.387   0.417   5.561  2.6831  4.1732  0.8283
 1969TIP3    H2 5872   2.431   0.398   5.418 -0.6102 -1.1023  0.2303
 1970TIP3   OH2 5873   1.653   2.555   1.387 -0.3482 -0.0787 -0.1523
 1970TIP3    H1 5874   1.565   2.537   1.421 -0.7738  2.4940  0.3633
 1970TIP3    H2 5875   1.711   2.499   1.439 -1.7322 -3.3532 -1.8600
 1971TIP3   OH2 5876   2.257   2.305   1.499  0.1738 -0.1146  0.1109
 1971TIP3    H1 5877   2.324   2.237   1.492  0.7156  0.5678 -1.7314
 1971TIP3    H2 5878   2.174   2.256   1.504  0.6867 -0.9277  1.3371
 1972TIP3   OH2 5879   5.256   3.676   0.456 -0.1341 -0.3989 -0.0594
 1972TIP3    H1 5880   5.278   3.750   0.513 -0.5355 -1.8874  2.1280
 1972TIP3    H2 5881   5.177   3.705   0.411  0.2664  0.8741 -0.0110
 1973TIP3   OH2 5882   2.967   4.414   0.650 -0.0943 -0.2797  0.2127
 1973TIP3    H1 5883   2.882   4.435   0.612  0.7469  0.2261 -1.4621
 1973TIP3    H2 5884   2.949   4.342   0.710 -1.8367  0.3903  0.5522
 1974TIP3   OH2 5885   2.734   0.880   3.497 -0.1628 -0.2088 -0.5392
 1974TIP3    H1 5886   2.757   0.902   3.406 -0.9514  0.9802 -0.4719
 1974TIP3    H2 5887   2.811   0.835   3.531  2.0748  3.3639 -0.3850
 1975TIP3   OH2 5888   2.788   2.369   1.995 -0.1682  0.1411 -0.3976
 1975TIP3    H1 5889   2.770   2.462   2.004 -1.4541 -0.2026  1.0576
 1975TIP3    H2 5890   2.781   2.334   2.084  2.2522 -1.0397 -0.5952
 1976TIP3   OH2 5891   4.196   3.374   4.833  0.5360  0.6247  0.2390
 1976TIP3    H1 5892   4.116   3.396   4.880  1.8247  1.2020  2.2695
 1976TIP3    H2 5893   4.232   3.298   4.880  1.2158  0.4021 -0.6099
 1977TIP3   OH2 5894   0.146   5.363   1.101 -0.2435 -0.3151  0.3713
 1977TIP3    H1 5895   0.183   5.275   1.100 -0.0310 -0.2250 -0.1270
 1977TIP3    H2 5896   0.207   5.414   1.154  0.4340 -0.1385 -0.5494
 1978TIP3   OH2 5897   2.660   1.678   0.128 -0.4822 -0.0847 -0.1828
 1978TIP3    H1 5898   2.726   1.733   0.086 -0.6790  0.7333  0.5469
 1978TIP3    H2 5899   2.594   1.739   0.161 -0.4677 -0.6944  1.0658
 1979TIP3   OH2 5900   1.325   1.310   1.988 -0.2393  0.1719  0.8379
 1979TIP3    H1 5901   1.299   1.316   2.080  2.0234  1.0802  1.5045
 1979TIP3    H2 5902   1.360   1.221   1.979  0.3981  0.3828  1.1409
 1980TIP3   OH2 5903   2.157   1.291   0.116  0.2539  0.1374 -0.4122
 1980TIP3    H1 5904   2.215   1.367   0.109 -1.6334  1.5433 -2.0291
 1980TIP3    H2 5905   2.122   1.295   0.205 -0.1711  1.4775 -0.6158
 1981TIP3   OH2 5906   0.383   6.343   1.476  0.4322 -0.4192 -0.1814
 1981TIP3    H1 5907   0.418   6.368   1.562  0.7462 -2.0917  0.2091
 1981TIP3    H2 5908   0.298   6.303   1.496 -0.1721  0.5040 -0.8139
 1982TIP3   OH2 5909   7.029   2.427   0.729 -0.4488  0.0527 -0.9212
 1982TIP3    H1 5910   7.015   2.428   0.635  1.1903  1.3412 -1.2204
 1982TIP3    H2 5911   6.998   2.513   0.759 -0.3639 -0.0928 -0.4031
 1983TIP3   OH2 5912   6.084   1.286   1.132  0.4789 -0.2114  0.2352
 1983TIP3    H1 5913   6.100   1.203   1.178  2.9949  0.5122  0.7906
 1983TIP3    H2 5914   6.155   1.293   1.068  0.2713  1.4861  0.1405
 1984TIP3   OH2 5915   2.066   5.181   3.711 -0.1273  0.2609 -0.7282
 1984TIP3    H1 5916   2.066   5.118   3.639 -1.0535 -0.7560  0.1136
 1984TIP3    H2 5917   2.129   5.145   3.773  2.2780  2.2301 -1.8702
 1985TIP3   OH2 5918   4.340   5.889   4.079  0.4665 -0.1696  0.1049
 1985TIP3    H1 5919   4.353   5.942   4.000 -0.4217  2.2682  1.5037
 1985TIP3    H2 5920   4.387   5.935   4.148 -0.6193 -1.0124  1.4809
 1986TIP3   OH2 5921   5.776   1.769   1.238 -0.3842 -0.1676 -0.1866
 1986TIP3    H1 5922   5.739   1.857   1.245 -1.1979 -0.4232 -1.2120
 1986TIP3    H2 5923   5.709   1.711   1.273 -0.4395 -0.5166 -0.8648
 1987TIP3   OH2 5924   5.027   0.387   0.061 -0.4390  0.4685  0.0703
 1987TIP3    H1 5925   4.984   0.465   0.025 -1.2021  0.4847  1.0023
 1987TIP3    H2 5926   4.986   0.373   0.146  2.1582  1.1491  1.5612
 1988TIP3   OH2 5927   4.120   5.046   0.453  0.2183  0.4962  0.2864
 1988TIP3    H1 5928   4.103   4.966   0.503  2.2095 -0.7379 -0.8828
 1988TIP3    H2 5929   4.141   5.015   0.365  0.3740  2.3716 -0.3773
 1989TIP3   OH2 5930   6.519   2.269   1.967 -0.5326 -0.0548  0.0170
 1989TIP3    H1 5931   6.501   2.359   1.940  1.1463  0.2613 -0.1656
 1989TIP3    H2 5932   6.549   2.225   1.888  0.2114 -0.3156  0.4306
 1990TIP3   OH2 5933   0.725   4.350   0.112 -0.1856 -0.4158 -0.1567
 1990TIP3    H1 5934   0.718   4.264   0.070  1.3830 -0.9392  0.5811
 1990TIP3    H2 5935   0.671   4.407   0.057 -2.8391 -2.2016  0.3997
 1991TIP3   OH2 5936   0.897   5.257   4.223  0.0720  0.5636 -0.2800
 1991TIP3    H1 5937   0.860   5.344   4.209  0.3701  1.0056  1.4253
 1991TIP3    H2 5938   0.836   5.197   4.180  1.0901  1.7076 -3.5965
 1992TIP3   OH2 5939   2.178   1.847   5.194 -0.6317 -0.2877 -0.2775
 1992TIP3    H1 5940   2.095   1.851   5.242  0.7178  0.3032  2.2288
 1992TIP3    H2 5941   2.237   1.799   5.254  1.2194  0.5947 -1.3117
 1993TIP3   OH2 5942   4.685   0.369   5.485  0.9097  0.3592 -0.6058
 1993TIP3    H1 5943   4.593   0.345   5.499  1.2656 -0.9160 -0.2843
 1993TIP3    H2 5944   4.690   0.462   5.507 -0.1815  0.2880 -0.0159
 1994TIP3   OH2 5945   6.167   5.549   4.115  0.0707 -0.1017 -0.1889
 1994TIP3    H1 5946   6.209   5.565   4.199 -0.8892  1.1277  0.0883
 1994TIP3    H2 5947   6.154   5.636   4.077  0.7334 -0.6373 -1.7425
 1995TIP3   OH2 5948   1.776   5.876   3.323 -0.1387 -0.0900  0.1853
 1995TIP3    H1 5949   1.810   5.871   3.412  2.2192 -2.6150 -0.7435
 1995TIP3    H2 5950   1.844   5.838   3.268 -2.1054  0.0123 -2.5532
 1996TIP3   OH2 5951   6.190   3.618   1.894  0.0715 -0.8855  0.3372
 1996TIP3    H1 5952   6.157   3.653   1.812  2.2371  3.4122  1.0051
 1996TIP3    H2 5953   6.120   3.635   1.958 -0.1432 -0.7503  0.0666
 1997TIP3   OH2 5954   5.329   3.350   5.500  0.0337 -0.6446 -0.3526
 1997TIP3    H1 5955   5.338   3.360   5.595  2.5472 -0.5455 -0.5442
 1997TIP3    H2 5956   5.309   3.439   5.469  1.5855 -0.1705 -0.0949
 1998TIP3   OH2 5957   1.072   4.401   3.036  0.2041  0.2416  0.4123
 1998TIP3    H1 5958   0.999   4.380   3.094 -1.8312 -0.4216 -2.1637
 1998TIP3    H2 5959   1.126   4.322   3.036  0.5815  0.4813  1.8252
 1999TIP3   OH2 5960   4.623   4.311   5.780 -0.1743 -0.1280 -0.1068
 1999TIP3    H1 5961   4.582   4.370   5.717 -1.4801  0.0645  0.8922
 1999TIP3    H2 5962   4.550   4.271   5.827  0.7620 -0.5013  1.0718
 2000TIP3   OH2 5963   6.553   0.462   5.405 -0.5438  0.5210  0.1537
 2000TIP3    H1 5964   6.555   0.527   5.475 -1.1007  1.4520 -0.6617
 2000TIP3    H2 5965   6.586   0.509   5.328 -0.4192 -0.3282 -0.3216
 2001TIP3   OH2 5966   3.118   1.165   1.710  0.1405  0.6867 -0.8480
 2001TIP3    H1 5967   3.065   1.178   1.788  3.0856 -0.3500  1.4950
 2001TIP3    H2 5968   3.077   1.090   1.666 -0.5961  0.1726  0.6401
 2002TIP3   OH2 5969   4.852   4.651   5.870  0.5132  0.1449 -0.5962
 2002TIP3    H1 5970   4.877   4.720   5.932  0.8935 -2.1437  2.0023
 2002TIP3    H2 5971   4.913   4.661   5.797  2.2787  0.9641  0.9073
 2003TIP3   OH2 5972   1.895   0.762   1.974  0.6020 -0.3353 -0.1011
 2003TIP3    H1 5973   1.913   0.717   2.057 -1.2182  1.6171  1.4618
 2003TIP3    H2 5974   1.870   0.692   1.914  1.0143 -1.7229  1.2770
 2004TIP3   OH2 5975   4.119   0.274   0.709 -0.1655 -0.1055 -0.1982
 2004TIP3    H1 5976   4.214   0.270   0.702  0.0335  2.2151  0.3901
 2004TIP3    H2 5977   4.100   0.267   0.802 -0.5775 -0.4925 -0.3038
 2005TIP3   OH2 5978   1.125   5.581   5.548  0.4111  0.1681  0.2064
 2005TIP3    H1 5979   1.032   5.568   5.567  0.2355 -0.5207 -1.0197
 2005TIP3    H2 5980   1.153   5.648   5.611 -0.7381 -0.1072  1.0449
 2006TIP3   OH2 5981   4.546   5.921   5.512 -0.0412 -0.6885 -0.0910
 2006TIP3    H1 5982   4.632   5.955   5.488 -0.4795 -0.3055 -1.1748
 2006TIP3    H2 5983   4.542   5.834   5.472  1.3007 -2.4166  3.1338
 2007TIP3   OH2 5984   1.155   3.598   3.394 -0.0305  0.2699 -0.3548
 2007TIP3    H1 5985   1.069   3.557   3.388  0.0286  0.0647  0.1148
 2007TIP3    H2 5986   1.141   3.689   3.370 -0.9221  0.9404  2.3653
 2008TIP3   OH2 5987   4.652   0.889   4.654 -0.4858  0.1734  0.5051
 2008TIP3    H1 5988   4.617   0.893   4.564 -0.3432 -1.5115  0.3444
 2008TIP3    H2 5989   4.730   0.944   4.651 -0.1207 -0.3615 -0.5990
 2009TIP3   OH2 5990   4.304   0.527   0.085 -0.6758  0.5335 -0.1105
 2009TIP3    H1 5991   4.296   0.452   0.143  0.4728  1.6383  1.5657
 2009TIP3    H2 5992   4.388   0.516   0.041  0.1379  1.4526  1.1439
 2010TIP3   OH2 5993   7.008   4.789   2.188  0.6832 -0.7118 -1.0518
 2010TIP3    H1 5994   6.995   4.738   2.108 -0.4952 -0.7954 -0.8287
 2010TIP3    H2 5995   7.093   4.760   2.222  1.3209 -0.4752 -2.4010
 2011TIP3   OH2 5996   1.603   4.110   3.775 -0.1710 -0.2294  0.1299
 2011TIP3    H1 5997   1.562   4.179   3.826 -1.4285 -1.6343  1.0830
 2011TIP3    H2 5998   1.552   4.107   3.694  1.0415  1.1461 -0.7472
 2012TIP3   OH2 5999   4.968   6.362   3.413  0.6881 -0.5298 -0.3077
 2012TIP3    H1 6000   4.960   6.284   3.468 -1.0112 -1.4228 -1.6980
 2012TIP3    H2 6001   4.975   6.327   3.324 -1.4299  0.8847 -1.1093
 2013TIP3   OH2 6002   4.847   0.828   0.107 -0.1189  0.0560  0.4888
 2013TIP3    H1 6003   4.881   0.818   0.018 -0.3563  2.1384  0.1169
 2013TIP3    H2 6004   4.753   0.842   0.095 -0.3466 -0.8057  1.1700
 2014TIP3   OH2 6005   2.652   1.759   1.496 -0.1291 -0.1813 -0.7575
 2014TIP3    H1 6006   2.722   1.701   1.468  0.1728 -1.0338  1.5442
 2014TIP3    H2 6007   2.616   1.717   1.574 -2.5597  0.7391 -1.3044
 2015TIP3   OH2 6008   6.450   2.955   1.816 -0.4652 -0.5464 -0.4195
 2015TIP3    H1 6009   6.358   2.931   1.803 -1.3350  2.0966  0.3015
 2015TIP3    H2 6010   6.470   3.013   1.742  0.6065 -0.9889 -0.4975
 2016TIP3   OH2 6011   2.978   4.170   4.367  0.3395  0.3927 -0.6926
 2016TIP3    H1 6012   2.917   4.113   4.321  1.4777  0.1379 -1.9263
 2016TIP3    H2 6013   3.018   4.224   4.299  0.9061  1.1284  0.1895
 2017TIP3   OH2 6014   2.294   0.409   3.786 -0.2406  0.1811 -0.6351
 2017TIP3    H1 6015   2.383   0.404   3.750  0.1709 -0.4918  0.4381
 2017TIP3    H2 6016   2.293   0.491   3.835  0.1399 -0.3181  0.2275
 2018TIP3   OH2 6017   5.081   1.055   5.074  0.6741  0.1446  0.3946
 2018TIP3    H1 6018   5.047   1.023   5.158  2.0750 -0.2943  0.8225
 2018TIP3    H2 6019   5.114   1.143   5.094 -0.3303  0.6333 -0.0544
 2019TIP3   OH2 6020   4.037   0.042   0.585  0.5022  0.0352  0.3861
 2019TIP3    H1 6021   4.097   0.005   0.520  0.0845  0.6660 -0.3668
 2019TIP3    H2 6022   4.076   0.126   0.609  1.2954 -0.7234  1.8810
 2020TIP3   OH2 6023   6.655   3.915   0.082  0.2701  0.0400  0.6902
 2020TIP3    H1 6024   6.671   3.940   0.174  0.8162 -0.1694  0.6528
 2020TIP3    H2 6025   6.679   3.823   0.077  2.1396  0.5250 -0.1090
 2021TIP3   OH2 6026   5.061   0.008   0.840 -0.0047 -0.0060  0.5541
 2021TIP3    H1 6027   5.038   0.091   0.798 -0.9486 -0.3916  0.2972
 2021TIP3    H2 6028   5.156   0.012   0.849  0.0964  0.5693 -0.5886
 2022TIP3   OH2 6029   3.752   5.248   2.452 -0.1722 -0.2782  0.3230
 2022TIP3    H1 6030   3.684   5.221   2.390 -0.8086 -0.0451  0.8989
 2022TIP3    H2 6031   3.749   5.344   2.451 -0.2425 -0.2703  0.7548
 2023TIP3   OH2 6032   0.038   3.213   2.923  0.1330  0.1609  0.7894
 2023TIP3    H1 6033   0.123   3.224   2.881  0.5122 -2.2030  0.8075
 2023TIP3    H2 6034  -0.023   3.258   2.865  1.1536  0.3169 -0.2044
 2024TIP3   OH2 6035   3.919   3.598   4.667 -0.1387 -0.0369 -0.8663
 2024TIP3    H1 6036   3.828   3.576   4.648 -0.1923  0.7544 -1.5823
 2024TIP3    H2 6037   3.918   3.691   4.688  0.3234 -0.3053  0.4628
 2025TIP3   OH2 6038   4.478   5.564   0.054  0.0916  0.0575  0.0239
 2025TIP3    H1 6039   4.527   5.527   0.127 -0.3796 -2.2449 -0.7365
 2025TIP3    H2 6040   4.411   5.619   0.095 -0.6688 -1.8052  1.4444
 2026TIP3   OH2 6041   4.980   4.509   1.811 -0.3126  0.1871  0.2356
 2026TIP3    H1 6042   4.936   4.559   1.880 -1.4020 -0.5588  0.1039
 2026TIP3    H2 6043   5.074   4.523   1.828 -0.5600  0.3612  1.6086
 2027TIP3   OH2 6044   5.970   5.857   2.479  0.3431  0.2223  0.0436
 2027TIP3    H1 6045   6.007   5.944   2.462  2.2449 -0.5559 -0.0920
 2027TIP3    H2 6046   5.956   5.820   2.392  0.3425  0.0960  0.0968
 2028TIP3   OH2 6047   1.512   5.080   0.026 -0.2742  0.3083 -0.2918
 2028TIP3    H1 6048   1.505   5.096  -0.068 -2.0235 -0.4883 -0.3468
 2028TIP3    H2 6049   1.473   5.157   0.066  1.5133  1.1801 -0.1368
 2029TIP3   OH2 6050   3.965   6.001   5.259 -0.3042 -0.4733 -0.0603
 2029TIP3    H1 6051   3.937   5.922   5.305  0.9121 -0.0641  1.4465
 2029TIP3    H2 6052   3.957   6.071   5.324 -0.9715  0.6073 -1.2424
 2030TIP3   OH2 6053   1.317   4.273   5.568  0.1575  0.6015 -0.1501
 2030TIP3    H1 6054   1.269   4.206   5.616  2.1562 -0.9074 -0.1553
 2030TIP3    H2 6055   1.398   4.231   5.540  1.6872  3.0902  0.1538
 2031TIP3   OH2 6056   4.102   4.523   4.942 -0.6742  0.7639  0.0532
 2031TIP3    H1 6057   4.098   4.514   5.037  2.3614  1.4932  0.3498
 2031TIP3    H2 6058   4.029   4.470   4.910  1.0208 -3.6367  2.5702
 2032TIP3   OH2 6059   0.405   2.951   5.209 -0.1115  0.5756  0.4474
 2032TIP3    H1 6060   0.323   2.902   5.211  0.3580 -0.2079  1.8470
 2032TIP3    H2 6061   0.401   3.008   5.286  2.1279 -2.0551  2.7063
 2033TIP3   OH2 6062   1.694   6.309   1.321 -0.0987  0.0555  0.7705
 2033TIP3    H1 6063   1.678   6.235   1.264  1.1260  0.6029 -0.3211
 2033TIP3    H2 6064   1.776   6.289   1.365  1.5463  1.7631 -1.3240
 2034TIP3   OH2 6065   2.735   0.286   0.286  0.2757 -0.0233  0.2371
 2034TIP3    H1 6066   2.766   0.197   0.297  0.2066  0.0569  1.1204
 2034TIP3    H2 6067   2.698   0.288   0.198  1.0785 -0.6189 -0.1235
 2035TIP3   OH2 6068   0.293   1.463   5.056 -0.2291 -0.3399  0.1896
 2035TIP3    H1 6069   0.209   1.418   5.061  0.5441 -1.9469 -0.6288
 2035TIP3    H2 6070   0.351   1.415   5.115  0.6167 -0.4387 -0.6954
 2036TIP3   OH2 6071   4.743   1.498   1.814 -0.4678  0.3958  0.1321
 2036TIP3    H1 6072   4.736   1.403   1.805  1.7988  0.2234 -0.5575
 2036TIP3    H2 6073   4.746   1.513   1.909 -1.0179 -0.1942  0.2473
 2037TIP3   OH2 6074   5.436   2.328   4.883  0.0859 -0.7788 -0.3302
 2037TIP3    H1 6075   5.423   2.394   4.952  0.6401 -1.8447  0.8293
 2037TIP3    H2 6076   5.529   2.305   4.889  0.0090 -1.3138 -1.0627
 2038TIP3   OH2 6077   5.443   4.584   5.661 -0.2527 -0.3748  0.0783
 2038TIP3    H1 6078   5.389   4.646   5.614 -0.4762 -0.4708  0.2092
 2038TIP3    H2 6079   5.381   4.527   5.707 -0.2448 -2.7703 -2.5791
 2039TIP3   OH2 6080   5.525   6.544   4.560  0.1067 -0.0660  0.9548
 2039TIP3    H1 6081   5.562   6.473   4.611 -0.2049  0.5624  2.0988
 2039TIP3    H2 6082   5.566   6.623   4.596  1.6324  0.2758 -1.3148
 2040TIP3   OH2 6083   6.496   1.540   4.536  0.2301 -0.0725 -0.1974
 2040TIP3    H1 6084   6.468   1.456   4.572 -0.1109 -0.4523 -1.2938
 2040TIP3    H2 6085   6.504   1.524   4.442 -1.9251  1.6327 -0.7621
 2041TIP3   OH2 6086   1.954   2.491   2.879  0.4326 -0.1732 -0.6130
 2041TIP3    H1 6087   1.889   2.557   2.855  0.8604  0.2511 -0.6244
 2041TIP3    H2 6088   1.908   2.434   2.942  0.5476  1.1095  0.6880
 2042TIP3   OH2 6089   2.566   4.976   2.766 -0.0285 -1.0357  0.1580
 2042TIP3    H1 6090   2.628   4.915   2.805  0.3480  0.0483  1.3672
 2042TIP3    H2 6091   2.605   5.001   2.683  1.9195  0.6520  1.4828
 2043TIP3   OH2 6092   0.874   1.311   4.726 -0.2499  0.2037  0.0163
 2043TIP3    H1 6093   0.939   1.380   4.727  0.5757 -0.5111 -1.3729
 2043TIP3    H2 6094   0.791   1.355   4.706  0.4556  0.6951 -2.0738
 2044TIP3   OH2 6095   4.727   0.954   2.714  0.3571 -0.3998  0.0462
 2044TIP3    H1 6096   4.675   0.885   2.672  0.7150 -2.3573  2.5675
 2044TIP3    H2 6097   4.681   0.971   2.796  0.6806  1.9508 -0.1994
 2045TIP3   OH2 6098   3.078   2.727   4.363 -0.1472  0.3930 -0.2119
 2045TIP3    H1 6099   3.161   2.772   4.381  0.0953 -0.4855  0.9300
 2045TIP3    H2 6100   3.045   2.701   4.449 -0.6594 -0.9559 -0.7954
 2046TIP3   OH2 6101   3.136   2.926   1.339 -0.6787 -0.7253 -0.6693
 2046TIP3    H1 6102   3.203   2.863   1.365 -1.2200 -1.2666 -0.5591
 2046TIP3    H2 6103   3.106   2.964   1.422 -1.0326 -1.0271 -0.6601
 2047TIP3   OH2 6104   2.287   1.137   0.532 -0.2370  0.4011 -0.2050
 2047TIP3    H1 6105   2.258   1.109   0.445 -0.3305 -0.4508  0.0922
 2047TIP3    H2 6106   2.379   1.160   0.520  0.0199 -0.6306 -0.3443
 2048TIP3   OH2 6107   6.743   1.777   3.874  0.3346  0.6771  0.0554
 2048TIP3    H1 6108   6.801   1.737   3.939 -0.5088 -1.3204 -0.3540
 2048TIP3    H2 6109   6.655   1.749   3.900 -0.2102  1.6107 -0.7359
 2049TIP3   OH2 6110   2.741   3.314   0.228 -0.4789 -0.3854 -0.0281
 2049TIP3    H1 6111   2.804   3.379   0.197 -1.0480  0.5474  0.7273
 2049TIP3    H2 6112   2.790   3.262   0.293 -0.3797  0.1010  0.2908
 2050TIP3   OH2 6113   4.764   4.098   1.978  0.0071 -0.4586  0.0772
 2050TIP3    H1 6114   4.854   4.121   2.002  0.4968  1.1172 -2.7921
 2050TIP3    H2 6115   4.760   4.003   1.988  2.1415 -0.6110 -0.1200
 2051TIP3   OH2 6116   2.548   4.871   3.406 -0.2451  0.4459  0.0812
 2051TIP3    H1 6117   2.595   4.800   3.363 -1.6543 -0.1193 -0.5817
 2051TIP3    H2 6118   2.553   4.944   3.345  0.5659  0.6870  0.4310
 2052TIP3   OH2 6119   1.588   5.634   2.139  0.5488  0.1922  0.3005
 2052TIP3    H1 6120   1.560   5.545   2.116 -0.5488  0.5176  0.3298
 2052TIP3    H2 6121   1.651   5.621   2.210  0.0811 -0.5458  0.5989
 2053TIP3   OH2 6122   3.827   2.967   5.318 -0.0205  0.2489  0.0733
 2053TIP3    H1 6123   3.770   2.901   5.279 -0.4591  0.9865 -0.5758
 2053TIP3    H2 6124   3.913   2.952   5.277 -0.2485  0.4009 -0.4764
 2054TIP3   OH2 6125   3.662   4.616   0.225  0.2242  0.5048 -0.6351
 2054TIP3    H1 6126   3.739   4.633   0.279  0.2108 -0.4329 -0.2994
 2054TIP3    H2 6127   3.640   4.524   0.243 -1.4835  0.9961 -0.0544
 2055TIP3   OH2 6128   3.169   4.540   2.290  0.3793 -0.6102  0.0737
 2055TIP3    H1 6129   3.108   4.475   2.254  1.1151 -1.6938  0.7232
 2055TIP3    H2 6130   3.248   4.531   2.238 -0.6109  2.2606 -2.1766
 2056TIP3   OH2 6131   1.126   0.692   2.709  0.2821 -0.4425 -0.4217
 2056TIP3    H1 6132   1.068   0.767   2.706 -0.5646 -1.0941 -0.6281
 2056TIP3    H2 6133   1.139   0.674   2.802  0.3153 -0.1793 -0.3763
 2057TIP3   OH2 6134   5.491   0.326   2.655 -0.2764  0.1902  0.5015
 2057TIP3    H1 6135   5.526   0.259   2.713 -0.1052  0.1235  0.3180
 2057TIP3    H2 6136   5.539   0.406   2.679 -0.5368  0.2676  0.7753
 2058TIP3   OH2 6137   4.648   0.454   5.206 -0.0312 -0.4661  0.3630
 2058TIP3    H1 6138   4.555   0.433   5.215 -0.5065  1.4557  0.3251
 2058TIP3    H2 6139   4.688   0.421   5.287 -0.9831 -0.0845  1.0031
 2059TIP3   OH2 6140   6.207   2.247   5.430 -0.3994 -0.1439  0.3622
 2059TIP3    H1 6141   6.177   2.337   5.437  0.3824  0.1498  0.1392
 2059TIP3    H2 6142   6.237   2.239   5.339 -2.7010 -1.3673 -0.3831
 2060TIP3   OH2 6143   6.131   6.507   1.419 -0.4466 -0.0008  0.2420
 2060TIP3    H1 6144   6.081   6.442   1.369 -0.0733  0.0064 -0.1431
 2060TIP3    H2 6145   6.222   6.494   1.391 -0.2904  0.2818  0.6138
 2061TIP3   OH2 6146   2.850   0.745   0.316 -0.0669  0.5527  0.4624
 2061TIP3    H1 6147   2.835   0.777   0.405  2.8452  0.2306  1.1730
 2061TIP3    H2 6148   2.885   0.820   0.268 -2.6941  1.0484 -0.8253
 2062TIP3   OH2 6149   6.726   3.448   4.095 -0.0982  0.1249  0.4110
 2062TIP3    H1 6150   6.666   3.382   4.061  0.1379 -0.2224  0.6653
 2062TIP3    H2 6151   6.704   3.528   4.046 -0.9919  0.0976  0.7456
 2063TIP3   OH2 6152   7.137   3.583   2.540  0.5456 -0.1063 -0.4684
 2063TIP3    H1 6153   7.045   3.563   2.525  0.5919 -0.1712 -0.6713
 2063TIP3    H2 6154   7.164   3.632   2.462  0.2853  1.2390  0.2677
 2064TIP3   OH2 6155   1.037   0.617   1.290 -0.0905  0.0653 -0.4247
 2064TIP3    H1 6156   1.053   0.524   1.277  0.7812  0.2301 -0.6446
 2064TIP3    H2 6157   1.052   0.656   1.203 -0.8854  0.3588 -0.4390
 2065TIP3   OH2 6158   1.321   1.790   2.702 -0.5987 -0.1536  0.2565
 2065TIP3    H1 6159   1.410   1.778   2.670 -0.1048  1.3493  0.9585
 2065TIP3    H2 6160   1.277   1.708   2.682  0.7874 -0.7230 -0.6012
 2066TIP3   OH2 6161   5.386   1.423   5.429  0.3637 -0.3176  0.1083
 2066TIP3    H1 6162   5.375   1.401   5.336 -0.1231 -0.9441  0.3045
 2066TIP3    H2 6163   5.348   1.510   5.437 -0.6721 -0.7378 -0.0624
 2067TIP3   OH2 6164   4.496   5.214   2.103 -0.5332 -0.1326 -0.5662
 2067TIP3    H1 6165   4.475   5.126   2.134  0.7336 -0.4014 -0.4465
 2067TIP3    H2 6166   4.546   5.201   2.022  0.9145  0.4253  0.2105
 2068TIP3   OH2 6167   3.949   5.543   3.822 -0.6203 -0.1608 -0.2358
 2068TIP3    H1 6168   4.008   5.607   3.781 -0.4967  0.0548  0.2764
 2068TIP3    H2 6169   3.990   5.523   3.906  0.6282 -2.7356 -1.3477
 2069TIP3   OH2 6170   3.203   4.680   1.618 -0.4325  0.4871 -0.2041
 2069TIP3    H1 6171   3.294   4.710   1.615 -0.2885  0.0312 -0.4385
 2069TIP3    H2 6172   3.178   4.668   1.526 -0.2009 -0.9482 -0.1003
 2070TIP3   OH2 6173   0.368   1.056   0.893  0.3982 -0.3430 -0.2789
 2070TIP3    H1 6174   0.400   1.039   0.804 -0.4727  0.6225 -0.8044
 2070TIP3    H2 6175   0.311   0.982   0.913  0.5538 -0.5369 -0.5480
 2071TIP3   OH2 6176   2.183   3.240   1.738  0.1861 -0.0994 -0.5058
 2071TIP3    H1 6177   2.200   3.184   1.814 -1.5917  1.4685  1.1584
 2071TIP3    H2 6178   2.233   3.319   1.754 -1.8947  1.1480  0.2521
 2072TIP3   OH2 6179   6.943   6.416   2.775 -0.3082  0.1238 -0.2635
 2072TIP3    H1 6180   6.958   6.494   2.828 -1.1258 -0.4365  0.8409
 2072TIP3    H2 6181   6.953   6.343   2.836  2.0643 -0.7770 -1.6094
 2073TIP3   OH2 6182   0.974   2.090   5.506 -0.1795  0.4900  0.0812
 2073TIP3    H1 6183   0.967   2.052   5.594 -1.2371  2.2270  0.8052
 2073TIP3    H2 6184   0.929   2.027   5.450 -0.0987 -0.3197  0.8966
 2074TIP3   OH2 6185   1.909   3.543   4.451  0.7430  0.1906 -0.0827
 2074TIP3    H1 6186   1.966   3.514   4.522  1.5233  1.6740 -0.0576
 2074TIP3    H2 6187   1.968   3.587   4.389 -0.1624  0.4504 -0.7800
 2075TIP3   OH2 6188   4.162   3.266   2.705 -0.3702  0.2446  0.2433
 2075TIP3    H1 6189   4.160   3.343   2.650  0.2816 -0.2742 -0.5270
 2075TIP3    H2 6190   4.079   3.221   2.687  0.4791 -0.7092 -1.5028
 2076TIP3   OH2 6191   1.969   6.727   1.832 -0.2440  0.3603  0.1250
 2076TIP3    H1 6192   2.014   6.809   1.813  0.9327 -0.2029  0.3620
 2076TIP3    H2 6193   1.971   6.720   1.928  1.4752 -0.8688  0.0577
 2077TIP3   OH2 6194   3.310   0.272   4.094  0.2956 -0.1778 -0.0433
 2077TIP3    H1 6195   3.296   0.261   4.188 -1.5456  0.8491 -0.1281
 2077TIP3    H2 6196   3.385   0.217   4.073  0.6476 -0.5390  1.9953
 2078TIP3   OH2 6197   0.953   4.831   0.684  0.4649 -0.6721 -0.0380
 2078TIP3    H1 6198   0.990   4.743   0.694  1.3635 -0.2411  0.6244
 2078TIP3    H2 6199   0.875   4.831   0.739  1.3861 -0.5643  1.3252
 2079TIP3   OH2 6200   3.523   6.645   3.911 -0.2871  0.1256  0.2810
 2079TIP3    H1 6201   3.471   6.572   3.944  0.0663  0.2913  1.2516
 2079TIP3    H2 6202   3.501   6.651   3.818 -1.6280 -0.1178  0.5690
 2080TIP3   OH2 6203   3.210   2.530   0.294 -0.0670  0.6591  0.0451
 2080TIP3    H1 6204   3.226   2.447   0.340 -3.8320 -0.1502  0.2612
 2080TIP3    H2 6205   3.228   2.510   0.202 -0.2997 -0.2509  0.1805
 2081TIP3   OH2 6206   0.321   3.962   0.250  0.1112 -0.3901 -0.0017
 2081TIP3    H1 6207   0.364   4.048   0.252  0.5916 -0.6298  0.2617
 2081TIP3    H2 6208   0.342   3.927   0.163 -0.0516 -0.2613 -0.0944
 2082TIP3   OH2 6209   4.978   3.214   1.091 -0.1765 -0.3757 -0.1107
 2082TIP3    H1 6210   5.039   3.195   1.019 -2.4516  1.1950 -2.6591
 2082TIP3    H2 6211   4.983   3.309   1.100 -0.3759 -0.4983  1.4753
 2083TIP3   OH2 6212   0.701   0.588   0.042  0.1978  0.4053 -0.6101
 2083TIP3    H1 6213   0.633   0.568   0.106  0.7583 -2.1729 -0.6935
 2083TIP3    H2 6214   0.654   0.594  -0.042 -0.1472  0.5430 -0.4098
 2084TIP3   OH2 6215   2.568   0.082   4.532  0.3287  0.2785  0.3280
 2084TIP3    H1 6216   2.662   0.103   4.531  0.2693  0.6268 -1.1618
 2084TIP3    H2 6217   2.547   0.064   4.440 -0.7336 -1.4145  0.8630
 2085TIP3   OH2 6218   1.618   4.949   3.511  0.4389 -0.3178 -0.4034
 2085TIP3    H1 6219   1.655   5.024   3.465  1.8229 -0.7387 -0.0315
 2085TIP3    H2 6220   1.687   4.882   3.507 -0.0936 -0.9629  0.7591
 2086TIP3   OH2 6221   0.532   3.020   2.350 -0.6929  0.0860 -0.1399
 2086TIP3    H1 6222   0.529   2.954   2.281  1.0804  0.7265 -0.8926
 2086TIP3    H2 6223   0.455   3.075   2.335 -0.5603 -0.0318 -1.3697
 2087TIP3   OH2 6224   5.647   2.581   1.608 -0.7712  0.3396 -0.2214
 2087TIP3    H1 6225   5.690   2.505   1.647 -2.3042 -0.7059 -0.4536
 2087TIP3    H2 6226   5.575   2.601   1.667  0.6214  2.8046  0.7982
 2088TIP3   OH2 6227   3.130   5.865   0.964 -0.4912  0.2377  0.6557
 2088TIP3    H1 6228   3.063   5.928   0.938 -1.5374 -0.8016  0.7665
 2088TIP3    H2 6229   3.213   5.912   0.950 -1.2385  1.8246  1.2522
 2089TIP3   OH2 6230   6.223   0.984   2.903 -0.2414 -0.4517  0.1950
 2089TIP3    H1 6231   6.222   1.040   2.825  0.6196 -0.0261  0.4750
 2089TIP3    H2 6232   6.138   0.941   2.902 -0.1109 -0.7447 -1.1947
 2090TIP3   OH2 6233   3.497   0.349   1.886 -0.2086  0.0165 -0.4079
 2090TIP3    H1 6234   3.433   0.326   1.953 -1.6486 -0.8109 -1.9684
 2090TIP3    H2 6235   3.505   0.444   1.891 -0.7039  0.0161  0.5528
 2091TIP3   OH2 6236   5.465   3.722   0.054 -0.3031  0.4798 -0.5426
 2091TIP3    H1 6237   5.383   3.702   0.099  0.2238  2.2258  1.3594
 2091TIP3    H2 6238   5.483   3.813   0.077  1.5536  0.5273 -1.9347
 2092TIP3   OH2 6239   2.117   0.146   5.491 -0.5282 -0.2535 -0.1406
 2092TIP3    H1 6240   2.081   0.234   5.501 -1.8974 -0.7910 -0.1054
 2092TIP3    H2 6241   2.173   0.151   5.413  0.4440  0.9455  0.6087
 2093TIP3   OH2 6242   1.146   6.094   2.931  0.2848  0.2258 -0.5222
 2093TIP3    H1 6243   1.095   6.034   2.877  0.9292 -1.4448  0.6428
 2093TIP3    H2 6244   1.089   6.113   3.005  0.9384 -0.9068  0.3127
 2094TIP3   OH2 6245   6.580   3.441   1.600  0.5011  0.0407 -0.0833
 2094TIP3    H1 6246   6.509   3.504   1.589  0.7278  0.0202 -1.9907
 2094TIP3    H2 6247   6.579   3.390   1.519  0.4756 -2.2810  1.2881
 2095TIP3   OH2 6248   0.431   0.223   5.515  0.2976  0.1910 -0.7708
 2095TIP3    H1 6249   0.517   0.182   5.513  0.8072  1.2244 -2.4905
 2095TIP3    H2 6250   0.406   0.223   5.608  0.3528 -3.6032 -0.6064
 2096TIP3   OH2 6251   3.271   0.189   2.049  0.1562  0.2025  0.1715
 2096TIP3    H1 6252   3.333   0.181   2.121  0.7817 -0.8243 -0.4552
 2096TIP3    H2 6253   3.266   0.101   2.012 -0.9217  0.4986 -0.4070
 2097TIP3   OH2 6254   5.651   2.659   5.846 -0.0271 -0.4679  0.1393
 2097TIP3    H1 6255   5.599   2.733   5.879 -1.3595 -0.8174 -1.0536
 2097TIP3    H2 6256   5.693   2.623   5.924 -1.8551 -0.3500  1.2421
 2098TIP3   OH2 6257   6.203   0.439   2.286  0.3409  0.4661 -0.4286
 2098TIP3    H1 6258   6.276   0.499   2.268  0.7330  1.0588  2.5856
 2098TIP3    H2 6259   6.150   0.485   2.351 -1.6296 -0.8183 -1.0469
 2099TIP3   OH2 6260   3.842   0.432   1.934  0.0267 -0.7886 -0.1260
 2099TIP3    H1 6261   3.848   0.369   2.005 -1.5794 -0.8210  0.0268
 2099TIP3    H2 6262   3.791   0.387   1.866 -0.2931 -0.0177 -0.4133
 2100TIP3   OH2 6263   0.958   5.578   2.844  0.0940  0.2399 -0.4939
 2100TIP3    H1 6264   0.878   5.630   2.842  0.9757  1.7637  0.9485
 2100TIP3    H2 6265   1.022   5.629   2.794  0.6481 -0.0494 -0.0981
 2101TIP3   OH2 6266   0.561   0.871   0.150 -0.1281 -0.5708  0.1789
 2101TIP3    H1 6267   0.605   0.894   0.068  0.3740 -1.2246  0.2623
 2101TIP3    H2 6268   0.486   0.818   0.122  0.1604 -0.9683  0.1527
 2102TIP3   OH2 6269   4.205   4.918   5.359  0.5984  0.4431 -0.2344
 2102TIP3    H1 6270   4.178   4.835   5.321  0.5907  1.1690 -1.9264
 2102TIP3    H2 6271   4.193   4.982   5.288  0.3912  1.9302  1.0766
 2103TIP3   OH2 6272   5.934   4.695   1.840 -0.2601 -0.1662  0.4783
 2103TIP3    H1 6273   6.012   4.751   1.839 -0.0614 -0.4304 -0.4576
 2103TIP3    H2 6274   5.960   4.616   1.792 -1.4066  0.2149 -0.8674
 2104TIP3   OH2 6275   4.010   3.977   1.276 -1.0665 -0.4557 -0.1869
 2104TIP3    H1 6276   3.990   3.901   1.221 -1.7714 -0.0333 -0.5252
 2104TIP3    H2 6277   3.932   4.032   1.271  0.1938  1.3045 -1.6155
 2105TIP3   OH2 6278   5.105   4.756   3.701  0.1436  0.2816  0.2549
 2105TIP3    H1 6279   5.084   4.674   3.655  1.2224  0.3700 -0.4137
 2105TIP3    H2 6280   5.067   4.744   3.788  2.1064 -1.8312  0.9089
 2106TIP3   OH2 6281   3.572   5.242   5.115  0.3893  0.3708  0.4727
 2106TIP3    H1 6282   3.496   5.299   5.109  0.0332 -0.0543  0.8416
 2106TIP3    H2 6283   3.535   5.154   5.127  0.9172  0.0199 -0.3619
 2107TIP3   OH2 6284   5.541   3.876   4.120 -0.1889  0.0424  0.4882
 2107TIP3    H1 6285   5.484   3.803   4.143  0.2713  0.1322  1.9926
 2107TIP3    H2 6286   5.547   3.872   4.024 -3.1581  0.3967  0.2115
 2108TIP3   OH2 6287   0.575   5.159   5.349 -0.1726 -0.5842  0.6484
 2108TIP3    H1 6288   0.515   5.104   5.299  1.1480 -2.7078  1.2069
 2108TIP3    H2 6289   0.655   5.161   5.297 -0.3004  1.1930  0.4722
 2109TIP3   OH2 6290   3.623   5.749   0.981  0.4767  0.0728  0.4548
 2109TIP3    H1 6291   3.582   5.663   0.986  1.2399 -0.3423 -0.2116
 2109TIP3    H2 6292   3.560   5.803   0.933  1.0954 -0.8118 -1.4104
 2110TIP3   OH2 6293   3.227   0.209   4.395  0.3661  0.0938 -0.1727
 2110TIP3    H1 6294   3.195   0.183   4.481  0.9884  0.8746  0.3147
 2110TIP3    H2 6295   3.153   0.194   4.336  0.4697 -2.0895  0.1608
 2111TIP3   OH2 6296   3.076   4.663   0.619 -0.0120 -0.2067 -0.4893
 2111TIP3    H1 6297   3.046   4.573   0.626 -0.4516 -0.0799 -0.7323
 2111TIP3    H2 6298   2.996   4.714   0.603  0.0380  0.4017  1.0813
 2112TIP3   OH2 6299   5.711   3.287   0.168  0.3180  0.3608  0.4378
 2112TIP3    H1 6300   5.768   3.211   0.159 -1.6090 -1.0852 -0.2104
 2112TIP3    H2 6301   5.662   3.272   0.249 -0.0865  0.8897  0.2997
 2113TIP3   OH2 6302   1.198   0.574   5.827  0.0131  0.1220  0.7947
 2113TIP3    H1 6303   1.199   0.478   5.834 -0.9720 -0.0809 -1.2251
 2113TIP3    H2 6304   1.243   0.592   5.744  1.4373  1.5371  1.7988
 2114TIP3   OH2 6305   2.848   5.792   2.620 -0.5324  0.0272 -0.6016
 2114TIP3    H1 6306   2.868   5.877   2.659 -1.6809  0.7778 -1.6089
 2114TIP3    H2 6307   2.804   5.743   2.690  0.1446  0.2384 -0.0168
 2115TIP3   OH2 6308   4.015   2.960   3.873  0.4438 -0.0926  0.2034
 2115TIP3    H1 6309   3.984   2.890   3.930  3.2130 -0.9541  0.7959
 2115TIP3    H2 6310   4.043   3.029   3.934  1.4410 -0.1545 -0.1659
 2116TIP3   OH2 6311   0.349   2.704   1.469 -0.2392  0.3927 -0.0096
 2116TIP3    H1 6312   0.311   2.791   1.454 -0.6077  0.4648  1.2328
 2116TIP3    H2 6313   0.396   2.713   1.552 -0.4201 -0.6531  0.2090
 2117TIP3   OH2 6314   0.779   2.509   1.445 -0.3828 -0.0836  0.2060
 2117TIP3    H1 6315   0.737   2.422   1.443  0.3070 -0.4543 -2.8163
 2117TIP3    H2 6316   0.836   2.506   1.522 -2.7227 -1.0564  2.0563
 2118TIP3   OH2 6317   0.340   2.470   4.642 -0.7123  0.2407 -0.1408
 2118TIP3    H1 6318   0.421   2.429   4.673 -0.8517  0.0676 -0.0031
 2118TIP3    H2 6319   0.314   2.528   4.713  0.3448  1.8177 -0.9683
 2119TIP3   OH2 6320   2.332   5.444   1.577 -0.1671 -0.1653  0.1318
 2119TIP3    H1 6321   2.422   5.452   1.547 -0.9066 -1.7165 -2.8753
 2119TIP3    H2 6322   2.324   5.353   1.607 -0.2820  0.5126  2.3704
 2120TIP3   OH2 6323   0.408   6.025   4.153  0.4202  0.0139  0.2346
 2120TIP3    H1 6324   0.482   5.986   4.198  1.3882  2.0584  0.5694
 2120TIP3    H2 6325   0.392   5.968   4.078  2.7372 -0.2108 -0.1747
 2121TIP3   OH2 6326   1.638   6.201   3.150 -0.3493  0.2471 -0.5993
 2121TIP3    H1 6327   1.627   6.232   3.239 -0.5545  2.8323 -1.4427
 2121TIP3    H2 6328   1.570   6.134   3.139 -0.5630  0.1672  1.0348
 2122TIP3   OH2 6329   1.492   4.020   1.636  0.4418  0.2417 -0.0227
 2122TIP3    H1 6330   1.480   4.097   1.580 -3.1254  0.3395  0.6427
 2122TIP3    H2 6331   1.482   3.945   1.577  2.0011  0.2498 -0.3385
 2123TIP3   OH2 6332   5.251   4.733   0.240 -0.0345 -0.3523 -0.4892
 2123TIP3    H1 6333   5.306   4.714   0.316 -0.8078  0.9984  0.4657
 2123TIP3    H2 6334   5.180   4.669   0.245  0.4836 -0.9474 -0.6904
 2124TIP3   OH2 6335   7.168   3.400   3.978  0.3846  0.2683  0.2568
 2124TIP3    H1 6336   7.257   3.424   4.003  0.5485  0.3966 -0.4375
 2124TIP3    H2 6337   7.177   3.314   3.937 -0.1329 -0.8354  2.3002
 2125TIP3   OH2 6338   3.582   4.011   3.902  0.1607 -0.3595  0.3032
 2125TIP3    H1 6339   3.587   4.031   3.808 -0.6497 -4.3884 -0.7928
 2125TIP3    H2 6340   3.663   4.045   3.938  1.0487  0.2862 -2.1129
 2126TIP3   OH2 6341   5.277   4.756   4.189 -0.4824 -0.2274  0.1291
 2126TIP3    H1 6342   5.303   4.847   4.182 -1.4627  0.1736  1.2414
 2126TIP3    H2 6343   5.239   4.749   4.277 -2.0594 -1.2562 -0.5781
 2127TIP3   OH2 6344   0.666   2.010   1.390 -0.7880  0.3604 -0.3050
 2127TIP3    H1 6345   0.577   2.025   1.423 -1.0994 -0.8040 -0.5531
 2127TIP3    H2 6346   0.654   1.994   1.296 -0.4039 -0.4802 -0.2170
 2128TIP3   OH2 6347   6.064   6.634   3.448  0.2115 -0.0591  0.0917
 2128TIP3    H1 6348   6.005   6.562   3.425  0.3714 -0.4076  0.7597
 2128TIP3    H2 6349   6.151   6.603   3.422  0.6317 -1.1045  2.4790
 2129TIP3   OH2 6350   1.252   6.061   4.125 -0.4003  0.4481  0.0174
 2129TIP3    H1 6351   1.181   6.114   4.160 -1.1807 -0.4975 -0.1073
 2129TIP3    H2 6352   1.222   5.971   4.133 -0.6515  0.1431 -3.0838
 2130TIP3   OH2 6353   0.278   4.126   2.179 -0.7702  0.4012 -0.3366
 2130TIP3    H1 6354   0.223   4.055   2.213  0.3812 -0.7219 -0.7588
 2130TIP3    H2 6355   0.289   4.105   2.087  1.7163 -0.3367  0.0739
 2131TIP3   OH2 6356   6.133   5.105   2.889 -0.2864 -0.4048 -0.1242
 2131TIP3    H1 6357   6.129   5.010   2.899  0.8896 -0.5476 -0.8480
 2131TIP3    H2 6358   6.073   5.125   2.817  0.8978 -0.8439 -1.2715
 2132TIP3   OH2 6359   2.050   1.550   2.707 -0.0093  0.0110 -0.1251
 2132TIP3    H1 6360   2.006   1.634   2.720  0.6286  0.2412  0.6367
 2132TIP3    H2 6361   2.027   1.498   2.784  2.8785  0.9694  1.5148
 2133TIP3   OH2 6362   6.341   5.070   5.193 -0.5486 -0.1015  0.4073
 2133TIP3    H1 6363   6.405   5.086   5.263  1.6783 -1.6356 -1.1442
 2133TIP3    H2 6364   6.284   5.002   5.228  0.2930 -0.5719  0.9124
 2134TIP3   OH2 6365   1.693   5.159   4.937 -0.2013 -0.2786  0.1727
 2134TIP3    H1 6366   1.644   5.226   4.985 -2.2936 -1.3417 -0.3608
 2134TIP3    H2 6367   1.763   5.207   4.893 -0.5697  1.2728  1.2135
 2135TIP3   OH2 6368   5.968   3.714   0.781 -0.0783  0.1998 -0.0119
 2135TIP3    H1 6369   5.975   3.807   0.804 -0.7155 -0.0506  1.2478
 2135TIP3    H2 6370   6.038   3.672   0.831 -0.6912 -0.1871  0.5269
 2136TIP3   OH2 6371   6.866   3.123   4.008 -0.1464  0.2716  0.0419
 2136TIP3    H1 6372   6.868   3.135   4.103 -2.7459 -1.4367  0.4250
 2136TIP3    H2 6373   6.897   3.034   3.994  0.4859  0.6031 -0.7682
 2137TIP3   OH2 6374   1.659   4.302   2.740  0.3418  0.1642  0.4156
 2137TIP3    H1 6375   1.668   4.228   2.800  2.6188  0.1359  0.1056
 2137TIP3    H2 6376   1.730   4.361   2.765 -0.1841  1.2792 -0.6852
 2138TIP3   OH2 6377   2.852   6.504   2.404  0.0621  0.2264  0.1101
 2138TIP3    H1 6378   2.833   6.414   2.379 -0.4985  0.0830  1.0221
 2138TIP3    H2 6379   2.941   6.502   2.438 -0.8819 -0.5859  2.8135
 2139TIP3   OH2 6380   7.028   1.338   4.589  0.1252 -0.3428 -0.1533
 2139TIP3    H1 6381   6.942   1.326   4.628  0.0684 -0.4295 -0.3077
 2139TIP3    H2 6382   7.018   1.311   4.498  0.2551 -0.1248 -0.2332
 2140TIP3   OH2 6383   3.509   4.151   4.661  0.6911 -0.8780  0.3229
 2140TIP3    H1 6384   3.485   4.131   4.752  1.0938 -0.8628  0.4369
 2140TIP3    H2 6385   3.459   4.088   4.609  0.3803 -0.8200  0.5481
 2141TIP3   OH2 6386   5.667   3.173   3.049 -0.2881 -0.2183  0.3354
 2141TIP3    H1 6387   5.680   3.205   2.960  0.1153 -0.4983  0.2896
 2141TIP3    H2 6388   5.574   3.184   3.065 -0.7012 -1.7754 -0.7746
 2142TIP3   OH2 6389   3.428   4.127   4.116  0.3772  0.0768  0.9032
 2142TIP3    H1 6390   3.348   4.103   4.069 -0.4787 -0.5911  2.6005
 2142TIP3    H2 6391   3.498   4.083   4.068 -0.3043  0.2800 -0.3427
 2143TIP3   OH2 6392   1.210   0.869   5.614 -0.2015 -0.4001  0.4244
 2143TIP3    H1 6393   1.211   0.964   5.600  0.7307 -0.4938 -0.1893
 2143TIP3    H2 6394   1.133   0.855   5.669 -1.2948  0.5218 -0.8008
 2144TIP3   OH2 6395   5.380   2.775   2.209 -0.0447  0.0633 -0.1677
 2144TIP3    H1 6396   5.359   2.866   2.185  0.8697  0.6816  1.2683
 2144TIP3    H2 6397   5.426   2.782   2.292 -2.7856 -1.9438  1.7199
 2145TIP3   OH2 6398   1.691   3.279   2.173  0.2886 -0.1481  0.1366
 2145TIP3    H1 6399   1.634   3.336   2.224 -0.4353 -0.9715  0.2759
 2145TIP3    H2 6400   1.763   3.335   2.146  1.0098  0.1944  2.5325
 2146TIP3   OH2 6401   4.309   3.301   4.268  0.3420  0.2097  0.0140
 2146TIP3    H1 6402   4.218   3.278   4.289  0.8436 -2.9361 -0.7077
 2146TIP3    H2 6403   4.335   3.363   4.336 -1.3867 -1.2454  2.1268
 2147TIP3   OH2 6404   3.339   5.320   2.656  0.1637 -0.2880 -0.2189
 2147TIP3    H1 6405   3.335   5.414   2.670 -0.8585 -0.6171  2.2117
 2147TIP3    H2 6406   3.421   5.293   2.697  0.6976 -0.4115 -1.3455
 2148TIP3   OH2 6407   3.022   1.125   4.546  0.7199  0.1148 -0.2596
 2148TIP3    H1 6408   2.967   1.149   4.472 -0.4731 -0.8861  0.2706
 2148TIP3    H2 6409   3.055   1.038   4.523  0.7777  0.0300  0.1462
 2149TIP3   OH2 6410   6.273   3.034   0.646 -0.0205  0.6409  0.1446
 2149TIP3    H1 6411   6.230   3.118   0.664 -1.1096  0.3188 -0.8633
 2149TIP3    H2 6412   6.323   3.050   0.566  1.6809  0.9713  1.2244
 2150TIP3   OH2 6413   0.661   0.116   5.550  0.2091 -0.1050 -0.2177
 2150TIP3    H1 6414   0.707   0.188   5.594 -0.0225  0.0139 -0.1643
 2150TIP3    H2 6415   0.714   0.096   5.473 -0.9508  1.7616 -1.5882
 2151TIP3   OH2 6416   5.916   3.698   3.365 -0.5276 -0.1044 -0.0879
 2151TIP3    H1 6417   5.941   3.608   3.345  0.6891 -0.0906  1.1697
 2151TIP3    H2 6418   5.981   3.752   3.321  0.6397  0.0048  1.6592
 2152TIP3   OH2 6419   4.646   2.341   2.297  0.4691 -0.1114  0.7095
 2152TIP3    H1 6420   4.587   2.409   2.329 -0.2434 -0.7160  0.7218
 2152TIP3    H2 6421   4.725   2.388   2.270 -0.0087  0.7121  0.7146
 2153TIP3   OH2 6422   1.210   1.560   2.626  0.2716  0.4749 -0.1855
 2153TIP3    H1 6423   1.281   1.497   2.637 -0.3364 -0.5232 -1.6422
 2153TIP3    H2 6424   1.177   1.543   2.538 -0.9321  1.7884 -0.0160
 2154TIP3   OH2 6425   4.248   6.274   3.107 -0.7204 -0.5529  0.1324
 2154TIP3    H1 6426   4.183   6.207   3.126 -0.3629 -0.6072  1.2118
 2154TIP3    H2 6427   4.250   6.279   3.011 -0.6812 -2.1557  0.0218
 2155TIP3   OH2 6428   6.519   2.522   4.430  0.1170 -0.1743 -0.0318
 2155TIP3    H1 6429   6.429   2.504   4.457  0.1744 -1.0293 -0.4037
 2155TIP3    H2 6430   6.528   2.479   4.346  0.7482  0.2817 -0.2062
 2156TIP3   OH2 6431   4.436   6.288   1.073  0.2194 -0.2997  0.0028
 2156TIP3    H1 6432   4.428   6.217   1.137  0.2628 -1.2884 -1.0584
 2156TIP3    H2 6433   4.404   6.250   0.991  0.3161  0.8932 -0.6093
 2157TIP3   OH2 6434   5.543   2.691   5.256 -0.4654  0.3127 -0.3060
 2157TIP3    H1 6435   5.588   2.764   5.214 -0.7700  0.1024 -1.0172
 2157TIP3    H2 6436   5.558   2.704   5.350  0.3529  0.7129 -0.4781
 2158TIP3   OH2 6437   3.432   0.160   1.663  0.6697  0.1806 -0.1537
 2158TIP3    H1 6438   3.444   0.242   1.712  1.4483 -0.0777  0.1051
 2158TIP3    H2 6439   3.477   0.175   1.580  0.6945  0.0717 -0.1606
 2159TIP3   OH2 6440   1.429   0.504   4.055  0.4712  0.1851  0.8061
 2159TIP3    H1 6441   1.408   0.486   3.963 -3.3436  0.4449  1.4741
 2159TIP3    H2 6442   1.475   0.425   4.084  1.3647 -0.0848 -1.1536
 2160TIP3   OH2 6443   0.180   6.650   3.682 -0.2653  0.3200  0.2440
 2160TIP3    H1 6444   0.177   6.740   3.713 -0.9627  0.2624  0.3644
 2160TIP3    H2 6445   0.267   6.640   3.645 -0.7415  1.5842 -1.3565
 2161TIP3   OH2 6446   4.474   0.934   4.438  0.1512  0.3776 -0.2391
 2161TIP3    H1 6447   4.463   0.897   4.351  2.2383 -0.5785 -0.1667
 2161TIP3    H2 6448   4.405   0.999   4.446 -0.6446 -0.1605 -2.2473
 2162TIP3   OH2 6449   5.142   6.661   4.296  0.0046 -0.7592  0.4338
 2162TIP3    H1 6450   5.087   6.634   4.370  0.5513 -2.9237  0.1353
 2162TIP3    H2 6451   5.154   6.755   4.307 -0.5275 -0.9041  2.6839
 2163TIP3   OH2 6452   6.720   1.739   2.911 -0.4895  0.1162  0.2834
 2163TIP3    H1 6453   6.664   1.696   2.846 -1.8858 -1.5762  2.4847
 2163TIP3    H2 6454   6.661   1.798   2.958  0.0106 -0.2394  1.3753
 2164TIP3   OH2 6455   3.488   3.538   4.112 -0.4906  1.0454  0.0613
 2164TIP3    H1 6456   3.410   3.523   4.166 -1.1403  1.4838 -0.7362
 2164TIP3    H2 6457   3.467   3.617   4.061 -1.5801 -1.4527 -3.7533
 2165TIP3   OH2 6458   2.087   6.285   0.211  0.2681  0.2505  0.4605
 2165TIP3    H1 6459   2.080   6.204   0.161 -0.7430  0.5410  0.1121
 2165TIP3    H2 6460   2.179   6.288   0.239  0.0101 -1.7317  1.7025
 2166TIP3   OH2 6461   2.618   4.621   1.148 -0.4254  0.2271 -0.3638
 2166TIP3    H1 6462   2.595   4.632   1.055 -2.2071 -1.6619 -0.2152
 2166TIP3    H2 6463   2.646   4.530   1.155  1.1822  0.7711  0.7166
 2167TIP3   OH2 6464   0.607   1.996   0.686  0.5461  0.3022 -0.4152
 2167TIP3    H1 6465   0.621   1.906   0.715 -0.0773 -0.1719 -1.5087
 2167TIP3    H2 6466   0.695   2.030   0.670  0.7554 -0.4726 -0.9817
 2168TIP3   OH2 6467   0.357   6.411   4.839  0.0058 -0.2096  0.4157
 2168TIP3    H1 6468   0.270   6.386   4.809 -0.0039 -0.0492  0.3086
 2168TIP3    H2 6469   0.375   6.494   4.795 -0.7244  0.9142  2.1301
 2169TIP3   OH2 6470   0.768   4.811   4.040  0.3358 -0.7566  0.0736
 2169TIP3    H1 6471   0.772   4.906   4.028  0.5440 -0.9221 -1.2419
 2169TIP3    H2 6472   0.809   4.796   4.125  0.5040  0.3097  0.1901
 2170TIP3   OH2 6473   6.321   4.314   0.630 -0.2888  0.0226  0.4239
 2170TIP3    H1 6474   6.244   4.273   0.590 -0.2633  0.5407 -0.1623
 2170TIP3    H2 6475   6.303   4.408   0.627  0.0961  0.1149  0.8532
 2171TIP3   OH2 6476   5.910   0.308   3.557  0.1756  0.0956 -0.8032
 2171TIP3    H1 6477   5.987   0.346   3.598  0.3366 -0.0402 -0.9734
 2171TIP3    H2 6478   5.933   0.303   3.464  0.5108 -1.2345 -0.6767
 2172TIP3   OH2 6479   2.294   5.187   1.223 -0.1226 -0.7422 -0.3417
 2172TIP3    H1 6480   2.323   5.112   1.173 -0.0180 -0.6316 -0.4475
 2172TIP3    H2 6481   2.366   5.206   1.284  0.0756 -0.4037 -0.6756
 2173TIP3   OH2 6482   6.611   5.631   3.597  0.2052  0.2828  0.1636
 2173TIP3    H1 6483   6.593   5.561   3.535  1.1365 -0.1961  0.4064
 2173TIP3    H2 6484   6.556   5.704   3.568  1.6960  0.5948 -2.1523
 2174TIP3   OH2 6485   0.793   4.262   4.760  0.1219 -0.0545 -0.1073
 2174TIP3    H1 6486   0.843   4.201   4.706 -4.4815 -1.8979 -2.8234
 2174TIP3    H2 6487   0.782   4.340   4.705 -1.5799 -0.4960 -0.4388
 2175TIP3   OH2 6488   1.980   4.941   1.123 -0.0510  0.3338  0.8313
 2175TIP3    H1 6489   1.891   4.905   1.129  0.2966 -0.3616  2.7254
 2175TIP3    H2 6490   1.967   5.032   1.097 -1.0425 -0.7325 -2.9471
 2176TIP3   OH2 6491   6.676   1.230   4.430 -0.3557  0.3352  0.1091
 2176TIP3    H1 6492   6.733   1.306   4.423 -0.2699  0.1335 -1.7598
 2176TIP3    H2 6493   6.600   1.251   4.376 -0.1164 -1.0621 -0.8251
 2177TIP3   OH2 6494   6.427   0.267   2.659  0.3977 -0.1672 -0.4569
 2177TIP3    H1 6495   6.505   0.214   2.641 -0.3214 -1.0116 -1.1046
 2177TIP3    H2 6496   6.355   0.205   2.661 -0.1937  0.5359  0.7364
 2178TIP3   OH2 6497   6.481   5.750   0.137 -0.2163 -0.4568  0.1723
 2178TIP3    H1 6498   6.408   5.695   0.107  0.3479 -1.3225  0.3351
 2178TIP3    H2 6499   6.444   5.801   0.209 -0.6395 -0.9860  0.3452
 2179TIP3   OH2 6500   2.102   3.014   2.728 -0.3670 -0.0467  0.5634
 2179TIP3    H1 6501   2.123   3.107   2.732 -1.8157  0.3089  0.6384
 2179TIP3    H2 6502   2.006   3.011   2.734 -0.4201 -1.4814 -0.4593
 2180TIP3   OH2 6503   0.959   5.839   2.201  0.3167  0.5923 -0.1532
 2180TIP3    H1 6504   0.926   5.760   2.159 -0.4370  0.7978  0.0356
 2180TIP3    H2 6505   1.033   5.809   2.253  1.2373  0.3210 -1.5565
 2181TIP3   OH2 6506   0.036   1.642   4.959  0.6493  0.1660  0.3669
 2181TIP3    H1 6507   0.027   1.702   4.885 -0.1106  0.8315  0.9741
 2181TIP3    H2 6508   0.116   1.670   5.003  1.2397 -0.3905 -0.3257
 2182TIP3   OH2 6509   3.745   2.067   5.663 -0.1121  0.3334  0.6874
 2182TIP3    H1 6510   3.730   1.973   5.653  0.1331  0.4973 -1.7899
 2182TIP3    H2 6511   3.796   2.091   5.586  0.2798  2.4240  1.5461
 2183TIP3   OH2 6512   6.347   5.406   4.886 -0.3918 -0.1467 -0.4748
 2183TIP3    H1 6513   6.417   5.343   4.871 -1.2558 -1.8210  1.9323
 2183TIP3    H2 6514   6.301   5.411   4.802 -0.3072 -2.8007 -0.7629
 2184TIP3   OH2 6515   5.368   6.252   5.702 -0.3368 -0.2180  0.4894
 2184TIP3    H1 6516   5.400   6.334   5.739 -1.1375 -1.1188  3.4745
 2184TIP3    H2 6517   5.303   6.278   5.636  0.7611  1.4999  0.0228
 2185TIP3   OH2 6518   4.558   1.192   5.240  0.5504 -0.0355  0.3090
 2185TIP3    H1 6519   4.518   1.267   5.283 -0.4535  0.3005 -1.1388
 2185TIP3    H2 6520   4.565   1.217   5.148 -0.9660 -2.1469 -0.4680
 2186TIP3   OH2 6521   6.204   2.573   2.315  0.2538  0.3913 -0.1021
 2186TIP3    H1 6522   6.156   2.652   2.293 -1.7634 -0.5397  0.6453
 2186TIP3    H2 6523   6.202   2.569   2.410  3.1114  0.9936  0.0877
 2187TIP3   OH2 6524   4.642   1.644   2.932  0.5083  0.1914 -0.0984
 2187TIP3    H1 6525   4.666   1.563   2.979  0.4349  0.6954  0.8285
 2187TIP3    H2 6526   4.725   1.679   2.902  0.5961  0.0674 -0.0058
 2188TIP3   OH2 6527   3.295   6.151   0.491  0.4686 -0.5290 -0.1499
 2188TIP3    H1 6528   3.209   6.172   0.453  1.2316  0.6309 -1.3373
 2188TIP3    H2 6529   3.308   6.058   0.472 -0.5524 -0.7309  0.0971
 2189TIP3   OH2 6530   7.181   0.993   0.595 -0.0267  0.3027  0.0515
 2189TIP3    H1 6531   7.108   1.054   0.602  0.2857  0.7384 -0.4517
 2189TIP3    H2 6532   7.156   0.920   0.652 -0.6201  0.6745  0.2824
 2190TIP3   OH2 6533   1.659   6.532   2.449 -0.8780 -0.3643 -0.1270
 2190TIP3    H1 6534   1.578   6.582   2.441  0.3667  1.5685 -1.4687
 2190TIP3    H2 6535   1.720   6.575   2.389  1.6410 -0.7089  1.9857
 2191TIP3   OH2 6536   3.304   3.540   1.337 -0.1371 -0.0839  0.5423
 2191TIP3    H1 6537   3.329   3.619   1.289 -2.0463  0.6010  0.5646
 2191TIP3    H2 6538   3.241   3.497   1.279  0.6966 -1.4856  0.6470
 2192TIP3   OH2 6539   5.691   4.566   5.393  0.0632 -0.3107 -0.1850
 2192TIP3    H1 6540   5.782   4.554   5.368 -0.0951 -0.8032 -0.5481
 2192TIP3    H2 6541   5.689   4.649   5.441  0.5922  0.0073 -0.7141
 2193TIP3   OH2 6542   2.691   5.552   0.299  0.5786 -0.4782 -0.2697
 2193TIP3    H1 6543   2.740   5.539   0.218 -0.6856 -1.7810 -0.8762
 2193TIP3    H2 6544   2.628   5.621   0.278  2.3469  1.5551  0.6576
 2194TIP3   OH2 6545   3.105   6.676   1.190  0.1489 -0.4617 -0.3321
 2194TIP3    H1 6546   3.011   6.672   1.206 -0.0768 -0.8367 -1.6353
 2194TIP3    H2 6547   3.141   6.720   1.268 -0.9995 -0.9603  0.5051
 2195TIP3   OH2 6548   7.143   5.941   5.297  0.1024 -0.0136 -0.1185
 2195TIP3    H1 6549   7.142   6.030   5.261 -2.5442  0.3058  0.5179
 2195TIP3    H2 6550   7.060   5.903   5.268  0.0514 -1.3959  1.6594
 2196TIP3   OH2 6551   5.204   5.280   0.518 -0.2988  0.1503 -0.2567
 2196TIP3    H1 6552   5.227   5.371   0.501  1.0255 -0.0353  0.4256
 2196TIP3    H2 6553   5.159   5.251   0.438 -2.0422  1.7849  0.0521
 2197TIP3   OH2 6554   1.189   5.863   3.216  0.0226  0.0152  0.2019
 2197TIP3    H1 6555   1.190   5.815   3.298  0.7110  0.9654  0.7646
 2197TIP3    H2 6556   1.139   5.942   3.235 -1.2513 -0.5136 -0.7568
 2198TIP3   OH2 6557   0.100   0.071   0.271  0.7899  0.4739  0.0353
 2198TIP3    H1 6558   0.096   0.105   0.182  2.9930 -0.8208 -0.6619
 2198TIP3    H2 6559   0.025   0.012   0.277  1.6207 -0.8916 -1.7140
 2199TIP3   OH2 6560   6.404   1.076   1.556  0.2352  0.3403 -0.0189
 2199TIP3    H1 6561   6.395   1.092   1.462  1.4298  0.8068 -0.0759
 2199TIP3    H2 6562   6.399   0.981   1.565 -1.0745  0.3500 -0.3934
 2200TIP3   OH2 6563   1.137   3.485   0.698  0.1766  0.4264 -0.5438
 2200TIP3    H1 6564   1.142   3.407   0.753  2.0144 -0.3413 -1.6917
 2200TIP3    H2 6565   1.203   3.544   0.735 -0.4988  1.0290 -0.2895
 2201TIP3   OH2 6566   0.640   6.787   2.049  0.0538 -0.2232  0.6479
 2201TIP3    H1 6567   0.588   6.861   2.015 -0.4579 -1.4767 -1.5014
 2201TIP3    H2 6568   0.593   6.710   2.019  0.8394 -1.4472  2.4523
 2202TIP3   OH2 6569   2.278   2.119   5.774  0.2581  0.4469  0.1228
 2202TIP3    H1 6570   2.281   2.024   5.780  1.7653  0.5316  1.2573
 2202TIP3    H2 6571   2.200   2.143   5.825 -0.4304 -0.1896 -0.6051
 2203TIP3   OH2 6572   0.962   1.366   4.994  1.0994 -0.2250 -0.2442
 2203TIP3    H1 6573   0.867   1.365   4.983  1.3263 -2.0386 -2.8789
 2203TIP3    H2 6574   0.991   1.448   4.953  0.7838 -0.3196 -0.6555
 2204TIP3   OH2 6575   3.860   1.746   4.587  0.4000 -0.5121  0.0228
 2204TIP3    H1 6576   3.825   1.834   4.575  0.5940 -0.6647 -2.0361
 2204TIP3    H2 6577   3.784   1.688   4.582  0.5623 -0.6310 -1.4424
 2205TIP3   OH2 6578   4.138   4.299   1.210 -0.3906  0.1095 -0.5677
 2205TIP3    H1 6579   4.183   4.358   1.269 -0.5907  0.9674 -1.2507
 2205TIP3    H2 6580   4.104   4.356   1.141 -1.0223 -0.7398 -0.9716
 2206TIP3   OH2 6581   4.794   0.524   0.511 -0.0918 -0.0742  0.1241
 2206TIP3    H1 6582   4.832   0.594   0.458  0.3509 -0.2985  0.1417
 2206TIP3    H2 6583   4.869   0.479   0.550 -0.2892 -1.2640 -0.7808
 2207TIP3   OH2 6584   6.285   6.623   3.850 -0.3263 -0.3696 -0.1747
 2207TIP3    H1 6585   6.195   6.593   3.864 -1.1545  2.1447  0.4917
 2207TIP3    H2 6586   6.338   6.565   3.905 -1.5729 -1.6517 -0.2629
 2208TIP3   OH2 6587   1.657   5.156   1.097 -0.8538  0.0792  0.1220
 2208TIP3    H1 6588   1.606   5.222   1.144 -1.9223 -0.2032 -0.5927
 2208TIP3    H2 6589   1.613   5.148   1.012  0.8450  0.3646 -0.8403
 2209TIP3   OH2 6590   4.898   3.467   2.748  0.4295  0.1853 -0.0031
 2209TIP3    H1 6591   4.867   3.531   2.813 -0.3670  0.2703 -0.4461
 2209TIP3    H2 6592   4.825   3.460   2.687  0.8660 -0.4941 -0.4445
 2210TIP3   OH2 6593   2.238   1.198   4.482  0.0662  0.0476 -0.1979
 2210TIP3    H1 6594   2.256   1.255   4.408  0.1593 -1.7978 -1.6772
 2210TIP3    H2 6595   2.324   1.182   4.522 -0.1128  1.9127  1.0436
 2211TIP3   OH2 6596   3.179   4.261   2.917 -0.2098 -0.7493  0.3128
 2211TIP3    H1 6597   3.203   4.170   2.933  0.3960 -0.4401  1.2695
 2211TIP3    H2 6598   3.221   4.310   2.988  1.3869  0.5602 -1.4484
 2212TIP3   OH2 6599   5.298   4.642   0.532  0.1150  0.2130  0.1968
 2212TIP3    H1 6600   5.303   4.548   0.512 -1.4936 -0.0072  0.6925
 2212TIP3    H2 6601   5.205   4.659   0.546  0.4695  1.7286  0.9416
 2213TIP3   OH2 6602   1.781   1.636   1.290 -0.1553  0.0697  0.3119
 2213TIP3    H1 6603   1.737   1.588   1.361  1.3608 -0.0150  1.2300
 2213TIP3    H2 6604   1.844   1.573   1.255 -1.2318 -0.0722 -1.5209
 2214TIP3   OH2 6605   3.647   5.676   0.322 -0.6590 -0.0559  0.0381
 2214TIP3    H1 6606   3.694   5.600   0.358  0.6140  0.4535 -0.4722
 2214TIP3    H2 6607   3.695   5.697   0.242 -1.2563  1.0236 -0.0458
 2215TIP3   OH2 6608   6.999   1.262   3.611  0.0458 -0.5525  0.6640
 2215TIP3    H1 6609   7.076   1.315   3.593 -0.3039 -0.5354 -0.8887
 2215TIP3    H2 6610   6.970   1.231   3.525 -3.2785  1.6325  0.8207
 2216TIP3   OH2 6611   2.501   5.379   2.213  0.0001  0.3404 -0.0444
 2216TIP3    H1 6612   2.509   5.474   2.216  0.3248  0.3081  0.1841
 2216TIP3    H2 6613   2.409   5.363   2.192 -0.2496  0.7030  0.7386
 2217TIP3   OH2 6614   7.009   5.285   1.884  0.3096  0.1449 -0.3395
 2217TIP3    H1 6615   7.065   5.245   1.817  0.2238  0.2898 -0.5004
 2217TIP3    H2 6616   6.990   5.214   1.945 -0.9546 -0.4284 -1.3369
 2218TIP3   OH2 6617   3.177   5.080   2.312 -0.0539  0.0523 -0.0115
 2218TIP3    H1 6618   3.263   5.038   2.302  0.0082  0.4953 -1.6779
 2218TIP3    H2 6619   3.122   5.035   2.247 -0.9506  0.1169  0.6960
 2219TIP3   OH2 6620   1.518   0.145   0.089 -0.4249  0.4048  0.4413
 2219TIP3    H1 6621   1.476   0.076   0.141 -1.2651  0.2322 -0.4282
 2219TIP3    H2 6622   1.612   0.128   0.099 -0.5970 -1.7518 -0.8504
 2220TIP3   OH2 6623   5.941   0.222   4.712  0.5080  0.5037  0.1056
 2220TIP3    H1 6624   5.976   0.280   4.644 -1.3211  0.5116 -0.9065
 2220TIP3    H2 6625   6.015   0.167   4.738  1.5315  1.2715 -1.0966
 2221TIP3   OH2 6626   3.428   1.803   0.374  0.4678  0.2126 -0.3879
 2221TIP3    H1 6627   3.399   1.894   0.363  0.9562  0.3808 -0.3032
 2221TIP3    H2 6628   3.347   1.752   0.373  0.2207  0.6096 -0.8219
 2222TIP3   OH2 6629   0.029   4.342   2.953 -0.1867 -0.0257  0.0410
 2222TIP3    H1 6630   0.032   4.256   2.913 -3.0571 -0.3291  0.2888
 2222TIP3    H2 6631  -0.039   4.335   3.020  0.1978  2.1731  0.7478
 2223TIP3   OH2 6632   1.728   0.794   5.763  0.0954  0.1324  0.2980
 2223TIP3    H1 6633   1.643   0.781   5.805 -0.5146  0.2524 -0.8380
 2223TIP3    H2 6634   1.730   0.887   5.743  1.1483  0.4121  1.6318
 2224TIP3   OH2 6635   1.832   2.828   1.178 -0.0151  0.6913 -0.7660
 2224TIP3    H1 6636   1.758   2.786   1.134  0.2729  0.5987 -1.1604
 2224TIP3    H2 6637   1.907   2.808   1.123  0.5879 -0.5767  0.4555
 2225TIP3   OH2 6638   0.394   3.703   3.545  0.0015  0.2223 -0.3100
 2225TIP3    H1 6639   0.421   3.786   3.583 -2.2952  0.3126  1.3705
 2225TIP3    H2 6640   0.447   3.637   3.591  1.2422  0.6712 -1.0598
 2226TIP3   OH2 6641   1.019   2.985   2.984 -0.2254 -0.0668 -0.2579
 2226TIP3    H1 6642   1.030   2.986   2.889  0.5125 -0.8950 -0.1930
 2226TIP3    H2 6643   1.018   3.077   3.010  0.3257  0.1496 -0.9821
 2227TIP3   OH2 6644   3.999   1.179   5.327 -0.2980 -0.2123  0.3400
 2227TIP3    H1 6645   4.067   1.126   5.369 -1.2361 -2.2126 -0.5727
 2227TIP3    H2 6646   4.010   1.162   5.234 -0.0023  2.0273 -0.0961
 2228TIP3   OH2 6647   7.125   0.693   5.664  0.2778 -0.4521  0.0204
 2228TIP3    H1 6648   7.048   0.702   5.721 -0.7562  0.0977 -1.4184
 2228TIP3    H2 6649   7.141   0.598   5.661 -1.2909 -0.7307 -0.8426
 2229TIP3   OH2 6650   0.947   5.335   1.566 -0.3261  0.7170 -0.3819
 2229TIP3    H1 6651   0.952   5.355   1.473  1.4439  1.7125 -0.1244
 2229TIP3    H2 6652   1.038   5.316   1.591 -0.7243  0.7032  1.1842
 2230TIP3   OH2 6653   3.228   0.546   0.216 -0.2200 -0.2958  0.2311
 2230TIP3    H1 6654   3.179   0.585   0.289 -0.1212 -0.7899  0.5663
 2230TIP3    H2 6655   3.162   0.504   0.162 -0.1937 -0.8350  0.6044
 2231TIP3   OH2 6656   5.198   0.719   1.024  0.0352  0.2666  0.0071
 2231TIP3    H1 6657   5.220   0.635   0.984 -1.5194 -0.5566  0.7920
 2231TIP3    H2 6658   5.103   0.717   1.034  0.0404  1.8495  0.6522
 2232TIP3   OH2 6659   6.170   2.318   5.115 -0.0037  0.4644  0.2228
 2232TIP3    H1 6660   6.183   2.412   5.100 -1.0418  0.7522  1.0066
 2232TIP3    H2 6661   6.094   2.314   5.173 -0.0948 -0.8782  0.0249
 2233TIP3   OH2 6662   4.895   0.653   2.851  0.3309 -0.0231  0.3802
 2233TIP3    H1 6663   4.882   0.721   2.917 -0.0397  1.9609 -1.6429
 2233TIP3    H2 6664   4.815   0.600   2.855  0.6360 -0.4168  1.9943
 2234TIP3   OH2 6665   0.968   3.961   2.113  0.6190  0.3083 -0.6111
 2234TIP3    H1 6666   0.907   4.035   2.115  1.1964  0.7880 -0.3348
 2234TIP3    H2 6667   0.913   3.885   2.094 -0.0376  0.7567 -0.5429
 2235TIP3   OH2 6668   2.016   2.468   5.301  0.1623 -0.1704  0.0437
 2235TIP3    H1 6669   2.059   2.460   5.386  0.7204  0.7887 -0.1274
 2235TIP3    H2 6670   2.053   2.396   5.249 -0.7093 -1.1964  0.7987
 2236TIP3   OH2 6671   5.562   1.638   2.444  0.1306 -0.2083  0.1224
 2236TIP3    H1 6672   5.496   1.601   2.504 -1.6638 -0.1297 -1.6942
 2236TIP3    H2 6673   5.548   1.591   2.362  3.2288 -1.0519 -0.0390
 2237TIP3   OH2 6674   3.114   2.629   5.148  0.0889  0.4287 -0.0992
 2237TIP3    H1 6675   3.062   2.606   5.225  0.0105  0.6936 -0.0738
 2237TIP3    H2 6676   3.178   2.692   5.180 -0.4912  1.1884 -0.4319
 2238TIP3   OH2 6677   5.817   2.393   1.896  0.2981 -0.0084 -0.3854
 2238TIP3    H1 6678   5.797   2.321   1.837  0.1148 -1.1335  0.9710
 2238TIP3    H2 6679   5.836   2.350   1.980  2.1087  1.4013 -0.0056
 2239TIP3   OH2 6680   2.864   4.048   1.077 -0.1747 -0.0681 -0.0127
 2239TIP3    H1 6681   2.872   3.954   1.059 -1.4355 -0.2502  0.2976
 2239TIP3    H2 6682   2.954   4.076   1.096  0.3876 -0.9659 -1.2039
 2240TIP3   OH2 6683   4.013   4.738   4.745  0.0407 -0.2858 -0.8914
 2240TIP3    H1 6684   3.926   4.708   4.721  0.5481 -0.2401 -2.9713
 2240TIP3    H2 6685   4.022   4.716   4.838 -1.6542 -1.5080 -0.9840
 2241TIP3   OH2 6686   4.181   1.089   2.413  0.1244 -0.4952  0.6853
 2241TIP3    H1 6687   4.237   1.103   2.489 -0.0129 -1.1030  0.9045
 2241TIP3    H2 6688   4.104   1.145   2.429  0.1325 -0.5610  0.9518
 2242TIP3   OH2 6689   3.177   3.834   2.193 -0.2687 -0.5229 -0.3729
 2242TIP3    H1 6690   3.249   3.777   2.218  0.3628  0.4109 -0.0180
 2242TIP3    H2 6691   3.205   3.874   2.111 -0.8837 -0.9969 -0.8349
 2243TIP3   OH2 6692   5.792   3.584   0.614  0.7729 -0.0752  0.5364
 2243TIP3    H1 6693   5.825   3.494   0.614  0.8910 -0.0741  2.3653
 2243TIP3    H2 6694   5.853   3.631   0.671  0.2459  0.9863  0.2357
 2244TIP3   OH2 6695   4.978   2.055   0.215  0.3606 -0.3736 -0.4606
 2244TIP3    H1 6696   4.974   2.105   0.134 -0.6389 -0.2506 -0.3444
 2244TIP3    H2 6697   5.067   2.020   0.217  0.5964  0.1562 -1.2841
 2245TIP3   OH2 6698   2.664   5.907   2.432 -0.1784 -0.3315 -0.0333
 2245TIP3    H1 6699   2.579   5.925   2.474  0.9991  2.6571  1.3200
 2245TIP3    H2 6700   2.716   5.866   2.501  0.4818  0.8557  0.1932
 2246TIP3   OH2 6701   1.755   2.356   3.046  0.2103  0.5203  0.1337
 2246TIP3    H1 6702   1.737   2.334   3.138  0.7872  1.6181  0.5254
 2246TIP3    H2 6703   1.670   2.344   3.002 -0.8121  2.5922  1.3552
 2247TIP3   OH2 6704   4.323   0.757   4.581 -0.0764 -0.3516  0.0582
 2247TIP3    H1 6705   4.289   0.713   4.504  0.6016 -1.1197  0.1907
 2247TIP3    H2 6706   4.410   0.788   4.555 -0.0501 -0.1667  0.3552
 2248TIP3   OH2 6707   5.253   3.715   1.750  0.1086 -0.3590  0.3669
 2248TIP3    H1 6708   5.244   3.623   1.723 -0.6488 -0.7248  1.7831
 2248TIP3    H2 6709   5.170   3.755   1.726  0.1893 -0.1950  0.3608
 2249TIP3   OH2 6710   7.036   4.372   2.715  0.2962  0.0102  0.1656
 2249TIP3    H1 6711   7.075   4.325   2.641 -1.1851 -1.3896  0.2411
 2249TIP3    H2 6712   7.081   4.337   2.791  1.9750  1.6040 -0.0144
 2250TIP3   OH2 6713   1.409   4.917   3.951 -0.2606 -0.1628 -0.1347
 2250TIP3    H1 6714   1.466   4.869   3.891  0.5566 -1.1347  1.3582
 2250TIP3    H2 6715   1.332   4.940   3.899  0.4722 -0.8663 -1.5607
 2251TIP3   OH2 6716   6.197   3.904   2.391 -0.1267 -0.0619  0.7314
 2251TIP3    H1 6717   6.262   3.849   2.435 -0.1172 -0.4412  0.2509
 2251TIP3    H2 6718   6.249   3.969   2.343  0.0855 -1.8787 -1.7369
 2252TIP3   OH2 6719   1.970   1.658   5.297  0.2057 -0.1813  0.4019
 2252TIP3    H1 6720   1.915   1.693   5.367  1.1227  2.2073  0.0219
 2252TIP3    H2 6721   2.005   1.576   5.332 -0.8161  0.0316  2.0007
 2253TIP3   OH2 6722   3.622   3.213   3.763 -0.2340 -0.0341 -0.1152
 2253TIP3    H1 6723   3.633   3.292   3.711 -0.3451  0.4582  0.6052
 2253TIP3    H2 6724   3.529   3.191   3.754 -0.5619  0.8128  0.9326
 2254TIP3   OH2 6725   3.344   3.977   5.422 -0.3501  0.4773  0.3883
 2254TIP3    H1 6726   3.332   4.072   5.416 -1.6821  0.2837 -0.2498
 2254TIP3    H2 6727   3.430   3.967   5.465 -0.1487  1.9557  0.3938
 2255TIP3   OH2 6728   2.706   2.265   3.749 -0.3935 -0.3168  0.0012
 2255TIP3    H1 6729   2.778   2.313   3.791  0.6572 -2.1671  0.4110
 2255TIP3    H2 6730   2.633   2.276   3.809 -0.6684  1.9680 -0.6355
 2256TIP3   OH2 6731   6.093   3.934   4.314 -0.4633 -0.0415 -0.5132
 2256TIP3    H1 6732   6.096   4.028   4.331 -0.1741  0.0683 -1.1457
 2256TIP3    H2 6733   6.001   3.910   4.326 -0.2102 -0.0940  1.7192
 2257TIP3   OH2 6734   2.770   2.564   4.455  0.3390  0.4338  0.4626
 2257TIP3    H1 6735   2.806   2.588   4.540  0.1801 -1.1134  1.0048
 2257TIP3    H2 6736   2.831   2.498   4.422 -1.0469 -0.9895  0.6379
 2258TIP3   OH2 6737   1.795   4.332   5.080  0.1207  0.2588  0.1086
 2258TIP3    H1 6738   1.708   4.365   5.057 -0.5411 -1.3543  0.1407
 2258TIP3    H2 6739   1.788   4.310   5.172  0.5484  0.0791  0.0972
 2259TIP3   OH2 6740   3.788   5.755   5.306  0.1962  0.2308 -0.1046
 2259TIP3    H1 6741   3.825   5.713   5.383 -0.4922 -1.8071 -0.8102
 2259TIP3    H2 6742   3.696   5.769   5.328  0.3760  1.2069  0.0490
 2260TIP3   OH2 6743   1.271   3.099   0.483  0.5776 -0.3140 -0.4571
 2260TIP3    H1 6744   1.205   3.055   0.430  0.5855 -1.4548  0.4291
 2260TIP3    H2 6745   1.306   3.030   0.540  3.2870 -0.0260 -1.5995
 2261TIP3   OH2 6746   0.878   1.398   1.891 -0.1776  0.0360  0.5188
 2261TIP3    H1 6747   0.938   1.348   1.837 -0.7970  3.1421 -3.5420
 2261TIP3    H2 6748   0.791   1.370   1.862 -0.5422  1.2652  0.3843
 2262TIP3   OH2 6749   3.061   5.809   2.039 -0.0102 -0.0226 -0.2820
 2262TIP3    H1 6750   3.054   5.872   1.967  1.0953  0.4053 -0.0354
 2262TIP3    H2 6751   3.140   5.836   2.087 -0.8830 -0.1168  1.2751
 2263TIP3   OH2 6752   0.264   5.650   2.934  1.0774 -0.0812 -0.7558
 2263TIP3    H1 6753   0.296   5.612   2.853  0.2031 -0.0281 -1.1400
 2263TIP3    H2 6754   0.185   5.699   2.909  0.3417 -0.7037  0.2291
 2264TIP3   OH2 6755   2.267   4.433   3.022 -0.4150  0.6128 -0.0568
 2264TIP3    H1 6756   2.325   4.508   3.004  0.2312 -0.1206 -1.1225
 2264TIP3    H2 6757   2.299   4.398   3.105  0.7806  0.1486 -0.6871
 2265TIP3   OH2 6758   1.020   0.264   3.588 -0.3576  0.1511  0.3392
 2265TIP3    H1 6759   0.935   0.294   3.621 -1.6635 -2.5954 -0.2736
 2265TIP3    H2 6760   1.017   0.284   3.494 -1.4342 -2.0979 -0.1666
 2266TIP3   OH2 6761   3.631   4.331   0.362 -0.2028  0.5955  0.0331
 2266TIP3    H1 6762   3.565   4.330   0.431  2.3441  1.8044  2.7118
 2266TIP3    H2 6763   3.677   4.247   0.372  1.0915  1.3664  0.8625
 2267TIP3   OH2 6764   4.019   1.507   5.068  0.3824 -0.0069 -0.8138
 2267TIP3    H1 6765   4.044   1.561   5.142 -0.4908 -0.9862  0.2256
 2267TIP3    H2 6766   3.925   1.492   5.079  0.6844 -2.1466 -0.7650
 2268TIP3   OH2 6767   2.272   3.424   2.993  0.0787  0.1997  0.0272
 2268TIP3    H1 6768   2.218   3.431   2.914 -1.8059 -0.3418  1.2140
 2268TIP3    H2 6769   2.334   3.497   2.985  0.5830 -0.3963 -2.3724
 2269TIP3   OH2 6770   6.533   1.391   3.870 -0.1034 -0.2110 -0.4422
 2269TIP3    H1 6771   6.580   1.415   3.950 -0.6343  1.2797 -0.5506
 2269TIP3    H2 6772   6.599   1.349   3.815  0.8915  1.0335 -0.2422
 2270TIP3   OH2 6773   2.714   3.014   0.187 -0.2398  0.3863  0.0582
 2270TIP3    H1 6774   2.789   3.073   0.180 -0.1394  0.2743  0.1720
 2270TIP3    H2 6775   2.647   3.065   0.232  0.2555  0.0398  1.2518
 2271TIP3   OH2 6776   5.876   3.072   0.111 -0.5123  0.1751  0.3642
 2271TIP3    H1 6777   5.938   3.105   0.176  0.3479 -0.0391 -0.3283
 2271TIP3    H2 6778   5.930   3.020   0.051 -1.5132 -0.7845  0.2672
 2272TIP3   OH2 6779   5.069   1.152   4.499 -0.4069 -0.3466 -0.4031
 2272TIP3    H1 6780   5.109   1.219   4.555  0.7800 -1.4093  0.0675
 2272TIP3    H2 6781   5.065   1.193   4.412  0.6017  0.2304 -0.1945
 2273TIP3   OH2 6782   4.809   0.041   3.797 -0.2739  0.2937  0.2864
 2273TIP3    H1 6783   4.840   0.131   3.783 -1.0032  0.5350  0.1791
 2273TIP3    H2 6784   4.884  -0.014   3.774 -0.2335  0.8234 -0.9357
 2274TIP3   OH2 6785   5.601   5.076   5.724 -0.3670  0.0570  0.5554
 2274TIP3    H1 6786   5.614   5.107   5.813  1.4831 -0.2062  0.4331
 2274TIP3    H2 6787   5.670   5.120   5.673 -2.0913  1.0851 -0.9940
 2275TIP3   OH2 6788   2.210   0.887   3.782  0.5930  1.0209  0.1091
 2275TIP3    H1 6789   2.255   0.970   3.799  1.3348  0.5206  0.6436
 2275TIP3    H2 6790   2.262   0.822   3.829 -1.1041  0.5245  1.3656
 2276TIP3   OH2 6791   3.977   2.457   3.145  0.0067 -0.6145  0.3241
 2276TIP3    H1 6792   3.886   2.427   3.156 -0.1022 -0.5004 -0.2138
 2276TIP3    H2 6793   3.969   2.546   3.110  0.2783 -1.4793 -2.1505
 2277TIP3   OH2 6794   2.114   3.948   4.613  0.8704 -0.6337  0.2003
 2277TIP3    H1 6795   2.022   3.944   4.586  0.4362  2.1218  0.9790
 2277TIP3    H2 6796   2.164   3.946   4.532  0.0116 -0.3275 -0.3478
 2278TIP3   OH2 6797   0.866   6.055   0.234  0.3969  0.0791 -0.0888
 2278TIP3    H1 6798   0.801   6.105   0.284 -0.9371 -1.1750 -0.4710
 2278TIP3    H2 6799   0.950   6.083   0.269 -0.3954  0.9974  1.1848
 2279TIP3   OH2 6800   2.015   2.200   0.676 -0.5584 -0.0894  0.2995
 2279TIP3    H1 6801   2.040   2.125   0.621 -0.0610 -0.2538  0.7418
 2279TIP3    H2 6802   2.098   2.232   0.711 -0.6014  1.5590 -1.0040
 2280TIP3   OH2 6803   1.902   4.760   3.495  0.3768  0.2082  0.1642
 2280TIP3    H1 6804   1.899   4.790   3.586  2.3712  1.3399 -0.0812
 2280TIP3    H2 6805   1.995   4.764   3.472 -0.0413 -0.5124 -1.7833
 2281TIP3   OH2 6806   2.156   1.210   2.741  0.0859  0.2116  0.4578
 2281TIP3    H1 6807   2.228   1.201   2.803  1.2951  3.1237 -0.3300
 2281TIP3    H2 6808   2.095   1.270   2.783 -0.0794  0.6153 -0.3374
 2282TIP3   OH2 6809   4.930   3.323   1.998 -0.7231  0.2319  0.0857
 2282TIP3    H1 6810   4.890   3.401   2.035 -0.0254  0.5069  0.2891
 2282TIP3    H2 6811   4.906   3.324   1.906 -1.5248  0.1575  0.2864
 2283TIP3   OH2 6812   4.844   2.798   2.163  0.5667  0.4031 -0.0732
 2283TIP3    H1 6813   4.753   2.771   2.176  0.5326  0.2917 -0.5447
 2283TIP3    H2 6814   4.837   2.891   2.140  0.4439 -0.0096 -1.8047
 2284TIP3   OH2 6815   2.727   6.694   4.692 -0.6853  0.3932 -0.1729
 2284TIP3    H1 6816   2.783   6.697   4.770 -2.2915  1.4035  0.9888
 2284TIP3    H2 6817   2.788   6.675   4.620  0.7909 -0.9381  1.3455
 2285TIP3   OH2 6818   5.507   0.874   1.584  0.1154  0.2536 -0.4380
 2285TIP3    H1 6819   5.453   0.840   1.654  1.1960  0.7236  0.6698
 2285TIP3    H2 6820   5.486   0.967   1.580 -0.1376  0.1765 -0.9194
 2286TIP3   OH2 6821   3.555   6.099   3.402  0.0407 -0.8177  0.2057
 2286TIP3    H1 6822   3.572   6.113   3.496 -0.0042  1.4632 -0.0759
 2286TIP3    H2 6823   3.475   6.046   3.400 -1.0283  0.6564  1.4826
 2287TIP3   OH2 6824   5.913   4.550   1.084 -0.4489  0.0146  0.3837
 2287TIP3    H1 6825   5.985   4.528   1.025  0.3170  0.7144  1.0220
 2287TIP3    H2 6826   5.893   4.469   1.130 -0.8368 -0.4582 -0.5877
 2288TIP3   OH2 6827   1.869   1.674   3.466  0.2273  0.0216 -0.2190
 2288TIP3    H1 6828   1.911   1.738   3.524  0.1705  1.6962 -1.9237
 2288TIP3    H2 6829   1.786   1.715   3.441  0.8491  0.0390 -2.5334
 2289TIP3   OH2 6830   7.098   4.191   3.472  0.2325  0.1498 -0.1759
 2289TIP3    H1 6831   7.104   4.119   3.535 -1.3565 -0.2782 -0.4660
 2289TIP3    H2 6832   7.064   4.265   3.523  1.4007  0.5695  0.0146
 2290TIP3   OH2 6833   7.096   1.186   1.305  0.2183  0.1469  0.3298
 2290TIP3    H1 6834   7.170   1.156   1.253 -0.2827 -2.2788  0.8952
 2290TIP3    H2 6835   7.132   1.197   1.393  0.3654  1.1620  0.1566
 2291TIP3   OH2 6836   0.536   5.769   5.389 -0.8105  0.4041  0.4786
 2291TIP3    H1 6837   0.587   5.799   5.464 -0.4459  1.3447 -0.1214
 2291TIP3    H2 6838   0.475   5.841   5.372 -1.0825  0.0766  0.0605
 2292TIP3   OH2 6839   1.105   3.233   5.322  0.0516  0.3358 -0.7826
 2292TIP3    H1 6840   1.142   3.317   5.350  0.3426 -0.4333  1.3051
 2292TIP3    H2 6841   1.098   3.181   5.402 -0.5736 -1.4807 -1.9363
 2293TIP3   OH2 6842   1.564   3.748   3.425 -0.4553  0.1174  0.1844
 2293TIP3    H1 6843   1.499   3.732   3.493 -1.3675  2.9701  0.1163
 2293TIP3    H2 6844   1.646   3.761   3.472 -0.6321 -0.0808  0.5498
 2294TIP3   OH2 6845   1.856   1.355   5.663  0.1075 -0.1858  0.8194
 2294TIP3    H1 6846   1.808   1.320   5.588  0.5640 -1.1996  0.9902
 2294TIP3    H2 6847   1.919   1.416   5.625 -0.5885  0.3585  0.5068
 2295TIP3   OH2 6848   4.981   0.064   2.961 -0.2113  0.2550 -0.2102
 2295TIP3    H1 6849   5.041   0.022   3.022  0.9484  0.0068 -1.4545
 2295TIP3    H2 6850   4.905   0.006   2.958 -0.2503  0.2383  0.9285
 2296TIP3   OH2 6851   3.096   3.500   3.319 -0.0030 -0.0738  0.1883
 2296TIP3    H1 6852   3.114   3.529   3.230 -0.0443  0.1209  0.2411
 2296TIP3    H2 6853   3.001   3.500   3.326  0.0045  0.1014  0.2926
 2297TIP3   OH2 6854   1.862   1.116   1.358  0.0404  0.1782 -0.1013
 2297TIP3    H1 6855   1.828   1.200   1.330 -0.3719  0.3271  0.8137
 2297TIP3    H2 6856   1.850   1.058   1.283  1.1737  1.1557 -1.0588
 2298TIP3   OH2 6857   2.287   5.325   5.715 -0.4789 -0.4404 -0.0447
 2298TIP3    H1 6858   2.256   5.234   5.711 -0.3097 -0.4731 -0.7270
 2298TIP3    H2 6859   2.375   5.318   5.752 -0.8564 -0.4508  0.8690
 2299TIP3   OH2 6860   3.228   5.664   0.766 -0.3946  0.3637  0.2564
 2299TIP3    H1 6861   3.208   5.707   0.849  1.2217 -0.2459  1.0159
 2299TIP3    H2 6862   3.322   5.678   0.754 -0.3792 -0.5254 -0.9105
 2300TIP3   OH2 6863   1.428   1.741   1.044  0.3662 -0.3285 -0.5203
 2300TIP3    H1 6864   1.354   1.694   1.082  0.8998  0.3354  1.4058
 2300TIP3    H2 6865   1.411   1.833   1.065  1.1639 -0.0467 -1.0826
 2301TIP3   OH2 6866   1.669   5.227   0.687 -0.6696 -0.5954 -0.4821
 2301TIP3    H1 6867   1.735   5.204   0.753 -1.8944  1.2701  1.5378
 2301TIP3    H2 6868   1.610   5.151   0.685 -2.9512  0.7089  3.8101
 2302TIP3   OH2 6869   6.327   4.094   0.019 -0.1577  0.3080 -0.1505
 2302TIP3    H1 6870   6.342   4.088   0.114  1.6132  0.6322 -0.3592
 2302TIP3    H2 6871   6.313   4.004  -0.009  3.3874 -0.4012 -0.0934
 2303TIP3   OH2 6872   0.152   6.676   0.848 -0.5602  0.2075 -0.8257
 2303TIP3    H1 6873   0.149   6.767   0.818  0.9767  0.1655 -1.2156
 2303TIP3    H2 6874   0.188   6.681   0.937  1.1934 -0.0840 -1.4639
 2304TIP3   OH2 6875   1.204   0.654   3.495  0.3112  0.1398 -1.0364
 2304TIP3    H1 6876   1.217   0.666   3.589 -1.2983  2.4757 -1.0131
 2304TIP3    H2 6877   1.108   0.652   3.485  0.4465 -1.4357 -2.5343
 2305TIP3   OH2 6878   5.167   4.054   3.652 -0.7168 -0.0589  0.1618
 2305TIP3    H1 6879   5.210   4.040   3.737  1.5714  0.5023 -0.8289
 2305TIP3    H2 6880   5.183   4.146   3.633 -0.1842 -0.4575 -1.4072
 2306TIP3   OH2 6881   2.261   0.415   0.285  0.6181  0.8835  0.4562
 2306TIP3    H1 6882   2.234   0.397   0.375  0.5309  0.4811  0.3511
 2306TIP3    H2 6883   2.202   0.363   0.231  1.1133  0.5797  0.1968
 2307TIP3   OH2 6884   4.389   3.415   3.648 -0.0016  0.1376  1.0334
 2307TIP3    H1 6885   4.358   3.325   3.643  0.6877 -0.0415 -0.6855
 2307TIP3    H2 6886   4.464   3.418   3.588 -0.1867  1.9243  0.8303
 2308TIP3   OH2 6887   4.663   1.272   2.473  0.2303  0.2629 -0.3351
 2308TIP3    H1 6888   4.607   1.196   2.486 -0.1772  0.3948 -1.2019
 2308TIP3    H2 6889   4.750   1.243   2.500 -0.0671 -0.2568  0.0908
 2309TIP3   OH2 6890   5.386   1.576   0.089  0.2862  0.8240 -0.1911
 2309TIP3    H1 6891   5.360   1.558   0.180  0.2153  0.9805 -0.1805
 2309TIP3    H2 6892   5.339   1.510   0.038 -0.7266  1.5697 -0.2471
 2310TIP3   OH2 6893   6.856   3.112   4.271 -0.3914 -0.1095 -0.3310
 2310TIP3    H1 6894   6.796   3.136   4.343 -0.0107 -4.2815  1.6953
 2310TIP3    H2 6895   6.935   3.163   4.288 -1.2907  1.0691  0.5038
 2311TIP3   OH2 6896   0.176   0.809   5.611 -0.3361  0.2585  0.1914
 2311TIP3    H1 6897   0.221   0.770   5.536 -0.8373 -1.2851  0.6626
 2311TIP3    H2 6898   0.087   0.774   5.606 -0.3603  0.0940  1.5473
 2312TIP3   OH2 6899   0.807   5.972   3.739 -0.0686 -0.1781 -0.9113
 2312TIP3    H1 6900   0.815   6.040   3.673  0.8732  0.1404 -0.4909
 2312TIP3    H2 6901   0.836   5.892   3.695 -0.1226 -0.0997 -1.0893
 2313TIP3   OH2 6902   2.748   5.063   2.988 -0.4421 -0.5374  0.0064
 2313TIP3    H1 6903   2.678   5.110   2.943 -1.0636  0.3577  1.7987
 2313TIP3    H2 6904   2.815   5.049   2.921 -1.0626  1.2595 -1.0590
 2314TIP3   OH2 6905   4.233   5.612   0.825  0.2264  0.0938  0.2119
 2314TIP3    H1 6906   4.272   5.576   0.746 -0.8430 -0.6427 -0.0093
 2314TIP3    H2 6907   4.171   5.545   0.854 -1.2750  1.4078  0.2277
 2315TIP3   OH2 6908   5.038   5.175   0.703  0.3028 -0.2978  0.1145
 2315TIP3    H1 6909   5.102   5.197   0.636  0.0415  0.9574  0.2635
 2315TIP3    H2 6910   5.059   5.084   0.727  0.6766 -0.6149 -1.3286
 2316TIP3   OH2 6911   1.462   3.520   1.694 -0.1703  0.2266 -0.0538
 2316TIP3    H1 6912   1.509   3.584   1.747  0.0890 -0.5593  0.6798
 2316TIP3    H2 6913   1.382   3.565   1.667  0.1850  0.9876  0.1293
 2317TIP3   OH2 6914   6.717   1.881   0.440  0.2097  0.6181 -0.2686
 2317TIP3    H1 6915   6.741   1.806   0.386 -0.3575 -0.3333  0.7805
 2317TIP3    H2 6916   6.652   1.847   0.501 -1.6846  2.4367 -1.1428
 2318TIP3   OH2 6917   5.525   5.689   2.420  0.2279  0.3238  0.4981
 2318TIP3    H1 6918   5.444   5.726   2.383  1.4893  2.7443 -0.0655
 2318TIP3    H2 6919   5.592   5.709   2.355  1.3203 -1.6303  0.9625
 2319TIP3   OH2 6920   1.448   2.442   1.832 -0.1867  0.9463 -0.1641
 2319TIP3    H1 6921   1.514   2.375   1.812 -1.0852 -0.3724  1.0697
 2319TIP3    H2 6922   1.446   2.498   1.754  1.1098 -0.0374 -0.9452
 2320TIP3   OH2 6923   4.786   5.770   2.956  0.2425  0.0114 -0.1681
 2320TIP3    H1 6924   4.840   5.844   2.928 -0.1690  0.3097 -0.1774
 2320TIP3    H2 6925   4.728   5.753   2.882  0.3431 -0.3254 -0.1695
 2321TIP3   OH2 6926   0.680   0.820   2.094 -0.3800 -0.1477  0.3838
 2321TIP3    H1 6927   0.741   0.777   2.154 -0.5931 -0.3834  0.4324
 2321TIP3    H2 6928   0.717   0.804   2.007 -0.4303 -0.3791  0.4059
 2322TIP3   OH2 6929   5.784   0.863   4.241 -0.0311 -0.2982 -0.5808
 2322TIP3    H1 6930   5.769   0.777   4.202 -0.2425  0.6787 -2.8103
 2322TIP3    H2 6931   5.815   0.844   4.330 -1.7974 -2.6135 -0.3704
 2323TIP3   OH2 6932   2.000   4.188   1.368  0.2420  0.5929  0.4585
 2323TIP3    H1 6933   2.078   4.244   1.369  0.3179  0.4869  0.4698
 2323TIP3    H2 6934   1.929   4.247   1.341 -0.1099  1.2431  2.6290
 2324TIP3   OH2 6935   3.347   0.920   3.209 -0.3568  0.1308 -0.1351
 2324TIP3    H1 6936   3.344   1.005   3.164 -0.3618  0.1594 -0.0809
 2324TIP3    H2 6937   3.391   0.939   3.292  0.7165 -0.1425 -0.6260
 2325TIP3   OH2 6938   6.857   4.757   3.128 -0.7542 -0.0340  0.8217
 2325TIP3    H1 6939   6.841   4.697   3.055 -1.5246  1.6459 -0.4506
 2325TIP3    H2 6940   6.771   4.768   3.169 -2.1911  4.5635 -2.5405
 2326TIP3   OH2 6941   2.085   4.943   5.485 -0.2451 -0.0621 -0.5299
 2326TIP3    H1 6942   2.062   4.873   5.424  0.2801  0.6991 -1.6361
 2326TIP3    H2 6943   2.178   4.961   5.467 -0.3696  0.9064 -0.2561
 2327TIP3   OH2 6944   1.542   2.613   4.231 -0.0642 -0.1788 -0.1691
 2327TIP3    H1 6945   1.580   2.594   4.317  0.8488  0.1392 -0.4816
 2327TIP3    H2 6946   1.529   2.708   4.232 -0.2422 -0.2013 -0.3109
 2328TIP3   OH2 6947   0.627   1.394   4.637  0.3639 -0.4758  0.6678
 2328TIP3    H1 6948   0.543   1.348   4.634  1.4452 -2.7552  2.3485
 2328TIP3    H2 6949   0.604   1.487   4.633 -2.1412 -1.0472  0.0988
 2329TIP3   OH2 6950   2.609   2.253   0.379 -0.0360 -1.1704  0.3067
 2329TIP3    H1 6951   2.579   2.190   0.444  0.3149 -0.1834  1.4647
 2329TIP3    H2 6952   2.695   2.220   0.351 -0.7148 -2.2511 -0.5989
 2330TIP3   OH2 6953   4.547   6.040   1.969  0.2691 -0.2987 -0.2326
 2330TIP3    H1 6954   4.581   6.130   1.976 -0.3225 -0.0307 -0.7889
 2330TIP3    H2 6955   4.617   5.986   2.005  1.4374  0.2249 -1.6098
 2331TIP3   OH2 6956   6.314   2.467   0.174  0.2240 -0.3497 -0.0858
 2331TIP3    H1 6957   6.244   2.429   0.120 -0.0821  1.2665 -0.9078
 2331TIP3    H2 6958   6.269   2.498   0.252 -0.2827  1.8292 -1.1635
 2332TIP3   OH2 6959   2.009   0.401   4.864  0.2329  0.2380 -0.0380
 2332TIP3    H1 6960   2.008   0.472   4.800  0.5700 -0.6088 -1.0053
 2332TIP3    H2 6961   1.935   0.420   4.922  1.1916  2.1681  0.6367
 2333TIP3   OH2 6962   0.731   4.358   2.442  0.1357 -0.1700  0.4572
 2333TIP3    H1 6963   0.672   4.430   2.467  1.5478  1.6150 -1.0801
 2333TIP3    H2 6964   0.675   4.296   2.396 -1.0074  0.2315  1.2651
 2334TIP3   OH2 6965   5.206   3.136   3.344 -0.4397 -0.0186 -0.7337
 2334TIP3    H1 6966   5.135   3.150   3.407  0.2038  0.4839 -0.0908
 2334TIP3    H2 6967   5.232   3.045   3.358 -1.1957 -0.3172 -1.2354
 2335TIP3   OH2 6968   5.014   0.003   0.124  0.0786 -0.0135  0.6676
 2335TIP3    H1 6969   5.062  -0.052   0.061 -0.5352 -0.9305  0.9670
 2335TIP3    H2 6970   4.956   0.056   0.069  0.7150  0.3944  0.3690
 2336TIP3   OH2 6971   6.907   3.314   3.804 -0.1712 -0.7127  0.0879
 2336TIP3    H1 6972   6.898   3.240   3.864 -1.3524 -0.0783  0.7400
 2336TIP3    H2 6973   6.905   3.391   3.862  2.3224 -0.1807 -0.4455
 2337TIP3   OH2 6974   4.789   1.688   5.859 -0.3287 -0.2393 -0.0602
 2337TIP3    H1 6975   4.808   1.618   5.922  0.9414  0.2952  0.1831
 2337TIP3    H2 6976   4.861   1.684   5.796 -0.8404  0.1315 -0.6740
 2338TIP3   OH2 6977   4.285   2.945   0.987 -0.7134  0.0231  0.1111
 2338TIP3    H1 6978   4.235   2.997   0.923  0.6082 -0.0279 -1.0020
 2338TIP3    H2 6979   4.368   2.992   0.995  0.0998 -1.3532 -0.1177
 2339TIP3   OH2 6980   3.032   4.261   5.754 -0.4676  0.5175  0.4710
 2339TIP3    H1 6981   3.055   4.184   5.703 -0.8705 -0.6730  2.0001
 2339TIP3    H2 6982   3.061   4.335   5.701  2.0769 -0.7168 -0.0033
 2340TIP3   OH2 6983   4.792   5.966   1.057 -0.2727 -0.2381 -0.4791
 2340TIP3    H1 6984   4.804   6.025   1.132  0.7502 -0.6914 -0.2679
 2340TIP3    H2 6985   4.716   5.913   1.080 -0.8800  0.6249 -0.4347
 2341TIP3   OH2 6986   5.275   5.798   2.252  0.2233  0.3571 -0.2936
 2341TIP3    H1 6987   5.339   5.766   2.189  1.5410 -0.5904  1.4426
 2341TIP3    H2 6988   5.196   5.747   2.234  0.3027  0.7108 -1.7107
 2342TIP3   OH2 6989   3.535   4.529   2.971  0.2944 -0.2544 -0.1392
 2342TIP3    H1 6990   3.472   4.591   3.007  0.5819 -0.7700  1.3175
 2342TIP3    H2 6991   3.553   4.562   2.883 -0.5627  0.9626  0.1085
 2343TIP3   OH2 6992   3.714   2.063   2.576 -0.2555 -0.1760  0.6421
 2343TIP3    H1 6993   3.779   1.992   2.571 -0.1353 -0.1733  1.8196
 2343TIP3    H2 6994   3.696   2.086   2.485  1.5373 -0.0558  0.2839
 2344TIP3   OH2 6995   3.366   6.081   4.513 -0.2645  0.7964  0.7044
 2344TIP3    H1 6996   3.391   6.016   4.579  0.4067  2.6704  2.4160
 2344TIP3    H2 6997   3.271   6.088   4.522  0.0064  2.9548  3.5987
 2345TIP3   OH2 6998   2.070   5.874   3.992  0.0663  0.5429  0.1902
 2345TIP3    H1 6999   1.983   5.912   4.002 -0.8325 -0.3923 -2.8750
 2345TIP3    H2 7000   2.107   5.919   3.916  1.4459 -0.4840  0.2139
 2346TIP3   OH2 7001   6.385   2.998   2.757 -0.2885  0.6106 -0.2212
 2346TIP3    H1 7002   6.446   2.940   2.713  1.0087  1.2486  0.6536
 2346TIP3    H2 7003   6.334   2.941   2.815 -2.2138 -0.2769 -2.6301
 2347TIP3   OH2 7004   1.951   2.118   5.702 -0.5658  0.4550  0.0661
 2347TIP3    H1 7005   1.890   2.192   5.699 -1.0094  0.2207  2.0849
 2347TIP3    H2 7006   2.014   2.141   5.770  0.7064 -0.0150 -0.9073
 2348TIP3   OH2 7007   5.274   0.768   4.651  0.1462  0.1453 -0.9998
 2348TIP3    H1 7008   5.332   0.693   4.665 -0.2277 -0.1502 -1.0090
 2348TIP3    H2 7009   5.333   0.843   4.646  0.4364  0.0831  0.6727
 2349TIP3   OH2 7010   2.207   1.442   3.470 -0.3431 -0.1287 -0.0090
 2349TIP3    H1 7011   2.149   1.365   3.472 -1.1534  0.4756  0.8849
 2349TIP3    H2 7012   2.282   1.415   3.418 -0.9584 -1.2868 -0.3203
 2350TIP3   OH2 7013   1.562   4.348   3.889 -0.0262 -0.5635 -0.3821
 2350TIP3    H1 7014   1.594   4.296   3.963  1.1841 -0.3803 -0.7520
 2350TIP3    H2 7015   1.639   4.358   3.832 -1.6988 -4.0190 -3.7139
 2351TIP3   OH2 7016   7.118   3.689   0.045  0.5604  0.3351 -0.3875
 2351TIP3    H1 7017   7.062   3.683  -0.032 -1.2502  0.7084  0.8198
 2351TIP3    H2 7018   7.102   3.776   0.080  2.1544  0.5610 -0.1475
 2352TIP3   OH2 7019   3.728   2.114   5.385 -0.4835  0.2665  0.0470
 2352TIP3    H1 7020   3.644   2.154   5.405  0.3058  1.8067  0.5117
 2352TIP3    H2 7021   3.707   2.033   5.339 -2.2047  0.4839  0.3972
 2353TIP3   OH2 7022   3.922   6.313   3.397 -0.3784 -0.3049 -0.1376
 2353TIP3    H1 7023   3.954   6.223   3.388 -1.6479 -0.7822 -0.0607
 2353TIP3    H2 7024   3.947   6.339   3.486  2.3205  0.4077 -1.0129
 2354TIP3   OH2 7025   5.713   4.823   1.341 -0.3500  0.2139  0.3276
 2354TIP3    H1 7026   5.765   4.760   1.392 -0.7877 -0.3547  0.0723
 2354TIP3    H2 7027   5.718   4.791   1.251 -1.9751 -0.4204  0.4436
 2355TIP3   OH2 7028   5.720   0.830   2.501 -0.2039 -0.1982 -0.0180
 2355TIP3    H1 7029   5.793   0.889   2.480 -1.6911  1.6652 -0.2587
 2355TIP3    H2 7030   5.662   0.836   2.425 -1.1976 -0.6778  0.6804
 2356TIP3   OH2 7031   2.445   6.587   3.099  0.7645  0.0649  0.4941
 2356TIP3    H1 7032   2.446   6.543   3.014  2.3164  2.6635 -0.9641
 2356TIP3    H2 7033   2.352   6.601   3.117  0.4086 -0.6799 -0.6644
 2357TIP3   OH2 7034   6.270   0.953   5.697 -0.1475  0.0410 -0.0098
 2357TIP3    H1 7035   6.257   0.902   5.616 -1.6308  0.6802 -0.2134
 2357TIP3    H2 7036   6.311   1.034   5.668  0.0015 -0.0398 -0.0233
 2358TIP3   OH2 7037   1.292   3.188   2.977 -0.2940 -0.5897  0.2097
 2358TIP3    H1 7038   1.269   3.167   3.067  0.1596 -0.5429  0.3376
 2358TIP3    H2 7039   1.387   3.185   2.975 -0.2608  0.2507 -0.0542
 2359TIP3   OH2 7040   2.573   1.762   1.229  0.3892 -0.5051 -0.6033
 2359TIP3    H1 7041   2.560   1.753   1.324  0.8328 -1.2228 -0.6032
 2359TIP3    H2 7042   2.659   1.803   1.221 -0.4076  1.2257 -0.6709
 2360TIP3   OH2 7043   5.153   4.673   0.961  0.8212  0.7826 -0.1313
 2360TIP3    H1 7044   5.136   4.598   0.905  1.7824 -1.4624  2.3849
 2360TIP3    H2 7045   5.066   4.711   0.977  0.3258  0.2699 -1.4792
 2361TIP3   OH2 7046   4.225   3.132   5.902 -0.2288 -0.3714  0.4271
 2361TIP3    H1 7047   4.215   3.191   5.827  2.8338 -0.3892 -0.1390
 2361TIP3    H2 7048   4.149   3.074   5.898  0.0658 -0.6851 -2.9846
 2362TIP3   OH2 7049   4.331   1.830   4.468  0.5448 -0.1392 -0.5005
 2362TIP3    H1 7050   4.380   1.753   4.442 -0.7283 -0.4993 -1.9916
 2362TIP3    H2 7051   4.382   1.904   4.434  0.8182 -0.4254 -0.7133
 2363TIP3   OH2 7052   4.249   1.356   5.292 -0.2285 -0.4940 -0.2126
 2363TIP3    H1 7053   4.285   1.438   5.328  3.3030 -2.1360  0.4592
 2363TIP3    H2 7054   4.187   1.327   5.359 -2.1352  1.8862 -0.8045
 2364TIP3   OH2 7055   3.532   2.392   1.895  0.0438 -0.4035  0.7397
 2364TIP3    H1 7056   3.492   2.459   1.949 -0.9693  0.4372 -0.9558
 2364TIP3    H2 7057   3.626   2.400   1.910 -0.1364  0.7355  1.2960
 2365TIP3   OH2 7058   2.063   4.731   2.005  0.2587 -0.1576 -0.7941
 2365TIP3    H1 7059   2.120   4.661   1.973  1.6381  0.4854  0.1217
 2365TIP3    H2 7060   2.022   4.695   2.083  1.7135  0.3298  0.2371
 2366TIP3   OH2 7061   1.664   2.649   4.470 -0.5112 -0.5196  0.4473
 2366TIP3    H1 7062   1.709   2.574   4.510  0.6672 -0.0688  0.0182
 2366TIP3    H2 7063   1.609   2.684   4.539 -0.1752 -1.0829  1.0066
 2367TIP3   OH2 7064   5.206   4.683   5.486 -0.2116  0.3930  0.0209
 2367TIP3    H1 7065   5.277   4.706   5.425 -1.5269 -1.4966 -2.4029
 2367TIP3    H2 7066   5.182   4.766   5.527  0.2213  1.9804 -2.6665
 2368TIP3   OH2 7067   6.713   0.917   5.167 -0.2410  0.2779 -0.1395
 2368TIP3    H1 7068   6.627   0.876   5.169 -1.3941  2.5416  1.6217
 2368TIP3    H2 7069   6.771   0.852   5.205 -0.6412 -2.1140 -3.2432
 2369TIP3   OH2 7070   7.141   5.865   1.145  0.0500  0.0331 -0.5632
 2369TIP3    H1 7071   7.102   5.952   1.134 -1.3171 -0.4574  0.1384
 2369TIP3    H2 7072   7.084   5.806   1.097 -0.0927 -0.7079  0.4612
 2370TIP3   OH2 7073   5.100   2.902   3.595 -0.0422 -0.5175  0.2239
 2370TIP3    H1 7074   5.042   2.893   3.671 -1.5910 -0.4165 -0.9061
 2370TIP3    H2 7075   5.168   2.962   3.625 -0.7007 -0.3647  1.4966
 2371TIP3   OH2 7076   0.048   4.952   0.972  0.2444  0.5433 -0.0486
 2371TIP3    H1 7077  -0.011   4.966   0.898  0.0348  0.4668  0.0998
 2371TIP3    H2 7078   0.046   4.857   0.986  2.6320  0.1413 -1.8447
 2372TIP3   OH2 7079   1.898   5.889   1.663  0.8210  0.4164 -0.1590
 2372TIP3    H1 7080   1.989   5.885   1.694  0.5043 -1.0413  0.6890
 2372TIP3    H2 7081   1.870   5.798   1.660 -0.5860  0.8380 -0.5400
 2373TIP3   OH2 7082   5.685   1.683   2.063  0.5526 -0.1239  0.0711
 2373TIP3    H1 7083   5.704   1.628   2.139  0.0015  0.3664  0.5752
 2373TIP3    H2 7084   5.624   1.748   2.096 -0.4718 -0.4959 -1.0343
 2374TIP3   OH2 7085   6.580   0.353   0.073 -0.3759  0.4640 -0.2147
 2374TIP3    H1 7086   6.650   0.301   0.111  0.4310  0.5918 -1.4713
 2374TIP3    H2 7087   6.551   0.303  -0.003 -1.5220  0.5095  0.1735
 2375TIP3   OH2 7088   5.481   1.954   5.659 -0.2140 -0.3358  1.1843
 2375TIP3    H1 7089   5.531   1.909   5.727  1.6852  0.1376  0.1553
 2375TIP3    H2 7090   5.514   1.919   5.577 -0.7321  0.8802  0.4319
 2376TIP3   OH2 7091   4.491   4.731   1.254  0.0125 -0.1543 -0.6680
 2376TIP3    H1 7092   4.525   4.773   1.333  0.7448 -1.2276 -0.3807
 2376TIP3    H2 7093   4.530   4.643   1.255 -0.6459 -0.4851 -1.7753
 2377TIP3   OH2 7094   3.298   2.460   0.049  0.4050  0.0618  0.4885
 2377TIP3    H1 7095   3.318   2.373   0.017 -0.9072  0.5761 -1.9747
 2377TIP3    H2 7096   3.219   2.486   0.001 -0.8439  1.5691  3.1188
 2378TIP3   OH2 7097   6.360   3.436   4.413  0.1133  0.2947  0.0223
 2378TIP3    H1 7098   6.388   3.351   4.379  1.1383 -0.1194  1.8070
 2378TIP3    H2 7099   6.441   3.488   4.416  0.1640  0.1753  2.1360
 2379TIP3   OH2 7100   0.560   4.851   5.142  0.1330 -0.7099  0.0913
 2379TIP3    H1 7101   0.604   4.777   5.100 -0.7430 -2.0028  1.3493
 2379TIP3    H2 7102   0.544   4.913   5.071 -1.1988 -2.7506 -1.4899
 2380TIP3   OH2 7103   5.279   4.290   3.679  0.2083  0.7636  0.3002
 2380TIP3    H1 7104   5.292   4.348   3.603  1.2551 -0.8288 -0.8158
 2380TIP3    H2 7105   5.368   4.268   3.707 -0.1716  1.1754  1.9119
 2381TIP3   OH2 7106   1.455   3.382   5.322  0.4635 -0.0936 -0.0958
 2381TIP3    H1 7107   1.477   3.303   5.372  1.5365  1.4359  1.9895
 2381TIP3    H2 7108   1.522   3.387   5.255  0.0351 -1.2368 -0.6479
 2382TIP3   OH2 7109   0.048   2.487   0.500 -0.0431  0.2609  0.2257
 2382TIP3    H1 7110   0.008   2.402   0.514  0.4426 -0.0350 -0.1530
 2382TIP3    H2 7111  -0.024   2.542   0.468 -0.7572  0.4774  2.1031
 2383TIP3   OH2 7112   1.966   2.720   0.037  0.1313 -0.2768 -0.1839
 2383TIP3    H1 7113   1.942   2.667  -0.039 -1.7137 -0.2587  0.3215
 2383TIP3    H2 7114   1.990   2.656   0.104 -0.7789 -0.4466  0.0007
 2384TIP3   OH2 7115   1.421   3.305   3.853 -0.9856 -0.0634 -0.4900
 2384TIP3    H1 7116   1.363   3.363   3.803 -1.7889 -0.7368 -0.3794
 2384TIP3    H2 7117   1.392   3.217   3.828 -0.2516 -0.4089 -0.1361
 2385TIP3   OH2 7118   0.629   2.949   4.763  0.3739  0.0286  0.3215
 2385TIP3    H1 7119   0.591   2.907   4.840 -1.6228  0.6308 -0.2531
 2385TIP3    H2 7120   0.621   2.884   4.693  1.5846 -0.2850  0.4610
 2386TIP3   OH2 7121   7.155   0.958   3.119  0.3554 -0.6410 -0.5674
 2386TIP3    H1 7122   7.207   1.035   3.142 -0.7142  0.2113 -0.8913
 2386TIP3    H2 7123   7.190   0.930   3.035  0.2594 -0.0283 -0.8177
 2387TIP3   OH2 7124   2.940   3.107   4.652  0.1204 -0.1438  0.4314
 2387TIP3    H1 7125   3.001   3.096   4.580 -2.3397  0.1520 -1.8404
 2387TIP3    H2 7126   2.864   3.053   4.628 -0.4250 -0.8410  3.3183
 2388TIP3   OH2 7127   5.575   2.141   2.990 -0.2122 -0.1331 -0.4755
 2388TIP3    H1 7128   5.634   2.181   3.054 -0.5914  1.6961 -1.1884
 2388TIP3    H2 7129   5.552   2.057   3.028  0.1386  0.5761  1.4490
 2389TIP3   OH2 7130   5.189   3.769   1.211  0.0195 -0.2292 -0.0821
 2389TIP3    H1 7131   5.157   3.718   1.136 -0.4199 -1.3932  0.8649
 2389TIP3    H2 7132   5.284   3.771   1.199  0.0656 -1.4141 -0.0847
 2390TIP3   OH2 7133   2.660   5.465   4.214 -0.3980  0.0715  0.0561
 2390TIP3    H1 7134   2.685   5.452   4.123 -0.1695 -1.2821  0.2974
 2390TIP3    H2 7135   2.571   5.500   4.210  0.2796  1.7964 -0.7164
 2391TIP3   OH2 7136   1.622   3.577   3.213  0.2933  0.1111  0.3741
 2391TIP3    H1 7137   1.713   3.586   3.242  0.3393  0.8129  0.0315
 2391TIP3    H2 7138   1.572   3.631   3.274  0.0590 -0.5223  0.7539
 2392TIP3   OH2 7139   2.404   0.371   2.528 -0.2589  0.0389 -0.1414
 2392TIP3    H1 7140   2.434   0.462   2.523  3.3275 -1.0111 -3.6424
 2392TIP3    H2 7141   2.474   0.325   2.574 -1.1008 -1.2507 -0.1028
 2393TIP3   OH2 7142   4.541   2.671   3.845 -0.9594  0.3217  0.2531
 2393TIP3    H1 7143   4.525   2.680   3.939  1.0575 -1.2887  0.8219
 2393TIP3    H2 7144   4.495   2.591   3.820  1.2461 -1.1789  0.6906
 2394TIP3   OH2 7145   4.895   3.897   2.266  0.3733 -0.2618 -0.4170
 2394TIP3    H1 7146   4.799   3.905   2.263  0.4454  0.6619 -0.6766
 2394TIP3    H2 7147   4.911   3.804   2.278 -0.5944 -0.2656  1.0422
 2395TIP3   OH2 7148   0.189   0.384   4.766  0.1691  0.0603  0.1177
 2395TIP3    H1 7149   0.120   0.447   4.788  2.4137  1.5522  3.9006
 2395TIP3    H2 7150   0.194   0.387   4.671 -0.8018  4.6787 -0.0429
 2396TIP3   OH2 7151   5.389   3.372   5.765 -0.2195 -0.4890  0.4413
 2396TIP3    H1 7152   5.416   3.463   5.783  0.0645 -0.5408  0.2848
 2396TIP3    H2 7153   5.353   3.342   5.848  1.5346 -0.8792  1.1062
 2397TIP3   OH2 7154   6.754   0.286   2.106  0.0083 -0.8868 -0.5513
 2397TIP3    H1 7155   6.774   0.195   2.130 -0.1504 -1.2022 -1.5809
 2397TIP3    H2 7156   6.839   0.327   2.092  0.2049 -0.2760  1.8986
 2398TIP3   OH2 7157   5.514   5.247   5.130 -0.3412  0.7167  0.3033
 2398TIP3    H1 7158   5.610   5.246   5.125 -0.3982  1.3535 -1.6746
 2398TIP3    H2 7159   5.486   5.194   5.055 -1.5307  2.7901 -0.8107
 2399TIP3   OH2 7160   6.638   4.660   3.951 -0.3565  0.2298 -0.0406
 2399TIP3    H1 7161   6.653   4.740   4.002  1.4893 -0.7522  1.0769
 2399TIP3    H2 7162   6.697   4.668   3.876 -1.1238  0.4701 -0.6328
 2400TIP3   OH2 7163   5.238   0.826   5.754  0.0065 -0.2211  0.0243
 2400TIP3    H1 7164   5.288   0.779   5.687  0.0777  0.3828 -0.3576
 2400TIP3    H2 7165   5.148   0.827   5.721  0.0880  0.3034 -0.2012
 2401TIP3   OH2 7166   5.051   2.970   2.964 -0.3129  0.7466  0.0259
 2401TIP3    H1 7167   5.057   3.064   2.952 -3.4330  1.2488  1.4017
 2401TIP3    H2 7168   5.024   2.936   2.879  2.2470  0.8177 -0.8855
 2402TIP3   OH2 7169   4.537   6.769   4.805  0.5188  0.3625  0.5321
 2402TIP3    H1 7170   4.560   6.838   4.742 -2.6863  0.1964 -1.0385
 2402TIP3    H2 7171   4.494   6.702   4.752  0.2974 -1.2040  2.5540
 2403TIP3   OH2 7172   6.166   1.918   0.300  0.1452  0.4275  0.3294
 2403TIP3    H1 7173   6.189   1.825   0.302 -0.8850  0.1075 -1.0751
 2403TIP3    H2 7174   6.145   1.939   0.391  0.0766 -0.7949  0.6152
 2404TIP3   OH2 7175   0.648   5.731   2.343 -0.3249  0.4031 -0.3061
 2404TIP3    H1 7176   0.713   5.697   2.282 -0.8275 -1.0558 -0.0624
 2404TIP3    H2 7177   0.679   5.702   2.429 -0.7956  0.5288 -0.0892
 2405TIP3   OH2 7178   0.846   4.848   5.670  0.0413 -0.2366 -0.6278
 2405TIP3    H1 7179   0.929   4.811   5.639  0.1300  0.1276 -0.8309
 2405TIP3    H2 7180   0.786   4.774   5.671  0.5627 -0.6732  0.2444
 2406TIP3   OH2 7181   0.341   1.344   5.496  0.2996 -0.1527 -0.0811
 2406TIP3    H1 7182   0.263   1.289   5.484 -0.4055  0.8189 -0.1199
 2406TIP3    H2 7183   0.404   1.287   5.539 -0.5316 -0.8855  0.2107
 2407TIP3   OH2 7184   1.723   0.830   2.512  0.5752  0.3024 -0.6423
 2407TIP3    H1 7185   1.712   0.835   2.417  3.0463 -0.2462 -1.0279
 2407TIP3    H2 7186   1.658   0.765   2.540  1.8716 -1.8889 -2.4306
 2408TIP3   OH2 7187   3.659   1.556   4.604 -0.2388  0.2371  0.4782
 2408TIP3    H1 7188   3.587   1.610   4.570 -0.4076 -1.2626 -1.7335
 2408TIP3    H2 7189   3.621   1.469   4.614  0.7618 -0.1184  1.3290
 2409TIP3   OH2 7190   5.310   1.684   5.755 -0.0078  0.0490  0.3659
 2409TIP3    H1 7191   5.316   1.596   5.718  0.0018  0.1591  0.1028
 2409TIP3    H2 7192   5.401   1.712   5.766  0.0907  1.3986 -2.8563
 2410TIP3   OH2 7193   3.528   5.467   5.490 -0.2496  0.4329  0.1920
 2410TIP3    H1 7194   3.508   5.426   5.406  1.1276 -0.5719  0.3126
 2410TIP3    H2 7195   3.501   5.558   5.480  0.7361  0.5620 -1.6673
 2411TIP3   OH2 7196   2.631   6.387   3.942  0.0917 -0.2844  0.2929
 2411TIP3    H1 7197   2.661   6.468   3.984  0.3002 -0.3952  0.3640
 2411TIP3    H2 7198   2.637   6.405   3.849 -2.1527  0.6222  0.2544
 2412TIP3   OH2 7199   3.834   0.668   2.537  0.0233  0.7947  0.1063
 2412TIP3    H1 7200   3.865   0.729   2.469  0.0766  0.0010 -0.5938
 2412TIP3    H2 7201   3.859   0.582   2.505 -2.7848  0.1004 -0.4749
 2413TIP3   OH2 7202   7.086   5.069   5.203 -0.0137  0.0035 -0.4194
 2413TIP3    H1 7203   7.017   5.005   5.220 -0.8158  0.5276 -1.5496
 2413TIP3    H2 7204   7.167   5.018   5.199 -0.4876 -0.7734 -0.1771
 2414TIP3   OH2 7205   4.367   3.904   5.661  0.3371  0.4432  0.2071
 2414TIP3    H1 7206   4.394   3.990   5.629  1.6462 -0.3468 -0.9374
 2414TIP3    H2 7207   4.410   3.842   5.602 -2.0393 -0.9850 -0.1454
 2415TIP3   OH2 7208   5.820   3.878   0.202  0.4967 -0.0430 -0.1015
 2415TIP3    H1 7209   5.743   3.853   0.151  1.7077 -1.2081 -1.4934
 2415TIP3    H2 7210   5.819   3.820   0.278 -0.8392  1.0808  0.7815
 2416TIP3   OH2 7211   7.047   3.055   0.960 -0.3337 -0.3262  0.1940
 2416TIP3    H1 7212   7.093   3.032   0.879  1.7325 -1.4477  1.5730
 2416TIP3    H2 7213   6.974   2.994   0.965  0.1688 -0.9865 -0.3050
 2417TIP3   OH2 7214   1.849   2.567   1.889 -0.0440  0.9212  0.4110
 2417TIP3    H1 7215   1.773   2.624   1.877 -0.3158  0.5034  0.1170
 2417TIP3    H2 7216   1.906   2.586   1.815 -1.6833 -1.6005 -1.6869
 2418TIP3   OH2 7217   6.867   5.825   3.121  0.5916  0.0907 -0.1812
 2418TIP3    H1 7218   6.872   5.865   3.034 -0.3696  0.9018  0.1145
 2418TIP3    H2 7219   6.828   5.739   3.106 -4.1507  1.9312 -0.1754
 2419TIP3   OH2 7220   1.249   4.796   4.247  0.0598  0.0036  0.5673
 2419TIP3    H1 7221   1.310   4.752   4.188 -0.4994  0.2014 -0.1644
 2419TIP3    H2 7222   1.206   4.725   4.294  1.5076 -0.1253  1.7931
 2420TIP3   OH2 7223   5.414   0.126   3.235 -0.2160 -0.5892 -0.0201
 2420TIP3    H1 7224   5.499   0.166   3.216 -0.4079 -0.4705 -0.6246
 2420TIP3    H2 7225   5.393   0.075   3.157 -1.5316  0.7938 -0.6038
 2421TIP3   OH2 7226   1.505   3.011   3.885 -0.7871 -0.4759  0.1927
 2421TIP3    H1 7227   1.558   2.969   3.952 -0.6761 -0.3731  0.1706
 2421TIP3    H2 7228   1.529   2.967   3.804  1.1773  1.2514 -0.2526
 2422TIP3   OH2 7229   5.533   5.985   1.462 -0.3886 -0.0805  0.3368
 2422TIP3    H1 7230   5.624   6.014   1.458 -0.6408  0.6291 -0.4602
 2422TIP3    H2 7231   5.534   5.895   1.431  0.0079  0.0185  0.0656
 2423TIP3   OH2 7232   5.264   6.232   4.214 -0.1805  0.4910  0.4154
 2423TIP3    H1 7233   5.271   6.208   4.307  0.0321  0.9805  0.5280
 2423TIP3    H2 7234   5.347   6.275   4.194  0.3734 -0.8906 -0.3850
 2424TIP3   OH2 7235   0.830   2.776   2.543  0.4863 -0.0544 -0.2339
 2424TIP3    H1 7236   0.865   2.750   2.628 -0.7395  0.7712  0.5556
 2424TIP3    H2 7237   0.737   2.757   2.548  0.0338  1.8233 -0.6265
 2425TIP3   OH2 7238   1.648   5.617   3.497  0.4502  0.2550  0.0266
 2425TIP3    H1 7239   1.685   5.558   3.562  0.4290  0.6427  0.3910
 2425TIP3    H2 7240   1.686   5.702   3.516  0.9709  0.2444 -0.8925
 2426TIP3   OH2 7241   5.396   6.190   2.827  0.6825  0.1404  0.1315
 2426TIP3    H1 7242   5.420   6.229   2.911  1.7136 -0.5523  0.1881
 2426TIP3    H2 7243   5.478   6.189   2.778 -0.0785  1.3623 -1.2526
 2427TIP3   OH2 7244   5.057   1.094   3.320  0.6864 -0.2992 -0.0128
 2427TIP3    H1 7245   5.007   1.026   3.275 -0.0941  0.0531  0.2897
 2427TIP3    H2 7246   5.134   1.049   3.355  0.2201 -1.0064  0.1239
 2428TIP3   OH2 7247   4.948   2.871   3.813 -0.4124 -0.2849 -0.2267
 2428TIP3    H1 7248   4.960   2.777   3.830 -0.7138 -0.6350 -1.7921
 2428TIP3    H2 7249   4.854   2.881   3.798 -0.4803  0.4060  0.5937
 2429TIP3   OH2 7250   6.403   3.672   4.160 -0.0847  0.2346 -0.0536
 2429TIP3    H1 7251   6.469   3.611   4.194 -0.9865 -0.2108  0.9885
 2429TIP3    H2 7252   6.366   3.713   4.239 -0.1377  1.4664 -0.6909
 2430TIP3   OH2 7253   6.730   2.794   4.211  0.4908  0.0863  0.0032
 2430TIP3    H1 7254   6.732   2.765   4.302  1.8259  0.9324  0.2595
 2430TIP3    H2 7255   6.728   2.889   4.216  1.6215  0.1741 -0.8417
 2431TIP3   OH2 7256   5.499   2.503   3.673  0.1019 -0.0339  0.4169
 2431TIP3    H1 7257   5.498   2.555   3.754 -1.2421 -1.0032  1.0630
 2431TIP3    H2 7258   5.587   2.467   3.668 -0.0805 -0.7457  1.9848
 2432TIP3   OH2 7259   5.387   1.987   0.678  0.2565 -0.5255 -0.1666
 2432TIP3    H1 7260   5.324   1.994   0.606  0.5933 -2.5616 -0.7311
 2432TIP3    H2 7261   5.412   2.077   0.697  1.1341  0.0649 -3.4960
 2433TIP3   OH2 7262   4.950   5.641   0.943  0.7653  0.0384 -0.0060
 2433TIP3    H1 7263   5.009   5.714   0.962  0.2606  0.5267 -0.3000
 2433TIP3    H2 7264   4.917   5.658   0.855 -1.8838  1.2360  1.1157
 2434TIP3   OH2 7265   6.110   5.044   1.659 -0.4224 -0.1832  0.4121
 2434TIP3    H1 7266   6.075   4.981   1.596  0.3064  0.8713 -1.1103
 2434TIP3    H2 7267   6.201   5.018   1.671 -0.1976  0.3966 -0.0057
 2435TIP3   OH2 7268   2.056   3.211   5.524  0.0886 -0.4306 -0.2786
 2435TIP3    H1 7269   2.071   3.124   5.561 -0.0172 -0.3178  0.0397
 2435TIP3    H2 7270   1.971   3.238   5.561  1.6419  1.2297  2.4171
 2436TIP3   OH2 7271   4.329   4.724   2.567 -0.0530  0.0950  0.4654
 2436TIP3    H1 7272   4.350   4.817   2.562  0.1607  0.1134  1.3801
 2436TIP3    H2 7273   4.301   4.711   2.658 -0.5079 -0.6487  0.2284
 2437TIP3   OH2 7274   4.777   3.008   1.760 -0.2939 -0.2194 -0.2287
 2437TIP3    H1 7275   4.778   2.924   1.714 -0.6609 -1.1718  1.4090
 2437TIP3    H2 7276   4.703   3.055   1.723 -1.2331 -1.3934  0.0987
 2438TIP3   OH2 7277   2.908   1.415   1.654  0.1384  0.5989 -0.4417
 2438TIP3    H1 7278   2.852   1.385   1.583 -1.7655 -1.5176  1.7425
 2438TIP3    H2 7279   2.984   1.357   1.652 -0.1898  0.1654 -0.4144
 2439TIP3   OH2 7280   0.661   4.906   4.372  0.4650 -0.5904 -0.4234
 2439TIP3    H1 7281   0.615   4.962   4.310  0.4466  0.4992  0.5472
 2439TIP3    H2 7282   0.675   4.961   4.449 -0.5454 -2.2205  1.0096
 2440TIP3   OH2 7283   1.767   3.290   4.139 -0.1998 -0.0990  0.1382
 2440TIP3    H1 7284   1.807   3.208   4.167  0.8736 -0.0040 -1.0194
 2440TIP3    H2 7285   1.831   3.357   4.163  0.1909  0.0985 -1.3518
 2441TIP3   OH2 7286   2.986   1.945   0.711  0.0269 -0.2501 -0.3077
 2441TIP3    H1 7287   2.967   2.037   0.728  1.7844 -0.0800  1.0445
 2441TIP3    H2 7288   2.996   1.940   0.616 -1.0528  0.7329 -0.4918
 2442TIP3   OH2 7289   0.884   5.291   1.206  0.7640 -0.6298 -0.3937
 2442TIP3    H1 7290   0.859   5.248   1.125  1.8358 -0.8582 -0.6190
 2442TIP3    H2 7291   0.954   5.351   1.181  0.9455 -0.5297  0.3208
 2443TIP3   OH2 7292   4.067   6.277   0.953 -0.2989  0.5127  0.0569
 2443TIP3    H1 7293   4.059   6.237   1.039 -0.1594  0.2077 -0.0696
 2443TIP3    H2 7294   4.005   6.350   0.954  0.1093  0.8515  0.6049
 2444TIP3   OH2 7295   5.045   1.453   4.897  0.5405  0.0212 -0.2063
 2444TIP3    H1 7296   5.072   1.541   4.922 -0.8048 -0.2373  2.4918
 2444TIP3    H2 7297   5.003   1.465   4.811  0.0402  2.0692  0.2719
 2445TIP3   OH2 7298   6.990   2.504   5.370 -0.6591 -0.5636 -0.3277
 2445TIP3    H1 7299   6.930   2.531   5.300  0.4557  0.2851 -0.9892
 2445TIP3    H2 7300   6.996   2.581   5.427 -0.0509 -0.5634 -0.3848
 2446TIP3   OH2 7301   0.870   6.403   0.068  0.6427 -0.4799  0.4694
 2446TIP3    H1 7302   0.963   6.385   0.074  0.8747  0.9852  1.9378
 2446TIP3    H2 7303   0.843   6.423   0.157 -0.3011  2.5838 -0.3538
 2447TIP3   OH2 7304   2.619   5.279   2.455  0.6530  0.2117 -0.2787
 2447TIP3    H1 7305   2.685   5.210   2.447  0.0212 -0.2400 -2.1760
 2447TIP3    H2 7306   2.558   5.263   2.383  0.1800  2.4299 -0.4511
 2448TIP3   OH2 7307   6.256   0.611   5.250 -0.3074 -0.7627  0.0275
 2448TIP3    H1 7308   6.269   0.544   5.183 -0.0267 -0.5295 -0.1529
 2448TIP3    H2 7309   6.170   0.648   5.229 -0.6015 -1.2798  0.3174
 2449TIP3   OH2 7310   2.205   6.150   3.061  0.0644  0.2668 -0.2384
 2449TIP3    H1 7311   2.186   6.097   2.984 -0.4737 -0.2423  0.2347
 2449TIP3    H2 7312   2.136   6.217   3.062 -0.4893 -0.2906  0.2990
 2450TIP3   OH2 7313   3.533   2.246   5.704 -0.1212 -0.2583  0.0634
 2450TIP3    H1 7314   3.585   2.310   5.753  1.4089 -0.1041 -1.6314
 2450TIP3    H2 7315   3.597   2.178   5.679 -1.3850 -1.6432  0.4532
 2451TIP3   OH2 7316   0.963   0.009   2.571  0.5867 -0.1771 -0.0214
 2451TIP3    H1 7317   0.872   0.022   2.597 -0.7424 -3.6862 -2.2124
 2451TIP3    H2 7318   1.000   0.098   2.567 -2.8294  1.4174  0.5135
 2452TIP3   OH2 7319   0.527   5.059   4.189 -0.3151 -0.3689 -0.5931
 2452TIP3    H1 7320   0.483   5.143   4.202  1.3155  0.4417  0.1061
 2452TIP3    H2 7321   0.554   5.060   4.098  0.2142  0.1625 -0.4406
 2453TIP3   OH2 7322   6.805   6.092   3.883  0.2241  0.1279  0.1843
 2453TIP3    H1 7323   6.741   6.027   3.853 -0.8425  0.7944  0.9425
 2453TIP3    H2 7324   6.805   6.159   3.815  1.5091 -0.7383 -0.7233
 2454TIP3   OH2 7325   6.935   4.917   2.782 -0.0749 -0.4163  0.1022
 2454TIP3    H1 7326   6.953   4.866   2.861 -0.2455 -1.1506 -0.3171
 2454TIP3    H2 7327   6.858   4.874   2.743  0.2750 -0.3428 -0.6942
 2455TIP3   OH2 7328   5.808   4.259   1.911 -0.2062 -0.0667  0.1056
 2455TIP3    H1 7329   5.863   4.207   1.854 -1.8969 -1.6206 -0.1959
 2455TIP3    H2 7330   5.848   4.346   1.910  0.6858 -0.4294 -2.2188
 2456TIP3   OH2 7331   7.168   6.701   3.115 -0.2919  0.3647  0.3588
 2456TIP3    H1 7332   7.251   6.681   3.071  0.3145  0.8758  1.2303
 2456TIP3    H2 7333   7.105   6.639   3.078  0.7970 -0.9724  0.6863
 2457TIP3   OH2 7334   3.505   5.794   5.299  0.3726 -0.5085  0.1229
 2457TIP3    H1 7335   3.418   5.771   5.332 -1.0628  3.1964 -0.5778
 2457TIP3    H2 7336   3.499   5.780   5.204 -0.5911  2.3712 -0.3449
 2458TIP3   OH2 7337   0.877   6.424   1.896  0.8183  0.0795  0.0725
 2458TIP3    H1 7338   0.933   6.348   1.881  1.1019  0.4578 -0.8690
 2458TIP3    H2 7339   0.793   6.388   1.922  1.3512 -0.5119  1.0098
 2459TIP3   OH2 7340   4.525   0.181   2.952 -0.3231  0.1177 -0.6465
 2459TIP3    H1 7341   4.497   0.254   2.896 -2.1113  1.0516  1.3228
 2459TIP3    H2 7342   4.521   0.216   3.041  2.2507 -1.3583  0.1557
 2460TIP3   OH2 7343   0.675   5.507   5.335 -0.0531  0.2995 -0.7165
 2460TIP3    H1 7344   0.744   5.470   5.281 -0.2514 -2.3682  0.7061
 2460TIP3    H2 7345   0.721   5.553   5.405  0.2261  0.4611 -1.0012
 2461TIP3   OH2 7346   6.959   2.667   2.058 -0.0273  0.0418 -0.1744
 2461TIP3    H1 7347   6.953   2.622   2.142 -2.0632  0.8392  0.1513
 2461TIP3    H2 7348   6.881   2.722   2.054  0.9578  1.4384 -1.7777
 2462TIP3   OH2 7349   1.969   5.628   2.855  0.0355  0.0549  0.0746
 2462TIP3    H1 7350   1.908   5.664   2.919  0.3829  0.3120  0.2624
 2462TIP3    H2 7351   1.961   5.686   2.779 -0.3622 -0.2381 -0.1112
 2463TIP3   OH2 7352   1.863   6.124   3.561 -0.4495 -0.6047 -0.3891
 2463TIP3    H1 7353   1.919   6.166   3.495 -0.6685  0.2533 -0.0390
 2463TIP3    H2 7354   1.878   6.030   3.549  3.2053 -0.4203  1.5170
 2464TIP3   OH2 7355   0.994   3.870   3.855 -0.2730  0.5556  0.0432
 2464TIP3    H1 7356   1.076   3.827   3.830 -0.7296  0.2914 -1.0714
 2464TIP3    H2 7357   1.018   3.961   3.870  0.4262  0.2491  0.8755
 2465TIP3   OH2 7358   6.418   0.782   1.799  0.4835 -0.0545  0.0399
 2465TIP3    H1 7359   6.501   0.789   1.845 -0.0219 -2.1502  1.4279
 2465TIP3    H2 7360   6.440   0.746   1.713  0.8778 -3.5315  1.4422
 2466TIP3   OH2 7361   0.139   1.156   0.450 -0.0441 -0.4613  0.2715
 2466TIP3    H1 7362   0.075   1.132   0.517  0.9487  0.5683  1.6480
 2466TIP3    H2 7363   0.105   1.237   0.412  0.2847 -0.0596  0.8166
 2467TIP3   OH2 7364   2.148   2.299   4.264 -0.0810 -0.0812  0.1178
 2467TIP3    H1 7365   2.087   2.370   4.283 -0.9165 -0.8209  0.3116
 2467TIP3    H2 7366   2.227   2.342   4.233 -1.0851  0.8777 -1.2587
 2468TIP3   OH2 7367   6.580   3.934   4.901 -0.1808  0.2350 -0.4248
 2468TIP3    H1 7368   6.607   3.974   4.818 -0.0152  0.8285 -0.0890
 2468TIP3    H2 7369   6.661   3.922   4.949 -0.2140 -0.6617 -0.5857
 2469TIP3   OH2 7370   0.077   5.960   0.400  0.1875  0.2055 -0.7051
 2469TIP3    H1 7371   0.042   5.871   0.391 -0.7691  0.5222 -0.1635
 2469TIP3    H2 7372   0.139   5.954   0.472 -0.0678  0.0336 -0.4984
 2470TIP3   OH2 7373   0.186   3.950   3.524  0.1341  0.3400  0.0303
 2470TIP3    H1 7374   0.229   3.990   3.600 -1.5510  2.5816 -0.0850
 2470TIP3    H2 7375   0.251   3.958   3.453  0.6140  0.9885  0.5345
 2471TIP3   OH2 7376   4.384   1.348   2.032 -0.3594 -0.4936  0.5163
 2471TIP3    H1 7377   4.460   1.405   2.029 -0.4914 -0.0290  3.3239
 2471TIP3    H2 7378   4.323   1.386   1.969  0.7510  0.6313  0.0864
 2472TIP3   OH2 7379   0.597   5.047   2.510 -0.0185 -0.5295 -0.1857
 2472TIP3    H1 7380   0.571   5.137   2.531  1.4274 -0.1073 -0.1521
 2472TIP3    H2 7381   0.655   5.056   2.435 -0.5375 -1.5328 -0.7281
 2473TIP3   OH2 7382   6.249   0.357   5.116  0.2735  0.0614 -0.3222
 2473TIP3    H1 7383   6.332   0.310   5.105  0.2146 -0.0728 -0.2045
 2473TIP3    H2 7384   6.182   0.291   5.101  0.1695  0.3945 -1.4257
 2474TIP3   OH2 7385   1.111   3.716   2.007  0.4273 -0.1748 -0.0344
 2474TIP3    H1 7386   1.051   3.766   2.063  1.2448 -0.0070  0.7173
 2474TIP3    H2 7387   1.186   3.698   2.063  1.4009  0.2451 -1.1580
 2475TIP3   OH2 7388   6.504   0.207   5.795 -0.4767 -0.7735  0.1161
 2475TIP3    H1 7389   6.553   0.276   5.839  1.1260 -0.8434 -1.4729
 2475TIP3    H2 7390   6.417   0.245   5.781  0.1568  0.6645 -0.0735
 2476TIP3   OH2 7391   1.475   5.375   2.944  0.0610 -0.3934  0.3877
 2476TIP3    H1 7392   1.463   5.410   2.856 -2.5317 -0.4978  0.6219
 2476TIP3    H2 7393   1.436   5.287   2.940  0.7887 -0.7841  1.4181
 2477TIP3   OH2 7394   1.007   5.337   3.840  0.3409 -0.1344 -0.1304
 2477TIP3    H1 7395   0.989   5.264   3.780  0.7418  0.1935 -0.6525
 2477TIP3    H2 7396   1.099   5.357   3.826  0.2579  0.4081  0.0962
 2478TIP3   OH2 7397   0.658   3.734   0.938 -0.3995  0.4600 -0.1941
 2478TIP3    H1 7398   0.643   3.745   1.031  1.7754 -1.1367  0.4373
 2478TIP3    H2 7399   0.684   3.642   0.928 -0.1550  0.6969 -2.2970
 2479TIP3   OH2 7400   0.050   6.353   4.214  0.0930  0.1741  0.1743
 2479TIP3    H1 7401  -0.003   6.275   4.205  0.5096 -0.1894  0.8111
 2479TIP3    H2 7402   0.134   6.330   4.173  0.1659  0.3423  0.2252
 2480TIP3   OH2 7403   3.351   2.187   1.023  0.2401  0.4009  0.7326
 2480TIP3    H1 7404   3.263   2.157   0.999  0.0450  1.5588 -0.1012
 2480TIP3    H2 7405   3.394   2.205   0.940  1.2222  0.0029  1.1390
 2481TIP3   OH2 7406   4.553   6.253   5.148 -0.2870 -0.3748 -0.1039
 2481TIP3    H1 7407   4.482   6.211   5.195  0.7065 -2.5459 -0.4095
 2481TIP3    H2 7408   4.544   6.346   5.168 -3.3620 -0.5040 -0.4029
 2482TIP3   OH2 7409   4.829   2.682   4.679 -0.2645 -0.3557 -0.4818
 2482TIP3    H1 7410   4.891   2.731   4.625 -0.1899 -1.5243 -1.4939
 2482TIP3    H2 7411   4.865   2.593   4.681  0.8049 -0.0061  3.0952
 2483TIP3   OH2 7412   4.058   0.134   3.665  0.1194  0.1666  0.4558
 2483TIP3    H1 7413   4.103   0.169   3.742 -0.4423  0.0772  0.8304
 2483TIP3    H2 7414   3.985   0.194   3.650  0.6686  0.6220 -0.4809
 2484TIP3   OH2 7415   2.744   5.019   1.499  0.1102  0.3309  0.2103
 2484TIP3    H1 7416   2.830   5.058   1.516 -0.1137  1.2007 -0.5665
 2484TIP3    H2 7417   2.763   4.938   1.452  0.4747  1.4379 -1.6516
 2485TIP3   OH2 7418   0.100   2.841   5.599  0.1193 -0.1984 -0.3332
 2485TIP3    H1 7419   0.031   2.879   5.653  0.5285  0.3952 -0.2193
 2485TIP3    H2 7420   0.181   2.877   5.635  0.4923 -0.8890 -0.4621
 2486TIP3   OH2 7421   0.406   6.694   4.248  0.4097 -0.3779 -0.8383
 2486TIP3    H1 7422   0.396   6.708   4.154  0.5170 -2.1670 -1.1520
 2486TIP3    H2 7423   0.351   6.618   4.267 -0.1291  0.3377  0.6978
 2487TIP3   OH2 7424   2.679   6.396   3.642 -0.2288  0.0908  0.3954
 2487TIP3    H1 7425   2.613   6.329   3.622  1.2402 -1.4670  0.5229
 2487TIP3    H2 7426   2.692   6.442   3.559 -0.2984 -0.7001 -0.0648
 2488TIP3   OH2 7427   5.810   0.798   5.777  0.1720 -0.1329 -0.2084
 2488TIP3    H1 7428   5.787   0.849   5.855 -1.3810 -2.3136  0.8558
 2488TIP3    H2 7429   5.891   0.753   5.801  0.2333 -0.0506 -0.2566
 2489TIP3   OH2 7430   1.711   4.360   5.594  0.9201  0.0042 -0.3151
 2489TIP3    H1 7431   1.711   4.440   5.647  0.5991  0.9402 -1.6772
 2489TIP3    H2 7432   1.771   4.379   5.522 -0.1440 -0.4846 -1.3635
 2490TIP3   OH2 7433   2.103   3.736   3.390 -0.6001  0.3089 -0.0579
 2490TIP3    H1 7434   2.156   3.778   3.323 -2.3663  0.5849 -1.3505
 2490TIP3    H2 7435   2.095   3.802   3.459  1.2849 -0.0049  0.5193
 2491TIP3   OH2 7436   7.078   0.204   4.764 -0.0533 -0.0617  0.2978
 2491TIP3    H1 7437   7.007   0.254   4.804 -3.0449 -2.3241 -1.7477
 2491TIP3    H2 7438   7.131   0.271   4.720 -2.1368  1.6009  0.1303
 2492TIP3   OH2 7439   0.234   5.949   0.637  0.7849 -0.1374 -0.0949
 2492TIP3    H1 7440   0.211   6.026   0.689  1.6209  0.3053 -0.3548
 2492TIP3    H2 7441   0.195   5.875   0.684 -0.3063  0.4687 -0.0211
 2493TIP3   OH2 7442   4.979   6.096   3.206  0.1471  0.3645  0.2010
 2493TIP3    H1 7443   4.911   6.148   3.164  1.3596  2.2499  0.4346
 2493TIP3    H2 7444   5.046   6.084   3.138 -0.3394 -1.4168 -0.0115
 2494TIP3   OH2 7445   6.065   1.047   5.044 -0.5061  0.2822 -0.2665
 2494TIP3    H1 7446   6.060   0.971   5.101 -0.3976  0.6689  0.2752
 2494TIP3    H2 7447   6.154   1.044   5.007 -1.2925 -1.1956 -2.2007
 2495TIP3   OH2 7448   1.060   1.485   4.265  0.3018  0.4458  0.6434
 2495TIP3    H1 7449   1.069   1.436   4.183  2.2421  1.3471  0.2648
 2495TIP3    H2 7450   1.123   1.445   4.324 -0.5858  0.2636  1.4953
 2496TIP3   OH2 7451   0.957   0.051   5.461 -0.7859 -0.0717  0.3291
 2496TIP3    H1 7452   0.902   0.025   5.387 -0.7420 -0.2394  0.3551
 2496TIP3    H2 7453   1.041   0.009   5.444 -0.6228  0.2888  0.2222
 2497TIP3   OH2 7454   0.568   3.929   3.600  0.1831 -0.1737  0.1154
 2497TIP3    H1 7455   0.654   3.896   3.626  0.4788 -1.9352 -2.6267
 2497TIP3    H2 7456   0.580   4.023   3.588  1.3384 -0.1820  1.1044
 2498TIP3   OH2 7457   3.507   6.263   4.350 -0.1975 -0.1074  0.1113
 2498TIP3    H1 7458   3.481   6.214   4.429  0.3574  0.9869  1.0091
 2498TIP3    H2 7459   3.565   6.203   4.303 -0.7213 -0.8680  0.4206
 2499TIP3   OH2 7460   0.483   2.527   0.957 -0.4243  0.3920 -0.6159
 2499TIP3    H1 7461   0.448   2.599   1.008  0.8347  0.1089  0.7196
 2499TIP3    H2 7462   0.512   2.568   0.875 -0.2376  1.3106 -0.1075
 2500TIP3   OH2 7463   6.437   3.773   4.655  0.0577 -0.4889  0.3388
 2500TIP3    H1 7464   6.512   3.762   4.713 -1.0442 -0.3004  1.8289
 2500TIP3    H2 7465   6.443   3.864   4.625 -0.2124 -0.1247  1.3694
 2501TIP3   OH2 7466   6.402   5.059   2.333 -0.3221  0.1448 -0.0446
 2501TIP3    H1 7467   6.332   5.056   2.267 -0.9138  1.3811  0.4887
 2501TIP3    H2 7468   6.441   5.145   2.321  0.3094 -0.0643  0.4889
 2502TIP3   OH2 7469   1.895   4.006   0.701 -0.4523  0.1213  0.0953
 2502TIP3    H1 7470   1.958   4.068   0.664 -1.1674  1.8932  1.6757
 2502TIP3    H2 7471   1.833   3.989   0.631 -0.9838  2.2625 -0.0016
 2503TIP3   OH2 7472   3.516   5.868   0.484 -0.2093 -0.9252 -0.3096
 2503TIP3    H1 7473   3.579   5.927   0.526  0.2826 -1.1508 -0.7198
 2503TIP3    H2 7474   3.571   5.803   0.439 -0.7141 -2.2033  0.8204
 2504TIP3   OH2 7475   1.394   5.198   2.457 -0.1136  0.3396  0.1759
 2504TIP3    H1 7476   1.385   5.156   2.371 -1.6360 -0.4120  0.6688
 2504TIP3    H2 7477   1.476   5.247   2.451  0.7690 -1.1821 -1.0714
 2505TIP3   OH2 7478   3.541   4.752   1.015  0.1132  0.3940  0.4866
 2505TIP3    H1 7479   3.534   4.792   0.928 -1.4690  1.2456  0.9603
 2505TIP3    H2 7480   3.616   4.795   1.055  1.2967 -0.5078 -0.6752
 2506TIP3   OH2 7481   4.005   5.857   3.444  0.0760  0.1435  0.2454
 2506TIP3    H1 7482   4.060   5.925   3.484  0.2460  0.5092 -0.5814
 2506TIP3    H2 7483   4.051   5.834   3.363  0.0413 -1.0011  0.5357
 2507TIP3   OH2 7484   2.996   1.565   1.037 -0.0769  0.2476 -0.5907
 2507TIP3    H1 7485   2.983   1.492   1.098  4.3692  0.8958  1.4947
 2507TIP3    H2 7486   2.981   1.644   1.089  1.1381  0.8163 -1.0689
 2508TIP3   OH2 7487   1.297   1.959   4.280  0.1576  0.0306 -0.2023
 2508TIP3    H1 7488   1.232   1.890   4.269 -0.7759  1.0206 -1.0627
 2508TIP3    H2 7489   1.253   2.039   4.252  0.9660  1.1192  1.4691
 2509TIP3   OH2 7490   4.871   0.479   4.778 -0.3529 -0.4014 -0.1353
 2509TIP3    H1 7491   4.966   0.467   4.771  0.4435  2.1695  3.6436
 2509TIP3    H2 7492   4.848   0.447   4.865 -2.6353  0.7637 -0.2257
 2510TIP3   OH2 7493   1.760   0.950   3.813 -0.1032 -0.1078  0.5625
 2510TIP3    H1 7494   1.821   0.914   3.748 -1.8832 -0.1439 -1.1555
 2510TIP3    H2 7495   1.814   0.961   3.891  2.3406  0.6759 -1.0953
 2511TIP3   OH2 7496   0.153   2.085   2.590  0.0796  0.7317  0.2443
 2511TIP3    H1 7497   0.157   2.005   2.538 -0.3890  0.5374  0.4954
 2511TIP3    H2 7498   0.059   2.103   2.599  0.1876  1.6918 -0.3814
 2512TIP3   OH2 7499   0.034   3.476   0.551 -0.2854 -0.0786  0.7163
 2512TIP3    H1 7500   0.011   3.494   0.460  0.3427 -2.0726  0.1081
 2512TIP3    H2 7501   0.116   3.524   0.565 -0.1186 -0.1566  0.0518
 2513TIP3   OH2 7502   5.716   5.702   5.713  0.0164  0.2192 -0.3403
 2513TIP3    H1 7503   5.745   5.684   5.623  0.3482  0.1843 -0.2274
 2513TIP3    H2 7504   5.620   5.704   5.707  0.0623  1.7586 -0.9855
 2514TIP3   OH2 7505   7.039   2.544   3.388  0.0125  0.5951 -0.7249
 2514TIP3    H1 7506   6.994   2.484   3.447 -0.2390  1.1071 -0.3926
 2514TIP3    H2 7507   7.046   2.626   3.437  1.7243  0.4018 -0.5905
 2515TIP3   OH2 7508   6.861   0.334   4.897 -0.4559  0.0920 -0.1639
 2515TIP3    H1 7509   6.891   0.349   4.986  1.1378 -1.1656 -0.4418
 2515TIP3    H2 7510   6.784   0.390   4.887 -0.4791  0.4792  1.8845
 2516TIP3   OH2 7511   5.832   5.091   3.163  0.2228 -0.1242  0.0191
 2516TIP3    H1 7512   5.857   5.000   3.150 -0.3693 -0.0741 -1.7600
 2516TIP3    H2 7513   5.879   5.139   3.095 -0.6881  0.6737 -0.0662
 2517TIP3   OH2 7514   5.991   3.154   1.368 -0.5347  0.0207 -0.9560
 2517TIP3    H1 7515   5.905   3.113   1.371 -1.8309  2.5463  0.2424
 2517TIP3    H2 7516   6.020   3.154   1.460 -0.5709  1.6195 -0.9160
 2518TIP3   OH2 7517   6.597   1.453   4.949  0.2258  0.2115  0.3739
 2518TIP3    H1 7518   6.646   1.500   5.017 -0.2542  0.1656  0.7599
 2518TIP3    H2 7519   6.542   1.392   4.998  0.7144 -0.6363 -0.1152
 2519TIP3   OH2 7520   2.956   5.365   0.509  0.4119 -0.1127  0.7434
 2519TIP3    H1 7521   2.981   5.458   0.514  1.3243 -0.4075  1.9741
 2519TIP3    H2 7522   2.969   5.332   0.597  1.1304 -1.6861  0.0814
 2520TIP3   OH2 7523   0.192   0.411   0.671 -0.4122  0.0005  0.0658
 2520TIP3    H1 7524   0.251   0.359   0.617 -1.4491  0.9009 -2.0392
 2520TIP3    H2 7525   0.237   0.418   0.755  0.4176 -3.0521  0.0178
 2521TIP3   OH2 7526   5.278   3.904   0.687 -0.0937  0.0514 -0.4838
 2521TIP3    H1 7527   5.198   3.916   0.737 -0.2468  1.2296 -0.9718
 2521TIP3    H2 7528   5.269   3.964   0.613  1.3949  0.5000 -0.3394
 2522TIP3   OH2 7529   1.219   0.112   2.341 -0.2060 -0.4024 -0.2454
 2522TIP3    H1 7530   1.160   0.175   2.381  0.7402  0.5959 -0.3801
 2522TIP3    H2 7531   1.307   0.149   2.354  0.5727 -2.5574  1.3155
 2523TIP3   OH2 7532   6.314   6.285   3.258 -0.2944 -0.2993 -0.0517
 2523TIP3    H1 7533   6.376   6.261   3.189  0.1887  0.4122  0.1188
 2523TIP3    H2 7534   6.352   6.249   3.338 -0.7025 -0.8700 -0.1146
 2524TIP3   OH2 7535   1.428   2.239   4.667 -0.4520  0.3073 -0.6366
 2524TIP3    H1 7536   1.473   2.294   4.732  0.4563 -0.2367 -0.7951
 2524TIP3    H2 7537   1.478   2.252   4.586 -2.5102  2.2752 -1.7377
 2525TIP3   OH2 7538   3.119   2.577   2.301  0.0281  0.0742  0.0122
 2525TIP3    H1 7539   3.192   2.549   2.356 -0.0670  1.2122  0.7639
 2525TIP3    H2 7540   3.107   2.506   2.238  2.8681  0.5565 -1.2400
 2526TIP3   OH2 7541   1.408   2.017   3.073  0.6644 -0.0849  0.6477
 2526TIP3    H1 7542   1.355   2.080   3.123  0.0778 -0.7491  0.8818
 2526TIP3    H2 7543   1.463   1.975   3.139  3.4606  2.4068  0.1081
 2527TIP3   OH2 7544   4.776   1.212   1.809 -0.0999 -0.0019  1.0395
 2527TIP3    H1 7545   4.717   1.150   1.852  0.2285 -0.1770  1.2414
 2527TIP3    H2 7546   4.838   1.238   1.877 -0.0435  0.3114  0.8720
 2528TIP3   OH2 7547   5.448   5.628   5.640  0.4924 -0.4776 -0.0100
 2528TIP3    H1 7548   5.363   5.668   5.660  0.0157 -1.6833  0.4352
 2528TIP3    H2 7549   5.445   5.610   5.547  0.3191 -0.3952 -0.0214
 2529TIP3   OH2 7550   0.994   6.044   2.442 -0.7636 -0.5332  0.0589
 2529TIP3    H1 7551   1.079   6.066   2.404 -0.8889 -1.2624 -0.6693
 2529TIP3    H2 7552   0.966   5.966   2.394 -1.6867 -0.4992  0.5270
 2530TIP3   OH2 7553   5.720   4.193   2.658 -0.1405 -1.0957  0.2411
 2530TIP3    H1 7554   5.719   4.157   2.570  0.2196  1.9448 -1.1203
 2530TIP3    H2 7555   5.762   4.125   2.711  3.0465 -1.6119 -2.6138
 2531TIP3   OH2 7556   5.224   0.403   5.903  0.3884 -0.3966 -0.0692
 2531TIP3    H1 7557   5.192   0.442   5.822 -2.5855 -1.6305  0.3794
 2531TIP3    H2 7558   5.283   0.333   5.875  0.6739  0.2402 -1.0999
 2532TIP3   OH2 7559   7.145   1.615   1.723 -0.2435 -0.0182 -0.7660
 2532TIP3    H1 7560   7.063   1.608   1.771  0.1407 -1.3947 -0.2718
 2532TIP3    H2 7561   7.149   1.707   1.696 -0.0778  1.1217  2.6123
 2533TIP3   OH2 7562   2.534   1.452   0.135  0.0654  0.4614  0.5810
 2533TIP3    H1 7563   2.595   1.526   0.132  1.1693 -0.3635  1.5885
 2533TIP3    H2 7564   2.454   1.488   0.173  0.4085  1.2544  0.5746
 2534TIP3   OH2 7565   4.099   2.961   1.218 -0.1566 -0.0923  0.4668
 2534TIP3    H1 7566   4.158   2.961   1.293 -0.4539 -0.7405  0.7040
 2534TIP3    H2 7567   4.156   2.948   1.142 -0.1371 -2.4732  0.8284
 2535TIP3   OH2 7568   5.470   0.448   3.075 -0.1379  0.1609 -0.4747
 2535TIP3    H1 7569   5.434   0.363   3.050 -2.7063  1.0853 -0.1939
 2535TIP3    H2 7570   5.564   0.440   3.058 -0.4551 -2.3450 -1.4818
 2536TIP3   OH2 7571   0.769   5.085   3.981  0.1620 -0.0410 -0.1996
 2536TIP3    H1 7572   0.688   5.117   3.941  0.9409  2.5010  0.0548
 2536TIP3    H2 7573   0.839   5.121   3.926  1.1546 -1.2407  0.2276
 2537TIP3   OH2 7574   5.838   0.424   1.192 -0.1018 -0.2894 -0.8967
 2537TIP3    H1 7575   5.923   0.408   1.152 -0.2707 -0.1070 -1.3397
 2537TIP3    H2 7576   5.797   0.488   1.135  0.2083  1.0694  0.3574
 2538TIP3   OH2 7577   7.185   6.444   0.513  0.1940 -0.0379 -0.4361
 2538TIP3    H1 7578   7.216   6.388   0.442  0.9419  0.0993 -0.2239
 2538TIP3    H2 7579   7.089   6.437   0.509  0.1393  1.0206 -2.3210
 2539TIP3   OH2 7580   4.594   5.687   2.804  0.3839 -0.0641 -0.0993
 2539TIP3    H1 7581   4.576   5.686   2.710  0.1928  1.2870 -0.0956
 2539TIP3    H2 7582   4.548   5.764   2.837  0.7441 -0.3150  1.0496
 2540TIP3   OH2 7583   6.541   4.837   2.899  0.0641 -0.0575 -0.0650
 2540TIP3    H1 7584   6.601   4.895   2.853  0.5573 -0.0630  0.5580
 2540TIP3    H2 7585   6.459   4.843   2.849  0.7754 -0.6004 -1.3310
 2541TIP3   OH2 7586   0.998   4.712   3.214 -0.4088  0.3512 -0.2760
 2541TIP3    H1 7587   1.022   4.802   3.194 -0.3691  0.4109  0.0357
 2541TIP3    H2 7588   0.946   4.683   3.139 -0.8235  0.7871 -0.1555
 2542TIP3   OH2 7589   4.352   4.312   2.300  0.0315 -0.0713  0.2125
 2542TIP3    H1 7590   4.440   4.290   2.269  0.7053  0.3505  1.7276
 2542TIP3    H2 7591   4.295   4.294   2.225  1.5363  0.7565 -1.2070
 2543TIP3   OH2 7592   3.451   4.214   4.377  0.0909  0.2905  0.3408
 2543TIP3    H1 7593   3.387   4.193   4.309  0.9884  1.4125 -0.9107
 2543TIP3    H2 7594   3.399   4.230   4.456 -0.9154 -1.9402  0.1956
 2544TIP3   OH2 7595   4.419   5.790   2.361  0.1166  0.2792  0.0158
 2544TIP3    H1 7596   4.362   5.761   2.431  0.6895 -0.7669  0.0674
 2544TIP3    H2 7597   4.370   5.859   2.317 -0.6444  0.2773  0.8406
 2545TIP3   OH2 7598   0.890   6.156   3.077 -0.6425  0.1031  0.1599
 2545TIP3    H1 7599   0.823   6.182   3.013  0.2336 -0.0958 -0.8722
 2545TIP3    H2 7600   0.870   6.065   3.096 -0.4411 -0.0777 -0.4605
 2546TIP3   OH2 7601   0.929   0.853   4.715  0.3748 -0.2998 -0.2176
 2546TIP3    H1 7602   0.934   0.819   4.804 -1.6528 -2.0853 -0.7043
 2546TIP3    H2 7603   1.007   0.817   4.672 -0.5004 -2.5183 -0.0775
 2547TIP3   OH2 7604   4.320   1.516   1.129 -0.0664 -0.0893 -0.3381
 2547TIP3    H1 7605   4.396   1.566   1.099  0.0402 -1.0166 -1.6886
 2547TIP3    H2 7606   4.246   1.576   1.117  0.2041  0.1535 -0.8555
 2548TIP3   OH2 7607   2.467   0.920   4.109  0.2118 -0.3013 -0.5542
 2548TIP3    H1 7608   2.529   0.848   4.096 -0.0728 -0.7923  0.6544
 2548TIP3    H2 7609   2.463   0.931   4.204  0.3074  1.3737 -0.7271
 2549TIP3   OH2 7610   5.997   0.351   4.489 -0.2311 -0.2869  0.3148
 2549TIP3    H1 7611   5.903   0.350   4.472 -0.5148 -0.6158  1.7666
 2549TIP3    H2 7612   6.035   0.399   4.415 -1.6241  0.5543  0.1155
 2550TIP3   OH2 7613   1.192   0.948   0.060 -0.2187 -0.0977 -0.2440
 2550TIP3    H1 7614   1.158   1.019   0.114 -1.2606 -0.8101  0.0681
 2550TIP3    H2 7615   1.246   0.992  -0.006 -0.8247  0.9755 -0.0518
 2551TIP3   OH2 7616   1.654   3.438   0.161  0.1879 -0.5913 -0.1625
 2551TIP3    H1 7617   1.615   3.519   0.127 -0.1175 -0.7862 -0.2838
 2551TIP3    H2 7618   1.582   3.375   0.159  0.5259 -0.9727 -0.4481
 2552TIP3   OH2 7619   5.446   6.515   5.761 -0.0540  0.0686 -0.1010
 2552TIP3    H1 7620   5.468   6.560   5.843  0.8709  1.3055 -0.9842
 2552TIP3    H2 7621   5.402   6.581   5.709  0.1765 -0.4284 -0.9409
 2553TIP3   OH2 7622   5.394   1.908   2.335 -0.1348  0.5364  0.2177
 2553TIP3    H1 7623   5.361   1.833   2.384 -0.7656  2.0016  2.1620
 2553TIP3    H2 7624   5.483   1.921   2.368  0.3855  0.0062 -0.9211
 2554TIP3   OH2 7625   4.785   4.869   3.690 -0.3786 -0.3165 -0.5045
 2554TIP3    H1 7626   4.834   4.948   3.666 -0.9407  0.3317  0.4199
 2554TIP3    H2 7627   4.843   4.822   3.750 -0.8597  0.4544  0.5968
 2555TIP3   OH2 7628   6.662   4.614   1.443  0.0542 -0.2593 -0.5685
 2555TIP3    H1 7629   6.667   4.562   1.523  0.3833  3.0256  1.7921
 2555TIP3    H2 7630   6.568   4.630   1.431  0.1146  1.3134  0.7487
 2556TIP3   OH2 7631   1.479   1.821   3.976  0.0780 -0.2460 -0.3691
 2556TIP3    H1 7632   1.410   1.776   4.024  0.8630 -0.1822  0.8606
 2556TIP3    H2 7633   1.444   1.909   3.962 -0.1835 -0.2845  0.0321
 2557TIP3   OH2 7634   3.132   6.635   3.748  0.7300  0.0193  0.0371
 2557TIP3    H1 7635   3.201   6.698   3.727 -0.0088  0.8408  0.0134
 2557TIP3    H2 7636   3.174   6.571   3.806  1.8690 -0.2796 -1.0644
 2558TIP3   OH2 7637   0.961   3.103   3.401 -0.1170  0.4439  0.7112
 2558TIP3    H1 7638   1.013   3.086   3.323 -2.1194 -1.8103 -0.2569
 2558TIP3    H2 7639   0.899   3.172   3.375  0.4683  1.0789  0.9631
 2559TIP3   OH2 7640   3.016   0.054   1.687  0.3804 -0.2222 -0.5705
 2559TIP3    H1 7641   3.107   0.033   1.703  0.2352  0.0868  0.7149
 2559TIP3    H2 7642   2.967  -0.020   1.722  0.1666 -1.1169 -2.6170
 2560TIP3   OH2 7643   2.151   3.414   3.840  0.2685  0.5141 -0.5258
 2560TIP3    H1 7644   2.190   3.330   3.863  0.2280  0.6992  0.2639
 2560TIP3    H2 7645   2.218   3.479   3.862 -0.2103  0.7807  0.1885
 2561TIP3   OH2 7646   6.711   5.137   0.943  0.2534 -0.0380 -0.2736
 2561TIP3    H1 7647   6.696   5.044   0.959 -1.5462  0.0769 -0.9698
 2561TIP3    H2 7648   6.644   5.181   0.996  0.9546  0.8432 -0.1099
 2562TIP3   OH2 7649   1.592   1.070   0.179  0.2056  0.2911  0.1631
 2562TIP3    H1 7650   1.584   1.101   0.089  0.9374 -0.2186 -0.0853
 2562TIP3    H2 7651   1.686   1.066   0.195  0.2620 -2.8908 -0.2517
 2563TIP3   OH2 7652   3.106   5.757   4.377  0.2798 -0.6061  0.0252
 2563TIP3    H1 7653   3.093   5.714   4.462 -0.7686  1.4058  0.9644
 2563TIP3    H2 7654   3.128   5.847   4.399 -1.1503  0.2666 -1.8140
 2564TIP3   OH2 7655   6.414   0.742   4.880 -0.4648 -0.5040  0.2395
 2564TIP3    H1 7656   6.422   0.651   4.852  0.6745 -0.4057  0.2196
 2564TIP3    H2 7657   6.449   0.794   4.808 -1.2878 -0.0291  0.1674
 2565TIP3   OH2 7658   4.068   2.610   4.706 -0.2458 -0.5507  0.0148
 2565TIP3    H1 7659   4.077   2.704   4.721  0.2352 -0.5875 -0.0365
 2565TIP3    H2 7660   3.985   2.602   4.658 -0.0038 -0.0936 -0.4972
 2566TIP3   OH2 7661   3.046   2.411   1.369 -0.1796  0.1418 -0.4889
 2566TIP3    H1 7662   3.128   2.433   1.413  0.3839 -1.7679 -0.5090
 2566TIP3    H2 7663   3.047   2.464   1.289  1.1051  0.0213 -0.5701
 2567TIP3   OH2 7664   4.232   2.205   5.652  0.5556 -0.0681  0.0665
 2567TIP3    H1 7665   4.172   2.130   5.648  0.8910 -0.5166  2.1424
 2567TIP3    H2 7666   4.176   2.281   5.639 -0.1411 -0.5859 -0.0048
 2568TIP3   OH2 7667   2.484   5.045   2.248 -0.0527  0.0375  0.6184
 2568TIP3    H1 7668   2.444   5.083   2.170 -0.3853 -1.1832  0.1596
 2568TIP3    H2 7669   2.574   5.027   2.222  0.1972  0.8081  0.9427
 2569TIP3   OH2 7670   6.442   6.759   0.782  0.0233 -0.6289  0.5421
 2569TIP3    H1 7671   6.488   6.708   0.715  0.8691  0.9423 -0.1439
 2569TIP3    H2 7672   6.511   6.806   0.828 -0.5920 -1.3541  2.2668
 2570TIP3   OH2 7673   7.114   1.880   1.651 -0.0926 -0.2263  0.1755
 2570TIP3    H1 7674   7.044   1.939   1.623 -0.3392 -1.1215 -1.1903
 2570TIP3    H2 7675   7.188   1.900   1.594  0.4747  0.0704  0.9947
 2571TIP3   OH2 7676   1.354   2.689   5.412 -0.3744  0.7487  0.0195
 2571TIP3    H1 7677   1.387   2.744   5.340  1.6953  0.6925  0.8591
 2571TIP3    H2 7678   1.322   2.610   5.368 -1.5184  1.7474 -1.0290
 2572TIP3   OH2 7679   2.411   4.082   3.448  0.7143  0.5042  0.0851
 2572TIP3    H1 7680   2.368   4.038   3.375 -0.1336  0.2027  0.7539
 2572TIP3    H2 7681   2.340   4.113   3.503  1.3102  2.2064 -0.0586
 2573TIP3   OH2 7682   3.784   6.226   4.843 -0.6067 -0.4671 -0.1165
 2573TIP3    H1 7683   3.719   6.237   4.773 -1.5671 -0.3095  0.7780
 2573TIP3    H2 7684   3.776   6.305   4.896  0.8690 -0.0932 -0.4114
 2574TIP3   OH2 7685   6.798   0.458   5.680 -0.3352  0.7718 -0.0482
 2574TIP3    H1 7686   6.776   0.410   5.759 -1.6992  0.4213 -0.6150
 2574TIP3    H2 7687   6.811   0.548   5.710 -1.8109  0.8470  0.4765
 2575TIP3   OH2 7688   0.812   0.964   0.873  0.7313 -0.1790 -0.4098
 2575TIP3    H1 7689   0.752   1.016   0.819  1.9039 -0.3672 -1.9905
 2575TIP3    H2 7690   0.764   0.946   0.953 -0.4112  1.7340 -0.6019
 2576TIP3   OH2 7691   0.089   0.862   0.341  0.0732  0.1268 -0.2017
 2576TIP3    H1 7692  -0.001   0.831   0.344 -0.0999  0.4952 -1.1305
 2576TIP3    H2 7693   0.088   0.946   0.386  0.1403 -0.2626  0.5496
 2577TIP3   OH2 7694   6.243   0.828   2.127 -0.3105  0.0910 -0.9238
 2577TIP3    H1 7695   6.302   0.902   2.117 -1.1089  1.1898  1.6938
 2577TIP3    H2 7696   6.302   0.753   2.142  0.4580  0.5884 -1.3785
 2578TIP3   OH2 7697   4.277   5.607   2.175 -0.0846 -0.3812 -0.3174
 2578TIP3    H1 7698   4.367   5.637   2.162  0.0053  0.2184  1.4583
 2578TIP3    H2 7699   4.285   5.514   2.196  0.0362 -0.5399 -1.0510
 2579TIP3   OH2 7700   0.918   0.600   3.652  0.5336 -0.2380  0.3296
 2579TIP3    H1 7701   0.900   0.622   3.561  0.4797 -2.9339 -0.3975
 2579TIP3    H2 7702   0.842   0.633   3.700  0.6817  1.4401 -0.5446
 2580TIP3   OH2 7703   7.157   1.949   0.910 -0.5719  0.3752  0.5748
 2580TIP3    H1 7704   7.146   1.854   0.906  0.8916  0.1906  0.4591
 2580TIP3    H2 7705   7.159   1.977   0.818 -0.6301  0.4676  0.6015
 2581TIP3   OH2 7706   4.938   3.776   5.128  0.7285 -0.2308 -0.2192
 2581TIP3    H1 7707   4.973   3.840   5.066  2.7291 -0.8517  0.1973
 2581TIP3    H2 7708   4.914   3.701   5.074  0.2817  0.1016 -0.4879
 2582TIP3   OH2 7709   6.770   6.288   3.678 -0.4430 -0.2129 -0.0782
 2582TIP3    H1 7710   6.861   6.307   3.700 -0.7592  1.5622 -0.1833
 2582TIP3    H2 7711   6.725   6.372   3.688 -1.4693 -0.2932 -3.1459
 2583TIP3   OH2 7712   2.130   4.986   1.681 -0.3263 -0.6735 -0.0731
 2583TIP3    H1 7713   2.094   4.962   1.595 -1.2661 -0.5757  0.2879
 2583TIP3    H2 7714   2.062   4.962   1.743  0.5343 -1.1812  0.7006
 2584TIP3   OH2 7715   0.273   0.648   2.606  0.1768  0.4963  0.2744
 2584TIP3    H1 7716   0.180   0.640   2.624  0.0544 -1.4300 -0.9241
 2584TIP3    H2 7717   0.306   0.558   2.605  2.1741  1.1390  1.1519
 2585TIP3   OH2 7718   6.975   5.477   3.676 -0.0274  0.2222 -0.6066
 2585TIP3    H1 7719   7.011   5.414   3.739  1.2766  1.3054 -0.2218
 2585TIP3    H2 7720   6.896   5.511   3.718  0.4543  0.4260  0.1551
 2586TIP3   OH2 7721   6.471   0.622   0.889  0.6242 -0.1521  0.1679
 2586TIP3    H1 7722   6.413   0.552   0.917  1.0116 -0.3530  0.4851
 2586TIP3    H2 7723   6.521   0.644   0.968 -0.6991  1.6959  0.5783
 2587TIP3   OH2 7724   5.493   1.237   3.556  0.4204 -0.9148  0.1378
 2587TIP3    H1 7725   5.415   1.203   3.512  0.7918 -1.2847 -0.2406
 2587TIP3    H2 7726   5.555   1.164   3.557  1.2633 -0.2554 -0.7839
 2588TIP3   OH2 7727   0.610   3.244   2.519 -0.8495  0.8911 -0.9390
 2588TIP3    H1 7728   0.652   3.319   2.477 -1.8269  1.5673 -0.7478
 2588TIP3    H2 7729   0.657   3.168   2.485  1.7222  1.6547  0.6089
 2589TIP3   OH2 7730   5.917   2.831   1.233 -0.5818  0.3202  0.4040
 2589TIP3    H1 7731   5.893   2.786   1.314 -0.4794 -0.0691  0.2201
 2589TIP3    H2 7732   6.008   2.858   1.246 -1.1326  1.9372  1.1644
 2590TIP3   OH2 7733   1.939   0.722   2.863  0.1108 -0.2657 -0.1735
 2590TIP3    H1 7734   1.950   0.740   2.770 -1.1768 -2.3621 -0.8028
 2590TIP3    H2 7735   1.922   0.807   2.902 -3.1886  0.3166 -2.4951
 2591TIP3   OH2 7736   1.877   2.029   1.775  0.4348 -0.6493  0.0201
 2591TIP3    H1 7737   1.910   2.117   1.793  0.5453 -1.1882  2.9247
 2591TIP3    H2 7738   1.914   1.975   1.844 -2.5929 -2.2537  0.5697
 2592TIP3   OH2 7739   2.682   3.492   5.025  0.0411  0.9524 -0.4256
 2592TIP3    H1 7740   2.698   3.582   5.055  0.5531  0.4793  0.7651
 2592TIP3    H2 7741   2.620   3.456   5.088  2.1200 -0.4828  0.9090
 2593TIP3   OH2 7742   4.004   3.285   4.268  0.4334 -0.4621  0.4992
 2593TIP3    H1 7743   3.909   3.297   4.273  0.3920 -0.1513 -0.7414
 2593TIP3    H2 7744   4.033   3.284   4.360 -0.9331 -1.9895  0.9604
 2594TIP3   OH2 7745   1.228   0.368   1.839 -0.7566 -0.5862 -0.5635
 2594TIP3    H1 7746   1.253   0.276   1.839 -3.0630 -1.2754 -0.2597
 2594TIP3    H2 7747   1.215   0.389   1.747  1.0932 -0.1110 -0.7628
 2595TIP3   OH2 7748   4.278   3.375   5.553 -0.2101 -0.1019 -0.2395
 2595TIP3    H1 7749   4.216   3.306   5.530 -0.4000 -0.3805  1.0455
 2595TIP3    H2 7750   4.245   3.453   5.509 -0.2582 -0.7017 -1.3144
 2596TIP3   OH2 7751   6.176   6.364   4.293 -0.0747  0.1765 -0.0075
 2596TIP3    H1 7752   6.128   6.435   4.336 -0.2833  0.8309 -1.2456
 2596TIP3    H2 7753   6.108   6.302   4.267  0.2039 -0.9966  1.9399
 2597TIP3   OH2 7754   5.334   4.425   4.061  0.1750 -0.3468 -0.1563
 2597TIP3    H1 7755   5.398   4.388   4.000  0.4083 -0.5248  0.1892
 2597TIP3    H2 7756   5.357   4.386   4.146 -1.3872 -1.6516 -0.2920
 2598TIP3   OH2 7757   4.676   4.866   3.030  0.2422  0.0441  0.0478
 2598TIP3    H1 7758   4.730   4.838   3.104  1.0629  0.0865 -0.5225
 2598TIP3    H2 7759   4.734   4.921   2.977  0.4883 -1.9729 -1.9467
 2599TIP3   OH2 7760   0.700   1.606   4.225  0.9373  0.1976 -0.3835
 2599TIP3    H1 7761   0.637   1.624   4.295  2.4181  1.2973  0.7372
 2599TIP3    H2 7762   0.783   1.593   4.270  1.9336  0.8812 -1.9261
 2600TIP3   OH2 7763   2.539   6.644   1.229  0.3265 -0.5566  0.2813
 2600TIP3    H1 7764   2.465   6.695   1.197  0.7338  0.6270  1.1616
 2600TIP3    H2 7765   2.531   6.646   1.324  1.8237  0.1406  0.4210
 2601TIP3   OH2 7766   5.390   0.677   3.270 -0.3284  0.0007  0.4348
 2601TIP3    H1 7767   5.400   0.603   3.210 -2.1499 -0.7042  0.9083
 2601TIP3    H2 7768   5.437   0.749   3.228 -1.0996 -0.5961 -1.5969
 2602TIP3   OH2 7769   1.052   0.249   0.699  0.0456  0.4633  0.0219
 2602TIP3    H1 7770   1.144   0.266   0.681  0.1777 -0.5456 -0.3327
 2602TIP3    H2 7771   1.053   0.170   0.753 -0.7339 -2.0156 -3.2827
 2603TIP3   OH2 7772   3.494   3.600   5.748 -0.1684  0.2657  0.2600
 2603TIP3    H1 7773   3.428   3.587   5.816 -1.1098 -0.1583 -0.7136
 2603TIP3    H2 7774   3.574   3.622   5.796 -1.0038  0.7639  1.4620
 2604TIP3   OH2 7775   2.174   3.808   2.997 -0.1432 -0.1091  0.5590
 2604TIP3    H1 7776   2.079   3.805   2.986 -0.2552  0.0842  1.3770
 2604TIP3    H2 7777   2.198   3.898   2.975 -0.1795 -0.0942  0.5793
 2605TIP3   OH2 7778   5.559   1.855   3.037 -0.3460 -0.2509  0.1197
 2605TIP3    H1 7779   5.505   1.776   3.038 -0.2764 -0.3345  3.0277
 2605TIP3    H2 7780   5.592   1.864   3.126  0.2707  2.6451 -0.2942
 2606TIP3   OH2 7781   3.210   2.393   4.030  0.1673 -0.1433  0.3104
 2606TIP3    H1 7782   3.174   2.339   4.101 -0.3129 -0.6775 -0.3223
 2606TIP3    H2 7783   3.135   2.439   3.995  0.3910  0.0539  0.0885
 2607TIP3   OH2 7784   6.454   3.636   5.530 -0.5863  0.0090 -0.3251
 2607TIP3    H1 7785   6.365   3.663   5.508 -0.3726 -0.1259 -1.3677
 2607TIP3    H2 7786   6.469   3.675   5.617 -1.1626  1.2023 -0.7287
 2608TIP3   OH2 7787   6.341   3.524   4.669 -0.0522 -0.0140 -0.2995
 2608TIP3    H1 7788   6.322   3.538   4.576  0.2690 -0.7154 -0.4758
 2608TIP3    H2 7789   6.371   3.609   4.700 -0.2633  0.2543 -0.8107
 2609TIP3   OH2 7790   6.498   5.080   5.416  0.1364 -0.2756 -0.0937
 2609TIP3    H1 7791   6.559   5.154   5.426  1.2208 -0.9536 -1.4144
 2609TIP3    H2 7792   6.481   5.051   5.506 -0.1870  1.4596  0.4375
 2610TIP3   OH2 7793   0.913   6.442   3.166 -0.4677 -0.4198  0.0897
 2610TIP3    H1 7794   0.871   6.356   3.160 -0.5021 -0.3342 -0.9860
 2610TIP3    H2 7795   1.005   6.422   3.184 -0.5767 -0.6568  0.4087
 2611TIP3   OH2 7796   2.251   5.415   3.310 -0.4237  0.0232  0.3937
 2611TIP3    H1 7797   2.263   5.339   3.255 -1.0318  0.2899 -0.1178
 2611TIP3    H2 7798   2.156   5.420   3.324 -0.4201  0.8479  0.1766
 2612TIP3   OH2 7799   5.543   2.226   1.707 -0.2899 -0.0864 -0.0327
 2612TIP3    H1 7800   5.480   2.238   1.778  0.3217 -0.2820  0.5541
 2612TIP3    H2 7801   5.588   2.144   1.729  1.2489  0.8432  0.3899
 2613TIP3   OH2 7802   5.550   4.219   4.016 -0.2429 -0.0019 -0.3410
 2613TIP3    H1 7803   5.640   4.250   4.011 -0.0639 -0.3741  0.4649
 2613TIP3    H2 7804   5.533   4.206   4.109 -0.0464 -3.0447 -0.6078
 2614TIP3   OH2 7805   6.743   0.239   0.267  0.1107 -0.2908 -0.0273
 2614TIP3    H1 7806   6.730   0.288   0.348  1.4752  0.2337 -0.0994
 2614TIP3    H2 7807   6.734   0.147   0.292  3.2033 -0.3449  1.3743
 2615TIP3   OH2 7808   2.776   0.585   1.786  0.6873 -0.7009 -0.0597
 2615TIP3    H1 7809   2.840   0.653   1.807  0.5795 -0.3712 -0.7619
 2615TIP3    H2 7810   2.815   0.538   1.712  1.1663 -1.9749  0.9560
 2616TIP3   OH2 7811   6.252   0.671   2.999  0.0888 -0.0013 -0.6748
 2616TIP3    H1 7812   6.335   0.624   3.000  0.5043  0.7177 -0.6731
 2616TIP3    H2 7813   6.275   0.760   2.972 -0.3968  0.7348  1.1541
 2617TIP3   OH2 7814   7.227   2.401   5.241  0.2629  0.3790  0.2132
 2617TIP3    H1 7815   7.198   2.310   5.237  0.1194  0.4637 -0.7625
 2617TIP3    H2 7816   7.157   2.446   5.288  0.1222  0.0757  0.2979
 2618TIP3   OH2 7817   6.086   5.711   5.671 -0.3996 -0.2854 -0.2800
 2618TIP3    H1 7818   6.134   5.657   5.608 -0.5710  0.8453 -1.4051
 2618TIP3    H2 7819   5.994   5.692   5.653 -0.4584  0.2798 -0.6109
 2619TIP3   OH2 7820   5.840   3.882   2.213 -0.2890  0.3235  0.1247
 2619TIP3    H1 7821   5.846   3.960   2.267  1.2351  0.5174 -0.2675
 2619TIP3    H2 7822   5.796   3.817   2.268  2.5680  0.0016  2.2791
 2620TIP3   OH2 7823   3.008   3.727   3.627 -0.1807 -0.2667  0.3308
 2620TIP3    H1 7824   2.992   3.718   3.533  0.6075 -0.5398  0.2181
 2620TIP3    H2 7825   2.938   3.784   3.658 -0.9066 -0.8058 -0.2832
 2621TIP3   OH2 7826   2.290   0.151   1.185 -0.0225  0.1686 -0.0888
 2621TIP3    H1 7827   2.271   0.071   1.135 -1.0704  1.0741 -1.2109
 2621TIP3    H2 7828   2.360   0.126   1.245  2.1057 -0.7756 -2.7182
 2622TIP3   OH2 7829   0.252   2.328   0.318 -0.5384  0.2066 -0.3707
 2622TIP3    H1 7830   0.272   2.276   0.395 -0.6938 -0.7242 -0.9388
 2622TIP3    H2 7831   0.244   2.418   0.351  1.0685  0.1006  0.4100
 2623TIP3   OH2 7832   3.547   5.608   1.703  0.4782  0.5643  0.2737
 2623TIP3    H1 7833   3.494   5.622   1.625  0.4769 -0.3916  0.0821
 2623TIP3    H2 7834   3.498   5.649   1.774  0.0649  0.7140 -0.0970
 2624TIP3   OH2 7835   6.405   2.517   1.888 -0.1476 -0.3174 -0.0116
 2624TIP3    H1 7836   6.469   2.560   1.831 -0.5403  0.6733  0.2751
 2624TIP3    H2 7837   6.395   2.577   1.962  0.9112 -1.9202  1.5131
 2625TIP3   OH2 7838   4.879   2.128   4.770  0.0232  0.1457  0.0416
 2625TIP3    H1 7839   4.916   2.110   4.683  0.8251  0.0964  0.3886
 2625TIP3    H2 7840   4.875   2.043   4.813  0.8712  0.3319  0.5266
 2626TIP3   OH2 7841   2.973   3.988   3.936  0.4776  0.0565 -0.8303
 2626TIP3    H1 7842   2.934   3.901   3.941  2.0114 -0.6017  1.5422
 2626TIP3    H2 7843   2.906   4.047   3.970 -0.0308 -0.3980 -1.0332
 2627TIP3   OH2 7844   0.543   4.161   1.208  0.1245 -0.4412 -0.5600
 2627TIP3    H1 7845   0.478   4.208   1.156  1.6535  1.1259 -1.1735
 2627TIP3    H2 7846   0.586   4.102   1.146 -0.5311 -1.2877 -0.2159
 2628TIP3   OH2 7847   5.604   1.401   1.061  0.0695  0.5188  0.1927
 2628TIP3    H1 7848   5.635   1.324   1.108 -0.3393  0.4350  0.3227
 2628TIP3    H2 7849   5.682   1.455   1.051  0.5416 -0.2980 -0.6682
 2629TIP3   OH2 7850   4.676   6.738   0.362  0.4904 -0.3533 -0.5926
 2629TIP3    H1 7851   4.618   6.813   0.358 -0.1049 -0.7504  0.2137
 2629TIP3    H2 7852   4.619   6.666   0.390  0.5388 -1.6361 -3.4226
 2630TIP3   OH2 7853   5.027   4.517   5.031  0.4413 -0.2310 -0.2252
 2630TIP3    H1 7854   4.945   4.567   5.040 -0.9160 -2.3692 -0.0819
 2630TIP3    H2 7855   5.064   4.547   4.949 -0.3793  0.9329 -0.1980
 2631TIP3   OH2 7856   6.742   2.016   2.010 -0.1379 -0.5096  0.0330
 2631TIP3    H1 7857   6.673   2.082   2.003 -0.6361 -0.8960  1.1845
 2631TIP3    H2 7858   6.706   1.951   2.070  1.9707  0.2354  2.2483
 2632TIP3   OH2 7859   2.224   1.515   1.003 -0.0345  0.1025  0.4789
 2632TIP3    H1 7860   2.317   1.490   1.003 -0.1409 -0.2971  0.9321
 2632TIP3    H2 7861   2.225   1.609   1.020  0.3069  0.1886  0.0134
 2633TIP3   OH2 7862   4.813   5.997   2.268 -0.2159  0.0886  0.2545
 2633TIP3    H1 7863   4.809   5.916   2.219 -0.8348  0.8845 -1.0649
 2633TIP3    H2 7864   4.735   5.996   2.323 -0.9871  0.4143 -0.8094
 2634TIP3   OH2 7865   4.809   4.386   1.299  0.3441 -0.0723  0.3920
 2634TIP3    H1 7866   4.834   4.365   1.210 -2.0792  0.1939 -0.4264
 2634TIP3    H2 7867   4.876   4.448   1.329  1.8810 -1.1096 -0.7445
 2635TIP3   OH2 7868   0.816   0.527   3.178  0.5313  0.4607  0.0384
 2635TIP3    H1 7869   0.790   0.435   3.168 -1.9037  1.0974 -0.1156
 2635TIP3    H2 7870   0.824   0.559   3.088  0.8195  0.5570  0.0963
 2636TIP3   OH2 7871   4.204   5.736   1.949  0.4644 -0.2232 -0.5405
 2636TIP3    H1 7872   4.166   5.664   1.899 -0.9234 -0.8081  1.2569
 2636TIP3    H2 7873   4.210   5.703   2.039 -0.7916  2.0776  0.4744
 2637TIP3   OH2 7874   4.285   2.479   4.805  0.1328 -0.4256 -0.1866
 2637TIP3    H1 7875   4.268   2.386   4.790  0.1131 -0.5540  0.5765
 2637TIP3    H2 7876   4.204   2.522   4.779 -0.1996 -0.7213  0.3316
 2638TIP3   OH2 7877   6.214   0.319   3.584  0.0887 -0.3579  0.5286
 2638TIP3    H1 7878   6.217   0.224   3.578 -0.7012 -0.3326 -0.3559
 2638TIP3    H2 7879   6.281   0.349   3.522 -0.1982 -0.3260  0.2316
 2639TIP3   OH2 7880   1.547   6.214   2.732 -0.5166  0.0647  0.1619
 2639TIP3    H1 7881   1.507   6.208   2.646 -1.2044 -0.4963  0.5102
 2639TIP3    H2 7882   1.507   6.291   2.772 -0.5518  0.0491  0.1569
 2640TIP3   OH2 7883   1.369   6.476   3.143  0.5134  0.3531  0.5754
 2640TIP3    H1 7884   1.288   6.438   3.112 -0.0803  0.8940  1.4046
 2640TIP3    H2 7885   1.342   6.541   3.208  1.6201  0.3241  1.0959
 2641TIP3   OH2 7886   2.609   3.582   2.694  0.2718  0.3641 -0.3233
 2641TIP3    H1 7887   2.609   3.488   2.715  0.7303  0.2114 -0.9423
 2641TIP3    H2 7888   2.519   3.600   2.668 -0.0232  0.2983  0.6136
 2642TIP3   OH2 7889   1.670   1.722   2.029 -0.4023 -0.1852  0.2253
 2642TIP3    H1 7890   1.652   1.734   2.122 -0.1210  0.3009  0.2205
 2642TIP3    H2 7891   1.587   1.690   1.993 -0.4910 -0.4450  0.6544
 2643TIP3   OH2 7892   4.011   4.840   3.315 -0.5723  0.3314  0.0009
 2643TIP3    H1 7893   3.968   4.852   3.400 -0.3607  1.7786 -0.0737
 2643TIP3    H2 7894   4.068   4.764   3.327 -1.3049 -0.0994  0.8363
 2644TIP3   OH2 7895   3.335   4.925   4.118 -0.4678  0.1810 -0.8671
 2644TIP3    H1 7896   3.420   4.881   4.117 -0.2372  0.5885  0.0616
 2644TIP3    H2 7897   3.290   4.891   4.041  0.8697  0.5998 -1.8815
 2645TIP3   OH2 7898   5.643   0.562   5.008  0.0604  0.0105 -0.4000
 2645TIP3    H1 7899   5.719   0.610   4.975 -0.1908 -0.9945 -2.6242
 2645TIP3    H2 7900   5.668   0.470   5.003  0.0973 -0.2665  2.6751
 2646TIP3   OH2 7901   0.536   1.298   2.599  0.1512  0.4333  0.2009
 2646TIP3    H1 7902   0.535   1.346   2.517  1.6003 -0.2675 -0.2517
 2646TIP3    H2 7903   0.556   1.207   2.575 -2.0984 -0.3836  1.0741
 2647TIP3   OH2 7904   2.471   1.437   0.971  0.2720 -0.0606  0.0293
 2647TIP3    H1 7905   2.520   1.518   0.970  0.4222 -0.1505 -1.3027
 2647TIP3    H2 7906   2.529   1.374   1.014  0.5971  0.2628  0.0685
 2648TIP3   OH2 7907   4.096   4.149   0.638  0.2687 -0.2449 -0.4633
 2648TIP3    H1 7908   4.050   4.216   0.588  1.7815  0.7561 -0.5806
 2648TIP3    H2 7909   4.113   4.080   0.573  1.3187  0.5955 -1.1206
 2649TIP3   OH2 7910   3.073   1.599   4.781 -0.2913 -0.3268  0.1591
 2649TIP3    H1 7911   3.002   1.556   4.830  2.4451 -3.9870  1.3872
 2649TIP3    H2 7912   3.084   1.544   4.703  1.7944 -0.4985  0.5343
 2650TIP3   OH2 7913   2.926   0.726   5.372  0.1259  0.2090  0.2217
 2650TIP3    H1 7914   2.899   0.689   5.456 -0.2940  1.0043  0.4477
 2650TIP3    H2 7915   3.021   0.733   5.378 -0.0234  2.0529  1.4244
 2651TIP3   OH2 7916   6.966   1.835   5.500 -0.1372 -0.2520  0.0572
 2651TIP3    H1 7917   6.885   1.818   5.547 -0.2180 -1.0397 -0.3478
 2651TIP3    H2 7918   6.970   1.931   5.493 -0.3830 -0.1382  1.1839
 2652TIP3   OH2 7919   4.102   5.205   4.297  0.3111  0.3553 -0.4545
 2652TIP3    H1 7920   4.087   5.167   4.383  0.4474 -0.9695 -0.9984
 2652TIP3    H2 7921   4.043   5.158   4.238  0.3696  1.0921 -1.1238
 2653TIP3   OH2 7922   7.075   6.010   3.947  0.0576 -0.4116 -0.0075
 2653TIP3    H1 7923   6.982   6.035   3.947  0.4050  0.9187  0.1542
 2653TIP3    H2 7924   7.099   6.008   3.855 -0.3108 -1.5172 -0.0976
 2654TIP3   OH2 7925   4.611   5.253   1.608  0.2593  0.1303  0.3603
 2654TIP3    H1 7926   4.632   5.160   1.606  0.3817  0.1638  0.1490
 2654TIP3    H2 7927   4.658   5.287   1.685  0.7569  0.1495  0.0536
 2655TIP3   OH2 7928   1.285   0.856   4.938 -0.2114  0.2791  0.2355
 2655TIP3    H1 7929   1.274   0.844   5.032 -1.0825  0.9381  0.2325
 2655TIP3    H2 7930   1.240   0.782   4.899 -1.7940  1.1462  0.3112
 2656TIP3   OH2 7931   3.933   2.350   2.890  0.2623 -0.4864 -0.3619
 2656TIP3    H1 7932   3.985   2.358   2.970 -0.9476 -0.4446  0.4585
 2656TIP3    H2 7933   3.933   2.256   2.871  0.2931 -0.5404 -0.1090
 2657TIP3   OH2 7934   0.015   1.052   1.805 -0.3346  0.9917 -0.0426
 2657TIP3    H1 7935   0.057   1.053   1.891 -1.7855  0.2170  0.7125
 2657TIP3    H2 7936   0.037   0.967   1.768 -1.7531  0.2710  0.6695
 2658TIP3   OH2 7937   5.227   5.292   5.864 -0.3909 -0.3313 -0.6041
 2658TIP3    H1 7938   5.134   5.304   5.844  0.0877  1.1373 -2.2261
 2658TIP3    H2 7939   5.271   5.300   5.779  1.3920  1.0812  0.3719
 2659TIP3   OH2 7940   3.531   6.658   2.355 -0.1656 -0.8290  0.2439
 2659TIP3    H1 7941   3.554   6.673   2.446  0.6496  1.6312 -0.2771
 2659TIP3    H2 7942   3.611   6.675   2.306 -0.5469 -2.2261 -0.9580
 2660TIP3   OH2 7943   0.292   3.123   4.701  0.6305 -0.4317  0.3977
 2660TIP3    H1 7944   0.308   3.176   4.779  0.2136  0.6198 -0.2186
 2660TIP3    H2 7945   0.379   3.102   4.668  0.7979 -0.2824  0.7361
 2661TIP3   OH2 7946   2.388   2.052   0.098  0.2986 -0.1705 -0.4520
 2661TIP3    H1 7947   2.438   1.979   0.134 -0.5212  0.2090  1.6013
 2661TIP3    H2 7948   2.453   2.121   0.085  0.4560  0.1566  1.7261
 2662TIP3   OH2 7949   1.870   2.904   0.604 -0.3808 -0.2575 -0.1963
 2662TIP3    H1 7950   1.822   2.910   0.687  0.2688 -0.6822  0.2110
 2662TIP3    H2 7951   1.803   2.882   0.539 -1.1432  1.3810 -0.0369
 2663TIP3   OH2 7952   3.142   2.624   3.467  0.1227  0.4332 -0.5177
 2663TIP3    H1 7953   3.233   2.651   3.464  0.6178 -0.4608  2.8061
 2663TIP3    H2 7954   3.097   2.695   3.513 -0.2273 -0.4682  0.5664
 2664TIP3   OH2 7955   3.667   2.496   5.475  0.0143  0.2714  0.3443
 2664TIP3    H1 7956   3.678   2.498   5.380 -1.5387  0.8649  0.1465
 2664TIP3    H2 7957   3.680   2.404   5.499  0.1791  0.0752 -0.4720
 2665TIP3   OH2 7958   4.191   6.405   0.180  0.1826 -0.2438  0.2613
 2665TIP3    H1 7959   4.177   6.380   0.088  0.0330  0.4427  0.0956
 2665TIP3    H2 7960   4.212   6.498   0.177 -0.6111 -0.0368  0.9976
 2666TIP3   OH2 7961   2.239   5.233   1.728 -0.6110 -0.3954 -0.1003
 2666TIP3    H1 7962   2.301   5.223   1.800 -2.7081 -0.2254  1.8690
 2666TIP3    H2 7963   2.193   5.149   1.725 -1.3397  0.0029 -0.4186
 2667TIP3   OH2 7964   6.562   4.081   0.864  0.3045 -0.0485  0.3120
 2667TIP3    H1 7965   6.544   4.172   0.842 -0.1560  0.2943  1.9937
 2667TIP3    H2 7966   6.477   4.037   0.856  0.8279 -0.8113 -2.3234
 2668TIP3   OH2 7967   3.810   2.982   0.219 -0.1675  0.2610 -0.5993
 2668TIP3    H1 7968   3.876   3.020   0.160  1.4471 -0.8371  0.4310
 2668TIP3    H2 7969   3.807   2.889   0.195 -1.0721  0.2232 -0.3701
 2669TIP3   OH2 7970   5.512   0.195   2.357  0.1783 -0.0937  0.0728
 2669TIP3    H1 7971   5.602   0.177   2.329  0.4147  0.4227  0.4752
 2669TIP3    H2 7972   5.489   0.120   2.412  0.5885  0.0588  0.4650
 2670TIP3   OH2 7973   6.211   5.370   3.005 -0.4428  0.7405  0.1001
 2670TIP3    H1 7974   6.151   5.428   2.959 -0.1861  1.0844  0.1937
 2670TIP3    H2 7975   6.194   5.283   2.968 -0.4423  0.9635 -0.4348
 2671TIP3   OH2 7976   3.679   5.410   1.974  0.0914  0.9683  0.7890
 2671TIP3    H1 7977   3.751   5.394   2.034  0.0025 -2.5046  0.1230
 2671TIP3    H2 7978   3.721   5.423   1.889  0.0395  2.6091  0.9774
 2672TIP3   OH2 7979   5.266   4.978   1.388  0.2620 -0.0170  0.3233
 2672TIP3    H1 7980   5.355   4.973   1.424  0.3516 -1.4412 -0.0504
 2672TIP3    H2 7981   5.253   5.072   1.372  1.8530  0.2002  0.0296
 2673TIP3   OH2 7982   0.854   2.427   3.316 -0.3958 -0.3870 -0.6290
 2673TIP3    H1 7983   0.874   2.422   3.222  0.0709 -0.5841 -0.5222
 2673TIP3    H2 7984   0.895   2.508   3.344 -0.2961 -0.4688 -0.5383
 2674TIP3   OH2 7985   3.208   0.381   3.842  0.1586  0.0463  0.0782
 2674TIP3    H1 7986   3.235   0.385   3.934 -0.7770 -1.5326  0.4636
 2674TIP3    H2 7987   3.167   0.295   3.833  1.5199 -0.4281 -2.1921
 2675TIP3   OH2 7988   1.102   4.354   3.792 -0.1642  0.5990 -0.0774
 2675TIP3    H1 7989   1.046   4.432   3.796 -0.4654  0.4201 -0.6681
 2675TIP3    H2 7990   1.169   4.369   3.858 -0.0322  1.5170 -0.4024
 2676TIP3   OH2 7991   1.474   2.860   4.302  0.2297 -0.4217  0.6083
 2676TIP3    H1 7992   1.409   2.831   4.366 -0.7376  1.1179  0.3687
 2676TIP3    H2 7993   1.498   2.948   4.331  0.0093  0.1789 -0.9481
 2677TIP3   OH2 7994   6.354   1.670   3.310 -0.1659 -0.0425  0.3828
 2677TIP3    H1 7995   6.313   1.712   3.234 -0.9321  0.5036  1.0713
 2677TIP3    H2 7996   6.442   1.647   3.281 -0.6586 -0.4229 -0.8634
 2678TIP3   OH2 7997   1.991   3.914   1.290 -0.1099 -0.0176 -0.6094
 2678TIP3    H1 7998   2.003   3.887   1.199 -1.9898  1.2976 -1.3328
 2678TIP3    H2 7999   2.020   4.005   1.292  0.1922 -0.1226  0.1981
 2679TIP3   OH2 8000   2.476   3.624   4.473 -0.0635 -0.7701 -0.2008
 2679TIP3    H1 8001   2.436   3.707   4.497 -0.8503 -1.1517 -0.1476
 2679TIP3    H2 8002   2.514   3.591   4.554  0.8702 -0.1528 -0.3621
 2680TIP3   OH2 8003   4.834   6.704   4.662 -0.1426 -0.1371 -0.0733
 2680TIP3    H1 8004   4.890   6.687   4.738  0.8376 -0.1650 -0.7841
 2680TIP3    H2 8005   4.877   6.776   4.617 -2.3362  1.9878  0.9880
 2681TIP3   OH2 8006   0.421   1.107   3.487 -0.8481 -0.0055 -0.0449
 2681TIP3    H1 8007   0.333   1.141   3.503 -0.3494  1.9097 -1.0216
 2681TIP3    H2 8008   0.422   1.085   3.394 -0.1189  0.6671 -0.2146
 2682TIP3   OH2 8009   1.994   3.666   2.518 -0.2448 -0.3551 -0.1648
 2682TIP3    H1 8010   1.921   3.694   2.463 -0.6967 -0.0116  0.6004
 2682TIP3    H2 8011   2.021   3.745   2.564  0.5313 -0.5117 -0.3365
 2683TIP3   OH2 8012   2.237   1.209   5.467  0.1859 -0.4162 -0.2095
 2683TIP3    H1 8013   2.242   1.116   5.489  2.1370 -0.7793 -1.8796
 2683TIP3    H2 8014   2.176   1.213   5.393  0.1314 -0.3577 -0.1620
 2684TIP3   OH2 8015   0.786   1.332   3.787 -0.3385  0.3610  0.4783
 2684TIP3    H1 8016   0.768   1.351   3.879 -3.0291  1.3395 -0.1697
 2684TIP3    H2 8017   0.753   1.244   3.772 -0.3454  0.3868  0.3316
 2685TIP3   OH2 8018   6.872   3.827   0.384  0.2114  0.2877 -0.6558
 2685TIP3    H1 8019   6.912   3.748   0.418  0.2208  0.7024  0.3302
 2685TIP3    H2 8020   6.944   3.879   0.349  0.2980  0.2028 -0.6004
 2686TIP3   OH2 8021   6.119   4.381   4.637  0.1277  0.1543  0.2950
 2686TIP3    H1 8022   6.214   4.382   4.628  0.1246 -2.3852 -1.1788
 2686TIP3    H2 8023   6.103   4.364   4.730  1.1454 -0.2846  0.3951
 2687TIP3   OH2 8024   6.359   2.645   3.214  0.4213  0.0644  0.0817
 2687TIP3    H1 8025   6.294   2.593   3.167 -1.0540 -0.5817  2.6003
 2687TIP3    H2 8026   6.410   2.580   3.264  1.4767  0.7465 -0.0823
 2688TIP3   OH2 8027   0.412   3.425   0.693 -0.1890  0.3208  0.1769
 2688TIP3    H1 8028   0.383   3.356   0.634  0.8008 -1.9656  2.2153
 2688TIP3    H2 8029   0.508   3.418   0.694  0.1447  3.1750 -1.1519
 2689TIP3   OH2 8030   4.572   1.259   3.749  1.0297 -0.1411 -0.4301
 2689TIP3    H1 8031   4.635   1.269   3.677 -0.7411 -0.0498 -2.0226
 2689TIP3    H2 8032   4.563   1.348   3.784  1.3228 -0.0446 -0.5856
 2690TIP3   OH2 8033   1.995   3.175   2.235 -0.1292  0.4016 -0.4327
 2690TIP3    H1 8034   2.007   3.252   2.178 -1.4948  1.0783  0.1426
 2690TIP3    H2 8035   1.980   3.212   2.322 -0.5790 -0.5296 -0.1023
 2691TIP3   OH2 8036   6.185   1.414   2.175  0.2384 -0.7569 -0.0771
 2691TIP3    H1 8037   6.264   1.457   2.142 -1.0711  1.3824 -0.5996
 2691TIP3    H2 8038   6.147   1.478   2.236 -1.2864 -1.5644 -0.1423
 2692TIP3   OH2 8039   6.174   1.691   2.606 -0.2896  0.4889 -0.2235
 2692TIP3    H1 8040   6.170   1.650   2.520  2.7673  1.0748 -0.7571
 2692TIP3    H2 8041   6.192   1.783   2.588  0.3040  0.6385  1.0289
 2693TIP3   OH2 8042   1.872   3.490   2.690  0.2593 -0.5654 -0.0726
 2693TIP3    H1 8043   1.820   3.548   2.745 -1.2677 -1.4559 -0.5018
 2693TIP3    H2 8044   1.916   3.548   2.627  1.1582  0.3481  1.3541
 2694TIP3   OH2 8045   6.663   6.513   3.265 -0.7805  0.0419  0.0456
 2694TIP3    H1 8046   6.669   6.421   3.239 -2.7662  0.0480 -0.6380
 2694TIP3    H2 8047   6.641   6.559   3.184 -0.1324  1.0800  0.4410
 2695TIP3   OH2 8048   0.508   6.612   3.037 -0.1252  0.1324  0.5390
 2695TIP3    H1 8049   0.459   6.584   3.114  0.2299 -0.3132  0.6075
 2695TIP3    H2 8050   0.465   6.693   3.009 -0.8000 -0.1730  0.6867
 2696TIP3   OH2 8051   4.636   3.686   4.980  0.2270  0.4678 -0.7908
 2696TIP3    H1 8052   4.601   3.632   5.050  2.1170  3.0320  2.4018
 2696TIP3    H2 8053   4.683   3.624   4.923 -3.1662 -1.9984 -1.2177
 2697TIP3   OH2 8054   0.784   3.167   4.818  0.0756  0.1508 -0.3154
 2697TIP3    H1 8055   0.816   3.109   4.888 -0.0783  0.2888 -0.1285
 2697TIP3    H2 8056   0.693   3.139   4.804 -0.2047  0.7727  0.2303
 2698TIP3   OH2 8057   2.308   0.041   3.906  0.2919 -0.0634  0.3518
 2698TIP3    H1 8058   2.299  -0.052   3.929  0.3675  0.0239  0.7393
 2698TIP3    H2 8059   2.400   0.061   3.920 -0.0867  0.5812  2.2657
 2699TIP3   OH2 8060   0.827   0.334   0.189 -0.0026  0.0077 -0.7141
 2699TIP3    H1 8061   0.815   0.295   0.102  5.1385 -0.9433 -1.2911
 2699TIP3    H2 8062   0.883   0.272   0.236 -0.3175  1.8001  2.3165
 2700TIP3   OH2 8063   3.452   4.034   1.391 -0.7038 -0.0725  0.4741
 2700TIP3    H1 8064   3.467   3.985   1.309  0.3969  1.3633 -0.2307
 2700TIP3    H2 8065   3.360   4.059   1.388 -0.7615 -0.3400 -0.1439
 2701TIP3   OH2 8066   1.306   0.815   2.508  0.5501  0.1959 -0.0422
 2701TIP3    H1 8067   1.241   0.764   2.556  0.5521  0.9645  0.8120
 2701TIP3    H2 8068   1.389   0.792   2.549  0.8483 -0.7914 -1.1381
 2702TIP3   OH2 8069   4.653   0.955   5.032 -0.2860 -0.0270  0.8227
 2702TIP3    H1 8070   4.728   0.912   5.073  2.4432 -0.0370 -3.4624
 2702TIP3    H2 8071   4.662   1.047   5.057  0.7622 -0.1675  1.0314
 2703TIP3   OH2 8072   5.907   5.705   0.749 -0.5055 -0.2904  1.0497
 2703TIP3    H1 8073   5.874   5.781   0.796 -0.5215  0.0973  0.4228
 2703TIP3    H2 8074   5.849   5.634   0.776  0.2014 -0.3449  2.5069
 2704TIP3   OH2 8075   4.574   3.708   2.445  0.1216  0.1127  0.0612
 2704TIP3    H1 8076   4.503   3.671   2.394  1.1119 -0.2635 -1.0921
 2704TIP3    H2 8077   4.610   3.778   2.390  1.8713 -0.9814 -0.2901
 2705TIP3   OH2 8078   1.750   0.975   1.125 -0.1232  0.0629  0.2284
 2705TIP3    H1 8079   1.822   0.979   1.062  0.4456 -0.5466  0.8318
 2705TIP3    H2 8080   1.700   1.055   1.108  0.8532  0.6472  0.0016
 2706TIP3   OH2 8081   3.588   2.049   2.298 -0.0397 -0.3264  0.1550
 2706TIP3    H1 8082   3.654   2.061   2.230  1.2661  1.3637  1.6146
 2706TIP3    H2 8083   3.505   2.070   2.256  0.7060  0.4607 -0.9642
 2707TIP3   OH2 8084   4.855   0.305   2.591 -0.5647 -0.0411  0.0982
 2707TIP3    H1 8085   4.778   0.362   2.585 -1.2190 -0.5609  2.4455
 2707TIP3    H2 8086   4.819   0.218   2.603  0.4326 -0.5803 -0.6573
 2708TIP3   OH2 8087   5.009   3.768   2.576 -0.8586 -0.9548  0.9206
 2708TIP3    H1 8088   4.996   3.744   2.484 -0.6804  0.2009  0.5820
 2708TIP3    H2 8089   4.939   3.832   2.594 -0.5807 -0.7932  1.4400
 2709TIP3   OH2 8090   6.842   4.466   2.060  0.2802  0.5181  0.1750
 2709TIP3    H1 8091   6.826   4.458   2.154  0.9786 -1.7661  0.1704
 2709TIP3    H2 8092   6.783   4.535   2.031 -2.4943 -1.0272  1.7140
 2710TIP3   OH2 8093   6.270   5.436   0.210 -0.1820 -0.2742 -0.3167
 2710TIP3    H1 8094   6.304   5.385   0.137 -1.0018 -1.9790  0.4367
 2710TIP3    H2 8095   6.325   5.412   0.284 -0.2597  0.3315 -0.0607
 2711TIP3   OH2 8096   2.214   3.881   2.138  0.2765  0.2312 -0.2193
 2711TIP3    H1 8097   2.237   3.825   2.063 -0.7946 -0.1946 -0.2472
 2711TIP3    H2 8098   2.200   3.819   2.210  2.9079  0.7211  0.8179
 2712TIP3   OH2 8099   1.322   0.092   1.099 -0.1148 -0.0695  0.5306
 2712TIP3    H1 8100   1.405   0.083   1.147  0.5305 -1.6262 -0.7751
 2712TIP3    H2 8101   1.262   0.032   1.143 -0.6969  1.3344  1.7080
 2713TIP3   OH2 8102   6.973   5.588   0.622 -0.2162  0.2158 -0.9228
 2713TIP3    H1 8103   6.975   5.579   0.527  0.3150 -1.9519 -0.7522
 2713TIP3    H2 8104   6.882   5.568   0.646  0.0603 -1.0159 -0.8555
 2714TIP3   OH2 8105   5.252   3.652   5.131  0.2719 -0.0210 -0.1702
 2714TIP3    H1 8106   5.188   3.596   5.174 -2.0385  1.2062 -1.8089
 2714TIP3    H2 8107   5.274   3.605   5.050 -1.3078  1.0930 -1.3128
 2715TIP3   OH2 8108   3.737   2.622   2.501  0.0575  0.1696  0.1585
 2715TIP3    H1 8109   3.748   2.591   2.591  0.8959 -0.5571 -0.1800
 2715TIP3    H2 8110   3.644   2.644   2.494 -0.2622 -0.9075  0.8499
 2716TIP3   OH2 8111   6.303   3.320   4.852 -0.3493 -0.3186 -0.2728
 2716TIP3    H1 8112   6.303   3.394   4.791  2.8157 -0.4521 -0.6185
 2716TIP3    H2 8113   6.271   3.356   4.934 -0.4521  1.0084 -0.8709
 2717TIP3   OH2 8114   1.246   5.423   3.748  0.4315  0.0102  0.6322
 2717TIP3    H1 8115   1.320   5.473   3.715  0.4705  0.5132  1.4415
 2717TIP3    H2 8116   1.248   5.341   3.700 -0.0756  1.0592 -1.2776
 2718TIP3   OH2 8117   1.900   4.080   4.477  0.3779 -0.0907  0.6524
 2718TIP3    H1 8118   1.820   4.131   4.486  1.7324  2.4767 -0.7813
 2718TIP3    H2 8119   1.890   4.033   4.394  1.1377  1.9131 -0.6381
 2719TIP3   OH2 8120   0.671   4.790   3.356  0.2735  0.5056  0.4920
 2719TIP3    H1 8121   0.668   4.707   3.403  0.1751 -0.5080 -1.2296
 2719TIP3    H2 8122   0.580   4.816   3.347  0.3176  0.9728  1.2763
 2720TIP3   OH2 8123   5.655   5.794   0.475  0.2127 -0.3367  0.7726
 2720TIP3    H1 8124   5.681   5.878   0.513  0.1487 -1.0949  2.5963
 2720TIP3    H2 8125   5.723   5.775   0.410  1.0186  0.4517  1.3611
 2721TIP3   OH2 8126   6.271   4.184   3.533 -0.4714  0.0192 -0.3277
 2721TIP3    H1 8127   6.262   4.089   3.521 -0.4884  0.1932 -1.9960
 2721TIP3    H2 8128   6.347   4.207   3.480 -0.7932  1.0202 -0.3636
 2722TIP3   OH2 8129   3.173   0.654   4.911 -0.1912  0.4590  0.3549
 2722TIP3    H1 8130   3.136   0.731   4.955  0.3719 -0.0508  1.7870
 2722TIP3    H2 8131   3.188   0.591   4.982  0.6297 -0.4593 -0.6030
 2723TIP3   OH2 8132   5.787   4.102   1.129  0.0598 -0.2489  0.6222
 2723TIP3    H1 8133   5.834   4.029   1.170  0.1671  0.4407  1.7661
 2723TIP3    H2 8134   5.696   4.090   1.155  0.1078  0.1271  0.9711
 2724TIP3   OH2 8135   0.378   6.666   1.743 -0.3884  0.3297 -0.8935
 2724TIP3    H1 8136   0.422   6.626   1.818 -0.1607  0.2970 -1.0436
 2724TIP3    H2 8137   0.292   6.694   1.777 -0.7067 -0.6392 -0.8868
 2725TIP3   OH2 8138   6.546   1.912   4.876  0.1265 -0.1341  0.6821
 2725TIP3    H1 8139   6.536   1.826   4.837  1.8741  0.6867 -1.7955
 2725TIP3    H2 8140   6.505   1.972   4.814 -0.0033  0.9635  1.7737
 2726TIP3   OH2 8141   6.881   6.571   3.454 -0.0781  0.0302  0.7216
 2726TIP3    H1 8142   6.805   6.564   3.396  0.6911 -2.9057 -0.1450
 2726TIP3    H2 8143   6.845   6.571   3.542 -1.1333  1.0067  0.3163
 2727TIP3   OH2 8144   5.014   4.505   2.321  0.1892  0.1655 -0.4352
 2727TIP3    H1 8145   5.042   4.479   2.409  1.6857  0.9256 -0.6638
 2727TIP3    H2 8146   5.095   4.520   2.273 -0.6077  1.0086 -1.5767
 2728TIP3   OH2 8147   4.151   3.161   2.325  0.0679  0.3354 -0.3942
 2728TIP3    H1 8148   4.084   3.195   2.266 -2.5950  0.2721  2.3388
 2728TIP3    H2 8149   4.126   3.069   2.338  0.7460  0.2797  0.5930
 2729TIP3   OH2 8150   1.485   1.192   2.737  0.0153  0.1194 -0.2827
 2729TIP3    H1 8151   1.461   1.241   2.816 -0.6614 -2.3921  1.1614
 2729TIP3    H2 8152   1.580   1.207   2.729 -0.0451  1.0950  0.4875
 2730TIP3   OH2 8153   4.150   2.553   3.868 -0.6039 -0.5754 -0.2099
 2730TIP3    H1 8154   4.128   2.609   3.943 -0.5822 -1.0768  0.1784
 2730TIP3    H2 8155   4.067   2.513   3.842 -0.7970  0.4015 -1.1270
 2731TIP3   OH2 8156   4.797   4.361   3.948  0.2981 -0.2974  0.4138
 2731TIP3    H1 8157   4.736   4.434   3.941  0.9011  0.1691 -0.1739
 2731TIP3    H2 8158   4.847   4.378   4.028 -2.1209 -2.1172  2.4751
 2732TIP3   OH2 8159   4.066   2.988   4.247  0.2531 -1.4114  0.0533
 2732TIP3    H1 8160   3.991   3.045   4.225  2.6993  1.2506 -2.1873
 2732TIP3    H2 8161   4.052   2.966   4.339 -1.9754  1.1103  0.4623
 2733TIP3   OH2 8162   2.991   2.396   4.443 -0.0372 -0.0309  0.3865
 2733TIP3    H1 8163   3.020   2.478   4.483  1.2347 -0.3620  0.2089
 2733TIP3    H2 8164   2.935   2.355   4.509 -1.1831  1.2436  0.2333
 2734TIP3   OH2 8165   5.943   3.151   2.318  0.0784  0.4267  0.1953
 2734TIP3    H1 8166   6.033   3.134   2.345  0.9675 -1.0099 -3.1047
 2734TIP3    H2 8167   5.950   3.183   2.229 -2.6950 -0.5670 -0.5081
 2735TIP3   OH2 8168   6.783   6.219   1.894  0.4541 -0.6012  0.3743
 2735TIP3    H1 8169   6.843   6.181   1.830  0.9883  0.4574  0.2204
 2735TIP3    H2 8170   6.837   6.282   1.942  0.0636 -1.3842  1.8780
 2736TIP3   OH2 8171   4.401   5.943   2.631  0.7358 -0.1343 -0.1534
 2736TIP3    H1 8172   4.359   5.981   2.708  1.8045  0.5958  0.0942
 2736TIP3    H2 8173   4.349   5.866   2.611  0.0955 -0.0111  0.9532
 2737TIP3   OH2 8174   1.405   0.180   0.381  0.3134  0.1662  0.3731
 2737TIP3    H1 8175   1.499   0.195   0.391  0.1497  0.9712  0.7585
 2737TIP3    H2 8176   1.397   0.085   0.370  1.1874  0.1118  0.1171
 2738TIP3   OH2 8177   5.461   3.248   3.604  0.2254 -0.1176  0.2477
 2738TIP3    H1 8178   5.538   3.264   3.549  1.1785  0.6202  1.7256
 2738TIP3    H2 8179   5.496   3.246   3.693 -1.1991 -1.6792  0.8309
 2739TIP3   OH2 8180   5.041   6.359   1.332  0.3346 -0.5640  0.1136
 2739TIP3    H1 8181   4.993   6.441   1.341  1.9297  0.4062  0.1014
 2739TIP3    H2 8182   5.012   6.306   1.406 -1.9436 -0.6819 -0.7900
 2740TIP3   OH2 8183   1.459   3.606   1.205  0.4038  0.3238 -1.1759
 2740TIP3    H1 8184   1.538   3.605   1.150 -0.3797 -0.8225 -2.3572
 2740TIP3    H2 8185   1.462   3.523   1.252  0.2877  0.6245 -0.6312
 2741TIP3   OH2 8186   4.795   4.417   2.159 -0.4185 -0.3451 -0.0787
 2741TIP3    H1 8187   4.836   4.337   2.124  0.1386 -0.6054  1.0969
 2741TIP3    H2 8188   4.846   4.437   2.238 -3.2929 -1.4411  2.2413
 2742TIP3   OH2 8189   4.519   2.616   0.088  0.0262 -0.4314  0.7426
 2742TIP3    H1 8190   4.490   2.628  -0.003  0.2792 -0.9951  0.5791
 2742TIP3    H2 8191   4.602   2.569   0.080  0.8602  0.9091  1.2135
 2743TIP3   OH2 8192   5.481   1.589   3.943  0.4957  0.5481 -0.1949
 2743TIP3    H1 8193   5.499   1.504   3.902 -0.2711  0.5608 -0.5701
 2743TIP3    H2 8194   5.392   1.583   3.975  0.4662  1.1775 -0.1336
 2744TIP3   OH2 8195   3.729   0.873   0.589 -0.1624  0.0380 -0.4409
 2744TIP3    H1 8196   3.716   0.867   0.683 -1.1217  0.4783 -0.5261
 2744TIP3    H2 8197   3.799   0.937   0.578  1.0340 -1.1630  0.0123
 2745TIP3   OH2 8198   2.170   4.389   0.687  0.3635 -0.3800 -0.0393
 2745TIP3    H1 8199   2.091   4.398   0.741 -0.4670  0.4821 -1.3437
 2745TIP3    H2 8200   2.214   4.311   0.722 -0.8558 -0.6451  0.9806
 2746TIP3   OH2 8201   1.029   0.573   0.228 -0.6107  1.1341  0.2583
 2746TIP3    H1 8202   0.938   0.560   0.254 -0.5861 -0.4268 -0.3586
 2746TIP3    H2 8203   1.051   0.496   0.176  0.1123  2.9076 -2.2724
 2747TIP3   OH2 8204   6.842   0.752   2.569  0.0103 -0.1847  0.9149
 2747TIP3    H1 8205   6.785   0.698   2.624 -0.6854 -1.3282 -0.8395
 2747TIP3    H2 8206   6.931   0.725   2.591 -0.2203 -0.1882  1.8840
 2748TIP3   OH2 8207   3.827   4.874   5.484  0.1391 -0.1442 -0.0656
 2748TIP3    H1 8208   3.899   4.933   5.508  1.4542 -0.9588 -1.8050
 2748TIP3    H2 8209   3.763   4.932   5.443  0.9892  0.2538 -0.8878
 2749TIP3   OH2 8210   0.426   6.117  -0.019 -0.6381  0.0784 -0.2783
 2749TIP3    H1 8211   0.382   6.102   0.065 -1.0231  2.0719 -0.0810
 2749TIP3    H2 8212   0.504   6.168   0.003 -0.6178  0.4255 -1.1072
 2750TIP3   OH2 8213   2.224   0.423   0.926 -1.0908  0.0817 -0.0219
 2750TIP3    H1 8214   2.197   0.511   0.901 -0.1014  0.3598 -0.1270
 2750TIP3    H2 8215   2.172   0.404   1.005 -1.8364  0.4618 -0.4092
 2751TIP3   OH2 8216   3.341   6.608   1.570  0.2598 -0.0035  0.2631
 2751TIP3    H1 8217   3.387   6.582   1.650  1.7662 -0.7513 -0.8062
 2751TIP3    H2 8218   3.378   6.554   1.501 -0.5375  1.0764 -1.0860
 2752TIP3   OH2 8219   2.489   1.851   5.006 -0.4392  0.0221  0.1876
 2752TIP3    H1 8220   2.563   1.796   5.032  0.5986  0.2217 -2.1411
 2752TIP3    H2 8221   2.412   1.800   5.031  0.3616  0.3153  3.7470
 2753TIP3   OH2 8222   4.075   0.971   3.933  0.3650 -0.6262 -0.2263
 2753TIP3    H1 8223   4.016   0.909   3.891  1.9725 -1.5599 -1.1826
 2753TIP3    H2 8224   4.119   0.920   4.001  0.7735 -0.2112 -0.1731
 2754TIP3   OH2 8225   3.846   3.781   3.988 -0.5684  0.0540  0.2848
 2754TIP3    H1 8226   3.772   3.816   4.038 -0.1253 -0.2609  1.1710
 2754TIP3    H2 8227   3.862   3.695   4.026 -0.0704 -0.0867 -0.2449
 2755TIP3   OH2 8228   3.589   3.325   2.992 -0.1605 -0.1194  0.3537
 2755TIP3    H1 8229   3.579   3.367   2.907 -1.0931 -2.1464 -0.6077
 2755TIP3    H2 8230   3.677   3.350   3.021 -0.0217  1.0088 -0.9505
 2756TIP3   OH2 8231   6.786   1.582   1.419  0.0323  0.3848 -0.1214
 2756TIP3    H1 8232   6.774   1.489   1.437 -0.0144  0.7190  1.8224
 2756TIP3    H2 8233   6.868   1.587   1.369  0.0091 -0.6829 -0.2860
 2757TIP3   OH2 8234   5.686   1.734   0.930  0.3070  0.2025 -0.9073
 2757TIP3    H1 8235   5.649   1.759   1.014 -1.8399  0.3502 -1.8373
 2757TIP3    H2 8236   5.757   1.673   0.952 -0.2985  0.1327  0.9806
 2758TIP3   OH2 8237   0.427   0.350   0.544 -0.0508 -0.0434 -0.0801
 2758TIP3    H1 8238   0.439   0.298   0.464 -2.0278 -0.2151 -0.3074
 2758TIP3    H2 8239   0.442   0.440   0.516  0.8621 -0.2401 -0.2613
 2759TIP3   OH2 8240   2.037   1.059   1.601 -0.3802  0.4364  0.3171
 2759TIP3    H1 8241   1.966   1.099   1.551 -0.8034  1.5336  1.7309
 2759TIP3    H2 8242   2.002   1.051   1.690  0.3634 -1.4072  0.4966
 2760TIP3   OH2 8243   2.888   4.524   2.977  0.2836 -0.2877  0.0047
 2760TIP3    H1 8244   2.952   4.578   3.023  0.1510 -0.4521  0.3829
 2760TIP3    H2 8245   2.939   4.481   2.907  0.0061  1.8903 -1.6272
 2761TIP3   OH2 8246   6.355   0.509   2.756  0.2734 -0.6490  0.3753
 2761TIP3    H1 8247   6.281   0.525   2.698  1.6082 -0.8660 -1.4535
 2761TIP3    H2 8248   6.382   0.419   2.737  0.8907 -0.6373  1.1561
 2762TIP3   OH2 8249   3.008   5.155   5.106 -0.1754  0.5225  0.5305
 2762TIP3    H1 8250   2.960   5.237   5.113 -1.2149 -0.1523  2.3014
 2762TIP3    H2 8251   3.076   5.161   5.173  1.5203  0.9725 -1.1418
 2763TIP3   OH2 8252   4.402   6.019   4.960 -0.0216 -0.3068  0.1811
 2763TIP3    H1 8253   4.339   6.022   5.032 -0.3530 -1.6473 -0.0214
 2763TIP3    H2 8254   4.351   5.987   4.886  0.1850  1.5459 -0.8185
 2764TIP3   OH2 8255   0.819   3.268   4.207  0.3407  0.2731 -0.2733
 2764TIP3    H1 8256   0.778   3.314   4.133 -0.4857 -1.0426 -0.6603
 2764TIP3    H2 8257   0.886   3.213   4.167  0.8693  0.6259  0.1177
 2765TIP3   OH2 8258   6.752   5.748   0.749  0.1693 -0.9082  0.1189
 2765TIP3    H1 8259   6.830   5.794   0.718  0.1994 -1.1746 -0.2226
 2765TIP3    H2 8260   6.702   5.731   0.669 -0.8648  0.3702  0.4640
 2766TIP3   OH2 8261   4.115   1.615   1.589  0.0283  0.1916  0.3263
 2766TIP3    H1 8262   4.160   1.626   1.673 -0.6091 -3.1546  1.2392
 2766TIP3    H2 8263   4.022   1.625   1.610 -0.0582  1.0226 -0.3767
 2767TIP3   OH2 8264   5.668   6.379   2.207 -0.7606  0.0826 -0.0118
 2767TIP3    H1 8265   5.676   6.459   2.154 -2.4706  0.6965  0.5762
 2767TIP3    H2 8266   5.758   6.346   2.215  0.2633  2.8199  1.0329
 2768TIP3   OH2 8267   3.022   4.949   4.766  0.2003  1.0057 -0.3315
 2768TIP3    H1 8268   3.031   4.890   4.841 -0.7774  0.7673 -0.3867
 2768TIP3    H2 8269   2.941   4.996   4.783  0.0030  0.9900 -1.2183
 2769TIP3   OH2 8270   6.455   6.371   4.401  0.7046  0.6576 -0.3740
 2769TIP3    H1 8271   6.390   6.366   4.331  0.4794  0.8732 -0.1848
 2769TIP3    H2 8272   6.403   6.368   4.482  0.9984 -0.2051 -0.2047
 2770TIP3   OH2 8273   3.700   0.689   4.059 -0.3996 -0.1017  0.3523
 2770TIP3    H1 8274   3.621   0.646   4.025 -1.1117  0.9105  0.6849
 2770TIP3    H2 8275   3.723   0.753   3.991  0.2239 -0.4910  0.1927
 2771TIP3   OH2 8276   7.103   3.724   2.267  0.1885 -0.1873  0.2873
 2771TIP3    H1 8277   7.167   3.794   2.254  0.6753 -0.5769  0.5439
 2771TIP3    H2 8278   7.026   3.752   2.217 -0.3395  1.4368  1.8965
 2772TIP3   OH2 8279   3.880   1.262   4.673 -0.5016 -0.1465 -0.4380
 2772TIP3    H1 8280   3.968   1.245   4.705 -0.4118  2.1747  0.8030
 2772TIP3    H2 8281   3.892   1.318   4.597 -0.8806 -1.3380 -1.4008
 2773TIP3   OH2 8282   7.161   3.326   2.676 -0.4235  0.5756 -0.0763
 2773TIP3    H1 8283   7.134   3.255   2.618 -1.8890  1.1105 -0.0936
 2773TIP3    H2 8284   7.169   3.403   2.619  0.0529  0.6763  0.1191
 2774TIP3   OH2 8285   4.418   0.816   2.102 -0.2028 -0.2959 -0.3184
 2774TIP3    H1 8286   4.389   0.760   2.030 -0.7960  2.4400 -2.3524
 2774TIP3    H2 8287   4.479   0.878   2.063 -0.2524  1.0770  1.6005
 2775TIP3   OH2 8288   4.994   3.862   4.463  0.0683  0.0658  0.5684
 2775TIP3    H1 8289   4.964   3.952   4.467  2.3091  0.9415 -0.7911
 2775TIP3    H2 8290   5.004   3.837   4.555  1.5931  2.0184  0.9956
 2776TIP3   OH2 8291   2.010   1.901   1.506 -0.6034 -0.4316  0.1721
 2776TIP3    H1 8292   2.040   1.842   1.575  0.0818  0.0708  0.3107
 2776TIP3    H2 8293   1.983   1.980   1.553 -1.3247 -0.5441 -0.0311
 2777TIP3   OH2 8294   1.945   0.366   2.119 -1.1851 -0.4591 -0.1027
 2777TIP3    H1 8295   1.859   0.325   2.124 -1.8265  0.9912  2.3124
 2777TIP3    H2 8296   1.986   0.348   2.203  0.3775 -0.0248 -0.7285
 2778TIP3   OH2 8297   2.183   2.455   5.549 -0.0812  0.2839  0.6643
 2778TIP3    H1 8298   2.129   2.519   5.596 -0.7368 -0.1518  0.5143
 2778TIP3    H2 8299   2.266   2.453   5.598  0.2061  1.7414  0.2792
 2779TIP3   OH2 8300   3.614   0.567   0.491  0.1310  0.1567  0.1070
 2779TIP3    H1 8301   3.707   0.584   0.472 -0.2255  1.1295 -0.9211
 2779TIP3    H2 8302   3.610   0.560   0.586  1.2184  0.3951  0.1911
 2780TIP3   OH2 8303   6.688   4.102   4.336 -0.6898  0.1957  0.2348
 2780TIP3    H1 8304   6.679   4.069   4.247 -2.2065 -0.4278  0.6006
 2780TIP3    H2 8305   6.780   4.086   4.358 -0.3671  0.0900 -1.0947
 2781TIP3   OH2 8306   0.716   4.465   1.814 -0.3372 -0.2367 -0.3601
 2781TIP3    H1 8307   0.644   4.404   1.797 -0.0423 -2.0161  3.6632
 2781TIP3    H2 8308   0.794   4.417   1.787 -0.3173 -0.2102 -0.3501
 2782TIP3   OH2 8309   5.642   5.918   1.830 -0.2501 -0.3591  0.7264
 2782TIP3    H1 8310   5.589   5.915   1.750 -2.2529 -0.6666  2.0100
 2782TIP3    H2 8311   5.727   5.884   1.803 -1.3903 -2.1280 -0.9038
 2783TIP3   OH2 8312   1.975   4.316   4.864 -0.2947  0.1067 -0.3379
 2783TIP3    H1 8313   2.053   4.275   4.902  1.1100  0.5806 -2.5157
 2783TIP3    H2 8314   1.907   4.305   4.931  1.3825 -1.1253  1.2743
 2784TIP3   OH2 8315   3.876   0.557   0.379  0.2934 -0.6294  0.0540
 2784TIP3    H1 8316   3.937   0.519   0.442  0.0309  2.6254  2.5611
 2784TIP3    H2 8317   3.931   0.590   0.309  0.9848 -1.1014  0.3653
 2785TIP3   OH2 8318   1.781   5.765   0.767  0.1155 -0.5110 -0.2724
 2785TIP3    H1 8319   1.800   5.671   0.758  1.8053 -0.3251  0.8289
 2785TIP3    H2 8320   1.725   5.771   0.845  0.3380 -0.5866 -0.1041
 2786TIP3   OH2 8321   6.773   0.513   4.235  0.1090  0.1434 -0.4827
 2786TIP3    H1 8322   6.696   0.457   4.240  0.4209 -0.2304  0.7259
 2786TIP3    H2 8323   6.831   0.480   4.304 -0.5985  3.2947  1.8709
 2787TIP3   OH2 8324   2.621   4.130   0.801  0.2513  0.0622 -0.2586
 2787TIP3    H1 8325   2.716   4.115   0.806  0.1643 -0.2918  0.5606
 2787TIP3    H2 8326   2.583   4.049   0.835 -0.3407  0.3244 -0.2882
 2788TIP3   OH2 8327   1.169   0.661   2.973  0.1466  0.3078 -0.4706
 2788TIP3    H1 8328   1.193   0.608   3.050 -0.3309 -0.3981 -0.7927
 2788TIP3    H2 8329   1.121   0.735   3.009 -2.2093 -1.2425 -0.2021
 2789TIP3   OH2 8330   5.189   1.319   5.111  0.1499 -0.2668 -0.3648
 2789TIP3    H1 8331   5.279   1.329   5.081  0.6101  0.9966  1.2609
 2789TIP3    H2 8332   5.139   1.381   5.057  0.7519  1.0561  0.5350
 2790TIP3   OH2 8333   6.289   0.733   3.661 -0.0723  0.5093 -0.1814
 2790TIP3    H1 8334   6.228   0.794   3.702 -0.9207 -0.7754  0.5475
 2790TIP3    H2 8335   6.364   0.730   3.720  0.3787  1.4884 -0.6746
 2791TIP3   OH2 8336   6.771   0.099   0.735  0.7735 -0.7664  0.3761
 2791TIP3    H1 8337   6.857   0.141   0.731  0.9432 -1.0095 -4.4727
 2791TIP3    H2 8338   6.723   0.149   0.801  2.9777  2.9877 -0.5625
 2792TIP3   OH2 8339   6.430   6.064   0.056  0.0867  0.4563 -0.2164
 2792TIP3    H1 8340   6.438   6.080   0.149 -0.2678 -1.0059  0.0954
 2792TIP3    H2 8341   6.497   6.119   0.015 -0.6704  2.1577  0.7623
 2793TIP3   OH2 8342   2.884   6.388   4.199  0.1600  0.4532 -0.0903
 2793TIP3    H1 8343   2.792   6.394   4.226 -0.4494  0.3506 -1.9685
 2793TIP3    H2 8344   2.883   6.326   4.126  1.8267  0.0127  0.2167
 2794TIP3   OH2 8345   1.792   0.069   4.947  0.5234 -0.1803  0.7125
 2794TIP3    H1 8346   1.861   0.014   4.908  1.1472  0.1187  1.3735
 2794TIP3    H2 8347   1.838   0.124   5.010 -0.3842 -0.2323  1.4379
 2795TIP3   OH2 8348   3.198   1.682   3.321  0.1824 -0.0633  0.5357
 2795TIP3    H1 8349   3.206   1.587   3.318 -0.6595 -0.1673 -3.4092
 2795TIP3    H2 8350   3.108   1.698   3.348 -0.3720 -0.5145 -0.9674
 2796TIP3   OH2 8351   3.510   4.952   3.134  0.1769  0.0333  0.4941
 2796TIP3    H1 8352   3.450   4.880   3.113 -0.3296  0.4537  0.5011
 2796TIP3    H2 8353   3.591   4.908   3.159  0.0738 -0.5276 -0.1159
 2797TIP3   OH2 8354   1.641   5.834   1.943 -0.3775 -0.5521  0.0374
 2797TIP3    H1 8355   1.622   5.787   1.861 -1.1831  1.2580 -0.8754
 2797TIP3    H2 8356   1.636   5.767   2.011  0.8751 -2.2338 -1.4378
 2798TIP3   OH2 8357   5.429   5.759   1.980 -0.5269  0.5046  0.2317
 2798TIP3    H1 8358   5.509   5.781   1.932  0.1979 -0.3234  1.0187
 2798TIP3    H2 8359   5.370   5.724   1.914 -0.2675  1.1754 -0.3733
 2799TIP3   OH2 8360   1.120   5.767   2.405 -0.5019 -0.2792 -0.5425
 2799TIP3    H1 8361   1.173   5.702   2.360  1.8465  0.6308  0.7361
 2799TIP3    H2 8362   1.183   5.834   2.433 -2.6718  2.1666 -1.0863
 2800TIP3   OH2 8363   1.725   2.863   3.453  0.3129  0.1261 -0.1408
 2800TIP3    H1 8364   1.779   2.784   3.458  0.7499  0.2832 -1.8352
 2800TIP3    H2 8365   1.760   2.912   3.379 -0.9387  1.1697 -0.0806
 2801TIP3   OH2 8366   3.925   5.869   2.624  0.0536 -0.2511 -0.1240
 2801TIP3    H1 8367   3.974   5.950   2.608 -1.2615  0.5994 -0.0508
 2801TIP3    H2 8368   3.863   5.865   2.551 -1.1961 -0.1393  0.8930
 2802TIP3   OH2 8369   0.468   4.589   2.803 -0.3468 -0.0412  0.1857
 2802TIP3    H1 8370   0.391   4.644   2.817  0.2216  0.1504  3.2559
 2802TIP3    H2 8371   0.447   4.506   2.846  0.6513 -0.4657 -0.0997
 2803TIP3   OH2 8372   1.219   5.998   0.125  0.0948 -0.1410 -0.4434
 2803TIP3    H1 8373   1.312   5.999   0.146 -0.2780  1.4723  1.3884
 2803TIP3    H2 8374   1.208   6.069   0.062 -0.1172  0.6993  0.5253
 2804TIP3   OH2 8375   5.433   0.103   4.702  0.7116  0.6550 -0.6825
 2804TIP3    H1 8376   5.373   0.154   4.648 -0.1905 -0.0903 -0.4113
 2804TIP3    H2 8377   5.510   0.090   4.647 -0.1078  0.0758 -1.7385
 2805TIP3   OH2 8378   3.402   3.369   5.149 -0.1021 -0.4740  0.5245
 2805TIP3    H1 8379   3.476   3.333   5.199  0.9080  1.9221  0.9052
 2805TIP3    H2 8380   3.421   3.346   5.058  2.5678  2.1076  0.2472
 2806TIP3   OH2 8381   5.361   1.627   1.728  0.3704 -0.2288  0.1103
 2806TIP3    H1 8382   5.393   1.611   1.639  1.2059  0.4586  0.2663
 2806TIP3    H2 8383   5.283   1.573   1.736 -0.7846  1.0583 -1.6687
 2807TIP3   OH2 8384   0.344   6.120   4.565  0.2407  0.3758  0.0064
 2807TIP3    H1 8385   0.291   6.086   4.493  0.7093 -0.2959 -0.0283
 2807TIP3    H2 8386   0.429   6.140   4.525 -0.0457  1.7033  0.0037
 2808TIP3   OH2 8387   3.689   1.211   2.126 -0.2866 -0.3570 -1.1170
 2808TIP3    H1 8388   3.626   1.279   2.102  1.2635  1.4263 -0.3371
 2808TIP3    H2 8389   3.634   1.140   2.160 -1.9093  1.0768 -0.5578
 2809TIP3   OH2 8390   5.722   5.832   2.971 -0.4071 -0.3250 -0.4492
 2809TIP3    H1 8391   5.682   5.918   2.976  1.5879  0.7063 -1.2368
 2809TIP3    H2 8392   5.756   5.826   2.882  0.5337 -1.4502 -0.0407
 2810TIP3   OH2 8393   1.174   1.785   0.048 -0.9631  0.1586 -0.1346
 2810TIP3    H1 8394   1.143   1.717  -0.012  1.0695  0.3250 -1.4744
 2810TIP3    H2 8395   1.143   1.757   0.134 -0.7177 -2.1496 -0.7312
 2811TIP3   OH2 8396   6.197   4.779   0.109  0.1546 -0.2930 -0.2765
 2811TIP3    H1 8397   6.251   4.734   0.043 -1.0038 -0.0722 -1.4103
 2811TIP3    H2 8398   6.140   4.710   0.143  1.3847 -0.6227  1.2348
 2812TIP3   OH2 8399   3.939   0.820   2.329 -0.5589 -0.3264 -0.1365
 2812TIP3    H1 8400   4.029   0.847   2.311 -0.4313 -1.4455 -1.3082
 2812TIP3    H2 8401   3.892   0.836   2.247 -1.1023 -1.0361  0.0233
 2813TIP3   OH2 8402   5.496   3.674   2.866  0.4205  0.3083 -0.7554
 2813TIP3    H1 8403   5.479   3.729   2.943 -0.1239  1.0699 -1.3878
 2813TIP3    H2 8404   5.451   3.720   2.795  1.1003 -0.2612 -1.5688
 2814TIP3   OH2 8405   3.081   2.534   2.609 -0.3045 -0.7483 -0.0261
 2814TIP3    H1 8406   3.102   2.566   2.697 -2.3668  0.9059 -0.0628
 2814TIP3    H2 8407   3.058   2.442   2.622  0.1008 -0.7132  1.0480
 2815TIP3   OH2 8408   4.784   2.724   0.762  0.1628 -0.3607  0.0668
 2815TIP3    H1 8409   4.715   2.790   0.750 -0.2783 -0.6904  0.7384
 2815TIP3    H2 8410   4.739   2.640   0.754  0.4025 -0.5797  0.8791
 2816TIP3   OH2 8411   5.469   3.178   4.471 -0.3453  0.6085  0.2823
 2816TIP3    H1 8412   5.426   3.141   4.394  1.2922  0.2947 -0.5098
 2816TIP3    H2 8413   5.560   3.191   4.444  0.0129  1.5187  1.8198
 2817TIP3   OH2 8414   6.447   0.038   0.403 -0.9106 -0.2141  0.4418
 2817TIP3    H1 8415   6.425   0.011   0.493  0.8633  0.5230  1.1454
 2817TIP3    H2 8416   6.417   0.128   0.397  2.2569  1.0975  1.6944
 2818TIP3   OH2 8417   4.363   2.450   3.753  0.3879  0.0255  0.7050
 2818TIP3    H1 8418   4.333   2.370   3.710  0.8040 -0.1523  0.7418
 2818TIP3    H2 8419   4.290   2.475   3.810  0.1125 -0.1250  0.4243
 2819TIP3   OH2 8420   2.157   0.746   4.106 -0.2133  0.3806 -0.4513
 2819TIP3    H1 8421   2.127   0.661   4.138 -0.5245  0.8135  0.4456
 2819TIP3    H2 8422   2.232   0.767   4.162 -1.1990  1.4764  0.5224
 2820TIP3   OH2 8423   4.328   1.916   0.344 -0.2118  0.3019  0.0099
 2820TIP3    H1 8424   4.308   1.832   0.303 -0.9804  1.3624 -1.9260
 2820TIP3    H2 8425   4.374   1.893   0.425 -2.4545 -2.0434  0.7712
 2821TIP3   OH2 8426   3.718   5.490   4.227 -0.2929  0.6319 -0.0774
 2821TIP3    H1 8427   3.798   5.475   4.277 -0.5345 -0.4381  0.0030
 2821TIP3    H2 8428   3.653   5.514   4.293 -0.9600 -2.0899  0.3583
 2822TIP3   OH2 8429   0.888   6.411   1.519 -0.1103 -0.1931 -0.5847
 2822TIP3    H1 8430   0.890   6.321   1.486 -0.0089 -0.7347  0.7915
 2822TIP3    H2 8431   0.975   6.446   1.502  0.9948 -1.5328  1.7920
 2823TIP3   OH2 8432   1.433   2.016   5.746 -0.0315 -0.0805  0.8821
 2823TIP3    H1 8433   1.448   2.009   5.652 -0.2979  0.8695  0.7562
 2823TIP3    H2 8434   1.350   1.970   5.761  0.7058 -1.4803  0.8983
 2824TIP3   OH2 8435   2.118   5.976   5.709 -0.2551  1.2239 -0.0698
 2824TIP3    H1 8436   2.049   5.962   5.775  0.3045  1.3961  0.5623
 2824TIP3    H2 8437   2.095   5.915   5.638 -0.5364  0.5945  0.5427
 2825TIP3   OH2 8438   0.248   1.877   2.424  0.5156  0.1685  0.4409
 2825TIP3    H1 8439   0.285   1.902   2.339  1.4973 -0.2430  0.7232
 2825TIP3    H2 8440   0.320   1.892   2.486  0.1744 -0.5724  1.0335
 2826TIP3   OH2 8441   0.764   0.552   2.869  0.4635 -0.3520  0.4826
 2826TIP3    H1 8442   0.793   0.642   2.859  0.9927 -0.6337 -0.6895
 2826TIP3    H2 8443   0.701   0.538   2.798 -2.7165  0.2452  2.9565
 2827TIP3   OH2 8444   2.495   3.641   5.374 -0.2887  0.1694  0.4226
 2827TIP3    H1 8445   2.411   3.686   5.374 -0.8230 -0.7833 -0.5764
 2827TIP3    H2 8446   2.500   3.599   5.460 -1.5249 -0.9760 -0.0319
 2828TIP3   OH2 8447   6.135   3.522   4.281 -0.0320  0.6366 -0.3091
 2828TIP3    H1 8448   6.114   3.595   4.340 -0.9005  0.6463 -0.6205
 2828TIP3    H2 8449   6.224   3.498   4.304 -0.2160  0.9085  0.7337
 2829TIP3   OH2 8450   4.627   1.521   2.349  0.5396  0.0860 -0.4077
 2829TIP3    H1 8451   4.643   1.434   2.387 -1.6135  0.7490  2.3706
 2829TIP3    H2 8452   4.679   1.580   2.402 -0.3935  0.7807 -0.2385
 2830TIP3   OH2 8453   5.300   3.275   3.937 -0.2353 -0.7925 -0.3291
 2830TIP3    H1 8454   5.278   3.309   4.023 -0.7911 -0.6312 -0.5306
 2830TIP3    H2 8455   5.353   3.343   3.896  0.6139 -1.1617  0.1414
 2831TIP3   OH2 8456   5.841   2.502   2.332  0.0845 -0.1260  0.4866
 2831TIP3    H1 8457   5.869   2.587   2.299  0.3957  0.2038  1.5478
 2831TIP3    H2 8458   5.746   2.509   2.339 -0.0620 -0.4248 -0.8862
 2832TIP3   OH2 8459   5.963   5.492   5.080  0.6211 -0.1104  0.1428
 2832TIP3    H1 8460   6.034   5.438   5.112  0.7385  0.1912  0.4003
 2832TIP3    H2 8461   6.002   5.545   5.011  0.7086  0.2224  0.4430
 2833TIP3   OH2 8462   5.553   0.757   1.349 -0.1446 -0.0607 -0.3142
 2833TIP3    H1 8463   5.460   0.740   1.334 -0.1669 -0.2754  0.0541
 2833TIP3    H2 8464   5.556   0.800   1.435  0.0615  0.2984 -0.5014
 2834TIP3   OH2 8465   5.024   4.994   4.289 -0.2101 -0.3936  0.3545
 2834TIP3    H1 8466   5.092   5.058   4.267  0.6956 -2.0782 -2.1815
 2834TIP3    H2 8467   4.958   5.004   4.221  0.1196 -2.3293 -0.2997
 2835TIP3   OH2 8468   7.048   0.238   0.721  0.2095  0.1085  0.3028
 2835TIP3    H1 8469   7.069   0.288   0.643  0.8437  0.9397  0.9840
 2835TIP3    H2 8470   7.130   0.232   0.769 -0.1149 -0.6075  0.7905
 2836TIP3   OH2 8471   4.206   0.907   0.591 -0.4318  0.0959 -0.3222
 2836TIP3    H1 8472   4.202   0.835   0.529  1.7299  0.1025 -0.5289
 2836TIP3    H2 8473   4.130   0.894   0.648  0.5122 -3.0237  0.3897
 2837TIP3   OH2 8474   4.619   0.142   4.288 -0.3718 -0.0867 -0.4800
 2837TIP3    H1 8475   4.540   0.087   4.285 -0.5476  0.1550 -4.3172
 2837TIP3    H2 8476   4.689   0.087   4.253  0.9592  0.1662  1.5763
 2838TIP3   OH2 8477   2.842   1.151   3.605 -0.2298 -0.1115  0.6014
 2838TIP3    H1 8478   2.823   1.236   3.644  0.5483  0.6223 -0.5470
 2838TIP3    H2 8479   2.910   1.169   3.541 -1.0113 -1.3644 -0.6376
 2839TIP3   OH2 8480   5.796   3.874   4.334  0.0739  0.2058 -0.4310
 2839TIP3    H1 8481   5.703   3.891   4.319  0.1225  0.2378 -0.6945
 2839TIP3    H2 8482   5.828   3.837   4.252  0.2863  0.1573 -0.3283
 2840TIP3   OH2 8483   5.043   1.821   0.553  0.1320 -0.3415 -0.7049
 2840TIP3    H1 8484   4.986   1.892   0.583  1.0223  0.3426 -0.5916
 2840TIP3    H2 8485   5.046   1.760   0.627 -0.1378 -0.1888 -0.5677
 2841TIP3   OH2 8486   4.292   1.373   2.927  0.3073  0.3481  0.4688
 2841TIP3    H1 8487   4.232   1.366   3.000  0.2715  1.2429  0.5322
 2841TIP3    H2 8488   4.236   1.368   2.849  0.4861 -2.3131  0.4008
 2842TIP3   OH2 8489   4.957   2.411   4.686 -0.9158  0.4051 -0.0095
 2842TIP3    H1 8490   5.047   2.439   4.706 -0.1742 -1.3853 -0.5705
 2842TIP3    H2 8491   4.968   2.343   4.619 -2.5514 -0.9792  1.0355
 2843TIP3   OH2 8492   7.059   1.437   2.359 -0.6100 -0.0237  0.3413
 2843TIP3    H1 8493   7.072   1.437   2.264  0.0646  1.1797  0.4089
 2843TIP3    H2 8494   7.119   1.505   2.391  0.8913 -1.9522  1.8753
 2844TIP3   OH2 8495   1.597   0.365   3.352  0.0892  0.1046  0.8994
 2844TIP3    H1 8496   1.602   0.449   3.306 -1.1725 -0.0915  0.3677
 2844TIP3    H2 8497   1.659   0.373   3.424  1.9688  0.5141 -0.6844
 2845TIP3   OH2 8498   1.561   3.548   0.610 -0.3498  0.5619  0.2678
 2845TIP3    H1 8499   1.472   3.514   0.618  0.2807 -1.6767 -1.1686
 2845TIP3    H2 8500   1.599   3.536   0.697 -0.6990 -0.9276  0.2496
 2846TIP3   OH2 8501   1.273   4.998   0.897  0.3470 -0.6857 -0.3080
 2846TIP3    H1 8502   1.332   5.031   0.829  0.2061  1.1318  0.3953
 2846TIP3    H2 8503   1.261   4.905   0.875  1.3234 -0.4607 -1.9973
 2847TIP3   OH2 8504   2.404   1.811   4.259 -0.1685  0.6269 -0.1232
 2847TIP3    H1 8505   2.335   1.876   4.269 -1.7363 -1.1437  1.5397
 2847TIP3    H2 8506   2.476   1.844   4.312 -1.0603  0.8958  0.9639
 2848TIP3   OH2 8507   6.747   1.975   0.867  0.1817 -0.6539  0.0819
 2848TIP3    H1 8508   6.768   1.898   0.920  0.1950 -0.7010  0.0086
 2848TIP3    H2 8509   6.713   2.039   0.930  0.9163 -0.4311  0.2580
 2849TIP3   OH2 8510   0.793   3.426   2.220  0.2728 -0.0714 -0.3058
 2849TIP3    H1 8511   0.805   3.441   2.313  0.0517  2.9057 -0.6547
 2849TIP3    H2 8512   0.717   3.479   2.196 -0.4951 -1.7712 -1.9967
 2850TIP3   OH2 8513   1.408   1.991   2.515  0.1168  0.0444 -0.0974
 2850TIP3    H1 8514   1.334   1.932   2.530  1.8887 -2.0454  0.9959
 2850TIP3    H2 8515   1.447   2.004   2.602  1.4144  0.5423 -0.7219
 2851TIP3   OH2 8516   2.291   6.421   3.962 -0.1921 -0.3550  0.0517
 2851TIP3    H1 8517   2.364   6.425   4.023  1.4250 -1.5731 -1.6954
 2851TIP3    H2 8518   2.260   6.512   3.956  1.9985  0.4334 -0.0827
 2852TIP3   OH2 8519   3.167   6.410   5.123 -0.4692  0.6204  0.2909
 2852TIP3    H1 8520   3.198   6.446   5.040 -1.5611 -0.4942 -0.6251
 2852TIP3    H2 8521   3.094   6.467   5.148 -0.9152  0.2497 -0.1443
 2853TIP3   OH2 8522   5.298   0.503   0.188  0.1914  0.3275 -0.3096
 2853TIP3    H1 8523   5.370   0.462   0.139  0.1292  0.1097 -0.2201
 2853TIP3    H2 8524   5.225   0.504   0.127  0.3610  0.8379 -0.5069
 2854TIP3   OH2 8525   2.989   4.132   0.181  0.5193 -0.0074 -0.3287
 2854TIP3    H1 8526   3.033   4.119   0.097  1.0894  1.9790 -0.3879
 2854TIP3    H2 8527   2.956   4.222   0.176 -0.1159 -0.1321  1.2818
 2855TIP3   OH2 8528   2.903   1.498   3.993 -0.9039  0.4535 -0.7090
 2855TIP3    H1 8529   2.902   1.593   4.004 -0.7776  0.2430  1.6331
 2855TIP3    H2 8530   2.955   1.484   3.914  1.3657  2.2591  0.3371
 2856TIP3   OH2 8531   2.551   0.130   3.987 -0.3328 -0.3417  0.1582
 2856TIP3    H1 8532   2.581   0.205   4.037 -0.7303  0.7200 -1.1379
 2856TIP3    H2 8533   2.606   0.129   3.908  0.7328 -2.3712  0.8560
 2857TIP3   OH2 8534   3.111   5.258   3.522  0.3125 -0.0944 -0.3154
 2857TIP3    H1 8535   3.175   5.320   3.557  0.9617 -0.7872 -0.2540
 2857TIP3    H2 8536   3.160   5.176   3.513 -1.1682 -1.3362  2.0401
 2858TIP3   OH2 8537   0.820   2.528   5.381  0.1133 -0.0360  0.4459
 2858TIP3    H1 8538   0.737   2.500   5.418 -0.0304  3.5805  3.3733
 2858TIP3    H2 8539   0.886   2.476   5.427 -0.3428 -1.1564 -0.1140
 2859TIP3   OH2 8540   1.813   3.601   2.300 -0.0693 -0.8063  0.0548
 2859TIP3    H1 8541   1.754   3.556   2.360  3.1511 -2.4930  2.3057
 2859TIP3    H2 8542   1.828   3.538   2.229 -0.2379 -0.7659 -0.0171
 2860TIP3   OH2 8543   5.798   5.680   4.132  0.6023  0.0774 -0.4647
 2860TIP3    H1 8544   5.836   5.625   4.064 -1.0625  1.0765 -2.3119
 2860TIP3    H2 8545   5.871   5.734   4.163  1.6161 -1.1275 -0.6868
 2861TIP3   OH2 8546   6.188   1.804   3.989 -1.1072 -0.1139  0.2653
 2861TIP3    H1 8547   6.118   1.842   4.042 -1.4003 -2.0355  1.3790
 2861TIP3    H2 8548   6.145   1.733   3.941 -0.0289 -1.0428  0.6300
 2862TIP3   OH2 8549   6.917   0.733   5.192 -0.8646  0.3954  0.2698
 2862TIP3    H1 8550   6.945   0.674   5.262 -1.8500 -2.5975 -1.6582
 2862TIP3    H2 8551   6.976   0.808   5.199  2.6246 -2.1760  1.0258
 2863TIP3   OH2 8552   3.534   1.681   0.582 -0.6048 -0.6600 -0.1277
 2863TIP3    H1 8553   3.524   1.758   0.637 -0.3723 -1.7177  1.4673
 2863TIP3    H2 8554   3.501   1.708   0.496  0.0973  1.3926  0.1993
 2864TIP3   OH2 8555   4.947   3.670   2.986 -0.7121 -0.1822 -0.8724
 2864TIP3    H1 8556   4.880   3.731   2.957 -0.5789  0.2574 -0.2782
 2864TIP3    H2 8557   4.927   3.654   3.078 -0.5375 -0.7596 -0.9303
 2865TIP3   OH2 8558   2.668   5.017   5.694  0.5119  0.1928  0.6701
 2865TIP3    H1 8559   2.644   4.963   5.619 -0.2641  2.9709 -1.2481
 2865TIP3    H2 8560   2.600   5.000   5.759 -1.0218  0.4901 -0.7804
 2866TIP3   OH2 8561   6.576   3.236   3.916 -0.5193 -0.0748 -0.3778
 2866TIP3    H1 8562   6.653   3.186   3.942 -1.0964 -0.3148  0.9194
 2866TIP3    H2 8563   6.501   3.186   3.950 -1.2254  0.4430 -1.1225
 2867TIP3   OH2 8564   2.375   4.170   4.196  0.6199  0.0743  0.1970
 2867TIP3    H1 8565   2.324   4.172   4.115  1.0835 -1.5210 -0.1652
 2867TIP3    H2 8566   2.326   4.226   4.256 -1.4219 -1.1394 -0.2444
 2868TIP3   OH2 8567   0.216   6.017   2.067  0.1491 -0.4418 -0.4395
 2868TIP3    H1 8568   0.182   6.073   2.137  1.7298  1.5265 -1.1397
 2868TIP3    H2 8569   0.307   6.002   2.090  0.7437  0.3605 -2.0746
 2869TIP3   OH2 8570   0.706   2.792   3.509  0.0131  0.3314  0.0205
 2869TIP3    H1 8571   0.720   2.882   3.479  1.0264 -0.2601 -1.4133
 2869TIP3    H2 8572   0.611   2.782   3.509 -0.1189  1.4305  0.2946
 2870TIP3   OH2 8573   6.834   5.483   0.949 -0.1305 -0.5842  0.2213
 2870TIP3    H1 8574   6.806   5.480   0.858  0.6283  0.4552 -0.0790
 2870TIP3    H2 8575   6.753   5.494   0.999 -0.3998  1.1571 -0.5212
 2871TIP3   OH2 8576   2.894   2.210   0.724 -0.3000  0.0950 -0.5924
 2871TIP3    H1 8577   2.918   2.292   0.680 -0.7407  0.2184 -0.6132
 2871TIP3    H2 8578   2.868   2.237   0.812 -1.0150  0.0545 -0.7851
 2872TIP3   OH2 8579   0.365   4.616   5.575 -0.0335  0.2211  0.1791
 2872TIP3    H1 8580   0.386   4.522   5.578 -2.4447 -0.3929 -0.4406
 2872TIP3    H2 8581   0.316   4.627   5.494 -0.7242  1.8109  0.7807
 2873TIP3   OH2 8582   5.188   5.164   2.312  0.0288 -0.4182 -0.1296
 2873TIP3    H1 8583   5.230   5.097   2.259  1.1125 -0.6445  0.9767
 2873TIP3    H2 8584   5.101   5.173   2.273 -0.0831 -2.3089 -0.4391
 2874TIP3   OH2 8585   3.791   0.398   2.939  0.1937 -0.1246  0.2189
 2874TIP3    H1 8586   3.761   0.308   2.925 -1.1736 -0.0611  2.3136
 2874TIP3    H2 8587   3.879   0.388   2.976 -0.0889 -0.6227  0.7746
 2875TIP3   OH2 8588   5.584   2.928   4.683 -0.2766 -0.2870  0.0310
 2875TIP3    H1 8589   5.519   2.906   4.749 -1.6274  1.3801 -0.6885
 2875TIP3    H2 8590   5.620   3.012   4.710 -0.5767  0.2396 -1.1329
 2876TIP3   OH2 8591   1.477   5.804   0.016 -0.2749 -0.2818 -0.0321
 2876TIP3    H1 8592   1.403   5.775   0.068 -0.8035  1.4453  0.2592
 2876TIP3    H2 8593   1.488   5.896   0.040  1.8814 -0.4537 -0.1850
 2877TIP3   OH2 8594   6.041   4.050   2.993  0.7074  0.2249  0.2155
 2877TIP3    H1 8595   6.087   4.125   2.956 -0.9824  1.0409 -0.3247
 2877TIP3    H2 8596   6.051   3.981   2.926  1.0547  0.4133  0.0679
 2878TIP3   OH2 8597   0.938   5.389   4.948 -0.2653  0.9270 -0.1057
 2878TIP3    H1 8598   1.027   5.364   4.922 -0.6262 -0.5616  0.0251
 2878TIP3    H2 8599   0.942   5.397   5.043 -0.0449  1.8534 -0.1837
 2879TIP3   OH2 8600   5.864   0.020   4.255  0.0723  0.2030 -0.1440
 2879TIP3    H1 8601   5.899  -0.031   4.182 -0.2719  0.7779 -0.7216
 2879TIP3    H2 8602   5.934   0.080   4.279 -0.0346  0.4438 -0.4239
 2880TIP3   OH2 8603   6.628   1.001   4.184 -0.4171  0.4251  0.3041
 2880TIP3    H1 8604   6.626   0.956   4.268 -0.0275  1.1503  0.7084
 2880TIP3    H2 8605   6.718   0.992   4.154  0.1024  2.2847  1.1524
 2881TIP3   OH2 8606   1.922   5.977   2.328  0.0460 -0.1982  0.0161
 2881TIP3    H1 8607   1.848   6.023   2.368  1.4648  1.3029  1.0500
 2881TIP3    H2 8608   1.907   5.984   2.234  0.1567  2.4169  0.1308
 2882TIP3   OH2 8609   6.560   4.406   4.792  0.7827  0.0572 -0.3251
 2882TIP3    H1 8610   6.637   4.444   4.750  1.7781 -1.8344 -0.3146
 2882TIP3    H2 8611   6.592   4.372   4.875 -0.4132  0.6112  0.3750
 2883TIP3   OH2 8612   5.954   5.430   3.236 -0.9726  0.5836  0.2548
 2883TIP3    H1 8613   5.996   5.497   3.182  0.9397 -0.5712  0.2274
 2883TIP3    H2 8614   5.900   5.380   3.175 -1.1910  1.1329 -0.0059
 2884TIP3   OH2 8615   4.674   5.401   2.181 -0.4529 -0.1664  0.2135
 2884TIP3    H1 8616   4.617   5.325   2.175  1.3437 -1.4835 -0.9742
 2884TIP3    H2 8617   4.614   5.476   2.178 -2.4766 -1.4126  3.3241
 2885TIP3   OH2 8618   6.273   6.636   0.043  0.3360  0.6558  0.5181
 2885TIP3    H1 8619   6.203   6.585   0.003  0.4307  0.3055  0.7879
 2885TIP3    H2 8620   6.333   6.570   0.078  1.2263  0.9270 -0.4208
 2886TIP3   OH2 8621   6.204   4.853   5.324  0.0324  0.6121 -0.2269
 2886TIP3    H1 8622   6.130   4.810   5.281  0.1407  0.3367 -0.1343
 2886TIP3    H2 8623   6.279   4.796   5.307  0.1453  0.6856  0.0215
 2887TIP3   OH2 8624   3.338   3.124   0.534  0.1481  0.4027  0.4616
 2887TIP3    H1 8625   3.278   3.054   0.560  0.8232 -0.8814 -1.1970
 2887TIP3    H2 8626   3.422   3.098   0.571  0.7293 -0.5237 -1.3675
 2888TIP3   OH2 8627   3.718   0.091   1.284  0.4015  0.1494  0.4091
 2888TIP3    H1 8628   3.770   0.126   1.356  1.6708 -0.9943  0.0692
 2888TIP3    H2 8629   3.722   0.159   1.216 -0.2107  0.9152  1.1049
 2889TIP3   OH2 8630   6.102   5.528   0.979 -0.3756  0.2696 -0.3295
 2889TIP3    H1 8631   6.051   5.609   0.972  0.1510  0.5965 -0.4921
 2889TIP3    H2 8632   6.126   5.523   1.071 -0.5032  0.2409 -0.2980
 2890TIP3   OH2 8633   5.405   3.413   0.606 -0.0531  0.2813 -0.0349
 2890TIP3    H1 8634   5.371   3.328   0.580  0.0237  0.2191  0.0679
 2890TIP3    H2 8635   5.327   3.463   0.632  0.0734 -0.4200  1.8315
 2891TIP3   OH2 8636   3.837   5.077   1.598  0.3390 -0.0451 -0.1215
 2891TIP3    H1 8637   3.927   5.086   1.569  0.1675 -0.2805 -0.7298
 2891TIP3    H2 8638   3.836   4.994   1.647  1.0497  1.2153  2.2241
 2892TIP3   OH2 8639   2.700   4.363   5.806 -0.0330  0.2980  0.0250
 2892TIP3    H1 8640   2.666   4.329   5.889 -1.7345 -0.3079 -0.8748
 2892TIP3    H2 8641   2.788   4.393   5.827 -0.0760 -0.6959  1.8385
 2893TIP3   OH2 8642   3.313   3.781   1.212 -0.6046 -0.5804 -0.3795
 2893TIP3    H1 8643   3.342   3.847   1.148 -0.8977  1.4069  1.4143
 2893TIP3    H2 8644   3.227   3.810   1.240 -0.2816 -1.0944  1.2716
 2894TIP3   OH2 8645   6.248   5.559   1.896  0.1703  0.4253 -0.2152
 2894TIP3    H1 8646   6.329   5.580   1.944 -0.9459  0.3895  1.8123
 2894TIP3    H2 8647   6.206   5.492   1.950 -1.1304  0.3164 -1.3312
 2895TIP3   OH2 8648   5.381   2.762   0.034 -0.0229 -0.9569 -0.3128
 2895TIP3    H1 8649   5.457   2.789  -0.018  0.9829 -0.4932  1.3216
 2895TIP3    H2 8650   5.309   2.813  -0.000  0.6847 -0.3903 -1.0018
 2896TIP3   OH2 8651   4.739   1.383   2.843  0.4137 -0.6965  0.4009
 2896TIP3    H1 8652   4.814   1.351   2.895  2.9949 -1.0793 -3.1985
 2896TIP3    H2 8653   4.733   1.323   2.770 -1.4002  1.1854 -1.1210
 2897TIP3   OH2 8654   2.335   0.114   3.474  0.1884  0.4512 -0.6190
 2897TIP3    H1 8655   2.247   0.090   3.504  0.7054 -0.8574 -0.0488
 2897TIP3    H2 8656   2.323   0.141   3.383 -0.7894  0.1625 -0.5909
 2898TIP3   OH2 8657   0.521   5.776   0.856 -0.3348  0.1745 -0.3069
 2898TIP3    H1 8658   0.501   5.861   0.896 -0.0992  0.4855 -0.8417
 2898TIP3    H2 8659   0.531   5.795   0.763 -0.6801 -0.5133 -0.4905
 2899TIP3   OH2 8660   5.968   5.760   2.782  0.1969  0.3150  0.1502
 2899TIP3    H1 8661   6.001   5.825   2.843  0.7052  1.8545 -1.6825
 2899TIP3    H2 8662   5.973   5.802   2.696 -0.7077 -1.6701 -0.9513
 2900TIP3   OH2 8663   1.522   0.650   2.085 -0.3757 -0.7592 -0.1680
 2900TIP3    H1 8664   1.464   0.699   2.026 -1.1511  0.2928  1.3915
 2900TIP3    H2 8665   1.536   0.566   2.040  1.1098  0.8678 -3.0058
 2901TIP3   OH2 8666   1.685   1.853   1.778  0.3744  0.4943  0.2882
 2901TIP3    H1 8667   1.698   1.819   1.867  1.1148  0.2788  0.1043
 2901TIP3    H2 8668   1.741   1.930   1.773  0.5819  0.3245 -0.0903
 2902TIP3   OH2 8669   1.398   1.021   1.967  0.4141  0.6699 -0.4886
 2902TIP3    H1 8670   1.493   1.011   1.960  0.6121  1.2934  0.8778
 2902TIP3    H2 8671   1.366   1.015   1.877  1.7295  0.3293 -0.9566
 2903TIP3   OH2 8672   0.471   5.977   1.288 -0.0131  0.2921 -0.4190
 2903TIP3    H1 8673   0.534   5.966   1.360 -0.1739  2.0276  0.0426
 2903TIP3    H2 8674   0.415   5.900   1.293  2.4324 -1.6920 -1.2841
 2904TIP3   OH2 8675   6.561   0.737   3.816 -0.3920  0.0408  0.0370
 2904TIP3    H1 8676   6.635   0.777   3.861 -1.0078  0.3033  0.8378
 2904TIP3    H2 8677   6.594   0.715   3.729  0.7756 -0.3330  0.5574
 2905TIP3   OH2 8678   2.371   0.560   2.886 -0.0582  0.0857 -0.1121
 2905TIP3    H1 8679   2.313   0.513   2.825 -0.2904  0.4550 -0.1760
 2905TIP3    H2 8680   2.322   0.638   2.911  0.0544 -0.0367  0.5186
 2906TIP3   OH2 8681   2.514   6.071   5.334  0.9805 -0.2671 -0.4147
 2906TIP3    H1 8682   2.544   5.991   5.291  0.5396 -0.2086 -0.8372
 2906TIP3    H2 8683   2.591   6.128   5.336  0.9307 -0.1516 -1.4094
 2907TIP3   OH2 8684   0.932   4.979   5.073 -0.0186  0.3295  0.1481
 2907TIP3    H1 8685   0.953   4.893   5.110  2.7815  0.8533 -0.0124
 2907TIP3    H2 8686   0.881   4.959   4.994  1.5715 -1.3093 -0.5382
 2908TIP3   OH2 8687   4.516   2.598   2.732 -0.0392 -0.3098  0.2134
 2908TIP3    H1 8688   4.597   2.579   2.779  0.5519 -0.0017 -0.6446
 2908TIP3    H2 8689   4.509   2.694   2.734 -0.3341 -0.3308  0.2163
 2909TIP3   OH2 8690   4.474   4.590   3.529  0.3483 -0.8585 -0.0834
 2909TIP3    H1 8691   4.525   4.573   3.449  0.1048 -1.4278 -0.1212
 2909TIP3    H2 8692   4.465   4.504   3.570 -2.2831 -1.1349 -1.0868
 2910TIP3   OH2 8693   2.746   3.677   2.473 -0.3455  0.0768 -0.1398
 2910TIP3    H1 8694   2.712   3.613   2.411 -1.2438 -0.7645  1.1789
 2910TIP3    H2 8695   2.701   3.658   2.555  1.3881  0.6283  1.0027
 2911TIP3   OH2 8696   2.742   3.721   5.852 -0.2416  0.1721  0.0820
 2911TIP3    H1 8697   2.769   3.647   5.797  0.1279  0.8047 -0.6108
 2911TIP3    H2 8698   2.820   3.777   5.855 -0.7699  0.9198 -0.0558
 2912TIP3   OH2 8699   6.551   5.995   5.856  0.0267  0.2225  0.6247
 2912TIP3    H1 8700   6.524   5.907   5.832 -1.2118  1.1854 -1.8704
 2912TIP3    H2 8701   6.641   5.985   5.888  0.7930 -1.6740 -1.8217
 2913TIP3   OH2 8702   5.612   6.079   3.026  0.1245 -0.2855 -0.3631
 2913TIP3    H1 8703   5.527   6.107   3.060  0.2474 -1.2921  0.8467
 2913TIP3    H2 8704   5.669   6.155   3.036 -0.5669  0.3208 -0.9705
 2914TIP3   OH2 8705   6.537   0.497   3.051  0.5649 -0.3651  0.0387
 2914TIP3    H1 8706   6.581   0.449   2.981  0.6306 -0.4405  0.1321
 2914TIP3    H2 8707   6.586   0.475   3.130  1.7413  1.3201 -0.1891
 2915TIP3   OH2 8708   6.012   0.243   0.818  0.2255 -0.6197 -0.3917
 2915TIP3    H1 8709   5.981   0.176   0.757  2.8863 -2.6210  0.2535
 2915TIP3    H2 8710   6.020   0.197   0.901  0.6227  0.9596  0.4762
 2916TIP3   OH2 8711   6.459   3.371   1.079 -0.2884 -0.8160 -0.1206
 2916TIP3    H1 8712   6.519   3.445   1.068 -0.6124 -0.7181 -1.4355
 2916TIP3    H2 8713   6.424   3.381   1.167 -0.7189  0.9216 -0.4579
 2917TIP3   OH2 8714   6.793   1.477   2.946 -0.1764  0.5677 -0.6234
 2917TIP3    H1 8715   6.779   1.461   2.852  0.7127  0.5154 -0.7594
 2917TIP3    H2 8716   6.766   1.567   2.960  0.9217  1.0093 -1.2174
 2918TIP3   OH2 8717   5.510   4.607   3.578  0.2602  0.0629  0.0033
 2918TIP3    H1 8718   5.423   4.647   3.575 -0.5279 -1.5988 -2.8939
 2918TIP3    H2 8719   5.564   4.664   3.523  0.9968  0.8693  1.4783
 2919TIP3   OH2 8720   4.633   4.105   2.471 -0.4301 -0.2112 -0.0574
 2919TIP3    H1 8721   4.620   4.197   2.493 -2.1273 -0.6458  0.9633
 2919TIP3    H2 8722   4.677   4.068   2.548  0.2098 -0.2651 -0.4466
 2920TIP3   OH2 8723   0.420   1.670   0.846 -0.2416 -0.5459 -0.0096
 2920TIP3    H1 8724   0.376   1.695   0.928 -0.5866 -2.3553  0.3820
 2920TIP3    H2 8725   0.378   1.724   0.779 -0.2702  0.6375  0.9202
 2921TIP3   OH2 8726   1.928   1.300   2.887  0.0103 -0.1637 -0.2301
 2921TIP3    H1 8727   1.854   1.243   2.869  0.7996 -1.5192  0.6582
 2921TIP3    H2 8728   1.891   1.373   2.937 -0.7035 -0.8650  0.2712
 2922TIP3   OH2 8729   5.137   5.394   0.975  0.5097 -0.3349 -0.5756
 2922TIP3    H1 8730   5.076   5.322   0.992  0.8138 -0.3906  0.3591
 2922TIP3    H2 8731   5.082   5.466   0.946 -0.2565  0.1277  1.7801
 2923TIP3   OH2 8732   5.207   2.765   4.273 -0.1914 -0.1730 -0.1769
 2923TIP3    H1 8733   5.234   2.701   4.207 -1.2682 -0.3064 -0.4969
 2923TIP3    H2 8734   5.114   2.780   4.256 -0.0661  1.1293  0.1879
 2924TIP3   OH2 8735   3.591   1.926   0.119 -0.5462 -0.2918 -0.2901
 2924TIP3    H1 8736   3.518   1.984   0.141  1.3625  2.2283 -0.1857
 2924TIP3    H2 8737   3.654   1.939   0.189  1.0460 -0.5041 -1.6295
 2925TIP3   OH2 8738   6.474   0.597   0.440 -0.8360  1.1796  0.5487
 2925TIP3    H1 8739   6.552   0.594   0.495 -0.7793 -0.0686  0.4167
 2925TIP3    H2 8740   6.506   0.626   0.355 -0.2334 -0.6929  0.0899
 2926TIP3   OH2 8741   3.080   5.896   0.129  0.3165 -0.3415  0.1327
 2926TIP3    H1 8742   3.135   5.954   0.078 -1.5400  0.9048 -0.5725
 2926TIP3    H2 8743   3.019   5.859   0.066 -1.7292  0.8575  1.2938
 2927TIP3   OH2 8744   3.438   1.322   2.003 -0.6721 -0.0307  0.0459
 2927TIP3    H1 8745   3.496   1.398   2.003 -1.2100  0.4268 -1.2700
 2927TIP3    H2 8746   3.354   1.357   1.974 -1.1619 -0.9785  0.2922
 2928TIP3   OH2 8747   6.939   5.511   5.765 -0.5461 -0.3954 -1.0747
 2928TIP3    H1 8748   6.880   5.539   5.834 -0.5619 -1.5667 -0.5995
 2928TIP3    H2 8749   6.969   5.424   5.792  4.0592  1.3542  0.5154
 2929TIP3   OH2 8750   0.263   1.868   0.413 -0.1793 -0.1924 -0.0550
 2929TIP3    H1 8751   0.234   1.861   0.504 -2.5325 -1.1511 -0.8094
 2929TIP3    H2 8752   0.212   1.940   0.376 -1.3943 -1.6334 -1.3212
 2930TIP3   OH2 8753   2.171   4.233   2.440  0.4483 -0.6058 -0.4194
 2930TIP3    H1 8754   2.238   4.283   2.487 -0.4290  0.0245  0.2079
 2930TIP3    H2 8755   2.154   4.283   2.361  1.6911 -1.4952 -1.2801
 2931TIP3   OH2 8756   6.982   3.984   3.707  0.2712  0.0739  0.6069
 2931TIP3    H1 8757   7.011   3.946   3.624 -1.0749 -1.8959  0.9848
 2931TIP3    H2 8758   7.004   3.918   3.773  2.1148  1.9571  2.0347
 2932TIP3   OH2 8759   0.515   3.461   5.368 -0.0240  0.2911 -0.0163
 2932TIP3    H1 8760   0.482   3.481   5.455  0.4868 -2.0496  0.7957
 2932TIP3    H2 8761   0.589   3.402   5.383  0.8538  0.7898 -1.9968
 2933TIP3   OH2 8762   1.515   4.582   5.826  0.2540 -1.0046 -0.2706
 2933TIP3    H1 8763   1.606   4.561   5.807  0.6195  0.4904 -0.3153
 2933TIP3    H2 8764   1.472   4.579   5.741  0.5146 -0.5589 -0.4187
 2934TIP3   OH2 8765   1.058   5.682   5.144 -0.5222  0.2556  0.2825
 2934TIP3    H1 8766   1.103   5.719   5.068 -1.5138  0.6073 -0.1488
 2934TIP3    H2 8767   1.024   5.757   5.192  1.6197  0.1738  2.1227
 2935TIP3   OH2 8768   2.078   3.425   1.204 -0.2888  0.2222 -0.0422
 2935TIP3    H1 8769   1.986   3.397   1.202 -1.0007  2.2746  1.1188
 2935TIP3    H2 8770   2.078   3.501   1.262  2.0577  0.6421 -0.5208
 2936TIP3   OH2 8771   1.242   2.611   5.013 -0.1110  0.6319 -0.5550
 2936TIP3    H1 8772   1.154   2.646   5.029 -0.9373 -1.0068 -1.1563
 2936TIP3    H2 8773   1.231   2.516   5.021  1.2157  0.2737 -2.2742
 2937TIP3   OH2 8774   7.040   1.732   0.585  0.4811  0.2611 -0.1170
 2937TIP3    H1 8775   7.029   1.703   0.494  2.5089 -1.5264  0.1413
 2937TIP3    H2 8776   6.963   1.786   0.602 -0.7549 -0.6591 -2.3851
 2938TIP3   OH2 8777   4.806   5.827   5.661  0.1507 -0.4048  1.1095
 2938TIP3    H1 8778   4.790   5.880   5.740 -1.4314  0.4825  0.2465
 2938TIP3    H2 8779   4.736   5.762   5.661 -0.7132  0.4888 -0.2679
 2939TIP3   OH2 8780   3.860   3.760   2.230 -0.0391  0.1820  0.2970
 2939TIP3    H1 8781   3.813   3.844   2.234  1.3018  0.9469  0.6450
 2939TIP3    H2 8782   3.811   3.708   2.167 -1.9502  0.5598  1.3890
 2940TIP3   OH2 8783   5.505   4.185   0.256  0.1848 -0.6101 -0.6237
 2940TIP3    H1 8784   5.563   4.256   0.231  1.1802 -1.1169  0.1914
 2940TIP3    H2 8785   5.495   4.193   0.351  0.6998 -1.8257 -0.4425
 2941TIP3   OH2 8786   0.132   4.515   2.779 -0.1477 -0.2012 -0.0528
 2941TIP3    H1 8787   0.097   4.448   2.836 -1.1898  1.1615  0.9821
 2941TIP3    H2 8788   0.175   4.467   2.708 -1.7694 -1.9412  0.0759
 2942TIP3   OH2 8789   1.671   4.636   2.863  0.2746  0.4218 -0.2954
 2942TIP3    H1 8790   1.763   4.620   2.843  0.1211 -0.4128 -0.3760
 2942TIP3    H2 8791   1.631   4.659   2.779  0.6651  2.1201 -0.0390
 2943TIP3   OH2 8792   6.215   4.647   0.414 -0.2587  0.2519 -0.6120
 2943TIP3    H1 8793   6.160   4.642   0.336 -0.8484 -0.4764 -0.1598
 2943TIP3    H2 8794   6.163   4.606   0.483  1.1130 -1.1086 -0.3293
 2944TIP3   OH2 8795   3.046   5.536   2.998 -0.5170 -0.6175  0.1462
 2944TIP3    H1 8796   3.109   5.538   3.070  0.3121 -3.3202 -0.4116
 2944TIP3    H2 8797   2.966   5.499   3.037 -1.1377  0.8899  0.3680
 2945TIP3   OH2 8798   2.863   2.793   5.317  0.0157  0.1423 -0.0817
 2945TIP3    H1 8799   2.804   2.805   5.391 -1.1012  0.5397 -0.9997
 2945TIP3    H2 8800   2.897   2.880   5.298  1.3755 -0.1755  0.8024
 2946TIP3   OH2 8801   6.535   5.285   1.091  0.1777  0.6581  0.6185
 2946TIP3    H1 8802   6.510   5.308   1.181 -0.6384  0.2514  0.5014
 2946TIP3    H2 8803   6.505   5.359   1.038  0.1363  0.6296  0.6027
 2947TIP3   OH2 8804   2.378   2.749   0.683 -0.1248  0.4296  0.4410
 2947TIP3    H1 8805   2.449   2.782   0.629 -0.8729  2.0251  0.3834
 2947TIP3    H2 8806   2.304   2.739   0.622 -0.8027  1.6813  1.0313
 2948TIP3   OH2 8807   2.855   2.931   0.654  0.5958 -0.1314  0.0143
 2948TIP3    H1 8808   2.793   3.003   0.662  1.5035  0.6280  0.4045
 2948TIP3    H2 8809   2.856   2.911   0.560  1.4596  1.3983 -0.3270
 2949TIP3   OH2 8810   2.467   5.192   1.854  0.3875  0.5561 -0.4973
 2949TIP3    H1 8811   2.495   5.101   1.865  0.5659  0.8523  2.0011
 2949TIP3    H2 8812   2.531   5.244   1.903 -0.5103  1.8934 -0.6711
 2950TIP3   OH2 8813   4.638   2.220   0.851 -0.1137  0.5127  0.5037
 2950TIP3    H1 8814   4.674   2.156   0.913  1.1049  1.3859  0.7415
 2950TIP3    H2 8815   4.652   2.180   0.765 -0.8298 -0.2320  0.7245
 2951TIP3   OH2 8816   1.701   3.017   5.143 -0.0397 -0.1631 -0.7669
 2951TIP3    H1 8817   1.777   2.975   5.105  1.8816  1.3037  1.1724
 2951TIP3    H2 8818   1.684   3.092   5.086  0.0298 -0.4336 -1.1459
 2952TIP3   OH2 8819   6.682   2.555   3.685 -0.2913 -0.0712 -0.0861
 2952TIP3    H1 8820   6.730   2.577   3.605 -1.5366  1.7234 -0.4093
 2952TIP3    H2 8821   6.741   2.498   3.734  1.7140  1.1460 -0.9575
 2953TIP3   OH2 8822   4.999   2.228   2.475 -0.1955  0.3744 -0.6023
 2953TIP3    H1 8823   5.087   2.223   2.512  0.5790 -0.4071 -2.4050
 2953TIP3    H2 8824   4.964   2.311   2.507  0.4904 -0.1117  1.5827
 2954TIP3   OH2 8825   6.216   5.439   1.210  0.0268  0.5299  0.4940
 2954TIP3    H1 8826   6.140   5.381   1.198  0.0793  0.6441 -0.4470
 2954TIP3    H2 8827   6.258   5.406   1.290  0.2607 -0.9616 -0.2101
 2955TIP3   OH2 8828   1.498   1.616   0.410  0.1452 -0.0395  0.3409
 2955TIP3    H1 8829   1.493   1.686   0.475  0.4323 -0.4511  0.8212
 2955TIP3    H2 8830   1.560   1.553   0.448 -0.7997 -0.9889  0.3500
 2956TIP3   OH2 8831   6.017   4.447   2.004 -0.2079  0.7064  0.2415
 2956TIP3    H1 8832   6.107   4.422   2.026 -0.3264  0.1284  0.0901
 2956TIP3    H2 8833   6.026   4.522   1.945  0.2632 -0.8612 -1.7945
 2957TIP3   OH2 8834   5.246   5.739   3.816  0.2618 -0.0460  0.7934
 2957TIP3    H1 8835   5.263   5.807   3.750 -1.0229 -0.6435 -0.1854
 2957TIP3    H2 8836   5.162   5.764   3.855 -0.3155 -1.1560  0.2913
 2958TIP3   OH2 8837   5.519   4.047   0.844  0.6977 -0.2412 -0.3908
 2958TIP3    H1 8838   5.524   4.067   0.937  0.1191  0.5185 -0.5134
 2958TIP3    H2 8839   5.432   4.011   0.832  1.0656 -1.1134 -0.5048
 2959TIP3   OH2 8840   2.824   1.512   0.835  0.0310 -0.3926  0.1690
 2959TIP3    H1 8841   2.737   1.534   0.869 -0.3630 -1.9209  0.2070
 2959TIP3    H2 8842   2.882   1.518   0.911 -0.1796 -0.1509  0.3118
 2960TIP3   OH2 8843   3.790   6.444   4.022  0.2325 -0.5909 -0.4236
 2960TIP3    H1 8844   3.884   6.458   4.016 -0.0097  0.9907 -1.0919
 2960TIP3    H2 8845   3.753   6.496   3.950 -1.4174  2.2375  2.1977
 2961TIP3   OH2 8846   3.305   3.197   4.546  0.4478  0.2121  0.1820
 2961TIP3    H1 8847   3.323   3.283   4.584 -0.4756  0.2517  0.5371
 2961TIP3    H2 8848   3.242   3.214   4.477 -0.2743 -0.2657  0.7170
 2962TIP3   OH2 8849   0.570   3.285   0.312  0.4896 -0.0407 -0.1440
 2962TIP3    H1 8850   0.508   3.312   0.245 -0.7192  0.8008  1.2492
 2962TIP3    H2 8851   0.598   3.197   0.285  0.2229  0.3618 -1.8417
 2963TIP3   OH2 8852   4.175   5.807   3.232  0.5184  0.5313  0.2381
 2963TIP3    H1 8853   4.250   5.831   3.286  1.2059  1.1162 -0.9434
 2963TIP3    H2 8854   4.206   5.733   3.179 -0.3046 -0.3637  0.9609
 2964TIP3   OH2 8855   2.596   3.995   5.839  0.3500  0.1894 -0.4815
 2964TIP3    H1 8856   2.634   3.907   5.835 -0.6073 -0.2432 -0.1749
 2964TIP3    H2 8857   2.522   3.993   5.778  0.0867  0.6644 -0.1847
 2965TIP3   OH2 8858   0.568   4.543   2.564  0.0419  0.4165 -0.0039
 2965TIP3    H1 8859   0.540   4.544   2.655 -0.1766 -0.4567 -0.0492
 2965TIP3    H2 8860   0.634   4.612   2.559  1.3684 -0.6903  1.2558
 2966TIP3   OH2 8861   2.771   5.246   1.012 -0.0561  0.5280  0.6751
 2966TIP3    H1 8862   2.783   5.195   0.932 -0.9986  0.0812  0.8169
 2966TIP3    H2 8863   2.767   5.337   0.982  1.4516  0.5386  0.4083
 2967TIP3   OH2 8864   4.934   3.717   0.366  0.4885 -0.0880 -0.0301
 2967TIP3    H1 8865   4.913   3.624   0.378  0.4647  0.0042  0.6830
 2967TIP3    H2 8866   4.892   3.741   0.284 -2.3030  0.1189  1.3327
 2968TIP3   OH2 8867   3.039   2.784   3.864 -0.0466 -0.0468  0.3198
 2968TIP3    H1 8868   3.002   2.788   3.953  0.3635 -2.0947  0.6354
 2968TIP3    H2 8869   3.011   2.866   3.823 -0.4842  0.8297  2.2389
 2969TIP3   OH2 8870   1.725   6.111   1.609  0.0055  0.3351 -0.0646
 2969TIP3    H1 8871   1.775   6.184   1.571  0.3161  0.1391 -0.0351
 2969TIP3    H2 8872   1.790   6.042   1.623 -0.5380 -0.5063 -1.4836
 2970TIP3   OH2 8873   0.389   5.589   1.458  0.2404 -0.5895  0.1163
 2970TIP3    H1 8874   0.474   5.570   1.498  0.3069 -2.2130 -0.7002
 2970TIP3    H2 8875   0.355   5.664   1.506  0.1683 -2.5640  3.4034
 2971TIP3   OH2 8876   2.452   6.022   3.165 -0.0915 -0.2224 -0.1696
 2971TIP3    H1 8877   2.522   5.984   3.112 -0.6180  1.1228 -1.9379
 2971TIP3    H2 8878   2.372   5.979   3.134 -0.3271  0.0686  0.0244
 2972TIP3   OH2 8879   3.937   5.928   5.819 -0.6437 -0.0494 -0.2103
 2972TIP3    H1 8880   3.993   6.001   5.793  1.1119 -1.1506  0.2685
 2972TIP3    H2 8881   3.868   5.968   5.872  0.2928  1.2479  0.0802
 2973TIP3   OH2 8882   0.640   1.912   1.997  0.6385 -0.7739  0.3404
 2973TIP3    H1 8883   0.576   1.871   2.055  1.6658 -2.1125  0.6006
 2973TIP3    H2 8884   0.648   2.002   2.028 -2.9909  0.3414 -1.3231
 2974TIP3   OH2 8885   3.323   2.948   4.675  0.6449 -0.3612 -0.1585
 2974TIP3    H1 8886   3.267   2.962   4.751  0.8386 -1.9960  0.3326
 2974TIP3    H2 8887   3.335   3.035   4.637 -1.5595  0.1469  0.1837
 2975TIP3   OH2 8888   6.877   0.731   3.077 -0.3929  0.0007  0.0503
 2975TIP3    H1 8889   6.919   0.760   2.996 -2.9812 -1.3856 -1.9223
 2975TIP3    H2 8890   6.826   0.806   3.106  0.7067  0.5710  0.5852
 2976TIP3   OH2 8891   6.193   5.783   0.193  0.0065 -0.4901 -0.2249
 2976TIP3    H1 8892   6.129   5.724   0.233  0.9475 -0.5371  1.2655
 2976TIP3    H2 8893   6.189   5.763   0.100 -1.6495 -0.9712 -0.0756
 2977TIP3   OH2 8894   0.035   0.829   5.244  0.3547  0.1035 -0.6948
 2977TIP3    H1 8895  -0.041   0.884   5.229  1.4086  2.4921  1.8264
 2977TIP3    H2 8896   0.102   0.863   5.185  0.4784  0.2896 -0.4454
 2978TIP3   OH2 8897   2.624   1.654   0.987  0.0292 -0.1648 -0.3428
 2978TIP3    H1 8898   2.605   1.670   1.080 -1.2709 -2.0053 -0.2516
 2978TIP3    H2 8899   2.657   1.738   0.955  2.1006  0.0991  2.1475
 2979TIP3   OH2 8900   3.798   0.193   3.397 -0.0879  0.2812  0.2424
 2979TIP3    H1 8901   3.859   0.266   3.409  0.9717 -0.6095  0.3745
 2979TIP3    H2 8902   3.826   0.152   3.315  0.3709 -0.9550  0.9972
 2980TIP3   OH2 8903   6.491   2.111   2.414 -0.4197 -0.0015  0.2924
 2980TIP3    H1 8904   6.480   2.162   2.494  0.5871  0.2358  0.2915
 2980TIP3    H2 8905   6.480   2.175   2.343  0.0878  0.0717  0.2763
 2981TIP3   OH2 8906   0.915   6.343   1.017 -0.0453  0.0548 -0.2642
 2981TIP3    H1 8907   0.845   6.375   0.959 -0.8076 -0.7318  0.1916
 2981TIP3    H2 8908   0.918   6.407   1.088  2.3794  2.2645 -2.1476
 2982TIP3   OH2 8909   2.295   3.790   1.902 -0.3401 -0.1370 -1.0340
 2982TIP3    H1 8910   2.320   3.715   1.847 -1.7928 -0.2474 -1.5892
 2982TIP3    H2 8911   2.373   3.846   1.903  1.0839 -2.0417  0.1169
 2983TIP3   OH2 8912   1.845   4.978   2.624  0.0661 -0.3772 -0.2076
 2983TIP3    H1 8913   1.797   4.998   2.544 -1.7645  0.0586  0.9370
 2983TIP3    H2 8914   1.847   4.882   2.628 -0.7202 -0.4049 -0.2958
 2984TIP3   OH2 8915   6.445   6.160   0.393  1.0799  0.0578 -0.2642
 2984TIP3    H1 8916   6.501   6.222   0.348 -0.0698  1.7058  0.4471
 2984TIP3    H2 8917   6.463   6.175   0.486 -0.3683  0.5371 -0.0247
 2985TIP3   OH2 8918   4.056   4.183   2.762  0.0106 -0.2537 -0.3642
 2985TIP3    H1 8919   3.986   4.235   2.800  1.5721  1.4170  0.3796
 2985TIP3    H2 8920   4.133   4.205   2.814  1.6597  0.0172 -2.7673
 2986TIP3   OH2 8921   4.535   0.486   0.883  0.1160  0.0631 -0.5873
 2986TIP3    H1 8922   4.440   0.475   0.884  0.1820 -0.6516  0.6757
 2986TIP3    H2 8923   4.552   0.552   0.816 -1.2595  0.1154 -0.9000
 2987TIP3   OH2 8924   3.703   1.941   5.014 -0.8002 -0.7765  0.2914
 2987TIP3    H1 8925   3.790   1.919   4.980 -0.9107  0.8027 -1.1047
 2987TIP3    H2 8926   3.679   1.864   5.066  2.3526 -0.3790  2.6725
 2988TIP3   OH2 8927   0.826   4.877   3.580 -0.4286  0.5657  0.0774
 2988TIP3    H1 8928   0.754   4.867   3.642  0.1986  0.0076  0.7339
 2988TIP3    H2 8929   0.809   4.810   3.513 -0.2268  0.0698  0.5208
 2989TIP3   OH2 8930   6.826   1.869   1.152  1.0983 -0.2850  0.2343
 2989TIP3    H1 8931   6.869   1.786   1.128  2.1871 -0.0116  1.1978
 2989TIP3    H2 8932   6.897   1.924   1.186  0.2349  0.7428  0.4049
 2990TIP3   OH2 8933   3.020   5.567   3.544 -0.3471 -0.1519  0.0817
 2990TIP3    H1 8934   2.933   5.599   3.523 -1.3555 -1.0062  2.5491
 2990TIP3    H2 8935   3.070   5.646   3.564 -0.5768  0.3355 -1.2073
 2991TIP3   OH2 8936   0.761   1.480   3.397  0.1372 -0.0810  0.0859
 2991TIP3    H1 8937   0.802   1.533   3.466 -1.0117 -0.1303  0.8232
 2991TIP3    H2 8938   0.768   1.535   3.318 -0.9125  1.1546  0.8095
 2992TIP3   OH2 8939   3.070   1.539   3.777 -0.0444 -0.0482 -0.2803
 2992TIP3    H1 8940   3.156   1.574   3.755 -0.3881  0.9115 -0.1779
 2992TIP3    H2 8941   3.076   1.445   3.759  1.2668 -0.1397  0.5167
 2993TIP3   OH2 8942   4.212   2.097   3.079 -0.4526  0.2790 -0.5444
 2993TIP3    H1 8943   4.304   2.120   3.094 -0.4794  0.5735 -0.8217
 2993TIP3    H2 8944   4.166   2.133   3.156 -0.2682 -0.3274 -0.1468
 2994TIP3   OH2 8945   3.150   4.944   0.392 -0.0951  0.3300 -0.2506
 2994TIP3    H1 8946   3.219   4.974   0.450  0.5157  0.5589 -1.0811
 2994TIP3    H2 8947   3.073   4.935   0.448  0.3272  1.1309  0.4622
 2995TIP3   OH2 8948   6.742   4.903   3.666 -0.4214 -0.6102 -0.1210
 2995TIP3    H1 8949   6.699   4.848   3.601  0.8236 -0.1685 -1.3683
 2995TIP3    H2 8950   6.825   4.858   3.684  0.0621  0.2256 -0.2336
 2996TIP3   OH2 8951   6.807   1.128   0.730  0.3260  0.0846 -0.2128
 2996TIP3    H1 8952   6.756   1.170   0.660  1.7684  1.1079 -0.7033
 2996TIP3    H2 8953   6.831   1.200   0.788  1.4962 -0.3008 -0.1974
 2997TIP3   OH2 8954   1.076   4.297   0.150  0.4607  0.1065 -0.4811
 2997TIP3    H1 8955   1.040   4.381   0.180 -0.1150 -0.4760  0.5390
 2997TIP3    H2 8956   1.147   4.279   0.211  0.4662 -0.2252 -0.5868
 2998TIP3   OH2 8957   2.500   6.002   0.094 -0.0447  0.1607 -0.1628
 2998TIP3    H1 8958   2.516   5.913   0.128  1.6776  0.9158  1.2067
 2998TIP3    H2 8959   2.585   6.045   0.101 -0.4118  1.4121 -2.5017
 2999TIP3   OH2 8960   6.895   3.589   5.024 -0.4669 -0.1713  0.4180
 2999TIP3    H1 8961   6.903   3.658   4.958 -1.9213 -1.0070 -0.6880
 2999TIP3    H2 8962   6.984   3.556   5.035  0.1627  1.5045  0.5753
 3000TIP3   OH2 8963   5.762   6.324   3.056  0.1870  0.1161  0.6992
 3000TIP3    H1 8964   5.854   6.351   3.051  0.4304 -0.8964 -2.0517
 3000TIP3    H2 8965   5.726   6.344   2.969 -1.8673 -0.6213  1.3181
 3001TIP3   OH2 8966   7.212   1.788   4.716 -0.1067  0.1622  0.1737
 3001TIP3    H1 8967   7.203   1.709   4.663 -1.2928  0.5216 -0.1852
 3001TIP3    H2 8968   7.183   1.859   4.658 -1.5737  0.5474  1.3357
 3002TIP3   OH2 8969   2.189   0.853   1.476 -0.5391 -0.3560  0.1767
 3002TIP3    H1 8970   2.112   0.797   1.478 -0.9025  0.1606  1.0998
 3002TIP3    H2 8971   2.160   0.935   1.516  0.7640 -0.5050  1.4831
 3003TIP3   OH2 8972   1.802   5.052   5.637 -0.2242  0.1548  0.6930
 3003TIP3    H1 8973   1.856   5.098   5.573 -2.1643  0.4494 -0.8069
 3003TIP3    H2 8974   1.729   5.018   5.587 -2.6079  1.6301  2.9379
 3004TIP3   OH2 8975   5.571   1.454   5.652 -0.0640 -0.1713  0.5912
 3004TIP3    H1 8976   5.655   1.480   5.616 -0.7129  0.4798 -0.5054
 3004TIP3    H2 8977   5.510   1.460   5.579 -1.1082 -0.4628  1.4003
 3005TIP3   OH2 8978   0.471   5.761   3.102  0.4209  0.4578  0.2952
 3005TIP3    H1 8979   0.456   5.709   3.181 -0.6504  0.1349 -0.1087
 3005TIP3    H2 8980   0.395   5.744   3.047 -0.1125  2.6559  0.2663
 3006TIP3   OH2 8981   6.364   0.734   4.033 -0.1328 -0.3967 -0.6681
 3006TIP3    H1 8982   6.341   0.827   4.044 -0.7378 -0.7792  1.8224
 3006TIP3    H2 8983   6.445   0.735   3.982  0.1953  1.5338 -0.1821
 3007TIP3   OH2 8984   2.326   3.461   1.876  0.2810 -0.2452  0.1359
 3007TIP3    H1 8985   2.418   3.462   1.849  0.6782 -2.5785  1.1679
 3007TIP3    H2 8986   2.329   3.450   1.971 -1.0748 -0.4723  0.1766
 3008TIP3   OH2 8987   3.029   4.733   2.423  0.1311  0.2793 -0.1626
 3008TIP3    H1 8988   3.066   4.695   2.344 -0.8946  0.3888 -0.7159
 3008TIP3    H2 8989   2.971   4.802   2.391  1.3318  1.7955  0.7767
 3009TIP3   OH2 8990   4.829   5.991   0.254 -0.5257 -0.3510  0.5700
 3009TIP3    H1 8991   4.835   5.899   0.226  1.0232 -0.4169  1.0245
 3009TIP3    H2 8992   4.820   5.987   0.349  3.5092 -0.0909  1.1529
 3010TIP3   OH2 8993   2.748   4.008   1.494  0.3649  0.0997  0.1095
 3010TIP3    H1 8994   2.668   4.038   1.451  1.1663  1.5360 -0.4354
 3010TIP3    H2 8995   2.776   3.933   1.442 -0.1823  0.0981 -0.1944
 3011TIP3   OH2 8996   1.138   6.421   4.620 -0.0976  0.2331 -0.4614
 3011TIP3    H1 8997   1.108   6.512   4.626  0.9342  0.6983 -1.6652
 3011TIP3    H2 8998   1.074   6.378   4.564  0.0411  0.5367 -0.8601
 3012TIP3   OH2 8999   1.400   0.077   4.113  0.4727  0.6423  0.0885
 3012TIP3    H1 9000   1.402   0.068   4.017  0.3712  2.2785 -0.0935
 3012TIP3    H2 9001   1.315   0.116   4.131  0.5952  0.5752  0.8272
 3013TIP3   OH2 9002   1.944   6.582   1.598 -0.0717  0.0464 -0.1732
 3013TIP3    H1 9003   1.939   6.628   1.682 -2.5824 -0.3330 -0.0293
 3013TIP3    H2 9004   1.900   6.639   1.536  1.4763  0.1693 -1.1902
 3014TIP3   OH2 9005   6.264   2.013   3.383  0.4300  0.4157 -0.5914
 3014TIP3    H1 9006   6.286   2.083   3.444 -0.5798 -0.1515  0.4526
 3014TIP3    H2 9007   6.229   1.943   3.438 -1.4299  0.2491 -1.8861
 3015TIP3   OH2 9008   0.868   5.159   2.985 -0.0445 -0.2018 -0.3746
 3015TIP3    H1 9009   0.865   5.113   3.069  0.5370  0.4589  0.0183
 3015TIP3    H2 9010   0.945   5.215   2.991  1.6192 -2.0746 -2.3819
 3016TIP3   OH2 9011   5.314   1.173   0.412 -0.2482 -0.7835 -0.3569
 3016TIP3    H1 9012   5.351   1.191   0.498  0.3416  1.0002 -0.9552
 3016TIP3    H2 9013   5.222   1.196   0.420 -0.0173  0.1947 -0.4181
 3017TIP3   OH2 9014   4.589   0.831   0.309  0.3748 -0.3344  0.6782
 3017TIP3    H1 9015   4.671   0.822   0.358  0.3636 -1.4721  0.5245
 3017TIP3    H2 9016   4.561   0.741   0.292 -0.1682  0.0276 -0.5086
 3018TIP3   OH2 9017   1.750   5.477   4.912  0.5888  0.0501 -0.3932
 3018TIP3    H1 9018   1.790   5.466   4.999  3.1268  2.2180 -1.1263
 3018TIP3    H2 9019   1.719   5.567   4.912  1.1516  0.2728 -1.8877
 3019TIP3   OH2 9020   6.201   5.159   4.793 -0.2703  0.0305 -0.4940
 3019TIP3    H1 9021   6.240   5.227   4.737  1.6193  0.0610  0.7662
 3019TIP3    H2 9022   6.153   5.208   4.860 -0.0452  0.0839 -0.3710
 3020TIP3   OH2 9023   1.281   5.541   4.424 -0.0257  0.4873  0.5363
 3020TIP3    H1 9024   1.303   5.448   4.417  0.0600  0.4950  0.6967
 3020TIP3    H2 9025   1.283   5.573   4.334  1.5168  0.6884  0.6039
 3021TIP3   OH2 9026   2.547   2.718   4.474  0.2209 -0.1219 -0.5113
 3021TIP3    H1 9027   2.625   2.662   4.469  0.0451 -0.4971  0.6183
 3021TIP3    H2 9028   2.480   2.661   4.511 -0.4752  0.3300 -1.0650
 3022TIP3   OH2 9029   3.350   3.725   4.538 -0.2000  0.2845  0.2813
 3022TIP3    H1 9030   3.343   3.631   4.555  0.7144  0.6227  3.1149
 3022TIP3    H2 9031   3.260   3.753   4.520 -0.3034 -1.2889 -2.0501
 3023TIP3   OH2 9032   2.369   1.865   1.604 -0.3046 -0.1267  0.3244
 3023TIP3    H1 9033   2.340   1.794   1.547 -0.6713  0.2958 -0.0112
 3023TIP3    H2 9034   2.435   1.824   1.661 -1.0024 -0.9028  0.5894
 3024TIP3   OH2 9035   0.361   2.597   0.315 -0.2793  0.1221 -0.1135
 3024TIP3    H1 9036   0.403   2.666   0.366  0.5549  0.6004 -1.3878
 3024TIP3    H2 9037   0.434   2.549   0.276 -0.8762 -0.8175 -0.1118
 3025TIP3   OH2 9038   2.772   2.205   4.102  0.0160 -0.6216 -1.2594
 3025TIP3    H1 9039   2.712   2.162   4.042 -2.5233  0.5347  0.3080
 3025TIP3    H2 9040   2.733   2.194   4.188  1.7008  0.7924 -0.2300
 3026TIP3   OH2 9041   3.852   6.374   3.712 -0.0265 -0.3982  0.0854
 3026TIP3    H1 9042   3.936   6.329   3.724  0.9116  1.1309 -0.4285
 3026TIP3    H2 9043   3.874   6.467   3.719 -1.4728  0.0769 -1.2875
 3027TIP3   OH2 9044   5.688   0.942   4.816  0.2830 -0.6922 -0.1511
 3027TIP3    H1 9045   5.740   0.866   4.844 -0.4673 -0.3312  2.4790
 3027TIP3    H2 9046   5.607   0.935   4.866  0.0782  1.6841 -0.0616
 3028TIP3   OH2 9047   4.403   3.240   2.115 -0.3336  0.1997 -0.1465
 3028TIP3    H1 9048   4.488   3.197   2.106 -0.0649  1.0824 -2.4742
 3028TIP3    H2 9049   4.356   3.187   2.179  2.7348  1.0257  3.1076
 3029TIP3   OH2 9050   4.625   2.147   2.801  0.3083  0.5247  0.8588
 3029TIP3    H1 9051   4.669   2.116   2.881  2.7259  0.9463 -0.2282
 3029TIP3    H2 9052   4.572   2.073   2.773  0.8442 -0.2668  1.8596
 3030TIP3   OH2 9053   1.873   1.106   0.234 -0.5247  0.1418 -0.0158
 3030TIP3    H1 9054   1.864   1.201   0.242 -3.3031  0.0430 -0.9479
 3030TIP3    H2 9055   1.905   1.092   0.145  0.3236  0.1920  0.2722
 3031TIP3   OH2 9056   3.239   0.492   5.132 -0.1846  0.0397 -0.4314
 3031TIP3    H1 9057   3.232   0.543   5.213  0.1030  1.5610 -1.3413
 3031TIP3    H2 9058   3.202   0.407   5.155  0.8710  0.0643  1.6103
 3032TIP3   OH2 9059   2.155   1.866   3.207 -0.1306  0.2396  0.0592
 3032TIP3    H1 9060   2.177   1.948   3.251  0.5444  0.3815 -0.5461
 3032TIP3    H2 9061   2.199   1.870   3.123  1.2096 -1.4131  0.6222
 3033TIP3   OH2 9062   6.997   1.985   2.410 -0.6455 -0.2654 -0.7316
 3033TIP3    H1 9063   6.985   1.927   2.485 -3.0692  1.2822  0.2254
 3033TIP3    H2 9064   7.008   2.072   2.449 -2.0369  0.5894 -2.0992
 3034TIP3   OH2 9065   3.790   5.538   2.465 -0.0693 -0.4082 -0.1198
 3034TIP3    H1 9066   3.790   5.584   2.381 -2.0623  0.9962  0.5628
 3034TIP3    H2 9067   3.882   5.523   2.485  0.5202  0.9229 -1.6577
 3035TIP3   OH2 9068   6.365   0.214   3.032 -0.3215  0.2367 -0.1994
 3035TIP3    H1 9069   6.332   0.303   3.040  0.4491  0.5709 -0.5702
 3035TIP3    H2 9070   6.421   0.202   3.109 -1.7347 -0.5388  0.7493
 3036TIP3   OH2 9071   0.830   2.333   1.944  0.0145 -0.2140  0.1050
 3036TIP3    H1 9072   0.876   2.264   1.991  0.1826 -0.7388 -0.7987
 3036TIP3    H2 9073   0.890   2.407   1.944 -0.7127  0.4604  2.2949
 3037TIP3   OH2 9074   0.097   2.556   2.323  0.1850 -0.3944 -0.3448
 3037TIP3    H1 9075   0.120   2.493   2.392 -0.6855  0.5482  0.8385
 3037TIP3    H2 9076   0.001   2.555   2.320  0.1444  0.9355 -0.2224
 3038TIP3   OH2 9077   2.989   3.728   0.300 -0.0245 -0.1477  0.3334
 3038TIP3    H1 9078   3.000   3.694   0.389 -2.0592 -0.0920  0.6644
 3038TIP3    H2 9079   2.973   3.651   0.246  0.7135 -0.1369  0.0856
 3039TIP3   OH2 9080   1.851   1.385   5.229 -0.2373  0.1913 -0.0698
 3039TIP3    H1 9081   1.783   1.411   5.292 -0.2795 -0.7891  0.3121
 3039TIP3    H2 9082   1.922   1.447   5.245 -0.2220 -0.0703  1.0125
 3040TIP3   OH2 9083   3.999   4.663   2.997  0.1772  0.1696  0.6392
 3040TIP3    H1 9084   3.989   4.574   3.031 -0.4762  0.2176  0.5956
 3040TIP3    H2 9085   3.935   4.715   3.047 -0.7979  0.2440 -0.6251
 3041TIP3   OH2 9086   4.840   0.433   2.232  0.9506 -0.5769  0.0584
 3041TIP3    H1 9087   4.870   0.463   2.318 -0.1471 -0.5745  0.4514
 3041TIP3    H2 9088   4.921   0.410   2.186  1.5643 -0.5270  1.0685
 3042TIP3   OH2 9089   6.709   6.449   5.532  0.6421 -0.0839  0.6095
 3042TIP3    H1 9090   6.762   6.506   5.588 -1.2949  0.5468  1.9109
 3042TIP3    H2 9091   6.684   6.375   5.589 -0.6704  0.1461  0.3750
 3043TIP3   OH2 9092   3.197   6.146   0.044 -0.3329 -0.1811  0.1224
 3043TIP3    H1 9093   3.160   6.201   0.113 -0.7848 -0.7422  0.3425
 3043TIP3    H2 9094   3.129   6.141  -0.022 -0.5347 -0.9357  0.3697
 3044TIP3   OH2 9095   4.349   5.546   3.805 -0.0307 -0.1088 -0.1484
 3044TIP3    H1 9096   4.312   5.623   3.848 -0.5989 -0.8828  0.7768
 3044TIP3    H2 9097   4.423   5.521   3.860 -1.2139 -1.5499  0.8496
 3045TIP3   OH2 9098   5.684   4.565   1.646  0.1543  0.0826 -0.2354
 3045TIP3    H1 9099   5.706   4.474   1.624  0.5462 -0.0376  0.6117
 3045TIP3    H2 9100   5.617   4.589   1.582 -1.4386 -1.4689  0.7592
 3046TIP3   OH2 9101   5.768   6.521   3.610  0.2458  0.5186  0.3255
 3046TIP3    H1 9102   5.699   6.587   3.602  0.0509  0.2786 -0.0129
 3046TIP3    H2 9103   5.797   6.507   3.520 -1.3203 -1.5570  0.0773
 3047TIP3   OH2 9104   6.999   6.666   4.520 -0.3868 -0.4785  0.1497
 3047TIP3    H1 9105   7.013   6.713   4.602 -0.9984 -1.6451  0.9509
 3047TIP3    H2 9106   7.065   6.597   4.519  0.0558 -0.0676 -0.6837
 3048TIP3   OH2 9107   0.364   5.045   5.225  0.0960 -0.4469 -0.0980
 3048TIP3    H1 9108   0.306   5.019   5.297  0.2988  0.5108  0.4403
 3048TIP3    H2 9109   0.350   4.979   5.158 -1.1735 -0.5808  0.2601
 3049TIP3   OH2 9110   4.105   0.799   4.124 -0.0913 -0.7279  0.0900
 3049TIP3    H1 9111   4.029   0.744   4.143 -0.6554 -0.1416 -0.3937
 3049TIP3    H2 9112   4.109   0.861   4.197 -0.6375 -0.1820 -0.3315
 3050TIP3   OH2 9113   6.718   0.080   3.960 -0.0340 -0.1911 -0.5134
 3050TIP3    H1 9114   6.765   0.069   4.042 -0.6659 -1.6106 -0.2977
 3050TIP3    H2 9115   6.698   0.173   3.955  0.6927  0.0327  0.5627
 3051TIP3   OH2 9116   4.121   1.138   0.761 -0.4312  0.2625 -0.5674
 3051TIP3    H1 9117   4.201   1.092   0.734 -0.8832 -0.7669 -0.2155
 3051TIP3    H2 9118   4.132   1.154   0.855 -0.7668 -0.1761 -0.4477
 3052TIP3   OH2 9119   2.961   4.421   3.882  0.1895  0.1609 -0.0832
 3052TIP3    H1 9120   2.936   4.342   3.931  1.4735  0.0342  0.4215
 3052TIP3    H2 9121   3.019   4.389   3.813  0.7516  0.6584  0.1486
 3053TIP3   OH2 9122   4.326   4.300   3.105 -0.0548  0.5384  0.2523
 3053TIP3    H1 9123   4.286   4.323   3.021  0.7809  1.1508  0.0036
 3053TIP3    H2 9124   4.252   4.282   3.163 -0.7180  2.0920 -0.0530
 3054TIP3   OH2 9125   6.104   3.930   5.482  0.2486 -0.1551  0.2525
 3054TIP3    H1 9126   6.083   3.985   5.406 -0.3365  0.2456  0.6942
 3054TIP3    H2 9127   6.107   3.992   5.555  0.1923 -0.6300  0.6582
 3055TIP3   OH2 9128   5.640   4.547   3.842  0.2090  0.0482 -0.1910
 3055TIP3    H1 9129   5.721   4.578   3.801  0.2689 -0.3371 -0.3684
 3055TIP3    H2 9130   5.575   4.552   3.772 -0.3583  2.0451  0.4019
 3056TIP3   OH2 9131   2.124   3.582   4.631 -0.2445  0.1863 -0.1224
 3056TIP3    H1 9132   2.152   3.618   4.547  0.4533 -1.2493 -0.5301
 3056TIP3    H2 9133   2.195   3.524   4.658 -0.3756  0.7341  1.5556
 3057TIP3   OH2 9134   0.616   6.398   4.332 -0.0002 -0.6934 -0.1957
 3057TIP3    H1 9135   0.621   6.485   4.373  1.4408 -0.5336 -0.6747
 3057TIP3    H2 9136   0.613   6.416   4.238  0.7550 -1.1671 -0.3138
 3058TIP3   OH2 9137   5.387   2.856   4.857  0.1430  0.5274 -0.3628
 3058TIP3    H1 9138   5.298   2.843   4.822  0.5865  1.6275 -2.0268
 3058TIP3    H2 9139   5.374   2.883   4.948 -1.0842 -2.2181  0.3928
 3059TIP3   OH2 9140   6.956   2.334   5.560 -0.1289 -0.0383 -0.0195
 3059TIP3    H1 9141   7.038   2.284   5.556 -1.3384 -2.0705 -0.6684
 3059TIP3    H2 9142   6.949   2.376   5.475 -0.2672 -0.7066 -0.3390
 3060TIP3   OH2 9143   4.867   4.206   4.339 -0.0470 -0.3131  0.1461
 3060TIP3    H1 9144   4.871   4.296   4.372 -0.0158 -0.0032 -0.6850
 3060TIP3    H2 9145   4.946   4.196   4.287  0.5909 -1.2465  1.2355
 3061TIP3   OH2 9146   0.360   0.174   0.352  0.0815 -0.4378 -0.1349
 3061TIP3    H1 9147   0.404   0.109   0.297  1.0933 -0.9496  1.2103
 3061TIP3    H2 9148   0.268   0.146   0.352 -0.1334  0.1093 -2.2418
 3062TIP3   OH2 9149   3.376   5.115   0.797  0.5312  0.1346  0.4548
 3062TIP3    H1 9150   3.343   5.144   0.712 -0.0126  0.2457  0.7001
 3062TIP3    H2 9151   3.434   5.185   0.826  2.1124 -0.6801 -0.6123
 3063TIP3   OH2 9152   0.276   2.725   3.498 -0.9175 -0.2061  0.6102
 3063TIP3    H1 9153   0.332   2.650   3.480 -1.7374 -1.0772  1.5600
 3063TIP3    H2 9154   0.322   2.774   3.567 -1.1001 -0.6675  1.0623
 3064TIP3   OH2 9155   0.651   5.656   2.874 -0.1252 -0.1804 -0.3233
 3064TIP3    H1 9156   0.609   5.684   2.955  0.2412 -2.0308  0.5668
 3064TIP3    H2 9157   0.585   5.671   2.806 -0.2434  1.9147  0.1825
 3065TIP3   OH2 9158   1.892   6.309   4.693 -0.2436  0.7326 -0.2277
 3065TIP3    H1 9159   1.946   6.293   4.616 -0.3065  0.8361 -0.2939
 3065TIP3    H2 9160   1.814   6.354   4.659 -1.0057 -0.6281 -0.3296
 3066TIP3   OH2 9161   6.135   5.236   5.065 -0.4145  0.0792  0.5044
 3066TIP3    H1 9162   6.085   5.156   5.078  0.4090 -0.4241  0.6825
 3066TIP3    H2 9163   6.206   5.230   5.129  2.1842 -1.1517 -2.2382
 3067TIP3   OH2 9164   1.099   1.856   3.486  0.3146  0.5689  0.5312
 3067TIP3    H1 9165   1.144   1.933   3.523  1.9344 -0.5016  0.9069
 3067TIP3    H2 9166   1.081   1.880   3.395 -1.9098  2.4814  1.3647
 3068TIP3   OH2 9167   4.389   1.701   2.921  0.1327  0.3257 -0.7209
 3068TIP3    H1 9168   4.339   1.620   2.912  0.6805 -0.0403 -0.5276
 3068TIP3    H2 9169   4.480   1.672   2.929  0.1930  0.8601  0.9726
 3069TIP3   OH2 9170   1.737   6.593   5.403  0.6479 -0.5490  0.5354
 3069TIP3    H1 9171   1.678   6.600   5.328  0.4115  0.4341  0.7936
 3069TIP3    H2 9172   1.763   6.501   5.405  1.2998 -0.4333 -1.2281
 3070TIP3   OH2 9173   4.602   2.357   4.532 -0.6341 -0.0263  0.0359
 3070TIP3    H1 9174   4.559   2.361   4.446 -2.7473  2.1277  1.0506
 3070TIP3    H2 9175   4.680   2.411   4.522 -0.6301 -0.1477 -0.6406
 3071TIP3   OH2 9176   0.083   4.698   2.280  0.0901  0.0627  0.3405
 3071TIP3    H1 9177   0.176   4.721   2.276  0.2107 -0.2014  1.2903
 3071TIP3    H2 9178   0.080   4.608   2.248  0.5135 -0.7444  2.3919
 3072TIP3   OH2 9179   5.237   5.784   5.668 -0.1000  0.0114 -0.4259
 3072TIP3    H1 9180   5.169   5.846   5.642  1.0293  1.0369 -0.9977
 3072TIP3    H2 9181   5.192   5.699   5.671 -1.6099  0.8055  0.1620
 3073TIP3   OH2 9182   0.945   1.504   3.635  0.1363  0.2649  0.4495
 3073TIP3    H1 9183   0.912   1.592   3.649  0.9252  0.5046  0.8661
 3073TIP3    H2 9184   0.894   1.449   3.695  1.0605  0.7668  1.7573
 3074TIP3   OH2 9185   5.253   3.020   0.655  0.4382 -0.4427  0.0492
 3074TIP3    H1 9186   5.331   2.988   0.701  1.1295 -1.1877 -1.5688
 3074TIP3    H2 9187   5.276   3.016   0.562 -1.7045 -1.2082 -0.5122
 3075TIP3   OH2 9188   4.703   6.579   0.067 -0.3052  0.2170  0.4017
 3075TIP3    H1 9189   4.741   6.526   0.137  0.0481 -1.0769 -0.7299
 3075TIP3    H2 9190   4.616   6.603   0.099 -0.0794 -0.2102  1.3502
 3076TIP3   OH2 9191   1.914   6.268   3.129 -0.1345  0.1331  0.0324
 3076TIP3    H1 9192   1.849   6.224   3.183  0.2284  1.2609  1.4347
 3076TIP3    H2 9193   1.862   6.313   3.062 -0.6933 -0.0827  0.3150
 3077TIP3   OH2 9194   6.828   2.150   1.342  0.3419  0.2558 -0.9030
 3077TIP3    H1 9195   6.796   2.128   1.254  1.2336  0.7792 -1.3779
 3077TIP3    H2 9196   6.911   2.195   1.326  0.3249  0.6995  0.1978
 3078TIP3   OH2 9197   6.265   2.384   1.704  0.1563  0.6959  0.1311
 3078TIP3    H1 9198   6.256   2.301   1.750 -0.8223  1.0088  0.5405
 3078TIP3    H2 9199   6.331   2.432   1.754 -0.8943  1.0295  1.2420
 3079TIP3   OH2 9200   5.581   1.175   2.467 -0.1562 -0.0590  0.3294
 3079TIP3    H1 9201   5.517   1.159   2.537 -1.1048  2.2629  0.1082
 3079TIP3    H2 9202   5.527   1.200   2.391  0.9487  1.6803  0.0502
 3080TIP3   OH2 9203   1.139   5.792   2.737  0.2662 -0.1713 -0.5303
 3080TIP3    H1 9204   1.190   5.827   2.664  0.8667 -2.7677 -1.4604
 3080TIP3    H2 9205   1.197   5.798   2.812  0.2130  1.0839 -0.5633
 3081TIP3   OH2 9206   3.494   6.429   0.259  0.0750  0.4869  0.4099
 3081TIP3    H1 9207   3.403   6.444   0.231  0.0315 -2.0936 -1.1501
 3081TIP3    H2 9208   3.486   6.405   0.351 -0.6406  1.7370  0.6989
 3082TIP3   OH2 9209   2.556   2.173   3.428  0.5496 -0.1350  0.0263
 3082TIP3    H1 9210   2.504   2.252   3.415  1.9857  0.9018  0.3337
 3082TIP3    H2 9211   2.605   2.190   3.509 -1.0095 -2.4213  1.5545
 3083TIP3   OH2 9212   1.897   5.070   0.553 -0.1688  0.4488 -0.2042
 3083TIP3    H1 9213   1.827   5.130   0.579  0.1302 -0.0502  1.8804
 3083TIP3    H2 9214   1.933   5.109   0.473 -3.1870  0.4166 -1.7555
 3084TIP3   OH2 9215   0.625   6.313   2.052 -0.3438 -0.4359  0.2433
 3084TIP3    H1 9216   0.652   6.223   2.071 -0.4677 -0.3479  0.8654
 3084TIP3    H2 9217   0.561   6.334   2.120 -0.2585  0.1487  0.1530
 3085TIP3   OH2 9218   5.310   4.919   0.980 -0.7463 -0.5239  0.0931
 3085TIP3    H1 9219   5.279   4.831   0.999 -1.7543 -0.5716 -1.5605
 3085TIP3    H2 9220   5.379   4.907   0.916 -0.7202 -0.1227  0.0418
 3086TIP3   OH2 9221   4.299   6.223   2.807 -0.6240 -0.2910  0.3430
 3086TIP3    H1 9222   4.251   6.141   2.818 -1.2508 -0.5083 -2.9751
 3086TIP3    H2 9223   4.359   6.206   2.733  1.0689  1.4931  1.2143
 3087TIP3   OH2 9224   5.804   6.170   2.414 -0.3835 -0.5060 -0.1801
 3087TIP3    H1 9225   5.736   6.152   2.479  0.0104  0.3555  0.4890
 3087TIP3    H2 9226   5.864   6.230   2.458  0.1400 -0.2685 -1.1905
 3088TIP3   OH2 9227   6.798   2.374   1.930 -0.0042  0.1505  0.2928
 3088TIP3    H1 9228   6.889   2.376   1.962 -0.0665 -1.9169  0.7080
 3088TIP3    H2 9229   6.747   2.406   2.004  0.2708 -0.0713  0.5848
 3089TIP3   OH2 9230   2.387   4.958   1.053  0.1334  0.8871  0.4123
 3089TIP3    H1 9231   2.474   4.968   1.092  0.2560  1.7528 -0.0624
 3089TIP3    H2 9232   2.394   5.000   0.967 -0.5506  0.3133  0.0662
 3090TIP3   OH2 9233   2.273   6.116   3.332 -0.7994 -0.1327 -0.8510
 3090TIP3    H1 9234   2.228   6.149   3.254 -0.6218  0.2461 -0.7909
 3090TIP3    H2 9235   2.357   6.084   3.299 -0.7342  0.0052 -0.8166
 3091TIP3   OH2 9236   5.851   4.377   3.672  0.0959  0.1181 -0.2130
 3091TIP3    H1 9237   5.840   4.467   3.703 -0.1405  0.6434 -1.7002
 3091TIP3    H2 9238   5.762   4.345   3.660  0.1820 -0.2302  0.0790
 3092TIP3   OH2 9239   6.000   2.215   4.919  0.9055  0.2513 -0.1634
 3092TIP3    H1 9240   6.065   2.260   4.973 -1.5788  0.9706  2.4367
 3092TIP3    H2 9241   6.005   2.124   4.948  1.7307 -0.0170 -1.0748
 3093TIP3   OH2 9242   5.053   2.776   4.533 -0.3854  0.2319  0.3431
 3093TIP3    H1 9243   5.114   2.823   4.476  0.3414 -1.5231 -0.3988
 3093TIP3    H2 9244   5.074   2.807   4.621  0.1200  1.2095 -0.1087
 3094TIP3   OH2 9245   2.267   6.279   2.345  0.4158  0.4119  0.1872
 3094TIP3    H1 9246   2.182   6.247   2.377 -0.0856  1.0918 -0.4548
 3094TIP3    H2 9247   2.318   6.199   2.331 -0.7635 -0.1401 -1.2421
 3095TIP3   OH2 9248   3.980   1.482   4.537 -0.2820  0.1158  0.4294
 3095TIP3    H1 9249   4.060   1.441   4.506 -1.2113 -0.9947 -0.6482
 3095TIP3    H2 9250   4.000   1.576   4.539  1.8605 -0.2954  2.8431
 3096TIP3   OH2 9251   5.049   0.880   2.238 -0.5591 -0.5667 -0.0001
 3096TIP3    H1 9252   4.987   0.838   2.298 -1.2544  0.3918 -0.0218
 3096TIP3    H2 9253   5.031   0.840   2.153  0.1756 -1.6622  0.3343
 3097TIP3   OH2 9254   1.422   2.400   4.121 -0.1400 -0.5546 -0.2345
 3097TIP3    H1 9255   1.335   2.439   4.113 -0.2721 -1.1032 -1.7537
 3097TIP3    H2 9256   1.470   2.460   4.178 -2.0386 -1.1928  2.2216
 3098TIP3   OH2 9257   2.888   5.709   1.710 -0.6470  0.4639  0.0307
 3098TIP3    H1 9258   2.818   5.643   1.711 -0.3205  0.1109  0.9708
 3098TIP3    H2 9259   2.849   5.784   1.665 -1.0925 -0.2871 -0.8672
 3099TIP3   OH2 9260   1.699   3.364   3.873 -0.0072  0.2714 -0.4694
 3099TIP3    H1 9261   1.605   3.351   3.863 -0.3181  1.3177  0.9061
 3099TIP3    H2 9262   1.716   3.350   3.966  1.4752 -1.4098 -0.9385
 3100TIP3   OH2 9263   4.902   5.724   0.158  0.0469 -0.1063 -0.0986
 3100TIP3    H1 9264   4.916   5.630   0.172  2.7516  0.2679  0.3213
 3100TIP3    H2 9265   4.990   5.760   0.146 -0.7091  2.7054  1.7914
 3101TIP3   OH2 9266   3.398   5.966   0.925  1.0330  0.2871  0.0526
 3101TIP3    H1 9267   3.393   6.016   1.007  1.7947  0.7114 -0.1463
 3101TIP3    H2 9268   3.426   6.030   0.859  2.4328 -0.4549 -0.1308
 3102TIP3   OH2 9269   7.029   1.293   4.328  0.6074 -0.2250 -0.6459
 3102TIP3    H1 9270   7.124   1.281   4.317  0.5568 -0.1477 -1.1891
 3102TIP3    H2 9271   6.994   1.291   4.239  0.1216 -0.0319 -0.4628
 3103TIP3   OH2 9272   0.416   3.738   4.612 -0.4075  0.4972  0.1756
 3103TIP3    H1 9273   0.427   3.681   4.536  2.3268  0.8768  0.2025
 3103TIP3    H2 9274   0.501   3.781   4.623 -1.1908  1.6199  2.5350
 3104TIP3   OH2 9275   1.349   2.965   3.489 -0.0593  0.3576  0.5556
 3104TIP3    H1 9276   1.391   2.923   3.414  0.4415  2.4838 -0.4060
 3104TIP3    H2 9277   1.408   2.947   3.562 -0.4746 -1.5934  0.4883
 3105TIP3   OH2 9278   5.085   2.816   1.992  0.1697 -0.1867 -0.3775
 3105TIP3    H1 9279   5.089   2.753   1.920 -0.0523  1.1926 -1.6421
 3105TIP3    H2 9280   5.010   2.789   2.043  0.7223 -1.5843 -0.2607
 3106TIP3   OH2 9281   2.601   1.938   0.225 -0.4102 -0.0945  0.0505
 3106TIP3    H1 9282   2.665   2.008   0.213  1.0777 -1.6037 -1.2466
 3106TIP3    H2 9283   2.622   1.901   0.311 -0.0888 -0.0543 -0.0114
 3107TIP3   OH2 9284   1.964   5.537   2.554  0.4000 -0.3807 -0.2833
 3107TIP3    H1 9285   1.900   5.589   2.603 -1.5377 -2.2546 -0.6823
 3107TIP3    H2 9286   2.025   5.602   2.519 -1.0187  1.4739  0.4652
 3108TIP3   OH2 9287   3.132   3.312   0.431 -0.0450 -0.1470 -0.5264
 3108TIP3    H1 9288   3.202   3.254   0.462  0.4067  1.7763  2.4690
 3108TIP3    H2 9289   3.178   3.381   0.384 -0.2316 -0.2834 -0.9155
 3109TIP3   OH2 9290   6.625   0.032   3.005 -0.4090 -0.4811  0.2219
 3109TIP3    H1 9291   6.690  -0.035   3.024 -1.1845 -1.1148  0.7377
 3109TIP3    H2 9292   6.623   0.088   3.082 -0.2047 -0.2254  0.0455
 3110TIP3   OH2 9293   3.811   4.067   0.394 -0.4647 -0.1536  0.2847
 3110TIP3    H1 9294   3.903   4.071   0.421 -0.6530 -1.1919  1.1132
 3110TIP3    H2 9295   3.805   3.989   0.340 -0.6517  0.4985 -0.6655
 3111TIP3   OH2 9296   6.564   1.500   2.495 -0.2277  0.1238  0.4357
 3111TIP3    H1 9297   6.630   1.475   2.431 -0.0297  1.9036 -0.1042
 3111TIP3    H2 9298   6.503   1.425   2.497  1.2488 -1.1267  0.2444
 3112TIP3   OH2 9299   0.432   2.081   1.489 -0.1800 -0.0271 -0.1733
 3112TIP3    H1 9300   0.370   2.072   1.561 -1.4528 -1.9144 -1.3965
 3112TIP3    H2 9301   0.382   2.124   1.419  0.2513 -0.4157 -0.7359
 3113TIP3   OH2 9302   2.418   0.647   3.466  0.2951  0.6747 -0.0313
 3113TIP3    H1 9303   2.368   0.683   3.539  0.3725 -3.4168  2.3615
 3113TIP3    H2 9304   2.355   0.593   3.419  1.1664  0.0096 -0.4561
 3114TIP3   OH2 9305   0.522   1.734   3.121 -0.5573 -0.3801  0.4246
 3114TIP3    H1 9306   0.520   1.742   3.216 -2.5830  1.8959  0.2867
 3114TIP3    H2 9307   0.615   1.745   3.098 -0.1645  0.0692  2.0826
 3115TIP3   OH2 9308   3.979   5.110   1.901  0.2730 -0.6401 -0.3539
 3115TIP3    H1 9309   3.947   5.100   1.812 -1.1657  2.2023 -0.2606
 3115TIP3    H2 9310   3.964   5.024   1.942  0.7826 -1.9388 -2.7088
 3116TIP3   OH2 9311   1.955   2.093   4.371 -0.9051  0.0645  0.1472
 3116TIP3    H1 9312   2.017   2.142   4.317 -0.5515 -0.3169  0.2030
 3116TIP3    H2 9313   1.903   2.043   4.308 -0.2174 -0.7000  0.1742
 3117TIP3   OH2 9314   6.796   1.557   5.772 -0.6798 -0.1938 -0.0862
 3117TIP3    H1 9315   6.876   1.607   5.785 -1.2402  0.8488 -0.5411
 3117TIP3    H2 9316   6.801   1.487   5.838  0.9661 -0.6469 -0.6430
 3118TIP3   OH2 9317   1.550   2.221   3.879  0.1333 -0.4206 -0.1295
 3118TIP3    H1 9318   1.549   2.203   3.785  1.4323 -0.2814 -0.1811
 3118TIP3    H2 9319   1.483   2.163   3.915  0.8002 -1.7210 -0.9256
 3119TIP3   OH2 9320   3.516   5.156   5.611 -0.1719 -0.0980  0.4277
 3119TIP3    H1 9321   3.569   5.158   5.531  0.8639  0.9441  1.1037
 3119TIP3    H2 9322   3.528   5.068   5.646  1.6500  0.2634  0.8618
 3120TIP3   OH2 9323   0.747   0.745   3.807 -0.4024  0.3212 -0.5315
 3120TIP3    H1 9324   0.662   0.704   3.795 -0.1251  0.0016 -1.4867
 3120TIP3    H2 9325   0.728   0.836   3.829 -0.9928  0.1037 -0.1258
 3121TIP3   OH2 9326   5.559   2.458   4.110 -0.0441  0.3020  0.9401
 3121TIP3    H1 9327   5.474   2.500   4.128 -0.5615  0.0357 -0.7268
 3121TIP3    H2 9328   5.614   2.483   4.184 -0.9132  2.3513  0.9653
 3122TIP3   OH2 9329   6.768   3.026   5.873 -0.1693  0.0706  0.5127
 3122TIP3    H1 9330   6.842   2.980   5.914 -0.8261 -0.3731  1.2126
 3122TIP3    H2 9331   6.733   2.964   5.810 -0.5976 -0.1192  0.9333
 3123TIP3   OH2 9332   6.925   2.710   0.718  0.3881  0.0970  0.4995
 3123TIP3    H1 9333   6.874   2.747   0.646  0.8050  0.1584  0.2325
 3123TIP3    H2 9334   6.879   2.738   0.797  0.9305  1.5634  0.3171
 3124TIP3   OH2 9335   6.945   2.447   2.262  0.5770  0.5284 -0.4400
 3124TIP3    H1 9336   6.964   2.366   2.215 -2.1337 -1.0514  0.8991
 3124TIP3    H2 9337   6.959   2.425   2.354 -2.5770  0.6324  0.2014
 3125TIP3   OH2 9338   5.863   4.314   2.205 -0.5473 -0.2531 -0.1666
 3125TIP3    H1 9339   5.941   4.364   2.181 -0.8019  0.9747  1.4085
 3125TIP3    H2 9340   5.833   4.276   2.123  1.0348  0.2096 -1.0049
 3126TIP3   OH2 9341   3.194   4.760   2.640 -0.3880  0.0995  0.0441
 3126TIP3    H1 9342   3.139   4.780   2.564 -0.1612  0.6005  0.0082
 3126TIP3    H2 9343   3.241   4.681   2.616  0.0764  0.5529 -0.5507
 3127TIP3   OH2 9344   4.232   4.762   0.815 -0.3260 -0.5409  0.5125
 3127TIP3    H1 9345   4.310   4.753   0.870 -0.0137 -1.0334  0.0016
 3127TIP3    H2 9346   4.162   4.784   0.876  0.6404  2.3600  0.7418
 3128TIP3   OH2 9347   6.588   4.444   1.660 -0.2104 -0.0222  0.5601
 3128TIP3    H1 9348   6.522   4.443   1.729 -0.0008  1.3784  0.7959
 3128TIP3    H2 9349   6.671   4.430   1.705 -0.2214 -0.7081  0.3858
 3129TIP3   OH2 9350   4.831   0.473   3.388 -0.5518  0.1128 -0.4910
 3129TIP3    H1 9351   4.825   0.381   3.414  0.4810 -0.1934 -1.3091
 3129TIP3    H2 9352   4.753   0.513   3.428  0.4031 -0.5096  2.2312
 3130TIP3   OH2 9353   5.304   3.926   5.116  0.1073  0.2965 -0.7086
 3130TIP3    H1 9354   5.278   3.834   5.120 -0.1323  0.2267 -3.0228
 3130TIP3    H2 9355   5.307   3.953   5.208 -0.6049 -1.7835 -0.0096
 3131TIP3   OH2 9356   2.542   4.100   5.340 -0.3635  0.1999  0.3881
 3131TIP3    H1 9357   2.462   4.151   5.336 -2.0261 -2.3330 -1.2237
 3131TIP3    H2 9358   2.574   4.113   5.429 -3.6692 -0.2756  1.7757
 3132TIP3   OH2 9359   3.885   6.247   2.315  0.0061  0.4124 -0.0351
 3132TIP3    H1 9360   3.904   6.341   2.309  0.3248  0.3601  0.0902
 3132TIP3    H2 9361   3.881   6.229   2.409  1.2931  0.0522 -0.0262
 3133TIP3   OH2 9362   4.512   5.047   0.422  0.5374 -0.0636  0.2801
 3133TIP3    H1 9363   4.572   4.988   0.379 -0.2343  0.1238 -1.1070
 3133TIP3    H2 9364   4.527   5.033   0.516 -0.1571 -3.0127  0.0308
 3134TIP3   OH2 9365   3.833   2.834   3.025  0.5206 -0.4901  0.3076
 3134TIP3    H1 9366   3.837   2.922   3.061 -0.0000  0.8777 -2.6659
 3134TIP3    H2 9367   3.768   2.788   3.078  1.6522  0.4766  2.6509
 3135TIP3   OH2 9368   0.144   0.527   5.038  0.4474 -0.6013  0.3343
 3135TIP3    H1 9369   0.083   0.560   4.972  1.5299  2.2151  0.5694
 3135TIP3    H2 9370   0.110   0.441   5.062 -4.3253  1.2701  1.5297
 3136TIP3   OH2 9371   4.986   1.699   5.173  0.5612  0.1850  0.1971
 3136TIP3    H1 9372   4.905   1.731   5.134 -1.0524  0.3070  3.3690
 3136TIP3    H2 9373   4.994   1.746   5.256  0.4725 -4.1750  2.9714
 3137TIP3   OH2 9374   5.201   2.086   4.348 -0.0304  0.4182 -0.3158
 3137TIP3    H1 9375   5.127   2.071   4.289 -0.5909  0.9965  0.2244
 3137TIP3    H2 9376   5.276   2.100   4.289 -0.4435  0.2879 -0.8787
 3138TIP3   OH2 9377   0.354   4.697   4.704 -0.4646 -0.0284 -0.7184
 3138TIP3    H1 9378   0.281   4.685   4.644 -1.1023 -0.7172  0.1744
 3138TIP3    H2 9379   0.342   4.786   4.738 -1.5723 -0.5464  0.2987
 3139TIP3   OH2 9380   5.536   4.377   5.219 -0.5767 -0.2520  0.2824
 3139TIP3    H1 9381   5.558   4.455   5.271  1.6267 -0.2995 -0.4558
 3139TIP3    H2 9382   5.449   4.396   5.183  0.3628  2.4727 -0.8711
 3140TIP3   OH2 9383   0.239   0.467   3.923  0.1840 -0.3578  0.1634
 3140TIP3    H1 9384   0.167   0.407   3.901  0.2256 -0.5530  0.5610
 3140TIP3    H2 9385   0.318   0.420   3.898  0.1609  0.0035 -0.6166
 3141TIP3   OH2 9386   0.336   4.192   2.800  0.2554 -0.2550 -0.5460
 3141TIP3    H1 9387   0.339   4.262   2.865  0.6337 -0.6542 -0.1330
 3141TIP3    H2 9388   0.335   4.111   2.851  0.2937 -0.5677 -1.0305
 3142TIP3   OH2 9389   5.351   0.400   0.643  0.3905 -0.6555 -0.0650
 3142TIP3    H1 9390   5.387   0.317   0.674  0.9967 -0.4876 -0.3038
 3142TIP3    H2 9391   5.301   0.377   0.565  1.1063 -0.7172 -0.5178
 3143TIP3   OH2 9392   0.153   4.465   3.327 -0.2348  0.0623  0.4264
 3143TIP3    H1 9393   0.102   4.532   3.372 -0.0748 -0.3305  1.2012
 3143TIP3    H2 9394   0.221   4.439   3.390 -0.7996 -1.4109  0.4715
 3144TIP3   OH2 9395   4.147   6.108   1.535 -0.0818  0.7489 -0.8685
 3144TIP3    H1 9396   4.158   6.190   1.585  1.0390  0.0625  0.0599
 3144TIP3    H2 9397   4.054   6.106   1.514  0.0647  2.9252 -2.0969
 3145TIP3   OH2 9398   4.063   0.467   3.186  0.3592 -0.2758 -0.0815
 3145TIP3    H1 9399   4.024   0.526   3.121 -0.5537 -0.0089  0.6949
 3145TIP3    H2 9400   4.095   0.393   3.134  3.2162  1.6587 -1.3582
 3146TIP3   OH2 9401   5.848   4.824   5.224  0.4725 -0.1119 -0.4518
 3146TIP3    H1 9402   5.767   4.815   5.274  0.8725  0.4104  0.3239
 3146TIP3    H2 9403   5.834   4.771   5.145  0.2489 -1.9729  0.7564
 3147TIP3   OH2 9404   3.361   1.778   5.045 -0.1727  0.4860  0.2506
 3147TIP3    H1 9405   3.296   1.734   5.098  0.2053 -0.3921  0.0014
 3147TIP3    H2 9406   3.445   1.758   5.087  0.1344 -0.2539 -0.6692
 3148TIP3   OH2 9407   5.687   6.455   2.824  0.7852 -0.2425 -0.2536
 3148TIP3    H1 9408   5.667   6.433   2.733  2.7073 -3.4469 -0.0197
 3148TIP3    H2 9409   5.771   6.501   2.820  0.3281  0.6326 -0.1333
 3149TIP3   OH2 9410   6.466   5.819   2.367  0.1942  0.0704  0.0032
 3149TIP3    H1 9411   6.436   5.829   2.458 -0.8843 -3.0904  0.1353
 3149TIP3    H2 9412   6.419   5.888   2.319 -1.7857 -0.2086  1.3863
 3150TIP3   OH2 9413   5.964   0.232   3.310 -0.3408 -0.2635 -0.0547
 3150TIP3    H1 9414   5.960   0.288   3.233  3.5495  1.4002  0.7055
 3150TIP3    H2 9415   6.028   0.165   3.287 -1.5844 -1.7753  0.6761
 3151TIP3   OH2 9416   0.085   0.190   3.013 -0.6057 -0.3601 -0.4871
 3151TIP3    H1 9417   0.092   0.148   3.099 -0.9998 -3.4833 -1.8459
 3151TIP3    H2 9418  -0.009   0.202   2.999 -0.6328 -1.0463 -0.9597
 3152TIP3   OH2 9419   0.595   2.687   3.200  0.3288 -0.6477 -0.1152
 3152TIP3    H1 9420   0.602   2.780   3.218  1.1115 -0.6142 -0.5523
 3152TIP3    H2 9421   0.658   2.671   3.129 -0.2853 -1.3767 -0.5158
 3153TIP3   OH2 9422   5.419   3.070   2.575  0.4817 -0.1399 -0.2654
 3153TIP3    H1 9423   5.395   3.137   2.511  0.2586 -2.9609 -3.4280
 3153TIP3    H2 9424   5.508   3.044   2.551  1.1486 -0.0095  1.8645
 3154TIP3   OH2 9425   0.917   2.056   4.699 -0.3138 -0.6350 -0.2997
 3154TIP3    H1 9426   0.960   2.114   4.636  0.6718 -0.0663  0.8466
 3154TIP3    H2 9427   0.978   1.982   4.708 -0.9588 -1.2341 -0.8043
 3155TIP3   OH2 9428   2.142   1.441   3.732 -0.3355 -0.1602 -0.1537
 3155TIP3    H1 9429   2.072   1.490   3.776 -1.7912 -0.7060 -1.7415
 3155TIP3    H2 9430   2.149   1.483   3.645 -0.9966 -2.1267 -1.2102
 3156TIP3   OH2 9431   5.795   1.209   5.414  0.0195 -0.7459  0.3471
 3156TIP3    H1 9432   5.734   1.135   5.424  0.4879 -1.1492  0.3000
 3156TIP3    H2 9433   5.740   1.283   5.388 -0.5324 -0.9519  0.9006
 3157TIP3   OH2 9434   0.472   0.664   3.131 -0.1553  0.2931 -0.0950
 3157TIP3    H1 9435   0.495   0.716   3.053 -1.1809 -0.0665 -0.6424
 3157TIP3    H2 9436   0.453   0.577   3.097 -0.4136  0.0801  0.5921
 3158TIP3   OH2 9437   0.528   3.619   3.033  0.5222 -0.1734 -0.1733
 3158TIP3    H1 9438   0.590   3.553   3.004  0.6565  0.4840 -1.4437
 3158TIP3    H2 9439   0.454   3.612   2.973  0.7908  1.1997 -0.7066
 3159TIP3   OH2 9440   0.290   4.582   0.967 -0.3600  0.3614  0.1419
 3159TIP3    H1 9441   0.291   4.551   0.877 -1.7291  0.7630 -0.0196
 3159TIP3    H2 9442   0.361   4.646   0.972  0.9399 -1.0013 -0.1418
 3160TIP3   OH2 9443   5.064   1.355   0.314  0.3722 -0.0795  0.3704
 3160TIP3    H1 9444   5.048   1.336   0.406 -2.1354  0.1534  0.0377
 3160TIP3    H2 9445   5.133   1.422   0.315 -1.7085  2.2264  2.2893
 3161TIP3   OH2 9446   6.772   3.065   3.336  0.0940 -0.0998  0.2038
 3161TIP3    H1 9447   6.768   2.974   3.307 -0.7140 -0.0647  0.1659
 3161TIP3    H2 9448   6.780   3.116   3.255 -3.5286  0.0833 -0.2043
 3162TIP3   OH2 9449   6.330   4.614   2.594  0.1225 -0.1803  0.0401
 3162TIP3    H1 9450   6.249   4.608   2.544  1.4322 -1.0272 -2.1489
 3162TIP3    H2 9451   6.341   4.708   2.611 -2.7707 -0.2114  3.1620
 3163TIP3   OH2 9452   5.202   2.418   3.710  0.6392  0.1321 -0.2445
 3163TIP3    H1 9453   5.216   2.388   3.800  0.2854  1.3657  0.2478
 3163TIP3    H2 9454   5.287   2.455   3.684  0.9876 -0.9973 -0.7384
 3164TIP3   OH2 9455   1.590   1.179   2.228 -0.0300 -0.8695  0.0871
 3164TIP3    H1 9456   1.624   1.233   2.156 -1.4092  3.2721  2.2348
 3164TIP3    H2 9457   1.656   1.186   2.297 -1.5864  0.8715  1.5093
 3165TIP3   OH2 9458   6.090   0.307   2.788 -0.2280 -0.4415  0.2685
 3165TIP3    H1 9459   6.135   0.224   2.771  0.3823 -0.1864  0.6143
 3165TIP3    H2 9460   6.076   0.345   2.701 -1.6105 -1.4626  0.0084
 3166TIP3   OH2 9461   6.887   3.818   2.147  0.4885 -0.0449  0.1129
 3166TIP3    H1 9462   6.879   3.823   2.052 -0.9604 -0.5310  0.1871
 3166TIP3    H2 9463   6.799   3.837   2.180  1.0202  0.3490  1.3710
 3167TIP3   OH2 9464   3.231   6.570   4.297  0.9610  0.1897 -0.0620
 3167TIP3    H1 9465   3.284   6.649   4.284  1.5860 -0.2506 -0.1988
 3167TIP3    H2 9466   3.140   6.602   4.295  1.1408  0.6841 -1.6526
 3168TIP3   OH2 9467   3.688   6.054   2.499  0.0880 -0.2347 -0.0221
 3168TIP3    H1 9468   3.663   5.982   2.557  1.4458 -0.9752 -0.3053
 3168TIP3    H2 9469   3.709   6.012   2.416 -0.1623  0.6216 -0.5313
 3169TIP3   OH2 9470   0.898   2.718   4.138  0.6765  0.1896 -0.1093
 3169TIP3    H1 9471   0.805   2.744   4.139  0.3417 -0.9554 -0.3120
 3169TIP3    H2 9472   0.932   2.753   4.055  0.5385  0.9486  0.1428
 3170TIP3   OH2 9473   5.852   4.909   4.544  0.3474  0.2454  0.9901
 3170TIP3    H1 9474   5.879   4.945   4.460  1.7189  0.7947  1.6292
 3170TIP3    H2 9475   5.761   4.882   4.531  0.5529  0.2484 -0.6740
 3171TIP3   OH2 9476   6.663   4.566   3.020  0.0929  0.4867 -0.5190
 3171TIP3    H1 9477   6.649   4.506   3.093 -1.3062  2.1942  0.7059
 3171TIP3    H2 9478   6.604   4.639   3.037 -0.1462  1.0539 -3.2821
 3172TIP3   OH2 9479   3.046   4.496   4.819 -0.3241  0.1169  0.2573
 3172TIP3    H1 9480   3.135   4.484   4.785 -0.5534  1.0804 -0.7862
 3172TIP3    H2 9481   3.016   4.408   4.842  0.2640 -0.4520 -1.0562
 3173TIP3   OH2 9482   2.690   3.317   4.744  0.1870 -0.5547 -0.0378
 3173TIP3    H1 9483   2.763   3.379   4.739 -1.3208  1.3042 -0.4452
 3173TIP3    H2 9484   2.711   3.261   4.819  2.0059 -0.0877 -0.1547
 3174TIP3   OH2 9485   4.652   6.623   2.578  0.1372  0.3092  0.0596
 3174TIP3    H1 9486   4.717   6.567   2.620  0.8798  0.2399 -1.1324
 3174TIP3    H2 9487   4.699   6.664   2.505 -1.1119  0.4115 -0.7205
 3175TIP3   OH2 9488   3.107   4.710   1.057  0.5335 -0.3813 -0.0751
 3175TIP3    H1 9489   3.142   4.776   0.996 -0.1748  0.1647  0.0937
 3175TIP3    H2 9490   3.157   4.630   1.037  0.7992 -0.0261 -0.8875
 3176TIP3   OH2 9491   4.814   0.665   4.578 -0.2602 -0.2838 -0.4258
 3176TIP3    H1 9492   4.828   0.596   4.643 -2.7956 -0.5418 -0.0373
 3176TIP3    H2 9493   4.794   0.743   4.630  1.6764  0.5793 -0.8846
 3177TIP3   OH2 9494   4.464   5.856   1.776 -0.7274  0.1445 -0.0728
 3177TIP3    H1 9495   4.428   5.781   1.822 -1.3015  0.2057 -0.4133
 3177TIP3    H2 9496   4.466   5.926   1.841 -2.0772  0.3981 -0.2791
 3178TIP3   OH2 9497   1.092   0.027   5.209 -0.7896  0.7231  0.2044
 3178TIP3    H1 9498   1.138   0.019   5.126 -2.3598 -0.3441 -0.6313
 3178TIP3    H2 9499   1.036   0.104   5.199  0.4289  1.7462  1.0382
 3179TIP3   OH2 9500   6.196   5.737   3.578 -0.6420 -0.3702 -0.3640
 3179TIP3    H1 9501   6.101   5.727   3.568 -0.7499  0.4243 -0.2365
 3179TIP3    H2 9502   6.226   5.651   3.608 -1.5309 -0.2502  0.9947
 3180TIP3   OH2 9503   6.926   4.337   4.790 -0.8560  0.1436  0.1999
 3180TIP3    H1 9504   6.854   4.318   4.730 -1.1720  3.3845 -0.6277
 3180TIP3    H2 9505   7.005   4.324   4.737 -1.0155  0.3412 -0.0886
 3181TIP3   OH2 9506   0.153   1.897   2.845 -0.5077  0.2865  0.0851
 3181TIP3    H1 9507   0.236   1.892   2.797 -0.9554  1.2084 -0.8173
 3181TIP3    H2 9508   0.099   1.828   2.807 -0.5279  0.3903 -0.0757
 3182TIP3   OH2 9509   4.029   1.513   1.229  0.6631 -0.0387  0.2507
 3182TIP3    H1 9510   4.044   1.607   1.229  0.8321 -0.0243  2.2044
 3182TIP3    H2 9511   3.935   1.504   1.210  0.3467  0.6282  1.3762
 3183TIP3   OH2 9512   7.153   2.580   5.757 -0.3119  0.1891  0.5883
 3183TIP3    H1 9513   7.216   2.585   5.829 -1.0478 -0.1346  1.2632
 3183TIP3    H2 9514   7.207   2.586   5.678  0.7242 -1.3264  1.1192
 3184TIP3   OH2 9515   7.132   3.908   4.759 -0.6222 -0.0595 -0.5698
 3184TIP3    H1 9516   7.151   3.952   4.676  0.7610 -1.3398 -0.9515
 3184TIP3    H2 9517   7.161   3.970   4.826  0.0311  0.1774 -1.0693
 3185TIP3   OH2 9518   6.571   2.325   0.088  0.5589 -0.2872  0.0553
 3185TIP3    H1 9519   6.559   2.230   0.092  1.3456 -0.5344 -2.2281
 3185TIP3    H2 9520   6.499   2.360   0.141  0.8777 -2.1449  1.8379
 3186TIP3   OH2 9521   6.620   1.088   5.361  0.4532  0.3544 -0.2392
 3186TIP3    H1 9522   6.647   1.072   5.452 -0.7386  0.1489  0.0939
 3186TIP3    H2 9523   6.653   1.013   5.313  0.2963  0.0100  0.1863
 3187TIP3   OH2 9524   6.667   3.356   0.851  0.5532 -0.0515  0.1206
 3187TIP3    H1 9525   6.735   3.404   0.899  0.7212  0.3032 -0.4712
 3187TIP3    H2 9526   6.585   3.393   0.883  0.5360 -1.5346  1.9966
 3188TIP3   OH2 9527   1.925   1.311   2.046  0.1502 -0.1681 -0.1899
 3188TIP3    H1 9528   1.943   1.402   2.021 -2.1126  0.1230 -1.0288
 3188TIP3    H2 9529   2.011   1.268   2.045  1.4944  2.2101  1.5090
 3189TIP3   OH2 9530   2.089   5.412   4.734  0.3164 -0.0937 -0.2843
 3189TIP3    H1 9531   2.085   5.411   4.638 -0.2905  0.7421 -0.2842
 3189TIP3    H2 9532   2.147   5.485   4.755  1.3810 -0.9904 -0.0125
 3190TIP3   OH2 9533   5.280   1.639   4.723  0.1791  0.0629 -0.1679
 3190TIP3    H1 9534   5.359   1.649   4.777  0.4717  2.3753 -0.9193
 3190TIP3    H2 9535   5.215   1.696   4.764  0.3715  1.7798 -2.0915
 3191TIP3   OH2 9536   6.475   3.142   1.616  0.1334  0.1176 -0.1410
 3191TIP3    H1 9537   6.553   3.167   1.568 -0.7177 -1.0444 -2.2671
 3191TIP3    H2 9538   6.405   3.141   1.550 -1.5615  0.4792  1.5429
 3192TIP3   OH2 9539   3.050   2.649   5.462  0.0744  0.1888  0.3067
 3192TIP3    H1 9540   2.982   2.706   5.426 -2.4507 -2.0192  1.2928
 3192TIP3    H2 9541   3.032   2.563   5.426  2.3749 -0.5219  0.6633
 3193TIP3   OH2 9542   0.603   1.885   2.828  0.0429 -0.1556 -0.3600
 3193TIP3    H1 9543   0.554   1.933   2.895  0.0086 -0.0395 -0.4671
 3193TIP3    H2 9544   0.695   1.899   2.851  0.0474  0.3966 -0.6867
 3194TIP3   OH2 9545   0.836   4.954   0.168  0.8572  0.1023  0.2047
 3194TIP3    H1 9546   0.797   4.874   0.204  0.5257  0.6620  1.1193
 3194TIP3    H2 9547   0.921   4.926   0.134  0.8672 -0.5846  0.7725
 3195TIP3   OH2 9548   4.921   0.703   1.047 -0.3200 -0.1328 -0.2010
 3195TIP3    H1 9549   4.845   0.756   1.022 -1.2414 -0.6964  1.2536
 3195TIP3    H2 9550   4.883   0.620   1.076  0.8474 -0.3831  0.6712
 3196TIP3   OH2 9551   4.703   2.608   1.055  0.5034  0.3196  0.1612
 3196TIP3    H1 9552   4.753   2.543   1.005  1.4346 -2.7782  4.5592
 3196TIP3    H2 9553   4.767   2.677   1.074  0.9341  0.0993 -0.4397
 3197TIP3   OH2 9554   1.151   6.359   3.013  0.2771  0.4819 -0.1594
 3197TIP3    H1 9555   1.083   6.398   2.958 -0.5022 -0.3200  0.2027
 3197TIP3    H2 9556   1.171   6.276   2.971  0.8927  0.6274 -0.1527
 3198TIP3   OH2 9557   2.093   3.316   4.934  0.1392  0.1678  0.3618
 3198TIP3    H1 9558   2.087   3.282   4.845 -0.0618 -0.3793  0.5791
 3198TIP3    H2 9559   2.080   3.240   4.990 -1.5415  0.7660  0.8739
 3199TIP3   OH2 9560   1.720   2.427   3.865 -0.2878  0.1860 -0.1772
 3199TIP3    H1 9561   1.798   2.372   3.855  0.6268  1.4132 -0.0244
 3199TIP3    H2 9562   1.647   2.365   3.870  0.6481 -0.9768 -0.5909
 3200TIP3   OH2 9563   6.464   3.998   3.205 -0.1146 -0.5011 -0.1232
 3200TIP3    H1 9564   6.513   3.967   3.281  0.4095  2.1251  0.7045
 3200TIP3    H2 9565   6.415   4.074   3.238  0.0487  0.6452 -2.3570
 3201TIP3   OH2 9566   2.389   3.851   4.046  0.0117  0.2498 -0.4123
 3201TIP3    H1 9567   2.432   3.920   3.995  0.5169 -0.8304 -1.4791
 3201TIP3    H2 9568   2.453   3.827   4.113  0.0733  0.3775 -0.4259
 3202TIP3   OH2 9569   4.849   1.599   2.103 -0.3008 -0.1467  0.4865
 3202TIP3    H1 9570   4.941   1.604   2.079 -0.7918 -1.4093 -2.0734
 3202TIP3    H2 9571   4.839   1.659   2.177  2.4960  0.1636  0.6997
 3203TIP3   OH2 9572   5.784   1.504   0.590  0.2750 -0.1349  0.3215
 3203TIP3    H1 9573   5.719   1.530   0.655  0.3803  0.6690  0.1114
 3203TIP3    H2 9574   5.737   1.510   0.506 -0.1126 -1.9724  0.3672
 3204TIP3   OH2 9575   2.500   6.339   4.668  0.3980  0.2830  0.0494
 3204TIP3    H1 9576   2.437   6.412   4.672 -0.0002 -0.1212  1.8272
 3204TIP3    H2 9577   2.554   6.349   4.746  1.4623 -0.3607 -0.5802
 3205TIP3   OH2 9578   4.400   1.750   1.353  0.0394 -0.6215 -0.1288
 3205TIP3    H1 9579   4.394   1.659   1.383 -1.1686 -0.9273 -1.2343
 3205TIP3    H2 9580   4.327   1.760   1.292  0.5810  0.8936 -0.5597
 3206TIP3   OH2 9581   5.311   2.137   3.555 -0.1382 -0.0127 -0.1259
 3206TIP3    H1 9582   5.293   2.110   3.646 -1.4294  0.4828 -0.2160
 3206TIP3    H2 9583   5.324   2.231   3.561 -2.5659  0.4323 -0.7272
 3207TIP3   OH2 9584   6.075   0.211   4.168  0.0123 -0.0406  0.7470
 3207TIP3    H1 9585   6.075   0.299   4.131 -1.3034 -0.1877  0.3408
 3207TIP3    H2 9586   6.083   0.154   4.091 -1.9797 -0.3278  0.7114
 3208TIP3   OH2 9587   3.325   4.237   5.209 -0.0987  0.0919  0.5036
 3208TIP3    H1 9588   3.404   4.213   5.161  0.7624  0.8856  1.4936
 3208TIP3    H2 9589   3.353   4.303   5.271 -1.2047 -0.7911  2.0215
 3209TIP3   OH2 9590   7.122   4.291   3.187  0.1598  0.9230  0.0846
 3209TIP3    H1 9591   7.066   4.366   3.206 -0.6195  0.4694 -0.3626
 3209TIP3    H2 9592   7.138   4.251   3.273 -1.1835  0.3845  0.0978
 3210TIP3   OH2 9593   4.849   5.564   2.028 -0.2180 -0.9308  0.2623
 3210TIP3    H1 9594   4.792   5.528   2.095 -1.0299 -0.9463 -0.4132
 3210TIP3    H2 9595   4.789   5.606   1.966  0.4883 -1.1336 -0.5779
 3211TIP3   OH2 9596   0.535   0.629   2.405 -0.0005 -0.1618  0.3777
 3211TIP3    H1 9597   0.469   0.646   2.337  0.3978  0.8745  0.2340
 3211TIP3    H2 9598   0.605   0.692   2.387  1.2011 -1.4510  0.3381
 3212TIP3   OH2 9599   4.069   6.524   2.822 -0.2487  0.3659  0.6766
 3212TIP3    H1 9600   4.066   6.492   2.731 -1.0934  0.7661  0.5484
 3212TIP3    H2 9601   4.014   6.463   2.870 -0.5111  0.6476  0.7437
 3213TIP3   OH2 9602   6.875   1.949   3.522  0.1091  0.3070  0.3172
 3213TIP3    H1 9603   6.901   2.037   3.496 -0.4049 -0.3087 -2.6038
 3213TIP3    H2 9604   6.946   1.893   3.488 -2.0444 -0.8339 -2.7305
 3214TIP3   OH2 9605   0.682   1.090   3.534 -0.3506  0.0106 -0.5047
 3214TIP3    H1 9606   0.590   1.110   3.547 -0.3540  0.1209 -0.6992
 3214TIP3    H2 9607   0.714   1.064   3.621 -0.5908 -0.1391 -0.4622
 3215TIP3   OH2 9608   0.514   2.951   4.023  0.5414  0.0785  0.1484
 3215TIP3    H1 9609   0.554   2.864   4.036  1.8506  0.5212 -0.6582
 3215TIP3    H2 9610   0.560   3.008   4.085 -0.1488  0.2482  0.5078
 3216TIP3   OH2 9611   3.981   5.485   5.807  0.0305  0.1406  0.0869
 3216TIP3    H1 9612   4.056   5.541   5.828  0.8090 -0.8104 -0.0846
 3216TIP3    H2 9613   3.939   5.529   5.733  0.2238  0.8599  0.3976
 3217TIP3   OH2 9614   5.843   2.720   1.478  0.1387 -0.0992 -0.0229
 3217TIP3    H1 9615   5.916   2.658   1.485 -0.5386 -0.9179 -0.0656
 3217TIP3    H2 9616   5.767   2.670   1.506 -0.2922  0.9898  0.8245
 3218TIP3   OH2 9617   4.275   0.430   1.564 -0.0284 -0.1434 -1.2711
 3218TIP3    H1 9618   4.206   0.449   1.502 -1.8372  0.0278  0.6810
 3218TIP3    H2 9619   4.318   0.352   1.529 -1.6432 -0.6494 -2.2128
 3219TIP3   OH2 9620   6.452   4.653   0.297  0.3454 -0.6027 -0.3069
 3219TIP3    H1 9621   6.471   4.734   0.250  2.9826 -1.0089 -0.0569
 3219TIP3    H2 9622   6.369   4.670   0.342  0.3449  1.5754 -1.0322
 3220TIP3   OH2 9623   0.867   3.467   3.494  0.2180  0.0227 -0.2725
 3220TIP3    H1 9624   0.815   3.393   3.526  1.0101 -1.6941 -2.6462
 3220TIP3    H2 9625   0.804   3.519   3.444 -0.2963  0.8817  1.2248
 3221TIP3   OH2 9626   5.294   4.353   0.538 -0.6136  0.4958  0.6097
 3221TIP3    H1 9627   5.233   4.280   0.532 -0.6323  0.6023 -1.0284
 3221TIP3    H2 9628   5.379   4.316   0.516 -0.6773  1.0027 -0.5782
 3222TIP3   OH2 9629   0.351   2.233   2.663 -0.3641 -0.1876 -0.2380
 3222TIP3    H1 9630   0.293   2.166   2.627  0.9372 -1.1066 -0.7043
 3222TIP3    H2 9631   0.298   2.276   2.730 -2.6428  1.1198 -2.6753
 3223TIP3   OH2 9632   5.088   0.929   0.209 -0.2025 -0.4505  0.9540
 3223TIP3    H1 9633   5.003   0.915   0.167  0.2773  0.3756 -0.3528
 3223TIP3    H2 9634   5.069   0.986   0.284 -0.7038  0.3883  0.2042
 3224TIP3   OH2 9635   5.002   5.754   1.571  0.1656  0.2737  0.0182
 3224TIP3    H1 9636   5.042   5.714   1.494 -0.1467  1.1205 -0.6081
 3224TIP3    H2 9637   4.915   5.714   1.576  0.4241 -0.2509  0.3115
 3225TIP3   OH2 9638   1.174   3.990   4.854  0.6817 -0.0942  0.3326
 3225TIP3    H1 9639   1.163   4.082   4.879 -0.5846 -0.1332 -0.0397
 3225TIP3    H2 9640   1.259   3.966   4.891  2.6860  2.1605 -2.3370
 3226TIP3   OH2 9641   0.658   5.949   3.043 -0.1413  0.1403  0.5599
 3226TIP3    H1 9642   0.579   5.901   3.067 -0.7932  0.9576  0.1269
 3226TIP3    H2 9643   0.653   5.957   2.947  0.6113 -0.0478  0.5029
 3227TIP3   OH2 9644   5.035   3.202   3.938 -0.1298 -1.0977 -0.0381
 3227TIP3    H1 9645   4.992   3.195   4.024 -2.2845 -0.8679 -1.0445
 3227TIP3    H2 9646   5.128   3.189   3.957 -0.3961  0.1196  2.4898
 3228TIP3   OH2 9647   2.742   6.114   4.787  0.3951 -0.4884 -0.5315
 3228TIP3    H1 9648   2.692   6.185   4.827 -0.4510  0.8795 -3.6924
 3228TIP3    H2 9649   2.683   6.038   4.791  0.2862 -0.3696  0.5698
 3229TIP3   OH2 9650   6.078   6.150   3.693  0.1185  0.0140 -0.3572
 3229TIP3    H1 9651   5.991   6.191   3.696  0.3643  0.7365 -2.0268
 3229TIP3    H2 9652   6.065   6.070   3.642  0.2812 -0.3103  0.1072
 3230TIP3   OH2 9653   4.937   4.250   5.052  0.1006 -0.8904 -0.1908
 3230TIP3    H1 9654   4.946   4.344   5.039  0.3638 -0.8369  0.3365
 3230TIP3    H2 9655   4.844   4.232   5.041 -0.2066 -0.3171  1.2545
 3231TIP3   OH2 9656   2.355   3.186   3.885 -0.9572  0.1651  0.7233
 3231TIP3    H1 9657   2.365   3.175   3.790 -0.5311  0.2862  0.7531
 3231TIP3    H2 9658   2.364   3.098   3.921 -1.9890 -0.0147  0.5829
 3232TIP3   OH2 9659   4.186   4.858   4.212 -0.1253 -0.0862 -0.8346
 3232TIP3    H1 9660   4.254   4.920   4.238 -0.0937 -0.9013  1.1248
 3232TIP3    H2 9661   4.234   4.780   4.184 -0.2320 -0.1800 -0.7544
 3233TIP3   OH2 9662   0.468   4.975   2.803 -0.2030 -0.1873  0.0905
 3233TIP3    H1 9663   0.390   4.919   2.812 -0.2555 -0.2645 -0.7469
 3233TIP3    H2 9664   0.491   4.969   2.710  1.4451 -1.0028  0.5169
 3234TIP3   OH2 9665   4.349   0.627   1.866 -0.1790 -0.3470  0.1774
 3234TIP3    H1 9666   4.398   0.546   1.880 -0.4084 -0.5274 -0.0735
 3234TIP3    H2 9667   4.372   0.655   1.777 -2.2230 -1.6067 -0.7983
 3235TIP3   OH2 9668   3.152   6.714   2.827 -0.1677 -0.4547 -0.3647
 3235TIP3    H1 9669   3.083   6.689   2.889  0.2805 -1.1571 -0.1417
 3235TIP3    H2 9670   3.171   6.635   2.778  0.0649 -0.1097 -0.8409
 3236TIP3   OH2 9671   2.171   1.759   5.603 -0.2511 -0.0705  0.5671
 3236TIP3    H1 9672   2.103   1.818   5.633 -2.3399 -1.7157 -0.6506
 3236TIP3    H2 9673   2.204   1.716   5.682 -0.6202  0.7556  1.1717
 3237TIP3   OH2 9674   2.737   0.892   0.777 -0.4147  0.2006 -0.1262
 3237TIP3    H1 9675   2.684   0.835   0.832  0.1920  1.0395  1.4021
 3237TIP3    H2 9676   2.673   0.940   0.724 -0.9067 -2.4196 -2.1125
 3238TIP3   OH2 9677   2.220   1.191   1.414 -0.3056 -0.0948  0.4760
 3238TIP3    H1 9678   2.148   1.223   1.468  0.6275  0.6642  1.2921
 3238TIP3    H2 9679   2.179   1.125   1.357 -1.6313  0.2919  0.9415
 3239TIP3   OH2 9680   1.596   2.715   1.928 -0.5216  0.1305  0.3220
 3239TIP3    H1 9681   1.588   2.785   1.994 -0.1534  0.7543 -0.2751
 3239TIP3    H2 9682   1.532   2.649   1.955 -0.8126  0.6552  0.9568
 3240TIP3   OH2 9683   0.178   5.942   3.525  0.1839  0.2466 -0.1883
 3240TIP3    H1 9684   0.248   5.908   3.468  2.1393 -0.0576  2.2398
 3240TIP3    H2 9685   0.109   5.876   3.519  1.5698 -1.3010  0.0365
 3241TIP3   OH2 9686   0.369   6.684   5.667 -0.2182  0.3478 -0.1510
 3241TIP3    H1 9687   0.421   6.676   5.747  0.6240  0.2840 -0.6861
 3241TIP3    H2 9688   0.421   6.742   5.611 -0.5051 -0.0816 -0.8762
 3242TIP3   OH2 9689   2.151   0.710   0.946 -0.3696 -0.3829 -0.0394
 3242TIP3    H1 9690   2.200   0.766   1.006  0.2562  0.9598 -1.7220
 3242TIP3    H2 9691   2.063   0.704   0.986 -0.2742  1.2958  0.5093
 3243TIP3   OH2 9692   7.165   5.339   0.878  0.0303  0.0100 -0.3001
 3243TIP3    H1 9693   7.089   5.372   0.925 -0.5839 -0.0153 -1.2438
 3243TIP3    H2 9694   7.240   5.367   0.931 -0.5941  0.7347  0.2249
 3244TIP3   OH2 9695   3.487   4.457   1.897  0.3722 -0.0319 -0.4761
 3244TIP3    H1 9696   3.406   4.419   1.862  1.2209 -0.3357 -2.2164
 3244TIP3    H2 9697   3.466   4.477   1.988 -0.7741 -2.8244 -0.0027
 3245TIP3   OH2 9698   3.100   5.263   2.950 -0.8966 -0.2932  0.4194
 3245TIP3    H1 9699   3.160   5.262   3.024  0.1670  0.3136 -0.4084
 3245TIP3    H2 9700   3.062   5.351   2.951 -2.6951 -1.0075  1.6076
 3246TIP3   OH2 9701   0.226   6.320   3.281  0.1058 -0.1712 -0.2023
 3246TIP3    H1 9702   0.211   6.276   3.365  0.1339 -0.5371 -0.3838
 3246TIP3    H2 9703   0.219   6.249   3.216 -0.0053  0.1235 -0.5142
 3247TIP3   OH2 9704   2.589   4.201   2.002 -0.1526 -0.4270 -0.4349
 3247TIP3    H1 9705   2.663   4.262   2.007  0.7696 -1.5023 -0.2818
 3247TIP3    H2 9706   2.592   4.169   1.912 -1.7757  1.0738 -1.0779
 3248TIP3   OH2 9707   3.232   1.632   1.206 -0.0649  0.2436 -0.0267
 3248TIP3    H1 9708   3.311   1.638   1.261 -0.5232  0.5205  0.6239
 3248TIP3    H2 9709   3.223   1.539   1.186  1.6691  0.4342 -1.9941
 3249TIP3   OH2 9710   0.785   3.251   3.253  0.0192 -0.1567  0.4708
 3249TIP3    H1 9711   0.769   3.236   3.160 -0.8968 -0.2927  0.6369
 3249TIP3    H2 9712   0.749   3.337   3.270 -0.1916 -0.3044  0.7850
 3250TIP3   OH2 9713   4.138   2.074   0.181  0.1651  0.3210 -0.0515
 3250TIP3    H1 9714   4.073   2.126   0.228  0.2374  0.7954 -0.4686
 3250TIP3    H2 9715   4.161   2.004   0.242 -2.2710 -1.1137 -0.6475
 3251TIP3   OH2 9716   0.208   5.749   3.262  0.4416  0.2296 -0.4392
 3251TIP3    H1 9717   0.283   5.691   3.276  0.6150  0.6551  0.5093
 3251TIP3    H2 9718   0.152   5.701   3.202  1.2977 -0.2623 -0.8733
 3252TIP3   OH2 9719   6.063   3.907   3.238  0.7075  0.3460 -0.1395
 3252TIP3    H1 9720   6.073   3.992   3.282  2.1680  1.2001 -1.9634
 3252TIP3    H2 9721   6.068   3.928   3.145 -0.0307 -1.6406 -0.6704
 3253TIP3   OH2 9722   3.331   4.032   3.683  0.3723  0.4498 -0.2706
 3253TIP3    H1 9723   3.326   3.937   3.688  0.9323  0.3459 -1.3210
 3253TIP3    H2 9724   3.378   4.049   3.601  0.2312  1.6289 -0.1240
 3254TIP3   OH2 9725   3.356   1.255   3.630  0.3862 -0.2393  0.5616
 3254TIP3    H1 9726   3.371   1.340   3.590 -0.1791 -0.9380 -1.1962
 3254TIP3    H2 9727   3.444   1.226   3.656  1.1508 -0.7182 -2.2195
 3255TIP3   OH2 9728   3.475   0.142   5.787  0.3032 -0.0358  0.0352
 3255TIP3    H1 9729   3.548   0.090   5.753  0.0875 -1.2716  1.3901
 3255TIP3    H2 9730   3.511   0.231   5.796  0.9816 -0.1559 -1.3327
 3256TIP3   OH2 9731   6.786   2.506   4.518 -0.0825  0.0353  0.3859
 3256TIP3    H1 9732   6.821   2.464   4.440 -0.8345  0.6527 -0.2955
 3256TIP3    H2 9733   6.709   2.554   4.488  0.0011  0.8409  1.3739
 3257TIP3   OH2 9734   4.381   6.319   4.899  0.3037  0.2663  0.3276
 3257TIP3    H1 9735   4.470   6.322   4.864  0.3184  0.9718  0.4209
 3257TIP3    H2 9736   4.357   6.226   4.895  1.1618  0.0237  0.6215
 3258TIP3   OH2 9737   5.836   3.268   5.591  0.5220 -0.2232 -0.0491
 3258TIP3    H1 9738   5.755   3.317   5.576  0.6929 -0.3501 -1.5701
 3258TIP3    H2 9739   5.807   3.182   5.620  0.1122 -0.2163 -0.4368
 3259TIP3   OH2 9740   2.911   0.988   5.491 -0.0916  0.0915 -0.1921
 3259TIP3    H1 9741   2.899   0.910   5.437  0.9063 -0.0150 -0.2690
 3259TIP3    H2 9742   2.827   0.998   5.537 -0.2082 -1.0603 -0.1266
 3260TIP3   OH2 9743   6.317   6.693   4.502  0.4101  0.4877  0.2944
 3260TIP3    H1 9744   6.289   6.663   4.416  0.8640  0.3884  0.1821
 3260TIP3    H2 9745   6.347   6.614   4.547  0.2437  0.5503  0.5181
 3261TIP3   OH2 9746   4.347   4.182   0.359  0.5006 -0.3242  0.5725
 3261TIP3    H1 9747   4.266   4.227   0.335  1.1040 -0.4469 -1.8707
 3261TIP3    H2 9748   4.364   4.211   0.449  0.1897  3.3968 -0.3954
 3262TIP3   OH2 9749   0.172   5.315   3.081 -0.4446 -0.2522 -0.4906
 3262TIP3    H1 9750   0.211   5.276   3.002  0.1450  0.5541 -0.6063
 3262TIP3    H2 9751   0.161   5.240   3.141 -0.9049 -0.8717 -1.3329
 3263TIP3   OH2 9752   5.104   0.202   4.241  0.0280 -0.6089 -0.6699
 3263TIP3    H1 9753   5.026   0.208   4.185  0.5369 -0.4123 -1.3700
 3263TIP3    H2 9754   5.177   0.219   4.182  0.6963 -1.9344 -0.2626
 3264TIP3   OH2 9755   2.220   6.527   3.673  0.4096 -0.0447 -0.3618
 3264TIP3    H1 9756   2.281   6.500   3.742 -1.3165 -1.7750  0.5960
 3264TIP3    H2 9757   2.242   6.472   3.598  0.2377 -0.4614 -0.1104
 3265TIP3   OH2 9758  -0.005   6.649   5.394 -0.2476 -1.0001 -0.1841
 3265TIP3    H1 9759  -0.043   6.621   5.310  1.1479  1.5214 -1.7821
 3265TIP3    H2 9760   0.070   6.592   5.407 -0.4414 -1.3786 -0.6840
 3266TIP3   OH2 9761   2.564   1.585   1.685  0.2089  0.3744  0.0956
 3266TIP3    H1 9762   2.471   1.593   1.709  0.1469 -1.0130  0.4040
 3266TIP3    H2 9763   2.601   1.529   1.753  0.3132 -2.6899 -2.2286
 3267TIP3   OH2 9764   1.668   1.170   3.230  0.1122  0.1434  0.7973
 3267TIP3    H1 9765   1.629   1.117   3.299  0.0100  0.5735  1.0768
 3267TIP3    H2 9766   1.726   1.231   3.277 -1.2703  1.6129  0.6797
 3268TIP3   OH2 9767   0.534   6.043   0.839 -0.0843 -0.4050 -0.2514
 3268TIP3    H1 9768   0.471   6.072   0.905 -0.0308  0.3903 -0.5496
 3268TIP3    H2 9769   0.506   6.086   0.758 -1.0750 -2.5353 -1.1498
 3269TIP3   OH2 9770   3.946   0.079   4.868  0.7306  0.1693  0.3424
 3269TIP3    H1 9771   3.923   0.064   4.776 -1.3198 -0.4817  0.9099
 3269TIP3    H2 9772   4.033   0.119   4.865  0.9909 -0.4410 -1.8403
 3270TIP3   OH2 9773   6.091   5.761   0.550  0.2050  0.1367 -0.1390
 3270TIP3    H1 9774   6.046   5.705   0.614  0.0990 -0.8596 -1.0459
 3270TIP3    H2 9775   6.079   5.715   0.467  1.9224  0.4478 -0.5932
 3271TIP3   OH2 9776   1.036   5.458   2.302  0.1039 -0.2016 -0.0094
 3271TIP3    H1 9777   1.063   5.424   2.388  0.3953  0.0858  0.0177
 3271TIP3    H2 9778   1.112   5.509   2.272 -1.2232  2.7439  1.1638
 3272TIP3   OH2 9779   2.011   6.276   1.303  0.3682 -0.2604  0.2924
 3272TIP3    H1 9780   2.001   6.317   1.217 -1.9744 -0.2374  0.5066
 3272TIP3    H2 9781   2.087   6.219   1.294 -0.3539 -0.9543 -2.0875
 3273TIP3   OH2 9782   5.669   6.096   4.512 -0.0763 -0.0385  0.3189
 3273TIP3    H1 9783   5.687   6.018   4.564  1.7053  0.7268  0.9202
 3273TIP3    H2 9784   5.616   6.065   4.439  1.5889 -2.0264 -0.1032
 3274TIP3   OH2 9785   0.744   0.068   0.699 -0.1202  0.4718 -0.7076
 3274TIP3    H1 9786   0.781  -0.016   0.671  1.2871  0.2094  1.7291
 3274TIP3    H2 9787   0.650   0.050   0.709  0.1212 -0.7421 -0.4627
 3275TIP3   OH2 9788   2.060   6.744   2.112  0.6524  0.2439  0.4895
 3275TIP3    H1 9789   2.135   6.684   2.107  0.9595  0.6875 -0.5612
 3275TIP3    H2 9790   2.097   6.830   2.091 -0.3469  0.2653 -1.4175
 3276TIP3   OH2 9791   3.208   3.865   4.886  0.3611  0.2283  0.5095
 3276TIP3    H1 9792   3.260   3.818   4.821 -0.6245  0.2944 -0.3501
 3276TIP3    H2 9793   3.269   3.884   4.957  1.5321  0.4102 -0.5267
 3277TIP3   OH2 9794   0.314   0.133   4.313 -0.2443  0.1995  0.1240
 3277TIP3    H1 9795   0.236   0.162   4.265  0.2922  1.1946 -0.1562
 3277TIP3    H2 9796   0.370   0.210   4.317  0.9622 -0.6471 -0.1227
 3278TIP3   OH2 9797   1.862   1.511   0.826 -0.3362  1.0241 -0.1313
 3278TIP3    H1 9798   1.810   1.545   0.899 -1.9921 -0.0772 -0.7437
 3278TIP3    H2 9799   1.876   1.419   0.847 -1.3864  0.5266 -1.4592
 3279TIP3   OH2 9800   5.925   0.474   5.170 -0.2198 -0.1317  0.4735
 3279TIP3    H1 9801   5.980   0.430   5.235  1.3274 -0.9679 -1.3038
 3279TIP3    H2 9802   5.967   0.558   5.155 -1.1711  0.5169  1.2607
 3280TIP3   OH2 9803   3.912   4.845   1.988 -0.1467 -0.1400 -0.6422
 3280TIP3    H1 9804   3.827   4.877   2.019 -0.1056  0.1579 -0.8322
 3280TIP3    H2 9805   3.900   4.751   1.981  0.2178 -0.3829  1.4469
 3281TIP3   OH2 9806   0.585   6.436   0.487  0.0441 -0.9007 -0.4442
 3281TIP3    H1 9807   0.524   6.429   0.413  0.7059 -0.2082 -1.0847
 3281TIP3    H2 9808   0.670   6.455   0.446  0.2519  0.4170  0.5319
 3282TIP3   OH2 9809   6.082   4.938   3.541 -0.3303  0.3226 -0.0035
 3282TIP3    H1 9810   6.051   5.019   3.582 -1.3928 -0.1115  0.0946
 3282TIP3    H2 9811   6.008   4.878   3.549 -0.1823 -0.1268 -1.5840
 3283TIP3   OH2 9812   3.512   3.365   2.725 -0.3889  0.0809 -0.3121
 3283TIP3    H1 9813   3.488   3.275   2.701  0.5714 -0.1726 -0.3608
 3283TIP3    H2 9814   3.438   3.418   2.696 -1.4468 -0.8068  0.6632
 3284TIP3   OH2 9815   5.766   6.617   2.092 -0.5201  0.2148  0.1875
 3284TIP3    H1 9816   5.798   6.629   2.181  0.4709  1.4048 -0.2944
 3284TIP3    H2 9817   5.761   6.706   2.056 -1.1813 -0.2174 -0.8512
 3285TIP3   OH2 9818   5.398   6.562   4.320  0.0361  0.4212  0.3041
 3285TIP3    H1 9819   5.437   6.586   4.404  0.4259 -1.3364  0.6657
 3285TIP3    H2 9820   5.306   6.589   4.328 -0.0580 -0.1548  1.5156
 3286TIP3   OH2 9821   5.710   0.115   5.415  0.0703 -0.1933  0.1150
 3286TIP3    H1 9822   5.755   0.153   5.339  0.8706  0.0911  0.7212
 3286TIP3    H2 9823   5.637   0.066   5.377 -1.5826  2.6558 -0.6408
 3287TIP3   OH2 9824   1.740   0.070   1.667 -0.4867  0.8858  0.1678
 3287TIP3    H1 9825   1.660   0.023   1.646  0.0427  0.0826 -0.1026
 3287TIP3    H2 9826   1.763   0.117   1.586 -0.2780  0.4988 -0.0029
 3288TIP3   OH2 9827   4.441   2.286   3.061 -0.2525 -0.0926 -0.0313
 3288TIP3    H1 9828   4.450   2.251   2.973  1.4973 -0.5604  0.2903
 3288TIP3    H2 9829   4.531   2.299   3.091 -0.7261 -1.6237  2.3182
 3289TIP3   OH2 9830   5.949   2.139   1.929 -0.0135  0.0784 -0.3055
 3289TIP3    H1 9831   5.871   2.108   1.975 -0.6585  0.5085 -1.0899
 3289TIP3    H2 9832   6.018   2.137   1.996 -0.8447  0.3517  0.5854
 3290TIP3   OH2 9833   3.152   3.405   5.695 -0.2258  0.2763  0.1144
 3290TIP3    H1 9834   3.134   3.396   5.602  2.0030  0.6944 -0.4274
 3290TIP3    H2 9835   3.230   3.351   5.709  0.2154  1.2068  1.4614
 3291TIP3   OH2 9836   2.516   0.525   1.844 -1.0912 -0.8719 -0.3825
 3291TIP3    H1 9837   2.548   0.456   1.902  0.7070  0.7544  0.6915
 3291TIP3    H2 9838   2.594   0.555   1.798 -1.1572  2.3765  1.3574
 3292TIP3   OH2 9839   5.406   5.647   3.245 -0.4725 -0.5045 -0.0626
 3292TIP3    H1 9840   5.471   5.618   3.182 -0.9070  0.0062 -0.7595
 3292TIP3    H2 9841   5.336   5.582   3.239 -0.1429 -0.9163  0.5049
 3293TIP3   OH2 9842   3.390   1.411   2.326  0.3502 -0.0035 -0.4474
 3293TIP3    H1 9843   3.412   1.495   2.285  2.5859  0.0641  0.7703
 3293TIP3    H2 9844   3.394   1.348   2.254  0.3165  0.6598 -1.0515
 3294TIP3   OH2 9845   0.459   4.578   3.177 -0.4444 -0.6088 -0.4832
 3294TIP3    H1 9846   0.449   4.503   3.235 -0.6412 -1.1734 -1.2204
 3294TIP3    H2 9847   0.370   4.611   3.165 -0.3118 -0.0225  0.1401
 3295TIP3   OH2 9848   3.909   4.375   0.093 -0.4168  0.3801 -0.3064
 3295TIP3    H1 9849   3.859   4.402   0.016 -2.1912  1.2307  1.0804
 3295TIP3    H2 9850   3.923   4.456   0.142 -1.7469 -0.4555  1.6022
 3296TIP3   OH2 9851   3.854   0.120   4.353 -0.0273  0.0219 -0.1243
 3296TIP3    H1 9852   3.825   0.209   4.376  0.9090  0.6763 -1.3738
 3296TIP3    H2 9853   3.814   0.104   4.268  1.0503 -0.1488 -0.6026
 3297TIP3   OH2 9854   5.902   2.121   5.409 -0.9875  0.1043 -0.0593
 3297TIP3    H1 9855   5.929   2.043   5.361 -0.3562  0.8393 -0.9461
 3297TIP3    H2 9856   5.956   2.120   5.488 -0.9955 -0.3581 -0.0558
 3298TIP3   OH2 9857   0.110   0.251   5.465  0.0298 -0.8407 -0.2694
 3298TIP3    H1 9858   0.187   0.285   5.510 -0.6155  1.3029 -0.6750
 3298TIP3    H2 9859   0.140   0.236   5.375 -0.2586  1.1621 -0.7492
 3299TIP3   OH2 9860   0.805   6.663   5.517 -0.1769  0.0266 -0.0899
 3299TIP3    H1 9861   0.736   6.721   5.485  1.0148  1.8868  0.5524
 3299TIP3    H2 9862   0.821   6.691   5.607  0.8779 -0.8955  0.0336
 3300TIP3   OH2 9863   7.199   1.718   1.271  0.0509 -0.2760  0.4819
 3300TIP3    H1 9864   7.124   1.658   1.279 -2.3537  1.5565 -4.2398
 3300TIP3    H2 9865   7.263   1.670   1.220 -0.2349 -0.1556 -0.0022
 3301TIP3   OH2 9866   4.501   5.070   2.687  0.2286 -0.4596  0.2887
 3301TIP3    H1 9867   4.551   4.988   2.679 -0.6168 -1.0977  1.3224
 3301TIP3    H2 9868   4.494   5.085   2.781  0.5738  0.9472  0.1100
 3302TIP3   OH2 9869   6.657   0.901   1.085 -0.1270 -0.6373 -0.5048
 3302TIP3    H1 9870   6.704   0.885   1.003  2.7434  1.4656  0.5547
 3302TIP3    H2 9871   6.653   0.997   1.092 -0.2695 -0.7646  1.8129
 3303TIP3   OH2 9872   4.708   6.616   4.354 -0.3045 -0.1510 -0.4171
 3303TIP3    H1 9873   4.774   6.560   4.395 -0.6191 -1.2463 -1.3578
 3303TIP3    H2 9874   4.624   6.581   4.384 -0.4917  0.5208 -0.1387
 3304TIP3   OH2 9875   0.283   0.656   3.696 -0.0487 -0.1682 -0.4631
 3304TIP3    H1 9876   0.350   0.600   3.658  0.3074  1.4008 -2.3352
 3304TIP3    H2 9877   0.279   0.630   3.788  3.6883  0.1407 -0.0354
 3305TIP3   OH2 9878   1.705   2.613   3.192  0.6342 -0.0266  0.0106
 3305TIP3    H1 9879   1.741   2.585   3.276 -2.0188  0.6717  1.4916
 3305TIP3    H2 9880   1.670   2.533   3.152 -0.4395 -0.0043  0.8492
 3306TIP3   OH2 9881   0.427   3.287   1.248  0.2477 -0.0628 -0.1034
 3306TIP3    H1 9882   0.360   3.328   1.193 -0.3361 -2.3229 -1.1722
 3306TIP3    H2 9883   0.473   3.227   1.189  2.2548  0.3380  0.9713
 3307TIP3   OH2 9884   6.853   2.836   3.612 -0.3543  0.6245  0.6697
 3307TIP3    H1 9885   6.761   2.830   3.638 -0.7421 -1.5551 -0.9441
 3307TIP3    H2 9886   6.893   2.757   3.649  0.3881  0.4938 -0.3867
 3308TIP3   OH2 9887   6.011   5.476   2.824 -0.5247 -0.1158  0.7284
 3308TIP3    H1 9888   6.066   5.444   2.753 -2.8202 -1.3904 -0.5842
 3308TIP3    H2 9889   5.988   5.565   2.797 -0.4832 -0.1860  0.4584
 3309TIP3   OH2 9890   3.746   0.580   3.191 -0.0550 -0.0023  0.1558
 3309TIP3    H1 9891   3.771   0.531   3.113 -0.0480  0.4615 -0.1390
 3309TIP3    H2 9892   3.765   0.672   3.169  2.0267 -0.0444  1.5139
 3310TIP3   OH2 9893   0.569   5.444   0.290 -0.1567  0.3850 -0.5718
 3310TIP3    H1 9894   0.647   5.476   0.333 -0.1670 -0.7679  0.3248
 3310TIP3    H2 9895   0.594   5.360   0.252 -1.1205 -0.3291  0.3120
 3311TIP3   OH2 9896   1.594   0.763   1.168  0.0064 -0.2422  0.3046
 3311TIP3    H1 9897   1.632   0.848   1.145 -0.2959 -0.0283  0.6004
 3311TIP3    H2 9898   1.508   0.763   1.126  0.0252 -0.4239  0.2640
 3312TIP3   OH2 9899   3.546   0.088   5.476  0.4702  0.1483  0.1295
 3312TIP3    H1 9900   3.583   0.063   5.561 -1.2320  0.1959  0.9072
 3312TIP3    H2 9901   3.552   0.008   5.423  0.3487 -0.2545  0.7137
 3313TIP3   OH2 9902   5.546   0.278   0.781 -0.2638  0.1122 -0.1647
 3313TIP3    H1 9903   5.631   0.322   0.777 -0.3525  0.2557 -0.5021
 3313TIP3    H2 9904   5.559   0.208   0.844 -0.6640  1.8352  1.9709
 3314TIP3   OH2 9905   2.641   0.120   5.436 -0.4441 -0.3396  0.3666
 3314TIP3    H1 9906   2.619   0.060   5.507 -0.1376 -0.3505  0.4528
 3314TIP3    H2 9907   2.707   0.073   5.384 -0.9457 -0.4932 -0.1512
 3315TIP3   OH2 9908   2.352   2.350   3.407  0.3991 -0.3176  0.0441
 3315TIP3    H1 9909   2.366   2.432   3.455  2.1343  0.3278 -1.4721
 3315TIP3    H2 9910   2.335   2.377   3.317 -0.8290 -1.5842 -0.1463
 3316TIP3   OH2 9911   6.047   3.437   1.667  0.3157 -0.2327  0.2201
 3316TIP3    H1 9912   5.987   3.467   1.735  0.2641 -1.1553  0.5995
 3316TIP3    H2 9913   6.109   3.381   1.713  0.0185 -1.2287 -0.5580
 3317TIP3   OH2 9914   6.553   2.781   3.060 -0.3412  0.2473  0.1568
 3317TIP3    H1 9915   6.638   2.791   3.102  0.2826  0.5082 -1.1094
 3317TIP3    H2 9916   6.507   2.717   3.113 -0.3822  1.9985  2.3906
 3318TIP3   OH2 9917   1.790   2.323   2.051 -0.3590 -0.2438 -0.4056
 3318TIP3    H1 9918   1.873   2.299   2.010 -0.2263 -2.2735  0.9383
 3318TIP3    H2 9919   1.802   2.414   2.076  1.2874 -0.3541 -0.6512
 3319TIP3   OH2 9920   6.247   2.139   1.795 -0.1642  0.3207 -0.2901
 3319TIP3    H1 9921   6.169   2.092   1.766  0.8143 -1.4813 -0.1407
 3319TIP3    H2 9922   6.242   2.138   1.890 -1.4136  2.8536 -0.2342
 3320TIP3   OH2 9923   2.923   3.980   0.393 -0.0053  0.0887 -0.0997
 3320TIP3    H1 9924   2.944   3.891   0.366 -0.2962 -0.4370  1.3134
 3320TIP3    H2 9925   2.936   4.033   0.314  0.5300 -1.1387 -0.8634
 3321TIP3   OH2 9926   0.118   6.452   2.324  0.1504  0.0591  0.2988
 3321TIP3    H1 9927   0.082   6.419   2.405 -1.0424 -0.2135 -0.3242
 3321TIP3    H2 9928   0.201   6.492   2.349 -0.3012  0.1741  1.6714
 3322TIP3   OH2 9929   6.126   6.628   2.386 -0.1508 -0.2990 -0.2357
 3322TIP3    H1 9930   6.155   6.719   2.376 -1.7530  0.1420 -1.2563
 3322TIP3    H2 9931   6.033   6.635   2.411 -0.1869 -1.6549  0.0944
 3323TIP3   OH2 9932   0.405   0.119   3.668 -0.6255  0.2396  0.3005
 3323TIP3    H1 9933   0.342   0.140   3.599 -3.2878  1.3535  2.8770
 3323TIP3    H2 9934   0.411   0.023   3.667 -1.1563  0.2025 -0.9786
 3324TIP3   OH2 9935   6.127   4.075   0.517  0.2180  0.3031 -0.2379
 3324TIP3    H1 9936   6.097   3.984   0.513 -1.0884  0.6684  0.6574
 3324TIP3    H2 9937   6.102   4.112   0.432  1.4270 -0.3569 -0.8944
 3325TIP3   OH2 9938   2.992   5.761   3.213  0.1590  0.4682  0.1444
 3325TIP3    H1 9939   3.027   5.677   3.243 -0.8625 -0.0740 -0.1639
 3325TIP3    H2 9940   3.035   5.776   3.129 -0.8310 -0.5430 -0.5742
 3326TIP3   OH2 9941   3.810   3.509   1.387  0.1578 -0.2147 -0.3474
 3326TIP3    H1 9942   3.768   3.591   1.414  2.7553  1.5377 -1.1934
 3326TIP3    H2 9943   3.737   3.452   1.363 -1.8001  2.8506 -2.5288
 3327TIP3   OH2 9944   3.280   0.964   0.367 -0.7020 -0.3762 -0.6785
 3327TIP3    H1 9945   3.285   1.015   0.448  0.1514 -0.0290 -0.9416
 3327TIP3    H2 9946   3.371   0.945   0.345 -0.9663 -1.1211 -1.1500
 3328TIP3   OH2 9947   0.958   4.228   2.757  0.4450  0.1571  0.4343
 3328TIP3    H1 9948   1.020   4.282   2.709  0.8512  0.3903  1.2061
 3328TIP3    H2 9949   0.889   4.289   2.785 -0.8830 -0.3177 -1.5589
 3329TIP3   OH2 9950   4.930   5.126   3.594  0.2617  0.6948 -0.6396
 3329TIP3    H1 9951   4.855   5.182   3.617  0.8871  0.4971  2.2123
 3329TIP3    H2 9952   5.005   5.184   3.598  0.5980  0.2495 -0.4601
 3330TIP3   OH2 9953   0.228   4.198   3.221 -0.0336 -0.9583  0.0241
 3330TIP3    H1 9954   0.298   4.175   3.281  1.6088  0.8258 -1.0658
 3330TIP3    H2 9955   0.186   4.275   3.260  0.1651 -0.6068 -0.4367
 3331TIP3   OH2 9956   3.149   4.552   4.476  0.2532  0.0122  0.4866
 3331TIP3    H1 9957   3.237   4.586   4.490 -0.0268  0.2278  1.9130
 3331TIP3    H2 9958   3.114   4.605   4.404  1.8507 -1.2363 -1.3047
 3332TIP3   OH2 9959   4.401   0.675   2.965  0.0081  0.2734  0.5407
 3332TIP3    H1 9960   4.329   0.738   2.964  1.0402  1.6179  2.9344
 3332TIP3    H2 9961   4.449   0.693   2.884 -0.7653  1.2946  0.2862
 3333TIP3   OH2 9962   2.242   1.652   2.546  0.1265  0.3244  0.2923
 3333TIP3    H1 9963   2.167   1.607   2.586 -0.2058 -0.3996 -1.1037
 3333TIP3    H2 9964   2.208   1.738   2.523 -0.0733  0.2490  0.2985
 3334TIP3   OH2 9965   3.934   6.048   4.199  1.0413 -0.0563  0.0639
 3334TIP3    H1 9966   4.025   6.030   4.224  1.6377  1.4973 -0.8535
 3334TIP3    H2 9967   3.904   6.111   4.264 -0.2033 -2.2703  1.7603
 3335TIP3   OH2 9968   6.245   1.950   4.877 -0.1092 -0.1290 -0.3390
 3335TIP3    H1 9969   6.201   1.869   4.904 -2.2565  1.3033  0.6999
 3335TIP3    H2 9970   6.288   1.981   4.957 -0.9422  0.7324 -0.2111
 3336TIP3   OH2 9971   2.549   2.952   3.914 -0.1535  0.6608  0.2257
 3336TIP3    H1 9972   2.518   2.869   3.877 -2.7403  1.3549  0.6169
 3336TIP3    H2 9973   2.626   2.974   3.863  0.6212 -1.9683  0.1156
 3337TIP3   OH2 9974   6.177   5.801   1.742 -0.0140  0.1052  0.0395
 3337TIP3    H1 9975   6.163   5.713   1.776 -0.2651 -0.0302 -0.4008
 3337TIP3    H2 9976   6.242   5.839   1.800  0.3737 -0.5037  0.0185
 3338TIP3   OH2 9977   1.735   0.506   5.650 -0.2291 -0.9094  0.4604
 3338TIP3    H1 9978   1.733   0.569   5.578  2.4190 -0.5934  0.5722
 3338TIP3    H2 9979   1.696   0.553   5.724  1.7337  0.7140  0.5583
 3339TIP3   OH2 9980   5.209   4.134   1.693  0.3219 -0.3733 -0.1104
 3339TIP3    H1 9981   5.120   4.167   1.704  0.3053  0.5291 -2.4057
 3339TIP3    H2 9982   5.262   4.186   1.754 -0.1405  2.0778 -1.6903
 3340TIP3   OH2 9983   5.135   2.343   0.250  0.9240  0.5148 -0.1896
 3340TIP3    H1 9984   5.197   2.412   0.225  1.7348 -0.1420 -0.0531
 3340TIP3    H2 9985   5.080   2.331   0.173  2.5411 -0.5670 -1.2514
 3341TIP3   OH2 9986   3.727   4.230   5.297  0.4812  0.2207  0.2388
 3341TIP3    H1 9987   3.792   4.260   5.360  1.4908  0.1439 -0.7320
 3341TIP3    H2 9988   3.765   4.250   5.211 -0.7710  0.1565 -0.3582
 3342TIP3   OH2 9989   0.755   0.725   5.242 -0.0388 -0.3438 -0.5140
 3342TIP3    H1 9990   0.748   0.630   5.253  1.2451 -0.9299 -3.7074
 3342TIP3    H2 9991   0.683   0.748   5.184  0.1937  0.4703 -0.4957
 3343TIP3   OH2 9992   1.436   6.628   2.147  0.1512  0.0027 -0.7486
 3343TIP3    H1 9993   1.388   6.546   2.163 -0.3808  0.3730 -0.4279
 3343TIP3    H2 9994   1.368   6.692   2.127  0.4882  0.6004 -0.0314
 3344TIP3   OH2 9995   2.322   2.876   5.276 -0.2103  0.0412  0.0688
 3344TIP3    H1 9996   2.379   2.802   5.252  0.5783  0.5398  0.3649
 3344TIP3    H2 9997   2.383   2.946   5.301 -0.9096  1.1609 -1.2534
 3345TIP3   OH2 9998   4.184   3.431   1.610 -0.1350 -0.1189  0.0587
 3345TIP3    H1 9999   4.130   3.409   1.686 -0.6720 -1.4820 -0.6788
 3345TIP3    H210000   4.142   3.386   1.537  1.6830 -0.7627 -0.6477
 3346TIP3   OH210001   2.453   4.188   2.921  0.3283  0.0129 -0.0941
 3346TIP3    H110002   2.531   4.135   2.907 -0.8397 -2.1552  0.9258
 3346TIP3    H210003   2.463   4.221   3.011 -1.2214 -2.9416  1.3328
 3347TIP3   OH210004   6.079   3.172   4.338  0.0830 -0.1472 -0.5635
 3347TIP3    H110005   6.100   3.249   4.285 -1.8455  0.1696 -0.9754
 3347TIP3    H210006   6.126   3.184   4.420 -1.2955  2.2447 -0.0490
 3348TIP3   OH210007   0.747   5.323   2.570  0.8480 -0.6840 -0.3110
 3348TIP3    H110008   0.743   5.329   2.665 -2.7696 -1.0779 -0.2967
 3348TIP3    H210009   0.819   5.263   2.552  1.5357 -0.6676  2.1594
 3349TIP3   OH210010   6.458   4.006   4.501 -0.2062 -0.4008  0.5573
 3349TIP3    H110011   6.551   4.029   4.499  0.6942 -3.2915  2.3353
 3349TIP3    H210012   6.433   3.997   4.409  1.9483 -1.8278  0.0412
 3350TIP3   OH210013   3.807   0.171   0.755  0.1793  0.8874  0.1460
 3350TIP3    H110014   3.896   0.179   0.720 -0.0585 -1.9419 -1.3723
 3350TIP3    H210015   3.816   0.107   0.826 -0.6789  0.2268 -0.3282
 3351TIP3   OH210016   2.153   3.501   5.582  0.0981  0.4816 -0.1044
 3351TIP3    H110017   2.155   3.410   5.555 -2.1254  0.8747 -1.8400
 3351TIP3    H210018   2.171   3.499   5.676 -1.1573 -1.8656  0.1351
 3352TIP3   OH210019   2.273   0.850   3.194  0.6014 -0.4861 -0.4206
 3352TIP3    H110020   2.249   0.808   3.111  1.0273 -1.4420 -0.0840
 3352TIP3    H210021   2.225   0.801   3.260  0.0357  0.4633 -0.1193
 3353TIP3   OH210022   1.844   5.461   4.091  0.6384  0.8779 -0.2505
 3353TIP3    H110023   1.893   5.452   4.010  0.7080  0.9480 -0.2167
 3353TIP3    H210024   1.891   5.406   4.154  1.1260  1.5417 -0.0185
 3354TIP3   OH210025   6.169   4.590   3.623 -0.2438 -0.5670 -0.2269
 3354TIP3    H110026   6.245   4.633   3.585 -0.6280  0.8061  0.5003
 3354TIP3    H210027   6.206   4.518   3.675  0.4075 -1.0965 -1.3692
 3355TIP3   OH210028   4.122   1.179   4.839 -0.1854 -0.3578 -0.0058
 3355TIP3    H110029   4.188   1.248   4.846  0.8835 -1.3951  0.3841
 3355TIP3    H210030   4.059   1.200   4.908  0.8374 -0.4967  1.0035
 3356TIP3   OH210031   0.425   6.370   2.930 -0.2255 -0.4427  0.0541
 3356TIP3    H110032   0.400   6.395   2.841 -1.5197 -0.4601  0.4034
 3356TIP3    H210033   0.474   6.446   2.963 -0.0752 -0.2838 -0.5252
 3357TIP3   OH210034   1.648   3.348   1.570  0.3287 -0.1479  0.0459
 3357TIP3    H110035   1.729   3.397   1.554 -0.2591  1.5299  1.8434
 3357TIP3    H210036   1.597   3.404   1.629 -1.9394 -1.3778 -0.6236
 3358TIP3   OH210037   5.712   0.943   5.217  0.1523 -0.4800 -0.0614
 3358TIP3    H110038   5.750   0.855   5.208  0.9900 -0.0095 -1.4310
 3358TIP3    H210039   5.780   1.002   5.184 -0.0331  0.7814  1.7042
 3359TIP3   OH210040   2.867   4.845   1.127 -0.5785  0.5168  0.3013
 3359TIP3    H110041   2.949   4.819   1.087 -1.7255 -0.7784 -1.3552
 3359TIP3    H210042   2.809   4.865   1.053 -2.1613  0.0436  1.3559
 3360TIP3   OH210043   3.221   6.195   2.710 -0.4338 -0.0748  0.0296
 3360TIP3    H110044   3.300   6.228   2.754  1.1888 -4.0858  0.6069
 3360TIP3    H210045   3.159   6.178   2.781 -0.5096 -0.0475 -0.0300
 3361TIP3   OH210046   3.308   0.944   5.802  0.1901  0.1151 -0.0187
 3361TIP3    H110047   3.238   0.880   5.817  0.2463  0.1142  0.2348
 3361TIP3    H210048   3.372   0.897   5.748  0.4217 -0.1696  0.5059
 3362TIP3   OH210049   3.947   4.981   4.164  0.3043  0.4975 -0.0344
 3362TIP3    H110050   3.893   4.931   4.103 -2.0463  0.1413  2.1934
 3362TIP3    H210051   4.034   4.941   4.157 -0.7748 -1.9342 -0.4907
 3363TIP3   OH210052   2.239   3.993   3.739 -0.0096 -0.3916 -0.4742
 3363TIP3    H110053   2.190   3.964   3.816  1.3622 -0.1307  0.5437
 3363TIP3    H210054   2.174   3.998   3.669 -1.4792  0.2209  0.8782
 3364TIP3   OH210055   1.075   6.775   1.194 -0.1150 -0.1678  0.5114
 3364TIP3    H110056   1.131   6.799   1.120 -0.5787 -0.3625  0.0930
 3364TIP3    H210057   1.132   6.785   1.271  0.1466  0.8100  0.2152
 3365TIP3   OH210058   5.220   3.414   2.781  0.9923 -0.0300 -0.4710
 3365TIP3    H110059   5.235   3.405   2.875  1.7895  0.5794 -0.5353
 3365TIP3    H210060   5.255   3.500   2.759 -1.3326  0.8692 -0.9069
 3366TIP3   OH210061   6.654   1.720   0.024 -0.4951  0.2616 -0.4171
 3366TIP3    H110062   6.630   1.666  -0.051 -0.3777 -1.6232  0.8640
 3366TIP3    H210063   6.571   1.746   0.063 -0.6281 -2.6867  1.4951
 3367TIP3   OH210064   4.023   4.874   2.600 -0.0465 -0.3274  0.0017
 3367TIP3    H110065   4.118   4.882   2.608 -0.0745  1.1582 -0.8230
 3367TIP3    H210066   4.009   4.784   2.569  1.1242 -0.3831 -0.4150
 3368TIP3   OH210067   0.324   5.349   3.937 -0.4723 -0.0366  0.2517
 3368TIP3    H110068   0.306   5.440   3.914 -1.9903 -0.5308 -0.6511
 3368TIP3    H210069   0.244   5.302   3.914  0.2599 -1.6006  0.7535
 3369TIP3   OH210070   6.080   4.222   4.418 -0.2078  0.3674 -0.1483
 3369TIP3    H110071   6.109   4.294   4.474  1.2265 -1.0220  1.0008
 3369TIP3    H210072   6.014   4.176   4.471  2.0103 -1.6615  1.0388
 3370TIP3   OH210073   2.284   2.580   0.005 -0.0386 -0.7092 -0.0833
 3370TIP3    H110074   2.351   2.582   0.073 -0.5559  1.5845  0.4358
 3370TIP3    H210075   2.205   2.551   0.050 -0.1163 -0.2971  0.0524
 3371TIP3   OH210076   2.475   0.351   3.556  0.1447  0.0336  0.3326
 3371TIP3    H110077   2.434   0.267   3.532  0.1289  0.3467 -0.7941
 3371TIP3    H210078   2.425   0.417   3.508  2.6215  0.3489 -2.1040
 3372TIP3   OH210079   4.273   2.999   3.743 -0.4792  0.1232 -0.0513
 3372TIP3    H110080   4.191   2.956   3.766 -0.3744 -0.1581 -0.2044
 3372TIP3    H210081   4.319   3.010   3.826 -0.2006 -0.6853 -0.0953
 3373TIP3   OH210082   0.823   0.157   2.869  0.0742  0.7215  0.4653
 3373TIP3    H110083   0.771   0.194   2.941 -3.3161 -0.8244 -0.9989
 3373TIP3    H210084   0.862   0.078   2.907 -0.6603  0.5772  0.9440
 3374TIP3   OH210085   4.361   2.476   3.358 -0.5640 -0.1305  0.4321
 3374TIP3    H110086   4.446   2.439   3.383  0.4088  0.3451 -1.9025
 3374TIP3    H210087   4.299   2.404   3.372  0.8510 -1.8153 -1.3716
 3375TIP3   OH210088   4.630   0.231   0.755  0.2546 -0.0273  0.4343
 3375TIP3    H110089   4.725   0.221   0.756  0.4565  1.4451 -0.8568
 3375TIP3    H210090   4.615   0.317   0.794 -0.4772  0.1608 -0.2562
 3376TIP3   OH210091   0.807   2.271   5.716  0.3777  0.2260 -0.1079
 3376TIP3    H110092   0.872   2.334   5.748  3.2846 -1.2572 -2.6462
 3376TIP3    H210093   0.812   2.198   5.779  0.9760  0.2468 -0.1246
 3377TIP3   OH210094   1.967   2.200   4.624 -0.3299 -0.3330  0.0657
 3377TIP3    H110095   1.958   2.156   4.539 -0.0692 -1.4643  0.6030
 3377TIP3    H210096   2.061   2.202   4.641 -0.4035 -0.5076  0.5191
 3378TIP3   OH210097   3.151   1.092   5.609  0.4102 -0.2851 -0.0907
 3378TIP3    H110098   3.061   1.060   5.602  0.7220 -0.9833 -1.2555
 3378TIP3    H210099   3.178   1.070   5.698 -0.6242  0.0950  0.3275
 3379TIP3   OH210100   3.346   1.370   4.478 -0.0708  0.3787  0.0692
 3379TIP3    H110101   3.366   1.379   4.571 -0.8125 -0.4341  0.3239
 3379TIP3    H210102   3.254   1.344   4.476 -0.2042  0.9104 -0.9216
 3380TIP3   OH210103   0.051   6.131   2.958 -1.0728  0.0394  0.2602
 3380TIP3    H110104   0.144   6.109   2.958 -1.5276 -2.1053 -0.1574
 3380TIP3    H210105   0.039   6.184   3.037  0.6526  1.2605 -0.2218
 3381TIP3   OH210106   5.031   6.391   2.233  0.1056 -0.3173 -0.0319
 3381TIP3    H110107   5.038   6.414   2.325 -1.2437 -0.4968  0.1419
 3381TIP3    H210108   5.029   6.475   2.187 -0.8213 -0.1694  0.2556
 3382TIP3   OH210109   5.741   5.657   5.181  0.3162 -0.2233  0.5745
 3382TIP3    H110110   5.710   5.605   5.256 -0.0126 -1.9048 -0.6636
 3382TIP3    H210111   5.820   5.611   5.152  1.0723  1.0552  0.5345
 3383TIP3   OH210112   5.754   5.837   4.546 -0.1260 -0.2779 -0.7752
 3383TIP3    H110113   5.685   5.772   4.534  0.6748 -1.0059 -1.6639
 3383TIP3    H210114   5.820   5.793   4.600  0.0271  0.0923 -0.6571
 3384TIP3   OH210115   3.513   0.392   5.855  0.0261 -0.4522  0.2287
 3384TIP3    H110116   3.507   0.392   5.951  3.1855 -0.1679  0.5548
 3384TIP3    H210117   3.519   0.485   5.832 -2.1197 -0.4424 -0.4404
 3385TIP3   OH210118   5.562   4.281   3.341  0.2966  0.2143 -0.1228
 3385TIP3    H110119   5.576   4.347   3.273 -0.4647  0.8381  0.3225
 3385TIP3    H210120   5.567   4.197   3.294  2.6584  0.4746 -0.4758
 3386TIP3   OH210121   1.228   6.655   3.298  0.2001 -0.1473 -0.3433
 3386TIP3    H110122   1.169   6.627   3.368 -0.2089 -0.2864 -0.7371
 3386TIP3    H210123   1.170   6.698   3.234  0.4603 -0.6575 -0.9346
 3387TIP3   OH210124   5.409   3.253   0.303 -0.6903 -0.2403 -0.3534
 3387TIP3    H110125   5.412   3.347   0.289  1.1272 -0.4646 -1.7519
 3387TIP3    H210126   5.490   3.232   0.350 -0.5844 -1.2223 -0.9356
 3388TIP3   OH210127   3.500   5.906   2.030  0.2524  0.1132 -0.0892
 3388TIP3    H110128   3.593   5.908   2.051  0.4402 -0.1316 -0.8432
 3388TIP3    H210129   3.493   5.959   1.950 -0.2013 -0.1331 -0.2169
 3389TIP3   OH210130   6.530   2.303   2.238 -0.2203 -0.6953  0.0502
 3389TIP3    H110131   6.496   2.253   2.164 -0.0354 -0.3480 -0.2742
 3389TIP3    H210132   6.592   2.364   2.199  0.0529 -0.6661  0.5218
 3390TIP3   OH210133   0.082   2.335   3.512 -0.0480  0.1357  0.2086
 3390TIP3    H110134   0.166   2.346   3.467 -0.4209  0.8462 -0.3217
 3390TIP3    H210135   0.054   2.246   3.487  0.0892  0.2539 -0.4013
 3391TIP3   OH210136   7.151   6.312   3.143  0.1446 -0.3628  0.0005
 3391TIP3    H110137   7.201   6.371   3.086  1.7583 -0.1670  1.5229
 3391TIP3    H210138   7.137   6.363   3.223 -0.0833 -1.3935  0.6357
 3392TIP3   OH210139   1.819   3.729   5.294 -0.0996  0.5345  0.9158
 3392TIP3    H110140   1.735   3.708   5.253  0.9148  1.7281 -2.1011
 3392TIP3    H210141   1.866   3.646   5.299 -0.8475  0.1209  1.1346
 3393TIP3   OH210142   3.565   5.790   5.028 -0.0332  0.3198  0.8171
 3393TIP3    H110143   3.604   5.703   5.020 -2.7625 -0.7836 -3.2320
 3393TIP3    H210144   3.626   5.848   4.983  1.0287  0.3306  2.1816
 3394TIP3   OH210145   1.431   4.709   4.967  0.0269  0.0428 -0.2406
 3394TIP3    H110146   1.401   4.734   4.879 -0.1922  1.9845  0.3287
 3394TIP3    H210147   1.505   4.768   4.984  0.0778 -0.3316  0.8577
 3395TIP3   OH210148   0.460   0.873   1.944 -0.0120 -0.1782 -0.2024
 3395TIP3    H110149   0.401   0.947   1.960  1.4171  0.7359  1.1104
 3395TIP3    H210150   0.521   0.874   2.018  2.0455 -0.7070 -1.7922
 3396TIP3   OH210151   6.394   6.186   3.488  0.2236 -0.4767 -0.3455
 3396TIP3    H110152   6.375   6.254   3.553  2.7591 -2.0130  2.2459
 3396TIP3    H210153   6.331   6.116   3.508  0.1928 -0.4628 -0.3920
 3397TIP3   OH210154   5.556   6.783   5.288  0.6995 -0.4379  0.5531
 3397TIP3    H110155   5.578   6.806   5.198 -1.9542  1.1350  0.2202
 3397TIP3    H210156   5.503   6.704   5.281 -1.2716  0.8391  0.4814
 3398TIP3   OH210157   5.668   6.287   4.016  0.0612  0.5824 -0.4654
 3398TIP3    H110158   5.728   6.361   4.015 -1.1237  1.5855 -1.0076
 3398TIP3    H210159   5.604   6.309   4.084  0.4241 -0.5818  0.2812
 3399TIP3   OH210160   1.872   2.385   2.623  0.1530 -0.2174 -0.0447
 3399TIP3    H110161   1.904   2.396   2.713  0.2221  1.5630 -0.2511
 3399TIP3    H210162   1.885   2.471   2.582 -1.0774 -0.6269 -1.3743
 3400TIP3   OH210163   3.843   2.211   5.859 -0.4435 -0.0424  0.2168
 3400TIP3    H110164   3.843   2.150   5.933  3.0855 -0.5681 -0.0419
 3400TIP3    H210165   3.815   2.158   5.785  0.4190 -0.7815  0.3988
 3401TIP3   OH210166   6.530   1.293   4.660 -0.2523  0.6502 -0.4070
 3401TIP3    H110167   6.609   1.315   4.709 -1.3702  0.8448  1.4078
 3401TIP3    H210168   6.562   1.264   4.575  1.7202  1.4003  0.0181
 3402TIP3   OH210169   3.872   3.604   0.469 -0.7368 -0.5000 -0.3686
 3402TIP3    H110170   3.784   3.637   0.448 -0.4423 -0.6590 -1.9607
 3402TIP3    H210171   3.856   3.539   0.538 -1.4383  2.0491  2.0663
 3403TIP3   OH210172   2.190   3.655   2.280 -0.5917  0.0662  0.1018
 3403TIP3    H110173   2.265   3.619   2.328  1.0556  0.3977 -2.0537
 3403TIP3    H210174   2.118   3.655   2.343  1.0957 -0.7108  2.1232
 3404TIP3   OH210175   5.584   3.165   5.736  0.0549  0.8191  0.0534
 3404TIP3    H110176   5.621   3.156   5.824  1.0288  0.0221 -0.4162
 3404TIP3    H210177   5.546   3.253   5.735 -0.8647  0.4757  1.5918
 3405TIP3   OH210178   6.397   1.405   2.802 -0.3312 -0.1852  0.9456
 3405TIP3    H110179   6.374   1.425   2.892  2.3100 -1.0828  1.9139
 3405TIP3    H210180   6.439   1.319   2.806 -0.5418 -0.4614 -1.2286
 3406TIP3   OH210181   5.513   6.009   4.768 -0.2960 -0.0889  0.2498
 3406TIP3    H110182   5.470   5.967   4.843 -0.3037  1.3837  1.1116
 3406TIP3    H210183   5.606   5.991   4.781 -0.4025 -0.9689 -0.1319
 3407TIP3   OH210184   7.095   0.429   0.211 -0.1112 -0.0707  0.1907
 3407TIP3    H110185   7.169   0.480   0.243  0.3054 -1.0815  0.8703
 3407TIP3    H210186   7.134   0.363   0.154 -0.5171 -0.4036  0.2920
 3408TIP3   OH210187   5.986   4.534   5.316 -0.0913  0.2853  0.4017
 3408TIP3    H110188   6.045   4.486   5.259  1.3078  1.4155  0.8381
 3408TIP3    H210189   6.042   4.564   5.388 -1.4067  0.5508  1.3426
 3409TIP3   OH210190   1.042   4.134   3.985  0.2711 -0.1453  0.6050
 3409TIP3    H110191   1.089   4.194   3.928  0.5932 -1.7125 -0.8722
 3409TIP3    H210192   0.951   4.162   3.979  0.4778  0.4657  0.2789
 3410TIP3   OH210193   5.653   0.190   2.831 -0.3307 -0.5265 -0.2016
 3410TIP3    H110194   5.718   0.204   2.900  1.4534  0.4662 -1.9850
 3410TIP3    H210195   5.637   0.096   2.831  1.2132 -0.8087  0.1937
 3411TIP3   OH210196   4.597   5.379   4.218  0.2291  0.4525 -0.3368
 3411TIP3    H110197   4.502   5.378   4.232  0.1626  0.9616 -0.7443
 3411TIP3    H210198   4.629   5.450   4.274  0.1185  1.6214 -1.7158
 3412TIP3   OH210199   3.951   5.836   3.988  0.2976  0.0916 -0.3429
 3412TIP3    H110200   3.887   5.781   4.034 -1.4571  0.8829 -1.6867
 3412TIP3    H210201   3.960   5.914   4.043  0.1592 -0.0693 -0.0904
 3413TIP3   OH210202   3.265   1.803   1.491 -0.1088 -0.1509 -0.1902
 3413TIP3    H110203   3.180   1.797   1.534  0.3857 -0.2012  0.8062
 3413TIP3    H210204   3.259   1.881   1.436 -0.3230  0.7042  0.9956
 3414TIP3   OH210205   4.493   2.938   3.590 -0.3272  0.3672 -0.3489
 3414TIP3    H110206   4.428   2.987   3.640 -1.0675 -1.3461  0.4578
 3414TIP3    H210207   4.455   2.851   3.580  0.5096  0.1806 -2.5602
 3415TIP3   OH210208   0.148   5.086   1.894 -0.1900 -0.1453  0.3441
 3415TIP3    H110209   0.172   5.022   1.826 -1.9837 -2.7413  1.9947
 3415TIP3    H210210   0.061   5.116   1.869 -0.0316  0.4411  0.4720
 3416TIP3   OH210211   1.966   1.043   5.913 -0.7516  0.3928 -0.4039
 3416TIP3    H110212   1.912   0.966   5.896 -0.0232 -0.5531  1.3153
 3416TIP3    H210213   2.007   1.063   5.828 -1.5459 -0.6304 -1.0505
 3417TIP3   OH210214   0.489   2.550   3.778 -0.2619  0.3647  0.1893
 3417TIP3    H110215   0.464   2.628   3.728 -2.1768  0.0586  0.5951
 3417TIP3    H210216   0.432   2.481   3.745  1.7345 -1.0617 -0.5282
 3418TIP3   OH210217   6.822   6.427   5.132  0.0234 -0.5075 -0.3947
 3418TIP3    H110218   6.870   6.505   5.102 -0.3364 -0.9250 -2.1295
 3418TIP3    H210219   6.875   6.394   5.205  0.6595  0.8393 -0.2049
 3419TIP3   OH210220   4.629   1.732   3.228 -0.2700  0.0074 -0.3963
 3419TIP3    H110221   4.713   1.692   3.206  0.0578  0.5673 -0.1716
 3419TIP3    H210222   4.611   1.793   3.157 -1.4133 -1.4552 -1.4294
 3420TIP3   OH210223   2.572   5.288   5.780 -0.5135 -0.3333 -0.2956
 3420TIP3    H110224   2.633   5.358   5.801  0.5090 -0.3762 -2.7277
 3420TIP3    H210225   2.629   5.213   5.758 -1.4830 -0.9033 -0.9210
 3421TIP3   OH210226   5.704   4.682   5.738  0.3469  0.4058  0.2714
 3421TIP3    H110227   5.633   4.633   5.698  1.0307 -1.7013  1.4823
 3421TIP3    H210228   5.660   4.743   5.797 -0.5031  0.3750 -0.3079
 3422TIP3   OH210229   6.787   3.765   4.521  0.1094 -0.1265 -0.4502
 3422TIP3    H110230   6.859   3.715   4.482 -0.2898  0.0718 -1.4746
 3422TIP3    H210231   6.797   3.853   4.484 -1.7646 -0.5488 -2.1529
 3423TIP3   OH210232   3.591   1.250   3.779 -0.4544 -0.1567  0.2433
 3423TIP3    H110233   3.638   1.301   3.713 -1.2824 -0.9738 -1.0234
 3423TIP3    H210234   3.650   1.177   3.799 -1.3729 -1.6031 -1.9003
 3424TIP3   OH210235   0.498   6.568   1.988  0.3256 -0.6439  0.0188
 3424TIP3    H110236   0.552   6.489   1.994 -0.1150 -0.9281  0.2789
 3424TIP3    H210237   0.435   6.560   2.060 -0.2127 -0.4266 -0.4221
 3425TIP3   OH210238   5.202   0.968   2.890 -0.2125  0.2708 -0.0448
 3425TIP3    H110239   5.179   0.933   2.803  1.9901  0.1149 -0.6250
 3425TIP3    H210240   5.185   0.895   2.950 -1.6709  0.3489 -0.3200
 3426TIP3   OH210241   1.848   1.720   0.543  0.1882 -0.6632 -0.8112
 3426TIP3    H110242   1.802   1.771   0.609  2.2772 -1.1467  1.1121
 3426TIP3    H210243   1.817   1.630   0.556  0.4297 -0.7224 -0.6414
 3427TIP3   OH210244   3.039   4.010   3.251 -0.2718  0.0733 -0.7012
 3427TIP3    H110245   3.120   4.059   3.263 -0.5396 -0.0496  2.4777
 3427TIP3    H210246   2.973   4.078   3.234  0.2563  0.2455 -2.2843
 3428TIP3   OH210247   2.644   0.278   1.746  0.3799 -0.4622 -0.4707
 3428TIP3    H110248   2.573   0.215   1.739 -0.5857  0.3487  1.2963
 3428TIP3    H210249   2.671   0.274   1.838  0.6130  1.3427 -0.4278
 3429TIP3   OH210250   4.306   5.109   0.783 -0.4462 -0.5375 -0.3163
 3429TIP3    H110251   4.279   5.173   0.717 -0.1892  1.9583  1.8350
 3429TIP3    H210252   4.398   5.092   0.762 -0.4038  0.1015 -0.7008
 3430TIP3   OH210253   7.036   0.061   2.877 -0.1890  0.1641  0.1585
 3430TIP3    H110254   7.081   0.099   2.801 -0.2969 -0.9796 -0.4899
 3430TIP3    H210255   6.975  -0.002   2.840 -0.7451  0.0896  1.1661
 3431TIP3   OH210256   3.184   4.974   5.380  0.1988  0.2030 -0.2932
 3431TIP3    H110257   3.217   4.970   5.470  1.1929  0.3046 -0.6406
 3431TIP3    H210258   3.222   5.055   5.345 -0.7881  0.5586 -0.5800
 3432TIP3   OH210259   5.506   0.867   3.513  0.1743 -0.0902 -0.3520
 3432TIP3    H110260   5.583   0.924   3.522 -0.0093  0.0415  0.4753
 3432TIP3    H210261   5.542   0.784   3.482  0.5167  0.2979 -1.0124
 3433TIP3   OH210262   4.645   5.615   4.710 -0.5073 -0.1700 -0.2565
 3433TIP3    H110263   4.623   5.698   4.666  1.4120  0.9218  0.7138
 3433TIP3    H210264   4.667   5.640   4.799  1.0065 -1.5915 -0.1820
 3434TIP3   OH210265   2.591   3.991   1.060 -0.4050  0.1286  0.3623
 3434TIP3    H110266   2.571   3.977   1.152 -1.5327  1.3448  0.3275
 3434TIP3    H210267   2.683   4.019   1.059  0.9268 -3.5631  0.7090
 3435TIP3   OH210268   6.913   3.130   3.078 -0.0534  0.0272 -1.1061
 3435TIP3    H110269   6.972   3.178   3.136  1.6055 -1.7114 -1.2492
 3435TIP3    H210270   6.894   3.191   3.007  1.5071  0.6904 -0.9935
 3436TIP3   OH210271   5.799   0.992   2.121 -0.0267  0.2702  0.7336
 3436TIP3    H110272   5.815   0.905   2.085 -0.3703  1.2072 -1.8863
 3436TIP3    H210273   5.708   0.990   2.150  0.1247 -0.3820  1.1836
 3437TIP3   OH210274   0.212   2.371   4.055  0.1994 -0.0578 -0.0769
 3437TIP3    H110275   0.294   2.322   4.052  0.7436  0.5664  2.4492
 3437TIP3    H210276   0.239   2.463   4.049 -0.3690  0.1290  0.1531
 3438TIP3   OH210277   5.541   1.792   4.304 -0.8621 -0.0047 -0.1691
 3438TIP3    H110278   5.520   1.704   4.336  0.2873 -1.1229 -2.2323
 3438TIP3    H210279   5.633   1.787   4.279 -0.9088  1.6356 -0.8037
 3439TIP3   OH210280   6.096   2.873   0.784  0.1633 -0.5969  0.1595
 3439TIP3    H110281   6.026   2.938   0.774 -0.0195 -0.8995 -0.6018
 3439TIP3    H210282   6.169   2.908   0.733  0.4244 -0.4787  0.6165
 3440TIP3   OH210283   4.757   5.284   3.078 -0.0966 -0.1707 -0.3771
 3440TIP3    H110284   4.745   5.362   3.025 -0.0625  0.3802  0.4016
 3440TIP3    H210285   4.670   5.245   3.084 -0.2201  0.1136 -0.3129
 3441TIP3   OH210286   5.238   0.309   1.968 -0.3526  0.0823 -0.4418
 3441TIP3    H110287   5.192   0.240   2.017 -0.4364 -1.3415 -2.4025
 3441TIP3    H210288   5.327   0.307   2.003 -0.1757 -1.5156 -0.9112
 3442TIP3   OH210289   0.833   5.841   4.507  0.2014 -0.3891  0.3897
 3442TIP3    H110290   0.880   5.764   4.539 -0.1864  0.2945  2.8078
 3442TIP3    H210291   0.817   5.893   4.585 -0.1701  1.8362 -1.0797
 3443TIP3   OH210292   0.267   5.817   0.108 -0.6091 -0.0320  0.1735
 3443TIP3    H110293   0.171   5.816   0.110 -0.6388 -0.0340 -1.0311
 3443TIP3    H210294   0.290   5.900   0.150 -1.1372  0.0186  0.3814
 3444TIP3   OH210295   6.973   5.561   1.349  0.5058  0.2062  0.2028
 3444TIP3    H110296   7.060   5.577   1.387  0.4108  0.0277  0.5015
 3444TIP3    H210297   6.912   5.579   1.421  0.2500  1.0465 -0.2139
 3445TIP3   OH210298   5.643   4.009   4.563  0.2083 -0.0019  0.1298
 3445TIP3    H110299   5.576   4.032   4.627 -0.7642 -1.4924 -0.3073
 3445TIP3    H210300   5.612   4.048   4.481  0.5897  0.4596  0.1974
 3446TIP3   OH210301   0.119   1.031   1.413  0.5315 -0.2434  0.5862
 3446TIP3    H110302   0.092   1.093   1.481  1.3244  1.5872 -0.6785
 3446TIP3    H210303   0.213   1.018   1.428  0.5858 -0.2987  0.2178
 3447TIP3   OH210304   1.938   1.796   2.759  0.1834 -0.3123  0.2825
 3447TIP3    H110305   1.921   1.857   2.688 -0.1185 -1.4519 -0.6613
 3447TIP3    H210306   1.852   1.777   2.796  0.0705 -1.3103 -0.4352
 3448TIP3   OH210307   3.395   0.953  -0.005  0.5804  0.2574  0.0550
 3448TIP3    H110308   3.417   1.037   0.037  0.5156  0.1644  0.2755
 3448TIP3    H210309   3.300   0.947   0.003  0.6179  0.0180  0.3080
 3449TIP3   OH210310   5.390   6.217   3.115 -0.0966  0.2201  1.1146
 3449TIP3    H110311   5.407   6.311   3.108 -1.7684  0.4512 -1.5219
 3449TIP3    H210312   5.334   6.208   3.192  0.3531  1.3378  1.5883
 3450TIP3   OH210313   5.561   5.859   5.268  0.4703 -0.6187 -0.0654
 3450TIP3    H110314   5.538   5.884   5.179  3.0545  0.7914 -0.4411
 3450TIP3    H210315   5.628   5.791   5.258  1.1219 -0.1204  0.7485
 3451TIP3   OH210316   0.162   2.860   4.998 -0.7264 -0.0029 -0.3377
 3451TIP3    H110317   0.103   2.819   5.061  0.2217  1.7424  1.8424
 3451TIP3    H210318   0.147   2.954   5.010  1.4979  0.4490 -0.6590
 3452TIP3   OH210319   5.518   6.289   3.637 -0.6754  0.0286  0.0775
 3452TIP3    H110320   5.524   6.366   3.694 -2.5386  0.1332  0.1825
 3452TIP3    H210321   5.497   6.217   3.695 -1.4205 -0.0838 -0.3244
 3453TIP3   OH210322   5.360   4.740   2.569 -0.2757 -0.4581 -0.5988
 3453TIP3    H110323   5.401   4.808   2.516  0.8331 -1.3122 -0.8773
 3453TIP3    H210324   5.405   4.659   2.544  0.4192 -0.8715  1.7603
 3454TIP3   OH210325   2.419   4.035   0.625 -0.0457  0.5119  0.3262
 3454TIP3    H110326   2.509   4.021   0.596  0.1477  1.0304  0.6710
 3454TIP3    H210327   2.402   3.965   0.688 -1.1627 -1.9635 -2.4436
 3455TIP3   OH210328   4.850   3.858   1.475  0.3414  0.0377  0.2362
 3455TIP3    H110329   4.880   3.870   1.385  2.7423 -1.6892  0.6904
 3455TIP3    H210330   4.769   3.908   1.481  0.6258  0.9906 -2.5883
 3456TIP3   OH210331   4.158   2.122   1.885 -0.3201  0.3996  0.2259
 3456TIP3    H110332   4.185   2.203   1.841 -0.4292  0.2674 -0.0889
 3456TIP3    H210333   4.150   2.146   1.977 -3.8688  1.7148 -0.2720
 3457TIP3   OH210334   5.583   0.885   2.259  0.1938  0.0090 -0.0243
 3457TIP3    H110335   5.596   0.794   2.232 -0.5683  0.7687 -3.3516
 3457TIP3    H210336   5.490   0.901   2.244  0.7330  1.9181 -1.7477
 3458TIP3   OH210337   6.642   4.537   5.219  0.6421  0.5391  0.7170
 3458TIP3    H110338   6.627   4.456   5.171 -0.6157  1.6976 -1.0166
 3458TIP3    H210339   6.736   4.538   5.237  0.8300 -0.8427 -0.0765
 3459TIP3   OH210340   1.965   0.985   1.842 -0.3516 -0.5124 -0.0350
 3459TIP3    H110341   2.053   1.011   1.870 -0.9193  0.6913  0.7338
 3459TIP3    H210342   1.945   0.907   1.894 -0.8316  0.8700  1.9755
 3460TIP3   OH210343   2.751   6.773   1.639  0.2594  0.3767  0.3357
 3460TIP3    H110344   2.764   6.683   1.610  0.1215  0.9234 -1.4875
 3460TIP3    H210345   2.838   6.813   1.635 -0.0317  0.9102 -0.9544
 3461TIP3   OH210346   2.788   1.417   1.178  0.3705 -0.0475  0.5990
 3461TIP3    H110347   2.755   1.434   1.267  0.1231 -0.2313  0.5449
 3461TIP3    H210348   2.749   1.486   1.125  1.5999  0.8710  0.8663
 3462TIP3   OH210349   3.746   1.793   1.316  0.2408  0.0558 -0.4694
 3462TIP3    H110350   3.831   1.830   1.340  0.8882 -2.1307  0.9296
 3462TIP3    H210351   3.728   1.730   1.385 -0.7171 -2.2474 -2.6809
 3463TIP3   OH210352   0.126   2.080   5.205  0.2743  0.1681 -0.4205
 3463TIP3    H110353   0.032   2.091   5.217  0.3089 -0.3102  0.3244
 3463TIP3    H210354   0.164   2.099   5.291  0.7229 -1.1628 -0.3088
 3464TIP3   OH210355   0.980   0.896   4.377  0.2633 -0.0533 -0.0880
 3464TIP3    H110356   1.055   0.897   4.437  0.7157 -0.4475 -0.6352
 3464TIP3    H210357   0.960   0.988   4.362 -0.2322  0.0534  1.1253
 3465TIP3   OH210358   3.791   6.123   1.348  0.3219  0.5290  0.1876
 3465TIP3    H110359   3.709   6.134   1.396 -0.5131  0.9240 -1.2669
 3465TIP3    H210360   3.827   6.040   1.379 -1.9166 -0.9660 -0.9689
 3466TIP3   OH210361   5.977   1.123   3.839 -0.2253 -0.0094  0.8906
 3466TIP3    H110362   6.069   1.106   3.859  0.2197  1.7412  0.4550
 3466TIP3    H210363   5.930   1.093   3.917  0.7790 -0.1752  1.4453
 3467TIP3   OH210364   2.079   4.533   3.326 -0.0370  0.1041  0.5770
 3467TIP3    H110365   2.103   4.442   3.343 -1.0420 -0.0345  1.3353
 3467TIP3    H210366   2.027   4.559   3.402 -0.2410  1.1362  0.1035
 3468TIP3   OH210367   3.521   2.266   1.250 -0.8794  0.8783 -0.2208
 3468TIP3    H110368   3.553   2.179   1.272  0.7253  1.5344  0.1898
 3468TIP3    H210369   3.455   2.251   1.182  0.3457 -0.5627 -1.1442
 3469TIP3   OH210370   6.658   3.886   0.575 -0.6528 -0.6198 -0.0497
 3469TIP3    H110371   6.707   3.849   0.501  2.3295  0.7237  1.0927
 3469TIP3    H210372   6.594   3.945   0.534 -0.7710 -1.7362 -1.5850
 3470TIP3   OH210373   1.151   5.697   0.979  0.1370  0.4877 -0.0544
 3470TIP3    H110374   1.119   5.694   0.889 -0.2368  0.4185  0.0823
 3470TIP3    H210375   1.099   5.766   1.021 -1.0626 -0.7951  0.6412
 3471TIP3   OH210376   6.568   2.682   0.237 -0.3089 -0.1066 -0.4953
 3471TIP3    H110377   6.498   2.743   0.257 -0.0354  0.2695 -0.6781
 3471TIP3    H210378   6.547   2.649   0.149 -0.0406  0.3192 -0.7241
 3472TIP3   OH210379   4.258   4.293   3.928 -0.6168 -0.0318 -0.5435
 3472TIP3    H110380   4.349   4.320   3.944 -0.1743 -1.1047 -1.2100
 3472TIP3    H210381   4.251   4.286   3.833 -0.5054 -2.8564 -0.4182
 3473TIP3   OH210382   5.962   2.660   3.279  0.2628 -0.5571  0.3867
 3473TIP3    H110383   6.009   2.612   3.210 -0.3129  0.4134 -0.7083
 3473TIP3    H210384   6.021   2.731   3.303 -1.2189  1.7439 -2.2419
 3474TIP3   OH210385   6.789   2.387   3.862  0.1659 -0.0884 -0.2553
 3474TIP3    H110386   6.775   2.406   3.955  1.6574  0.1646 -0.0461
 3474TIP3    H210387   6.731   2.314   3.843 -0.7041  0.3381  0.6910
 3475TIP3   OH210388   5.964   6.765   0.103 -0.2355 -0.0382  0.2342
 3475TIP3    H110389   5.885   6.733   0.147 -0.0196 -1.1642 -0.1620
 3475TIP3    H210390   5.961   6.860   0.114 -1.7606 -0.0411  0.0316
 3476TIP3   OH210391   2.237   3.632   1.488 -0.0355 -0.5020  0.2775
 3476TIP3    H110392   2.152   3.621   1.445  0.2808 -0.7974 -0.2961
 3476TIP3    H210393   2.299   3.642   1.415  0.7167 -2.4035  0.5837
 3477TIP3   OH210394   3.447   4.928   0.464  0.2853  0.7559  0.1013
 3477TIP3    H110395   3.443   4.916   0.369  1.0927 -0.5562  0.2152
 3477TIP3    H210396   3.498   5.008   0.476 -0.6350  1.4585 -0.5833
 3478TIP3   OH210397   6.924   0.500   3.391 -0.3746 -0.2985 -0.2248
 3478TIP3    H110398   6.834   0.526   3.405  0.1380  0.4483  1.9404
 3478TIP3    H210399   6.966   0.507   3.476  1.9261  0.0813 -1.2972
 3479TIP3   OH210400   6.053   0.999   2.008 -0.5272 -0.3557  0.2677
 3479TIP3    H110401   6.092   0.957   1.931  0.9634  0.3334  0.5985
 3479TIP3    H210402   6.094   0.954   2.082 -0.5286  0.2324  0.6312
 3480TIP3   OH210403   6.845   6.688   1.569  0.2972  0.0496  0.5259
 3480TIP3    H110404   6.788   6.749   1.615  0.6282  0.4506  0.4080
 3480TIP3    H210405   6.804   6.602   1.582 -1.9311  0.6063 -1.9190
 3481TIP3   OH210406   1.136   3.373   1.538 -0.2808 -0.2491 -0.2899
 3481TIP3    H110407   1.149   3.401   1.628  1.4368 -0.3784 -0.4676
 3481TIP3    H210408   1.190   3.295   1.528  0.7450  0.5973 -1.8087
 3482TIP3   OH210409   6.048   5.690   3.151  0.2892 -0.2855  0.3306
 3482TIP3    H110410   6.142   5.669   3.156  0.1885 -0.7538  0.2770
 3482TIP3    H210411   6.034   5.717   3.061  0.6644  1.2248  0.6915
 3483TIP3   OH210412   4.281   2.500   3.000 -0.5070 -0.1107  0.3807
 3483TIP3    H110413   4.359   2.447   2.984 -1.9018 -1.7181 -1.5086
 3483TIP3    H210414   4.216   2.438   3.034 -1.1144  1.1307  1.5774
 3484TIP3   OH210415   1.377   3.787   0.625 -0.1399 -0.7822  0.3378
 3484TIP3    H110416   1.391   3.773   0.532  0.0357  0.1877  0.2074
 3484TIP3    H210417   1.361   3.699   0.661 -2.2258 -0.9889 -0.9210
 3485TIP3   OH210418   1.402   5.594   0.917  0.5405 -0.2596 -0.6727
 3485TIP3    H110419   1.315   5.623   0.944  1.0222 -0.5720  1.3767
 3485TIP3    H210420   1.455   5.674   0.917  0.4574 -0.2046 -1.0469
 3486TIP3   OH210421   5.915   6.561   2.710 -0.1293  0.4569 -0.6396
 3486TIP3    H110422   5.982   6.609   2.759  0.6078 -0.1796 -0.9985
 3486TIP3    H210423   5.863   6.628   2.668  0.1135  0.9729 -0.1334
 3487TIP3   OH210424   1.924   0.310   3.987  0.6825  0.0070  0.1756
 3487TIP3    H110425   1.971   0.379   4.033  1.7662 -0.6384  0.0736
 3487TIP3    H210426   1.963   0.229   4.019  1.7841 -0.4587 -2.1448
 3488TIP3   OH210427   1.853   6.612   2.269  0.7478  0.0681  0.4044
 3488TIP3    H110428   1.922   6.648   2.213  1.8699 -1.7138  0.5487
 3488TIP3    H210429   1.892   6.610   2.356  0.2958 -0.4369  0.5969
 3489TIP3   OH210430   4.871   4.271   5.702  0.1378 -0.0599  0.4146
 3489TIP3    H110431   4.786   4.296   5.740  0.5353  0.8812  0.7256
 3489TIP3    H210432   4.856   4.184   5.666 -1.0750  0.2571  0.0949
 3490TIP3   OH210433   2.273   1.631   4.925  0.0722 -0.0278  0.2768
 3490TIP3    H110434   2.283   1.599   5.015  3.5942 -3.0172 -0.9197
 3490TIP3    H210435   2.251   1.554   4.874  1.3805  0.8968 -1.8419
 3491TIP3   OH210436   0.731   3.488   2.471  0.2513 -0.5536 -0.3904
 3491TIP3    H110437   0.810   3.513   2.518 -0.5512 -0.1770  0.8092
 3491TIP3    H210438   0.707   3.567   2.422  1.5801 -1.2153 -2.2216
 3492TIP3   OH210439   2.956   1.773   3.390  0.3624 -0.2796 -0.1177
 3492TIP3    H110440   2.896   1.842   3.362  1.2833  1.0866  1.0957
 3492TIP3    H210441   2.920   1.742   3.473 -0.1006 -1.3722 -0.7046
 3493TIP3   OH210442   2.287   2.249   1.196  0.2196 -0.0965 -0.1596
 3493TIP3    H110443   2.297   2.210   1.283 -0.1401  0.9291  0.3604
 3493TIP3    H210444   2.194   2.240   1.176 -0.2760  2.0993  0.8002
 3494TIP3   OH210445   4.765   3.571   4.753 -0.3055  0.5317  0.6545
 3494TIP3    H110446   4.791   3.663   4.748 -0.4148  0.5135 -1.3610
 3494TIP3    H210447   4.838   3.524   4.712 -0.6763 -0.1697  0.7949
 3495TIP3   OH210448   7.193   5.649   4.330 -0.4239  0.6250 -0.2822
 3495TIP3    H110449   7.164   5.571   4.283  0.7333 -0.5590  0.8500
 3495TIP3    H210450   7.266   5.682   4.278 -0.1326  0.2167 -0.1439
 3496TIP3   OH210451   3.240   3.747   5.554 -0.0597 -0.3992 -0.2354
 3496TIP3    H110452   3.282   3.784   5.476  0.4732 -0.9212 -0.1984
 3496TIP3    H210453   3.297   3.773   5.626 -1.1328  1.0437  0.1427
 3497TIP3   OH210454   4.696   6.757   0.652  0.0746  0.1444 -0.9714
 3497TIP3    H110455   4.709   6.734   0.560 -0.0330  0.9969 -1.2065
 3497TIP3    H210456   4.636   6.832   0.650  0.2188  0.2879 -0.2186
 3498TIP3   OH210457   4.849   4.566   1.569 -0.4280  0.1964 -0.8169
 3498TIP3    H110458   4.869   4.545   1.661 -0.2284  2.6384 -0.2438
 3498TIP3    H210459   4.909   4.511   1.519 -0.5427 -1.2038  0.4786
 3499TIP3   OH210460   3.159   3.770   0.702  0.0210  0.6510  0.3296
 3499TIP3    H110461   3.253   3.789   0.696  0.0467  0.4003 -0.0926
 3499TIP3    H210462   3.149   3.729   0.788 -0.0506  2.5968  1.2902
 3500TIP3   OH210463   7.019   5.185   3.310 -0.1935 -0.1052  0.3510
 3500TIP3    H110464   6.970   5.163   3.389 -1.0311 -2.0969 -0.6575
 3500TIP3    H210465   6.968   5.147   3.239  2.3568 -1.5743 -0.8370
 3501TIP3   OH210466   1.666   3.796   0.743 -0.7761  0.8596 -0.2398
 3501TIP3    H110467   1.675   3.710   0.784 -1.6369  0.4771 -0.8358
 3501TIP3    H210468   1.581   3.794   0.700 -0.7540  1.9690 -0.3738
 3502TIP3   OH210469   3.217   6.280   4.801 -0.1188  0.0856  0.0777
 3502TIP3    H110470   3.278   6.236   4.860  1.3551  1.7096 -0.1648
 3502TIP3    H210471   3.130   6.262   4.838  0.5930 -0.9418  1.3334
 3503TIP3   OH210472   0.668   1.114   0.676 -0.1995 -0.5627  0.1208
 3503TIP3    H110473   0.614   1.194   0.671  0.6789 -0.0327 -1.2826
 3503TIP3    H210474   0.604   1.043   0.673 -0.9999  0.0481  1.3482
 3504TIP3   OH210475   3.783   1.982   3.827  0.1915  0.3673 -0.3534
 3504TIP3    H110476   3.797   1.887   3.826  0.3669  0.2883  2.3604
 3504TIP3    H210477   3.859   2.018   3.781  2.1553 -0.7064  1.8085
 3505TIP3   OH210478   2.709   0.722   2.032  0.0568 -0.1459  0.4453
 3505TIP3    H110479   2.682   0.673   1.955 -1.3539 -0.6780  1.2500
 3505TIP3    H210480   2.748   0.657   2.090  0.1753  0.0668  0.6054
 3506TIP3   OH210481   3.829   4.345   2.777 -0.0638  0.7460  0.5014
 3506TIP3    H110482   3.852   4.354   2.685 -0.0268  1.2045  0.5500
 3506TIP3    H210483   3.863   4.425   2.818 -0.7744  0.9233  0.7673
 3507TIP3   OH210484   4.497   0.905   0.611 -0.2164  0.7421  0.0053
 3507TIP3    H110485   4.406   0.911   0.581 -0.1321  0.0726 -0.4130
 3507TIP3    H210486   4.538   0.985   0.578 -0.6370  1.0106  0.1306
 3508TIP3   OH210487   5.840   2.669   1.971 -0.3767  0.1539 -0.0267
 3508TIP3    H110488   5.834   2.577   1.946 -0.7249 -0.1599  1.1820
 3508TIP3    H210489   5.761   2.686   2.022 -0.9556  1.4759 -1.2672
 3509TIP3   OH210490   1.813   0.177   0.795 -0.1882  0.3470  0.2796
 3509TIP3    H110491   1.786   0.244   0.731  1.2708 -0.0931 -0.8415
 3509TIP3    H210492   1.909   0.181   0.795 -0.1220  1.3040  3.5210
 3510TIP3   OH210493   0.772   2.350   0.398 -0.0886  0.1054  0.1155
 3510TIP3    H110494   0.845   2.304   0.356  0.2267  0.7672 -0.0641
 3510TIP3    H210495   0.809   2.433   0.427 -0.5697  0.1059  0.7552
 3511TIP3   OH210496   3.704   1.904   1.734 -0.0265  0.0891  0.6728
 3511TIP3    H110497   3.647   1.942   1.667 -1.0151 -1.8067  0.3466
 3511TIP3    H210498   3.773   1.969   1.747  0.0492  0.6532 -1.9640
 3512TIP3   OH210499   2.140   5.360   5.429 -0.4042 -0.1096  0.0129
 3512TIP3    H110500   2.220   5.366   5.377 -0.1557  2.1188  0.5429
 3512TIP3    H210501   2.170   5.350   5.519 -0.6335  1.9670  0.3592
 3513TIP3   OH210502   5.746   2.191   1.049 -0.2307 -0.1593 -0.1513
 3513TIP3    H110503   5.735   2.193   0.954 -0.0643  2.3281 -0.1823
 3513TIP3    H210504   5.830   2.146   1.062  1.0876  1.7788 -1.4045
 3514TIP3   OH210505   1.960   4.423   3.969 -0.0452  0.8617 -0.2968
 3514TIP3    H110506   2.005   4.481   4.030  0.1816  0.7366 -0.3424
 3514TIP3    H210507   1.984   4.335   3.997  0.3777  0.8124 -0.8011
 3515TIP3   OH210508   2.254   5.465   1.172 -0.1991 -0.1337 -0.3213
 3515TIP3    H110509   2.273   5.372   1.181 -0.5361 -0.5646 -3.1630
 3515TIP3    H210510   2.182   5.469   1.109  0.3026  2.0719 -0.8313
 3516TIP3   OH210511   4.161   6.073   3.482  1.1394 -1.0420  0.1725
 3516TIP3    H110512   4.236   6.131   3.490  0.5135 -0.3018  0.9197
 3516TIP3    H210513   4.124   6.070   3.570 -1.4537  1.0222 -0.7154
 3517TIP3   OH210514   2.613   2.204   0.067 -0.1015  0.0561 -0.7147
 3517TIP3    H110515   2.610   2.297   0.089 -1.5420  0.5179 -2.5873
 3517TIP3    H210516   2.699   2.192   0.025  1.0862 -0.0402  1.5999
 3518TIP3   OH210517   2.681   2.884   1.500 -0.0932  0.2943 -0.1309
 3518TIP3    H110518   2.613   2.912   1.561 -0.9097 -0.0916 -0.8396
 3518TIP3    H210519   2.755   2.861   1.555 -0.0346  2.0421  0.5807
 3519TIP3   OH210520   0.154   3.523   0.033 -0.2999  0.2244  0.3541
 3519TIP3    H110521   0.082   3.583   0.054 -0.3062  0.1671  0.4972
 3519TIP3    H210522   0.177   3.544  -0.058 -0.2708  0.4741  0.4184
 3520TIP3   OH210523   0.269   4.924   4.995 -0.2896 -0.7103  0.2037
 3520TIP3    H110524   0.199   4.966   4.945  0.6829  0.1746 -0.4551
 3520TIP3    H210525   0.253   4.831   4.984 -0.0245 -0.5674 -1.9553
 3521TIP3   OH210526   3.933   4.343   4.819  0.0149  0.4751 -0.3011
 3521TIP3    H110527   3.862   4.333   4.755 -0.7339  0.9918  0.4315
 3521TIP3    H210528   3.895   4.313   4.902  0.9997 -0.2704 -0.0993
 3522TIP3   OH210529   5.465   3.598   2.221  0.4735  0.6985  0.0293
 3522TIP3    H110530   5.457   3.613   2.315 -0.3723  2.6918 -0.3093
 3522TIP3    H210531   5.395   3.651   2.183  0.1937 -0.8184 -1.6865
 3523TIP3   OH210532   1.854   4.201   1.035  0.0613  0.0182 -0.0035
 3523TIP3    H110533   1.796   4.129   1.009  1.3081 -0.6151 -1.1593
 3523TIP3    H210534   1.795   4.272   1.058 -1.1857 -0.9734 -0.0380
 3524TIP3   OH210535   1.887   3.882   4.956 -0.4931 -0.6365 -0.1077
 3524TIP3    H110536   1.863   3.938   4.882  2.1030  1.4303  0.5090
 3524TIP3    H210537   1.935   3.810   4.916  0.0972 -0.0198 -0.5248
 3525TIP3   OH210538   2.366   4.284   3.220 -0.0007 -0.2684  0.5484
 3525TIP3    H110539   2.359   4.306   3.313 -0.4693 -1.8023  0.9058
 3525TIP3    H210540   2.434   4.217   3.216 -0.1191 -0.3538 -0.1991
 3526TIP3   OH210541   1.036   4.351   1.104  0.5579  0.2472 -0.1805
 3526TIP3    H110542   1.072   4.262   1.100  0.7220  0.3406 -1.0584
 3526TIP3    H210543   1.108   4.405   1.135  1.1536  0.4015 -1.7408
 3527TIP3   OH210544   0.920   1.480   5.644  0.2055 -0.2289  0.3908
 3527TIP3    H110545   0.905   1.536   5.568 -1.2835  0.2561  1.0134
 3527TIP3    H210546   0.834   1.442   5.663  0.9013 -1.6654  0.8177
 3528TIP3   OH210547   0.386   6.509   0.986  0.2148 -0.1149  0.6276
 3528TIP3    H110548   0.368   6.578   0.922  0.8910 -1.9562 -1.6702
 3528TIP3    H210549   0.478   6.524   1.011 -0.0700  0.6464  1.2829
 3529TIP3   OH210550   5.090   0.822   4.845  0.3579  0.2404 -0.3156
 3529TIP3    H110551   5.134   0.894   4.891  1.8939  0.0202 -1.3533
 3529TIP3    H210552   5.146   0.805   4.769 -1.2177 -0.5236 -1.3513
 3530TIP3   OH210553   6.824   3.822   1.085  0.5121 -0.3783 -0.2045
 3530TIP3    H110554   6.919   3.812   1.089  0.6132  0.6912  0.6547
 3530TIP3    H210555   6.808   3.863   1.000  0.8841 -0.0245 -0.1100
 3531TIP3   OH210556   3.876   2.322   4.226  0.3363 -0.3710 -0.2163
 3531TIP3    H110557   3.831   2.243   4.195  0.7289 -1.0051  0.7701
 3531TIP3    H210558   3.893   2.304   4.319  1.2807  0.4834 -0.2123
 3532TIP3   OH210559   4.883   1.396   0.769  0.1597 -0.3297  0.4327
 3532TIP3    H110560   4.963   1.366   0.726 -0.8160  0.6326 -2.2790
 3532TIP3    H210561   4.834   1.316   0.787 -0.8874 -0.7489 -3.5110
 3533TIP3   OH210562   5.783   6.645   5.734 -0.1711  0.4747  0.5314
 3533TIP3    H110563   5.770   6.556   5.767 -0.3308  0.5052  0.5528
 3533TIP3    H210564   5.700   6.667   5.692  0.1309  0.3291 -0.1564
 3534TIP3   OH210565   2.774   4.853   0.845  0.2374  0.0858  0.3251
 3534TIP3    H110566   2.687   4.894   0.848  0.0965 -0.0768 -0.8564
 3534TIP3    H210567   2.758   4.763   0.818  0.8028  0.2431 -0.6180
 3535TIP3   OH210568   2.663   5.716   4.712 -0.1391  0.3909  0.3868
 3535TIP3    H110569   2.593   5.776   4.737 -0.5915 -0.4329  1.1137
 3535TIP3    H210570   2.635   5.680   4.628  0.7622  2.1612 -0.7515
 3536TIP3   OH210571   5.895   5.703   1.377  0.4644  0.5466 -0.1537
 3536TIP3    H110572   5.859   5.669   1.295 -0.1884  0.1388  0.2962
 3536TIP3    H210573   5.959   5.637   1.404 -0.6304 -0.2442  0.5953
 3537TIP3   OH210574   3.859   3.709   0.745  0.2348  0.0407 -0.0172
 3537TIP3    H110575   3.911   3.629   0.755  1.2425  0.1986 -3.0072
 3537TIP3    H210576   3.772   3.679   0.721  0.5345 -0.1808 -0.8415
 3538TIP3   OH210577   3.344   2.823   4.418 -0.2255  0.1241  0.1009
 3538TIP3    H110578   3.340   2.854   4.509  2.0373 -2.0499  1.0737
 3538TIP3    H210579   3.408   2.880   4.376 -0.7756  0.7162  0.0613
 3539TIP3   OH210580   1.409   5.403   4.781 -0.7150  0.5070  0.5353
 3539TIP3    H110581   1.426   5.348   4.704 -0.6586  0.3419  0.6662
 3539TIP3    H210582   1.451   5.486   4.760 -0.5625  0.4107  0.4535
 3540TIP3   OH210583   1.366   4.804   3.638 -0.1289 -0.1236 -0.1884
 3540TIP3    H110584   1.286   4.830   3.593 -0.5254 -0.7805  0.1086
 3540TIP3    H210585   1.437   4.844   3.588 -0.7083  2.0203  0.5961
 3541TIP3   OH210586   4.508   5.474   2.990  0.6280 -0.4884 -0.3188
 3541TIP3    H110587   4.552   5.535   2.931  0.6846 -1.5694 -1.4279
 3541TIP3    H210588   4.470   5.408   2.932 -2.4517  0.3496  0.5678
 3542TIP3   OH210589   0.642   6.507   5.107  0.1671  0.7433  0.0742
 3542TIP3    H110590   0.578   6.480   5.173 -0.9785 -1.9984 -1.9720
 3542TIP3    H210591   0.727   6.484   5.145 -0.4785 -1.0334  0.5560
 3543TIP3   OH210592   5.013   2.568   5.737 -0.9874 -0.7024  0.5294
 3543TIP3    H110593   5.024   2.622   5.659 -3.0297  1.0526  1.3451
 3543TIP3    H210594   5.069   2.608   5.803 -1.9537  0.0383  0.9286
 3544TIP3   OH210595   0.742   6.598   0.738  0.1813  0.3330 -0.0503
 3544TIP3    H110596   0.660   6.605   0.688  0.7040  1.3156 -0.8061
 3544TIP3    H210597   0.718   6.625   0.827 -0.2924  0.7699 -0.3038
 3545TIP3   OH210598   5.098   0.151   2.746  0.0775 -0.3722  0.3546
 3545TIP3    H110599   5.069   0.242   2.744 -0.8412 -0.6563  0.4034
 3545TIP3    H210600   5.076   0.121   2.834  1.4261 -0.3172  0.7286
 3546TIP3   OH210601   6.058   1.889   0.853  0.9231 -0.2330 -0.2050
 3546TIP3    H110602   6.008   1.820   0.897 -0.1567 -0.4771 -1.7187
 3546TIP3    H210603   6.051   1.964   0.912  0.5633 -0.8838  0.6079
 3547TIP3   OH210604   6.023   2.475   1.168 -0.3346  0.5143 -0.0077
 3547TIP3    H110605   6.060   2.541   1.110 -0.5067 -0.1967 -0.9393
 3547TIP3    H210606   6.023   2.516   1.255  1.1822  1.0922 -0.2623
 3548TIP3   OH210607   5.793   6.762   2.968  0.3632  0.3258  0.5526
 3548TIP3    H110608   5.729   6.737   3.035 -0.5115 -1.1466 -0.7747
 3548TIP3    H210609   5.873   6.715   2.992 -0.3572 -1.3332 -0.1816
 3549TIP3   OH210610   5.746   1.811   0.182  0.1646 -0.4880 -0.0575
 3549TIP3    H110611   5.665   1.772   0.149  0.2437 -0.2745 -0.5088
 3549TIP3    H210612   5.814   1.751   0.153  0.2455 -0.2399 -0.3803
 3550TIP3   OH210613   6.858   6.230   0.166  0.0209  0.0193 -0.1616
 3550TIP3    H110614   6.932   6.198   0.218  0.2246  0.9227  0.1318
 3550TIP3    H210615   6.858   6.176   0.087  0.4348 -0.5883  0.2432
 3551TIP3   OH210616   5.287   0.465   0.920  0.6194 -0.2819 -0.2943
 3551TIP3    H110617   5.203   0.473   0.876  1.7106 -0.3067 -2.5654
 3551TIP3    H210618   5.322   0.381   0.890  1.5030 -0.2190  0.4957
 3552TIP3   OH210619   1.088   2.727   5.484  0.0038 -0.2112 -0.4827
 3552TIP3    H110620   1.180   2.733   5.457 -0.5946 -0.4288 -2.8295
 3552TIP3    H210621   1.085   2.652   5.542  1.2170 -0.5447 -0.8094
 3553TIP3   OH210622   6.822   3.945   5.083  0.0905 -0.1629  0.3201
 3553TIP3    H110623   6.872   3.991   5.016 -0.3077 -0.2060 -0.0168
 3553TIP3    H210624   6.854   3.979   5.166  0.8587 -0.3865  0.1200
 3554TIP3   OH210625   3.892   5.208   2.845  0.0718 -0.1137 -0.3488
 3554TIP3    H110626   3.848   5.239   2.925  1.5223 -1.0161  0.8460
 3554TIP3    H210627   3.877   5.114   2.845 -2.2935  0.1439 -2.6982
 3555TIP3   OH210628   5.012   2.482   1.976  0.7253  0.3815  0.5425
 3555TIP3    H110629   5.084   2.520   2.028  0.8740 -1.1927  1.5496
 3555TIP3    H210630   5.050   2.404   1.936 -0.5554 -0.8019  1.5728
 3556TIP3   OH210631   7.154   2.180   0.085 -0.3572 -0.0484  0.5036
 3556TIP3    H110632   7.164   2.266   0.125 -0.5003  0.2150 -0.0284
 3556TIP3    H210633   7.065   2.153   0.108 -0.6067  0.3101 -0.0444
 3557TIP3   OH210634   1.414   0.205   2.705  0.0044 -0.2933  0.7544
 3557TIP3    H110635   1.368   0.288   2.717 -0.6687 -0.4210 -0.6799
 3557TIP3    H210636   1.354   0.139   2.740 -1.5382 -0.5765 -2.1101
 3558TIP3   OH210637   5.482   0.476   4.617 -0.1949 -0.2453  0.0897
 3558TIP3    H110638   5.575   0.454   4.609  0.0881  0.6405  0.6986
 3558TIP3    H210639   5.474   0.511   4.706 -0.6928  1.5968 -0.6442
 3559TIP3   OH210640   0.881   0.410   2.118 -0.2823  0.3847  0.1738
 3559TIP3    H110641   0.880   0.487   2.175  3.7799  0.7401  0.0797
 3559TIP3    H210642   0.882   0.335   2.179  0.5935  0.6282  0.4709
 3560TIP3   OH210643   5.573   1.180   4.155 -0.2426 -0.0359  0.2796
 3560TIP3    H110644   5.658   1.222   4.168 -0.0573 -0.7179  1.5181
 3560TIP3    H210645   5.513   1.229   4.211  0.0125 -1.4285  1.8843
 3561TIP3   OH210646   3.339   6.135   1.804 -0.0556  0.0378  0.3797
 3561TIP3    H110647   3.412   6.190   1.772 -0.5161  1.8821  2.2991
 3561TIP3    H210648   3.290   6.192   1.863 -2.4754 -1.5000 -0.0055
 3562TIP3   OH210649   1.844   3.540   1.664  0.2204 -0.3132  0.1059
 3562TIP3    H110650   1.834   3.459   1.715 -0.5020 -0.2001  0.1438
 3562TIP3    H210651   1.934   3.568   1.682  0.2307 -0.7020  0.6943
 3563TIP3   OH210652   2.938   6.133   0.652 -0.4713 -0.1173 -0.4488
 3563TIP3    H110653   2.959   6.073   0.581 -0.2718 -0.0728 -0.4281
 3563TIP3    H210654   2.894   6.206   0.609  1.8025  1.0867 -0.8984
 3564TIP3   OH210655   3.522   3.274   4.876  0.1573 -0.0540 -0.3748
 3564TIP3    H110656   3.568   3.218   4.814 -0.4312 -1.0909  0.1118
 3564TIP3    H210657   3.461   3.324   4.822 -0.4407 -1.0430 -0.6329
 3565TIP3   OH210658   2.926   3.410   1.400  0.5453 -0.5063 -0.9193
 3565TIP3    H110659   2.983   3.419   1.477 -1.3424 -0.7159  0.5580
 3565TIP3    H210660   2.902   3.317   1.399  0.1779 -0.4072 -1.5089
 3566TIP3   OH210661   5.169   5.216   4.187  0.4350  0.6252  0.0969
 3566TIP3    H110662   5.132   5.303   4.172 -0.3881  0.3216  0.3173
 3566TIP3    H210663   5.203   5.220   4.276 -2.0129 -0.0697  1.1472
 3567TIP3   OH210664   3.886   4.557   1.735 -0.1140 -0.8117 -0.0495
 3567TIP3    H110665   3.866   4.493   1.667 -1.1290 -3.2173  2.3234
 3567TIP3    H210666   3.976   4.537   1.762  0.5722  0.6451 -1.1152
 3568TIP3   OH210667   1.526   5.592   5.242  0.0058 -0.2850  0.3356
 3568TIP3    H110668   1.441   5.577   5.284  0.1952 -0.9991  0.4813
 3568TIP3    H210669   1.537   5.518   5.183  0.0866  0.3214 -0.4213
 3569TIP3   OH210670   1.999   4.769   5.308  0.2660 -0.3839 -0.2797
 3569TIP3    H110671   1.905   4.785   5.312  0.5674  2.1863 -1.4944
 3569TIP3    H210672   2.007   4.678   5.278 -1.7725 -0.9873  0.8222
 3570TIP3   OH210673   3.514   2.878   1.999  0.5031 -0.4701 -0.2355
 3570TIP3    H110674   3.574   2.815   2.039  2.3257  0.7961 -0.8834
 3570TIP3    H210675   3.479   2.927   2.073 -0.0097 -1.4176  0.1719
 3571TIP3   OH210676   3.506   1.991   0.596  0.6842 -0.0670 -0.3877
 3571TIP3    H110677   3.416   1.961   0.610  0.8224  0.0583  0.8473
 3571TIP3    H210678   3.500   2.049   0.520 -0.7341  1.8834  1.1300
 3572TIP3   OH210679   0.217   0.541   1.636  0.0837 -0.5855  0.2463
 3572TIP3    H110680   0.158   0.519   1.563 -0.6362 -2.2274  1.2668
 3572TIP3    H210681   0.301   0.559   1.594 -0.3026 -1.5308 -0.9914
 3573TIP3   OH210682   3.755   4.541   5.750 -0.9491 -0.5049  0.0199
 3573TIP3    H110683   3.716   4.562   5.666  2.2562  0.0795 -1.4573
 3573TIP3    H210684   3.734   4.616   5.806 -0.3073  0.7251 -1.3326
 3574TIP3   OH210685   2.566   4.390   5.185 -0.5905  0.5278  0.4490
 3574TIP3    H110686   2.654   4.395   5.147 -0.4572 -0.0491  0.6685
 3574TIP3    H210687   2.508   4.397   5.110 -0.3341 -0.1020  0.1804
 3575TIP3   OH210688   2.106   4.116   5.635  0.1230 -0.3875  0.4466
 3575TIP3    H110689   2.056   4.035   5.625 -1.6596  0.5964  0.9303
 3575TIP3    H210690   2.072   4.156   5.715  1.1573  0.7292  0.3660
 3576TIP3   OH210691   6.246   3.892   3.464  0.0217 -0.4044 -0.1487
 3576TIP3    H110692   6.318   3.828   3.461  0.4254  0.0600 -1.8877
 3576TIP3    H210693   6.190   3.868   3.390 -0.2115  0.7823 -0.3844
 3577TIP3   OH210694   3.526   4.510   5.314  0.4519  0.0312  0.1124
 3577TIP3    H110695   3.574   4.430   5.292 -1.8530 -1.7519  1.1595
 3577TIP3    H210696   3.562   4.537   5.399 -0.9267 -1.8539  1.3707
 3578TIP3   OH210697   2.734   4.538   4.721  0.1635 -0.1506 -0.0426
 3578TIP3    H110698   2.757   4.485   4.645  0.7508 -0.5022  0.3700
 3578TIP3    H210699   2.818   4.559   4.762 -0.1673 -0.3027  0.7326
 3579TIP3   OH210700   4.421   2.868   1.629  0.3714 -0.0878 -0.5353
 3579TIP3    H110701   4.472   2.827   1.559  0.8426 -0.9371  0.2904
 3579TIP3    H210702   4.330   2.846   1.608  0.5033 -0.2935 -0.9099
 3580TIP3   OH210703   3.106   1.281   3.757  0.9879  0.1753 -0.1934
 3580TIP3    H110704   3.105   1.214   3.825  2.8325  1.0790  0.7980
 3580TIP3    H210705   3.183   1.261   3.704 -0.3321 -0.4323 -2.0006
 3581TIP3   OH210706   2.060   6.431   5.223 -0.4764 -0.2149 -0.1612
 3581TIP3    H110707   2.099   6.516   5.245  0.7869 -0.4460 -1.3686
 3581TIP3    H210708   1.988   6.421   5.286 -1.2434  2.1545 -0.5346
 3582TIP3   OH210709   4.600   4.136   0.225 -0.1286  0.6378 -0.5072
 3582TIP3    H110710   4.626   4.090   0.305  0.2608  1.1579 -0.3353
 3582TIP3    H210711   4.510   4.164   0.242  0.0858  1.0882 -0.0954
 3583TIP3   OH210712   2.695   4.203   4.938  0.3251 -0.0083 -0.3029
 3583TIP3    H110713   2.717   4.185   4.847 -1.5402 -0.9382 -0.6430
 3583TIP3    H210714   2.604   4.234   4.935  0.8148  1.7276  1.1015
 3584TIP3   OH210715   3.097   1.254   1.368 -0.0601 -0.0331  0.3356
 3584TIP3    H110716   3.132   1.299   1.291  0.4655  1.1181  1.2275
 3584TIP3    H210717   3.154   1.281   1.440 -1.4538  0.1286  1.4207
 3585TIP3   OH210718   3.914   4.902   3.561 -0.1304 -0.1452 -0.2474
 3585TIP3    H110719   3.974   4.960   3.608  0.7126 -0.0300 -1.3951
 3585TIP3    H210720   3.878   4.844   3.627 -0.4108  1.1909  0.8137
 3586TIP3   OH210721   4.562   6.039   4.195  0.3926  0.3136 -0.0533
 3586TIP3    H110722   4.619   6.107   4.231  0.2874  0.1296  0.4629
 3586TIP3    H210723   4.618   5.989   4.136  0.1947  1.5657 -1.3705
 3587TIP3   OH210724   4.913   4.759   1.053  0.5064 -0.5196  0.4598
 3587TIP3    H110725   4.886   4.825   1.117 -0.3254 -1.8579  1.5387
 3587TIP3    H210726   4.834   4.742   1.002  0.9510 -0.0761 -0.4053
 3588TIP3   OH210727   7.171   0.289   5.107  0.3225  0.7809 -0.2886
 3588TIP3    H110728   7.089   0.301   5.155  0.0985  2.8182 -1.1072
 3588TIP3    H210729   7.162   0.202   5.067 -0.1210 -0.3223  2.0332
 3589TIP3   OH210730   2.540   5.800   1.398 -0.3148  0.3617  0.4046
 3589TIP3    H110731   2.570   5.712   1.376 -0.8466  0.3102 -0.1224
 3589TIP3    H210732   2.516   5.839   1.314  1.2680  1.5279  0.4484
 3590TIP3   OH210733   2.280   5.583   5.600 -0.0294 -0.1194  0.6951
 3590TIP3    H110734   2.343   5.627   5.657  0.7389  0.6032 -0.6501
 3590TIP3    H210735   2.292   5.490   5.618  2.9251 -0.1768 -0.9041
 3591TIP3   OH210736   3.972   2.757   0.098  0.3752 -0.3908 -0.2605
 3591TIP3    H110737   3.904   2.708   0.144  0.3334 -0.0727  0.0133
 3591TIP3    H210738   4.032   2.689   0.065 -0.3027 -0.7005 -0.8874
 3592TIP3   OH210739   0.392   4.047   5.335  0.4245  0.2052 -0.5746
 3592TIP3    H110740   0.370   3.996   5.257  0.1667 -1.7119  0.7139
 3592TIP3    H210741   0.434   4.126   5.300  0.7134 -0.7973 -2.6369
 3593TIP3   OH210742   2.466   0.912   5.391 -0.0773 -0.5532 -0.3595
 3593TIP3    H110743   2.383   0.885   5.429  0.4498  0.5579  1.7214
 3593TIP3    H210744   2.446   0.996   5.348 -0.2652 -0.8836 -0.9337
 3594TIP3   OH210745   4.261   3.387   5.271 -0.1170  0.6257  0.1692
 3594TIP3    H110746   4.210   3.448   5.323  0.2880 -0.0398  1.3906
 3594TIP3    H210747   4.348   3.387   5.311 -0.2203 -1.0415  0.5062
 3595TIP3   OH210748   0.124   6.651   0.148  0.6960  0.2628 -0.6333
 3595TIP3    H110749   0.204   6.690   0.183 -0.6665  1.3611  1.4991
 3595TIP3    H210750   0.106   6.576   0.205 -1.5278  2.0337  1.1892
 3596TIP3   OH210751   6.554   3.845   2.996 -0.5944 -0.0698 -0.0544
 3596TIP3    H110752   6.578   3.766   3.045 -2.8197 -0.5758  0.3308
 3596TIP3    H210753   6.527   3.907   3.063 -0.6691  0.3553 -0.4780
 3597TIP3   OH210754   2.083   6.004   4.782  0.4651  0.0212  0.1288
 3597TIP3    H110755   2.157   5.943   4.791  0.1160 -0.2920  0.9275
 3597TIP3    H210756   2.064   6.032   4.871  0.1067  0.6943 -0.1547
 3598TIP3   OH210757   1.758   1.248   2.542 -0.1190  0.4162 -0.4076
 3598TIP3    H110758   1.746   1.177   2.604 -0.6034  1.2377  0.4685
 3598TIP3    H210759   1.830   1.220   2.485  0.8164 -0.0441  0.9717
 3599TIP3   OH210760   4.943   5.087   4.021 -0.2136 -0.3235  0.2819
 3599TIP3    H110761   4.949   5.146   4.097  1.6633  1.2158 -0.9726
 3599TIP3    H210762   4.898   5.140   3.954  0.5544 -0.6928 -0.5328
 3600TIP3   OH210763   2.189   6.771   1.152  0.0781 -0.0864 -0.2841
 3600TIP3    H110764   2.098   6.789   1.176  0.2540 -2.1331  2.4107
 3600TIP3    H210765   2.241   6.817   1.218  0.9579  0.0141 -1.0305
 3601TIP3   OH210766   0.434   0.873   4.661  0.1384 -0.0999  0.4436
 3601TIP3    H110767   0.373   0.848   4.591 -1.1967  1.7923  0.8574
 3601TIP3    H210768   0.412   0.815   4.734  1.5131 -2.0611 -0.6118
 3602TIP3   OH210769   0.887   0.651   4.495  0.0916  0.8554 -0.1939
 3602TIP3    H110770   0.963   0.694   4.535  0.9609  0.2543 -1.1307
 3602TIP3    H210771   0.887   0.682   4.405 -1.1005  1.2446 -0.0700
 3603TIP3   OH210772   5.891   1.846   5.626 -0.2817  0.4212  0.9884
 3603TIP3    H110773   5.951   1.920   5.632  0.5682  0.0064 -1.2584
 3603TIP3    H210774   5.943   1.771   5.656  0.9670 -0.1801 -2.2399
 3604TIP3   OH210775   1.163   5.064   4.393 -0.7264 -0.0266 -0.2941
 3604TIP3    H110776   1.177   4.975   4.361 -0.2375 -0.2745  0.5767
 3604TIP3    H210777   1.138   5.053   4.485 -1.5530  0.6896 -0.4188
 3605TIP3   OH210778   6.514   1.461   5.612 -0.0956  0.0985  0.0100
 3605TIP3    H110779   6.601   1.464   5.651 -0.0717  1.0983 -0.1033
 3605TIP3    H210780   6.528   1.476   5.519 -0.4052  0.5267  0.0268
 3606TIP3   OH210781   1.374   4.083   3.314  0.5151 -0.6428 -0.1756
 3606TIP3    H110782   1.439   4.108   3.248  1.1331 -1.6469  0.0188
 3606TIP3    H210783   1.368   3.988   3.307 -1.9248 -0.4813 -1.0625
 3607TIP3   OH210784   3.202   4.341   1.257 -0.2743  0.3844 -0.2202
 3607TIP3    H110785   3.260   4.417   1.251 -0.5761  0.5970 -0.5215
 3607TIP3    H210786   3.122   4.375   1.297 -0.0586  0.0124  0.5385
 3608TIP3   OH210787   5.333   5.623   2.803  0.1098  0.1595  0.3079
 3608TIP3    H110788   5.345   5.671   2.721  0.6185  1.2725  1.0115
 3608TIP3    H210789   5.243   5.640   2.828  0.6708  1.9673  1.2672
 3609TIP3   OH210790   4.086   1.755   4.383  0.2660  0.2233  0.0663
 3609TIP3    H110791   4.169   1.770   4.429 -0.9548 -0.1741  2.5225
 3609TIP3    H210792   4.018   1.781   4.445 -1.5765 -2.6720 -0.5625
 3610TIP3   OH210793   3.283   5.622   0.416 -0.1186  0.5894  0.6696
 3610TIP3    H110794   3.348   5.595   0.481 -1.9796  0.7446  2.7048
 3610TIP3    H210795   3.199   5.611   0.460 -1.6188 -0.6638 -2.1982
 3611TIP3   OH210796   3.825   0.432   4.780  0.0229  0.5229  0.8450
 3611TIP3    H110797   3.799   0.413   4.870  1.5798  1.0113  1.4435
 3611TIP3    H210798   3.901   0.490   4.790  0.5946  0.0922 -0.7703
 3612TIP3   OH210799   3.087   1.922   4.898 -0.6702 -0.2899  0.2961
 3612TIP3    H110800   3.072   1.876   4.816 -0.8324  0.7571 -0.2762
 3612TIP3    H210801   3.000   1.935   4.935 -0.8980  1.6836 -0.7589
 3613TIP3   OH210802   5.938   5.175   2.705  0.0893  0.4872 -0.0399
 3613TIP3    H110803   5.960   5.130   2.623 -0.3673 -0.4454  0.3350
 3613TIP3    H210804   5.914   5.263   2.678 -2.4194 -0.4488 -1.2369
 3614TIP3   OH210805   4.308   1.128   4.527  0.0452 -0.0475  0.8073
 3614TIP3    H110806   4.286   1.213   4.489  1.4267 -0.7772 -1.9448
 3614TIP3    H210807   4.224   1.091   4.553 -0.5914  2.0822  2.0405
 3615TIP3   OH210808   4.885   0.019   1.042  0.8731  0.3341  0.7236
 3615TIP3    H110809   4.932  -0.013   0.965  1.7821 -0.1391  1.4571
 3615TIP3    H210810   4.792   0.011   1.019  1.1308  0.8702 -0.5832
 3616TIP3   OH210811   1.534   1.147   4.294 -0.0843 -0.2062 -0.2086
 3616TIP3    H110812   1.442   1.169   4.301 -0.1150 -0.8214  1.9540
 3616TIP3    H210813   1.538   1.054   4.316  1.1633  0.1054  1.0399
 3617TIP3   OH210814   3.969   0.756   3.823 -0.3716 -0.1164 -0.0002
 3617TIP3    H110815   4.011   0.741   3.738  0.4540  0.3387  0.3121
 3617TIP3    H210816   3.891   0.807   3.802  0.1195  0.4748 -0.4402
 3618TIP3   OH210817   1.879   3.725   1.947 -0.4747  0.1425  0.1367
 3618TIP3    H110818   1.827   3.795   1.908 -0.2968  0.6168  0.7388
 3618TIP3    H210819   1.970   3.751   1.930 -0.3760 -1.3721 -2.1456
 3619TIP3   OH210820   5.260   4.364   2.767 -0.0189 -0.4340  0.2291
 3619TIP3    H110821   5.205   4.421   2.821  0.3956 -0.7401  0.9903
 3619TIP3    H210822   5.304   4.307   2.830 -1.4114 -2.4986 -0.5493
 3620TIP3   OH210823   0.089   1.650   4.322  0.1030 -0.4878  0.5401
 3620TIP3    H110824   0.181   1.660   4.345  0.3670  0.9876 -0.9170
 3620TIP3    H210825   0.044   1.635   4.405  1.5152 -0.0293  1.4104
 3621TIP3   OH210826   6.549   1.264   0.816  0.3257  0.6625 -0.0433
 3621TIP3    H110827   6.581   1.244   0.728 -2.2873  0.2862 -0.9862
 3621TIP3    H210828   6.493   1.341   0.805  0.0885  0.7135  1.3195
 3622TIP3   OH210829   6.202   2.813   4.832 -0.3261  0.7694 -0.6811
 3622TIP3    H110830   6.119   2.858   4.818 -0.1571  1.4708  0.4340
 3622TIP3    H210831   6.225   2.833   4.923  0.1504 -0.9500 -0.4007
 3623TIP3   OH210832   0.205   2.581   0.715 -0.1639 -0.0417 -0.0587
 3623TIP3    H110833   0.193   2.507   0.774  1.8173 -0.5457 -0.2342
 3623TIP3    H210834   0.202   2.543   0.627 -0.9290  0.3771 -0.2242
 3624TIP3   OH210835   1.260   5.983   0.708  0.3699 -0.1014  0.0233
 3624TIP3    H110836   1.210   6.053   0.667  2.6900  0.6227 -1.7690
 3624TIP3    H210837   1.286   6.018   0.793 -0.3740  0.3080  0.0878
 3625TIP3   OH210838   2.662   2.887   5.802  0.4424 -0.0617  0.1940
 3625TIP3    H110839   2.586   2.939   5.777 -0.2838 -0.7554  0.8860
 3625TIP3    H210840   2.632   2.837   5.878  1.8315  0.2047  0.9334
 3626TIP3   OH210841   3.665   6.379   3.329  0.0741  0.5280  0.2944
 3626TIP3    H110842   3.752   6.355   3.361 -0.2439 -0.9699  0.1294
 3626TIP3    H210843   3.609   6.306   3.357 -0.9225  0.9896 -0.4648
 3627TIP3   OH210844   0.452   0.483   5.684  0.0286 -0.0050  0.4389
 3627TIP3    H110845   0.373   0.491   5.630  0.1635 -0.6701  0.1288
 3627TIP3    H210846   0.432   0.533   5.762 -0.3883  0.5157  0.0103
 3628TIP3   OH210847   1.097   1.109   3.796 -0.6171 -0.0337  0.3468
 3628TIP3    H110848   1.135   1.185   3.840 -0.5469 -1.0264  2.0716
 3628TIP3    H210849   1.005   1.133   3.783 -0.9048 -0.0916  2.0292
 3629TIP3   OH210850   4.994   6.527   5.785 -0.0969  0.3901 -0.3656
 3629TIP3    H110851   4.960   6.438   5.778  0.1479  0.3029 -0.4286
 3629TIP3    H210852   5.036   6.530   5.871  0.3934  0.2769 -0.6025
 3630TIP3   OH210853   4.605   4.543   3.993 -0.2254 -0.0445  0.7875
 3630TIP3    H110854   4.667   4.595   4.043  1.0702  0.5655 -1.3020
 3630TIP3    H210855   4.532   4.603   3.975  0.3500  0.4549  0.0640
 3631TIP3   OH210856   3.501   3.329   2.119 -0.5405 -0.4973 -0.2146
 3631TIP3    H110857   3.546   3.391   2.062  0.4581  0.1203  1.1829
 3631TIP3    H210858   3.487   3.376   2.201 -1.7348 -1.4231  0.1516
 3632TIP3   OH210859   2.763   5.506   4.518 -0.3453 -0.0938  0.1412
 3632TIP3    H110860   2.812   5.555   4.585 -0.9710  0.4543  0.2107
 3632TIP3    H210861   2.686   5.561   4.500 -0.3700 -0.4128 -0.7669
 3633TIP3   OH210862   1.659   5.141   3.307 -0.3868  0.6181  0.1960
 3633TIP3    H110863   1.566   5.158   3.296 -0.4091  0.2931 -0.1397
 3633TIP3    H210864   1.694   5.136   3.218 -0.1341  0.2917  0.3080
 3634TIP3   OH210865   1.201   1.123   0.433 -0.5912 -0.1546 -0.3549
 3634TIP3    H110866   1.208   1.194   0.495 -2.5707 -0.5647  0.4099
 3634TIP3    H210867   1.127   1.070   0.464 -0.2525 -1.6006 -1.8245
 3635TIP3   OH210868   5.675   5.957   1.139 -0.0914 -0.2479  0.1915
 3635TIP3    H110869   5.697   6.043   1.174 -1.3466 -0.9131  2.8873
 3635TIP3    H210870   5.581   5.962   1.121  0.1173 -0.6229 -1.1150
 3636TIP3   OH210871   2.860   6.516   0.232  0.7967  0.4392  0.1783
 3636TIP3    H110872   2.924   6.509   0.303 -0.3786  2.9942  1.5992
 3636TIP3    H210873   2.791   6.455   0.257  1.4787 -0.4522 -0.0545
 3637TIP3   OH210874   3.729   3.296   4.279  0.2034  0.3864  0.0552
 3637TIP3    H110875   3.695   3.293   4.189 -0.0597 -0.5794  0.1730
 3637TIP3    H210876   3.660   3.257   4.332  0.4016  0.8561  0.6687
 3638TIP3   OH210877   4.462   1.709   4.755  0.1375 -0.4767  0.2165
 3638TIP3    H110878   4.500   1.791   4.786  0.3632 -0.1109 -0.9586
 3638TIP3    H210879   4.498   1.642   4.814 -0.1961  0.2752  1.3000
 3639TIP3   OH210880   4.594   6.514   1.233 -0.2827 -0.6628  0.3764
 3639TIP3    H110881   4.505   6.529   1.202 -0.3757  0.9747  1.3502
 3639TIP3    H210882   4.646   6.581   1.190  0.3124 -0.9920  0.5734
 3640TIP3   OH210883   1.292   5.034   1.592 -0.8430  0.5722 -0.3968
 3640TIP3    H110884   1.255   5.055   1.678  0.2081  2.1603 -0.2796
 3640TIP3    H210885   1.234   5.076   1.529 -3.3256 -3.0228 -0.7754
 3641TIP3   OH210886   2.829   1.885   4.283 -0.8041  0.1961 -0.6099
 3641TIP3    H110887   2.736   1.893   4.305 -0.8346  0.1938 -0.7394
 3641TIP3    H210888   2.871   1.954   4.335 -0.6680 -0.8341  0.6976
 3642TIP3   OH210889   0.073   4.099   3.849 -0.6425 -0.2397  0.1627
 3642TIP3    H110890   0.152   4.111   3.796  0.5729 -0.9351  1.7238
 3642TIP3    H210891   0.004   4.081   3.786  0.4123  0.5294 -1.2616
 3643TIP3   OH210892   3.689   6.666   4.694  0.7221 -0.1117 -0.8697
 3643TIP3    H110893   3.763   6.605   4.694  0.8344  0.0225 -0.6830
 3643TIP3    H210894   3.614   6.613   4.722  1.1961  0.2608  1.2908
 3644TIP3   OH210895   5.290   5.863   5.262 -0.6019  0.2868  0.4427
 3644TIP3    H110896   5.288   5.936   5.200 -0.3290  1.0809  1.3639
 3644TIP3    H210897   5.380   5.861   5.294 -0.9711  0.4797  1.5157
 3645TIP3   OH210898   4.604   2.633   5.541 -0.2012 -0.0473 -0.3768
 3645TIP3    H110899   4.513   2.622   5.566 -0.6662  2.0322 -0.9416
 3645TIP3    H210900   4.654   2.590   5.610 -1.5225  2.0244  2.0606
 3646TIP3   OH210901   4.821   6.340   4.050 -0.2026 -0.0632 -0.0710
 3646TIP3    H110902   4.779   6.321   4.134  1.5587 -1.2944  0.5916
 3646TIP3    H210903   4.908   6.372   4.073  0.0004  0.3954 -1.4184
 3647TIP3   OH210904   1.466   6.136   2.426  0.7866  0.5215  0.1309
 3647TIP3    H110905   1.531   6.155   2.360 -0.0179 -0.9652 -1.1501
 3647TIP3    H210906   1.410   6.214   2.428  0.3208  0.2694 -1.5857
 3648TIP3   OH210907   2.647   6.770   2.566  0.0296  0.0369 -0.0158
 3648TIP3    H110908   2.652   6.833   2.637  1.2098 -0.5414  0.4575
 3648TIP3    H210909   2.554   6.747   2.560 -0.2856  1.1573  0.3693
 3649TIP3   OH210910   3.074   6.138   4.087  0.4025 -0.1791  0.5728
 3649TIP3    H110911   2.979   6.139   4.078  0.3759  2.3174  0.4348
 3649TIP3    H210912   3.093   6.202   4.155  1.9985 -0.7143  0.6821
 3650TIP3   OH210913   4.923   5.640   3.164  0.0267  0.0272 -0.0539
 3650TIP3    H110914   4.882   5.685   3.091  1.5377  0.0144 -0.9418
 3650TIP3    H210915   4.866   5.659   3.239  0.1052  2.6437 -0.5794
 3651TIP3   OH210916   3.018   5.290   4.434 -0.0423  0.2540 -0.1030
 3651TIP3    H110917   3.049   5.213   4.482 -1.6763  0.6892  1.8327
 3651TIP3    H210918   3.087   5.355   4.445  1.2141 -0.7839 -1.4927
 3652TIP3   OH210919   6.785   0.299   5.463 -0.4198 -0.4299 -0.2572
 3652TIP3    H110920   6.803   0.368   5.527 -1.5006 -0.5437  0.1935
 3652TIP3    H210921   6.692   0.310   5.441 -0.7875 -2.1085  0.2826
 3653TIP3   OH210922   1.830   5.265   2.798  0.4847 -0.3527 -0.7525
 3653TIP3    H110923   1.829   5.358   2.777  3.4719 -0.0182  0.1441
 3653TIP3    H210924   1.910   5.231   2.759  0.3834 -2.1571  0.4418
 3654TIP3   OH210925   3.990   3.947   5.655 -0.6621  0.0283 -1.0739
 3654TIP3    H110926   4.049   3.979   5.724 -2.9642  1.4845  0.3651
 3654TIP3    H210927   4.037   3.965   5.573  0.9513  0.9525 -0.0079
 3655TIP3   OH210928   0.610   3.874   1.728  0.5851 -0.4541 -0.9684
 3655TIP3    H110929   0.522   3.884   1.692 -0.0613 -0.7676  0.4576
 3655TIP3    H210930   0.652   3.959   1.713 -0.5865  0.3067 -0.0598
 3656TIP3   OH210931   6.297   1.406   3.074 -0.1576  0.2294 -0.0791
 3656TIP3    H110932   6.216   1.455   3.060 -1.2502 -1.5819 -0.3169
 3656TIP3    H210933   6.273   1.333   3.130  1.3999 -0.1571  0.1449
 3657TIP3   OH210934   1.003   2.426   2.399 -0.1149  0.1058 -0.0198
 3657TIP3    H110935   1.031   2.510   2.362 -0.5405  0.3473  0.1908
 3657TIP3    H210936   1.082   2.388   2.437  0.6069 -0.6794 -2.1332
 3658TIP3   OH210937   5.372   2.063   4.667  0.9031 -0.1572  0.3526
 3658TIP3    H110938   5.381   1.971   4.692  0.0584 -0.1064  0.8776
 3658TIP3    H210939   5.410   2.067   4.579 -0.8212 -1.4408 -0.5141
 3659TIP3   OH210940   4.423   6.690   2.703  0.0574 -0.5924 -0.0492
 3659TIP3    H110941   4.504   6.661   2.661  1.3275 -0.1082  1.8814
 3659TIP3    H210942   4.391   6.613   2.750  0.5375 -0.2859  0.8109
 3660TIP3   OH210943   5.514   0.650   4.380  0.6224  0.3742 -0.2972
 3660TIP3    H110944   5.554   0.626   4.296  1.3094  0.1602  0.0787
 3660TIP3    H210945   5.431   0.602   4.382  1.0699 -0.4197 -0.4134
 3661TIP3   OH210946   2.714   3.308   3.999 -0.9557  0.1221 -0.5385
 3661TIP3    H110947   2.782   3.362   4.040 -0.6908 -0.5017 -0.1459
 3661TIP3    H210948   2.638   3.365   3.996 -0.4251  0.8226 -0.9626
 3662TIP3   OH210949   0.738   5.161   0.998 -0.2925 -0.1253 -0.0533
 3662TIP3    H110950   0.763   5.073   0.971 -1.8535 -0.7470  0.4144
 3662TIP3    H210951   0.644   5.166   0.980 -0.2689  1.3802  0.1091
 3663TIP3   OH210952   2.599   3.424   2.078  0.2758  0.6003 -0.3628
 3663TIP3    H110953   2.525   3.464   2.124  0.6492  1.0140 -0.1147
 3663TIP3    H210954   2.675   3.449   2.130  0.7073  1.0748 -1.1982
 3664TIP3   OH210955   6.047   0.477   2.559  0.3555 -0.0860  0.2735
 3664TIP3    H110956   5.978   0.490   2.494 -1.3752 -0.6977  1.8777
 3664TIP3    H210957   6.068   0.565   2.590 -0.5510  0.0374  0.5686
 3665TIP3   OH210958   2.087   4.950   1.419 -0.3284 -0.4640 -0.4358
 3665TIP3    H110959   2.144   4.884   1.379  0.6095  0.9304 -1.5206
 3665TIP3    H210960   2.006   4.944   1.369  0.0271 -0.2967 -1.0510
 3666TIP3   OH210961   1.558   3.442   2.372 -0.0566 -0.1856 -0.6422
 3666TIP3    H110962   1.527   3.516   2.424  1.5211 -0.3365  0.5726
 3666TIP3    H210963   1.478   3.394   2.349 -0.9384  0.8442  0.1686
 3667TIP3   OH210964   1.263   0.449   2.774 -0.4784  0.6703 -0.4620
 3667TIP3    H110965   1.247   0.539   2.747 -3.3480  0.6698  0.9082
 3667TIP3    H210966   1.193   0.429   2.836  0.8775 -2.0718  0.3596
 3668TIP3   OH210967   1.517   1.805   4.733 -0.4388  0.3983 -0.3047
 3668TIP3    H110968   1.494   1.804   4.826  0.7573 -0.4504  0.0104
 3668TIP3    H210969   1.439   1.839   4.689 -1.1937  0.3620  0.9575
 3669TIP3   OH210970   0.282   2.451   5.298  0.0313  0.2242 -0.1393
 3669TIP3    H110971   0.193   2.416   5.291  0.1530 -0.5403  1.5139
 3669TIP3    H210972   0.317   2.447   5.209 -0.8530 -1.4890 -0.4506
 3670TIP3   OH210973   5.383   2.966   4.280  0.3269  0.2753  0.6622
 3670TIP3    H110974   5.344   2.878   4.282  1.7320 -0.3805  0.7118
 3670TIP3    H210975   5.383   2.990   4.188 -0.4162  0.3981  0.6886
 3671TIP3   OH210976   1.939   6.387   1.059 -0.3023 -0.3252  0.0578
 3671TIP3    H110977   1.968   6.476   1.078  1.6924 -1.0094  0.4516
 3671TIP3    H210978   1.865   6.398   0.998 -1.0887  1.6028  1.2701
 3672TIP3   OH210979   5.391   5.044   4.978 -0.5541 -0.4324 -0.7836
 3672TIP3    H110980   5.461   5.018   4.918  0.2475  0.5892 -0.3407
 3672TIP3    H210981   5.324   5.081   4.921 -0.7375 -1.3976 -1.2162
 3673TIP3   OH210982   6.863   3.309   0.667 -0.3810 -0.7200 -0.2115
 3673TIP3    H110983   6.949   3.315   0.708 -0.6880 -0.7687  0.4444
 3673TIP3    H210984   6.801   3.330   0.737 -0.9290 -1.1664 -0.5553
 3674TIP3   OH210985   0.212   0.269   1.760  0.0154 -0.4287  0.1525
 3674TIP3    H110986   0.174   0.356   1.749 -1.0865 -0.8489  0.4523
 3674TIP3    H210987   0.254   0.272   1.846 -0.3869 -0.3028  0.3518
 3675TIP3   OH210988   1.298   0.548   0.360  0.1884 -0.2159 -0.0595
 3675TIP3    H110989   1.341   0.463   0.347  0.0806 -0.4159  0.8640
 3675TIP3    H210990   1.242   0.536   0.436  1.2014  1.0525  0.9452
 3676TIP3   OH210991   6.655   5.482   4.302 -0.0464  0.4297 -0.3484
 3676TIP3    H110992   6.577   5.470   4.246 -1.0876 -1.5315  1.3927
 3676TIP3    H210993   6.727   5.495   4.240 -1.5108  0.8243 -2.0577
 3677TIP3   OH210994   1.629   0.121   5.535 -0.2631  0.1528 -0.2256
 3677TIP3    H110995   1.680   0.165   5.466 -0.9522  1.8832  0.3205
 3677TIP3    H210996   1.549   0.173   5.542 -1.1652 -1.2844  0.4007
 3678TIP3   OH210997   7.037   6.123   0.665  0.2599  0.0116 -0.1132
 3678TIP3    H110998   6.993   6.149   0.583  1.6118  0.8925 -0.6013
 3678TIP3    H210999   6.970   6.136   0.732 -0.4694  0.6145 -0.9146
 3679TIP3   OH211000   0.242   5.848   2.296  0.1606  0.2093  0.3536
 3679TIP3    H111001   0.153   5.841   2.330  0.6121 -0.1038  1.5319
 3679TIP3    H211002   0.232   5.853   2.201 -1.0497 -0.9132  0.3994
 3680TIP3   OH211003   0.894   5.123   3.680  0.1344  0.0508 -0.0020
 3680TIP3    H111004   0.934   5.167   3.605 -0.2353  0.2371 -0.0939
 3680TIP3    H211005   0.858   5.042   3.643  2.7558 -1.5031  0.5547
 3681TIP3   OH211006   0.152   4.701   4.502  0.1304  0.2009  0.3025
 3681TIP3    H111007   0.078   4.664   4.549  0.1574 -1.6517 -0.9887
 3681TIP3    H211008   0.145   4.664   4.414  2.0972  0.6650 -0.0908
 3682TIP3   OH211009   0.977   4.775   5.254  0.2751 -0.1344 -0.0735
 3682TIP3    H111010   0.914   4.792   5.324  2.2349  2.0385  1.3474
 3682TIP3    H211011   1.057   4.748   5.299  1.0942 -0.4329 -1.6189
 3683TIP3   OH211012   6.089   0.896   0.080  0.3899 -0.1869  0.0873
 3683TIP3    H111013   6.027   0.854   0.020 -2.3781 -0.1136  2.6417
 3683TIP3    H211014   6.136   0.823   0.120  2.1349 -0.2430 -1.9032
 3684TIP3   OH211015   2.087   3.979   3.982 -0.0723 -0.1499 -0.0754
 3684TIP3    H111016   2.043   3.894   3.974  1.9241 -1.1178 -1.5006
 3684TIP3    H211017   2.023   4.042   3.949 -1.8121 -0.9758  1.5432
 3685TIP3   OH211018   4.395   2.587   1.761 -0.0570 -0.4228 -0.1988
 3685TIP3    H111019   4.433   2.669   1.794 -2.3572  1.1739 -1.3054
 3685TIP3    H211020   4.456   2.557   1.694  0.4999  0.7171 -0.2144
 3686TIP3   OH211021   2.400   3.653   4.986 -0.6249 -0.3047  0.2430
 3686TIP3    H111022   2.322   3.603   5.012 -0.0794 -0.6658  1.2445
 3686TIP3    H211023   2.424   3.702   5.064  0.0411 -0.0335 -0.1239
 3687TIP3   OH211024   3.589   5.352  -0.021 -0.1962 -0.0285 -0.1857
 3687TIP3    H111025   3.580   5.280   0.041  0.2640  0.8685  0.9437
 3687TIP3    H211026   3.558   5.429   0.026  0.2539  0.6871 -1.0246
 3688TIP3   OH211027   2.878   2.531   3.013  0.2254 -0.2967  0.2106
 3688TIP3    H111028   2.789   2.506   3.038  0.0419  0.3734  0.2546
 3688TIP3    H211029   2.933   2.502   3.086 -0.3036  1.6389  1.4577
 3689TIP3   OH211030   4.913   5.874   3.532 -0.5507  0.4813  0.3427
 3689TIP3    H111031   4.894   5.964   3.558  4.0698  2.0840 -0.7439
 3689TIP3    H211032   4.974   5.884   3.458  1.0145 -3.4980  0.8899
 3690TIP3   OH211033   1.258   5.958   3.537 -0.0289 -0.0344 -0.0905
 3690TIP3    H111034   1.340   5.993   3.502 -1.5967  2.4560 -1.6003
 3690TIP3    H211035   1.251   5.870   3.500  1.1030  0.4198 -1.4764
 3691TIP3   OH211036   6.468   0.849   0.717  0.7664 -0.0371  0.1771
 3691TIP3    H111037   6.547   0.879   0.762  0.2362 -1.9453  2.6261
 3691TIP3    H211038   6.453   0.761   0.752 -3.0675  0.6722  0.7517
 3692TIP3   OH211039   2.368   5.562   0.433 -0.2932  0.2040  0.1164
 3692TIP3    H111040   2.333   5.571   0.344 -1.1261  0.5063  0.4640
 3692TIP3    H211041   2.357   5.649   0.471  1.5624  0.5272  0.0021
 3693TIP3   OH211042   0.541   5.664   4.716  0.2116 -0.2974 -0.1684
 3693TIP3    H111043   0.560   5.753   4.747  1.6868 -0.0109 -1.7767
 3693TIP3    H211044   0.616   5.612   4.746  0.5284 -0.4810 -1.2486
 3694TIP3   OH211045   1.674   1.193   5.490 -0.3280  0.0319  0.1815
 3694TIP3    H111046   1.625   1.248   5.428 -0.4045  0.8723  0.9794
 3694TIP3    H211047   1.715   1.126   5.434  1.0667  1.7889 -1.0384
 3695TIP3   OH211048   0.292   1.454   0.591  0.1865 -0.3762  0.5864
 3695TIP3    H111049   0.262   1.463   0.500  2.3658 -0.6640 -0.2177
 3695TIP3    H211050   0.224   1.498   0.642 -0.5229  0.8554 -1.2846
 3696TIP3   OH211051   3.725   0.830   4.952 -0.4137  0.7512  0.7003
 3696TIP3    H111052   3.777   0.819   4.873  0.0551  1.6006  0.8825
 3696TIP3    H211053   3.644   0.872   4.922 -0.5480  0.4016  0.5705
 3697TIP3   OH211054   5.270   4.924   0.601 -0.3621  0.0143  0.2648
 3697TIP3    H111055   5.291   4.832   0.584  0.8466  0.3969 -0.4432
 3697TIP3    H211056   5.174   4.927   0.603 -0.4791 -0.9358 -1.6956
 3698TIP3   OH211057   6.296   0.377   5.764  0.0672  0.1267 -0.6918
 3698TIP3    H111058   6.317   0.456   5.815 -2.1260  1.4039 -1.6375
 3698TIP3    H211059   6.203   0.363   5.777  0.1180 -1.4843 -1.7144
 3699TIP3   OH211060   6.004   6.670   3.119  0.4875 -0.3470  0.0503
 3699TIP3    H111061   6.093   6.703   3.125  0.6082 -0.1523 -1.9873
 3699TIP3    H211062   6.009   6.580   3.152  1.0136  0.2867  1.7617
 3700TIP3   OH211063   0.855   2.079   1.051 -0.1474  0.5328  0.3073
 3700TIP3    H111064   0.917   2.108   1.118 -0.1313  1.1466  0.0328
 3700TIP3    H211065   0.909   2.038   0.984 -0.1119  0.4235  0.4011
 3701TIP3   OH211066   3.979   1.844   1.480 -0.1145  0.3649  0.1484
 3701TIP3    H111067   4.041   1.905   1.520  0.5379 -0.1506 -0.0625
 3701TIP3    H211068   4.008   1.758   1.508 -1.7630  0.1975  1.4466
 3702TIP3   OH211069   2.448   2.743   4.166  0.8056  0.7654 -0.2868
 3702TIP3    H111070   2.529   2.711   4.204 -0.3964 -2.9668 -0.4171
 3702TIP3    H211071   2.465   2.748   4.072  0.6979 -0.9076 -0.4201
 3703TIP3   OH211072   7.060   1.402   1.565 -0.4151 -0.3537 -0.3633
 3703TIP3    H111073   6.969   1.382   1.584 -1.3128  1.2765 -2.4782
 3703TIP3    H211074   7.083   1.473   1.625 -0.8429 -0.1426 -0.4503
 3704TIP3   OH211075   5.816   4.436   4.561 -0.4714  0.3192 -0.4524
 3704TIP3    H111076   5.792   4.450   4.653 -0.5455 -0.8982 -0.2745
 3704TIP3    H211077   5.872   4.358   4.562 -0.0163  0.6202 -1.3806
 3705TIP3   OH211078   4.340   4.688   3.972 -0.1787  0.1941  0.0492
 3705TIP3    H111079   4.268   4.719   3.918 -0.2988 -0.7911 -0.3862
 3705TIP3    H211080   4.413   4.747   3.951 -0.1828 -0.2392 -1.3062
 3706TIP3   OH211081   4.726   4.360   2.960  0.2548 -0.1121 -0.1072
 3706TIP3    H111082   4.722   4.456   2.955  0.4681 -0.1041 -0.1681
 3706TIP3    H211083   4.662   4.330   2.896 -1.4605 -0.0217  1.4925
 3707TIP3   OH211084   1.533   2.017   2.802  0.1472 -0.4592 -0.3185
 3707TIP3    H111085   1.561   1.926   2.797  0.6485 -0.3871  0.8899
 3707TIP3    H211086   1.502   2.028   2.892  1.3541  0.8921 -0.0313
 3708TIP3   OH211087   4.371   0.179   0.686 -0.0766 -0.3173  0.2781
 3708TIP3    H111088   4.463   0.191   0.710  0.1128 -0.9709 -0.0920
 3708TIP3    H211089   4.334   0.129   0.760  0.0440 -0.6823  0.0933
 3709TIP3   OH211090   1.486   1.941   5.486 -0.1107  0.0551 -0.6747
 3709TIP3    H111091   1.574   1.962   5.516 -0.2854 -0.3504  0.1507
 3709TIP3    H211092   1.490   1.848   5.462 -0.9728 -0.8043  2.0854
 3710TIP3   OH211093   4.945   4.183   1.701  0.1048  0.1023  0.6197
 3710TIP3    H111094   4.878   4.191   1.633  1.1839 -0.4789 -0.5602
 3710TIP3    H211095   4.911   4.233   1.775 -1.3280  0.3495 -0.1733
 3711TIP3   OH211096   5.795   0.734   1.595 -0.2857 -0.4313 -0.1796
 3711TIP3    H111097   5.831   0.651   1.566  0.6814 -0.4405  0.9710
 3711TIP3    H211098   5.819   0.796   1.526 -2.1326 -1.2952 -1.6901
 3712TIP3   OH211099   2.963   5.638   0.993  0.3553 -0.1802  0.4062
 3712TIP3    H111100   3.013   5.712   0.958 -0.7877  0.1032 -0.7102
 3712TIP3    H211101   3.029   5.580   1.030  1.4532  0.5207 -0.3841
 3713TIP3   OH211102   4.579   5.463   3.958 -0.0548 -0.6284  0.0402
 3713TIP3    H111103   4.664   5.444   3.918 -0.8597 -0.4447 -1.9029
 3713TIP3    H211104   4.588   5.437   4.049  2.2370 -0.1476  0.0009
 3714TIP3   OH211105   1.920   4.424   5.444  0.0202 -0.3261  0.0134
 3714TIP3    H111106   1.977   4.481   5.495 -1.0568 -0.7382  1.7368
 3714TIP3    H211107   1.953   4.431   5.354  2.3875 -0.1097  0.8480
 3715TIP3   OH211108   7.140   2.551   4.868 -0.0284 -0.4575  0.3398
 3715TIP3    H111109   7.082   2.560   4.793  0.4625 -1.3831 -0.1634
 3715TIP3    H211110   7.090   2.587   4.942 -0.4529  0.6023 -0.4417
 3716TIP3   OH211111   5.403   1.100   3.190 -0.5686 -0.0895  0.1159
 3716TIP3    H111112   5.480   1.156   3.183 -0.7852  0.2009 -0.0041
 3716TIP3    H211113   5.434   1.012   3.172  0.1333 -0.2764  2.0375
 3717TIP3   OH211114   5.342   0.056   0.804 -0.4551 -0.0596  0.2119
 3717TIP3    H111115   5.367   0.061   0.712  0.0236  0.3452  0.3633
 3717TIP3    H211116   5.393  -0.016   0.839  0.7640  0.9612  0.5942
 3718TIP3   OH211117   2.935   4.639   5.326 -0.3313  0.4414 -0.0908
 3718TIP3    H111118   3.012   4.683   5.289 -0.5103  0.2055 -0.7449
 3718TIP3    H211119   2.861   4.692   5.298 -0.5788 -0.4465 -1.1545
 3719TIP3   OH211120   0.447   6.350   5.766 -0.1066  0.2117 -0.3643
 3719TIP3    H111121   0.362   6.379   5.799  0.1846 -0.5449  1.1382
 3719TIP3    H211122   0.496   6.430   5.750 -0.4984  0.6354  0.4824
 3720TIP3   OH211123   2.463   1.906   3.606  0.1298 -0.1087  1.3042
 3720TIP3    H111124   2.506   1.977   3.655  2.2749 -0.0565 -0.5032
 3720TIP3    H211125   2.412   1.860   3.672  1.3238  1.1143  3.2075
 3721TIP3   OH211126   0.229   0.102   2.755  0.6531  0.1187  0.2535
 3721TIP3    H111127   0.186   0.126   2.837 -0.7568 -1.5208  0.0454
 3721TIP3    H211128   0.297   0.040   2.780  1.6040  1.1674  0.3611
 3722TIP3   OH211129   2.806   2.978   3.231 -0.6062 -0.3603 -0.4223
 3722TIP3    H111130   2.793   2.886   3.252 -1.5791 -0.0074  0.5776
 3722TIP3    H211131   2.840   2.977   3.141 -0.2153 -1.6983 -0.2889
 3723TIP3   OH211132   0.316   5.468   3.239 -0.4493  0.1082 -0.0849
 3723TIP3    H111133   0.398   5.472   3.191 -0.7749  2.8774 -0.5346
 3723TIP3    H211134   0.254   5.426   3.179  0.6317 -2.4211  0.4251
 3724TIP3   OH211135   4.677   4.947   1.683  0.3698  0.3770 -0.0505
 3724TIP3    H111136   4.748   4.889   1.711  0.4528 -0.5533 -1.9866
 3724TIP3    H211137   4.662   4.924   1.591  0.8630  3.8996 -1.1590
 3725TIP3   OH211138   1.934   1.513   4.576 -0.0379  0.0333 -0.5053
 3725TIP3    H111139   1.896   1.426   4.588  0.7710 -0.0763  1.7643
 3725TIP3    H211140   1.986   1.506   4.496  0.7336 -1.8637  0.1019
 3726TIP3   OH211141   6.830   2.217   5.103  0.1806 -0.1596  0.3224
 3726TIP3    H111142   6.887   2.248   5.032 -0.0128 -0.4990  0.0102
 3726TIP3    H211143   6.884   2.155   5.152  0.6259  0.7831  1.0545
 3727TIP3   OH211144   4.955   3.709   0.983  0.0060  0.0942 -0.6790
 3727TIP3    H111145   4.859   3.705   0.986  0.0260 -0.4981 -0.6365
 3727TIP3    H211146   4.975   3.802   0.985 -0.4928  0.2054  1.8650
 3728TIP3   OH211147   2.865   6.118   4.527 -0.2101  0.3677  0.1900
 3728TIP3    H111148   2.839   6.113   4.619  2.1203 -0.5577  0.8519
 3728TIP3    H211149   2.828   6.201   4.497 -1.0113  0.6974  1.9431
 3729TIP3   OH211150   4.423   0.115   0.432  0.0018 -0.4686  0.4215
 3729TIP3    H111151   4.487   0.044   0.440  0.7041  0.1015  0.1082
 3729TIP3    H211152   4.401   0.138   0.522  1.3127  0.2372  0.6004
 3730TIP3   OH211153   2.776   6.681   3.174 -0.2650 -0.1791  0.6043
 3730TIP3    H111154   2.835   6.619   3.132  0.1162  0.5847 -0.0123
 3730TIP3    H211155   2.832   6.751   3.206 -1.0005  2.1659 -2.7485
 3731TIP3   OH211156   5.633   2.152   5.336  0.4372  0.1953  0.3262
 3731TIP3    H111157   5.673   2.135   5.251 -1.6369 -2.4453 -0.2542
 3731TIP3    H211158   5.706   2.151   5.398  1.9237  1.6951 -1.3048
 3732TIP3   OH211159   1.578   4.986   5.444 -0.3925 -0.0178  0.4449
 3732TIP3    H111160   1.497   4.955   5.485 -0.3867 -0.2101  0.3152
 3732TIP3    H211161   1.553   5.066   5.399 -0.7583 -0.6391 -0.4915
 3733TIP3   OH211162   0.519   3.261   5.652 -0.1543 -0.0143  0.6166
 3733TIP3    H111163   0.455   3.328   5.630 -0.6295 -0.7053 -0.1922
 3733TIP3    H211164   0.486   3.221   5.733 -1.1198 -0.7982 -0.1409
 3734TIP3   OH211165   1.618   6.138   5.848 -0.3028 -0.2911 -0.5229
 3734TIP3    H111166   1.546   6.077   5.829 -0.3092  0.0978 -1.8601
 3734TIP3    H211167   1.575   6.211   5.892 -0.3265 -1.1337  0.9122
 3735TIP3   OH211168   5.236   2.463   3.232 -0.4212 -0.3069  0.4353
 3735TIP3    H111169   5.252   2.375   3.267 -2.9398 -0.7773  0.6543
 3735TIP3    H211170   5.296   2.519   3.281 -1.0422 -1.4815  2.7383
 3736TIP3   OH211171   3.443   5.485   1.053 -0.1636 -0.5656 -0.3058
 3736TIP3    H111172   3.515   5.456   0.998  0.5423  0.8069 -0.1494
 3736TIP3    H211173   3.444   5.425   1.128  0.0542 -1.2851 -0.8798
 3737TIP3   OH211174   6.444   0.816   1.517 -0.3444  0.2393  0.1971
 3737TIP3    H111175   6.534   0.786   1.510 -0.9777 -1.4990 -1.1673
 3737TIP3    H211176   6.399   0.775   1.443 -2.0882  1.7096  0.3831
 3738TIP3   OH211177   0.556   3.886   5.521  0.3536 -0.1940  0.2910
 3738TIP3    H111178   0.510   3.970   5.515  0.1133 -0.3510 -0.1402
 3738TIP3    H211179   0.527   3.837   5.444 -0.3946 -1.1133  1.1182
 3739TIP3   OH211180   6.423   5.008   3.165  0.5982  0.2578  0.5365
 3739TIP3    H111181   6.388   5.050   3.086 -0.0466  1.9225  1.6352
 3739TIP3    H211182   6.362   5.033   3.234  2.0925  0.3513  1.8897
 3740TIP3   OH211183   4.679   0.306   3.944 -0.6494  0.8176 -0.3785
 3740TIP3    H111184   4.606   0.284   3.885  0.3753  0.9886 -1.7656
 3740TIP3    H211185   4.638   0.349   4.019 -2.3039 -1.8609  0.4026
 3741TIP3   OH211186   2.835   0.387   1.134  0.1630 -0.3040  0.1114
 3741TIP3    H111187   2.925   0.380   1.165  0.2028 -0.6173 -0.0684
 3741TIP3    H211188   2.788   0.319   1.181  0.3070 -1.0437 -0.7910
 3742TIP3   OH211189   6.260   1.069   3.839 -0.3316 -0.3298 -0.0795
 3742TIP3    H111190   6.227   0.982   3.861  0.7463 -0.3000  1.8295
 3742TIP3    H211191   6.355   1.061   3.843 -0.1360  0.4208 -2.1150
 3743TIP3   OH211192   3.453   0.712   5.270  0.1319  0.6954 -0.2223
 3743TIP3    H111193   3.537   0.717   5.224 -0.7196  0.0178 -1.9291
 3743TIP3    H211194   3.425   0.803   5.279 -0.1259  0.8288 -1.9734
 3744TIP3   OH211195   6.985   2.832   4.595  0.0676  0.0894  0.0994
 3744TIP3    H111196   6.980   2.849   4.689  2.3179  0.9760  0.1236
 3744TIP3    H211197   7.054   2.891   4.564 -0.1041 -0.7308 -1.9664
 3745TIP3   OH211198   0.874   1.634   1.060 -0.3070 -0.1953  0.4388
 3745TIP3    H111199   0.813   1.655   1.131  0.8580  0.6620  1.2336
 3745TIP3    H211200   0.834   1.671   0.982 -1.3796 -0.7191  0.7283
 3746TIP3   OH211201   2.996   0.710   3.516 -0.6514 -0.3559 -0.1397
 3746TIP3    H111202   3.047   0.775   3.566 -1.2807 -1.2339  1.7152
 3746TIP3    H211203   3.061   0.645   3.489 -0.4586 -0.4207  0.4590
 3747TIP3   OH211204   3.343   2.360   2.404  0.1902  0.4289 -0.3321
 3747TIP3    H111205   3.311   2.272   2.419  0.3070  0.2840 -0.9181
 3747TIP3    H211206   3.412   2.372   2.469  1.8188 -0.7854 -1.7338
 3748TIP3   OH211207   2.955   3.131   0.297 -0.2570  0.2278 -0.1008
 3748TIP3    H111208   2.981   3.042   0.317 -0.3989  0.2104  0.0067
 3748TIP3    H211209   3.005   3.185   0.358 -0.6760  0.1761  0.2942
 3749TIP3   OH211210   1.544   5.661   0.303 -0.0717  0.2510  0.3371
 3749TIP3    H111211   1.477   5.602   0.269 -0.2559  1.3407 -1.3331
 3749TIP3    H211212   1.497   5.718   0.364 -0.5418  0.5314 -0.2690
 3750TIP3   OH211213   3.039   1.835   1.671  0.6645 -0.4671  0.0779
 3750TIP3    H111214   2.979   1.909   1.682 -0.1329 -1.1538  0.4037
 3750TIP3    H211215   3.109   1.851   1.734  1.2063  0.6931 -0.7718
 3751TIP3   OH211216   0.801   4.130   5.299  0.0274  0.1729  0.0707
 3751TIP3    H111217   0.724   4.098   5.346  0.9341 -0.5764  1.0987
 3751TIP3    H211218   0.791   4.096   5.210 -0.7537 -0.0114  0.2196
 3752TIP3   OH211219   1.463   3.997   2.893 -0.1549 -0.6303 -0.0434
 3752TIP3    H111220   1.452   4.016   2.800  0.6186 -1.7209 -0.3688
 3752TIP3    H211221   1.375   3.971   2.922 -0.1403 -1.5407 -0.7766
 3753TIP3   OH211222   0.923   3.545   3.029  0.0154  0.1947  0.1672
 3753TIP3    H111223   0.905   3.526   2.937  2.2655  1.4095 -0.5751
 3753TIP3    H211224   0.915   3.460   3.072  3.6251 -1.4946 -2.0045
 3754TIP3   OH211225   2.946   6.589   5.282 -0.2493 -0.4146  0.2172
 3754TIP3    H111226   2.886   6.638   5.339  0.1961  1.0035 -0.4809
 3754TIP3    H211227   2.897   6.579   5.200  1.1223  2.6266 -1.1205
 3755TIP3   OH211228   5.725   0.361   2.115  0.3174 -0.0771  0.2295
 3755TIP3    H111229   5.772   0.279   2.126  1.5235  0.8699  3.2478
 3755TIP3    H211230   5.777   0.410   2.051 -0.1153 -1.3907 -1.1781
 3756TIP3   OH211231   2.349   4.693   3.809  0.3690  0.0917  0.2386
 3756TIP3    H111232   2.429   4.742   3.830  0.3787  0.6987 -1.1151
 3756TIP3    H211233   2.337   4.634   3.884  2.9117 -1.0794 -0.1329
 3757TIP3   OH211234   4.326   0.276   2.210  0.1890  0.2059  0.0284
 3757TIP3    H111235   4.272   0.330   2.267  0.8685 -0.0004  0.8864
 3757TIP3    H211236   4.275   0.195   2.199 -0.2300  0.4952 -0.1813
 3758TIP3   OH211237   0.669   0.345   0.747 -0.0847  0.7147  0.1970
 3758TIP3    H111238   0.720   0.271   0.714 -0.8845  0.5099 -0.6373
 3758TIP3    H211239   0.589   0.343   0.695 -1.1832  0.6930  1.8046
 3759TIP3   OH211240   2.132   2.855   0.535  0.0234 -0.3895 -0.3028
 3759TIP3    H111241   2.041   2.848   0.562  0.0853  1.0687  0.4112
 3759TIP3    H211242   2.132   2.831   0.443 -0.7935 -2.0147  0.0786
 3760TIP3   OH211243   2.180   1.239   3.213 -0.2701  0.3101  0.3372
 3760TIP3    H111244   2.156   1.171   3.276  0.9521 -0.8454 -0.3795
 3760TIP3    H211245   2.267   1.268   3.242  0.1542  0.0103 -0.5882
 3761TIP3   OH211246   1.516   0.370   1.076 -0.4355  0.5733 -0.0418
 3761TIP3    H111247   1.550   0.413   1.154  1.7292  1.9656 -1.6248
 3761TIP3    H211248   1.554   0.282   1.079  0.5610  0.9907 -0.0657
 3762TIP3   OH211249   6.457   5.468   3.414  0.0141 -0.5987  0.3664
 3762TIP3    H111250   6.471   5.439   3.324  0.7016 -2.0355  0.9035
 3762TIP3    H211251   6.409   5.396   3.455 -0.9381  0.3531  0.9794
 3763TIP3   OH211252   4.537   4.253   3.984 -0.3840  0.9841  0.1810
 3763TIP3    H111253   4.582   4.333   4.009 -1.9939  1.5168  1.5729
 3763TIP3    H211254   4.556   4.191   4.055 -1.1370  0.9483  0.3620
 3764TIP3   OH211255   0.505   5.639   5.097  0.1935  0.3586 -0.0046
 3764TIP3    H111256   0.585   5.684   5.124  1.8643 -1.0570 -2.2542
 3764TIP3    H211257   0.520   5.615   5.005 -2.9455  0.2744 -0.6270
 3765TIP3   OH211258   2.904   5.717   4.852  0.1954 -0.7758 -0.4972
 3765TIP3    H111259   2.816   5.731   4.816 -0.3232  1.4445  1.3849
 3765TIP3    H211260   2.888   5.673   4.936  0.8423 -0.1846 -0.0568
 3766TIP3   OH211261   5.576   4.442   4.918  0.4074  0.1714 -0.4811
 3766TIP3    H111262   5.644   4.504   4.946  0.2727  0.4521 -0.7744
 3766TIP3    H211263   5.584   4.369   4.980 -0.0245  0.8713  0.4302
 3767TIP3   OH211264   5.457   0.226   4.404  0.4034 -0.0820  0.3575
 3767TIP3    H111265   5.536   0.279   4.393 -1.1901  2.2621 -0.5991
 3767TIP3    H211266   5.404   0.245   4.327 -2.9586  1.9632  2.8679
 3768TIP3   OH211267   2.866   0.649   4.108  0.4983 -0.5751  0.1070
 3768TIP3    H111268   2.919   0.572   4.130  1.8868  0.7341  1.4827
 3768TIP3    H211269   2.881   0.711   4.179 -0.1346  1.2278 -1.2465
 3769TIP3   OH211270   3.931   3.429   4.929 -1.0503 -0.5862 -0.0842
 3769TIP3    H111271   3.904   3.520   4.913 -1.2376 -0.7718 -0.8163
 3769TIP3    H211272   3.884   3.405   5.009  0.2033  0.4635  1.0323
 3770TIP3   OH211273   4.181   6.186   4.026 -0.0915  0.2423 -0.3146
 3770TIP3    H111274   4.214   6.167   4.114  0.9859  1.9550 -0.2983
 3770TIP3    H211275   4.101   6.236   4.040  0.6436  1.4294 -0.2781
 3771TIP3   OH211276   0.184   5.370   1.901 -0.7806  0.2306 -0.3175
 3771TIP3    H111277   0.216   5.434   1.838  2.1223 -0.2719  0.4908
 3771TIP3    H211278   0.194   5.286   1.857  1.2606 -0.1224  0.6833
 3772TIP3   OH211279   6.835   6.166   1.443  0.1618  0.0316 -0.0520
 3772TIP3    H111280   6.881   6.179   1.526 -0.2829 -2.1405  0.6100
 3772TIP3    H211281   6.882   6.093   1.401 -0.8947 -0.2974 -0.6985
 3773TIP3   OH211282   1.551   6.643   1.110 -0.5385 -0.3522  0.3544
 3773TIP3    H111283   1.478   6.613   1.165  0.1638 -0.3769  1.3015
 3773TIP3    H211284   1.607   6.693   1.169 -0.3450  0.6167 -0.6132
 3774TIP3   OH211285   2.747   0.556   3.514  0.6173  0.0197  0.1570
 3774TIP3    H111286   2.822   0.604   3.548  0.4249  0.2034  0.3247
 3774TIP3    H211287   2.671   0.608   3.540  0.3897 -0.5272  0.5932
 3775TIP3   OH211288   6.037   3.606   2.627  0.4336 -0.5038  0.7645
 3775TIP3    H111289   5.953   3.644   2.651 -0.5382 -2.1935  0.1647
 3775TIP3    H211290   6.034   3.516   2.659  1.2905 -1.1313 -0.7781
 3776TIP3   OH211291   4.517   4.106   3.244 -0.7174  0.0742 -0.2231
 3776TIP3    H111292   4.543   4.046   3.174 -0.4607  0.7125 -0.6853
 3776TIP3    H211293   4.472   4.178   3.199 -1.3356  0.0576  0.3568
 3777TIP3   OH211294   6.229   3.323   5.128 -0.2486  0.4923  0.0634
 3777TIP3    H111295   6.205   3.414   5.146 -0.7638  0.0196  2.0917
 3777TIP3    H211296   6.166   3.272   5.180  0.3850 -1.0014 -0.5958
 3778TIP3   OH211297   4.089   2.281   4.025 -0.1661  0.0069  0.6728
 3778TIP3    H111298   4.027   2.320   3.963 -1.5213 -2.8946  0.0235
 3778TIP3    H211299   4.044   2.287   4.110 -0.7293 -0.8138  0.4412
 3779TIP3   OH211300   7.128   6.475   5.173  0.1508 -0.3922 -0.1819
 3779TIP3    H111301   7.101   6.504   5.085 -0.4150 -3.6595 -1.2228
 3779TIP3    H211302   7.223   6.482   5.172  0.0770  1.1215 -0.3913
 3780TIP3   OH211303   7.169   4.958   5.602  0.0954 -0.0671  0.5710
 3780TIP3    H111304   7.170   5.053   5.613  1.2382 -0.1731  1.5184
 3780TIP3    H211305   7.215   4.924   5.679  1.0489 -1.3006 -0.4920
 3781TIP3   OH211306   3.204   2.773   0.150 -0.5586 -0.1151 -0.0280
 3781TIP3    H111307   3.205   2.731   0.237 -0.7262  0.9211  0.4907
 3781TIP3    H211308   3.294   2.769   0.121 -0.1329  1.1412  1.0161
 3782TIP3   OH211309   1.018   5.223   3.457  0.1108 -0.2116 -0.5108
 3782TIP3    H111310   1.053   5.175   3.382  2.3262 -0.9239  0.8885
 3782TIP3    H211311   1.030   5.315   3.436 -0.1509 -0.3743 -1.4002
 3783TIP3   OH211312   0.522   0.242   2.912 -0.1231 -0.6312 -0.6248
 3783TIP3    H111313   0.446   0.301   2.917 -0.7463 -1.4030 -0.8381
 3783TIP3    H211314   0.549   0.247   2.820  1.3292  1.1430 -0.1713
 3784TIP3   OH211315   0.385   4.957   3.646  0.9029 -0.2153  0.2878
 3784TIP3    H111316   0.335   4.905   3.583 -0.0831  1.1216 -0.0616
 3784TIP3    H211317   0.384   5.045   3.610  1.3794  0.3305  1.5700
 3785TIP3   OH211318   2.794   3.186   1.466  1.1342 -0.4235  0.7392
 3785TIP3    H111319   2.747   3.103   1.469 -1.0466  0.7435  0.6827
 3785TIP3    H211320   2.821   3.201   1.557 -0.1149 -0.3166  1.1045
 3786TIP3   OH211321   2.918   3.780   4.187 -0.1179  0.0350  0.4422
 3786TIP3    H111322   2.893   3.691   4.211 -1.9405  1.1137  2.9862
 3786TIP3    H211323   2.844   3.814   4.137 -0.0076  0.5310  0.6085
 3787TIP3   OH211324   3.081   3.699   1.878  0.4613 -0.0059 -0.8895
 3787TIP3    H111325   3.138   3.769   1.911 -1.1060  0.4227  1.0342
 3787TIP3    H211326   3.126   3.618   1.901  0.1597  0.3206  0.9398
 3788TIP3   OH211327   4.498   5.223   5.044 -0.1118  0.6169  0.5074
 3788TIP3    H111328   4.409   5.253   5.063 -0.5837 -0.6565  0.3580
 3788TIP3    H211329   4.504   5.136   5.082  0.4555 -0.0844 -1.0787
 3789TIP3   OH211330   6.895   1.929   5.170  0.3724 -0.2830 -0.5807
 3789TIP3    H111331   6.813   1.940   5.122  0.3065 -0.1901 -0.4496
 3789TIP3    H211332   6.888   1.842   5.208 -1.0046  0.7918  1.8972
 3790TIP3   OH211333   0.203   5.047   0.220  0.2592 -0.1330 -0.0833
 3790TIP3    H111334   0.198   4.953   0.234  0.7396 -0.3166 -1.0258
 3790TIP3    H211335   0.173   5.086   0.302 -1.7878 -1.0983 -0.3278
 3791TIP3   OH211336   1.353   3.339   0.407 -0.0847 -0.1817 -0.3584
 3791TIP3    H111337   1.270   3.364   0.366 -1.2220  1.0165  2.4056
 3791TIP3    H211338   1.340   3.248   0.433 -0.7940  0.1864  0.6067
 3792TIP3   OH211339   6.167   4.577   5.637  0.1887  0.0028  0.1073
 3792TIP3    H111340   6.152   4.517   5.563 -1.5562 -1.2095  1.3651
 3792TIP3    H211341   6.089   4.632   5.639 -1.0619 -1.6794  2.5251
 3793TIP3   OH211342   2.220   0.421   5.158  0.0164  0.7297 -0.2789
 3793TIP3    H111343   2.312   0.398   5.164  0.0245  1.0322  1.3755
 3793TIP3    H211344   2.182   0.355   5.100  0.6413 -1.5771  1.7687
 3794TIP3   OH211345   0.278   5.608   4.722 -0.2627 -0.3247  0.6868
 3794TIP3    H111346   0.250   5.699   4.710 -1.0129 -0.3464  2.0865
 3794TIP3    H211347   0.372   5.609   4.704 -0.7444  0.1126 -2.3072
 3795TIP3   OH211348   1.966   1.359   0.301 -0.3281 -0.1995 -0.3447
 3795TIP3    H111349   1.979   1.453   0.292 -2.7855  0.3891  1.1114
 3795TIP3    H211350   1.986   1.340   0.393 -0.1619 -1.0325 -0.5446
 3796TIP3   OH211351   1.284   1.123   1.340  0.1337 -0.1484 -0.6605
 3796TIP3    H111352   1.205   1.163   1.303 -0.0806  0.1134  0.0525
 3796TIP3    H211353   1.310   1.183   1.410  0.2955 -0.8359 -0.1267
 3797TIP3   OH211354   0.956   3.877   2.412 -0.1781 -0.1090 -0.1828
 3797TIP3    H111355   0.986   3.905   2.326  0.1459  1.3410  0.3619
 3797TIP3    H211356   0.865   3.908   2.417 -1.1925 -2.7053 -1.0537
 3798TIP3   OH211357   3.471   1.183   0.123 -0.0497  0.0042  0.4404
 3798TIP3    H111358   3.554   1.138   0.138  0.4555  0.8600  0.2905
 3798TIP3    H211359   3.496   1.270   0.093 -1.0095  0.1021 -0.1284
 3799TIP3   OH211360   6.248   4.723   1.563  0.4151 -0.5394 -0.2428
 3799TIP3    H111361   6.305   4.670   1.507  0.0618 -1.2332  0.0398
 3799TIP3    H211362   6.283   4.812   1.556  2.0343 -1.0775  0.5425
 3800TIP3   OH211363   6.177   3.881   4.989  0.5298  0.3441 -0.0182
 3800TIP3    H111364   6.262   3.923   5.005  0.5267 -0.3459  2.0871
 3800TIP3    H211365   6.138   3.934   4.919  0.4897  4.0331  2.4802
 3801TIP3   OH211366   0.768   0.910   0.314 -0.1317 -0.0380 -0.0191
 3801TIP3    H111367   0.831   0.880   0.249  0.3793  0.5328  0.2009
 3801TIP3    H211368   0.687   0.923   0.266  0.5387  1.5357 -0.8049
 3802TIP3   OH211369   0.121   6.118   3.929  0.1843  0.3754  0.8910
 3802TIP3    H111370   0.083   6.132   3.842  2.2142 -0.5008 -0.2237
 3802TIP3    H211371   0.097   6.028   3.952  0.1217  0.4119  0.9678
 3803TIP3   OH211372   5.380   0.255   4.143 -0.6825 -0.3994 -0.3534
 3803TIP3    H111373   5.426   0.337   4.125  1.2587 -1.2208  0.6380
 3803TIP3    H211374   5.379   0.209   4.059 -0.0031 -0.2063 -0.4717
 3804TIP3   OH211375   6.380   4.376   4.562  0.7371 -0.5526  0.5018
 3804TIP3    H111376   6.452   4.394   4.622  1.1500 -0.7344  0.0660
 3804TIP3    H211377   6.421   4.336   4.486  0.1760 -0.6464  0.2402
 3805TIP3   OH211378   3.781   1.472   4.311 -0.2941  0.0239  0.0037
 3805TIP3    H111379   3.836   1.493   4.386 -0.2958  0.4063 -0.0988
 3805TIP3    H211380   3.763   1.378   4.319 -0.9088  0.2093  0.8769
 3806TIP3   OH211381   2.993   2.969   1.115 -0.2242 -0.2572 -0.1343
 3806TIP3    H111382   2.943   3.051   1.120  0.7316  0.3630 -0.4922
 3806TIP3    H211383   3.039   2.964   1.199  1.4423  0.7357 -0.9324
 3807TIP3   OH211384   3.849   3.629   5.395 -0.1048 -0.5930  0.4437
 3807TIP3    H111385   3.776   3.673   5.438  0.0202  1.5224 -1.3258
 3807TIP3    H211386   3.808   3.565   5.337 -0.6042  0.5086 -0.4632
 3808TIP3   OH211387   3.752   4.076   1.215 -0.2797  0.5485  0.1134
 3808TIP3    H111388   3.691   4.003   1.220  0.9371 -0.5841 -0.9239
 3808TIP3    H211389   3.757   4.096   1.122  1.1336  0.4279  0.1507
 3809TIP3   OH211390   5.245   0.462   1.651  0.2032  0.1220  0.7361
 3809TIP3    H111391   5.261   0.452   1.557 -1.2215 -0.4736  0.5314
 3809TIP3    H211392   5.319   0.515   1.683 -0.3258  2.1061 -1.0816
 3810TIP3   OH211393   3.029   3.095   0.859 -0.3694 -0.3231 -0.3348
 3810TIP3    H111394   3.070   3.042   0.791 -0.6722 -2.3488  0.9871
 3810TIP3    H211395   3.000   3.032   0.924 -1.4124  1.4380  0.9852
 3811TIP3   OH211396   5.381   5.024   5.876  0.2282 -0.1452 -0.6448
 3811TIP3    H111397   5.315   5.041   5.809 -0.7961  0.9029  0.5789
 3811TIP3    H211398   5.465   5.031   5.830 -0.4677 -0.7968 -2.0718
 3812TIP3   OH211399   1.084   6.030   5.464  0.3672  0.1580 -0.2841
 3812TIP3    H111400   1.033   6.065   5.537  0.9161  0.3831  0.0013
 3812TIP3    H211401   1.132   6.106   5.430  0.5282 -0.0530 -0.5317
 3813TIP3   OH211402   1.710   5.508   5.558 -0.0090 -0.5780 -0.1222
 3813TIP3    H111403   1.626   5.554   5.564  0.0277 -0.4034 -0.8251
 3813TIP3    H211404   1.687   5.418   5.535 -0.1266 -1.1441  1.9866
 3814TIP3   OH211405   4.452   5.920   3.073  0.0181 -0.9498 -0.3396
 3814TIP3    H111406   4.531   5.939   3.123 -0.5812 -0.3872  0.4280
 3814TIP3    H211407   4.422   5.836   3.108 -0.6190 -0.3699  0.5757
 3815TIP3   OH211408   5.282   3.169   1.737 -0.3337  0.2269  0.7343
 3815TIP3    H111409   5.272   3.126   1.652  1.6562 -0.8929  0.9853
 3815TIP3    H211410   5.301   3.097   1.797 -1.5401  1.0218  2.1198
 3816TIP3   OH211411   3.817   2.072   4.109  0.1885  0.0944  0.0171
 3816TIP3    H111412   3.804   2.021   4.029 -0.8263 -1.2877  1.0165
 3816TIP3    H211413   3.891   2.030   4.153  0.0962  0.2209  0.2969
 3817TIP3   OH211414   7.116   1.159   2.627  0.7120  0.1819 -0.5166
 3817TIP3    H111415   7.049   1.126   2.686  1.0154  2.5718  1.3518
 3817TIP3    H211416   7.110   1.104   2.549 -0.8882 -2.0074  1.0427
 3818TIP3   OH211417   4.893   1.289   1.066 -0.2289  0.7449  0.3070
 3818TIP3    H111418   4.830   1.321   1.131 -0.2900 -0.1834  0.7191
 3818TIP3    H211419   4.925   1.369   1.023 -1.3738  1.2655  0.3718
 3819TIP3   OH211420   0.953   4.899   4.232  0.1870  0.0286  0.1313
 3819TIP3    H111421   1.042   4.906   4.200  0.2246  0.7576  0.3766
 3819TIP3    H211422   0.927   4.989   4.252  0.4024 -0.4045  2.7359
 3820TIP3   OH211423   3.637   4.648   0.626  0.1158  0.5483 -0.4239
 3820TIP3    H111424   3.599   4.561   0.634  1.3767  0.1413  2.5856
 3820TIP3    H211425   3.571   4.706   0.665  0.9346  0.3319  1.3704
 3821TIP3   OH211426   1.462   5.412   1.566  0.1457 -0.0711 -0.7640
 3821TIP3    H111427   1.513   5.481   1.523  1.2135 -1.2494 -1.4770
 3821TIP3    H211428   1.524   5.339   1.576 -0.5640 -0.4710  1.2048
 3822TIP3   OH211429   4.940   1.986   2.104 -0.2906 -0.2313  0.0423
 3822TIP3    H111430   4.892   2.010   2.183 -0.5778  1.3946 -0.5899
 3822TIP3    H211431   5.032   1.991   2.129 -0.3912 -1.6793  0.7912
 3823TIP3   OH211432   6.630   3.822   2.214  0.8781  0.1573  0.4115
 3823TIP3    H111433   6.558   3.789   2.159  1.1227 -0.3220  0.3706
 3823TIP3    H211434   6.605   3.797   2.303  0.8087  0.3330  0.4414
 3824TIP3   OH211435   3.058   6.430   0.055  0.7445 -0.3963  0.6269
 3824TIP3    H111436   3.068   6.385  -0.029  0.9249 -1.1431  1.0369
 3824TIP3    H211437   2.963   6.432   0.069  0.7384 -0.7817  0.6668
 3825TIP3   OH211438   5.506   0.016   5.251  0.2035  0.6376 -0.4660
 3825TIP3    H111439   5.473  -0.072   5.236  0.5533  0.4512 -0.1709
 3825TIP3    H211440   5.431   0.073   5.240 -0.1759  0.2396  0.0071
 3826TIP3   OH211441   2.488   4.881   4.725 -0.4600  0.1460 -0.5179
 3826TIP3    H111442   2.414   4.940   4.711 -0.0703  0.8705  0.3472
 3826TIP3    H211443   2.449   4.794   4.727 -1.3874  0.5593  0.5544
 3827TIP3   OH211444   5.215   4.050   0.475  0.7198  0.2868  0.6602
 3827TIP3    H111445   5.244   4.041   0.385 -1.7358 -1.1511 -0.0734
 3827TIP3    H211446   5.120   4.049   0.470  0.4001 -3.3920  3.5058
 3828TIP3   OH211447   4.239   6.659   2.192  0.1458 -0.1232 -0.0276
 3828TIP3    H111448   4.190   6.696   2.264  0.0112  0.8345 -0.6036
 3828TIP3    H211449   4.306   6.724   2.172  0.3794 -0.5185 -0.5699
 3829TIP3   OH211450   1.660   1.360   1.980  0.0724 -0.4632  0.3785
 3829TIP3    H111451   1.629   1.444   2.012 -1.9639 -0.9257 -0.2335
 3829TIP3    H211452   1.754   1.372   1.966 -0.0010  1.3726  1.2617
 3830TIP3   OH211453   0.469   4.000   4.855 -0.1577  0.1708  0.0530
 3830TIP3    H111454   0.551   4.034   4.890 -1.2982  1.2938  1.7793
 3830TIP3    H211455   0.422   4.077   4.824  0.1600 -0.6284 -2.7326
 3831TIP3   OH211456   5.688   0.118   4.619 -0.3968 -0.2351 -0.0950
 3831TIP3    H111457   5.726   0.160   4.696 -0.6865 -0.7737  0.3552
 3831TIP3    H211458   5.725   0.165   4.545 -0.4084  0.5438  0.3822
 3832TIP3   OH211459   5.729   3.561   4.281 -0.2439 -0.1535  0.0845
 3832TIP3    H111460   5.754   3.595   4.196 -1.9983 -0.6158 -0.6487
 3832TIP3    H211461   5.807   3.575   4.336  2.0748 -2.5005 -2.3019
 3833TIP3   OH211462   4.278   3.475   0.252 -0.2212 -0.0740  0.2696
 3833TIP3    H111463   4.240   3.449   0.168 -0.0679  0.7550 -0.0678
 3833TIP3    H211464   4.266   3.399   0.309  1.2422 -1.3219 -1.0077
 3834TIP3   OH211465   2.169   4.597   0.250 -0.1906 -0.1372 -0.3610
 3834TIP3    H111466   2.089   4.606   0.302  0.2522 -0.6097  0.4062
 3834TIP3    H211467   2.240   4.605   0.313  0.3628 -0.2426 -0.9648
 3835TIP3   OH211468   6.363   6.370   0.872 -0.8833  0.3957  0.1102
 3835TIP3    H111469   6.356   6.429   0.948  2.3135  0.1942  0.6964
 3835TIP3    H211470   6.385   6.285   0.910  1.6565  0.4765 -0.9590
 3836TIP3   OH211471   5.344   5.027   4.638  0.2347 -0.3316 -0.0710
 3836TIP3    H111472   5.338   5.103   4.580 -1.5806  1.2474  2.0052
 3836TIP3    H211473   5.254   4.996   4.647  0.8672 -2.3607 -0.3502
 3837TIP3   OH211474   5.877   1.479   4.360 -0.4463  0.7217 -0.2272
 3837TIP3    H111475   5.876   1.537   4.436  1.2530 -0.0236  0.4289
 3837TIP3    H211476   5.825   1.524   4.294 -0.9657  1.9562  0.9801
 3838TIP3   OH211477   1.002   1.224   5.429  0.0706  0.2410  0.1634
 3838TIP3    H111478   0.952   1.229   5.347  1.3453 -0.4988 -0.6792
 3838TIP3    H211479   0.936   1.241   5.497 -1.3917 -0.9101 -0.8832
 3839TIP3   OH211480   4.065   3.302   4.542 -0.0796  0.2103 -0.5106
 3839TIP3    H111481   4.135   3.250   4.582  0.0702 -0.4167 -1.5389
 3839TIP3    H211482   3.986   3.251   4.555 -0.5613  1.3670  1.4987
 3840TIP3   OH211483   2.813   1.109   4.328  1.0854 -0.3624  0.0970
 3840TIP3    H111484   2.767   1.073   4.404  1.7456  0.5609  0.9533
 3840TIP3    H211485   2.744   1.153   4.278  0.9351  0.7082  1.1883
 3841TIP3   OH211486   5.436   5.747   5.000 -0.3178  0.0447  0.5305
 3841TIP3    H111487   5.415   5.686   5.071 -0.0642 -1.4039 -0.5803
 3841TIP3    H211488   5.367   5.813   5.004 -2.1788 -1.7739  0.1555
 3842TIP3   OH211489   3.449   3.163   1.419  0.1240 -0.5447  0.4952
 3842TIP3    H111490   3.382   3.154   1.352 -0.0901  0.0512  0.6186
 3842TIP3    H211491   3.473   3.074   1.442  0.5301 -0.7637 -0.7028
 3843TIP3   OH211492   4.301   4.069   0.834 -0.5233 -0.2697  0.5601
 3843TIP3    H111493   4.226   4.073   0.775 -0.4617 -0.3624  0.4757
 3843TIP3    H211494   4.265   4.091   0.920 -0.0850  2.9653  0.0373
 3844TIP3   OH211495   3.507   4.395   3.966 -0.1941  0.2607 -0.3196
 3844TIP3    H111496   3.444   4.374   3.897  0.9688 -1.2558 -0.9883
 3844TIP3    H211497   3.516   4.313   4.016  1.2964  0.3991 -0.3100
 3845TIP3   OH211498   4.524   4.843   3.644 -0.7271  0.0720 -0.2408
 3845TIP3    H111499   4.615   4.857   3.620 -0.6405 -0.6416 -0.3499
 3845TIP3    H211500   4.506   4.752   3.619 -0.8266 -0.5139  1.7729
 3846TIP3   OH211501   6.058   0.348   0.555 -0.2172  0.1899 -0.2770
 3846TIP3    H111502   6.037   0.265   0.597  0.1232 -0.2892 -1.0269
 3846TIP3    H211503   5.974   0.391   0.542 -0.4135 -0.1354 -0.0945
 3847TIP3   OH211504   4.312   1.430   0.031  0.0643 -0.2584 -0.0244
 3847TIP3    H111505   4.219   1.406   0.029  0.0050 -0.0133 -0.2811
 3847TIP3    H211506   4.335   1.429   0.124 -0.5356  0.9773  0.1587
 3848TIP3   OH211507   3.268   3.449   2.582  0.1077 -0.0249  0.0037
 3848TIP3    H111508   3.203   3.481   2.520  1.2521  3.1101  0.2486
 3848TIP3    H211509   3.229   3.465   2.668  1.3227  2.4709  0.1689
 3849TIP3   OH211510   3.039   1.668   0.741  0.0398 -0.4357  0.4622
 3849TIP3    H111511   3.039   1.696   0.832 -0.0685  0.8348  0.0924
 3849TIP3    H211512   2.952   1.630   0.727 -0.5217  0.7875  0.4932
 3850TIP3   OH211513   1.926   4.933   4.714  0.4664  0.2327  0.5154
 3850TIP3    H111514   1.922   5.021   4.753  1.3046 -0.3195  1.9368
 3850TIP3    H211515   2.010   4.898   4.743  1.3082 -0.1307 -2.1247
 3851TIP3   OH211516   5.103   3.413   2.465 -0.1511 -0.1117  0.1496
 3851TIP3    H111517   5.182   3.368   2.433 -1.2482 -0.9750 -1.5067
 3851TIP3    H211518   5.088   3.483   2.401  0.4883  1.5026  1.6963
 3852TIP3   OH211519   5.660   5.464   3.164 -0.2911 -0.0646  0.2045
 3852TIP3    H111520   5.619   5.519   3.097 -1.1250  0.1649  0.8735
 3852TIP3    H211521   5.671   5.379   3.122 -2.4277 -0.4419  0.2773
 3853TIP3   OH211522   1.098   3.968   4.212 -0.3188  0.1844 -0.0565
 3853TIP3    H111523   1.183   3.968   4.257  0.3402 -0.7724 -1.2158
 3853TIP3    H211524   1.108   4.033   4.142 -1.0103  1.0040  0.5922
 3854TIP3   OH211525   2.616   5.356   2.875  0.2706 -0.0844  0.2688
 3854TIP3    H111526   2.610   5.387   2.784  1.6409 -0.1076  0.1506
 3854TIP3    H211527   2.572   5.425   2.926  3.2938  2.2377  0.0196
 3855TIP3   OH211528   0.688   4.889   0.764  0.2371 -0.6739  0.4034
 3855TIP3    H111529   0.615   4.922   0.816  1.4753 -0.9694  2.4390
 3855TIP3    H211530   0.659   4.804   0.732 -0.5392 -0.5046  0.6326
 3856TIP3   OH211531   7.244   1.356   5.370 -0.4077 -0.2272 -0.3833
 3856TIP3    H111532   7.228   1.271   5.412 -2.8581  0.5549  0.4219
 3856TIP3    H211533   7.157   1.394   5.359  0.4392  1.2381 -2.8136
 3857TIP3   OH211534   2.468   2.263   4.397 -0.1948 -0.4313 -0.1828
 3857TIP3    H111535   2.554   2.236   4.428  1.0652  1.8951 -1.3989
 3857TIP3    H211536   2.484   2.305   4.313 -2.6746 -0.7579 -0.9097
 3858TIP3   OH211537   1.290   1.650   5.125  0.3565  0.2146  0.5423
 3858TIP3    H111538   1.314   1.557   5.130 -0.6380 -0.0386  0.7755
 3858TIP3    H211539   1.207   1.651   5.077  0.4864  1.0108  0.3167
 3859TIP3   OH211540   3.257   5.130   4.973 -0.7155  0.7098 -0.2872
 3859TIP3    H111541   3.166   5.133   5.002 -0.5636  0.0091  0.2777
 3859TIP3    H211542   3.283   5.222   4.968 -0.2934  0.9192  3.2922
 3860TIP3   OH211543   3.172   0.104   3.019 -0.4648 -0.3915 -0.0074
 3860TIP3    H111544   3.146   0.132   2.931  0.4048 -0.4149 -0.2786
 3860TIP3    H211545   3.153   0.179   3.075  0.6932  0.3034 -0.5231
 3861TIP3   OH211546   1.345   6.779   0.981  0.0906  0.2464  0.0649
 3861TIP3    H111547   1.422   6.739   1.022  0.0191 -0.2611 -0.2827
 3861TIP3    H211548   1.285   6.706   0.968 -0.1955  0.5348 -0.2418
 3862TIP3   OH211549   4.001   5.688   4.608 -0.7712 -0.4506 -0.2510
 3862TIP3    H111550   3.951   5.768   4.592  0.1560 -0.1942 -2.2615
 3862TIP3    H211551   3.969   5.656   4.692 -1.3469  1.8900  0.5104
 3863TIP3   OH211552   0.061   0.827   4.305  0.1815  0.0905 -0.4509
 3863TIP3    H111553   0.132   0.821   4.241 -1.7324  0.5411 -2.7448
 3863TIP3    H211554   0.023   0.914   4.290 -0.4282  0.1448  1.2111
 3864TIP3   OH211555   4.926   0.089   4.963  0.0151  0.0180  0.2108
 3864TIP3    H111556   4.879   0.170   4.981 -0.0368 -0.1781  1.0284
 3864TIP3    H211557   4.972   0.104   4.881 -1.9450  0.0141 -0.9505
 3865TIP3   OH211558   4.646   0.509   2.018  0.6306  0.1251 -0.6123
 3865TIP3    H111559   4.608   0.447   1.955  0.5470 -0.4513 -0.0064
 3865TIP3    H211560   4.673   0.454   2.091  0.8827  0.7722 -0.2190
 3866TIP3   OH211561   1.455   4.033   0.717 -0.2587  0.1281 -0.6276
 3866TIP3    H111562   1.430   3.948   0.682 -1.0695  0.8200 -1.8214
 3866TIP3    H211563   1.528   4.015   0.776 -2.3344 -1.7719  1.5454
 3867TIP3   OH211564   6.800   4.854   1.731 -0.1586  0.1222 -0.2196
 3867TIP3    H111565   6.876   4.901   1.766  0.0220 -1.3278  1.5138
 3867TIP3    H211566   6.806   4.865   1.636  2.1059  0.2294 -0.1146
 3868TIP3   OH211567   3.051   1.183   5.341  0.9971  0.3757 -0.1142
 3868TIP3    H111568   3.048   1.236   5.421  1.7514 -0.2329  0.3308
 3868TIP3    H211569   3.019   1.097   5.367  0.8661  0.2830 -0.5645
 3869TIP3   OH211570   4.131   1.097   0.234  0.0156 -0.0368 -0.1707
 3869TIP3    H111571   4.050   1.083   0.283 -0.5920 -1.8791 -1.5596
 3869TIP3    H211572   4.119   1.180   0.189 -0.7716  0.1073  0.2941
 3870TIP3   OH211573   0.113   1.879   1.469  0.0759  0.0852 -0.1388
 3870TIP3    H111574   0.079   1.846   1.386  1.9255 -0.8058 -0.6194
 3870TIP3    H211575   0.172   1.809   1.499  0.9981  1.2649  0.8907
 3871TIP3   OH211576   5.173   6.107   4.851  0.3574  0.2358  0.0979
 3871TIP3    H111577   5.237   6.173   4.822  0.3857  0.6195  1.0259
 3871TIP3    H211578   5.093   6.130   4.804  0.8281 -0.1342 -0.9301
 3872TIP3   OH211579   5.286   4.340   2.411 -0.2492  1.0865 -0.5176
 3872TIP3    H111580   5.347   4.413   2.414  0.5973  0.3974 -0.6945
 3872TIP3    H211581   5.228   4.361   2.337 -0.3257  1.8107 -0.2566
 3873TIP3   OH211582   3.574   2.056   4.755 -0.6452 -0.1980 -0.0676
 3873TIP3    H111583   3.633   2.017   4.820 -1.6970 -0.4272  0.7655
 3873TIP3    H211584   3.490   2.062   4.799 -0.4242  3.7473  0.1585
 3874TIP3   OH211585   6.097   1.588   3.033  0.0309  0.3652  0.5106
 3874TIP3    H111586   6.115   1.677   3.064 -2.1124  0.7151  0.8820
 3874TIP3    H211587   6.047   1.601   2.952  2.8317 -0.5501 -1.4994
 3875TIP3   OH211588   4.728   2.716   4.943  1.1896  0.4487 -0.6989
 3875TIP3    H111589   4.773   2.638   4.976  0.3920  0.1533 -0.2954
 3875TIP3    H211590   4.732   2.707   4.847 -1.5058 -1.6575 -0.7250
 3876TIP3   OH211591   3.681   4.378   4.588 -0.1768 -0.3453  0.5883
 3876TIP3    H111592   3.687   4.354   4.495 -1.4840  0.9821  0.1169
 3876TIP3    H211593   3.618   4.317   4.625  0.7107 -1.1938  0.7455
 3877TIP3   OH211594   4.842   2.956   5.878  0.0547 -0.6028 -0.7188
 3877TIP3    H111595   4.779   2.950   5.806 -0.0943  1.7783 -0.8614
 3877TIP3    H211596   4.902   3.025   5.851 -0.3117  0.7320  1.6498
 3878TIP3   OH211597   2.884   0.726   1.218  0.1366  0.0847  0.3990
 3878TIP3    H111598   2.792   0.755   1.220  0.4187  0.9796  0.7597
 3878TIP3    H211599   2.905   0.706   1.309  0.4219  0.2754  0.3745
 3879TIP3   OH211600   5.073   5.466   3.813 -0.2829 -0.1160  0.2735
 3879TIP3    H111601   5.141   5.471   3.880  0.4215 -0.0679 -0.4316
 3879TIP3    H211602   5.101   5.528   3.745 -0.6439 -0.6354 -0.3655
 3880TIP3   OH211603   3.408   6.799   1.783  0.4382 -0.2737 -0.4527
 3880TIP3    H111604   3.422   6.798   1.688  0.5641 -0.7128 -0.4306
 3880TIP3    H211605   3.405   6.707   1.808  0.5529 -0.1579 -0.0051
 3881TIP3   OH211606   1.108   2.667   2.336  0.4286  0.1741  0.4786
 3881TIP3    H111607   1.107   2.715   2.254  0.2955  1.8586  1.4135
 3881TIP3    H211608   1.199   2.669   2.365  0.4250 -0.1713  0.5231
 3882TIP3   OH211609   6.060   1.096   5.415  0.0973  0.4989 -0.8563
 3882TIP3    H111610   5.982   1.151   5.416  0.6147  1.2787  1.2020
 3882TIP3    H211611   6.035   1.017   5.463  0.9791  1.4496  1.2797
 3883TIP3   OH211612   3.814   3.681   2.532 -0.9775 -0.0433 -0.4727
 3883TIP3    H111613   3.886   3.745   2.525 -1.7114  0.9591  0.7729
 3883TIP3    H211614   3.814   3.637   2.447  1.5832 -0.5991 -0.2719
 3884TIP3   OH211615   3.499   1.285   0.694  0.5741  0.0724  0.3833
 3884TIP3    H111616   3.435   1.354   0.711  0.6008  0.1783  0.0576
 3884TIP3    H211617   3.452   1.203   0.711  0.0267  0.1099 -0.8992
 3885TIP3   OH211618  -0.027   3.207   0.506  0.0470  0.0507  0.3415
 3885TIP3    H111619   0.059   3.178   0.475 -0.4084 -0.0561 -0.8875
 3885TIP3    H211620  -0.017   3.301   0.520 -0.1904  0.4613 -1.9114
 3886TIP3   OH211621   6.183   4.633   3.123  0.7996 -0.2553 -0.5460
 3886TIP3    H111622   6.273   4.603   3.111  0.8800  0.2157 -1.1619
 3886TIP3    H211623   6.152   4.653   3.034 -0.1987 -1.2139 -0.4279
 3887TIP3   OH211624   1.368   5.517   0.641 -0.2860 -0.4881  0.0038
 3887TIP3    H111625   1.363   5.434   0.593  2.3770 -0.4620 -0.4209
 3887TIP3    H211626   1.380   5.490   0.733 -0.4291 -0.5548  0.0035
 3888TIP3   OH211627   3.333   0.416   0.632  0.1053 -0.1001  0.1766
 3888TIP3    H111628   3.277   0.491   0.612  0.3667 -0.0183 -0.2792
 3888TIP3    H211629   3.379   0.441   0.712  0.2755  0.2795 -0.0331
 3889TIP3   OH211630   5.797   5.902   3.920 -0.5998  0.2058 -0.2184
 3889TIP3    H111631   5.886   5.881   3.893 -0.9833 -0.9300 -0.6563
 3889TIP3    H211632   5.803   5.912   4.015 -0.2893 -1.6003 -0.0009
 3890TIP3   OH211633   3.493   5.676   2.965 -0.3614 -0.2131 -0.2111
 3890TIP3    H111634   3.561   5.689   3.031 -0.8565  0.3925  0.1848
 3890TIP3    H211635   3.542   5.658   2.885  0.2613 -3.2738  0.7241
 3891TIP3   OH211636   6.161   5.770   4.396 -0.4387 -0.4238  0.2850
 3891TIP3    H111637   6.108   5.749   4.473 -0.0072  0.3265  0.7881
 3891TIP3    H211638   6.124   5.851   4.363  0.1323 -0.1158  0.3968
 3892TIP3   OH211639   4.670   2.988   4.937  0.4879  0.4022  0.0858
 3892TIP3    H111640   4.765   2.995   4.951  0.7435  0.1729 -1.4479
 3892TIP3    H211641   4.653   2.894   4.936  0.5899  0.3814 -1.7189
 3893TIP3   OH211642   2.917   6.333   3.748 -0.3468  0.4657  0.2236
 3893TIP3    H111643   2.845   6.375   3.702 -0.9875 -0.1660  0.6353
 3893TIP3    H211644   2.897   6.344   3.841  0.5456  1.0539  0.3635
 3894TIP3   OH211645   6.628   6.733   2.029 -1.0414 -0.5928  0.0657
 3894TIP3    H111646   6.661   6.755   2.116 -0.6796  0.5366 -0.3297
 3894TIP3    H211647   6.664   6.802   1.972 -2.4504 -0.4806 -0.7357
 3895TIP3   OH211648   2.875   0.396   5.568  0.4407  0.2026  0.0793
 3895TIP3    H111649   2.915   0.326   5.516 -1.5330 -0.9957  0.0957
 3895TIP3    H211650   2.857   0.355   5.653 -1.2560  0.5423 -0.0970
 3896TIP3   OH211651   4.031   4.195   1.449 -0.1450  0.1546 -0.2650
 3896TIP3    H111652   3.987   4.117   1.414 -0.7738  1.2868 -2.1194
 3896TIP3    H211653   4.074   4.235   1.374  0.2708  1.5466  0.6713
 3897TIP3   OH211654   1.750   1.940   4.546  0.4879 -0.5271 -0.1480
 3897TIP3    H111655   1.840   1.937   4.513  1.0117  1.4732  0.9072
 3897TIP3    H211656   1.696   1.958   4.469  0.9396 -1.8923 -0.8134
 3898TIP3   OH211657   6.046   5.571   0.341  0.1637  0.0855 -0.6373
 3898TIP3    H111658   5.983   5.503   0.363  1.0525 -0.1580  1.3477
 3898TIP3    H211659   6.127   5.523   0.323  0.5996  0.5411  0.0522
 3899TIP3   OH211660   1.241   5.167   3.626  0.0451  0.3806 -0.2292
 3899TIP3    H111661   1.202   5.112   3.559 -1.0420 -0.3217  0.9255
 3899TIP3    H211662   1.223   5.121   3.708  1.6361  1.0224  0.5365
 3900TIP3   OH211663   5.593   6.532   5.098  0.2679 -0.2440  0.1210
 3900TIP3    H111664   5.557   6.444   5.113  1.1732 -0.6137  0.1890
 3900TIP3    H211665   5.661   6.542   5.165 -0.0884  0.6620  0.3520
 3901TIP3   OH211666   0.535   0.590   3.623 -0.3836  0.1738  0.0630
 3901TIP3    H111667   0.553   0.600   3.529  0.0876  1.4988  0.2738
 3901TIP3    H211668   0.596   0.522   3.652 -2.1495 -2.0258 -1.0178
 3902TIP3   OH211669   5.202   4.152   0.905  0.3899  0.3866  0.2851
 3902TIP3    H111670   5.260   4.190   0.839  0.6118  1.2893  0.9693
 3902TIP3    H211671   5.181   4.226   0.963 -1.8131  0.2120 -0.1978
 3903TIP3   OH211672   2.331   6.652   0.684 -0.2197 -0.0303  0.2731
 3903TIP3    H111673   2.264   6.671   0.618  0.1997 -0.3795 -0.2629
 3903TIP3    H211674   2.283   6.648   0.767 -0.5363  1.9554  0.2338
 3904TIP3   OH211675   1.857   0.649   4.459 -0.7627  0.4005 -0.1030
 3904TIP3    H111676   1.913   0.718   4.425 -0.1413 -0.1814 -0.2697
 3904TIP3    H211677   1.813   0.613   4.382 -0.0745 -0.2791 -0.1870
 3905TIP3   OH211678   0.818   1.159   0.190  0.5760  0.2591  0.1613
 3905TIP3    H111679   0.746   1.157   0.127  0.7255 -1.5220 -0.0208
 3905TIP3    H211680   0.780   1.199   0.268 -0.6111 -0.5414  0.0304
 3906TIP3   OH211681   6.348   4.732   2.169  0.2850  0.7501  0.2892
 3906TIP3    H111682   6.436   4.764   2.189  0.6926 -0.0217 -0.1838
 3906TIP3    H211683   6.363   4.662   2.105 -0.5896 -0.1579  1.0476
 3907TIP3   OH211684   0.421   5.418   2.794 -0.5982 -0.4885  0.3785
 3907TIP3    H111685   0.445   5.418   2.701 -1.4409 -1.7175  0.1431
 3907TIP3    H211686   0.502   5.396   2.840 -0.5631 -1.6556 -0.2014
 3908TIP3   OH211687   4.040   1.610   0.747  0.2046  0.1917 -0.5094
 3908TIP3    H111688   4.006   1.533   0.794 -0.6387 -0.8134 -2.6201
 3908TIP3    H211689   3.963   1.662   0.727  0.6590  1.0733 -0.0285
 3909TIP3   OH211690   1.538   2.073   0.596  0.1946 -0.3729 -0.4828
 3909TIP3    H111691   1.611   2.133   0.607  2.0091 -2.2116 -1.7218
 3909TIP3    H211692   1.478   2.118   0.536  0.8485  0.7042 -0.3527
 3910TIP3   OH211693   5.058   0.829   2.695 -0.4742  0.0691  0.3815
 3910TIP3    H111694   5.021   0.811   2.609 -0.1582 -0.7702  0.4084
 3910TIP3    H211695   5.010   0.771   2.755  1.3065 -1.5965  0.3118
 3911TIP3   OH211696   5.911   3.740   4.133 -0.2125 -0.1612 -0.0040
 3911TIP3    H111697   5.918   3.824   4.086  0.2012 -0.3806 -0.3469
 3911TIP3    H211698   5.967   3.680   4.083  0.4076 -0.3526  0.8841
 3912TIP3   OH211699   6.400   1.182   5.686  0.3660  0.7632 -0.5382
 3912TIP3    H111700   6.461   1.228   5.743 -1.5862 -0.1711  2.5537
 3912TIP3    H211701   6.381   1.245   5.616  4.3035  1.2560 -1.3915
 3913TIP3   OH211702   0.063   4.905   4.202  0.3461  0.5120 -0.3277
 3913TIP3    H111703   0.152   4.909   4.237  0.3464 -1.6565  0.0503
 3913TIP3    H211704   0.013   4.965   4.258  1.8397  3.2386 -1.7068
 3914TIP3   OH211705   1.649   2.072   4.905  0.2718  1.1272 -0.2646
 3914TIP3    H111706   1.684   2.149   4.949  0.1936  0.3699  1.1721
 3914TIP3    H211707   1.554   2.078   4.917  0.1377  1.5495 -1.4240
 3915TIP3   OH211708   3.416   3.250   3.479  0.9151  0.1806 -0.5741
 3915TIP3    H111709   3.431   3.205   3.396 -0.4449 -4.5843  1.4020
 3915TIP3    H211710   3.326   3.227   3.503  1.6581  0.1333  2.7356
 3916TIP3   OH211711   4.759   2.188   5.712  0.4589 -0.9313 -0.1663
 3916TIP3    H111712   4.816   2.237   5.652 -1.5724 -1.2889 -2.5497
 3916TIP3    H211713   4.797   2.100   5.714  0.6536 -0.8723 -0.8518
 3917TIP3   OH211714   4.537   2.067   5.582 -0.0561  0.2490  1.1635
 3917TIP3    H111715   4.590   2.103   5.653  1.4372 -0.7768  0.6423
 3917TIP3    H211716   4.520   2.142   5.524 -2.4641  1.4003  3.1864
 3918TIP3   OH211717   5.919   1.067   3.037  0.5680 -0.1726  0.7311
 3918TIP3    H111718   5.925   1.161   3.049 -1.0239 -0.1276  1.4453
 3918TIP3    H211719   5.880   1.056   2.950 -0.7395 -0.0913  1.2772
 3919TIP3   OH211720   3.445   3.653   1.956  0.2693  0.5650  0.3388
 3919TIP3    H111721   3.418   3.702   2.034 -0.2118 -1.2004  1.3415
 3919TIP3    H211722   3.535   3.625   1.974 -0.2721 -0.9466  0.8924
 3920TIP3   OH211723   5.738   0.973   1.821 -0.2282 -0.3488 -0.0793
 3920TIP3    H111724   5.654   1.007   1.853 -0.1600 -0.3217  0.0716
 3920TIP3    H211725   5.715   0.895   1.771 -0.3177 -0.4965  0.1944
 3921TIP3   OH211726   3.917   3.177   4.785 -0.1380 -0.1093 -0.2512
 3921TIP3    H111727   3.827   3.155   4.761 -0.7285 -2.8479  3.4959
 3921TIP3    H211728   3.910   3.258   4.835 -0.3430  0.2412 -0.8438
 3922TIP3   OH211729   5.149   1.336   3.992  0.1622 -0.3829 -0.0572
 3922TIP3    H111730   5.082   1.358   3.928  0.4994  1.3701  0.1406
 3922TIP3    H211731   5.226   1.312   3.940  0.0107 -0.3468 -0.2971
 3923TIP3   OH211732   1.815   2.952   3.005 -0.1719  0.0090  0.1599
 3923TIP3    H111733   1.817   2.948   2.909 -1.5093 -1.1989  0.1476
 3923TIP3    H211734   1.863   2.875   3.034  2.5213  1.6892  0.5781
 3924TIP3   OH211735   6.257   2.857   4.258 -0.1498 -0.4094  0.0260
 3924TIP3    H111736   6.247   2.798   4.183  1.0358 -1.7216  0.8733
 3924TIP3    H211737   6.316   2.812   4.317  1.3973  1.9408  0.4064
 3925TIP3   OH211738   0.542   5.614   3.638  0.4930 -0.3239  0.5643
 3925TIP3    H111739   0.612   5.549   3.640  0.1456 -0.6893  1.9112
 3925TIP3    H211740   0.462   5.563   3.623  0.4435  0.0289 -0.4161
 3926TIP3   OH211741   1.513   0.543   5.413 -0.0273 -0.7691 -0.3876
 3926TIP3    H111742   1.485   0.628   5.381  0.4979 -0.1271  0.7834
 3926TIP3    H211743   1.529   0.491   5.334  0.4101  0.4741 -1.1460
 3927TIP3   OH211744   4.962   0.740   2.023 -0.1185  0.5992  0.1906
 3927TIP3    H111745   4.967   0.657   1.975  0.4598  0.2584  0.8297
 3927TIP3    H211746   4.978   0.807   1.957  0.9084  0.1212 -0.0571
 3928TIP3   OH211747   4.386   2.704   3.558  0.2784 -0.2237 -0.2138
 3928TIP3    H111748   4.372   2.654   3.478 -0.0037  0.0817 -0.3592
 3928TIP3    H211749   4.391   2.638   3.627  0.7100 -0.5016 -0.5045
 3929TIP3   OH211750   2.781   1.413   3.678  0.3062  0.2207 -0.2179
 3929TIP3    H111751   2.732   1.424   3.760  1.7425  1.1432  0.5498
 3929TIP3    H211752   2.715   1.421   3.609 -1.0339 -1.1173  0.8292
 3930TIP3   OH211753   3.512   6.055   3.687  0.3116 -0.0297 -0.6284
 3930TIP3    H111754   3.537   6.011   3.768 -0.7547  2.1297  0.9595
 3930TIP3    H211755   3.458   5.991   3.641 -0.6813 -0.6530  1.2880
 3931TIP3   OH211756   3.184   4.123   1.420  0.2582  0.1003 -0.5577
 3931TIP3    H111757   3.209   4.192   1.359  0.3765  1.5021  0.9987
 3931TIP3    H211758   3.097   4.150   1.452 -0.0985 -0.9590 -0.6000
 3932TIP3   OH211759   4.609   2.851   3.353 -0.1254  0.0021 -0.0290
 3932TIP3    H111760   4.565   2.900   3.422  0.2752 -1.1832  1.1001
 3932TIP3    H211761   4.703   2.863   3.371  0.0919  1.9006 -1.9852
 3933TIP3   OH211762   6.594   2.028   1.192 -0.2755 -0.1980 -0.1072
 3933TIP3    H111763   6.667   1.978   1.153 -0.6286  1.5064 -3.2580
 3933TIP3    H211764   6.520   1.968   1.188 -0.0864 -0.3788 -1.3028
 3934TIP3   OH211765   5.681   3.899   5.711 -0.0270 -0.4173  0.2192
 3934TIP3    H111766   5.720   3.811   5.704 -0.6619 -0.6682 -0.2158
 3934TIP3    H211767   5.700   3.926   5.801 -1.4698 -1.7972  0.9796
 3935TIP3   OH211768   4.663   1.553   0.726  0.2243  0.1992  0.0889
 3935TIP3    H111769   4.629   1.541   0.637  1.0695 -0.4294 -0.1573
 3935TIP3    H211770   4.730   1.486   0.736  0.4273  0.5273  1.0635
 3936TIP3   OH211771   5.175   2.464   5.402  0.3702 -0.5187  0.3243
 3936TIP3    H111772   5.197   2.491   5.491 -0.0700  0.8354  0.0344
 3936TIP3    H211773   5.256   2.424   5.369  0.8516 -0.0976  0.9703
 3937TIP3   OH211774   2.970   1.838   0.219 -0.0444  0.4810  0.2186
 3937TIP3    H111775   2.936   1.754   0.250  1.7119  0.0437  1.1212
 3937TIP3    H211776   2.918   1.859   0.142 -0.7914 -1.2425  0.2210
 3938TIP3   OH211777   7.173   3.735   1.914 -0.0136  0.2403  0.0510
 3938TIP3    H111778   7.183   3.830   1.920  0.7625  0.1613  0.1413
 3938TIP3    H211779   7.079   3.721   1.915 -0.1268  0.9663  0.8041
 3939TIP3   OH211780   0.936   4.531   0.197  0.1039  0.1274 -0.0239
 3939TIP3    H111781   0.936   4.585   0.118  1.2978 -0.5155 -0.4941
 3939TIP3    H211782   0.859   4.474   0.187  0.4454 -0.1982 -0.9118
 3940TIP3   OH211783   5.785   5.106   3.438  0.0287  0.2821 -0.5131
 3940TIP3    H111784   5.794   5.108   3.342  1.2386  1.3948 -0.4056
 3940TIP3    H211785   5.718   5.171   3.457 -2.7852 -2.3211 -0.7681
 3941TIP3   OH211786   1.527   2.697   4.718  0.5746  0.3700  0.6237
 3941TIP3    H111787   1.550   2.696   4.811 -0.9498 -1.8619  1.0547
 3941TIP3    H211788   1.446   2.646   4.713  0.6224  0.4386 -1.9424
 3942TIP3   OH211789   5.956   3.698   4.498  0.0467  0.0913  0.1080
 3942TIP3    H111790   5.944   3.713   4.592  0.9177 -0.9216  0.3950
 3942TIP3    H211791   5.911   3.771   4.456 -1.2622  0.0090  1.2867
 3943TIP3   OH211792   5.165   0.207   4.781 -0.2666  0.2648  0.3785
 3943TIP3    H111793   5.248   0.167   4.756 -0.2731 -0.5937  1.6388
 3943TIP3    H211794   5.116   0.215   4.699  0.5113 -0.5186 -0.1757
 3944TIP3   OH211795   0.455   2.053   5.390  0.0283 -0.1103  0.8286
 3944TIP3    H111796   0.534   2.094   5.427  0.8021 -1.1195  0.3494
 3944TIP3    H211797   0.475   2.044   5.296 -0.3904 -0.9742  0.8200
 3945TIP3   OH211798   4.775   2.533   5.183  0.0793  0.0865  0.0230
 3945TIP3    H111799   4.782   2.445   5.146  0.0509  0.2582 -0.3990
 3945TIP3    H211800   4.700   2.530   5.242 -0.5265  0.0902 -0.7416
 3946TIP3   OH211801   4.835   4.602   4.144 -0.1533  0.1355  0.2125
 3946TIP3    H111802   4.794   4.619   4.228 -0.2871  1.0049 -0.0158
 3946TIP3    H211803   4.913   4.550   4.165 -0.4180 -0.0196  0.8237
 3947TIP3   OH211804   3.542   2.647   1.310 -0.1121  0.2569 -0.7320
 3947TIP3    H111805   3.518   2.609   1.395 -1.7822 -0.0479 -1.3079
 3947TIP3    H211806   3.630   2.682   1.324  0.4264 -1.4637  0.5790
 3948TIP3   OH211807   5.818   2.492   5.668  0.9399  0.4881  0.1960
 3948TIP3    H111808   5.758   2.427   5.633  1.6587  1.7870 -4.0861
 3948TIP3    H211809   5.762   2.554   5.715 -0.8276  0.4990 -1.7822
 3949TIP3   OH211810   4.998   1.459   2.476  0.4119  0.0432 -0.0544
 3949TIP3    H111811   4.946   1.379   2.474  0.1426  0.2222 -1.2151
 3949TIP3    H211812   5.088   1.429   2.463  0.3025 -0.0750 -0.5687
 3950TIP3   OH211813   1.790   1.918   4.204  0.7915  0.3676 -0.6140
 3950TIP3    H111814   1.706   1.913   4.248  1.7341 -1.2749  1.1678
 3950TIP3    H211815   1.770   1.951   4.116 -1.7136 -0.3036 -0.3611
 3951TIP3   OH211816   3.767   3.488   5.727 -0.1421 -0.0872  0.2928
 3951TIP3    H111817   3.810   3.572   5.712 -2.1400  1.0115  0.3361
 3951TIP3    H211818   3.753   3.484   5.821 -0.3569 -0.3172  0.2541
 3952TIP3   OH211819   2.538   3.961   3.210 -0.4858 -0.3574  0.1426
 3952TIP3    H111820   2.566   3.999   3.127 -3.2128 -0.7046 -1.0767
 3952TIP3    H211821   2.619   3.945   3.259  1.2141  0.0039 -2.3809
 3953TIP3   OH211822   0.674   0.595   1.341 -0.5970 -0.3426  0.6589
 3953TIP3    H111823   0.699   0.672   1.291 -0.3083 -0.3401  0.8061
 3953TIP3    H211824   0.724   0.523   1.303  0.9600 -0.0506  2.0314
 3954TIP3   OH211825   5.672   2.717   2.631 -0.0060 -0.3060 -0.1386
 3954TIP3    H111826   5.654   2.768   2.711 -0.0177  0.5818 -0.6934
 3954TIP3    H211827   5.662   2.626   2.658  0.6394 -0.0491  1.0372
 3955TIP3   OH211828   1.972   3.250   5.241  0.4028 -0.0449 -0.2021
 3955TIP3    H111829   1.975   3.198   5.322  2.6791  2.0779  1.2332
 3955TIP3    H211830   2.045   3.216   5.189 -1.0395 -1.3863 -1.4623
 3956TIP3   OH211831   2.891   0.539   4.851 -0.3301 -0.2393  0.0265
 3956TIP3    H111832   2.950   0.470   4.819 -0.3968 -1.0103  1.5156
 3956TIP3    H211833   2.905   0.611   4.789  0.5661 -1.1729 -0.9212
 3957TIP3   OH211834   3.885   5.499   5.182 -0.3524 -0.1321  0.3217
 3957TIP3    H111835   3.852   5.589   5.183 -0.7573 -0.2822  1.4962
 3957TIP3    H211836   3.959   5.501   5.242  1.5777  0.0882 -1.8965
 3958TIP3   OH211837   5.202   4.404   4.455  0.2435 -0.2855  0.0492
 3958TIP3    H111838   5.155   4.361   4.527  2.5282 -0.9520  1.2746
 3958TIP3    H211839   5.247   4.478   4.497  2.3315 -1.2038 -0.4500
 3959TIP3   OH211840   6.125   1.722   4.432  0.1636 -0.5080 -0.0079
 3959TIP3    H111841   6.192   1.774   4.478  1.3622 -2.2209  0.2743
 3959TIP3    H211842   6.042   1.751   4.470  0.9706 -0.4001  1.7799
 3960TIP3   OH211843   1.181   6.328   3.346  0.0324 -0.5907 -0.2067
 3960TIP3    H111844   1.144   6.371   3.423 -0.8272 -2.4333  0.4737
 3960TIP3    H211845   1.271   6.362   3.340 -0.7710  1.7187 -0.1125
 3961TIP3   OH211846   0.209   0.493   5.583 -0.2875  0.0341 -0.1817
 3961TIP3    H111847   0.128   0.447   5.606 -0.4088  0.2230 -0.2226
 3961TIP3    H211848   0.207   0.498   5.487 -0.3951  0.3342 -0.1658
 3962TIP3   OH211849   5.873   1.498   3.261  0.4420 -0.5523 -0.5836
 3962TIP3    H111850   5.813   1.551   3.208 -0.8558  0.3950  1.6765
 3962TIP3    H211851   5.955   1.547   3.261  0.1307 -0.0225 -0.8831
 3963TIP3   OH211852   5.263   1.911   5.258 -0.4916 -0.0821  0.1185
 3963TIP3    H111853   5.309   1.983   5.215 -0.9444  0.3001  0.2685
 3963TIP3    H211854   5.186   1.952   5.297 -1.1452 -0.7826 -0.4244
 3964TIP3   OH211855   7.100   0.033   3.723 -0.1070  0.1547 -0.0196
 3964TIP3    H111856   7.088  -0.029   3.795 -0.1695 -0.2793 -0.4008
 3964TIP3    H211857   7.194   0.032   3.706  0.2120  1.7200  1.3341
 3965TIP3   OH211858   2.397   2.855   4.945  0.2314  0.3091  0.8848
 3965TIP3    H111859   2.328   2.888   4.888  2.1915  0.9072 -1.2972
 3965TIP3    H211860   2.384   2.761   4.947  0.5173  0.1804 -1.2298
 3966TIP3   OH211861   6.547   0.296   1.613 -0.7956 -0.1234  0.4282
 3966TIP3    H111862   6.634   0.267   1.641  0.5259  1.8477 -1.3048
 3966TIP3    H211863   6.534   0.253   1.528 -0.6980  0.9621 -0.1512
 3967TIP3   OH211864   5.748   6.069   0.268 -0.0369 -0.8083  0.4033
 3967TIP3    H111865   5.797   5.993   0.300  0.4074 -1.2807 -1.2772
 3967TIP3    H211866   5.814   6.126   0.229 -0.6160 -0.6294 -0.3434
 3968TIP3   OH211867   5.103   6.013   2.205 -0.0347 -0.2921  0.1539
 3968TIP3    H111868   5.143   5.944   2.258 -1.5465 -0.4466  1.1465
 3968TIP3    H211869   5.015   6.022   2.240 -0.0614  1.7699 -0.3186
 3969TIP3   OH211870   3.488   2.730   2.859 -0.1845  0.6622 -0.2850
 3969TIP3    H111871   3.496   2.807   2.802  1.4007  0.0185 -0.9716
 3969TIP3    H211872   3.464   2.659   2.800  0.3705  0.2234  0.0074
 3970TIP3   OH211873   4.215   3.449   3.399  0.3186 -0.0286  0.1243
 3970TIP3    H111874   4.245   3.371   3.444 -1.8984 -0.7570  0.4788
 3970TIP3    H211875   4.284   3.514   3.414  3.2204 -2.3879 -1.8542
 3971TIP3   OH211876   3.510   0.493   5.444  0.2257  0.1672 -0.2286
 3971TIP3    H111877   3.421   0.463   5.461  0.6119 -0.4026  0.8699
 3971TIP3    H211878   3.499   0.569   5.386 -0.8888 -0.6391 -1.1096
 3972TIP3   OH211879   2.119   3.084   5.078  0.2494  0.5076 -0.2096
 3972TIP3    H111880   2.058   3.010   5.081 -0.1528  0.7552 -1.4365
 3972TIP3    H211881   2.202   3.048   5.108 -0.1628 -0.1952  0.1343
 3973TIP3   OH211882   2.927   0.158   5.742 -0.3280  0.3941  0.5306
 3973TIP3    H111883   2.868   0.110   5.801 -0.2975  0.3432  0.5199
 3973TIP3    H211884   2.986   0.206   5.801 -0.7206  0.8699  0.5428
 3974TIP3   OH211885   6.577   5.752   5.126  0.3275  0.4314  0.6517
 3974TIP3    H111886   6.541   5.817   5.186 -2.2826  0.4830 -0.8058
 3974TIP3    H211887   6.546   5.780   5.040  0.2338 -2.0283 -0.1766
 3975TIP3   OH211888   5.634   4.547   4.301  0.8440  0.0920 -0.1404
 3975TIP3    H111889   5.694   4.489   4.253  0.3538 -0.2867 -0.2984
 3975TIP3    H211890   5.611   4.616   4.238 -2.2927 -2.0717 -1.6176
 3976TIP3   OH211891   2.371   4.808   3.156  0.1697 -0.1454 -0.5916
 3976TIP3    H111892   2.300   4.778   3.213 -0.6490  0.7259 -1.1049
 3976TIP3    H211893   2.338   4.792   3.067 -0.4981  2.5362 -0.9154
 3977TIP3   OH211894   7.106   0.426   5.627  0.6431 -0.5993  0.1203
 3977TIP3    H111895   7.083   0.421   5.720 -1.0899 -1.3666 -0.2979
 3977TIP3    H211896   7.100   0.336   5.596 -1.4061 -0.0826 -1.2505
 3978TIP3   OH211897   4.513   6.215   0.036  0.1062  0.3922  0.6569
 3978TIP3    H111898   4.491   6.145   0.097 -0.4066  0.4370  0.5272
 3978TIP3    H211899   4.608   6.224   0.043  0.0256  0.5657  1.6190
 3979TIP3   OH211900   5.834   1.791   3.040 -0.0061 -0.0985 -0.0369
 3979TIP3    H111901   5.884   1.790   2.958  0.4084 -1.9858  0.1774
 3979TIP3    H211902   5.748   1.824   3.015  1.1961  3.1062 -0.4407
 3980TIP3   OH211903   2.263   4.617   5.308  0.4911  0.1794 -0.0552
 3980TIP3    H111904   2.357   4.607   5.293  0.5355  2.4164 -1.7348
 3980TIP3    H211905   2.223   4.587   5.226 -0.3643 -1.4313  0.8980
 3981TIP3   OH211906   4.779   0.215   3.499  0.3795 -0.1193 -0.0796
 3981TIP3    H111907   4.804   0.231   3.590  0.6327  1.4214 -0.3994
 3981TIP3    H211908   4.683   0.220   3.500  0.4003  0.3023  0.0369
 3982TIP3   OH211909   5.679   5.607   0.852  0.5346 -0.2450 -0.4070
 3982TIP3    H111910   5.653   5.696   0.875  0.8822  0.1511 -1.5185
 3982TIP3    H211911   5.596   5.561   0.835  0.3885  0.0315 -0.4421
 3983TIP3   OH211912   1.004   3.863   0.372  0.0427 -0.1457 -0.1997
 3983TIP3    H111913   1.044   3.837   0.289  2.6998  2.4367  0.0793
 3983TIP3    H211914   0.948   3.937   0.348 -0.0644 -0.1082  0.1706
 3984TIP3   OH211915   6.866   6.462   4.742 -0.1288 -0.0460  0.0247
 3984TIP3    H111916   6.871   6.541   4.796 -0.5539  0.2641 -0.3790
 3984TIP3    H211917   6.956   6.445   4.715 -0.1297  0.7961 -0.5762
 3985TIP3   OH211918   6.844   1.665   4.133  0.1845 -0.1023 -0.0734
 3985TIP3    H111919   6.800   1.705   4.208  0.4679  2.2078 -1.0475
 3985TIP3    H211920   6.930   1.708   4.130  0.0648  0.0780 -1.8678
 3986TIP3   OH211921   2.096   5.415   4.451 -0.3436  0.7821  0.3700
 3986TIP3    H111922   2.150   5.380   4.380  0.3601  0.0944  1.2078
 3986TIP3    H211923   2.006   5.402   4.422 -0.0630  0.8287 -0.5351
 3987TIP3   OH211924   4.683   6.067   2.688 -0.0450  0.2979 -0.3679
 3987TIP3    H111925   4.609   6.038   2.635 -0.3870  1.0367 -0.3089
 3987TIP3    H211926   4.699   6.158   2.660 -0.0561  0.6092  0.5978
 3988TIP3   OH211927   6.881   6.296   4.209  0.0252  0.4453  0.3778
 3988TIP3    H111928   6.846   6.208   4.225 -0.0068  0.3646 -0.1134
 3988TIP3    H211929   6.950   6.307   4.274 -0.9398  0.6292  1.4140
 3989TIP3   OH211930   0.553   4.580   5.357 -0.1307 -0.2107 -0.0737
 3989TIP3    H111931   0.587   4.574   5.267  0.9056  0.5328  0.2415
 3989TIP3    H211932   0.489   4.509   5.363  2.2635 -2.5591 -0.3329
 3990TIP3   OH211933   4.199   0.568   2.305 -0.4445 -0.5905 -0.6621
 3990TIP3    H111934   4.195   0.548   2.212 -0.8829  1.1331 -1.0457
 3990TIP3    H211935   4.195   0.664   2.310  2.1864 -0.4450  0.9820
 3991TIP3   OH211936   2.784   6.063   5.575 -0.3366  0.8328  0.0532
 3991TIP3    H111937   2.811   5.999   5.641  0.6691  0.9390 -0.2341
 3991TIP3    H211938   2.700   6.030   5.543 -0.4916  0.3970  0.8693
 3992TIP3   OH211939   4.658   2.086   1.508 -0.0428  0.2666  0.1669
 3992TIP3    H111940   4.751   2.075   1.526 -0.2201 -1.1729  0.2990
 3992TIP3    H211941   4.629   2.150   1.573  0.2609 -1.5200  2.1882
 3993TIP3   OH211942   2.068   5.334   1.949  0.9432  0.3943 -0.0920
 3993TIP3    H111943   2.097   5.317   1.859  0.6205 -0.2858 -0.0759
 3993TIP3    H211944   2.067   5.248   1.990 -0.4283  0.4788  0.0988
 3994TIP3   OH211945   0.078   0.211   4.190 -0.5227  0.3257  0.5855
 3994TIP3    H111946   0.037   0.286   4.233 -0.9734  0.7610 -0.5682
 3994TIP3    H211947   0.014   0.141   4.199 -1.7759  1.1034 -1.5348
 3995TIP3   OH211948   2.672   3.146   0.741 -0.2084  0.0166  1.0255
 3995TIP3    H111949   2.604   3.123   0.804  0.2172  0.6053  1.7162
 3995TIP3    H211950   2.725   3.213   0.785 -0.5135  1.2230 -0.3488
 3996TIP3   OH211951   5.691   1.175   1.208  0.1975  0.2741  0.2954
 3996TIP3    H111952   5.735   1.108   1.157  1.2850  0.7393  0.6039
 3996TIP3    H211953   5.760   1.215   1.260 -0.2043  2.4703 -0.7748
 3997TIP3   OH211954   6.196   1.614   0.838 -0.6901  0.0308 -0.1034
 3997TIP3    H111955   6.269   1.556   0.857  0.0201  0.7905 -0.4496
 3997TIP3    H211956   6.182   1.662   0.920 -1.2175 -0.5526  0.1544
 3998TIP3   OH211957   3.461   0.282   3.776  0.0987  0.7443 -0.3699
 3998TIP3    H111958   3.383   0.240   3.740  0.1642 -0.2468  0.5889
 3998TIP3    H211959   3.428   0.361   3.820 -0.5949 -0.4329  1.3178
 3999TIP3   OH211960   3.653   6.466   4.477  0.6446 -0.0182 -0.2615
 3999TIP3    H111961   3.650   6.526   4.402  1.9922  0.2363 -0.1458
 3999TIP3    H211962   3.605   6.388   4.448  0.9031  0.1903 -1.2836
 4000TIP3   OH211963   1.099   6.254   0.065  0.0273 -0.4943 -0.7510
 4000TIP3    H111964   1.188   6.282   0.086 -0.2873 -0.6241  0.9257
 4000TIP3    H211965   1.057   6.242   0.150 -1.4131 -1.0391 -1.4986
 4001TIP3   OH211966   1.319   6.079   0.982  0.0546  0.6659  0.5261
 4001TIP3    H111967   1.230   6.068   1.015 -0.8226  0.0142 -1.8382
 4001TIP3    H211968   1.348   6.162   1.018 -1.5182  0.8985  1.3552
 4002TIP3   OH211969   5.862   1.017   1.534 -0.3687 -0.1959 -0.0066
 4002TIP3    H111970   5.796   1.009   1.603 -1.0753  2.4622 -0.2707
 4002TIP3    H211971   5.848   1.104   1.498  1.1324 -0.8508 -2.3578
 4003TIP3   OH211972   4.032   4.108   5.361 -0.0391  0.1899 -0.4065
 4003TIP3    H111973   3.990   4.165   5.425 -0.1290 -0.1222 -0.1805
 4003TIP3    H211974   4.124   4.134   5.362 -0.0836  0.3460 -0.3260
 4004TIP3   OH211975   1.072   2.118   3.066 -0.1060 -0.1447  0.6515
 4004TIP3    H111976   1.081   2.176   2.991 -1.5330 -1.5008 -0.6486
 4004TIP3    H211977   1.112   2.165   3.138  0.2887  1.7024 -0.7094
 4005TIP3   OH211978   4.201   4.182   3.641 -0.5648  0.0713 -0.1668
 4005TIP3    H111979   4.263   4.137   3.584 -1.9621 -1.1626 -0.7732
 4005TIP3    H211980   4.130   4.210   3.583 -1.8233 -0.8460  0.8661
 4006TIP3   OH211981   6.892   0.655   5.842 -0.1719 -0.3672  0.2075
 4006TIP3    H111982   6.886   0.682   5.933  0.9768 -0.2645  0.2717
 4006TIP3    H211983   6.820   0.700   5.798 -0.9200 -0.6614  1.1075
 4007TIP3   OH211984   0.700   4.576   5.129  0.1980 -0.0440  0.0601
 4007TIP3    H111985   0.778   4.596   5.181  0.3328  0.1103 -0.1978
 4007TIP3    H211986   0.735   4.546   5.045 -0.0199  0.6211 -0.2765
 4008TIP3   OH211987   3.844   1.771   0.941  0.1354  0.4439 -0.1539
 4008TIP3    H111988   3.866   1.679   0.957  2.1848  0.4810 -2.2173
 4008TIP3    H211989   3.809   1.772   0.852 -1.2731  1.5008  0.3789
 4009TIP3   OH211990   6.697   5.969   1.203 -0.4527  0.3427  0.0510
 4009TIP3    H111991   6.719   5.876   1.211 -1.6638  0.1003  0.8632
 4009TIP3    H211992   6.729   6.008   1.285  2.4900  1.2178 -1.3831
 4010TIP3   OH211993   0.395   3.904   3.982  0.1659 -0.3745 -0.0212
 4010TIP3    H111994   0.405   3.944   4.068  0.5793  2.2346 -1.1677
 4010TIP3    H211995   0.300   3.894   3.971  0.1500 -2.0472  1.2171
 4011TIP3   OH211996   6.008   3.834   0.529 -0.2568 -0.2682 -0.5582
 4011TIP3    H111997   6.000   3.774   0.603  0.1602 -0.4833 -0.6858
 4011TIP3    H211998   5.921   3.875   0.521 -1.1663 -2.2599 -1.6748
 4012TIP3   OH211999   5.517   5.814   0.828 -0.5342  0.0235 -0.1130
 4012TIP3    H112000   5.521   5.881   0.759  1.3266 -0.1035 -0.1907
 4012TIP3    H212001   5.431   5.775   0.819 -0.7177  0.7126 -1.7024
 4013TIP3   OH212002   1.360   4.015   3.640 -0.4390 -0.7352 -0.2603
 4013TIP3    H112003   1.272   4.031   3.674  0.3951  0.7043  1.3372
 4013TIP3    H212004   1.381   3.926   3.670 -0.0960  0.1444  2.3336
 4014TIP3   OH212005   7.182   4.005   0.982  0.2020  0.1716  0.3517
 4014TIP3    H112006   7.154   3.918   1.011 -0.4915  0.4124  0.4285
 4014TIP3    H212007   7.238   3.988   0.906 -0.5636 -0.3116 -0.1237
 4015TIP3   OH212008   2.540   1.793   2.449  0.0084 -0.0312 -0.3678
 4015TIP3    H112009   2.498   1.755   2.526  0.9403  0.9234  0.6422
 4015TIP3    H212010   2.605   1.728   2.423  0.5689  0.1835  0.4451
 4016TIP3   OH212011   2.971   4.014   2.089 -0.3140 -0.1465 -0.7024
 4016TIP3    H112012   2.953   4.081   2.155 -0.2247 -1.1650  0.3911
 4016TIP3    H212013   3.016   3.945   2.137 -0.5489 -1.0659 -1.7667
 4017TIP3   OH212014   3.115   3.431   1.166  0.1884 -0.2594  0.7566
 4017TIP3    H112015   3.086   3.379   1.090  0.3944 -1.0630  1.2123
 4017TIP3    H212016   3.039   3.430   1.225  0.6233 -1.1654  1.3316
 4018TIP3   OH212017   6.554   5.183   1.994 -0.0994  0.0970 -0.2344
 4018TIP3    H112018   6.483   5.149   1.940  0.4625 -1.5624  0.0295
 4018TIP3    H212019   6.567   5.117   2.062  0.1087  1.4949  1.1643
 4019TIP3   OH212020   2.998   1.952   5.661  0.0290 -0.0459  0.2021
 4019TIP3    H112021   2.937   1.909   5.721  0.2001 -0.7236 -0.1094
 4019TIP3    H212022   3.072   1.978   5.716  0.0131 -0.3183  0.3511
 4020TIP3   OH212023   4.073   1.866   3.983  0.0693 -0.6349 -0.4919
 4020TIP3    H112024   4.050   1.906   4.067 -2.0827  0.5502 -1.5537
 4020TIP3    H212025   4.107   1.939   3.931  0.6835 -1.2053 -0.9060
 4021TIP3   OH212026   3.728   0.962   1.113  0.3408  0.0915  0.0280
 4021TIP3    H112027   3.672   1.027   1.157 -0.2501  0.7704 -1.6356
 4021TIP3    H212028   3.796   1.014   1.071 -0.6533 -0.1984 -2.0965
 4022TIP3   OH212029   2.233   3.189   3.398  0.3767 -0.0137 -0.1111
 4022TIP3    H112030   2.302   3.173   3.462 -0.0528  0.7801  0.5666
 4022TIP3    H212031   2.247   3.279   3.369  1.0791 -0.6185 -1.7990
 4023TIP3   OH212032   6.468   1.757   3.941 -0.8475  0.3968  0.4552
 4023TIP3    H112033   6.382   1.792   3.966 -1.4125  0.7850 -1.7418
 4023TIP3    H212034   6.453   1.663   3.930 -0.6066  0.2317  1.4967
 4024TIP3   OH212035   2.461   1.330   3.721 -0.6595  0.0789 -0.1413
 4024TIP3    H112036   2.396   1.273   3.763  0.1965 -2.5050 -2.0802
 4024TIP3    H212037   2.409   1.387   3.665 -1.4117 -0.5158 -0.0762
 4025TIP3   OH212038   3.962   0.154   5.565  0.0031  0.0952 -0.0791
 4025TIP3    H112039   4.033   0.106   5.523  1.0737  0.4439  1.2783
 4025TIP3    H212040   3.999   0.240   5.585 -1.9669  1.7378 -2.7303
 4026TIP3   OH212041   3.568   3.938   5.876 -0.5569  0.1992  0.0784
 4026TIP3    H112042   3.479   3.932   5.841 -0.2041  1.5844 -1.1377
 4026TIP3    H212043   3.618   3.877   5.822 -0.5653  0.2128  0.0551
 4027TIP3   OH212044   0.066   1.552   0.019 -0.0944 -0.4450 -0.3544
 4027TIP3    H112045   0.074   1.579   0.111  0.4757 -0.7473 -0.3107
 4027TIP3    H212046  -0.021   1.583  -0.007  0.9453  2.6070 -0.6982
 4028TIP3   OH212047   3.352   0.056   5.029  0.4699  0.2993 -0.1924
 4028TIP3    H112048   3.262   0.051   4.998  0.2932 -0.3241  0.3900
 4028TIP3    H212049   3.387  -0.033   5.014  0.8969  0.4575 -0.1481
 4029TIP3   OH212050   1.265   4.224   0.338  0.2626  0.3906  0.6218
 4029TIP3    H112051   1.245   4.155   0.400 -0.2917 -0.5244 -0.5390
 4029TIP3    H212052   1.347   4.262   0.370 -0.2279  0.2511  2.1383
 4030TIP3   OH212053   3.182   1.413   1.986  0.1032 -1.0006  0.2135
 4030TIP3    H112054   3.091   1.417   2.015 -0.1681  1.2537 -0.6985
 4030TIP3    H212055   3.183   1.461   1.903  2.5010  1.2617  1.3802
 4031TIP3   OH212056   2.427   5.130   4.452  0.5040  0.6979 -0.1286
 4031TIP3    H112057   2.402   5.080   4.530 -0.6706  1.1741 -0.1753
 4031TIP3    H212058   2.377   5.090   4.381  2.2645 -0.3368 -0.8466
 4032TIP3   OH212059   0.713   1.806   5.135  0.8297 -0.3257  0.1022
 4032TIP3    H112060   0.700   1.717   5.168  1.7922 -1.1799 -1.6720
 4032TIP3    H212061   0.626   1.837   5.112  0.4818 -0.7650  0.7955
 4033TIP3   OH212062   6.620   1.469   5.366  0.0309  0.2123 -0.4448
 4033TIP3    H112063   6.660   1.521   5.297  1.9560 -1.7146 -0.8811
 4033TIP3    H212064   6.598   1.386   5.325 -0.1412 -0.4463  0.9038
 4034TIP3   OH212065   4.437   0.272   3.823  0.5179 -0.1641 -0.5180
 4034TIP3    H112066   4.453   0.263   3.729 -0.7491 -2.6241 -0.6073
 4034TIP3    H212067   4.342   0.283   3.830  0.2074 -2.6225  0.4705
 4035TIP3   OH212068   2.733   2.485   3.986 -0.2074 -0.7217 -0.1789
 4035TIP3    H112069   2.702   2.403   4.026  0.8456 -1.1200 -0.1511
 4035TIP3    H212070   2.653   2.528   3.956 -0.8753 -1.2418  0.7855
 4036TIP3   OH212071   3.483   3.154   4.341  0.1496 -0.1529 -0.5195
 4036TIP3    H112072   3.413   3.160   4.277  0.4060  0.7133 -0.7292
 4036TIP3    H212073   3.438   3.152   4.426 -0.0975  2.4113 -0.5385
 4037TIP3   OH212074   3.244   0.910   2.237 -0.4172  0.0817 -0.4022
 4037TIP3    H112075   3.248   0.982   2.174  0.2883  1.1972  0.8732
 4037TIP3    H212076   3.271   0.833   2.187  2.1637  1.2698 -1.0048
 4038TIP3   OH212077   1.178   3.279   0.885 -0.3907  0.0509 -0.1167
 4038TIP3    H112078   1.262   3.236   0.871 -0.3697  0.3201 -0.8437
 4038TIP3    H212079   1.190   3.328   0.966  0.1798  0.1414 -0.2511
 4039TIP3   OH212080  -0.028   2.096   1.944  0.5699  0.6641  0.0695
 4039TIP3    H112081  -0.031   2.191   1.947 -0.9272  0.6261  3.0069
 4039TIP3    H212082   0.060   2.073   1.975  0.9064  1.0409 -0.5791
 4040TIP3   OH212083   0.625   1.696   4.683  0.6844  0.1056 -0.5792
 4040TIP3    H112084   0.559   1.682   4.751  0.8763  0.8894 -0.2208
 4040TIP3    H212085   0.707   1.706   4.730  0.3583  4.3977 -0.4917
 4041TIP3   OH212086   2.711   0.591   2.969  0.4158 -0.1882  0.1692
 4041TIP3    H112087   2.651   0.664   2.955  2.6056  1.5935 -0.4992
 4041TIP3    H212088   2.705   0.574   3.063 -0.0607  0.9154  0.3565
 4042TIP3   OH212089   3.521   4.365   1.015  0.3251 -0.4553  0.5274
 4042TIP3    H112090   3.550   4.436   0.958 -0.5729 -0.1224  0.4786
 4042TIP3    H212091   3.526   4.402   1.103 -1.3717  0.1127  0.4051
 4043TIP3   OH212092   4.790   6.480   0.546  0.1000  0.1993 -0.6142
 4043TIP3    H112093   4.851   6.419   0.587 -1.3282 -1.1470 -0.4185
 4043TIP3    H212094   4.703   6.445   0.566 -0.7334  1.7068 -1.4247
 4044TIP3   OH212095   6.165   2.579   0.388  0.4846 -0.2596  0.0946
 4044TIP3    H112096   6.092   2.619   0.435  0.3849 -0.1898 -0.1177
 4044TIP3    H212097   6.210   2.526   0.454  2.1938  2.2306  1.0608
 4045TIP3   OH212098   1.081   5.188   0.078  0.3020 -0.2462  0.3131
 4045TIP3    H112099   1.134   5.128   0.025  0.8131  0.1061  0.4084
 4045TIP3    H212100   1.136   5.266   0.087 -0.6657  0.5630 -0.5023
 4046TIP3   OH212101   1.826   6.017   5.255 -0.1220 -0.5335  0.5639
 4046TIP3    H112102   1.837   5.966   5.335  0.5866  0.8942  1.4076
 4046TIP3    H212103   1.737   5.998   5.226 -0.5981 -0.6070  2.0214
 4047TIP3   OH212104   3.618   2.368   4.560  0.3475  0.0378 -0.2007
 4047TIP3    H112105   3.551   2.423   4.520  0.6258 -0.4353 -1.3608
 4047TIP3    H212106   3.601   2.280   4.525  0.9811 -0.2666  0.2335
 4048TIP3   OH212107   0.334   2.529   1.260  0.0761  0.3173  0.3415
 4048TIP3    H112108   0.341   2.590   1.334  1.8630  0.6866 -0.0883
 4048TIP3    H212109   0.241   2.529   1.239 -0.0084  3.0444  0.2542
 4049TIP3   OH212110   2.634   4.511   1.779  0.1037  0.1476 -0.0085
 4049TIP3    H112111   2.593   4.556   1.853 -0.8455  2.0338 -1.6016
 4049TIP3    H212112   2.561   4.479   1.727  0.6630  1.1450 -1.4667
 4050TIP3   OH212113   7.102   0.363   0.482 -0.4058  0.0544 -0.1388
 4050TIP3    H112114   7.098   0.356   0.386 -0.1676  0.4345 -0.1773
 4050TIP3    H212115   7.151   0.443   0.498 -0.1085 -0.2116  0.3023
 4051TIP3   OH212116   3.029   2.483   3.268  0.2640 -0.0633  0.5165
 4051TIP3    H112117   3.089   2.525   3.329  1.9915  0.1490 -1.2194
 4051TIP3    H212118   3.044   2.389   3.281  1.0409 -0.0123  0.0815
 4052TIP3   OH212119   4.154   0.265   3.886 -0.8356  0.7382  0.3356
 4052TIP3    H112120   4.116   0.350   3.909 -1.3440  1.1950 -1.9694
 4052TIP3    H212121   4.156   0.217   3.968 -3.1686  1.9611  1.1950
 4053TIP3   OH212122   5.294   0.638   4.017 -0.0833 -0.1219 -0.2917
 4053TIP3    H112123   5.345   0.655   3.938 -2.1047 -0.2275 -1.6814
 4053TIP3    H212124   5.264   0.725   4.045 -0.5991 -0.2184 -0.5266
 4054TIP3   OH212125   2.665   0.789   5.237  0.6196 -0.0164  0.0141
 4054TIP3    H112126   2.739   0.765   5.293 -0.6425 -2.8294  0.6535
 4054TIP3    H212127   2.603   0.831   5.296  1.4175  1.9002 -0.4293
 4055TIP3   OH212128   1.051   2.755   5.190  0.2145  0.2383  0.3729
 4055TIP3    H112129   1.010   2.672   5.165 -0.9455  0.2950  1.9751
 4055TIP3    H212130   1.078   2.742   5.281 -0.3558  1.7324  0.7811
 4056TIP3   OH212131   3.536   2.773   4.690 -0.5663  0.1092 -0.1550
 4056TIP3    H112132   3.459   2.830   4.689 -1.4654 -0.9441 -3.3072
 4056TIP3    H212133   3.537   2.735   4.778 -1.7433  2.5149  1.0040
 4057TIP3   OH212134   6.956   5.598   0.364 -0.2251  0.0398 -0.4458
 4057TIP3    H112135   6.865   5.593   0.334 -0.1022  2.5221 -1.5439
 4057TIP3    H212136   7.001   5.647   0.294  1.8779 -0.7924  0.2507
 4058TIP3   OH212137   5.119   5.283   5.448 -0.1528 -0.6007  0.5466
 4058TIP3    H112138   5.133   5.356   5.508  1.0604 -0.6120  0.2964
 4058TIP3    H212139   5.034   5.302   5.407  0.0359  0.5555  0.6599
 4059TIP3   OH212140   5.560   1.233   0.290  0.2693  0.0641  0.5008
 4059TIP3    H112141   5.530   1.224   0.199  2.0214 -1.6553  0.0236
 4059TIP3    H212142   5.486   1.203   0.343 -0.1131 -0.7307 -0.4550
 4060TIP3   OH212143   1.979   4.483   1.177  0.3534 -0.2400 -0.0864
 4060TIP3    H112144   1.912   4.531   1.129  0.1258 -0.7922 -0.3303
 4060TIP3    H212145   1.946   4.476   1.266  0.4160  0.1062 -0.0360
 4061TIP3   OH212146   3.692   2.649   3.661 -0.2615 -0.2861  0.1728
 4061TIP3    H112147   3.722   2.669   3.750  1.3320  1.8204 -0.7548
 4061TIP3    H212148   3.626   2.581   3.673 -0.8582  0.6565  3.0556
 4062TIP3   OH212149   4.431   0.033   2.737 -0.3116  0.2906  0.4919
 4062TIP3    H112150   4.479   0.079   2.806 -3.1356  4.1584  0.1558
 4062TIP3    H212151   4.414  -0.054   2.774  1.4847  0.9199  3.0701
 4063TIP3   OH212152   0.165   0.517   4.219 -0.1211 -0.4611  0.4058
 4063TIP3    H112153   0.201   0.490   4.134  0.5236 -2.1033  1.1625
 4063TIP3    H212154   0.071   0.496   4.212 -0.4696  1.1877 -0.5404
 4064TIP3   OH212155   1.087   0.275   2.589  0.2699  0.1605  0.0975
 4064TIP3    H112156   1.122   0.260   2.677 -0.7845 -3.2961  0.0894
 4064TIP3    H212157   1.026   0.347   2.600  0.2387 -0.1093  2.2070
 4065TIP3   OH212158   4.267   3.091   5.281 -0.4187  0.2471 -0.0129
 4065TIP3    H112159   4.362   3.081   5.269 -0.2903  0.5503  0.6960
 4065TIP3    H212160   4.251   3.184   5.270 -0.5471  0.2788  0.3999
 4066TIP3   OH212161   4.570   5.822   1.050 -0.5288 -0.3902  0.0778
 4066TIP3    H112162   4.517   5.836   1.128 -0.2827 -0.7783  0.3178
 4066TIP3    H212163   4.549   5.733   1.022 -2.5402  0.5802 -1.7829
 4067TIP3   OH212164   6.676   2.347   3.042 -0.1524 -0.2114  0.4876
 4067TIP3    H112165   6.684   2.253   3.055  0.1833 -0.1711  0.5573
 4067TIP3    H212166   6.601   2.356   2.983  0.5082 -0.5833 -0.4292
 4068TIP3   OH212167   3.187   4.969   4.564  0.4752 -0.3361 -0.0731
 4068TIP3    H112168   3.107   4.947   4.612 -0.4606 -0.4343 -1.6210
 4068TIP3    H212169   3.256   4.922   4.611 -0.6623 -1.8734  0.1403
 4069TIP3   OH212170   2.840   2.468   5.185  0.2308  0.1321 -0.6243
 4069TIP3    H112171   2.934   2.450   5.189 -0.2747 -3.0041  3.1996
 4069TIP3    H212172   2.802   2.392   5.141 -0.6180  1.2195 -1.8532
 4070TIP3   OH212173   0.485   6.008   2.096  0.3579 -0.6421  0.1464
 4070TIP3    H112174   0.565   6.032   2.143  0.7379  0.2268 -0.8948
 4070TIP3    H212175   0.510   6.011   2.003 -1.4891  2.2419 -0.3803
 4071TIP3   OH212176   0.408   5.343   5.207 -0.1017  0.1388  0.1893
 4071TIP3    H112177   0.350   5.269   5.189  1.0677 -0.4543 -1.4382
 4071TIP3    H212178   0.479   5.306   5.261 -0.3346  0.4528  0.7153
 4072TIP3   OH212179   6.413   1.464   0.083  0.7669  0.1941 -0.5530
 4072TIP3    H112180   6.466   1.388   0.060 -1.0527 -0.7779 -1.7969
 4072TIP3    H212181   6.351   1.473   0.011 -0.4726  1.5480  0.6121
 4073TIP3   OH212182   4.041   3.323   1.810  0.3680  0.2220 -0.2056
 4073TIP3    H112183   4.079   3.299   1.895 -0.9597 -2.7178 -0.3175
 4073TIP3    H212184   3.946   3.325   1.826  0.0618 -0.8243 -1.6435
 4074TIP3   OH212185   0.534   3.717   2.552  0.4703 -0.0456 -0.1014
 4074TIP3    H112186   0.586   3.695   2.475 -0.8767  1.6021 -1.5694
 4074TIP3    H212187   0.507   3.808   2.537  0.4911  0.4597  2.5188
 4075TIP3   OH212188   6.004   6.304   3.955 -0.2763  0.0810  0.5612
 4075TIP3    H112189   5.983   6.245   3.883 -1.2668  1.2353 -0.1214
 4075TIP3    H212190   5.972   6.259   4.033 -2.5130  0.3886 -0.1252
 4076TIP3   OH212191   6.860   0.352   5.189  0.8824 -0.6270  0.0219
 4076TIP3    H112192   6.840   0.299   5.266 -0.1877 -0.3144 -0.0217
 4076TIP3    H212193   6.796   0.423   5.192  1.4213 -0.1002 -0.6631
 4077TIP3   OH212194   2.786   2.649   2.767  0.1212  0.1203 -0.0955
 4077TIP3    H112195   2.826   2.614   2.846  0.8178 -0.2889 -0.6182
 4077TIP3    H212196   2.732   2.577   2.733 -0.5459  0.4510  0.2537
 4078TIP3   OH212197   1.642   3.897   3.187  0.1441  0.3424  0.1305
 4078TIP3    H112198   1.597   3.867   3.266  1.3561 -4.0145 -0.5511
 4078TIP3    H212199   1.726   3.932   3.219 -0.3271  0.8171  0.8716
 4079TIP3   OH212200   0.338   0.142   5.778 -0.9043  0.0555 -0.0208
 4079TIP3    H112201   0.258   0.094   5.757 -1.1894  1.0650 -1.4441
 4079TIP3    H212202   0.310   0.209   5.841 -1.0575 -0.0102 -0.0194
 4080TIP3   OH212203   3.913   0.088   0.301  0.6267  0.1411  0.1588
 4080TIP3    H112204   3.996   0.042   0.314  1.0634  1.0045  0.5538
 4080TIP3    H212205   3.858   0.061   0.375  1.3817  1.2964  1.1962
 4081TIP3   OH212206   6.024   0.348   5.393  0.6426  0.1637  0.2346
 4081TIP3    H112207   6.119   0.335   5.391  0.7304  0.8231  0.1133
 4081TIP3    H212208   5.994   0.296   5.467  1.1529  0.3248  0.5562
 4082TIP3   OH212209   1.210   4.705   5.361  0.7647  0.6876 -0.1502
 4082TIP3    H112210   1.254   4.622   5.378  0.3127  0.7860  1.7855
 4082TIP3    H212211   1.229   4.759   5.438  0.1822  2.0039 -0.8858
 4083TIP3   OH212212   2.717   0.410   3.255 -0.1166  0.0078  0.0277
 4083TIP3    H112213   2.719   0.453   3.341  0.6405 -0.1848  0.1108
 4083TIP3    H212214   2.624   0.403   3.234 -0.4008 -1.3242  1.5278
 4084TIP3   OH212215   6.857   5.649   5.560 -0.2318  0.5367  0.3123
 4084TIP3    H112216   6.887   5.596   5.486 -0.3900  0.6623  0.1556
 4084TIP3    H212217   6.877   5.597   5.637  0.5460  0.6987  0.2235
 4085TIP3   OH212218   3.617   6.256   2.225  0.1564 -0.6970 -0.0327
 4085TIP3    H112219   3.594   6.285   2.313 -0.2078  2.1007 -0.9554
 4085TIP3    H212220   3.711   6.237   2.229  0.4474  0.7666  0.6559
 4086TIP3   OH212221   0.809   2.944   0.554  0.0617 -0.1767  0.2689
 4086TIP3    H112222   0.815   3.031   0.593  3.8938 -0.2530  0.2620
 4086TIP3    H212223   0.800   2.960   0.460  0.7951  0.2672  0.2629
 4087TIP3   OH212224   6.292   0.232   4.361  0.0845 -0.2463 -0.4305
 4087TIP3    H112225   6.249   0.270   4.284  0.4827  1.6417  0.2215
 4087TIP3    H212226   6.244   0.152   4.378 -0.7130 -0.1492 -1.9876
 4088TIP3   OH212227   3.270   6.397   0.997 -0.2454  0.4988  0.0502
 4088TIP3    H112228   3.238   6.326   0.940 -0.4284  0.6370 -0.0208
 4088TIP3    H212229   3.238   6.374   1.084  0.4290  0.0418  0.1903
 4089TIP3   OH212230   3.747   3.233   5.072  0.0666 -0.3806  0.1419
 4089TIP3    H112231   3.722   3.182   5.149  1.1208  0.2258  0.9107
 4089TIP3    H212232   3.664   3.255   5.030 -0.5770 -0.2395  1.4269
 4090TIP3   OH212233   0.473   5.203   2.263 -0.2068 -0.6885 -0.2739
 4090TIP3    H112234   0.526   5.225   2.187  0.2674 -1.8246 -0.2860
 4090TIP3    H212235   0.389   5.175   2.226 -1.1227  1.7176 -0.2350
 4091TIP3   OH212236   6.769   5.869   0.012 -0.1863 -0.3231 -0.2715
 4091TIP3    H112237   6.773   5.846   0.104 -2.4487 -0.1354 -0.0625
 4091TIP3    H212238   6.677   5.857  -0.012 -0.1133  1.7135 -1.9308
 4092TIP3   OH212239   1.880  -0.003   2.754  0.5650 -0.6011 -0.3408
 4092TIP3    H112240   1.905   0.087   2.775  1.9581 -1.4720  2.0238
 4092TIP3    H212241   1.793   0.006   2.715 -0.1502  1.6480  1.5346
 4093TIP3   OH212242   6.441   1.153   3.547  0.1133  0.2680  0.0223
 4093TIP3    H112243   6.465   1.244   3.531  0.1846  0.7090  2.2284
 4093TIP3    H212244   6.513   1.118   3.600 -0.6304 -0.5933  0.5047
 4094TIP3   OH212245   2.957   0.066   3.617 -0.1529  0.1348 -0.5207
 4094TIP3    H112246   3.028   0.101   3.671 -0.0899  0.0177 -0.5275
 4094TIP3    H212247   2.902   0.142   3.597 -1.4520 -0.1472  1.6183
 4095TIP3   OH212248   6.054   4.700   2.871  0.2225 -0.6882  0.4981
 4095TIP3    H112249   6.008   4.621   2.840  0.5515 -0.9145  0.5756
 4095TIP3    H212250   6.096   4.735   2.792 -0.9627  0.1288  0.2173
 4096TIP3   OH212251   2.435   1.545   3.223  0.4459 -0.2277 -0.3900
 4096TIP3    H112252   2.372   1.569   3.156  1.3977 -1.5421 -1.8299
 4096TIP3    H212253   2.490   1.623   3.234 -1.0475  0.7557  0.5309
 4097TIP3   OH212254   4.202   1.641   2.187 -0.1685  0.1082 -0.1792
 4097TIP3    H112255   4.266   1.707   2.215  0.1040 -0.2847  0.1359
 4097TIP3    H212256   4.161   1.679   2.109  0.5811  0.2867 -0.5018
 4098TIP3   OH212257   6.937   6.332   2.095  0.3004 -0.1749 -0.5946
 4098TIP3    H112258   6.995   6.261   2.122  0.9356 -0.1782 -1.9063
 4098TIP3    H212259   6.869   6.335   2.163  0.2946 -1.9710 -0.4798
 4099TIP3   OH212260   6.776   5.899   1.904  0.4832 -0.3237  0.0655
 4099TIP3    H112261   6.753   5.991   1.895  0.3738 -0.3287  0.2860
 4099TIP3    H212262   6.820   5.893   1.989  0.1077 -0.5465  0.2492
 4100TIP3   OH212263   2.686   0.197   1.280  0.7424  0.2314 -0.4259
 4100TIP3    H112264   2.717   0.124   1.333  0.4961 -0.4817 -1.2372
 4100TIP3    H212265   2.629   0.247   1.339  0.2504 -0.6964 -0.0920
 4101TIP3   OH212266   3.093   1.395   5.166 -0.3045 -0.2488  0.6132
 4101TIP3    H112267   3.087   1.331   5.237  0.3999 -1.7907 -0.6541
 4101TIP3    H212268   3.163   1.361   5.109 -1.6256  0.2975 -1.4321
 4102TIP3   OH212269   3.074   0.541   1.456  0.6669  0.1461  0.0150
 4102TIP3    H112270   3.126   0.532   1.536  0.8555  1.0229 -0.0007
 4102TIP3    H212271   3.030   0.456   1.446  0.0533  0.2669  1.4501
 4103TIP3   OH212272   3.622   4.171   1.562  0.0833  0.1908  0.6377
 4103TIP3    H112273   3.638   4.123   1.643  1.8802 -0.6056 -0.1540
 4103TIP3    H212274   3.560   4.117   1.514 -0.4447  0.3208  1.1569
 4104TIP3   OH212275   5.128   2.936   4.768 -0.1680 -0.4411 -0.2146
 4104TIP3    H112276   5.178   3.011   4.799  0.0180 -0.2068 -1.0511
 4104TIP3    H212277   5.049   2.936   4.822 -0.5169  0.8078 -0.6912
 4105TIP3   OH212278   5.327   5.995   1.852  0.2579 -0.2473  0.0301
 4105TIP3    H112279   5.359   5.946   1.776  0.5745 -0.6919  0.4389
 4105TIP3    H212280   5.305   5.928   1.917 -2.3500 -0.0174 -0.5083
 4106TIP3   OH212281   6.694   6.415   0.681 -1.2740  0.2007 -0.0741
 4106TIP3    H112282   6.635   6.485   0.652 -2.0564 -0.7369 -0.8076
 4106TIP3    H212283   6.740   6.452   0.756 -2.4779  1.1192  0.2425
 4107TIP3   OH212284   1.358   2.620   0.103 -0.1309 -0.0629 -0.1322
 4107TIP3    H112285   1.288   2.557   0.118 -2.3765  2.3417  0.1920
 4107TIP3    H212286   1.374   2.659   0.189  1.4311 -0.3160 -0.2660
 4108TIP3   OH212287   3.975   1.023   5.086 -0.2057 -0.0176 -0.8372
 4108TIP3    H112288   3.948   0.944   5.039  0.6372  0.2571 -1.8340
 4108TIP3    H212289   3.931   1.095   5.040 -0.4042  0.1489 -0.3887
 4109TIP3   OH212290   6.453   1.982   2.114  0.0608 -0.1800 -0.5839
 4109TIP3    H112291   6.502   1.915   2.164 -0.2074 -0.2853 -0.4611
 4109TIP3    H212292   6.449   1.947   2.025 -1.5223 -1.1320 -0.1721
 4110TIP3   OH212293   4.604   5.932   3.707 -0.3130  0.2889  0.2118
 4110TIP3    H112294   4.656   6.007   3.680 -0.5842  0.2759 -0.3688
 4110TIP3    H212295   4.530   5.970   3.756  0.1890  0.3103  0.9783
 4111TIP3   OH212296   4.171   5.903   4.809 -0.2580 -0.6782 -0.1930
 4111TIP3    H112297   4.115   5.913   4.885  1.4876  0.2290  1.0252
 4111TIP3    H212298   4.197   5.810   4.810 -0.0200 -0.6103  0.4991
 4112TIP3   OH212299   2.775   2.315   0.949  0.2564  0.1384 -0.6818
 4112TIP3    H112300   2.707   2.274   1.003  1.1522 -1.7427 -0.8910
 4112TIP3    H212301   2.755   2.409   0.952 -0.7381 -0.0797  1.4940
 4113TIP3   OH212302   5.227   1.980   2.863 -0.5245  0.6805  0.0035
 4113TIP3    H112303   5.242   2.006   2.954 -2.7024 -1.1903  0.9656
 4113TIP3    H212304   5.160   2.041   2.831 -0.4939  0.6925 -0.0396
 4114TIP3   OH212305   2.549   1.357   2.994  0.3207 -0.0374  0.6788
 4114TIP3    H112306   2.467   1.314   2.973  0.4457 -0.5005  1.1338
 4114TIP3    H212307   2.537   1.391   3.083 -0.1440  1.7670 -0.0200
 4115TIP3   OH212308   1.922   4.583   2.490 -0.1354  0.4165 -0.0699
 4115TIP3    H112309   1.834   4.579   2.451 -0.6317  0.4867  0.9978
 4115TIP3    H212310   1.933   4.497   2.531  0.4968  0.2408 -0.5917
 4116TIP3   OH212311   7.072   3.771   3.844 -0.2630 -0.1633 -0.1914
 4116TIP3    H112312   7.123   3.769   3.925 -0.3367 -1.0944 -0.1523
 4116TIP3    H212313   6.993   3.720   3.864 -2.4767  3.1814  0.5354
 4117TIP3   OH212314   3.500   3.217   1.880  0.1462  0.3780  0.2641
 4117TIP3    H112315   3.416   3.246   1.844 -0.1131  0.0012  0.5645
 4117TIP3    H212316   3.499   3.248   1.970  1.3690  2.5333 -0.3876
 4118TIP3   OH212317   1.768   1.588   2.366  0.0710  0.3812  0.0552
 4118TIP3    H112318   1.775   1.571   2.460  0.7597 -0.9676 -0.2038
 4118TIP3    H212319   1.704   1.524   2.335  0.9257 -0.1749 -0.6046
 4119TIP3   OH212320   1.881   5.360   0.434  0.3794  0.0670  0.7541
 4119TIP3    H112321   1.975   5.352   0.420  0.2706  1.7140 -1.5178
 4119TIP3    H212322   1.866   5.454   0.446 -0.9528 -0.1841  1.2440
 4120TIP3   OH212323   5.227   5.418   2.284 -0.1363 -0.2997  0.0750
 4120TIP3    H112324   5.190   5.330   2.290  0.7314 -0.6849 -0.0374
 4120TIP3    H212325   5.316   5.410   2.318 -0.2079  0.6445  0.5203
 4121TIP3   OH212326   6.159   3.275   0.670  0.3319  0.1935 -0.1764
 4121TIP3    H112327   6.137   3.307   0.757 -1.8188  0.0303 -0.5906
 4121TIP3    H212328   6.221   3.338   0.635 -0.2389  1.3039  0.7721
 4122TIP3   OH212329   1.779   6.531   4.915 -0.2615  0.1019  0.1406
 4122TIP3    H112330   1.843   6.483   4.862  1.2394 -0.6432  2.4368
 4122TIP3    H212331   1.829   6.604   4.952 -0.4633 -0.8730  2.5088
 4123TIP3   OH212332   0.597   5.815   1.878  0.5662  0.6749  0.0308
 4123TIP3    H112333   0.690   5.836   1.877  0.5942  0.5511  0.0816
 4123TIP3    H212334   0.586   5.754   1.951  0.1923  1.8384  0.9745
 4124TIP3   OH212335   3.343   3.850   5.164  0.3749 -0.3379 -0.1601
 4124TIP3    H112336   3.349   3.767   5.210  1.1035 -0.0220  0.3236
 4124TIP3    H212337   3.320   3.914   5.231 -1.1234 -0.2793 -0.6843
 4125TIP3   OH212338   1.572   2.272   5.734  0.0825  0.3721 -0.0229
 4125TIP3    H112339   1.611   2.307   5.653  2.1888  1.0703  1.2223
 4125TIP3    H212340   1.550   2.182   5.712  1.4897  0.2542 -1.1390
 4126TIP3   OH212341   4.791   0.651   5.543 -0.0267  0.3327  0.0506
 4126TIP3    H112342   4.735   0.658   5.620 -0.5395  1.6324 -0.4015
 4126TIP3    H212343   4.761   0.722   5.485  1.5925  0.5980 -0.5261
 4127TIP3   OH212344   1.919   1.294   0.957 -0.4355  0.1464  0.6323
 4127TIP3    H112345   1.990   1.303   1.021  0.3154 -2.5633  0.3309
 4127TIP3    H212346   1.880   1.209   0.977 -1.2136 -0.0629 -1.5025
 4128TIP3   OH212347   3.434   2.563   4.026 -0.4122  0.0425  0.2158
 4128TIP3    H112348   3.366   2.495   4.024  1.5365 -2.0309  0.5668
 4128TIP3    H212349   3.385   2.645   4.025 -2.9187 -1.3357  0.5267
 4129TIP3   OH212350   1.314   6.225   0.460 -0.4122  0.3059 -0.5173
 4129TIP3    H112351   1.348   6.136   0.465  0.6121  0.6971 -0.3270
 4129TIP3    H212352   1.363   6.266   0.389 -0.5140  0.8775 -0.2692
 4130TIP3   OH212353   4.854   4.502   4.790  0.3307  0.6949  0.3247
 4130TIP3    H112354   4.820   4.591   4.780 -1.7526 -0.0994 -0.0835
 4130TIP3    H212355   4.777   4.447   4.798  1.5258 -1.2386 -0.5598
 4131TIP3   OH212356   6.399   5.275   1.381  0.1999 -0.4176  0.4130
 4131TIP3    H112357   6.389   5.253   1.474  1.6320 -2.0639  0.2275
 4131TIP3    H212358   6.375   5.195   1.335  0.0017  0.2233 -0.6226
 4132TIP3   OH212359   1.345   2.050   3.952 -0.1622 -0.3141  0.7711
 4132TIP3    H112360   1.330   2.046   4.047  1.5628 -1.1882  1.0399
 4132TIP3    H212361   1.257   2.052   3.915 -0.8796 -0.0769  2.3806
 4133TIP3   OH212362   6.440   3.480   3.901 -0.0152  0.2948 -0.9080
 4133TIP3    H112363   6.492   3.400   3.901  1.7277  1.3194  0.9974
 4133TIP3    H212364   6.477   3.533   3.830 -0.2428 -0.0214 -1.2653
 4134TIP3   OH212365   2.502   3.540   4.725 -0.4747  0.4364  0.5888
 4134TIP3    H112366   2.588   3.497   4.720 -0.3546  0.6534  0.8047
 4134TIP3    H212367   2.479   3.537   4.818 -1.9307 -2.0257  0.2483
 4135TIP3   OH212368   2.350   6.610   3.366  0.0564  0.2863 -0.2861
 4135TIP3    H112369   2.271   6.651   3.400  0.6245  0.5844  0.7193
 4135TIP3    H212370   2.339   6.517   3.385  0.1841  0.3976  0.3435
 4136TIP3   OH212371   6.308   5.061   1.213  0.4573 -0.0418  0.3213
 4136TIP3    H112372   6.348   5.023   1.135  1.3262 -0.9207  1.1784
 4136TIP3    H212373   6.222   5.020   1.218  0.3417  0.1161 -0.2315
 4137TIP3   OH212374   1.509   4.548   0.955  0.0076 -0.2527 -0.0539
 4137TIP3    H112375   1.551   4.492   0.890 -0.7771 -0.9697  0.0443
 4137TIP3    H212376   1.456   4.610   0.905  0.4229  0.0412 -0.1379
 4138TIP3   OH212377   3.103   4.280   4.132  0.3294 -0.3409  0.4365
 4138TIP3    H112378   3.182   4.334   4.135  0.5700 -0.4221 -2.4300
 4138TIP3    H212379   3.122   4.212   4.067 -1.9125 -0.6835  0.0491
 4139TIP3   OH212380   2.648   1.342   3.933 -0.0539  0.3047  0.1124
 4139TIP3    H112381   2.567   1.361   3.885 -0.9140 -1.0716  0.9632
 4139TIP3    H212382   2.619   1.320   4.021  1.0864 -1.8287  0.0145
 4140TIP3   OH212383   4.840   5.476   4.579 -0.0107  0.1654  0.4472
 4140TIP3    H112384   4.824   5.544   4.514 -0.5657  1.5352  1.9559
 4140TIP3    H212385   4.773   5.490   4.646  0.7373 -0.9812  1.4804
 4141TIP3   OH212386   2.884   1.434   2.000 -0.0447 -0.1892  0.0223
 4141TIP3    H112387   2.796   1.458   1.973  0.1022 -1.2015 -1.4439
 4141TIP3    H212388   2.934   1.430   1.919  1.1101 -0.6339  0.7303
 4142TIP3   OH212389   4.704   3.789   3.587  0.2051 -0.0797 -0.1739
 4142TIP3    H112390   4.698   3.831   3.672  1.1902 -1.6297  0.6997
 4142TIP3    H212391   4.712   3.862   3.525  1.2366  1.0429  1.2035
 4143TIP3   OH212392   1.793   0.565   3.968 -0.0927 -0.8058  0.6123
 4143TIP3    H112393   1.764   0.578   3.878 -1.5159 -1.9992  0.8585
 4143TIP3    H212394   1.811   0.471   3.975 -0.1582 -0.7612  1.6082
 4144TIP3   OH212395   1.689   5.619   0.032 -0.2822 -0.4383  0.3818
 4144TIP3    H112396   1.626   5.577  -0.027 -1.3643 -2.5174  2.8192
 4144TIP3    H212397   1.641   5.691   0.072 -0.3460 -0.5647  0.5319
 4145TIP3   OH212398   0.634   4.061   2.891 -0.1932 -0.1721  0.1695
 4145TIP3    H112399   0.653   3.969   2.873  0.2640 -0.1526  0.5564
 4145TIP3    H212400   0.630   4.102   2.804  4.2121  0.3701  0.0213
 4146TIP3   OH212401   1.230   6.234   5.263  0.0805  0.1561  1.1735
 4146TIP3    H112402   1.295   6.174   5.299 -0.5702 -0.9559  0.5307
 4146TIP3    H212403   1.228   6.307   5.325  3.6786  1.4667  0.0512
 4147TIP3   OH212404   2.406   3.874   4.497 -0.2995  0.2410  0.6610
 4147TIP3    H112405   2.454   3.900   4.575 -0.0003  0.7380  0.3208
 4147TIP3    H212406   2.470   3.882   4.426 -0.5637 -0.2119  0.3652
 4148TIP3   OH212407   4.427   1.533   3.240  0.2179  0.0770 -0.6651
 4148TIP3    H112408   4.485   1.608   3.234  0.5551 -0.1529 -0.3207
 4148TIP3    H212409   4.460   1.471   3.174  2.2264 -1.2970  1.4730
 4149TIP3   OH212410   0.413   3.422   2.275 -0.6615 -0.2715  0.1943
 4149TIP3    H112411   0.445   3.401   2.188 -0.6408 -0.5267  0.2617
 4149TIP3    H212412   0.481   3.478   2.313 -0.7992  0.0639 -0.0519
 4150TIP3   OH212413   0.090   0.357   2.076 -0.0777 -1.0573  0.3178
 4150TIP3    H112414   0.090   0.352   2.172  3.2590 -1.6684  0.3924
 4150TIP3    H212415   0.087   0.451   2.058  1.6073 -0.7827  1.1872
 4151TIP3   OH212416   4.963   6.715   3.737  0.0291 -0.4738 -1.0085
 4151TIP3    H112417   4.990   6.738   3.648  0.3348  0.6393 -0.6508
 4151TIP3    H212418   5.045   6.695   3.782 -0.1507 -1.3241 -1.0410
 4152TIP3   OH212419   7.007   0.878   2.367  0.0794  0.1121  0.2233
 4152TIP3    H112420   7.101   0.874   2.384  0.2575  1.7328 -0.2376
 4152TIP3    H212421   6.967   0.837   2.444  1.1779 -2.3587 -0.3959
 4153TIP3   OH212422   0.195   4.970   5.433 -0.0701  0.1096  0.7145
 4153TIP3    H112423   0.108   4.959   5.473 -1.7897 -3.9572 -3.2982
 4153TIP3    H212424   0.232   4.882   5.432  1.7850  0.7999 -2.2485
 4154TIP3   OH212425   5.370   2.531   1.440 -0.0360  0.1042  0.2056
 4154TIP3    H112426   5.440   2.467   1.425 -0.4437 -0.1576 -0.6510
 4154TIP3    H212427   5.333   2.507   1.525 -1.8488 -2.4518 -1.1449
 4155TIP3   OH212428   5.081   2.101   5.364  0.7271 -0.0219 -0.1522
 4155TIP3    H112429   5.026   2.176   5.341 -0.5047 -1.3425 -1.8380
 4155TIP3    H212430   5.078   2.097   5.459 -1.1652  0.6660 -0.1324
 4156TIP3   OH212431   0.045   1.081   1.092 -0.2063  0.1608  0.6636
 4156TIP3    H112432   0.042   0.987   1.106  0.2767  0.2055  1.1329
 4156TIP3    H212433  -0.021   1.099   1.025 -1.0832 -0.3578  1.3822
 4157TIP3   OH212434   1.939   3.735   0.044 -0.1379 -0.0320  0.5197
 4157TIP3    H112435   1.954   3.826   0.069  2.2862 -0.2338  0.0683
 4157TIP3    H212436   1.935   3.688   0.127 -1.6197  0.4643  0.7646
 4158TIP3   OH212437   0.279   3.201   2.200 -0.6586 -0.6626 -0.0011
 4158TIP3    H112438   0.306   3.122   2.154 -1.8160 -1.4656  0.6330
 4158TIP3    H212439   0.333   3.271   2.162  1.8627 -2.0378  0.8399
 4159TIP3   OH212440   5.547   4.920   3.640  0.3046 -0.5732 -0.2464
 4159TIP3    H112441   5.588   4.996   3.682 -0.8552 -1.3604  2.5550
 4159TIP3    H212442   5.459   4.950   3.617  0.2776 -0.6967 -0.3067
 4160TIP3   OH212443   0.729   4.075   0.038  0.4668 -0.5999 -0.1559
 4160TIP3    H112444   0.728   4.026  -0.044 -2.9635  1.4626 -1.5523
 4160TIP3    H212445   0.732   4.008   0.106  0.1607 -2.5311 -1.9445
 4161TIP3   OH212446   3.466   0.082   4.430 -0.3269  0.1711 -0.0697
 4161TIP3    H112447   3.377   0.113   4.414 -0.8918 -0.2754  1.8912
 4161TIP3    H212448   3.517   0.162   4.444 -1.0357  0.4001  1.4937
 4162TIP3   OH212449   0.884   2.442   4.357 -0.5399  0.0295  0.5208
 4162TIP3    H112450   0.855   2.379   4.290 -0.9743 -0.3919  1.1028
 4162TIP3    H212451   0.833   2.521   4.340 -1.0472 -0.2600  0.6982
 4163TIP3   OH212452   5.016   6.041   4.627  0.0050 -0.7195 -0.5494
 4163TIP3    H112453   5.083   5.988   4.583 -0.5988 -2.3952  0.4832
 4163TIP3    H212454   4.956   5.978   4.665 -1.3339  0.7390 -0.1321
 4164TIP3   OH212455   3.112   3.425   1.908 -0.4733 -0.4267 -0.3535
 4164TIP3    H112456   3.151   3.413   1.995 -1.3452 -0.3845  0.0630
 4164TIP3    H212457   3.176   3.390   1.847 -0.3831 -1.6041  0.3953
 4165TIP3   OH212458   5.113   0.656   0.607  0.0519 -0.0163 -0.6242
 4165TIP3    H112459   5.197   0.657   0.652 -0.1628 -1.1469 -0.1593
 4165TIP3    H212460   5.133   0.683   0.517  0.7741  0.5032 -0.3083
 4166TIP3   OH212461   4.833   3.125   1.321  0.0299  0.0944  0.2216
 4166TIP3    H112462   4.879   3.182   1.383  1.1592 -1.1402  0.5855
 4166TIP3    H212463   4.870   3.147   1.236  2.0580 -1.4617  0.5998
 4167TIP3   OH212464   5.188   6.660   3.879  0.2347 -0.1072 -0.1291
 4167TIP3    H112465   5.258   6.625   3.933 -0.5348 -0.7602  0.4692
 4167TIP3    H212466   5.167   6.745   3.919  0.3783 -0.1128 -0.0428
 4168TIP3   OH212467   5.831   1.378   2.742  0.0799 -0.0083  0.5074
 4168TIP3    H112468   5.775   1.414   2.810  0.0127  1.3777 -0.2576
 4168TIP3    H212469   5.918   1.373   2.782  0.2567  1.7707  0.3870
 4169TIP3   OH212470   4.506   4.526   0.264  0.0677 -0.4050 -0.1155
 4169TIP3    H112471   4.427   4.552   0.312  0.6553 -2.1622  2.0150
 4169TIP3    H212472   4.473   4.478   0.188 -0.9032 -0.0212  0.0371
 4170TIP3   OH212473   3.725   0.847   3.185 -0.1250  0.0966  0.3079
 4170TIP3    H112474   3.673   0.903   3.243  0.1206  0.2820  0.3498
 4170TIP3    H212475   3.705   0.878   3.097  0.8416  0.9819  0.3797
 4171TIP3   OH212476   3.427   3.861   0.675 -0.5291  0.2199 -0.2152
 4171TIP3    H112477   3.455   3.945   0.639 -0.6858  0.6215  0.5756
 4171TIP3    H212478   3.490   3.798   0.640 -1.0331  0.4852 -1.6668
 4172TIP3   OH212479   1.072   6.802   4.054 -0.0372 -0.0770  0.1747
 4172TIP3    H112480   1.101   6.800   3.963  0.5071  0.6967  0.3212
 4172TIP3    H212481   1.139   6.752   4.102  0.0443  0.0858  0.2353
 4173TIP3   OH212482   6.303   3.135   1.141  0.3060 -0.1759 -0.5526
 4173TIP3    H112483   6.310   3.227   1.116 -1.0780 -0.0602 -0.5619
 4173TIP3    H212484   6.381   3.095   1.104  1.1415  1.0578 -0.2122
 4174TIP3   OH212485   2.413   2.577   3.567  0.1522 -0.1689 -0.1096
 4174TIP3    H112486   2.438   2.545   3.654  1.2016  0.2874 -0.2331
 4174TIP3    H212487   2.321   2.602   3.577  0.4029  0.3931  1.0279
 4175TIP3   OH212488   4.924   3.592   1.433 -0.2040  0.6614  0.1192
 4175TIP3    H112489   4.881   3.645   1.501 -1.6677 -1.0637  0.6232
 4175TIP3    H212490   4.881   3.619   1.351  0.7294  1.9006  0.0152
 4176TIP3   OH212491   2.439   0.510   4.550  0.0567  0.3028 -0.0934
 4176TIP3    H112492   2.428   0.557   4.633  0.7875 -1.2688  0.9298
 4176TIP3    H212493   2.527   0.474   4.554  0.1415  0.2747 -1.6189
 4177TIP3   OH212494   4.239   2.069   3.883  0.7376 -0.0083 -0.2000
 4177TIP3    H112495   4.201   2.143   3.932  0.1612 -0.5117  0.1325
 4177TIP3    H212496   4.298   2.110   3.820 -0.3403  0.8109 -0.7173
 4178TIP3   OH212497   0.590   0.516   2.663  0.0974 -0.6213  0.2945
 4178TIP3    H112498   0.527   0.448   2.636 -1.3264  0.7149  0.1251
 4178TIP3    H212499   0.577   0.587   2.601  0.7878  0.2573  1.1242
 4179TIP3   OH212500   4.836   4.792   2.338  0.5550 -0.1857  0.3564
 4179TIP3    H112501   4.927   4.783   2.307  0.3912 -1.2404  0.1186
 4179TIP3    H212502   4.828   4.726   2.407 -0.2989 -0.7839 -0.2873
 4180TIP3   OH212503   4.046   5.774   0.436 -0.1396 -0.0551 -0.3812
 4180TIP3    H112504   4.095   5.698   0.407 -2.2617 -1.8568  0.4882
 4180TIP3    H212505   4.078   5.792   0.524 -2.2003 -2.4283  0.9598
 4181TIP3   OH212506   0.622   2.407   1.173  0.1772 -0.0899  0.1679
 4181TIP3    H112507   0.567   2.480   1.145  1.3216  0.0290 -1.9705
 4181TIP3    H212508   0.561   2.343   1.209 -1.0863  0.9913  0.0104
 4182TIP3   OH212509   1.648   2.067   0.208 -0.1817  0.0670 -0.2428
 4182TIP3    H112510   1.680   2.008   0.276 -0.3296 -1.2312 -1.2460
 4182TIP3    H212511   1.722   2.079   0.149 -0.1519  0.9100 -0.0464
 4183TIP3   OH212512   5.609   3.047   0.595 -0.7747  0.1174 -0.1221
 4183TIP3    H112513   5.660   2.980   0.549 -1.7532  0.5513 -1.9214
 4183TIP3    H212514   5.574   3.002   0.671  1.4801 -0.4381  0.6554
 4184TIP3   OH212515   3.422   1.902   0.969  0.1716  0.5265 -0.1860
 4184TIP3    H112516   3.426   1.876   0.877 -0.9353  0.7137 -0.2994
 4184TIP3    H212517   3.428   1.998   0.967 -0.0107  0.5403 -0.0793
 4185TIP3   OH212518   1.738   0.959   3.025 -0.0066 -0.2808  0.1132
 4185TIP3    H112519   1.709   0.998   3.108 -0.2618 -0.9902  0.3587
 4185TIP3    H212520   1.667   0.901   2.999  1.0947 -1.9059  0.6211
 4186TIP3   OH212521   4.404   0.204   1.465 -0.1791  0.0321  0.1830
 4186TIP3    H112522   4.467   0.267   1.431  0.2803 -0.3977  0.2267
 4186TIP3    H212523   4.456   0.126   1.484 -0.5332  0.0356  1.2413
 4187TIP3   OH212524   4.462   1.603   4.360 -0.5510  0.1345 -0.3474
 4187TIP3    H112525   4.435   1.579   4.271 -0.4224  0.3779 -0.4526
 4187TIP3    H212526   4.492   1.520   4.399 -3.3649 -0.5877  0.5009
 4188TIP3   OH212527   0.857   2.344   0.740 -0.0603 -0.3100  0.0253
 4188TIP3    H112528   0.775   2.306   0.773 -0.7431  0.8130 -0.3213
 4188TIP3    H212529   0.867   2.425   0.789  0.2623  0.1152 -0.7306
 4189TIP3   OH212530   0.770   6.657   4.433  0.1337  0.1103 -0.6167
 4189TIP3    H112531   0.790   6.742   4.471  0.9632 -0.0879 -0.5801
 4189TIP3    H212532   0.856   6.621   4.409 -0.2592 -0.3918 -1.3210
 4190TIP3   OH212533   2.638   2.430   5.367 -0.2151  0.0309 -0.1476
 4190TIP3    H112534   2.690   2.460   5.292  0.1272  0.5203  0.2780
 4190TIP3    H212535   2.703   2.402   5.431 -0.5081 -0.4173 -0.0400
 4191TIP3   OH212536   3.263   0.091   3.710 -0.6217  0.2947  0.0335
 4191TIP3    H112537   3.293   0.101   3.620  2.2423  1.6209  1.0047
 4191TIP3    H212538   3.298   0.006   3.737  0.2651  0.7771  0.4494
 4192TIP3   OH212539   0.974   3.548   5.531  0.0140 -0.3489 -0.3271
 4192TIP3    H112540   0.964   3.634   5.491  2.5418  1.2258  2.0414
 4192TIP3    H212541   1.014   3.494   5.463  0.2859  0.9674 -1.2544
 4193TIP3   OH212542   4.347   5.553   1.176  0.2476  0.3720 -0.3086
 4193TIP3    H112543   4.412   5.540   1.106 -0.8919  3.5996 -2.1940
 4193TIP3    H212544   4.273   5.498   1.150  0.5627  0.0324 -0.5149
 4194TIP3   OH212545   0.575   3.756   1.408  0.3971 -0.3673  0.0852
 4194TIP3    H112546   0.575   3.661   1.392  1.1781 -0.4202  0.3612
 4194TIP3    H212547   0.660   3.773   1.448 -0.0989  0.3194  0.8679
 4195TIP3   OH212548   3.569   5.966   2.740  0.0853 -0.1988  0.2138
 4195TIP3    H112549   3.566   5.893   2.679 -1.9406  0.6301 -0.7620
 4195TIP3    H212550   3.478   5.982   2.763  0.3046  2.7541 -0.5468
 4196TIP3   OH212551   1.149   4.114   3.041 -0.8140  0.3157  0.3234
 4196TIP3    H112552   1.100   4.098   3.121 -0.4784  0.6067  0.5895
 4196TIP3    H212553   1.106   4.060   2.975 -0.0165 -1.3262  1.0815
 4197TIP3   OH212554   1.432   0.726   0.950 -0.0559  0.3464 -0.2215
 4197TIP3    H112555   1.396   0.655   0.898 -0.1917  0.4764 -0.3051
 4197TIP3    H212556   1.397   0.806   0.910 -1.9634  0.4004  1.3598
 4198TIP3   OH212557   6.759   2.768   4.491 -0.2384 -0.0203 -0.0694
 4198TIP3    H112558   6.705   2.837   4.531  0.6656  0.9225 -0.4108
 4198TIP3    H212559   6.845   2.780   4.532 -0.3112 -1.6265  0.6125
 4199TIP3   OH212560   4.667   1.798   4.377  0.0419 -0.3616  0.7272
 4199TIP3    H112561   4.634   1.884   4.352  0.3443 -0.2791  0.5959
 4199TIP3    H212562   4.589   1.745   4.391 -0.1824 -0.7271 -1.4969
 4200TIP3   OH212563   0.197   0.090   4.575  0.1158 -0.6782 -0.6510
 4200TIP3    H112564   0.263   0.144   4.620 -2.3556  2.3431 -0.2440
 4200TIP3    H212565   0.200   0.119   4.484 -0.8090 -0.2217 -0.5568
 4201TIP3   OH212566   4.230   4.240   4.952 -0.0066  0.6156  0.0471
 4201TIP3    H112567   4.163   4.287   4.902 -0.2023  1.5446  1.1227
 4201TIP3    H212568   4.280   4.310   4.995 -0.8337 -0.1262  2.3873
 4202TIP3   OH212569   0.721   1.027   3.827 -0.3351 -0.4040  0.2651
 4202TIP3    H112570   0.778   1.048   3.901  0.3877 -0.8205 -0.1564
 4202TIP3    H212571   0.637   1.066   3.849  0.0903  0.1528  0.9468
 4203TIP3   OH212572   2.936   1.228   4.110  0.1786  0.3038  0.2464
 4203TIP3    H112573   2.898   1.283   4.042 -0.0608  0.8360  0.7966
 4203TIP3    H212574   2.860   1.190   4.155  0.2952  0.9295  0.9942
 4204TIP3   OH212575   0.151   2.332   2.066 -0.3042 -0.3557 -0.0321
 4204TIP3    H112576   0.227   2.382   2.095  0.3361 -0.7643 -0.9751
 4204TIP3    H212577   0.082   2.397   2.056 -0.2377 -0.0440  1.2902
 4205TIP3   OH212578   0.475   2.016   4.247  0.1190 -0.1280  0.2761
 4205TIP3    H112579   0.457   1.997   4.339  1.9364  2.6336  1.3386
 4205TIP3    H212580   0.567   1.993   4.235  0.8672  2.6083  0.1728
 4206TIP3   OH212581   0.322   2.411   5.033 -0.8614  0.0779  0.3463
 4206TIP3    H112582   0.257   2.472   4.998 -0.0299  1.6010  1.3500
 4206TIP3    H212583   0.406   2.445   5.003 -0.3639 -0.5271  1.0134
 4207TIP3   OH212584   5.895   0.238   2.545  0.5035  0.2472  0.1739
 4207TIP3    H112585   5.870   0.179   2.616 -0.6013 -0.1485 -0.5005
 4207TIP3    H212586   5.898   0.325   2.585 -0.5562  0.0918  0.6398
 4208TIP3   OH212587   0.815   6.702   0.119 -0.6358  0.0155 -0.8621
 4208TIP3    H112588   0.856   6.762   0.057  0.2747 -0.9325 -1.1990
 4208TIP3    H212589   0.722   6.724   0.115 -0.4890  0.4924 -1.9784
 4209TIP3   OH212590   5.479   4.228   2.877  0.3022  0.1720 -0.1500
 4209TIP3    H112591   5.432   4.162   2.827 -1.3107  1.1067  0.0536
 4209TIP3    H212592   5.502   4.184   2.959  0.9002 -0.6587 -0.7378
 4210TIP3   OH212593   4.663   3.588   4.341  0.7538 -0.0264 -0.4565
 4210TIP3    H112594   4.704   3.643   4.275 -0.7932  1.3449 -0.3451
 4210TIP3    H212595   4.628   3.514   4.293  0.2368  0.6180 -1.0983
 4211TIP3   OH212596   2.307   3.285   1.329  0.2479  0.2371 -0.0469
 4211TIP3    H112597   2.246   3.324   1.392 -0.0722  0.3418 -0.4180
 4211TIP3    H212598   2.393   3.292   1.371 -0.1488 -1.0999  1.0459
 4212TIP3   OH212599   6.677   5.526   4.598  0.0613  0.0681  0.4044
 4212TIP3    H112600   6.686   5.504   4.505  0.4305  1.6014  0.0484
 4212TIP3    H212601   6.594   5.574   4.603 -1.1853 -2.0414  1.3148
 4213TIP3   OH212602   4.947   1.808   4.747 -0.3492  0.5321  0.2146
 4213TIP3    H112603   4.909   1.734   4.699 -1.5153  0.7173  0.8324
 4213TIP3    H212604   4.948   1.880   4.683 -2.7894  1.0523  0.6712
 4214TIP3   OH212605   4.970   3.688   3.325 -0.3444  0.5826  0.4376
 4214TIP3    H112606   5.009   3.737   3.398 -0.2122 -0.2865  0.9692
 4214TIP3    H212607   4.892   3.739   3.301  0.2914  1.5475  0.3462
 4215TIP3   OH212608   3.447   6.527   5.771  0.4262 -0.1378  0.1537
 4215TIP3    H112609   3.527   6.489   5.806  0.5221 -1.0630 -1.0233
 4215TIP3    H212610   3.413   6.461   5.711 -0.9202  0.4765  0.1958
 4216TIP3   OH212611   5.223   5.373   1.498 -0.5468 -0.4197  0.4357
 4216TIP3    H112612   5.156   5.362   1.431 -0.0935 -1.0103  0.0612
 4216TIP3    H212613   5.298   5.322   1.465 -0.2300 -0.5122  1.2687
 4217TIP3   OH212614   5.507   1.822   3.623 -0.5677  0.0707 -0.0349
 4217TIP3    H112615   5.539   1.910   3.607 -0.4486  0.0625  0.1540
 4217TIP3    H212616   5.425   1.817   3.574  0.4966 -0.4434 -1.8519
 4218TIP3   OH212617   1.905   0.469   2.517 -0.1539  0.2350  0.3747
 4218TIP3    H112618   1.926   0.397   2.576  2.7089  1.1625  0.6548
 4218TIP3    H212619   1.932   0.437   2.430 -1.1408  0.1282  0.0948
 4219TIP3   OH212620   2.790   3.796   1.293  0.3242  0.0344 -0.3129
 4219TIP3    H112621   2.783   3.726   1.227  0.0424 -2.6187  2.3314
 4219TIP3    H212622   2.880   3.826   1.286 -0.1271  1.0940 -2.9919
 4220TIP3   OH212623   4.149   3.940   3.015  0.1806  0.1776  0.3825
 4220TIP3    H112624   4.171   3.851   3.042  0.8793 -0.7202 -2.7490
 4220TIP3    H212625   4.230   3.974   2.978 -0.8920  0.8446 -1.4776
 4221TIP3   OH212626   6.108   0.062   3.159  0.3253  0.5822 -0.0690
 4221TIP3    H112627   6.138  -0.027   3.172  0.4075  0.6041 -0.1079
 4221TIP3    H212628   6.147   0.089   3.075 -0.1050  0.4818 -0.3070
 4222TIP3   OH212629   6.933   4.176   0.352  0.1685 -0.3004 -0.2191
 4222TIP3    H112630   6.934   4.228   0.272  0.8248 -0.0479 -0.0488
 4222TIP3    H212631   7.003   4.112   0.340 -0.9145 -1.4596 -0.6233
 4223TIP3   OH212632   4.823   1.182   0.208  0.8019  0.1452  0.1217
 4223TIP3    H112633   4.898   1.241   0.198 -0.6801  1.9279 -1.1589
 4223TIP3    H212634   4.791   1.169   0.119 -1.4154  0.8231  0.7667
 4224TIP3   OH212635   0.720   0.312   4.433  0.1764 -0.6304  0.1898
 4224TIP3    H112636   0.784   0.245   4.457 -1.5609 -1.7704  2.0081
 4224TIP3    H212637   0.726   0.377   4.503  0.7113  0.2974 -0.7023
 4225TIP3   OH212638   5.958   2.765   3.882 -0.2563 -0.3157  0.2890
 4225TIP3    H112639   5.868   2.756   3.852 -0.7452  0.3387  1.5095
 4225TIP3    H212640   5.992   2.841   3.834 -0.0333 -1.1245 -0.8721
 4226TIP3   OH212641   6.769   0.622   0.528  0.2956  0.4948  0.0217
 4226TIP3    H112642   6.802   0.577   0.605  1.5669 -0.5401 -1.0744
 4226TIP3    H212643   6.758   0.712   0.556 -1.1052 -0.1971  1.9308
 4227TIP3   OH212644   5.608   2.850   4.418 -0.0506 -0.1877 -0.7230
 4227TIP3    H112645   5.544   2.881   4.353  2.0298  3.1598 -1.4395
 4227TIP3    H212646   5.587   2.898   4.497  0.6826 -0.1534 -0.5410
 4228TIP3   OH212647   1.585   6.543   4.431 -0.2990  0.2189  0.3618
 4228TIP3    H112648   1.657   6.550   4.493 -0.2711  0.3612  0.3143
 4228TIP3    H212649   1.533   6.469   4.462  1.1021 -1.3839 -0.8826
 4229TIP3   OH212650   1.312   2.388   3.837 -0.0281 -0.6136  0.2867
 4229TIP3    H112651   1.365   2.369   3.915  0.1374 -0.9292  0.1010
 4229TIP3    H212652   1.259   2.309   3.825  0.7645 -1.0316 -0.5783
 4230TIP3   OH212653   6.775   4.810   4.822 -0.5884 -0.6390 -0.6685
 4230TIP3    H112654   6.837   4.747   4.784 -0.9402 -0.2287 -1.9756
 4230TIP3    H212655   6.829   4.887   4.842 -0.3432 -0.9720 -0.0038
 4231TIP3   OH212656   1.451   6.369   1.943 -0.1736  0.0744 -0.4395
 4231TIP3    H112657   1.480   6.335   1.858  0.7299  0.0626 -0.1339
 4231TIP3    H212658   1.450   6.464   1.932  1.8699  0.1915  0.1147
 4232TIP3   OH212659   4.167   0.414   4.708 -0.2310 -0.0693 -0.0232
 4232TIP3    H112660   4.217   0.397   4.628  0.5605  2.5153 -0.1792
 4232TIP3    H212661   4.077   0.428   4.678 -0.4528 -1.5250 -0.1197
 4233TIP3   OH212662   7.141   3.339   2.362  0.1595  0.1762  0.1032
 4233TIP3    H112663   7.094   3.374   2.286 -1.3167 -0.9689  0.4353
 4233TIP3    H212664   7.212   3.401   2.377 -0.2624  1.0898 -1.4499
 4234TIP3   OH212665   4.303   4.478   1.370  0.0565 -0.2015 -0.1115
 4234TIP3    H112666   4.315   4.444   1.459 -0.4498  2.0406  0.8827
 4234TIP3    H212667   4.391   4.500   1.340  0.0663  0.7945  0.6093
 4235TIP3   OH212668   1.148   3.994   0.604 -0.4935  0.9797 -0.0338
 4235TIP3    H112669   1.088   3.973   0.532 -0.5945 -0.6918  0.4770
 4235TIP3    H212670   1.222   3.934   0.591  0.0102  1.4480  0.6104
 4236TIP3   OH212671   1.112   5.202   2.209  0.2461  0.4973  0.5137
 4236TIP3    H112672   1.074   5.162   2.132  1.2803 -0.5390  0.5146
 4236TIP3    H212673   1.111   5.296   2.191  4.2363  0.2139 -2.6911
 4237TIP3   OH212674   6.220   1.757   1.098  0.8559  0.7554  0.2974
 4237TIP3    H112675   6.281   1.815   1.144  1.4109  0.7397 -0.3953
 4237TIP3    H212676   6.261   1.671   1.102  0.4377  0.5664  0.5991
 4238TIP3   OH212677   1.242   1.063   2.989 -0.2824  0.0242 -0.1049
 4238TIP3    H112678   1.291   1.123   3.046 -2.9062  0.7089  1.6004
 4238TIP3    H212679   1.185   1.120   2.938 -1.5261 -0.8898  0.2396
 4239TIP3   OH212680   5.855   3.488   1.861 -0.1920  0.2648  0.0206
 4239TIP3    H112681   5.814   3.495   1.947 -0.9392  0.8090 -0.3643
 4239TIP3    H212682   5.856   3.578   1.827  4.0322  0.8486  1.1764
 4240TIP3   OH212683   6.758   4.128   4.076  0.3520 -0.1269 -0.5187
 4240TIP3    H112684   6.819   4.191   4.037 -0.9293  0.8175 -1.0359
 4240TIP3    H212685   6.671   4.159   4.051 -0.3842 -1.1229  0.6919
 4241TIP3   OH212686   4.228   4.095   4.129 -0.5592 -0.2951  0.0138
 4241TIP3    H112687   4.230   4.119   4.222 -2.2168 -1.6874  0.4489
 4241TIP3    H212688   4.204   4.176   4.084  2.6503  1.0510  0.4660
 4242TIP3   OH212689   5.811   4.348   5.114  0.1010  0.5575  0.4089
 4242TIP3    H112690   5.858   4.415   5.164 -2.0156  3.7187 -1.4974
 4242TIP3    H212691   5.740   4.320   5.171  0.0361  1.1602  0.6279
 4243TIP3   OH212692   2.731   6.116   1.248 -0.2414 -0.2349 -0.2142
 4243TIP3    H112693   2.795   6.156   1.189  1.1839 -2.1351 -0.0786
 4243TIP3    H212694   2.734   6.022   1.226 -1.7955 -0.5929  0.9296
 4244TIP3   OH212695   4.613   2.490   1.420 -0.5334 -0.1672 -0.0650
 4244TIP3    H112696   4.570   2.411   1.387 -1.1400 -2.1708  4.7188
 4244TIP3    H212697   4.700   2.461   1.448  1.0891  2.0689 -2.3689
 4245TIP3   OH212698   7.031   3.293   5.312 -0.1475 -0.3876 -0.0695
 4245TIP3    H112699   7.118   3.323   5.288  1.6768 -3.8625  1.5048
 4245TIP3    H212700   7.004   3.351   5.383  1.0129  0.5183 -0.3392
 4246TIP3   OH212701   3.349   5.593   2.085  0.3537 -0.0915 -0.2751
 4246TIP3    H112702   3.441   5.576   2.107  0.1741 -0.4008  0.2306
 4246TIP3    H212703   3.314   5.637   2.162  0.2919  0.7939 -0.7935
 4247TIP3   OH212704   6.130   3.247   5.577 -0.4612 -0.4445 -0.1505
 4247TIP3    H112705   6.040   3.248   5.611 -0.8142 -0.7817 -1.0418
 4247TIP3    H212706   6.163   3.160   5.602 -0.1249 -0.0622  0.7900
 4248TIP3   OH212707   3.040   1.593   1.807  0.9687 -0.0098  0.6005
 4248TIP3    H112708   2.997   1.537   1.742  2.1924 -0.5077  0.1878
 4248TIP3    H212709   3.064   1.672   1.759 -0.1050  0.5827  1.0069
 4249TIP3   OH212710   2.571   3.626   1.047  0.2575 -0.3724 -0.1989
 4249TIP3    H112711   2.661   3.626   1.080 -0.4032 -0.9265  1.6865
 4249TIP3    H212712   2.570   3.696   0.981  2.4292 -1.3437 -1.3900
 4250TIP3   OH212713   5.696   2.203   2.648 -0.3718 -0.0714  0.6750
 4250TIP3    H112714   5.782   2.236   2.622  0.1758 -0.6554  1.6721
 4250TIP3    H212715   5.641   2.215   2.570  0.0933  2.0534  0.5998
 4251TIP3   OH212716   2.356   1.236   1.737 -0.0811 -0.1011  0.6785
 4251TIP3    H112717   2.442   1.224   1.696 -0.3143  2.0030 -0.5931
 4251TIP3    H212718   2.299   1.175   1.690  0.2811  0.1292 -0.0877
 4252TIP3   OH212719   5.893   2.153   3.608 -0.4292  0.1182 -0.3337
 4252TIP3    H112720   5.957   2.129   3.675  0.2221  0.4598 -0.8131
 4252TIP3    H212721   5.943   2.152   3.526 -0.9181  0.8580 -0.6552
 4253TIP3   OH212722   4.479   2.438   1.980  0.0306  0.3030 -0.2738
 4253TIP3    H112723   4.556   2.495   1.977  0.5396 -0.4076 -2.0072
 4253TIP3    H212724   4.443   2.443   1.892  0.6706 -2.7738 -0.8249
 4254TIP3   OH212725   6.768   0.112   3.506 -0.1447 -0.1264 -0.5799
 4254TIP3    H112726   6.803   0.083   3.422 -0.4342 -0.0524 -0.7274
 4254TIP3    H212727   6.843   0.148   3.553  0.0929 -0.5115 -0.6573
 4255TIP3   OH212728   0.893   0.203   2.295  1.0160 -0.4429  0.0763
 4255TIP3    H112729   0.836   0.263   2.341  1.1267  0.4453 -0.8940
 4255TIP3    H212730   0.866   0.116   2.324 -1.9628 -0.1904 -1.5202
 4256TIP3   OH212731   2.204   2.318   0.843 -0.7122 -0.0054 -0.3794
 4256TIP3    H112732   2.216   2.246   0.905  0.5767  0.3869 -0.1521
 4256TIP3    H212733   2.199   2.396   0.898 -0.6906  0.2288 -0.7078
 4257TIP3   OH212734   0.879   5.626   0.838 -0.2438 -0.0692  0.4533
 4257TIP3    H112735   0.833   5.628   0.922 -0.4695  0.7111  0.3192
 4257TIP3    H212736   0.871   5.715   0.804 -0.3355 -0.4234 -0.4926
 4258TIP3   OH212737   1.984   1.710   5.004 -0.0437 -0.0116  0.1303
 4258TIP3    H112738   2.064   1.749   4.970  0.0518  1.0423  1.4687
 4258TIP3    H212739   2.008   1.678   5.091 -0.5629 -1.6025 -0.2590
 4259TIP3   OH212740   3.164   3.157   3.562  0.3621 -0.8865 -0.0752
 4259TIP3    H112741   3.110   3.151   3.483  1.0267 -2.2993 -0.4618
 4259TIP3    H212742   3.108   3.122   3.631 -0.0869 -0.0032  0.0185
 4260TIP3   OH212743   6.966   2.668   5.059 -0.0399 -0.1931 -0.2320
 4260TIP3    H112744   6.894   2.617   5.096 -0.3186  0.9874  0.9465
 4260TIP3    H212745   6.925   2.721   4.991 -0.5511  1.1529  1.0399
 4261TIP3   OH212746   3.740   0.470   3.853  0.7318  0.6273  0.0964
 4261TIP3    H112747   3.655   0.456   3.895  1.1840 -0.2858  0.7432
 4261TIP3    H212748   3.720   0.526   3.778 -0.6547 -0.6331 -0.5465
 4262TIP3   OH212749   2.844   6.387   0.618  0.7258 -0.0098  0.7421
 4262TIP3    H112750   2.790   6.457   0.654  0.0741 -0.0942 -0.0143
 4262TIP3    H212751   2.913   6.432   0.570  1.6168  0.1000  2.0966
 4263TIP3   OH212752   0.284   3.975   5.081  0.3808  0.3014 -0.5268
 4263TIP3    H112753   0.297   3.983   4.987 -0.4548  1.2670 -0.5748
 4263TIP3    H212754   0.222   3.904   5.092  0.1515  0.4714 -0.7321
 4264TIP3   OH212755   2.842   2.048   1.778  0.2052  0.4069 -0.2728
 4264TIP3    H112756   2.857   2.133   1.735 -1.3111  0.3093 -1.0785
 4264TIP3    H212757   2.748   2.047   1.796  0.4344 -0.5620  0.9416
 4265TIP3   OH212758   0.323   2.524   2.526 -0.0579 -0.2574 -0.1858
 4265TIP3    H112759   0.277   2.575   2.460 -0.0264 -0.2118 -0.1724
 4265TIP3    H212760   0.267   2.447   2.540 -0.7412  0.3731  0.6870
 4266TIP3   OH212761   6.425   6.082   4.320 -0.4014 -0.3990  0.0060
 4266TIP3    H112762   6.472   6.031   4.386  1.4106  0.3653 -0.6276
 4266TIP3    H212763   6.450   6.173   4.337 -1.2890 -0.0039 -0.6662
 4267TIP3   OH212764   6.329   1.997   5.126 -0.5364 -0.3416 -0.2270
 4267TIP3    H112765   6.287   1.957   5.202  0.0796 -1.4567 -0.4541
 4267TIP3    H212766   6.403   2.045   5.161  1.2482 -2.8479 -0.2466
 4268TIP3   OH212767   6.753   4.830   4.373  0.0116  0.2386  0.3682
 4268TIP3    H112768   6.802   4.913   4.375 -1.9464  1.6553 -2.8434
 4268TIP3    H212769   6.662   4.857   4.358 -0.7783 -2.5111 -0.1965
 4269TIP3   OH212770   6.158   3.598   3.996 -0.2243 -0.5484  0.4450
 4269TIP3    H112771   6.236   3.573   3.947 -0.7660  0.8105 -1.2116
 4269TIP3    H212772   6.184   3.591   4.088  0.8497 -3.1168  0.0427
 4270TIP3   OH212773   0.594   0.383   1.958 -0.2399  0.4369 -0.3246
 4270TIP3    H112774   0.508   0.344   1.975 -0.5487  1.0764 -0.4126
 4270TIP3    H212775   0.647   0.357   2.033  0.3774 -2.4629 -1.6165
 4271TIP3   OH212776   6.903   5.492   4.800 -0.1301  0.3161  0.3944
 4271TIP3    H112777   6.838   5.530   4.741 -0.8992 -1.0617  0.3292
 4271TIP3    H212778   6.854   5.431   4.854  1.2730 -1.6607 -0.4489
 4272TIP3   OH212779   4.873   2.500   2.580  0.0865 -0.0332 -0.4035
 4272TIP3    H112780   4.793   2.470   2.623  1.5275 -2.1168  1.0157
 4272TIP3    H212781   4.904   2.572   2.634  0.5348 -0.9674  0.6170
 4273TIP3   OH212782   7.097   3.868   1.527  0.5472 -0.3110 -0.2576
 4273TIP3    H112783   7.154   3.880   1.451 -0.2201 -2.0988 -1.1853
 4273TIP3    H212784   7.143   3.805   1.582  1.3474  1.3685  1.0974
 4274TIP3   OH212785   0.071   2.875   3.983  0.2593 -0.7478  0.1500
 4274TIP3    H112786  -0.007   2.900   3.933  0.9979 -1.1373 -1.2543
 4274TIP3    H212787   0.101   2.794   3.941  1.8564 -0.1916  0.1609
 4275TIP3   OH212788   1.374   5.763   0.509  0.4348  0.2377  0.4787
 4275TIP3    H112789   1.351   5.830   0.574 -2.1223  0.5599 -0.6232
 4275TIP3    H212790   1.345   5.681   0.549 -0.6133  0.3683  0.0150
 4276TIP3   OH212791   0.942   3.793   5.384 -0.0381  0.2819  0.4194
 4276TIP3    H112792   1.017   3.830   5.338  0.2177  0.6853  1.1538
 4276TIP3    H212793   0.866   3.825   5.335  0.1916  1.5032  0.8330
 4277TIP3   OH212794   4.113   3.270   3.164  0.0751  0.1379 -0.1107
 4277TIP3    H112795   4.147   3.348   3.208  2.1216 -0.8759  0.2120
 4277TIP3    H212796   4.191   3.219   3.142 -1.2112 -1.8541 -0.2801
 4278TIP3   OH212797   4.809   6.273   2.494 -0.7890 -0.2814 -0.4152
 4278TIP3    H112798   4.902   6.250   2.491 -0.4088  0.9620  0.8443
 4278TIP3    H212799   4.773   6.238   2.413  0.2398 -2.9759  0.1745
 4279TIP3   OH212800   4.833   4.524   0.604  0.0535 -0.6339 -0.2402
 4279TIP3    H112801   4.794   4.569   0.529  1.5829 -0.2730 -0.8519
 4279TIP3    H212802   4.818   4.431   0.587 -1.6159 -0.4706  0.1746
 4280TIP3   OH212803   3.626   4.999   4.073 -0.1259 -0.4811 -0.4067
 4280TIP3    H112804   3.631   4.996   4.169 -0.1737  1.3764 -0.3058
 4280TIP3    H212805   3.656   5.087   4.051 -1.8573 -0.2367 -1.9715
 4281TIP3   OH212806   1.226   0.112   2.895 -0.0606 -0.0632  0.1168
 4281TIP3    H112807   1.276   0.031   2.884 -1.0509 -0.7499  0.4954
 4281TIP3    H212808   1.154   0.087   2.954 -0.5232  1.0301  0.0296
 4282TIP3   OH212809   2.311   6.478   1.970  0.0054 -0.5125 -0.5111
 4282TIP3    H112810   2.367   6.403   1.989  1.3818  0.4556 -0.5909
 4282TIP3    H212811   2.258   6.451   1.895 -2.1475 -2.6963  1.6073
 4283TIP3   OH212812   5.454   5.341   0.984 -0.3972 -0.2382  0.7417
 4283TIP3    H112813   5.470   5.323   0.891  0.1730  0.0262  0.7894
 4283TIP3    H212814   5.364   5.310   0.998 -0.1279 -1.2566  0.3599
 4284TIP3   OH212815   1.174   6.287   1.877  0.0960 -0.2216  0.1676
 4284TIP3    H112816   1.150   6.216   1.938  0.2225  0.1931  0.7129
 4284TIP3    H212817   1.218   6.351   1.932  1.3942 -0.4113 -0.6059
 4285TIP3   OH212818   5.920   0.174   5.588  0.0324  0.2080  0.2505
 4285TIP3    H112819   5.839   0.150   5.543  0.1854  0.3619 -0.1167
 4285TIP3    H212820   5.958   0.091   5.616  0.9216 -0.0821 -1.6456
 4286TIP3   OH212821   0.367   4.358   1.609 -0.3216  0.1009 -0.1708
 4286TIP3    H112822   0.360   4.385   1.701  0.9124 -1.7452  0.5198
 4286TIP3    H212823   0.323   4.428   1.560  0.5209  2.0369  1.6651
 4287TIP3   OH212824   6.309   2.288   3.472 -0.5479 -0.1726 -0.1485
 4287TIP3    H112825   6.252   2.362   3.494 -0.0379  0.4258 -0.8038
 4287TIP3    H212826   6.384   2.298   3.530 -1.3062 -1.2421  1.0627
 4288TIP3   OH212827   6.507   2.139   4.485  0.4475  0.1319  0.0213
 4288TIP3    H112828   6.454   2.131   4.405 -0.0162 -0.2207  0.3550
 4288TIP3    H212829   6.446   2.176   4.550  0.7688  0.2432  0.2605
 4289TIP3   OH212830   5.416   0.021   0.061 -0.0273 -0.0964  0.1250
 4289TIP3    H112831   5.411   0.108   0.021  0.4756  0.0875  0.4465
 4289TIP3    H212832   5.495  -0.018   0.023  0.0791 -0.1779  0.4303
 4290TIP3   OH212833   2.948   1.764   2.050  0.1063 -0.2552 -0.1518
 4290TIP3    H112834   2.958   1.758   1.955  0.3199  0.5711 -0.1831
 4290TIP3    H212835   3.016   1.706   2.084  0.8403  0.3927 -0.4838
 4291TIP3   OH212836   2.598   6.555   4.266 -0.1827  0.4243 -0.4171
 4291TIP3    H112837   2.505   6.549   4.289 -0.0637 -0.9540 -0.1884
 4291TIP3    H212838   2.599   6.590   4.177 -0.8977  0.7683 -0.3012
 4292TIP3   OH212839   6.380   3.937   0.437  0.1188  0.7227 -0.3158
 4292TIP3    H112840   6.296   3.979   0.457  0.4242  0.5104  1.5469
 4292TIP3    H212841   6.435   4.008   0.404 -0.0065  1.3968  0.8840
 4293TIP3   OH212842   1.830   5.144   1.314  0.4745 -0.0728 -0.2138
 4293TIP3    H112843   1.912   5.183   1.285  0.7311 -0.7462 -0.4237
 4293TIP3    H212844   1.772   5.151   1.239 -0.1818  1.7696  0.4098
 4294TIP3   OH212845   1.726   3.269   1.850  0.0602  0.3519  0.2599
 4294TIP3    H112846   1.770   3.186   1.872 -1.6737 -0.9040 -0.8011
 4294TIP3    H212847   1.683   3.295   1.931  1.3389  0.7353  0.8509
 4295TIP3   OH212848   1.560   4.507   3.613  0.1056  0.1436  0.0022
 4295TIP3    H112849   1.496   4.454   3.565 -1.1356  1.5297  0.0735
 4295TIP3    H212850   1.624   4.443   3.645 -1.3243 -1.3145  0.0862
 4296TIP3   OH212851   2.307   5.326   0.000 -0.5671 -0.0077 -0.0109
 4296TIP3    H112852   2.297   5.399   0.061  0.9867 -1.1357  1.7323
 4296TIP3    H212853   2.218   5.307  -0.030 -0.8958  3.1739 -1.3107
 4297TIP3   OH212854   4.515   3.891   1.812 -0.8180 -0.5510 -0.0447
 4297TIP3    H112855   4.538   3.890   1.719 -0.3007 -1.4949  0.0838
 4297TIP3    H212856   4.500   3.984   1.832 -0.1519 -0.2528 -0.8781
 4298TIP3   OH212857   2.187   4.484   1.932 -0.1864  0.3201  0.3318
 4298TIP3    H112858   2.191   4.414   1.867  0.2692 -0.5677  1.2828
 4298TIP3    H212859   2.272   4.481   1.976 -0.6740  0.5555  1.3175
 4299TIP3   OH212860   6.836   3.439   5.498  0.0905  0.1896 -0.4587
 4299TIP3    H112861   6.818   3.470   5.587 -1.0702 -0.9627 -0.2675
 4299TIP3    H212862   6.771   3.484   5.443 -2.0608 -2.2520 -0.0865
 4300TIP3   OH212863   3.130   3.411   2.208  0.5102  0.1280  0.5083
 4300TIP3    H112864   3.101   3.343   2.269  0.0612  0.9300  1.2154
 4300TIP3    H212865   3.084   3.490   2.237  1.0001  0.7288 -0.3149
 4301TIP3   OH212866   3.493   1.868   3.796  0.3138 -0.1971 -0.1944
 4301TIP3    H112867   3.523   1.823   3.717 -0.2892 -0.3196 -0.3562
 4301TIP3    H212868   3.479   1.798   3.860 -3.2033 -0.6288 -1.2415
 4302TIP3   OH212869   4.098   3.081   0.814 -0.0824  0.4367  0.3606
 4302TIP3    H112870   4.138   3.087   0.727  2.1354 -2.7532  0.9585
 4302TIP3    H212871   4.021   3.025   0.800 -0.6243  1.1974  0.2440
 4303TIP3   OH212872   0.737   5.400   3.620  0.7303  0.2669 -0.7831
 4303TIP3    H112873   0.799   5.328   3.613 -0.6118 -1.2093  1.3275
 4303TIP3    H212874   0.673   5.386   3.550  0.6155 -0.4600 -0.5335
 4304TIP3   OH212875   5.632   2.299   5.612 -0.4335  0.0408  0.5204
 4304TIP3    H112876   5.543   2.272   5.635 -0.1372 -1.3149  0.1614
 4304TIP3    H212877   5.682   2.218   5.611  0.6711  0.7058  0.0907
 4305TIP3   OH212878   4.283   2.247   3.592 -0.4735  0.1820 -0.1552
 4305TIP3    H112879   4.191   2.243   3.567 -0.5955  1.3970  0.0240
 4305TIP3    H212880   4.326   2.180   3.539 -1.3630  0.0052 -0.6695
 4306TIP3   OH212881   2.836   0.312   3.629 -0.4274 -0.1467 -0.2618
 4306TIP3    H112882   2.825   0.328   3.722  0.5204 -2.1260  0.2339
 4306TIP3    H212883   2.821   0.398   3.588 -0.1990  0.9027  1.7401
 4307TIP3   OH212884   0.779   6.468   4.041  0.0131  0.7238  0.1528
 4307TIP3    H112885   0.727   6.444   3.964  0.2759 -0.2750  0.2743
 4307TIP3    H212886   0.829   6.544   4.013 -0.5800  0.9254 -0.3724
 4308TIP3   OH212887   2.691   5.552   1.036 -0.3730 -0.4443 -0.0588
 4308TIP3    H112888   2.772   5.591   1.003 -0.9249  2.0884  1.3194
 4308TIP3    H212889   2.701   5.552   1.131 -2.1186  0.3417  0.1677
 4309TIP3   OH212890   4.669   1.107   3.181  0.1973  0.0504 -0.6441
 4309TIP3    H112891   4.620   1.083   3.102  0.4214 -0.6459 -0.5778
 4309TIP3    H212892   4.605   1.098   3.252  0.0688  0.4160 -0.7098
 4310TIP3   OH212893   4.068   0.137   0.019  0.2420  0.2095 -0.2012
 4310TIP3    H112894   4.007   0.188  -0.035  0.5282 -0.3609 -1.0864
 4310TIP3    H212895   4.013   0.074   0.065  0.2295 -0.8742 -1.6499
 4311TIP3   OH212896   1.211   2.530   3.251 -0.0556  0.2859 -0.5602
 4311TIP3    H112897   1.227   2.608   3.304  0.6330  0.8490 -1.5716
 4311TIP3    H212898   1.270   2.539   3.177 -0.0585 -1.1493 -0.7563
 4312TIP3   OH212899   3.093   1.118   2.328  0.4528 -0.3045 -0.1259
 4312TIP3    H112900   3.094   1.118   2.233  1.3773  0.3583 -0.1333
 4312TIP3    H212901   3.162   1.056   2.352  0.5815 -0.0710  0.1082
 4313TIP3   OH212902   6.726   5.382   2.063 -0.1004 -0.2898  0.0615
 4313TIP3    H112903   6.770   5.436   1.997 -0.4401 -1.6255 -1.3321
 4313TIP3    H212904   6.697   5.305   2.014 -3.3292  0.1544  1.0589
 4314TIP3   OH212905   4.531   4.165   0.716 -0.0555 -0.1028  0.8261
 4314TIP3    H112906   4.500   4.234   0.657 -1.2559 -1.8505 -0.7062
 4314TIP3    H212907   4.452   4.134   0.760  0.4682 -0.4955  1.5057
 4315TIP3   OH212908   1.089   2.477   2.822 -0.2693 -0.2762  0.1139
 4315TIP3    H112909   1.020   2.452   2.760 -1.3987  2.0408  0.3418
 4315TIP3    H212910   1.161   2.416   2.803 -1.6407 -1.5073 -1.4692
 4316TIP3   OH212911   3.751   0.899   3.843 -0.2995 -0.3513 -0.8911
 4316TIP3    H112912   3.666   0.921   3.881  1.2462  0.3339  2.6202
 4316TIP3    H212913   3.786   0.983   3.814  0.0420 -0.2558 -0.2322
 4317TIP3   OH212914   2.042   1.548   2.263 -0.0101  0.8662  0.0861
 4317TIP3    H112915   1.947   1.546   2.264 -0.0140 -1.2051  0.2214
 4317TIP3    H212916   2.068   1.500   2.341  1.0600 -1.9004 -1.8160
 4318TIP3   OH212917   3.192   2.988   1.827 -0.0236 -0.1570  0.6012
 4318TIP3    H112918   3.189   2.991   1.923 -3.0552 -1.0874  0.6279
 4318TIP3    H212919   3.183   2.895   1.806  0.8138  0.0144 -0.6293
 4319TIP3   OH212920   3.225   5.288   1.592 -0.2297 -0.6178  0.1820
 4319TIP3    H112921   3.235   5.261   1.683 -3.1513 -0.1583  0.7495
 4319TIP3    H212922   3.149   5.238   1.561 -2.0378  2.3442 -0.5684
 4320TIP3   OH212923   0.694   3.721   2.333  0.0722  0.1753  0.1237
 4320TIP3    H112924   0.627   3.708   2.266 -1.1581  0.7444  1.1809
 4320TIP3    H212925   0.696   3.815   2.348  0.6477  0.1023  0.5590
 4321TIP3   OH212926   3.206   5.625   0.143 -0.1593  0.4352 -0.3813
 4321TIP3    H112927   3.269   5.660   0.208  0.5078  1.4042 -1.5055
 4321TIP3    H212928   3.144   5.697   0.130 -0.3130  0.2268 -0.7860
 4322TIP3   OH212929   6.279   5.914   2.185  0.4920 -0.3153 -0.0537
 4322TIP3    H112930   6.248   5.826   2.166  0.3718  0.0406 -1.6086
 4322TIP3    H212931   6.338   5.935   2.113  0.6048  0.8399  0.3525
 4323TIP3   OH212932   5.804   5.930   0.882 -0.1495 -0.1104 -0.1966
 4323TIP3    H112933   5.726   5.960   0.834 -0.1787  0.1727  0.0229
 4323TIP3    H212934   5.779   5.938   0.974  1.0976  2.7539 -0.0060
 4324TIP3   OH212935   6.321   2.911   5.641  0.4919  0.3776 -0.3597
 4324TIP3    H112936   6.405   2.865   5.642  1.4552  2.0513 -0.8242
 4324TIP3    H212937   6.344   3.003   5.634 -1.4217  0.7717 -3.2433
 4325TIP3   OH212938   2.809   5.428   3.055 -0.4679  0.2123  0.6216
 4325TIP3    H112939   2.746   5.381   3.001 -0.5199  1.6929 -0.6492
 4325TIP3    H212940   2.773   5.422   3.144 -1.7480  0.0007  0.1058
 4326TIP3   OH212941   7.019   2.928   5.707 -0.4099  0.3456  0.0003
 4326TIP3    H112942   7.058   2.993   5.764  2.0691 -1.1200  0.1228
 4326TIP3    H212943   6.992   2.977   5.629 -3.4369  2.2967  2.0675
 4327TIP3   OH212944   1.776   1.697   5.508 -0.6072  0.1260  0.1297
 4327TIP3    H112945   1.782   1.792   5.501  0.4953  0.0930  0.5455
 4327TIP3    H212946   1.784   1.679   5.602  1.0383 -0.4821 -0.1048
 4328TIP3   OH212947   0.282   1.834   4.752  0.1023 -0.2785  0.0048
 4328TIP3    H112948   0.189   1.815   4.747 -0.0351  0.3320  0.2283
 4328TIP3    H212949   0.320   1.759   4.797 -0.4274 -0.0481  0.8370
 4329TIP3   OH212950   5.089   1.602   0.743 -0.7527 -0.2102  0.4810
 4329TIP3    H112951   5.131   1.524   0.709  1.2784 -0.2580  2.8308
 4329TIP3    H212952   5.000   1.574   0.766 -0.0742 -1.8394  1.2320
 4330TIP3   OH212953   3.126   3.686   0.998 -0.3114 -0.1954  0.9317
 4330TIP3    H112954   3.137   3.627   1.072 -2.9606 -1.8564  0.1407
 4330TIP3    H212955   3.206   3.738   0.996  1.2407 -2.3369  2.9501
 4331TIP3   OH212956   0.551   2.808   4.523  0.7169  0.0583  0.0495
 4331TIP3    H112957   0.459   2.785   4.516 -0.3265  3.7029 -0.0545
 4331TIP3    H212958   0.591   2.773   4.443 -1.2161  0.8777 -1.3467
 4332TIP3   OH212959   2.106   3.785   5.303  0.7267  0.1066 -0.3670
 4332TIP3    H112960   2.124   3.762   5.394  0.1986  2.1769  0.3184
 4332TIP3    H212961   2.011   3.774   5.294  0.8568 -0.6867 -0.8689
 4333TIP3   OH212962   0.814   5.648   2.087 -0.7346 -1.0236  0.2582
 4333TIP3    H112963   0.848   5.667   2.000  1.6824 -0.3135  1.2636
 4333TIP3    H212964   0.767   5.565   2.077  2.2564 -2.7130 -1.1303
 4334TIP3   OH212965   4.751   5.854   2.027 -0.4183  0.0170 -0.3277
 4334TIP3    H112966   4.845   5.847   2.013 -0.3785 -2.4264  0.6102
 4334TIP3    H212967   4.712   5.805   1.954 -0.8207 -0.9677  0.5241
 4335TIP3   OH212968   0.686   2.462   2.832  0.1500 -0.0945 -0.2036
 4335TIP3    H112969   0.746   2.535   2.822  0.5703  0.2238  3.2335
 4335TIP3    H212970   0.601   2.502   2.847  0.0238 -0.3694 -0.1748
 4336TIP3   OH212971   7.059   3.480   2.136  0.6370 -0.4336  0.1718
 4336TIP3    H112972   6.967   3.478   2.163  0.7802 -1.2144  0.6305
 4336TIP3    H212973   7.092   3.563   2.171 -0.4016  0.8718 -1.7879
 4337TIP3   OH212974   6.431   2.578   1.295  0.0798 -0.5145  0.4998
 4337TIP3    H112975   6.462   2.488   1.281  1.9995  0.1665  0.0826
 4337TIP3    H212976   6.473   2.605   1.377 -2.3457 -0.7286  1.9225
 4338TIP3   OH212977   4.077   5.309   1.501 -0.0637 -0.0777  0.1743
 4338TIP3    H112978   4.101   5.373   1.568 -2.4445 -0.4612  1.4905
 4338TIP3    H212979   4.046   5.362   1.427  0.5810  0.3082  0.1704
 4339TIP3   OH212980   2.442   4.622   2.878 -0.5214  0.4594 -0.0677
 4339TIP3    H112981   2.457   4.716   2.868  2.0513  0.3852  2.0655
 4339TIP3    H212982   2.522   4.582   2.843 -1.0298 -0.8594  0.2534
 4340TIP3   OH212983   1.948   5.691   0.113 -0.3967  0.1082  0.4060
 4340TIP3    H112984   2.011   5.744   0.064  0.0039 -0.0994  0.6937
 4340TIP3    H212985   1.919   5.625   0.051 -0.0356 -0.0350  0.3867
 4341TIP3   OH212986   5.340   1.697   0.756  0.3317  0.8972 -0.6793
 4341TIP3    H112987   5.331   1.792   0.754 -0.1186  0.8959  0.4406
 4341TIP3    H212988   5.251   1.664   0.768  0.7056  0.4845  1.5239
 4342TIP3   OH212989   6.109   5.378   1.713 -0.1606 -0.0670  0.3969
 4342TIP3    H112990   6.154   5.303   1.676 -1.4595 -0.4837 -0.3956
 4342TIP3    H212991   6.177   5.425   1.762  0.7968 -1.4163  0.4148
 4343TIP3   OH212992   6.734   4.455   2.317  0.2881  0.6710 -0.6062
 4343TIP3    H112993   6.644   4.471   2.345  0.2098 -1.8399  0.8284
 4343TIP3    H212994   6.786   4.521   2.363 -0.5396  0.3832  0.7827
 4344TIP3   OH212995   3.267   5.249   0.517 -0.0738  0.1555  0.1178
 4344TIP3    H112996   3.205   5.251   0.445  0.7040 -0.3143 -0.5808
 4344TIP3    H212997   3.353   5.249   0.475  0.3877 -0.6741  1.0090
 4345TIP3   OH212998   3.070   4.709   4.245  0.0604  0.1632  0.2022
 4345TIP3    H112999   3.110   4.796   4.252  0.4083  0.2787 -2.3082
 4345TIP3    H213000   2.976   4.726   4.238  0.0124  0.2422  1.0174
 4346TIP3   OH213001   5.545   4.911   1.537 -0.1108  0.0458  0.6011
 4346TIP3    H113002   5.594   4.860   1.601 -0.6738 -0.0545  0.9540
 4346TIP3    H213003   5.591   4.897   1.455  0.1299 -0.4875  0.8243
 4347TIP3   OH213004   3.229   4.156   0.655  0.0973  0.1048  0.0973
 4347TIP3    H113005   3.153   4.105   0.684  0.9128 -1.0352  0.3040
 4347TIP3    H213006   3.234   4.139   0.561  0.5235 -0.4255  0.2109
 4348TIP3   OH213007   1.649   5.258   5.439 -0.7363  0.2308 -0.0427
 4348TIP3    H113008   1.612   5.215   5.363 -0.0161  0.1165 -0.3407
 4348TIP3    H213009   1.739   5.226   5.443 -1.3343 -1.4291  2.0776
 4349TIP3   OH213010   6.539   1.084   3.221  0.0322 -0.2833  0.0268
 4349TIP3    H113011   6.486   1.161   3.241 -0.9055 -1.0703  0.6656
 4349TIP3    H213012   6.491   1.040   3.151  0.7525 -0.1068 -0.5878
 4350TIP3   OH213013   3.129   3.475   2.842 -0.8667 -0.1298 -0.9174
 4350TIP3    H113014   3.107   3.568   2.833 -1.5921 -0.4473 -2.7867
 4350TIP3    H213015   3.211   3.475   2.892 -0.7773  1.5136 -0.9995
 4351TIP3   OH213016   0.474   3.331   3.532 -0.4787  0.2659  0.3545
 4351TIP3    H113017   0.513   3.413   3.563  1.6476 -0.4076 -0.3211
 4351TIP3    H213018   0.458   3.347   3.439 -0.4016  0.0471  0.3039
 4352TIP3   OH213019   2.077   6.577   2.896  0.1065 -0.3499  0.6895
 4352TIP3    H113020   2.001   6.524   2.922  0.2774 -0.2196  1.4992
 4352TIP3    H213021   2.098   6.628   2.975 -1.2044  2.3476 -0.5779
 4353TIP3   OH213022   6.712   2.823   5.207  0.1066  0.3713  0.0680
 4353TIP3    H113023   6.764   2.898   5.179  2.3395 -0.4679  1.5967
 4353TIP3    H213024   6.625   2.859   5.226  0.3396  2.0332 -1.7197
 4354TIP3   OH213025   1.894   6.283   2.213 -0.5079 -0.5817  0.0818
 4354TIP3    H113026   1.870   6.285   2.120 -2.3318 -0.4094  0.5329
 4354TIP3    H213027   1.985   6.251   2.213 -0.2621  0.0007 -1.7833
 4355TIP3   OH213028   4.484   3.900   2.642 -0.2129 -0.1020  0.8859
 4355TIP3    H113029   4.484   3.817   2.595  1.1362 -0.7065  1.8981
 4355TIP3    H213030   4.537   3.958   2.587  0.0048 -0.3303  0.8488
 4356TIP3   OH213031   2.885   2.272   3.400 -0.3347 -0.5440 -0.1540
 4356TIP3    H113032   2.889   2.351   3.453  0.7403 -1.1372  0.6963
 4356TIP3    H213033   2.952   2.215   3.437  1.1529 -0.6374 -2.7130
 4357TIP3   OH213034   5.727   6.134   3.464 -0.1156  0.0033 -0.4524
 4357TIP3    H113035   5.674   6.200   3.510  1.1258  0.9621 -0.3407
 4357TIP3    H213036   5.668   6.096   3.400 -1.3496 -0.0030  0.6554
 4358TIP3   OH213037   6.680   0.810   1.808  0.3625 -0.3142  0.4225
 4358TIP3    H113038   6.736   0.754   1.862  1.1940 -0.3312 -0.4201
 4358TIP3    H213039   6.741   0.854   1.749 -0.3694  0.9016  0.5570
 4359TIP3   OH213040   0.024   2.739   1.914 -0.2536  0.1101 -0.2667
 4359TIP3    H113041  -0.058   2.691   1.925 -0.0837 -0.0918  0.1099
 4359TIP3    H213042   0.061   2.744   2.002 -0.7130  1.7270 -0.1318
 4360TIP3   OH213043   3.290   0.975   0.860 -0.4962 -0.5157 -0.3381
 4360TIP3    H113044   3.286   0.879   0.861 -1.3654 -0.5862 -2.7683
 4360TIP3    H213045   3.294   0.997   0.767 -2.0151  1.8430  0.0719
 4361TIP3   OH213046   0.751   1.381   1.233 -0.1933 -0.4688  0.1613
 4361TIP3    H113047   0.683   1.366   1.298 -0.6319  0.3622 -0.0849
 4361TIP3    H213048   0.761   1.476   1.231  1.2202 -0.5955  0.4298
 4362TIP3   OH213049   0.081   6.707   3.408  0.0200 -0.1737 -0.4668
 4362TIP3    H113050   0.116   6.688   3.495  0.6677 -1.3340 -0.9494
 4362TIP3    H213051   0.031   6.787   3.419  0.2396 -0.2019  0.9353
 4363TIP3   OH213052   6.041   0.017   1.315 -0.3803 -0.3263  0.5656
 4363TIP3    H113053   6.068   0.059   1.396  1.5514  0.6104 -0.4739
 4363TIP3    H213054   5.952   0.049   1.299  0.4630  2.3119  0.5869
 4364TIP3   OH213055   4.122   5.597   1.594 -0.2754 -0.2720  0.5175
 4364TIP3    H113056   4.200   5.651   1.581  0.0501 -1.1335 -1.4961
 4364TIP3    H213057   4.054   5.641   1.542 -0.2383 -1.2770 -0.4072
 4365TIP3   OH213058   6.554   0.413   3.381  0.7111  0.1512 -0.1204
 4365TIP3    H113059   6.572   0.495   3.334  0.2443  0.2680 -0.0937
 4365TIP3    H213060   6.482   0.434   3.440  0.9792 -0.1276  0.3060
 4366TIP3   OH213061   6.236   5.971   3.446  0.1956 -0.1183  0.0557
 4366TIP3    H113062   6.230   5.888   3.494 -0.3295 -0.6278 -0.8681
 4366TIP3    H213063   6.147   5.986   3.415 -0.0230  1.4963  1.3472
 4367TIP3   OH213064   4.448   3.705   2.169 -0.5051 -0.3081 -0.0300
 4367TIP3    H113065   4.443   3.667   2.081 -1.8149  0.9377 -0.5440
 4367TIP3    H213066   4.356   3.717   2.194 -0.1365  0.6947  0.9005
 4368TIP3   OH213067   2.104   2.266   5.170 -0.1856  0.4340  0.5977
 4368TIP3    H113068   2.052   2.242   5.094 -2.2517 -1.4296  2.4322
 4368TIP3    H213069   2.191   2.230   5.153 -0.7870 -0.4920 -0.6223
 4369TIP3   OH213070   6.055   6.357   3.149 -0.7690 -0.3228 -0.8476
 4369TIP3    H113071   6.143   6.326   3.172 -0.3383 -0.8826 -3.0377
 4369TIP3    H213072   6.049   6.345   3.054 -2.4751  1.6240 -1.0520
 4370TIP3   OH213073   4.783   5.469   2.892  0.3551  0.2939  0.1467
 4370TIP3    H113074   4.758   5.554   2.928 -0.1353 -0.1997  1.0187
 4370TIP3    H213075   4.722   5.453   2.821  0.5757  0.7601 -0.1470
 4371TIP3   OH213076   6.225   4.374   1.410 -0.0106 -0.0296 -0.0257
 4371TIP3    H113077   6.316   4.371   1.439  0.3181  1.9579 -0.7200
 4371TIP3    H213078   6.230   4.360   1.315 -0.6500 -1.8873  0.1730
 4372TIP3   OH213079   7.102   6.569   5.905 -0.5280  0.2335 -0.3842
 4372TIP3    H113080   7.091   6.570   5.810  2.0643  0.9319 -0.7551
 4372TIP3    H213081   7.109   6.476   5.927  3.9313  0.0039 -1.7462
 4373TIP3   OH213082   5.320   4.077   3.360  0.2226 -0.2857  0.1979
 4373TIP3    H113083   5.378   4.115   3.426 -1.1081  2.8938 -0.3069
 4373TIP3    H213084   5.364   4.092   3.277  1.4955 -3.5436  0.1125
 4374TIP3   OH213085   7.084   4.167   1.455 -0.4255 -0.2863 -0.3921
 4374TIP3    H113086   7.177   4.185   1.470 -0.5697 -0.3855  0.7578
 4374TIP3    H213087   7.077   4.151   1.361  0.9013 -1.2341 -0.3647
 4375TIP3   OH213088   7.156   0.884   0.032  0.1967  0.7705 -0.3837
 4375TIP3    H113089   7.148   0.852   0.122  1.7535 -0.3991 -0.6182
 4375TIP3    H213090   7.155   0.805  -0.021 -0.0864  1.4135 -1.3522
 4376TIP3   OH213091   0.965   0.158   4.481 -0.5127  0.7519  0.0968
 4376TIP3    H113092   0.965   0.101   4.403  0.1672  1.6247 -0.5604
 4376TIP3    H213093   1.048   0.205   4.476  0.1571 -0.1197  2.0827
 4377TIP3   OH213094   0.621   3.550   0.376 -0.1579  0.0253  0.0112
 4377TIP3    H113095   0.543   3.495   0.381 -0.4665  0.4267 -0.2859
 4377TIP3    H213096   0.588   3.639   0.377  0.2667  0.1970 -0.5342
 4378TIP3   OH213097   0.831   0.345   1.465  0.0471 -0.0279  0.0940
 4378TIP3    H113098   0.761   0.348   1.531  0.6279 -1.9395  0.8646
 4378TIP3    H213099   0.785   0.325   1.383 -0.5261  0.9760  0.1517
 4379TIP3   OH213100   3.182   0.889   1.908 -0.9705 -0.2373  0.1092
 4379TIP3    H113101   3.276   0.877   1.922 -0.9348 -0.0403  0.0453
 4379TIP3    H213102   3.165   0.978   1.937 -1.1542 -0.3033  0.2024
 4380TIP3   OH213103   1.572   4.468   5.072 -0.3900 -0.5568  0.6090
 4380TIP3    H113104   1.521   4.548   5.059 -0.0740 -0.3488  0.6290
 4380TIP3    H213105   1.508   4.397   5.067 -0.7921 -0.2565  1.3426
 4381TIP3   OH213106   0.008   1.549   4.578  0.1921  0.4486 -0.3414
 4381TIP3    H113107  -0.075   1.501   4.568 -0.6442  1.6209  0.5988
 4381TIP3    H213108   0.074   1.481   4.593 -0.7774 -0.4655 -0.0857
 4382TIP3   OH213109   5.869   6.218   5.617 -0.3309  0.1905  0.4413
 4382TIP3    H113110   5.841   6.273   5.691  1.6463 -0.8829  2.0798
 4382TIP3    H213111   5.861   6.128   5.650  0.3715 -0.3207 -0.7324
 4383TIP3   OH213112   6.886   2.587   2.814  0.2715 -0.4313  0.0189
 4383TIP3    H113113   6.909   2.541   2.733  0.0217 -0.7472  0.1231
 4383TIP3    H213114   6.969   2.592   2.863  0.9849  1.9097 -1.2748
 4384TIP3   OH213115   0.992   2.466   3.075  0.2034 -0.2357 -0.5614
 4384TIP3    H113116   1.018   2.501   2.990  0.4042  1.6075  0.2172
 4384TIP3    H213117   1.052   2.506   3.138 -1.5715  0.5359  0.7514
 4385TIP3   OH213118   4.684   6.407   0.948 -0.6591 -1.2398 -0.3118
 4385TIP3    H113119   4.617   6.370   1.006 -1.0584 -1.3377 -0.8300
 4385TIP3    H213120   4.635   6.438   0.872 -0.0208 -2.1121 -1.1009
 4386TIP3   OH213121   1.682   2.482   2.296  0.5321  0.0393  0.3787
 4386TIP3    H113122   1.729   2.431   2.362  0.2482  1.1382  1.4719
 4386TIP3    H213123   1.752   2.520   2.242  0.7597 -1.0696 -0.1457
 4387TIP3   OH213124   1.498   6.723   3.830 -0.2478 -0.0617  0.4705
 4387TIP3    H113125   1.501   6.800   3.774 -1.0718 -0.7948 -0.6384
 4387TIP3    H213126   1.405   6.699   3.833 -0.2534  0.0264  2.2791
 4388TIP3   OH213127   6.094   6.618   1.034  0.3329 -0.2529  0.1810
 4388TIP3    H113128   6.054   6.635   1.119  0.2870 -0.8491  0.2845
 4388TIP3    H213129   6.185   6.597   1.054 -0.0668 -2.0520  0.2611
 4389TIP3   OH213130   0.382   3.537   5.625 -0.3937 -0.2633 -0.1589
 4389TIP3    H113131   0.412   3.575   5.707 -0.9925  2.8960 -1.2811
 4389TIP3    H213132   0.288   3.551   5.624 -0.7990 -2.5545 -0.3669
 4390TIP3   OH213133   5.234   5.888   4.536 -0.4697 -0.1192  0.5333
 4390TIP3    H113134   5.269   5.847   4.457 -0.9946  1.8042 -0.7703
 4390TIP3    H213135   5.263   5.831   4.608  1.5407 -0.9559 -0.8650
 4391TIP3   OH213136   3.053   3.360   4.707  0.2146  0.5094  0.4238
 4391TIP3    H113137   3.002   3.283   4.682  2.2902 -0.4313 -1.3086
 4391TIP3    H213138   3.058   3.412   4.627 -0.5245  2.1225  1.3805
 4392TIP3   OH213139   0.585   4.283   1.449 -0.5268 -0.0439 -0.2952
 4392TIP3    H113140   0.517   4.337   1.490  0.4541  0.6725  0.4289
 4392TIP3    H213141   0.541   4.242   1.374 -2.1492 -0.7864  1.0127
 4393TIP3   OH213142   1.920   3.098   4.801 -0.1448  0.3153  0.7243
 4393TIP3    H113143   1.867   3.018   4.798  1.8799 -1.1255 -2.0994
 4393TIP3    H213144   1.862   3.167   4.770 -1.3659 -0.4662  1.1929
 4394TIP3   OH213145   1.886   3.492   3.716 -0.4311  0.3741 -0.3457
 4394TIP3    H113146   1.965   3.465   3.763  0.2948  0.8855 -1.2218
 4394TIP3    H213147   1.814   3.462   3.770  0.3551 -0.9151  0.0295
 4395TIP3   OH213148   1.946   5.184   4.836 -0.7115  0.0067  0.0900
 4395TIP3    H113149   1.988   5.152   4.916 -0.4115  0.5991  0.1743
 4395TIP3    H213150   1.975   5.275   4.828 -0.8729  0.0059 -0.6024
 4396TIP3   OH213151   5.264   0.685   5.260  0.2368 -0.1463  0.4139
 4396TIP3    H113152   5.303   0.604   5.226  0.1186 -0.3941  0.8684
 4396TIP3    H213153   5.206   0.714   5.189 -0.5974 -1.0759  0.6852
 4397TIP3   OH213154   4.652   0.378   1.427 -0.1826 -0.4822 -0.4823
 4397TIP3    H113155   4.626   0.439   1.358 -0.8209  0.1089  0.2532
 4397TIP3    H213156   4.746   0.366   1.416  0.0249  0.9537 -0.4112
 4398TIP3   OH213157   2.669   5.263   0.716  0.0016  0.4975  0.3210
 4398TIP3    H113158   2.749   5.311   0.737  0.2820  0.7864 -1.2873
 4398TIP3    H213159   2.605   5.332   0.693 -0.4934  0.2314  0.8620
 4399TIP3   OH213160   0.504   1.418   0.778  0.2364 -0.6681 -0.3404
 4399TIP3    H113161   0.438   1.413   0.708  1.2040 -1.7358 -1.2152
 4399TIP3    H213162   0.503   1.510   0.805 -0.4618 -0.3204 -1.4728
 4400TIP3   OH213163   2.117   0.997   0.700  0.0095  0.8129  0.2167
 4400TIP3    H113164   2.075   0.957   0.623  0.2922 -0.6114  0.7733
 4400TIP3    H213165   2.188   1.050   0.663  0.5904 -0.4094 -0.5157
 4401TIP3   OH213166   2.807   2.659   2.068  0.6549  0.1343 -0.5306
 4401TIP3    H113167   2.799   2.676   2.162  2.4988  0.2803 -0.3776
 4401TIP3    H213168   2.794   2.745   2.027  1.5835  0.4021 -0.2822
 4402TIP3   OH213169   3.110   0.358   4.761 -0.2388  1.1032 -0.1328
 4402TIP3    H113170   3.179   0.292   4.758 -0.6903  0.6401 -0.6604
 4402TIP3    H213171   3.142   0.430   4.707 -0.8707  0.1696 -1.8304
 4403TIP3   OH213172   2.628   0.720   4.003  0.1597  0.4484  0.1841
 4403TIP3    H113173   2.716   0.697   4.033 -0.3617 -3.0092 -0.4583
 4403TIP3    H213174   2.641   0.756   3.916  0.9306 -1.9389 -0.7770
 4404TIP3   OH213175   0.655   1.261   1.810  0.1474  0.1922 -0.5065
 4404TIP3    H113176   0.671   1.206   1.887 -2.7391  1.1802  0.9811
 4404TIP3    H213177   0.592   1.211   1.758  0.0428  0.6594 -0.8362
 4405TIP3   OH213178   6.399   3.744   2.129 -0.1506 -0.3437  0.2856
 4405TIP3    H113179   6.416   3.650   2.136 -0.7630 -0.4044  1.2425
 4405TIP3    H213180   6.317   3.750   2.081  0.6999 -0.2119 -1.1935
 4406TIP3   OH213181   4.725   2.079   3.020  0.4300  0.6619  0.1507
 4406TIP3    H113182   4.797   2.031   3.061 -0.5725  0.5477  1.8583
 4406TIP3    H213183   4.730   2.167   3.058 -0.1764  0.7165  0.1152
 4407TIP3   OH213184   5.210   6.082   5.429 -0.1441  0.0138  0.1587
 4407TIP3    H113185   5.173   6.019   5.491  0.5200  1.2202  1.8840
 4407TIP3    H213186   5.304   6.065   5.431 -0.1653 -0.2913 -0.9783
 4408TIP3   OH213187   3.681   3.254   0.897  0.5968  0.2645 -0.1268
 4408TIP3    H113188   3.638   3.262   0.982 -1.7925 -1.6796 -1.0530
 4408TIP3    H213189   3.731   3.172   0.902 -0.2815 -0.3341 -0.8586
 4409TIP3   OH213190   6.566   5.073   3.799  0.5317 -0.2344  0.8259
 4409TIP3    H113191   6.613   5.133   3.741 -0.2511 -1.1554 -0.8399
 4409TIP3    H213192   6.611   4.989   3.786 -1.7317 -1.2646 -1.1921
 4410TIP3   OH213193   1.482   5.567   5.902  0.8027 -0.0898 -0.0744
 4410TIP3    H113194   1.455   5.659   5.905 -0.4353 -0.4208 -0.3615
 4410TIP3    H213195   1.475   5.543   5.809  0.2734 -0.6991  0.1122
 4411TIP3   OH213196   6.959   3.085   3.590  0.8048 -0.3272 -0.7624
 4411TIP3    H113197   6.913   3.001   3.584 -0.4526  0.3660 -1.0124
 4411TIP3    H213198   6.915   3.131   3.662  2.1836 -0.2830  0.0957
 4412TIP3   OH213199   3.876   5.290   3.806 -0.2019 -0.0181 -0.3537
 4412TIP3    H113200   3.890   5.383   3.785 -0.2460  0.3827  1.2741
 4412TIP3    H213201   3.961   5.258   3.834 -0.7821  0.3847  2.0710
 4413TIP3   OH213202   0.684   1.278   2.860 -0.7976 -0.6005 -0.4364
 4413TIP3    H113203   0.631   1.313   2.788  1.8505  1.8905 -1.3832
 4413TIP3    H213204   0.700   1.352   2.917  1.0161 -1.3798  0.1652
 4414TIP3   OH213205   3.310   5.360   2.369 -0.8191 -0.1682  0.5089
 4414TIP3    H113206   3.302   5.449   2.404 -1.1180 -0.0160  0.0664
 4414TIP3    H213207   3.288   5.369   2.276 -1.4148 -0.8037  0.5773
 4415TIP3   OH213208   0.598   3.563   3.689  0.3128  0.0920 -0.4698
 4415TIP3    H113209   0.530   3.564   3.756  0.7168 -1.1879 -0.0145
 4415TIP3    H213210   0.654   3.638   3.711  0.4143 -0.2812  0.6081
 4416TIP3   OH213211   0.582   3.618   4.100 -0.5900 -0.1070 -0.3019
 4416TIP3    H113212   0.653   3.564   4.064 -0.4642 -0.6642  0.7643
 4416TIP3    H213213   0.625   3.701   4.122 -0.2588 -0.4447  0.3474
 4417TIP3   OH213214   3.902   1.093   0.938  0.2939 -0.4648  0.0639
 4417TIP3    H113215   3.966   1.142   0.990  0.9092 -1.6796  0.5023
 4417TIP3    H213216   3.841   1.159   0.906  0.1277  0.3727  1.9965
 4418TIP3   OH213217   0.092   6.561   4.411  0.2799  0.1894 -0.4095
 4418TIP3    H113218   0.146   6.549   4.489  0.6431 -0.8572 -0.7941
 4418TIP3    H213219   0.058   6.474   4.392 -1.3053  0.7672 -0.3742
 4419TIP3   OH213220   1.052   1.796   2.789 -0.1201 -0.5675 -0.0691
 4419TIP3    H113221   1.141   1.818   2.761 -0.2823 -0.8471 -0.8307
 4419TIP3    H213222   1.060   1.706   2.823  0.0631 -0.2529  0.7490
 4420TIP3   OH213223   6.482   4.866   4.345  0.4736  0.1453  0.1072
 4420TIP3    H113224   6.447   4.779   4.366 -1.8262  0.9180 -0.2869
 4420TIP3    H213225   6.439   4.890   4.263  1.9406  1.2191 -0.3952
 4421TIP3   OH213226   2.581   3.315   0.520  0.1023 -0.5662 -0.3886
 4421TIP3    H113227   2.652   3.378   0.534 -1.7388  0.9401  4.0624
 4421TIP3    H213228   2.600   3.243   0.579 -1.2610 -0.8689 -0.2698
 4422TIP3   OH213229   6.671   0.571   5.187  0.0508  0.5313  0.5634
 4422TIP3    H113230   6.602   0.607   5.131  1.1125  0.3323 -0.9153
 4422TIP3    H213231   6.738   0.639   5.189  0.2986  0.2754  1.1081
 4423TIP3   OH213232   6.699   6.056   4.133  0.3978 -0.9282 -0.2322
 4423TIP3    H113233   6.753   6.067   4.055 -0.1373 -1.4518 -0.6876
 4423TIP3    H213234   6.762   6.044   4.204  0.9182 -2.9100 -0.9529
 4424TIP3   OH213235   2.664   1.834   3.912  0.1854  0.3501 -0.0846
 4424TIP3    H113236   2.615   1.903   3.957  1.7450  0.6224  1.3010
 4424TIP3    H213237   2.673   1.865   3.822 -1.6978  0.5206 -0.2567
 4425TIP3   OH213238   1.889   4.041   3.220  0.1763 -0.2618  0.4568
 4425TIP3    H113239   1.919   4.036   3.310 -0.7314  1.5544  0.9121
 4425TIP3    H213240   1.958   4.087   3.173 -0.4590  1.1174  0.8243
 4426TIP3   OH213241   1.942   6.801   1.265 -0.0565 -0.2902 -0.3153
 4426TIP3    H113242   1.929   6.706   1.269  0.5130 -0.3648 -0.1895
 4426TIP3    H213243   1.855   6.837   1.284 -0.3720 -0.7843 -0.7905
 4427TIP3   OH213244   4.105   6.141   2.575 -0.6827  0.1950  0.2758
 4427TIP3    H113245   4.163   6.094   2.515  0.5907 -3.1561  3.7358
 4427TIP3    H213246   4.159   6.212   2.610 -0.4370  0.2777 -0.2516
 4428TIP3   OH213247   6.456   6.503   4.012 -0.1890 -0.3856  0.4483
 4428TIP3    H113248   6.487   6.554   4.086  3.3377 -1.9072  0.2308
 4428TIP3    H213249   6.459   6.412   4.042 -3.5302 -0.8174 -0.0934
 4429TIP3   OH213250   6.099   3.758   2.188 -0.6045  0.2098 -0.3672
 4429TIP3    H113251   6.011   3.793   2.179 -0.9429 -0.9152 -1.8366
 4429TIP3    H213252   6.134   3.800   2.267 -1.6520  2.3350 -0.9725
 4430TIP3   OH213253   2.113   1.553   0.730 -0.4929 -0.3512 -0.0972
 4430TIP3    H113254   2.170   1.518   0.799 -0.2541  0.6627  0.2325
 4430TIP3    H213255   2.029   1.566   0.772 -0.5613 -0.4461 -0.2023
 4431TIP3   OH213256   4.398   6.314   4.558 -0.1828 -0.8895 -0.0842
 4431TIP3    H113257   4.448   6.378   4.608 -1.7956  0.2082  0.2081
 4431TIP3    H213258   4.393   6.350   4.470  0.4863 -1.5513 -0.3964
 4432TIP3   OH213259   7.167   2.599   2.923 -0.1471 -0.0235  0.5571
 4432TIP3    H113260   7.196   2.686   2.897  0.6549 -0.7791 -1.1998
 4432TIP3    H213261   7.236   2.540   2.893 -1.1717 -1.3794  0.7484
 4433TIP3   OH213262   5.439   3.541   0.315  0.2638 -0.1404 -0.3359
 4433TIP3    H113263   5.419   3.585   0.398  1.0875 -0.6574  0.1594
 4433TIP3    H213264   5.364   3.560   0.259 -1.2520 -1.3748  1.1566
 4434TIP3   OH213265   6.189   1.321   3.406  0.6432  0.5415 -0.5348
 4434TIP3    H113266   6.182   1.288   3.496 -0.6877  0.6432 -0.5841
 4434TIP3    H213267   6.173   1.244   3.352 -1.5856  1.0173 -0.6525
 4435TIP3   OH213268   0.653   1.367   5.033  0.3259  0.2819 -0.1173
 4435TIP3    H113269   0.620   1.344   4.946 -2.5589  1.4212  0.5382
 4435TIP3    H213270   0.585   1.337   5.093  2.1690 -0.3420  1.7886
 4436TIP3   OH213271   5.348   5.366   2.853  0.0676  0.0791  0.0544
 4436TIP3    H113272   5.349   5.461   2.862  0.3830  0.1055 -0.2408
 4436TIP3    H213273   5.280   5.337   2.914  0.4354  0.4392  0.6435
 4437TIP3   OH213274   6.632   3.612   4.978  0.3477  0.3804  0.4827
 4437TIP3    H113275   6.719   3.612   5.017  0.9984  1.3413 -0.8941
 4437TIP3    H213276   6.591   3.692   5.012 -0.1719 -0.2661  1.4339
 4438TIP3   OH213277   6.617   1.232   1.065  0.1089 -0.0416 -0.0531
 4438TIP3    H113278   6.588   1.236   0.974  0.7804  1.0559 -0.2329
 4438TIP3    H213279   6.706   1.269   1.064 -0.1668  0.7255  1.1661
 4439TIP3   OH213280   1.942   1.978   4.791  0.3829 -0.4258  0.0810
 4439TIP3    H113281   1.966   2.056   4.742 -0.4418 -0.3635 -0.2393
 4439TIP3    H213282   2.021   1.924   4.790  0.5019 -0.2507 -0.9756
 4440TIP3   OH213283   0.711   3.977   2.391  0.3077  0.0582  0.1205
 4440TIP3    H113284   0.704   4.044   2.323  0.6182  0.2600  0.2874
 4440TIP3    H213285   0.698   4.025   2.473 -1.9335 -0.4533  0.1410
 4441TIP3   OH213286   4.774   6.668   1.076  0.3867  0.3394 -0.4285
 4441TIP3    H113287   4.803   6.595   1.022 -0.6701 -0.5024  0.0942
 4441TIP3    H213288   4.852   6.721   1.089  1.0645 -0.4366 -1.2368
 4442TIP3   OH213289   5.890   5.394   4.721 -0.1507 -0.7656 -0.2529
 4442TIP3    H113290   5.950   5.343   4.667  0.9572 -1.0368  1.1532
 4442TIP3    H213291   5.858   5.332   4.787 -0.2072 -0.0869  0.3828
 4443TIP3   OH213292   2.194   4.780   3.358 -0.1376 -0.0838 -0.3847
 4443TIP3    H113293   2.163   4.690   3.344 -0.3259  0.0805 -1.0729
 4443TIP3    H213294   2.274   4.770   3.410 -0.0635 -0.6590 -0.5957
 4444TIP3   OH213295   2.054   1.930   0.567  0.3653 -0.1239 -0.7134
 4444TIP3    H113296   2.146   1.903   0.563  0.3773 -0.1427 -0.3596
 4444TIP3    H213297   2.004   1.850   0.549  0.3701 -0.7281  1.5657
 4445TIP3   OH213298   5.257   6.060   3.513  0.1628  0.0638  0.3864
 4445TIP3    H113299   5.336   6.014   3.542  0.9054 -0.1386 -1.7668
 4445TIP3    H213300   5.210   5.995   3.460  0.5308  1.2904 -1.5422
 4446TIP3   OH213301   0.120   1.157   3.242 -0.3509  0.4078  0.0530
 4446TIP3    H113302   0.207   1.115   3.247  0.0349  1.2859  1.3474
 4446TIP3    H213303   0.136   1.239   3.195 -0.1939  1.1695  1.3799
 4447TIP3   OH213304   6.212   3.254   4.561 -0.2719 -0.2277 -0.2890
 4447TIP3    H113305   6.141   3.287   4.617 -0.4920  1.8623 -1.6711
 4447TIP3    H213306   6.276   3.325   4.561  0.8658 -1.2358 -0.7153
 4448TIP3   OH213307   1.048   2.200   0.627  0.0369  0.6093 -0.4930
 4448TIP3    H113308   0.967   2.224   0.671 -0.8099 -3.4252  0.6101
 4448TIP3    H213309   1.117   2.221   0.690 -0.7637 -1.0362  1.0259
 4449TIP3   OH213310   3.735   2.367   1.116  0.0995  0.7063  0.0210
 4449TIP3    H113311   3.701   2.452   1.088  0.3540  1.6411  2.3958
 4449TIP3    H213312   3.672   2.337   1.182  0.1664 -0.8559 -0.5843
 4450TIP3   OH213313   2.740   6.382   1.375 -0.0300  0.2059  0.5834
 4450TIP3    H113314   2.827   6.422   1.372  0.0957  0.0518  1.8351
 4450TIP3    H213315   2.752   6.298   1.330 -0.1453  1.2096 -1.4657
 4451TIP3   OH213316   3.907   0.642   4.228  0.3540 -0.0150 -1.1499
 4451TIP3    H113317   3.832   0.650   4.170 -0.0427 -1.0385 -0.7971
 4451TIP3    H213318   3.945   0.556   4.207 -0.2597 -0.7645  0.6094
 4452TIP3   OH213319   5.940   3.112   3.829  0.0365  0.3859 -0.3335
 4452TIP3    H113320   6.016   3.159   3.865  1.4346 -0.8932 -1.4986
 4452TIP3    H213321   5.977   3.052   3.764 -1.8681 -1.0592 -0.1707
 4453TIP3   OH213322   6.104   0.171   2.342  0.0389 -0.1705  0.2962
 4453TIP3    H113323   6.166   0.244   2.340 -0.4710  0.2683  0.2322
 4453TIP3    H213324   6.033   0.202   2.398 -1.0216  0.0797 -1.1142
 4454TIP3   OH213325   0.982   4.387   1.771 -0.1719  0.3115  0.4952
 4454TIP3    H113326   1.020   4.305   1.739  3.9442  1.6646  1.3145
 4454TIP3    H213327   0.979   4.444   1.694 -0.4579  0.2092  0.4329
 4455TIP3   OH213328   5.087   5.177   2.577 -0.1829 -0.0676  0.9686
 4455TIP3    H113329   5.128   5.191   2.492 -1.8442 -0.0481  0.1138
 4455TIP3    H213330   5.098   5.261   2.623  1.2954 -0.2897  1.0545
 4456TIP3   OH213331   4.494   2.976   2.504 -0.2859 -0.3870  0.1195
 4456TIP3    H113332   4.403   2.952   2.522 -0.1096 -1.4999 -0.3862
 4456TIP3    H213333   4.507   3.059   2.551 -1.6996  0.0572 -0.2188
 4457TIP3   OH213334   3.527   4.099   5.129  0.3215 -0.3248 -0.7200
 4457TIP3    H113335   3.576   4.017   5.125  0.6602 -0.2477  0.9839
 4457TIP3    H213336   3.581   4.156   5.184 -1.4460 -0.1051  0.8891
 4458TIP3   OH213337   5.008   2.876   5.401  0.1977 -0.6327  0.1774
 4458TIP3    H113338   4.958   2.796   5.414  2.2545 -2.0637 -0.2422
 4458TIP3    H213339   5.096   2.855   5.431  1.5032  0.5540 -2.4739
 4459TIP3   OH213340   4.891   1.200   1.529 -0.5212  0.2747 -0.0709
 4459TIP3    H113341   4.965   1.211   1.590 -0.7532 -2.5022  0.8902
 4459TIP3    H213342   4.813   1.208   1.584 -0.8277  0.2205 -0.4942
 4460TIP3   OH213343   4.499   6.314   1.966 -0.1459  0.2182  0.2015
 4460TIP3    H113344   4.555   6.389   1.988 -1.2222  0.9807  0.4081
 4460TIP3    H213345   4.511   6.301   1.872 -0.2505  0.9147  0.0874
 4461TIP3   OH213346   3.349   4.487   0.444  0.1101  0.1296 -0.4883
 4461TIP3    H113347   3.348   4.565   0.388  0.0838  0.5058  0.0212
 4461TIP3    H213348   3.264   4.446   0.428  0.9048 -0.9195 -2.2743
 4462TIP3   OH213349   5.602   1.647   3.263  0.0857 -0.1330 -0.1701
 4462TIP3    H113350   5.681   1.673   3.311  0.2814 -0.7997 -0.1193
 4462TIP3    H213351   5.547   1.604   3.329  0.7916 -1.9662 -0.7179
 4463TIP3   OH213352   3.977   4.054   4.004 -0.0309 -0.1959 -0.1472
 4463TIP3    H113353   3.962   3.963   3.976  1.6096 -0.0812 -1.5952
 4463TIP3    H213354   4.060   4.050   4.052  0.5400  0.6668 -1.0357
 4464TIP3   OH213355   0.831   5.008   3.227  0.2995  0.2664 -0.2726
 4464TIP3    H113356   0.789   4.923   3.237 -0.3172  0.5987  0.0104
 4464TIP3    H213357   0.903   5.008   3.290  0.7895 -0.3411 -0.8229
 4465TIP3   OH213358   7.048   4.986   0.749  0.4159 -0.2987  0.2420
 4465TIP3    H113359   7.118   4.961   0.689  0.9473  0.1406  0.6713
 4465TIP3    H213360   6.976   4.926   0.729 -0.2875  1.2734 -2.4628
 4466TIP3   OH213361   3.795   3.970   0.719  0.3760 -0.1857 -0.8175
 4466TIP3    H113362   3.797   3.875   0.716 -0.7192 -0.2176 -1.0621
 4466TIP3    H213363   3.885   3.996   0.742  0.7888 -1.2477 -1.1896
 4467TIP3   OH213364   3.214   4.995   1.363 -0.3004 -0.6847 -0.4064
 4467TIP3    H113365   3.265   5.000   1.282 -0.0813  0.2747 -0.2244
 4467TIP3    H213366   3.202   4.902   1.378 -0.0190 -0.8823 -1.3441
 4468TIP3   OH213367   5.630   3.290   0.480  0.4521 -0.6865  0.3165
 4468TIP3    H113368   5.565   3.347   0.520 -1.3379 -1.6091 -1.1372
 4468TIP3    H213369   5.623   3.208   0.529 -0.4848 -1.2279 -0.6766
 4469TIP3   OH213370   3.435   2.566   4.483 -0.2413  0.2458  0.0407
 4469TIP3    H113371   3.458   2.603   4.568 -0.1913  0.6697 -0.1552
 4469TIP3    H213372   3.367   2.624   4.449 -0.1767  0.1470 -0.2622
 4470TIP3   OH213373   2.718   6.750   5.387  0.0764 -0.1367 -0.0337
 4470TIP3    H113374   2.624   6.738   5.404 -0.1352  2.7781  1.4215
 4470TIP3    H213375   2.722   6.787   5.299 -0.1141 -0.3340 -0.1273
 4471TIP3   OH213376   1.568   4.785   1.822  0.1795 -0.5672 -0.3888
 4471TIP3    H113377   1.495   4.723   1.814  0.4846 -0.9374 -0.3104
 4471TIP3    H213378   1.529   4.863   1.862 -0.1618 -0.7824 -0.3001
 4472TIP3   OH213379   2.914   6.679   5.832  0.0618  0.2667  0.3099
 4472TIP3    H113380   2.992   6.731   5.817  1.5119 -2.0316 -0.6768
 4472TIP3    H213381   2.869   6.676   5.747  2.7329 -4.0880 -1.2951
 4473TIP3   OH213382   5.722   0.380   4.801 -0.0947  0.1353  0.3516
 4473TIP3    H113383   5.736   0.471   4.775  0.2961  0.2342  0.8827
 4473TIP3    H213384   5.790   0.332   4.754 -0.8374 -0.0077 -0.6006
 4474TIP3   OH213385   1.736   3.944   4.013  0.6399 -0.3332  0.4351
 4474TIP3    H113386   1.690   4.020   3.977 -1.0054 -0.9743  1.0593
 4474TIP3    H213387   1.751   3.887   3.938 -0.1534 -0.3674  0.2886
 4475TIP3   OH213388   5.626   5.557   1.731  0.8067  0.4714  0.3109
 4475TIP3    H113389   5.546   5.519   1.695  1.1651 -0.3922  0.3947
 4475TIP3    H213390   5.682   5.482   1.749  0.7447  0.8778  2.4856
 4476TIP3   OH213391   5.301   3.616   5.428  0.7176  0.8332 -0.0425
 4476TIP3    H113392   5.340   3.643   5.345  0.0964 -0.2906 -0.7275
 4476TIP3    H213393   5.216   3.661   5.431  0.9218  1.2088  0.1960
 4477TIP3   OH213394   0.318   3.547   1.907 -0.0565 -1.2632  0.2323
 4477TIP3    H113395   0.339   3.592   1.824 -2.1764 -0.4143  0.0865
 4477TIP3    H213396   0.235   3.503   1.890 -0.8937 -0.5038  2.0961
 4478TIP3   OH213397   1.360   6.087   5.744 -0.3119 -0.1410  0.2930
 4478TIP3    H113398   1.305   6.163   5.760  1.5422  1.2027  0.6726
 4478TIP3    H213399   1.365   6.080   5.649 -0.4928  0.2107  0.2590
 4479TIP3   OH213400   1.006   5.905   4.135  0.2114 -0.2583  0.0788
 4479TIP3    H113401   0.949   5.833   4.109 -0.1419  0.4058 -1.0521
 4479TIP3    H213402   0.965   5.983   4.099  0.3895  0.5846  1.5932
 4480TIP3   OH213403   0.644   1.778   1.581 -0.2111  0.2985 -0.0768
 4480TIP3    H113404   0.648   1.830   1.501 -2.1299  0.5353 -0.0683
 4480TIP3    H213405   0.570   1.814   1.630  0.7433 -0.0269  1.6868
 4481TIP3   OH213406   2.620   1.478   1.958 -0.9005  1.0471 -0.1993
 4481TIP3    H113407   2.553   1.490   2.025 -2.5452  1.2134 -1.8253
 4481TIP3    H213408   2.614   1.385   1.935  0.6191  0.6577  0.8155
 4482TIP3   OH213409   1.403   1.567   2.955  0.2357 -0.1045 -0.0014
 4482TIP3    H113410   1.325   1.615   2.927 -2.1819 -2.8468  1.4435
 4482TIP3    H213411   1.395   1.562   3.050  2.4308 -0.1114  0.2133
 4483TIP3   OH213412   4.571   3.275   4.603 -0.1140 -0.0536  0.1467
 4483TIP3    H113413   4.634   3.339   4.571  0.8410 -0.7555  0.5509
 4483TIP3    H213414   4.581   3.200   4.544 -0.0538 -0.4371  0.6335
 4484TIP3   OH213415   3.072   0.909   3.086 -0.0012  0.1442  0.8225
 4484TIP3    H113416   3.030   0.837   3.133  1.3980 -0.6673  0.8854
 4484TIP3    H213417   3.157   0.919   3.129  0.4131  0.8502 -0.1332
 4485TIP3   OH213418   3.742   1.043   5.324 -0.5356  0.4236 -0.2245
 4485TIP3    H113419   3.755   0.948   5.323 -1.2822  0.2535  1.8712
 4485TIP3    H213420   3.827   1.078   5.299  0.0288 -0.7938 -0.1085
 4486TIP3   OH213421   1.081   2.258   5.213 -0.7138  0.7223 -0.1459
 4486TIP3    H113422   1.021   2.197   5.169 -1.8584  0.7255  1.3313
 4486TIP3    H213423   1.146   2.202   5.254  1.0887  0.7604 -2.7142
 4487TIP3   OH213424   5.738   6.599   1.167 -0.3808  0.0751 -0.4598
 4487TIP3    H113425   5.667   6.634   1.221 -0.4368  0.5751 -0.8385
 4487TIP3    H213426   5.815   6.599   1.224 -1.1225 -2.6479  0.7068
 4488TIP3   OH213427   0.440   0.091   0.665 -0.3023  0.1651 -0.3352
 4488TIP3    H113428   0.345   0.085   0.672 -0.4614  2.2210 -0.0135
 4488TIP3    H213429   0.456   0.168   0.610  1.1374  1.4429  1.7156
 4489TIP3   OH213430   6.071   4.614   4.898 -0.0652  0.1492  0.2970
 4489TIP3    H113431   6.149   4.661   4.927  0.5890 -0.4726 -0.4162
 4489TIP3    H213432   6.031   4.671   4.833  0.3993 -0.0071 -0.1314
 4490TIP3   OH213433   0.825   4.106   3.727  0.5760  0.4030 -0.5003
 4490TIP3    H113434   0.815   4.186   3.676  0.4931  0.1746 -0.8457
 4490TIP3    H213435   0.748   4.104   3.783  0.5599  0.5462 -0.5154
 4491TIP3   OH213436   3.417   5.901   4.755 -0.1915 -0.0002 -0.0632
 4491TIP3    H113437   3.331   5.906   4.798 -0.0597  0.0764  0.1916
 4491TIP3    H213438   3.435   5.807   4.750 -0.5912 -0.0500 -0.7226
 4492TIP3   OH213439   1.267   2.409   4.469  0.4085  0.3248 -0.1999
 4492TIP3    H113440   1.274   2.408   4.565  0.4107 -1.0313 -0.1989
 4492TIP3    H213441   1.348   2.368   4.439 -0.7549 -1.7509 -0.6700
 4493TIP3   OH213442   4.052   3.820   5.337 -0.0810  0.3934  0.1681
 4493TIP3    H113443   3.969   3.773   5.333  0.1660  0.0395 -1.0076
 4493TIP3    H213444   4.027   3.913   5.340 -0.5132  0.2991 -0.4017
 4494TIP3   OH213445   1.803   5.620   0.328 -0.4310  0.3761 -0.0942
 4494TIP3    H113446   1.710   5.640   0.318 -0.1186  1.3622 -1.2764
 4494TIP3    H213447   1.842   5.645   0.245  0.7499 -0.9858  0.0120
 4495TIP3   OH213448   6.902   2.167   0.170  0.3155  0.9219  1.0834
 4495TIP3    H113449   6.889   2.072   0.161  1.4787  0.8236  0.0448
 4495TIP3    H213450   6.870   2.188   0.257 -1.5410 -0.1379  0.6969
 4496TIP3   OH213451   4.488   2.523   2.419 -0.5778 -0.2076  0.4401
 4496TIP3    H113452   4.490   2.473   2.500  1.0759  1.5811  1.5723
 4496TIP3    H213453   4.417   2.586   2.430  1.7449  2.3410  2.0767
 4497TIP3   OH213454   6.911   6.664   4.257 -0.1699 -0.1893  0.2868
 4497TIP3    H113455   6.839   6.722   4.282  0.5870  1.0370 -0.3214
 4497TIP3    H213456   6.933   6.617   4.338 -0.6737  0.5012  0.8406
 4498TIP3   OH213457   3.246   3.512   3.564 -0.1544  0.0660 -0.6054
 4498TIP3    H113458   3.215   3.498   3.475  3.1611  0.1521 -1.9063
 4498TIP3    H213459   3.296   3.433   3.586  0.8420  0.9046  0.3069
 4499TIP3   OH213460   2.744   1.238   0.116  0.2489 -0.4557  0.3057
 4499TIP3    H113461   2.711   1.179   0.048  2.1611  1.5766 -2.6503
 4499TIP3    H213462   2.680   1.309   0.119 -0.0924 -0.7899  1.0267
 4500TIP3   OH213463   6.827   5.193   2.308  0.4890 -0.1728 -0.0080
 4500TIP3    H113464   6.800   5.158   2.223  0.3270  1.5108 -0.6775
 4500TIP3    H213465   6.921   5.207   2.299  0.3083  0.9433 -0.2790
 4501TIP3   OH213466   2.689   2.079   4.634 -0.0667  0.1236  0.2313
 4501TIP3    H113467   2.641   2.094   4.715  0.9754 -1.4715  1.2051
 4501TIP3    H213468   2.777   2.055   4.663  0.2310 -0.8214 -1.3577
 4502TIP3   OH213469   5.801   1.004   2.775  0.0725 -0.0728  0.3728
 4502TIP3    H113470   5.743   1.068   2.815 -0.8872  0.1321 -1.2379
 4502TIP3    H213471   5.760   0.985   2.690  1.4321 -1.2689 -0.0526
 4503TIP3   OH213472   6.765   3.053   4.976 -0.3019 -0.3549  0.0463
 4503TIP3    H113473   6.705   3.126   4.965 -0.9922 -0.9721 -0.4074
 4503TIP3    H213474   6.813   3.073   5.057 -0.5092  0.5606 -0.0469
 4504TIP3   OH213475   0.987   1.726   4.195  0.1289 -0.6155  0.0803
 4504TIP3    H113476   0.899   1.736   4.157  0.2845 -1.3565 -0.4934
 4504TIP3    H213477   0.991   1.635   4.223  0.2115 -0.2213  1.4441
 4505TIP3   OH213478   1.215   0.630   3.781  0.4786  0.0735 -0.0103
 4505TIP3    H113479   1.133   0.588   3.755  1.7615 -2.6839  0.0151
 4505TIP3    H213480   1.188   0.713   3.822 -2.3928 -1.4999  1.5962
 4506TIP3   OH213481   2.432   2.348   5.716  0.0312  0.2133 -0.0471
 4506TIP3    H113482   2.381   2.267   5.712 -1.7966  1.3382 -0.5049
 4506TIP3    H213483   2.478   2.343   5.800 -0.5867 -0.9987  0.2379
 4507TIP3   OH213484   4.377   1.992   5.841 -0.6321  0.6676  0.3339
 4507TIP3    H113485   4.458   1.999   5.892 -0.3725  0.2546 -0.0137
 4507TIP3    H213486   4.361   2.081   5.809  0.8983  0.3614 -1.4285
 4508TIP3   OH213487   2.532   1.040   3.094 -0.1367  0.0822  0.2248
 4508TIP3    H113488   2.600   1.105   3.107  0.8647 -0.2952 -2.5785
 4508TIP3    H213489   2.541   0.981   3.169  2.0415  0.5510  0.3875
 4509TIP3   OH213490   2.512   2.560   5.580  0.3647 -0.1859 -0.6680
 4509TIP3    H113491   2.491   2.483   5.632 -0.8989  0.1183 -0.6918
 4509TIP3    H213492   2.538   2.525   5.494  1.8251 -0.6569 -0.0574
 4510TIP3   OH213493   6.415   0.129   4.747  0.4455 -0.3380 -0.6150
 4510TIP3    H113494   6.459   0.179   4.678 -1.4049  1.7429 -0.4021
 4510TIP3    H213495   6.445   0.170   4.828 -0.2348 -0.2733 -0.3874
 4511TIP3   OH213496   3.612   5.927   3.918  0.1293 -0.2248  0.0677
 4511TIP3    H113497   3.631   6.009   3.964  1.9142  0.3504 -1.5706
 4511TIP3    H213498   3.677   5.865   3.951 -0.0955 -0.4854  0.0245
 4512TIP3   OH213499   1.679   1.320   1.206 -0.4322  0.1119 -0.0762
 4512TIP3    H113500   1.695   1.300   1.114 -0.8206  0.4120 -0.2101
 4512TIP3    H213501   1.593   1.362   1.207  0.1366  1.2985  0.2596
 4513TIP3   OH213502   1.579   4.978   4.753 -0.2027  0.1820  0.1188
 4513TIP3    H113503   1.643   5.026   4.806 -0.3276  1.9389 -1.2142
 4513TIP3    H213504   1.624   4.897   4.728  0.4934  0.1549  1.3940
 4514TIP3   OH213505   3.104   3.283   3.993  0.0038  0.0120  0.1191
 4514TIP3    H113506   3.044   3.210   3.981  1.2577 -1.4117  1.9588
 4514TIP3    H213507   3.091   3.338   3.916 -1.6539 -1.6506 -0.8561
 4515TIP3   OH213508   5.167   2.586   4.968  0.7308 -0.1160 -0.1730
 4515TIP3    H113509   5.149   2.502   5.010 -1.4200 -0.3411 -1.3909
 4515TIP3    H213510   5.099   2.644   5.002  0.2740  0.2692 -1.6646
 4516TIP3   OH213511   2.788   5.182   4.756  0.1371  0.9225  0.4746
 4516TIP3    H113512   2.783   5.229   4.839  0.6411  0.2893  0.8687
 4516TIP3    H213513   2.784   5.251   4.689 -1.0116  1.3832  0.9944
 4517TIP3   OH213514   0.110   2.605   3.219 -0.2323  0.0548 -0.4046
 4517TIP3    H113515   0.172   2.561   3.277 -0.6170  1.5281  1.2048
 4517TIP3    H213516   0.151   2.690   3.201 -1.1825  0.5313 -0.3922
 4518TIP3   OH213517   0.660   0.141   3.583  0.2450 -0.4259 -0.2734
 4518TIP3    H113518   0.688   0.227   3.616 -0.2860 -0.2158 -0.3588
 4518TIP3    H213519   0.568   0.135   3.608  0.0431 -0.5947 -1.0465
 4519TIP3   OH213520   0.728   0.614   5.840  0.7614  0.3174  0.3152
 4519TIP3    H113521   0.755   0.581   5.754  0.7770  0.6119  0.2052
 4519TIP3    H213522   0.744   0.708   5.836 -2.1598  0.8710 -0.4919
 4520TIP3   OH213523   3.707   3.390   0.177 -0.2843 -0.1833  0.0466
 4520TIP3    H113524   3.752   3.474   0.178  0.5669 -0.6299  0.1417
 4520TIP3    H213525   3.705   3.365   0.084  1.0314 -0.8637  0.1773
 4521TIP3   OH213526   4.543   6.646   5.846  0.0530  0.1062  0.5826
 4521TIP3    H113527   4.589   6.593   5.912  1.1582  0.5412  0.1900
 4521TIP3    H213528   4.553   6.736   5.877 -1.3692  0.1553  0.9746
 4522TIP3   OH213529   2.790   2.925   4.272 -0.0427 -0.0984  0.2981
 4522TIP3    H113530   2.724   2.980   4.232  0.9990  0.8257 -0.2140
 4522TIP3    H213531   2.816   2.864   4.203  0.8885  0.7074 -0.0918
 4523TIP3   OH213532   6.839   2.095   2.733  0.1751 -0.3968  0.1213
 4523TIP3    H113533   6.790   2.094   2.815  0.4612  2.1880  0.4023
 4523TIP3    H213534   6.779   2.058   2.669 -0.8947 -0.3749  1.0795
 4524TIP3   OH213535   2.977   0.667   3.240  0.3840  0.0983  0.4681
 4524TIP3    H113536   2.962   0.691   3.332 -0.3418  0.6149  0.2193
 4524TIP3    H213537   2.950   0.575   3.236  0.4613  0.0597  0.7867
 4525TIP3   OH213538   6.367   1.527   3.723  0.4531  0.4712  0.0150
 4525TIP3    H113539   6.280   1.524   3.763 -0.4923  1.5908 -1.8366
 4525TIP3    H213540   6.422   1.475   3.782 -1.6895 -1.2306  0.6375
 4526TIP3   OH213541   5.166   2.697   1.739 -0.8735 -0.0612  0.1034
 4526TIP3    H113542   5.123   2.631   1.685 -1.0901  0.0685  0.1142
 4526TIP3    H213543   5.146   2.780   1.696  0.5455 -0.1035 -0.6865
 4527TIP3   OH213544   4.021   0.730   5.275  0.2348  0.0117 -0.3276
 4527TIP3    H113545   4.059   0.787   5.342 -0.2936  0.6560 -0.5647
 4527TIP3    H213546   4.080   0.738   5.200  1.7721 -2.0119  0.5779
 4528TIP3   OH213547   2.437   3.883   4.800  0.1789 -0.1929 -0.1214
 4528TIP3    H113548   2.375   3.950   4.828 -0.3832 -1.0711  0.8643
 4528TIP3    H213549   2.420   3.809   4.860  0.6394 -1.2709 -1.2746
 4529TIP3   OH213550   0.785   5.451   3.090 -0.1191 -0.2858 -0.1213
 4529TIP3    H113551   0.762   5.512   3.020 -1.0235 -1.0292 -0.4947
 4529TIP3    H213552   0.787   5.505   3.169  0.8209  0.5444 -0.6831
 4530TIP3   OH213553   6.287   0.394   1.645  0.4294  0.5972 -0.5219
 4530TIP3    H113554   6.336   0.473   1.667  2.1902 -0.3380 -0.8487
 4530TIP3    H213555   6.352   0.323   1.651 -1.2208 -0.9309  0.3960
 4531TIP3   OH213556   3.730   5.750   4.110 -0.0987 -0.4766 -0.7998
 4531TIP3    H113557   3.662   5.802   4.151  1.3213  0.4217  0.5105
 4531TIP3    H213558   3.703   5.659   4.125 -1.0907 -0.1402 -0.4762
 4532TIP3   OH213559   6.488   3.253   5.224 -0.1705  0.0975  0.4717
 4532TIP3    H113560   6.463   3.305   5.301  0.2935  1.1120 -0.0512
 4532TIP3    H213561   6.430   3.283   5.155 -0.2007 -0.4091  0.2710
 4533TIP3   OH213562   3.035   2.862   3.541  0.1027  0.2700  0.1457
 4533TIP3    H113563   3.015   2.916   3.618  1.8718 -0.2651  1.0463
 4533TIP3    H213564   3.084   2.920   3.483 -0.4530  0.4148 -0.1883
 4534TIP3   OH213565   6.222   1.717   0.577 -0.6553  0.1087  0.3218
 4534TIP3    H113566   6.210   1.692   0.669  0.0445  0.6613  0.5648
 4534TIP3    H213567   6.185   1.805   0.571 -0.1555  0.3111  0.2084
 4535TIP3   OH213568   1.028   5.617   4.569  0.0552  0.4838 -0.2652
 4535TIP3    H113569   0.990   5.534   4.598  0.6869  0.6949  1.2471
 4535TIP3    H213570   1.094   5.592   4.505  0.4328 -0.2100  0.3888
 4536TIP3   OH213571   3.780   1.077   4.082 -0.0014 -0.4483 -0.6443
 4536TIP3    H113572   3.782   0.990   4.041  0.0870 -0.6081 -0.3059
 4536TIP3    H213573   3.866   1.113   4.065  0.0596 -0.5433 -0.5374
 4537TIP3   OH213574   5.428   5.110   1.165 -0.1348 -0.1525  0.0250
 4537TIP3    H113575   5.509   5.120   1.116 -0.8827  1.7849 -0.9403
 4537TIP3    H213576   5.369   5.064   1.105 -0.1510 -0.3582  0.2006
 4538TIP3   OH213577   2.125   2.810   2.537 -0.2556  0.6915  0.1536
 4538TIP3    H113578   2.206   2.779   2.576 -1.1299 -0.7673  0.9121
 4538TIP3    H213579   2.107   2.894   2.581  1.2487  1.4882 -0.6652
 4539TIP3   OH213580   7.076   6.678   0.789  0.2694 -0.1868 -0.5464
 4539TIP3    H113581   7.168   6.677   0.817 -0.1484 -0.9563  0.9206
 4539TIP3    H213582   7.069   6.754   0.731  1.4842  0.8482  0.5948
 4540TIP3   OH213583   2.361   3.790   5.782  0.1622 -0.2625  0.2193
 4540TIP3    H113584   2.351   3.872   5.829  0.5186 -1.8290  3.2487
 4540TIP3    H213585   2.313   3.803   5.700 -1.1083  2.3947  1.2873
 4541TIP3   OH213586   6.385   2.236   3.078 -0.1148  0.5145  0.3971
 4541TIP3    H113587   6.375   2.222   2.984 -0.5904  0.2739  0.4824
 4541TIP3    H213588   6.406   2.150   3.113 -2.3136  0.0878  0.8250
 4542TIP3   OH213589   4.663   5.147   5.575  0.2729 -0.6970 -0.3887
 4542TIP3    H113590   4.643   5.056   5.551 -0.3631 -0.6034 -0.2389
 4542TIP3    H213591   4.664   5.194   5.492  0.1796 -0.7617 -0.4264
 4543TIP3   OH213592   3.719   6.191   0.920 -0.0237  0.0612  0.3194
 4543TIP3    H113593   3.652   6.164   0.983  1.2667 -1.7111  1.0042
 4543TIP3    H213594   3.725   6.117   0.859 -0.0323  1.0311 -0.9052
 4544TIP3   OH213595   3.369   4.752   2.888 -0.1358 -0.1637 -0.0122
 4544TIP3    H113596   3.329   4.838   2.875 -0.0536  0.0182  0.8900
 4544TIP3    H213597   3.407   4.730   2.803 -1.4028  0.0464 -0.6574
 4545TIP3   OH213598   4.241   5.644   4.826  0.3841 -0.1992 -0.4481
 4545TIP3    H113599   4.265   5.584   4.756  0.7681  0.4114 -0.8427
 4545TIP3    H213600   4.299   5.620   4.899 -1.4302 -2.2725  0.4568
 4546TIP3   OH213601   4.559   5.688   2.141 -0.1291  0.2525 -0.2782
 4546TIP3    H113602   4.517   5.720   2.221  1.4931  1.3843  0.1817
 4546TIP3    H213603   4.629   5.751   2.124  1.0975 -1.2877 -1.2361
 4547TIP3   OH213604   3.440   4.741   5.135  0.4147  0.1132  0.1977
 4547TIP3    H113605   3.475   4.698   5.057  1.9587 -2.0379  1.9421
 4547TIP3    H213606   3.485   4.698   5.208 -1.8621  1.1436  2.3540
 4548TIP3   OH213607   6.681   0.707   4.722  0.7590  0.4039  0.4709
 4548TIP3    H113608   6.742   0.734   4.791  0.6008  2.2178 -0.0651
 4548TIP3    H213609   6.737   0.690   4.646  0.7981 -0.1823  0.6273
 4549TIP3   OH213610   3.477   1.991   1.599  0.3799  0.5910  0.0943
 4549TIP3    H113611   3.407   1.960   1.542  1.4956 -0.9395 -0.5090
 4549TIP3    H213612   3.529   2.050   1.543  0.0604  1.0778  0.3003
 4550TIP3   OH213613   2.076   5.084   4.431 -0.3889  0.4169 -0.5608
 4550TIP3    H113614   1.997   5.123   4.469 -0.5702  0.0501 -0.5594
 4550TIP3    H213615   2.131   5.063   4.507 -1.0691 -1.0039 -0.4449
 4551TIP3   OH213616   3.577   6.238   1.698 -0.3978  0.1445 -0.5416
 4551TIP3    H113617   3.634   6.313   1.680 -0.5784  0.1084 -1.3127
 4551TIP3    H213618   3.613   6.199   1.778 -0.3706  1.1130 -0.0697
 4552TIP3   OH213619   1.064   3.762   3.124 -0.0339 -0.0858  0.2444
 4552TIP3    H113620   1.006   3.834   3.147  0.1210  0.2500 -0.3971
 4552TIP3    H213621   1.008   3.699   3.079  0.0506  0.1575 -0.2142
 4553TIP3   OH213622   2.251   3.563   4.349 -0.5169 -0.2272 -0.5120
 4553TIP3    H113623   2.339   3.595   4.367 -0.2741 -1.8100  1.4265
 4553TIP3    H213624   2.264   3.486   4.295 -0.6421 -0.8566  0.3388
 4554TIP3   OH213625   3.356   0.329   0.916  0.6814 -0.0480 -0.6338
 4554TIP3    H113626   3.429   0.299   0.863  0.7028 -1.3913  0.1246
 4554TIP3    H213627   3.396   0.385   0.983  1.3053 -2.0933  0.8137
 4555TIP3   OH213628   3.832   3.032   0.931  0.1477 -0.0111  0.1418
 4555TIP3    H113629   3.793   2.998   1.011 -1.1164  0.7367 -0.1177
 4555TIP3    H213630   3.854   2.954   0.880 -0.1675 -0.4758  0.7039
 4556TIP3   OH213631   4.594   3.205   0.550 -0.0955 -0.6752 -0.0963
 4556TIP3    H113632   4.590   3.300   0.535  1.6741 -0.5472  0.0354
 4556TIP3    H213633   4.656   3.195   0.621  1.4773 -2.0417 -1.5707
 4557TIP3   OH213634   3.468   0.954   0.654  0.3114  0.1251  0.5538
 4557TIP3    H113635   3.452   0.861   0.669 -0.7974  0.2681  0.3916
 4557TIP3    H213636   3.556   0.959   0.619 -0.1480 -1.0113 -0.8250
 4558TIP3   OH213637   4.894   4.804   1.723 -0.4203  0.1164 -0.5852
 4558TIP3    H113638   4.962   4.860   1.686  0.1927 -0.5024 -0.4195
 4558TIP3    H213639   4.865   4.750   1.650  0.2212 -0.5438 -0.3715
 4559TIP3   OH213640   0.037   2.835   1.326  0.1075 -0.4137  0.2479
 4559TIP3    H113641   0.047   2.743   1.353 -1.4109 -1.2752 -1.8753
 4559TIP3    H213642   0.006   2.830   1.236 -0.3687  2.2190  0.2017
 4560TIP3   OH213643   1.805   3.390   1.246  0.6917 -0.7351 -0.0853
 4560TIP3    H113644   1.777   3.321   1.305  1.1233 -0.1394  0.8424
 4560TIP3    H213645   1.731   3.403   1.187  0.1068 -1.1034  0.5546
 4561TIP3   OH213646   4.325   2.285   0.417 -0.0169  0.1769 -0.3889
 4561TIP3    H113647   4.242   2.248   0.448  0.7866 -1.0236  0.4232
 4561TIP3    H213648   4.324   2.270   0.323 -0.2650 -0.7892 -0.2431
 4562TIP3   OH213649   2.640   2.074   2.274 -0.4968  1.0922  0.2378
 4562TIP3    H113650   2.563   2.066   2.218 -0.2219  1.1751 -0.1539
 4562TIP3    H213651   2.646   1.989   2.319 -0.5973  0.9496 -0.0174
 4563TIP3   OH213652   2.752   5.896   1.558  0.5132  0.4020  0.7623
 4563TIP3    H113653   2.683   5.854   1.507  1.1134 -0.8521  0.9556
 4563TIP3    H213654   2.826   5.902   1.499 -0.2419  3.4644 -0.0675
 4564TIP3   OH213655   4.459   6.556   0.422 -0.1452  0.1174 -0.0767
 4564TIP3    H113656   4.476   6.464   0.403  1.9035  0.0284  1.7621
 4564TIP3    H213657   4.391   6.555   0.489  0.7847 -0.1533  0.8817
 4565TIP3   OH213658   6.288   5.291   3.248  0.2608  0.1536 -0.4576
 4565TIP3    H113659   6.281   5.329   3.161 -0.0001  0.3878 -0.3361
 4565TIP3    H213660   6.229   5.215   3.246  0.8221 -0.2862 -0.7160
 4566TIP3   OH213661   1.964   5.240   4.221  0.0753  0.5125  0.5148
 4566TIP3    H113662   1.963   5.185   4.299 -0.6189 -1.6778 -0.9522
 4566TIP3    H213663   2.052   5.233   4.186  0.1956  0.9532  0.7183
 4567TIP3   OH213664   4.632   0.133   2.341 -0.4156  0.4776 -0.1610
 4567TIP3    H113665   4.638   0.077   2.263  0.9564  0.6197 -0.1720
 4567TIP3    H213666   4.608   0.219   2.306 -0.5791  0.3588 -0.3447
 4568TIP3   OH213667   3.238   1.832   3.594 -0.6373 -0.2459  0.0916
 4568TIP3    H113668   3.210   1.799   3.509  0.9010 -1.3273 -0.0414
 4568TIP3    H213669   3.157   1.856   3.639 -1.4355  1.6554 -2.1618
 4569TIP3   OH213670   5.154   4.271   1.242  0.1530 -0.1058  0.1317
 4569TIP3    H113671   5.088   4.318   1.191 -0.2791 -1.0738 -0.2355
 4569TIP3    H213672   5.238   4.303   1.210  0.0847 -2.9424 -3.6624
 4570TIP3   OH213673   0.880   2.938   1.461 -0.4129  0.1901  0.1691
 4570TIP3    H113674   0.830   2.858   1.444  0.4536 -0.1128 -1.0691
 4570TIP3    H213675   0.860   2.960   1.552 -0.6319 -1.4454  0.5400
 4571TIP3   OH213676   2.089   4.858   0.543  0.5406  0.0692 -0.5422
 4571TIP3    H113677   2.164   4.862   0.601  0.6116  0.1184 -0.6377
 4571TIP3    H213678   2.031   4.927   0.574  1.1506  0.9578 -1.3272
 4572TIP3   OH213679   1.025   6.752   0.363 -0.0191  0.0129  0.6071
 4572TIP3    H113680   0.946   6.794   0.398 -0.1393  0.9716 -0.6930
 4572TIP3    H213681   1.095   6.815   0.381  0.7138 -1.2882  2.6960
 4573TIP3   OH213682   4.361   1.457   2.351 -0.3876 -0.0742 -0.0417
 4573TIP3    H113683   4.444   1.504   2.341 -0.8844  0.7258 -0.5549
 4573TIP3    H213684   4.302   1.500   2.289 -0.9124 -1.2826 -0.4040
 4574TIP3   OH213685   3.473   4.047   0.457 -0.0657 -0.4154  0.3296
 4574TIP3    H113686   3.381   4.070   0.445  0.2792  0.6367 -0.4267
 4574TIP3    H213687   3.505   4.025   0.370  0.4560 -0.5476  0.5486
 4575TIP3   OH213688   6.517   4.711   4.781 -0.1815  0.0638 -0.1220
 4575TIP3    H113689   6.604   4.747   4.801 -0.7261  0.5338  1.5955
 4575TIP3    H213690   6.535   4.633   4.729  1.2560  0.2853 -0.0149
 4576TIP3   OH213691   0.813   1.545   1.499 -0.1710 -0.0360  0.6919
 4576TIP3    H113692   0.773   1.459   1.503 -2.2701  0.6922 -1.6950
 4576TIP3    H213693   0.739   1.606   1.497  1.1348  1.6134 -0.5014
 4577TIP3   OH213694   2.272   6.520   2.467 -0.2932 -0.0110  0.0122
 4577TIP3    H113695   2.263   6.449   2.404 -0.5232  0.2952 -0.3032
 4577TIP3    H213696   2.243   6.483   2.550  0.5085 -0.5730  0.0547
 4578TIP3   OH213697   1.128   5.804   0.328  0.0137 -0.1357  0.1523
 4578TIP3    H113698   1.144   5.850   0.246  0.8419 -1.8075 -0.6644
 4578TIP3    H213699   1.211   5.808   0.375 -0.5406  1.0962  1.1251
 4579TIP3   OH213700   5.221   5.117   3.179 -0.2547  0.4687  0.7391
 4579TIP3    H113701   5.161   5.170   3.231 -0.8399  2.5722 -1.8363
 4579TIP3    H213702   5.187   5.123   3.089  0.0514 -3.8230  0.1199
 4580TIP3   OH213703   3.913   4.818   1.420 -0.2109  0.0553  0.1830
 4580TIP3    H113704   4.004   4.838   1.401  0.2812 -1.0522  1.2130
 4580TIP3    H213705   3.905   4.831   1.515 -0.9452 -0.4729  0.2022
 4581TIP3   OH213706   1.244   0.175   4.405  0.3301 -0.1469 -0.6224
 4581TIP3    H113707   1.224   0.184   4.312 -1.1446 -0.7130 -0.3910
 4581TIP3    H213708   1.339   0.164   4.408  0.2548 -1.7366 -2.2148
 4582TIP3   OH213709   4.233   4.701   2.844  0.2944  0.7459 -0.1151
 4582TIP3    H113710   4.155   4.686   2.898  0.4363 -1.3351 -0.4010
 4582TIP3    H213711   4.297   4.739   2.904 -0.2876  0.5452  0.6441
 4583TIP3   OH213712   5.833   3.195   1.136  0.0783 -0.1592 -0.4518
 4583TIP3    H113713   5.874   3.219   1.219  0.5027 -0.1673 -0.6539
 4583TIP3    H213714   5.843   3.100   1.132 -1.9865 -0.4675  0.5523
 4584TIP3   OH213715   3.701   5.948   4.811 -0.5126  0.2873 -0.2055
 4584TIP3    H113716   3.721   6.041   4.823  0.9842 -0.2506  2.0705
 4584TIP3    H213717   3.645   5.945   4.733  1.4003  2.8259 -1.8287
 4585TIP3   OH213718   4.156   1.397   3.168 -0.0969 -0.2228  0.2848
 4585TIP3    H113719   4.218   1.467   3.188 -0.5268  0.3855 -0.4178
 4585TIP3    H213720   4.129   1.363   3.253  0.1065  0.4766  0.6373
 4586TIP3   OH213721   3.330   2.550   3.131  0.0340 -0.0483 -0.4684
 4586TIP3    H113722   3.349   2.643   3.148  0.2125 -0.1154 -0.2970
 4586TIP3    H213723   3.353   2.506   3.213 -1.6134 -0.0422  0.0254
 4587TIP3   OH213724   3.531   2.100   3.384  0.1074  0.6472 -0.0950
 4587TIP3    H113725   3.616   2.069   3.353 -0.6324 -0.9946 -0.5552
 4587TIP3    H213726   3.548   2.130   3.473  1.1635  0.2886 -0.1591
 4588TIP3   OH213727   4.723   6.487   3.550  0.3486  0.6955  0.0371
 4588TIP3    H113728   4.651   6.506   3.490 -0.2378  0.1005  0.5299
 4588TIP3    H213729   4.786   6.439   3.496  0.5153  1.4786 -0.4719
 4589TIP3   OH213730   1.413   6.341   4.548  0.1065 -0.1583 -0.1452
 4589TIP3    H113731   1.441   6.261   4.592  1.0808  1.1381  1.7202
 4589TIP3    H213732   1.334   6.367   4.596 -0.7610 -0.4550 -1.3551
 4590TIP3   OH213733   4.151   1.764   1.172  0.2921 -0.7538 -0.1104
 4590TIP3    H113734   4.172   1.858   1.178  1.7719 -1.0423 -0.4765
 4590TIP3    H213735   4.164   1.742   1.080 -0.2734 -1.2923 -0.0709
 4591TIP3   OH213736   1.124   5.680   3.690  0.3264  0.0767 -0.4686
 4591TIP3    H113737   1.183   5.683   3.614 -0.0231  0.6036 -0.7223
 4591TIP3    H213738   1.132   5.590   3.723  3.0867  0.7106  0.9388
 4592TIP3   OH213739   7.140   0.884   2.843  0.1052 -0.0722 -0.0757
 4592TIP3    H113740   7.060   0.933   2.824 -0.7599  0.0892  3.3355
 4592TIP3    H213741   7.131   0.804   2.791 -0.8925  1.0989 -1.8434
 4593TIP3   OH213742   0.917   6.265   4.150  0.1464 -1.0377 -0.2914
 4593TIP3    H113743   0.883   6.346   4.113 -1.2287 -0.8315  1.2813
 4593TIP3    H213744   0.894   6.197   4.086 -1.8196 -0.6558 -0.0535
 4594TIP3   OH213745   5.159   6.623   1.012  0.2259 -0.0115 -0.6344
 4594TIP3    H113746   5.109   6.543   1.028  2.5497 -1.6717 -1.1461
 4594TIP3    H213747   5.240   6.611   1.061  1.0305  1.6185 -1.4755
 4595TIP3   OH213748   3.948   0.524   1.134  0.8179 -0.5957  0.5226
 4595TIP3    H113749   4.009   0.450   1.129 -0.6834 -2.1785  3.1095
 4595TIP3    H213750   3.890   0.512   1.059  2.1574 -0.4693 -0.5738
 4596TIP3   OH213751   6.057   3.439   4.737 -0.5015 -0.3961  0.0213
 4596TIP3    H113752   6.025   3.498   4.669  0.8758  1.8854  1.2073
 4596TIP3    H213753   6.114   3.494   4.791 -0.2090 -2.5208  2.0350
 4597TIP3   OH213754   0.019   5.752   5.102 -0.1124 -0.5565 -0.1337
 4597TIP3    H113755  -0.039   5.795   5.165 -1.9970 -0.5000 -1.8409
 4597TIP3    H213756   0.084   5.819   5.081 -0.0555 -0.2459  0.9481
 4598TIP3   OH213757   1.814   3.445   3.453  0.1330 -0.1151 -0.2334
 4598TIP3    H113758   1.838   3.489   3.535 -1.4456  0.3637  0.0205
 4598TIP3    H213759   1.732   3.401   3.473  0.8375 -1.8416 -0.9759
 4599TIP3   OH213760   6.399   1.919   5.738 -0.0413  0.2685 -0.6181
 4599TIP3    H113761   6.370   1.852   5.676 -1.0682 -0.9312  1.0594
 4599TIP3    H213762   6.317   1.953   5.774  0.5399  0.8354  0.1724
 4600TIP3   OH213763  -0.034   6.499   4.685 -0.0978 -0.0351 -0.0440
 4600TIP3    H113764   0.030   6.430   4.669 -0.6682 -1.2703  2.5070
 4600TIP3    H213765   0.017   6.580   4.690  0.3674  0.4320 -5.5654
 4601TIP3   OH213766   2.656   4.074   1.757  0.1410  0.0508  0.1752
 4601TIP3    H113767   2.674   4.049   1.666 -0.5932  1.4049 -0.3581
 4601TIP3    H213768   2.631   3.992   1.800  2.0832 -0.9126 -0.4153
 4602TIP3   OH213769   4.372   2.549   5.076 -0.1782  0.3219  0.2190
 4602TIP3    H113770   4.360   2.525   4.984  0.3934  0.6952  0.0422
 4602TIP3    H213771   4.403   2.469   5.118  0.2878  0.3500 -0.0671
 4603TIP3   OH213772   6.081   1.629   1.918 -0.2606  0.2268  0.2868
 4603TIP3    H113773   6.130   1.548   1.921 -0.7040 -0.0379  3.0173
 4603TIP3    H213774   6.044   1.632   1.830 -0.3446 -2.5984  0.1492
 4604TIP3   OH213775   4.328   6.740   4.494  0.2543  0.5127 -0.5051
 4604TIP3    H113776   4.334   6.695   4.579  1.6083  1.0358 -0.3052
 4604TIP3    H213777   4.234   6.754   4.482  0.0547  0.8199  1.1123
 4605TIP3   OH213778   2.246   4.206   3.951  0.5231  0.0424  0.1505
 4605TIP3    H113779   2.278   4.214   3.861 -0.3089  1.5616 -0.0419
 4605TIP3    H213780   2.190   4.128   3.950 -0.0081  0.4218 -0.8221
 4606TIP3   OH213781   4.028   1.365   0.074  0.6719  0.3132  0.2341
 4606TIP3    H113782   3.958   1.303   0.055  0.7503  0.2495  0.1569
 4606TIP3    H213783   3.983   1.450   0.082  0.2322 -0.0773  2.5983
 4607TIP3   OH213784   1.936   3.558   3.248 -0.5191 -0.3885 -0.1336
 4607TIP3    H113785   1.897   3.512   3.322 -0.1164 -0.4886  0.0224
 4607TIP3    H213786   2.017   3.596   3.283 -0.1585 -0.7133 -0.6008
 4608TIP3   OH213787   0.213   0.154   4.930  0.4322 -0.2032 -0.5401
 4608TIP3    H113788   0.150   0.098   4.885 -0.3861  0.0614  0.2402
 4608TIP3    H213789   0.210   0.237   4.883 -0.3584  0.0449 -0.0713
 4609TIP3   OH213790   0.751   2.633   4.727 -0.2398  0.6178  0.0604
 4609TIP3    H113791   0.758   2.545   4.689  2.7593  0.4617  0.6813
 4609TIP3    H213792   0.734   2.691   4.653 -0.0490 -0.2683 -0.6937
 4610TIP3   OH213793   4.236   2.207   4.740  0.9025 -0.0617 -0.5207
 4610TIP3    H113794   4.254   2.114   4.745 -1.6961 -0.5769  1.4478
 4610TIP3    H213795   4.148   2.217   4.777  1.4015  3.2743  0.1461
 4611TIP3   OH213796   0.064   5.593   3.576 -0.2162  0.1099  0.3194
 4611TIP3    H113797   0.053   5.661   3.510  0.2021  1.3804  1.4940
 4611TIP3    H213798  -0.024   5.577   3.609 -0.4778 -0.7855 -0.7476
 4612TIP3   OH213799   3.577   4.908   0.780  0.2907 -0.3587  0.4060
 4612TIP3    H113800   3.659   4.951   0.805  0.9339 -1.4612  0.2573
 4612TIP3    H213801   3.513   4.979   0.779  1.2411  0.5368  0.4937
 4613TIP3   OH213802   0.607   0.212   2.189  0.0425 -0.6422 -0.3442
 4613TIP3    H113803   0.595   0.253   2.275 -0.6991 -0.1337 -0.6770
 4613TIP3    H213804   0.679   0.150   2.202 -0.7843 -1.3899  0.9269
 4614TIP3   OH213805   1.332   2.621   0.947 -0.2773 -0.2615 -0.4001
 4614TIP3    H113806   1.267   2.556   0.975  1.0017 -0.9728  1.1266
 4614TIP3    H213807   1.317   2.696   1.004  1.2341 -1.0660  1.1760
 4615TIP3   OH213808   3.162   6.287   4.292 -0.4869 -0.0822 -0.3525
 4615TIP3    H113809   3.124   6.291   4.379  0.7507  0.9174  0.1714
 4615TIP3    H213810   3.181   6.378   4.269  1.1570 -0.4844 -0.7517
 4616TIP3   OH213811   1.701   4.771   0.295  0.3813  0.1273 -0.0281
 4616TIP3    H113812   1.613   4.802   0.316 -0.7881 -1.4657 -2.2241
 4616TIP3    H213813   1.749   4.850   0.270 -0.1141  1.1199  1.9089
 4617TIP3   OH213814   4.302   1.477   4.648 -0.1635 -0.0670  0.2656
 4617TIP3    H113815   4.316   1.455   4.556 -0.3593  1.1335 -0.0598
 4617TIP3    H213816   4.360   1.551   4.664  1.0915 -1.2667  1.5635
 4618TIP3   OH213817   0.057   6.424   3.782  0.6623  0.1454  0.2674
 4618TIP3    H113818  -0.036   6.407   3.792  0.9671 -1.3282  0.8405
 4618TIP3    H213819   0.065   6.471   3.699 -0.6446  0.8801  0.5458
 4619TIP3   OH213820   1.216   1.543   3.855 -0.6730 -0.0620 -0.2259
 4619TIP3    H113821   1.309   1.522   3.852 -0.4841  0.7764 -0.3106
 4619TIP3    H213822   1.206   1.621   3.802 -1.6361 -0.8601 -1.2804
 4620TIP3   OH213823   1.713   3.865   2.664  0.1579 -0.3250 -0.7127
 4620TIP3    H113824   1.636   3.919   2.643 -0.1915 -0.4410  0.2244
 4620TIP3    H213825   1.761   3.917   2.728  0.8265 -0.2890 -1.2425
 4621TIP3   OH213826   4.321   4.755   3.221  0.6799  0.4547 -0.3657
 4621TIP3    H113827   4.266   4.717   3.289 -1.1532  1.0223 -1.4672
 4621TIP3    H213828   4.367   4.680   3.183  0.4479 -0.0774  0.3989
 4622TIP3   OH213829   2.264   4.319   1.372  0.0682  0.2783 -0.0846
 4622TIP3    H113830   2.311   4.383   1.425  2.3560 -0.6095 -0.9208
 4622TIP3    H213831   2.322   4.302   1.298  0.2616 -3.7619  0.7707
 4623TIP3   OH213832   2.497   1.026   2.424 -0.6954 -0.4131  0.3755
 4623TIP3    H113833   2.563   0.966   2.387 -2.1058 -1.4688 -0.5593
 4623TIP3    H213834   2.524   1.112   2.394  0.1187 -0.8606 -0.2284
 4624TIP3   OH213835   0.964   2.921   1.007  0.2154 -0.2888  0.6978
 4624TIP3    H113836   0.880   2.894   0.970  1.0994  1.1574 -2.7779
 4624TIP3    H213837   1.017   2.842   1.008  0.1413 -0.4111 -1.3014
 4625TIP3   OH213838   3.498   6.221   3.043 -0.0045 -0.4582  0.3275
 4625TIP3    H113839   3.503   6.258   3.131  1.2862  0.0654  0.0561
 4625TIP3    H213840   3.552   6.142   3.046 -1.4897 -1.5260  0.4806
 4626TIP3   OH213841   4.064   0.946   4.383  0.0125 -0.3944  0.3794
 4626TIP3    H113842   4.087   0.936   4.475  1.4226 -1.0030 -0.0126
 4626TIP3    H213843   4.030   1.035   4.377  0.0999 -0.2730  1.4444
 4627TIP3   OH213844   5.305   3.469   1.080 -0.0023  0.0526  0.0417
 4627TIP3    H113845   5.366   3.496   1.148 -0.8590  1.2282  0.3706
 4627TIP3    H213846   5.221   3.458   1.125 -0.0168 -1.8724 -0.3343
 4628TIP3   OH213847   0.250   3.709   1.516 -0.5411 -0.4184  0.3973
 4628TIP3    H113848   0.234   3.753   1.433 -1.1552 -1.4344 -0.0442
 4628TIP3    H213849   0.163   3.680   1.546 -0.2460 -0.6767  1.0332
 4629TIP3   OH213850   6.474   2.704   5.397 -0.4040 -0.3060  0.2140
 4629TIP3    H113851   6.570   2.698   5.396 -0.3527  0.2035 -1.3252
 4629TIP3    H213852   6.446   2.638   5.333 -0.9293  1.2068 -1.1707
 4630TIP3   OH213853   0.579   6.610   2.672 -0.2461  0.6596 -0.6801
 4630TIP3    H113854   0.485   6.624   2.677  0.0345  3.4710 -1.6414
 4630TIP3    H213855   0.589   6.529   2.621 -2.0841  0.0651 -0.1614
 4631TIP3   OH213856   6.599   6.484   4.982  0.1851  0.2758 -0.0252
 4631TIP3    H113857   6.571   6.405   4.935 -1.6543  0.0045  1.3870
 4631TIP3    H213858   6.668   6.455   5.041 -0.0010 -0.1411 -0.0103
 4632TIP3   OH213859   5.560   4.361   4.660 -0.0255  1.0777  0.2944
 4632TIP3    H113860   5.600   4.400   4.738  1.0149  1.5164 -0.4325
 4632TIP3    H213861   5.629   4.365   4.594  0.1623 -1.9641  0.1358
 4633TIP3   OH213862   4.361   4.712   0.453  0.0316 -0.0915  0.1589
 4633TIP3    H113863   4.279   4.664   0.447 -0.8103  1.4819 -2.4961
 4633TIP3    H213864   4.348   4.773   0.526 -1.5269  0.6664 -0.7001
 4634TIP3   OH213865   0.784   4.895   4.797 -0.3757  0.9218 -0.5373
 4634TIP3    H113866   0.802   4.959   4.728  1.5890  1.2551  0.2143
 4634TIP3    H213867   0.689   4.898   4.808 -0.4855  2.6494 -1.5283
 4635TIP3   OH213868   2.929   2.735   0.063  0.0458  0.0907 -0.0688
 4635TIP3    H113869   3.006   2.759   0.115 -0.5586 -0.9101  1.3461
 4635TIP3    H213870   2.938   2.787  -0.017  2.8616 -0.9267 -0.5365
 4636TIP3   OH213871   2.252   2.188   5.491 -0.0662  0.3437 -0.0205
 4636TIP3    H113872   2.243   2.131   5.567  0.7778  0.1601 -0.0514
 4636TIP3    H213873   2.221   2.274   5.521 -1.5323 -0.1594 -0.0334
 4637TIP3   OH213874   6.293   1.999   1.501  0.4667  0.0800 -0.3192
 4637TIP3    H113875   6.275   1.922   1.553  0.3619  1.3544  1.6395
 4637TIP3    H213876   6.224   2.061   1.525  0.7377  0.9142 -1.5865
 4638TIP3   OH213877   4.167   5.586   2.778 -0.0464  0.4516 -0.2485
 4638TIP3    H113878   4.090   5.629   2.742 -0.7203 -0.3328  0.2209
 4638TIP3    H213879   4.160   5.495   2.748  0.1630  0.1399  0.6160
 4639TIP3   OH213880   0.805   6.729   2.739  0.6945 -0.3986  0.4674
 4639TIP3    H113881   0.724   6.691   2.706  1.6923 -2.1030 -0.1586
 4639TIP3    H213882   0.822   6.683   2.821 -0.3782  1.9527  2.1539
 4640TIP3   OH213883   1.453   2.592   3.108  0.0651  0.3348 -0.0286
 4640TIP3    H113884   1.453   2.613   3.015 -0.0575 -1.2500 -0.4110
 4640TIP3    H213885   1.536   2.627   3.140 -0.5631  2.2751 -0.3641
 4641TIP3   OH213886   7.036   2.721   5.522  0.0411 -0.4565 -0.4073
 4641TIP3    H113887   7.131   2.716   5.532  0.1146 -0.4351 -1.0797
 4641TIP3    H213888   7.007   2.771   5.599  0.4838 -1.1501  0.2232
 4642TIP3   OH213889   0.860   0.142   0.946  0.6765  0.0116  0.0090
 4642TIP3    H113890   0.943   0.094   0.944  1.1656  0.8368 -1.6830
 4642TIP3    H213891   0.837   0.152   0.853 -0.7355  0.7983  0.4213
 4643TIP3   OH213892   5.872   4.657   3.753  0.4313  0.3563  0.1445
 4643TIP3    H113893   5.868   4.734   3.697 -0.9474 -0.6449 -1.2177
 4643TIP3    H213894   5.965   4.644   3.769  0.7700  1.4800 -0.7891
 4644TIP3   OH213895   0.851   5.073   5.466  0.5308 -0.0695  0.7655
 4644TIP3    H113896   0.780   5.126   5.430  0.9412 -1.0596 -1.7427
 4644TIP3    H213897   0.815   4.985   5.472  1.5284 -0.6090 -0.6539
 4645TIP3   OH213898   5.137   4.036   0.103  0.4269 -0.1348 -0.1432
 4645TIP3    H113899   5.051   4.012   0.138 -0.2746 -0.0278 -1.7271
 4645TIP3    H213900   5.128   4.128   0.079  1.5926  0.4175  1.3914
 4646TIP3   OH213901   0.220   5.616   2.656  0.0106  0.0326 -0.0901
 4646TIP3    H113902   0.236   5.578   2.570  0.1921 -0.8519  0.3207
 4646TIP3    H213903   0.141   5.571   2.687 -0.2770  0.6250  0.0503
 4647TIP3   OH213904   1.131   0.696   0.573  0.0606 -0.2931 -0.4213
 4647TIP3    H113905   1.069   0.625   0.557 -0.1654 -0.1838 -0.0329
 4647TIP3    H213906   1.083   0.760   0.625  0.4506 -0.1428 -0.2354
 4648TIP3   OH213907   4.334   5.290   1.266  0.1926 -0.2100  0.3049
 4648TIP3    H113908   4.283   5.320   1.191  0.2320  0.1617  0.4265
 4648TIP3    H213909   4.316   5.354   1.334  1.9574  0.7610 -0.0918
 4649TIP3   OH213910   2.549   5.786   0.291  0.4454 -0.3517 -0.4482
 4649TIP3    H113911   2.505   5.770   0.375  0.6467 -1.2364 -0.5027
 4649TIP3    H213912   2.625   5.840   0.314 -0.3296  0.7107 -0.2813
 4650TIP3   OH213913   1.065   5.025   4.662 -0.2064 -0.2018  0.0523
 4650TIP3    H113914   1.090   5.101   4.714 -2.0556  0.7008 -0.3030
 4650TIP3    H213915   1.088   4.949   4.716 -0.4029  0.6623  1.3789
 4651TIP3   OH213916   2.810   3.865   0.877  0.1640  0.6858  0.4517
 4651TIP3    H113917   2.726   3.840   0.838  1.0224  0.0744 -1.0891
 4651TIP3    H213918   2.861   3.900   0.804  1.6314  0.0482  1.1286
 4652TIP3   OH213919   6.579   6.440   2.180  0.2364  0.9690  0.1525
 4652TIP3    H113920   6.503   6.422   2.236 -0.1698  0.1494 -0.6307
 4652TIP3    H213921   6.653   6.445   2.241 -0.2416  0.3902  0.8019
 4653TIP3   OH213922   2.985   0.009   5.525 -0.0747 -0.1998 -0.0010
 4653TIP3    H113923   2.950   0.052   5.447 -1.0051 -1.5290 -0.3533
 4653TIP3    H213924   2.980   0.076   5.593 -2.6368 -0.0739 -0.2274
 4654TIP3   OH213925   3.585   0.804   5.543  0.0538 -0.5292  0.0356
 4654TIP3    H113926   3.571   0.852   5.461 -0.6081  0.1841  0.5478
 4654TIP3    H213927   3.680   0.810   5.557  0.0023  0.6021  0.0457
 4655TIP3   OH213928   2.197   2.318   2.861  0.2166  0.5313  0.2546
 4655TIP3    H113929   2.115   2.364   2.843  0.5202  0.8310 -0.3892
 4655TIP3    H213930   2.265   2.386   2.855  0.4171  0.5261  1.9063
 4656TIP3   OH213931   6.823   5.969   2.168  0.1559 -0.0184  0.6252
 4656TIP3    H113932   6.795   5.882   2.197 -0.0603  0.2439  1.2154
 4656TIP3    H213933   6.777   6.029   2.226 -0.6880  0.5432 -0.5915
 4657TIP3   OH213934   0.170   3.488   2.341 -0.1289  0.5553 -0.2228
 4657TIP3    H113935   0.168   3.572   2.294  0.5001  0.2948 -0.7303
 4657TIP3    H213936   0.253   3.449   2.315  0.2844  0.4469  1.2240
 4658TIP3   OH213937   4.101   4.798   3.901 -0.1267 -0.1372 -0.0829
 4658TIP3    H113938   4.019   4.807   3.950  1.2304  1.1022  2.0628
 4658TIP3    H213939   4.087   4.852   3.823 -1.6545 -0.6563 -0.2146
 4659TIP3   OH213940   3.234   6.334   5.662  0.0716  0.0669  0.2936
 4659TIP3    H113941   3.165   6.269   5.666  0.6487 -0.5838 -0.2191
 4659TIP3    H213942   3.190   6.414   5.631 -0.3188 -0.5169 -0.6807
 4660TIP3   OH213943   4.928   1.329   3.807 -0.4332  0.0909 -0.4324
 4660TIP3    H113944   4.981   1.375   3.741 -0.8967  1.4392  0.1013
 4660TIP3    H213945   4.915   1.242   3.770  0.9902  0.1722 -1.2014
 4661TIP3   OH213946   4.581   1.726   5.702  0.3691 -0.1335 -0.1071
 4661TIP3    H113947   4.644   1.710   5.773  1.3475  0.6910 -0.7550
 4661TIP3    H213948   4.596   1.817   5.677  0.8679 -0.7154 -2.1142
 4662TIP3   OH213949   3.720   1.419   3.576 -0.0783 -0.4411 -0.1701
 4662TIP3    H113950   3.798   1.386   3.533 -0.6957 -1.8340 -0.2884
 4662TIP3    H213951   3.666   1.454   3.505  0.6692  1.0808 -0.0208
 4663TIP3   OH213952   6.382   4.833   0.591 -0.0704  0.3995  0.4263
 4663TIP3    H113953   6.433   4.770   0.641 -0.9825 -0.8515 -0.1845
 4663TIP3    H213954   6.320   4.781   0.541  0.4656  1.6338 -1.6592
 4664TIP3   OH213955   2.437   4.286   1.158  0.0260 -0.2245  0.2036
 4664TIP3    H113956   2.377   4.247   1.095 -1.8306 -1.0049  2.3113
 4664TIP3    H213957   2.514   4.310   1.106  0.1303 -4.0040 -1.7854
 4665TIP3   OH213958   0.461   6.080   3.229 -0.0763 -0.1881 -0.3595
 4665TIP3    H113959   0.393   6.082   3.297 -0.1644  1.1481 -0.4661
 4665TIP3    H213960   0.521   6.012   3.258 -2.0573 -2.3003 -0.8686
 4666TIP3   OH213961   2.597   3.368   1.104  0.2660 -0.4472 -0.0535
 4666TIP3    H113962   2.585   3.462   1.092  0.9169 -0.3331  0.1342
 4666TIP3    H213963   2.568   3.351   1.194  2.0056 -0.0636  0.6206
 4667TIP3   OH213964   1.543   2.976   2.347  0.3373  0.1967  0.4983
 4667TIP3    H113965   1.514   3.055   2.302 -2.2686  1.0032  3.3128
 4667TIP3    H213966   1.619   3.004   2.399 -0.4377  0.8297  1.3083
 4668TIP3   OH213967   6.716   4.222   3.083  0.3124 -0.5478 -0.5114
 4668TIP3    H113968   6.771   4.261   3.014 -0.0631 -0.5705 -0.8287
 4668TIP3    H213969   6.643   4.182   3.035  0.5569 -1.4177 -0.1656
 4669TIP3   OH213970   5.402   2.215   1.932  0.4098  0.2318  0.0283
 4669TIP3    H113971   5.441   2.264   2.004  0.7027  0.8265 -0.5260
 4669TIP3    H213972   5.394   2.126   1.965  2.9120 -0.0891 -0.0854
 4670TIP3   OH213973   6.897   1.265   4.083 -0.5086  0.5932  0.1899
 4670TIP3    H113974   6.805   1.291   4.071  0.3817  3.6262 -1.0658
 4670TIP3    H213975   6.931   1.259   3.994  0.6643  0.1069  0.6589
 4671TIP3   OH213976   1.557   3.064   2.036 -0.7776  0.5645  0.1994
 4671TIP3    H113977   1.625   3.018   1.986 -1.6777  0.3718 -0.9045
 4671TIP3    H213978   1.604   3.128   2.088  0.3312 -0.2306  0.2002
 4672TIP3   OH213979   2.616   5.521   1.417  0.4216  0.1231  0.1252
 4672TIP3    H113980   2.696   5.550   1.374 -0.1234  2.3251  0.4647
 4672TIP3    H213981   2.636   5.526   1.511 -0.2674  1.2437  0.2256
 4673TIP3   OH213982   3.114   5.983   4.568 -0.0492 -0.1953  0.8310
 4673TIP3    H113983   3.027   6.022   4.560  0.0514 -0.2335 -0.9454
 4673TIP3    H213984   3.122   5.960   4.661 -1.4836  0.8015  1.2375
 4674TIP3   OH213985   6.860   3.800   1.873 -0.2969 -0.7019  0.7589
 4674TIP3    H113986   6.774   3.840   1.863  0.3548  0.5611 -0.1347
 4674TIP3    H213987   6.864   3.734   1.804  0.5234  1.3096 -1.2492
 4675TIP3   OH213988   4.674   2.905   3.779 -0.3039  0.1242 -0.0485
 4675TIP3    H113989   4.635   2.934   3.696 -2.0965  0.9213  1.0207
 4675TIP3    H213990   4.627   2.825   3.801  1.7127 -1.3743 -0.8520
 4676TIP3   OH213991   6.714   2.022   3.749 -0.9352 -0.0663 -0.2508
 4676TIP3    H113992   6.691   1.942   3.797  1.0008 -0.5230  0.0008
 4676TIP3    H213993   6.757   1.991   3.670 -0.7894  0.7309 -0.4959
 4677TIP3   OH213994   2.703   3.434   0.771  0.2437  0.1071  0.2852
 4677TIP3    H113995   2.625   3.413   0.822 -0.2328  0.1381 -0.4214
 4677TIP3    H213996   2.776   3.427   0.833 -0.3265  0.1198  0.9569
 4678TIP3   OH213997   3.514   6.814   2.733  1.0330 -0.3850  0.1409
 4678TIP3    H113998   3.607   6.803   2.752  0.7439 -0.7437  1.4251
 4678TIP3    H213999   3.483   6.726   2.711  1.0805 -0.1887 -0.7687
 4679TIP3   OH214000   1.818   1.408   3.364 -0.9221 -0.2543 -0.2021
 4679TIP3    H114001   1.882   1.340   3.388  0.0728  0.4174 -0.8393
 4679TIP3    H214002   1.844   1.484   3.417 -1.6020 -0.1652  0.0042
 4680TIP3   OH214003   2.320   6.592   5.761  0.8942 -0.4452  0.4346
 4680TIP3    H114004   2.261   6.536   5.711  1.1455 -1.0894  0.8387
 4680TIP3    H214005   2.265   6.661   5.797  0.7533  0.1921 -0.9546
 4681TIP3   OH214006   5.524   6.304   4.257  0.1240  0.3434 -0.0074
 4681TIP3    H114007   5.527   6.398   4.273  0.3556  0.2415  0.5817
 4681TIP3    H214008   5.593   6.268   4.313 -1.6025 -0.4310  1.7064
 4682TIP3   OH214009   4.695   0.652   1.786  0.1388  0.2743 -0.4095
 4682TIP3    H114010   4.697   0.646   1.882  1.0353  0.0609 -0.4339
 4682TIP3    H214011   4.660   0.568   1.757  3.7361 -1.4326 -0.3884
 4683TIP3   OH214012   2.244   4.389   3.702 -0.0414  0.1296  0.4304
 4683TIP3    H114013   2.197   4.451   3.758  0.5282  2.0247 -1.0901
 4683TIP3    H214014   2.329   4.377   3.746 -0.5089 -0.3570  1.2278
 4684TIP3   OH214015   7.108   3.650   1.330  0.0659  0.1263 -0.2536
 4684TIP3    H114016   7.143   3.562   1.345 -0.7323 -0.2307 -0.4658
 4684TIP3    H214017   7.078   3.678   1.417 -1.6151 -0.6680 -0.5411
 4685TIP3   OH214018   7.035   6.517   5.616  0.1709 -0.4306  0.3132
 4685TIP3    H114019   7.055   6.448   5.553  1.0310 -0.8093  0.9711
 4685TIP3    H214020   7.039   6.598   5.566 -1.5192 -0.8830 -0.6137
 4686TIP3   OH214021   1.963   1.271   4.812 -0.0609  0.1157 -0.1506
 4686TIP3    H114022   1.915   1.325   4.750  0.9637  1.8062  0.4708
 4686TIP3    H214023   1.972   1.186   4.769 -0.1853  0.9610 -1.9001
 4687TIP3   OH214024   2.261   4.311   4.614  0.2504  0.0546 -0.2856
 4687TIP3    H114025   2.248   4.235   4.671 -1.3118  0.7763  0.3803
 4687TIP3    H214026   2.233   4.282   4.528 -0.2214 -0.1710 -0.0609
 4688TIP3   OH214027   5.475   3.867   1.706  0.8282 -0.5472 -0.3819
 4688TIP3    H114028   5.385   3.834   1.714  0.9701 -0.9595 -0.4882
 4688TIP3    H214029   5.479   3.940   1.767  0.8386 -1.4068  0.6646
 4689TIP3   OH214030   2.540   5.024   3.190 -0.6819  0.2764 -0.2638
 4689TIP3    H114031   2.505   4.939   3.164 -1.2152  0.2949  0.3609
 4689TIP3    H214032   2.617   5.036   3.134 -0.0814 -1.0156  0.2313
 4690TIP3   OH214033   0.898   4.704   4.409 -0.4866  0.1978  0.5516
 4690TIP3    H114034   0.811   4.740   4.427 -0.2207  0.3513  1.5542
 4690TIP3    H214035   0.935   4.763   4.343 -0.8722  0.5191  0.6178
 4691TIP3   OH214036   6.325   3.431   1.317  0.0521 -0.2965 -0.0898
 4691TIP3    H114037   6.321   3.395   1.406  1.0201  2.1924  1.0549
 4691TIP3    H214038   6.233   3.439   1.290 -0.3509  0.5015  1.4128
 4692TIP3   OH214039   5.007   4.771   3.957  0.6342 -0.4536 -0.0865
 4692TIP3    H114040   4.922   4.746   3.994  0.1488 -0.3941 -1.1375
 4692TIP3    H214041   5.031   4.851   4.004  0.0767 -0.4281  0.1666
 4693TIP3   OH214042   0.400   2.516   2.788  0.4113  0.0344 -0.3762
 4693TIP3    H114043   0.359   2.599   2.808 -2.7128 -1.3722 -0.3820
 4693TIP3    H214044   0.378   2.499   2.696 -0.2227 -1.4002  0.0068
 4694TIP3   OH214045   4.201   1.616   3.948 -0.3063 -0.6422  0.1372
 4694TIP3    H114046   4.156   1.698   3.931 -2.1856 -1.7711 -0.6224
 4694TIP3    H214047   4.274   1.616   3.886 -0.0052  0.6320  0.4641
 4695TIP3   OH214048   6.520   1.276   5.189 -0.4005 -0.1589  0.1031
 4695TIP3    H114049   6.571   1.211   5.238  0.6767 -1.0783 -2.0801
 4695TIP3    H214050   6.429   1.248   5.200 -0.1512 -0.6150  1.1346
 4696TIP3   OH214051   1.879   5.226   3.446  0.3440  0.4610 -0.4520
 4696TIP3    H114052   1.797   5.208   3.401 -0.8089  0.4204  1.5565
 4696TIP3    H214053   1.941   5.165   3.407 -0.8800 -0.3649 -1.1766
 4697TIP3   OH214054   6.327   1.682   5.615  0.8284 -0.7593 -0.0567
 4697TIP3    H114055   6.411   1.635   5.614  1.1575 -0.1992  0.5447
 4697TIP3    H214056   6.263   1.616   5.587  1.5609 -0.9945 -1.2649
 4698TIP3   OH214057   0.557   5.801   0.282  0.3801 -0.1702 -0.2469
 4698TIP3    H114058   0.571   5.885   0.239  1.5938 -1.1882 -1.9827
 4698TIP3    H214059   0.494   5.756   0.225 -1.5570  0.1166  1.5347
 4699TIP3   OH214060   5.112   3.817   5.649  0.2804  0.4389 -0.1972
 4699TIP3    H114061   5.162   3.885   5.604  2.7218 -0.1877  1.3621
 4699TIP3    H214062   5.090   3.754   5.580 -0.1954  1.7494 -1.2804
 4700TIP3   OH214063   2.583   4.667   0.339 -0.1438  0.1601  0.0365
 4700TIP3    H114064   2.511   4.703   0.289  1.0073  1.4653 -0.7647
 4700TIP3    H214065   2.659   4.677   0.282  0.6043 -1.6329  0.6474
 4701TIP3   OH214066   1.397   1.677   2.417 -0.6101 -0.0095  0.0879
 4701TIP3    H114067   1.314   1.664   2.372 -0.9605 -1.3983  1.0753
 4701TIP3    H214068   1.455   1.609   2.380  0.1477  1.0228 -0.6822
 4702TIP3   OH214069   4.669   4.770   0.585  0.4595 -0.6688  0.2178
 4702TIP3    H114070   4.609   4.739   0.517  0.3209  0.2051 -0.0772
 4702TIP3    H214071   4.732   4.824   0.538 -0.7997  1.6077  0.9942
 4703TIP3   OH214072   2.087   0.446   4.164  0.2186  0.4269  0.3869
 4703TIP3    H114073   2.092   0.422   4.257 -0.0070  0.0009  0.2893
 4703TIP3    H214074   2.168   0.411   4.127  0.1930  0.3833  0.3731
 4704TIP3   OH214075   0.369   0.150   1.036 -0.9779  0.0442  0.1357
 4704TIP3    H114076   0.329   0.079   0.986 -0.8498 -0.2786  0.4902
 4704TIP3    H214077   0.452   0.115   1.067 -0.8673  0.3825  0.2260
 4705TIP3   OH214078   2.487   3.550   5.878 -0.7210 -0.4401  0.6077
 4705TIP3    H114079   2.447   3.627   5.838 -0.3777 -1.9862 -3.0191
 4705TIP3    H214080   2.579   3.575   5.888 -0.7856 -0.0779  0.3314
 4706TIP3   OH214081   6.069   6.213   5.440 -0.1516  0.0689  0.1792
 4706TIP3    H114082   6.004   6.238   5.506 -1.6763  0.2450 -1.3329
 4706TIP3    H214083   6.150   6.254   5.470 -1.0535  1.0417  1.3827
 4707TIP3   OH214084   6.215   0.693   0.246  0.2724  0.1027 -0.0898
 4707TIP3    H114085   6.288   0.634   0.231 -0.7263 -0.9100 -1.1426
 4707TIP3    H214086   6.200   0.690   0.341  2.3960  1.3646  0.3516
 4708TIP3   OH214087   2.454   3.067   5.757 -0.4053 -0.5027 -0.2482
 4708TIP3    H114088   2.398   3.002   5.713  0.1620 -1.4197  0.3348
 4708TIP3    H214089   2.397   3.111   5.819 -0.9387 -0.0135 -1.0665
 4709TIP3   OH214090   2.965   0.043   0.559  0.5213 -0.0543 -0.4165
 4709TIP3    H114091   2.943   0.056   0.651  1.3772  0.9223 -0.3343
 4709TIP3    H214092   3.054   0.078   0.550  0.0622  0.8326 -1.8369
 4710TIP3   OH214093   3.492   4.686   3.375 -0.0324  0.4870 -0.3366
 4710TIP3    H114094   3.519   4.707   3.464 -0.4825 -0.7274  0.1058
 4710TIP3    H214095   3.398   4.673   3.379  0.0155 -0.1385 -0.8593
 4711TIP3   OH214096   4.943   0.083   3.324 -0.4726 -0.4500  0.5789
 4711TIP3    H114097   4.889   0.100   3.401  1.0296  1.5864  1.2854
 4711TIP3    H214098   5.021   0.137   3.338  1.2005 -2.3273 -0.9557
 4712TIP3   OH214099   1.469   2.514   5.738 -0.8895  0.1525  0.3174
 4712TIP3    H114100   1.532   2.558   5.682 -1.5646 -1.6059 -1.9731
 4712TIP3    H214101   1.506   2.426   5.751 -2.3950 -0.6210 -0.3375
 4713TIP3   OH214102   3.355   0.295   0.097 -0.0278  0.5252 -0.1821
 4713TIP3    H114103   3.370   0.316   0.189  2.4531 -0.7480 -0.2034
 4713TIP3    H214104   3.434   0.325   0.052  0.0355 -1.3282 -1.4327
 4714TIP3   OH214105   4.312   5.719   3.592 -0.2186 -0.0272 -0.4213
 4714TIP3    H114106   4.335   5.665   3.668 -0.4802  1.1693  0.5394
 4714TIP3    H214107   4.219   5.738   3.602  0.0838  1.4476 -0.1577
 4715TIP3   OH214108   4.866   1.068   4.646  0.4520 -0.0463  0.1632
 4715TIP3    H114109   4.936   1.110   4.596  0.4420 -0.3353 -0.0982
 4715TIP3    H214110   4.877   1.101   4.735  1.0970 -0.3123  0.1852
 4716TIP3   OH214111   5.610   2.193   3.816 -0.2075  0.7481  0.0693
 4716TIP3    H114112   5.638   2.152   3.734 -1.1032 -4.3677  1.9469
 4716TIP3    H214113   5.692   2.221   3.858  0.7834 -1.1471 -0.5127
 4717TIP3   OH214114   4.373   6.727   1.905 -0.1182 -0.4080 -0.0635
 4717TIP3    H114115   4.291   6.681   1.889  0.9327 -2.1168 -0.8373
 4717TIP3    H214116   4.441   6.663   1.885  1.4390  1.3589 -0.7984
 4718TIP3   OH214117   7.014   5.560   5.303 -0.4274  0.0348  0.5650
 4718TIP3    H114118   6.947   5.544   5.236 -1.0501 -0.2972  1.2475
 4718TIP3    H214119   7.080   5.492   5.288 -0.3457  0.2356  0.0148
 4719TIP3   OH214120   4.088   6.047   4.505 -0.3371 -0.4589  0.2347
 4719TIP3    H114121   4.009   5.995   4.487  0.4587 -2.7572  2.7194
 4719TIP3    H214122   4.089   6.058   4.600  2.7921 -1.4043  0.4189
 4720TIP3   OH214123   0.896   3.949   3.224  0.0378 -0.7823  0.4564
 4720TIP3    H114124   0.843   4.010   3.174  0.5686 -0.7066 -0.0195
 4720TIP3    H214125   0.956   4.004   3.274  1.1071 -0.9176 -0.6299
 4721TIP3   OH214126   0.624   3.851   0.656  0.1858 -0.4017 -0.3006
 4721TIP3    H114127   0.700   3.802   0.624 -0.6629 -1.8953 -0.1283
 4721TIP3    H214128   0.626   3.840   0.751 -0.8905 -1.4990 -0.3785
 4722TIP3   OH214129   5.222   6.304   0.241 -0.1246  0.5886  0.1727
 4722TIP3    H114130   5.243   6.324   0.332  2.1508  0.8523 -0.3399
 4722TIP3    H214131   5.181   6.383   0.207 -1.6137  0.2592  1.0936
 4723TIP3   OH214132   6.085   2.477   5.475  0.1640 -0.1528  0.1679
 4723TIP3    H114133   6.083   2.542   5.405  1.5974 -0.2698 -0.0179
 4723TIP3    H214134   5.996   2.474   5.508 -0.2032  0.9915 -0.6640
 4724TIP3   OH214135   5.988   1.031   4.119 -0.6948 -0.1484 -0.1011
 4724TIP3    H114136   5.939   0.957   4.154  0.6685 -0.9942  0.1040
 4724TIP3    H214137   5.944   1.108   4.154 -1.9370 -0.8603 -0.0394
 4725TIP3   OH214138   4.443   3.867   4.926 -0.4659  0.7036 -0.4492
 4725TIP3    H114139   4.504   3.793   4.934  0.4369  1.3905 -0.9043
 4725TIP3    H214140   4.383   3.855   5.000 -0.4911 -0.6169 -0.6457
 4726TIP3   OH214141   2.670   6.365   0.341 -0.2505  0.1851 -0.3660
 4726TIP3    H114142   2.659   6.377   0.435 -0.1462  0.3310 -0.3709
 4726TIP3    H214143   2.591   6.404   0.302 -0.0245  0.6508 -0.3686
 4727TIP3   OH214144   5.100   0.473   3.316 -0.0713 -0.4650  0.2058
 4727TIP3    H114145   5.124   0.546   3.372 -0.0594 -0.1030 -0.2698
 4727TIP3    H214146   5.005   0.465   3.327  0.1313 -1.3964  1.4769
 4728TIP3   OH214147   5.125   4.453   3.867  0.2687 -0.1902  0.0021
 4728TIP3    H114148   5.081   4.426   3.787 -1.4625 -0.5191  0.9993
 4728TIP3    H214149   5.186   4.381   3.886  0.4512 -0.2660 -0.8275
 4729TIP3   OH214150   0.482  -0.010   4.902  0.3654 -0.1359  0.0417
 4729TIP3    H114151   0.440   0.048   4.839  0.6176 -0.1241 -0.1189
 4729TIP3    H214152   0.476   0.036   4.985 -1.6359 -0.9609  0.4123
 4730TIP3   OH214153   6.837   4.625   0.593 -0.2092 -0.4438  0.2200
 4730TIP3    H114154   6.867   4.659   0.509 -1.6470  1.2595  0.3518
 4730TIP3    H214155   6.865   4.533   0.592 -0.0225 -0.4212 -2.0232
 4731TIP3   OH214156   2.576   4.487   2.374 -0.1843  0.0418 -0.7380
 4731TIP3    H114157   2.508   4.456   2.313 -0.3849 -0.3251 -0.3333
 4731TIP3    H214158   2.625   4.408   2.397 -1.5388 -0.2492  1.3498
 4732TIP3   OH214159   0.154   0.027   1.221 -0.1077  0.1478  0.5080
 4732TIP3    H114160   0.218   0.076   1.169  0.6691 -1.5470 -0.2097
 4732TIP3    H214161   0.157   0.067   1.308 -0.4182  2.1450 -0.3379
 4733TIP3   OH214162   6.354   4.064   4.893  0.0433  0.3536 -0.1471
 4733TIP3    H114163   6.328   4.058   4.801 -1.5690  0.0779  0.3008
 4733TIP3    H214164   6.432   4.009   4.899 -0.4834 -0.5341 -1.1344
 4734TIP3   OH214165   5.103   1.756   3.626 -0.0297 -0.2078  0.5288
 4734TIP3    H114166   5.158   1.773   3.703 -0.3886 -1.8937  1.1994
 4734TIP3    H214167   5.163   1.719   3.562 -0.2196 -1.3697  1.0019
 4735TIP3   OH214168   4.215   5.687   4.192 -0.3489 -0.4793  0.6619
 4735TIP3    H114169   4.215   5.679   4.287  0.0065 -0.8829  0.6296
 4735TIP3    H214170   4.244   5.777   4.176  1.2379 -0.9153  0.9112
 4736TIP3   OH214171   1.436   4.946   2.616  0.4738 -0.7200 -0.4553
 4736TIP3    H114172   1.445   5.034   2.581 -0.1855  0.0422  1.1581
 4736TIP3    H214173   1.345   4.921   2.597  0.4855 -0.8010 -0.4080
 4737TIP3   OH214174   4.441   1.842   1.920  0.2411 -0.3748  0.1615
 4737TIP3    H114175   4.370   1.779   1.910  0.0085 -0.0085 -0.6004
 4737TIP3    H214176   4.417   1.892   1.998  0.3334 -1.0970  0.6623
 4738TIP3   OH214177   0.090   2.426   4.480  0.4683 -0.2732  0.4124
 4738TIP3    H114178   0.173   2.415   4.526 -0.1256 -1.0960  1.2933
 4738TIP3    H214179   0.054   2.508   4.514 -0.0356 -0.9482  1.5511
 4739TIP3   OH214180   0.678   4.738   2.927 -0.9115 -0.6117  0.6245
 4739TIP3    H114181   0.704   4.824   2.895  0.1202 -0.6884  1.2015
 4739TIP3    H214182   0.611   4.709   2.866  0.0325 -0.1843 -0.6622
 4740TIP3   OH214183   4.569   4.824   3.901  0.1154  0.4104 -0.4019
 4740TIP3    H114184   4.583   4.848   3.809  3.5810 -1.2132 -0.4431
 4740TIP3    H214185   4.579   4.907   3.949  0.6449  0.8868 -1.3051
 4741TIP3   OH214186   0.462   4.498   4.871  0.2675 -0.9147 -0.8823
 4741TIP3    H114187   0.435   4.559   4.802  0.1210 -0.1607 -0.1619
 4741TIP3    H214188   0.542   4.536   4.907 -0.7335 -0.2250  0.7186
 4742TIP3   OH214189   1.351   0.960   0.830 -0.4000 -0.3763  0.5088
 4742TIP3    H114190   1.379   1.043   0.791 -0.2790  0.0470  1.4539
 4742TIP3    H214191   1.256   0.966   0.836 -0.5330 -0.9582 -0.8298
 4743TIP3   OH214192   3.290   2.032   3.871  0.2723  0.0855  0.1418
 4743TIP3    H114193   3.243   1.961   3.916 -1.3739 -0.1265 -1.7791
 4743TIP3    H214194   3.368   1.990   3.835 -0.3756 -0.6281 -0.4584
 4744TIP3   OH214195   6.791   2.564   5.207  0.6976  0.5459  0.1795
 4744TIP3    H114196   6.729   2.491   5.200  2.0325 -0.6319  0.0428
 4744TIP3    H214197   6.736   2.642   5.214 -0.7844 -0.4424  0.0647
 4745TIP3   OH214198   5.826   6.106   5.201 -0.4550 -0.3034 -0.7366
 4745TIP3    H114199   5.905   6.158   5.187 -1.6195  1.3855 -1.4208
 4745TIP3    H214200   5.776   6.154   5.267 -1.1419 -1.0517 -0.6885
 4746TIP3   OH214201   2.747   0.015   2.951  0.0854  0.0519  0.4143
 4746TIP3    H114202   2.691   0.035   3.026  0.6793 -0.4257  0.9996
 4746TIP3    H214203   2.772   0.101   2.916  0.5112  0.3135  1.3094
 4747TIP3   OH214204   2.465   2.583   1.639 -0.5042  0.0003 -0.6660
 4747TIP3    H114205   2.436   2.658   1.692  2.6536  0.6526  0.3685
 4747TIP3    H214206   2.447   2.609   1.549 -2.2069  0.6710 -0.1772
 4748TIP3   OH214207   1.096   1.170   0.178  0.0877 -0.5978 -0.5965
 4748TIP3    H114208   1.133   1.169   0.266  0.2765  0.1825 -0.6609
 4748TIP3    H214209   1.002   1.157   0.191 -0.2142  1.7029 -0.0887
 4749TIP3   OH214210   1.276   4.910   5.517  0.2681  0.5450  0.2276
 4749TIP3    H114211   1.244   4.953   5.438 -2.7571 -0.9613  0.4810
 4749TIP3    H214212   1.243   4.965   5.589 -0.2927 -0.1222  0.4871
 4750TIP3   OH214213   2.759   4.176   3.980 -0.3195 -0.2074  0.1634
 4750TIP3    H114214   2.758   4.185   3.885 -0.3154  1.1685  0.2749
 4750TIP3    H214215   2.692   4.110   3.999 -0.3187 -0.4919 -0.7857
 4751TIP3   OH214216   7.067   0.737   4.155  0.2206  0.0788  0.1284
 4751TIP3    H114217   7.144   0.757   4.207  0.4276  1.6888 -0.7414
 4751TIP3    H214218   7.040   0.649   4.185  0.8933  0.5142  2.2093
 4752TIP3   OH214219   4.992   1.980   4.539  0.0211 -0.3075 -0.5219
 4752TIP3    H114220   5.075   1.962   4.495  0.0479 -0.1085 -0.5505
 4752TIP3    H214221   4.936   2.015   4.470  0.0623  0.0055 -0.3967
 4753TIP3   OH214222   0.682   5.201   0.597  0.3030  0.2227  0.5658
 4753TIP3    H114223   0.595   5.233   0.573  1.3156  1.0972 -2.3138
 4753TIP3    H214224   0.669   5.109   0.619 -1.1844 -0.0481 -1.1851
 4754TIP3   OH214225   1.237   2.508   0.615  0.2628 -0.4052  0.3309
 4754TIP3    H114226   1.284   2.583   0.652 -0.2491 -0.6028  1.4078
 4754TIP3    H214227   1.243   2.440   0.682 -1.6724 -0.3838  0.5903
 4755TIP3   OH214228   0.763   4.492   0.497 -0.0971 -0.6237  0.1048
 4755TIP3    H114229   0.846   4.534   0.519 -0.8172  0.3905  0.9890
 4755TIP3    H214230   0.774   4.402   0.527  0.0675 -0.0518  1.9172
 4756TIP3   OH214231   2.227   5.881   3.466  0.1873  0.1918  0.1352
 4756TIP3    H114232   2.316   5.848   3.473  0.0104 -0.3611 -0.1877
 4756TIP3    H214233   2.236   5.961   3.414  0.3064 -0.7474 -1.3528
 4757TIP3   OH214234   0.763   0.911   5.444  0.0353 -0.5799  0.2192
 4757TIP3    H114235   0.759   0.842   5.378 -0.4189 -0.1088 -0.2572
 4757TIP3    H214236   0.857   0.921   5.462  0.3075  0.2363 -1.3965
 4758TIP3   OH214237   1.731   1.788   5.075  0.0691  0.0054  0.0969
 4758TIP3    H114238   1.738   1.858   5.139  0.3220  0.2669 -0.2123
 4758TIP3    H214239   1.821   1.764   5.054  0.0001  0.2184 -0.4757
 4759TIP3   OH214240   2.436   0.576   2.158  0.1217 -0.3934 -0.1848
 4759TIP3    H114241   2.461   0.626   2.080 -1.9853 -1.3001 -1.5276
 4759TIP3    H214242   2.490   0.497   2.154 -0.8407 -1.0220 -1.4749
 4760TIP3   OH214243   6.355   5.324   5.394 -0.3632 -0.0355  0.0981
 4760TIP3    H114244   6.375   5.357   5.307  1.0439 -2.5069 -0.6175
 4760TIP3    H214245   6.414   5.250   5.406 -1.5969 -0.7470  2.5294
 4761TIP3   OH214246   4.239   1.709   0.928 -0.5554  0.3404 -0.5466
 4761TIP3    H114247   4.330   1.684   0.915 -0.5390  0.1222 -0.0477
 4761TIP3    H214248   4.191   1.662   0.859 -0.6572 -1.9228  0.9387
 4762TIP3   OH214249   3.009   2.906   2.672  0.2843  0.1366  0.5125
 4762TIP3    H114250   3.086   2.951   2.706 -0.8000  2.2260  0.3505
 4762TIP3    H214251   2.938   2.933   2.731 -0.5338 -0.8468  0.0015
 4763TIP3   OH214252   4.096   4.026   0.409  0.0715  0.3045 -0.0493
 4763TIP3    H114253   4.182   4.039   0.370 -0.9144  0.8368 -2.1536
 4763TIP3    H214254   4.080   3.932   0.402  0.1361  0.3193 -0.3818
 4764TIP3   OH214255   7.104   2.240   4.559 -0.2057 -0.5703  0.1309
 4764TIP3    H114256   7.087   2.285   4.642 -0.8232  1.5609 -1.0859
 4764TIP3    H214257   7.172   2.293   4.517  0.6551 -2.0586 -0.4403
 4765TIP3   OH214258   0.159   4.183   1.153  0.0759 -0.1868  0.5476
 4765TIP3    H114259   0.128   4.207   1.066  1.7108  0.4191  0.0950
 4765TIP3    H214260   0.212   4.104   1.139 -0.1948 -0.4742  1.1012
 4766TIP3   OH214261   3.805   4.452   3.968  0.0467  0.1867 -0.2058
 4766TIP3    H114262   3.833   4.505   4.043  0.6309  0.1016 -0.3545
 4766TIP3    H214263   3.710   4.446   3.976 -0.0736  1.5192 -0.3549
 4767TIP3   OH214264   4.462   1.611   5.189  0.6291  0.0498  0.0128
 4767TIP3    H114265   4.377   1.615   5.233  0.6484  1.5318 -0.0180
 4767TIP3    H214266   4.524   1.642   5.255  1.2110 -1.2958  0.1280
 4768TIP3   OH214267   2.419   5.599   4.122 -0.5431  0.1255 -0.2600
 4768TIP3    H114268   2.389   5.605   4.031  1.3666  1.7618 -0.8508
 4768TIP3    H214269   2.371   5.668   4.168 -0.7601 -0.0304 -0.2516
 4769TIP3   OH214270   1.490   6.507   5.278 -0.1438  0.1319 -0.3326
 4769TIP3    H114271   1.535   6.513   5.193 -0.7757  1.2278 -0.6184
 4769TIP3    H214272   1.398   6.525   5.257 -0.3145  0.3374  0.5696
 4770TIP3   OH214273   1.549   0.674   4.556  0.3002  0.0114 -0.0943
 4770TIP3    H114274   1.642   0.654   4.548  0.6186  0.0618  2.4246
 4770TIP3    H214275   1.504   0.594   4.530  1.0298 -0.0168 -1.3231
 4771TIP3   OH214276   3.691   1.221   4.294 -0.4199 -0.6677  0.3299
 4771TIP3    H114277   3.711   1.162   4.222  0.0587 -0.2182  0.0902
 4771TIP3    H214278   3.610   1.265   4.267 -0.4629 -0.7946  0.2516
 4772TIP3   OH214279   0.662   1.678   5.678  1.0040  0.0492 -0.6768
 4772TIP3    H114280   0.618   1.745   5.625  0.5466  0.1030 -0.2282
 4772TIP3    H214281   0.713   1.727   5.743  0.2125 -0.0411  0.0208
 4773TIP3   OH214282   6.801   5.580   1.564  0.4178 -0.3767 -0.5039
 4773TIP3    H114283   6.783   5.647   1.629  1.3263 -1.3775  0.8414
 4773TIP3    H214284   6.719   5.569   1.517 -0.5492 -0.2586  1.0957
 4774TIP3   OH214285   4.485   2.883   0.183 -0.4739 -0.3795  0.1376
 4774TIP3    H114286   4.470   2.789   0.190  1.7505 -0.6989  2.0999
 4774TIP3    H214287   4.548   2.892   0.111 -0.3337 -0.4444  0.2525
 4775TIP3   OH214288   6.673   1.795   3.388  0.3697 -0.0516  0.5829
 4775TIP3    H114289   6.599   1.754   3.432 -0.1649  0.3282  0.0606
 4775TIP3    H214290   6.737   1.810   3.457  0.0356 -0.5537  1.0079
 4776TIP3   OH214291   5.790   1.210   4.420 -0.0618  0.4187 -0.9369
 4776TIP3    H114292   5.826   1.178   4.503 -2.2775  2.3588  0.9265
 4776TIP3    H214293   5.835   1.294   4.406 -1.3439  1.2249 -0.3823
 4777TIP3   OH214294   0.755   4.765   0.364  0.1057  0.2396  0.3891
 4777TIP3    H114295   0.839   4.734   0.398  0.2746 -1.0238 -1.0218
 4777TIP3    H214296   0.691   4.701   0.395 -0.2159  0.7727  0.8316
 4778TIP3   OH214297   1.032   0.601   0.974 -0.6595  0.3637 -0.4519
 4778TIP3    H114298   1.067   0.522   1.016 -0.4139  1.2941  1.1561
 4778TIP3    H214299   1.001   0.570   0.889 -0.2690 -1.4051 -0.0024
 4779TIP3   OH214300   5.847   4.351   1.284  0.2074 -0.1791  0.1706
 4779TIP3    H114301   5.897   4.343   1.365  1.0520  1.1277 -0.1864
 4779TIP3    H214302   5.846   4.263   1.247  1.6008 -0.3804  0.5693
 4780TIP3   OH214303   0.627   2.399   3.980  0.0452  0.0092  0.1900
 4780TIP3    H114304   0.576   2.363   4.053  0.3779 -1.8874 -0.4617
 4780TIP3    H214305   0.569   2.391   3.904  0.2453  0.5784 -0.0236
 4781TIP3   OH214306   2.873   2.701   1.323 -0.1891 -0.2545  0.7410
 4781TIP3    H114307   2.930   2.626   1.340  1.1575  0.9610  1.8824
 4781TIP3    H214308   2.856   2.737   1.410 -1.0315  0.6029  0.2309
 4782TIP3   OH214309   5.341   1.891   4.944  0.3831  0.1992 -0.2316
 4782TIP3    H114310   5.351   1.968   4.999 -2.2875 -0.7579  1.8021
 4782TIP3    H214311   5.253   1.859   4.963  0.2468 -1.6415 -3.2849
 4783TIP3   OH214312   3.081   6.127   3.681  0.3123 -0.0160  0.0931
 4783TIP3    H114313   3.017   6.188   3.718  0.5024  0.2869 -0.0718
 4783TIP3    H214314   3.061   6.126   3.587  0.6972  0.2616  0.0058
 4784TIP3   OH214315   6.505   5.062   3.461 -0.3590  0.2255  0.3572
 4784TIP3    H114316   6.431   5.030   3.513 -0.1428 -0.7826  0.0701
 4784TIP3    H214317   6.497   5.015   3.378  0.6105  0.1026  0.3259
 4785TIP3   OH214318   1.236   2.721   2.772 -0.3669  0.9085 -0.7125
 4785TIP3    H114319   1.293   2.719   2.695  0.1181 -0.4695 -0.3370
 4785TIP3    H214320   1.236   2.631   2.805 -0.1901  1.5564  1.1772
 4786TIP3   OH214321   0.453   6.739   4.807 -0.8486 -0.3978 -0.1301
 4786TIP3    H114322   0.474   6.828   4.779  4.3460 -0.2516  2.8540
 4786TIP3    H214323   0.478   6.684   4.733  1.6854  0.4649 -0.0008
 4787TIP3   OH214324   4.656   4.204   5.037  1.0727 -0.6414  0.1744
 4787TIP3    H114325   4.618   4.289   5.057 -1.0671 -0.2311 -4.4082
 4787TIP3    H214326   4.603   4.141   5.086 -0.6203  0.3914 -0.2844
 4788TIP3   OH214327   1.679   1.599   1.029  0.5829 -0.4074  0.1119
 4788TIP3    H114328   1.716   1.614   1.116  0.7649 -1.3263  0.2059
 4788TIP3    H214329   1.602   1.655   1.025  0.7883 -0.0755  0.7211
 4789TIP3   OH214330   7.181   5.432   2.055 -0.5014 -0.5633  0.5615
 4789TIP3    H114331   7.121   5.435   1.980 -0.8573 -1.1395  0.8157
 4789TIP3    H214332   7.265   5.406   2.018 -1.0364 -2.4177  0.5628
 4790TIP3   OH214333   0.940   6.662   2.030  0.0775 -0.2924 -0.4956
 4790TIP3    H114334   0.905   6.639   2.117 -0.4659  0.7063 -0.4336
 4790TIP3    H214335   0.925   6.583   1.978  1.5733 -1.3852  0.6155
 4791TIP3   OH214336   1.176   0.855   0.331  0.0482  1.1039 -0.7417
 4791TIP3    H114337   1.218   0.929   0.376 -0.2877  0.8182  0.0649
 4791TIP3    H214338   1.146   0.798   0.402  1.2011 -0.3308 -1.3606
 4792TIP3   OH214339   6.090   0.775   4.223 -0.3939 -0.1791  0.7788
 4792TIP3    H114340   6.161   0.813   4.171 -0.4819  0.0588  0.8335
 4792TIP3    H214341   6.028   0.742   4.158 -0.4577  0.0324  0.7317
 4793TIP3   OH214342   6.275   3.347   1.992 -0.2550 -0.3009 -0.1700
 4793TIP3    H114343   6.240   3.431   1.960  0.0744 -0.0384  0.1590
 4793TIP3    H214344   6.301   3.301   1.912  0.9225  0.5137 -0.2750
 4794TIP3   OH214345   1.423   2.906   3.223 -0.1124  0.4369  0.3614
 4794TIP3    H114346   1.378   2.894   3.140 -1.7253  2.6986  0.8091
 4794TIP3    H214347   1.491   2.971   3.206  0.0276  0.3792  0.6727
 4795TIP3   OH214348   3.318   3.748   2.729 -0.3951 -0.4942 -0.4904
 4795TIP3    H114349   3.371   3.737   2.807  1.7578  1.7863 -1.4869
 4795TIP3    H214350   3.228   3.755   2.762  0.3622 -0.2520  1.6914
 4796TIP3   OH214351   0.791   3.053   2.685  0.1474 -0.0830 -0.4723
 4796TIP3    H114352   0.763   3.001   2.610  0.4128 -0.4310 -0.3301
 4796TIP3    H214353   0.730   3.030   2.755 -1.7928  2.1771 -1.2707
 4797TIP3   OH214354   1.357   3.829   1.434 -0.6727 -0.3093  0.6380
 4797TIP3    H114355   1.265   3.845   1.411 -0.4954  2.5467  1.5083
 4797TIP3    H214356   1.398   3.801   1.352 -1.7928  1.0904 -0.4488
 4798TIP3   OH214357   1.796   4.605   1.003  0.0625  0.0336  0.3313
 4798TIP3    H114358   1.703   4.584   1.007  0.2244 -0.9559 -0.8155
 4798TIP3    H214359   1.799   4.701   1.007 -0.9427  0.0516  1.0877
 4799TIP3   OH214360   0.617   2.270   2.648  0.6086  0.1024  0.4138
 4799TIP3    H114361   0.634   2.349   2.699  0.4649 -0.5244  1.4622
 4799TIP3    H214362   0.524   2.253   2.660  0.0735  1.1342 -1.8376
 4800TIP3   OH214363   2.010   0.994   0.982  0.1356 -0.0765 -0.3753
 4800TIP3    H114364   2.069   1.062   1.014  1.2441 -1.3783  0.4555
 4800TIP3    H214365   2.040   0.975   0.893 -0.8091  1.1699 -0.9965
 4801TIP3   OH214366   4.814   5.435   5.101 -0.1419 -0.5546 -0.1726
 4801TIP3    H114367   4.822   5.527   5.127  1.7087 -0.6355 -0.2795
 4801TIP3    H214368   4.776   5.438   5.014  0.5438  0.1669 -0.4632
 4802TIP3   OH214369   4.699   2.335   3.181  0.5356 -0.1264 -0.1319
 4802TIP3    H114370   4.670   2.305   3.267  1.1994  0.2402  0.2222
 4802TIP3    H214371   4.713   2.429   3.191  2.0834 -0.3219 -0.2120
 4803TIP3   OH214372   6.689   4.559   2.731 -0.0414  0.4163 -0.3622
 4803TIP3    H114373   6.680   4.566   2.827 -0.0089 -0.6269 -0.2668
 4803TIP3    H214374   6.610   4.513   2.704  0.3244 -0.0014 -0.7347
 4804TIP3   OH214375   1.398   2.658   1.625 -0.5960 -0.8841 -0.1707
 4804TIP3    H114376   1.319   2.668   1.678  0.1258 -0.9490  0.9469
 4804TIP3    H214377   1.369   2.606   1.549 -1.6933 -0.5957  0.0321
 4805TIP3   OH214378   3.240   1.133   2.057  0.0161 -0.3453  0.1455
 4805TIP3    H114379   3.319   1.188   2.056 -0.9993  1.2925  2.4405
 4805TIP3    H214380   3.173   1.186   2.014  0.1309 -1.8729 -2.1200
 4806TIP3   OH214381   4.319   1.400   4.953 -0.4901 -0.2628 -0.4961
 4806TIP3    H114382   4.348   1.424   5.041  1.6193 -0.2108 -1.1512
 4806TIP3    H214383   4.225   1.418   4.953 -0.3446  0.7718  1.3863
 4807TIP3   OH214384   5.894   3.533   3.113 -0.3491  0.0437  0.2371
 4807TIP3    H114385   5.949   3.499   3.184  0.4152 -0.2945 -0.5061
 4807TIP3    H214386   5.924   3.487   3.035 -2.0758 -0.5668 -0.0995
 4808TIP3   OH214387   7.009   6.359   3.852 -0.6066  0.6386 -0.5010
 4808TIP3    H114388   7.033   6.286   3.910  0.8551  1.3095 -0.2163
 4808TIP3    H214389   7.009   6.435   3.909 -1.4764  0.9741 -0.9336
 4809TIP3   OH214390   3.489   3.740   2.927  0.5285 -0.3336 -0.0740
 4809TIP3    H114391   3.578   3.713   2.950  0.1947  0.0374  1.9212
 4809TIP3    H214392   3.500   3.825   2.884  1.1940 -0.8349 -0.9263
 4810TIP3   OH214393   6.072   5.931   0.806 -0.0777  0.3239 -0.5514
 4810TIP3    H114394   6.061   5.868   0.735  1.4947  0.8196 -1.3112
 4810TIP3    H214395   5.988   5.934   0.850 -1.4160  0.6093 -2.9409
 4811TIP3   OH214396   4.944   5.241   4.801 -0.2525 -0.1859  0.1180
 4811TIP3    H114397   4.953   5.168   4.862 -0.7368 -1.0358 -0.8021
 4811TIP3    H214398   4.850   5.258   4.799 -0.2718 -0.3763 -0.6279
 4812TIP3   OH214399   0.855   3.661   1.444  0.5881  0.6678 -0.0222
 4812TIP3    H114400   0.853   3.591   1.379  1.6394  0.7055 -0.1187
 4812TIP3    H214401   0.948   3.684   1.452  0.4870  0.6853  1.4675
 4813TIP3   OH214402   0.898   1.064   2.077  0.2822  0.4041  0.0610
 4813TIP3    H114403   0.984   1.022   2.082 -0.4285 -0.9901  1.4566
 4813TIP3    H214404   0.913   1.152   2.113  1.3572  0.6526 -0.9095
 4814TIP3   OH214405   5.355   4.160   2.135  0.0568  0.2525 -0.1105
 4814TIP3    H114406   5.377   4.197   2.220 -0.9388  1.0495 -0.1915
 4814TIP3    H214407   5.275   4.110   2.150  0.3394 -0.3041 -0.4100
 4815TIP3   OH214408   3.586   6.306   3.649 -1.0164 -0.1099 -0.1507
 4815TIP3    H114409   3.568   6.214   3.668 -2.3908  0.3660  1.0135
 4815TIP3    H214410   3.680   6.315   3.663 -0.9140 -1.2592  0.0441
 4816TIP3   OH214411   4.706   3.507   2.541 -0.6060 -0.8988  0.0227
 4816TIP3    H114412   4.655   3.576   2.498 -1.0527 -0.1903  1.6416
 4816TIP3    H214413   4.717   3.440   2.473 -3.2711 -0.8481 -0.5741
 4817TIP3   OH214414   6.815   5.565   5.134  0.2650 -0.0745  0.3342
 4817TIP3    H114415   6.788   5.518   5.056  0.2117 -1.4624  1.1465
 4817TIP3    H214416   6.734   5.577   5.184  0.3623  0.3990  0.3799
 4818TIP3   OH214417   3.171   3.477   5.201 -0.0524  0.5560 -0.0640
 4818TIP3    H114418   3.115   3.470   5.124  1.2249  2.3869 -1.2349
 4818TIP3    H214419   3.255   3.442   5.172  0.4512  1.3003  0.4736
 4819TIP3   OH214420   4.054   5.124   1.165  0.3733 -0.5277  0.2817
 4819TIP3    H114421   3.976   5.144   1.216  0.3065 -0.2461  0.0728
 4819TIP3    H214422   4.102   5.060   1.218  0.3120 -0.2337  0.7028
 4820TIP3   OH214423   2.206   0.768   4.880  0.6997 -0.2892 -0.2071
 4820TIP3    H114424   2.186   0.704   4.812 -1.6383 -0.4444  0.5130
 4820TIP3    H214425   2.185   0.723   4.962  2.0250  0.3894  0.5455
 4821TIP3   OH214426   2.947   5.522   2.027  0.3099  0.2121  0.3655
 4821TIP3    H114427   2.924   5.603   2.074 -0.7188  0.6778 -0.8903
 4821TIP3    H214428   2.972   5.552   1.940 -0.6604 -0.8622 -0.2996
 4822TIP3   OH214429   0.018   0.132   1.623 -0.2692 -0.4445  0.0389
 4822TIP3    H114430   0.082   0.196   1.654 -1.9479 -0.1985  3.4272
 4822TIP3    H214431  -0.043   0.182   1.569  0.0242  0.1777  0.2803
 4823TIP3   OH214432   2.315   5.643   2.328  0.3844 -0.1154  0.1612
 4823TIP3    H114433   2.272   5.582   2.269  1.3888 -2.4225  1.6957
 4823TIP3    H214434   2.400   5.661   2.287  0.3307 -0.2199  0.0066
 4824TIP3   OH214435   6.577   2.102   5.264 -0.0389  0.2906 -0.3988
 4824TIP3    H114436   6.653   2.126   5.210  1.8917 -1.2057  1.5024
 4824TIP3    H214437   6.577   2.166   5.335 -1.3423  1.0247 -1.0304
 4825TIP3   OH214438   6.174   4.303   2.968 -0.3474 -0.2328  0.2533
 4825TIP3    H114439   6.157   4.361   2.894 -1.5247 -1.7729 -0.7540
 4825TIP3    H214440   6.136   4.349   3.044 -0.5887  0.6355 -0.3749
 4826TIP3   OH214441   4.640   4.866   0.885  0.6343  0.2018 -0.1301
 4826TIP3    H114442   4.564   4.818   0.918  0.1692  1.5486  0.8413
 4826TIP3    H214443   4.677   4.809   0.817 -0.2117 -1.2518  0.5852
 4827TIP3   OH214444   2.373   6.738   2.820  0.2689  0.0411 -0.4754
 4827TIP3    H114445   2.348   6.749   2.728  0.7442  1.7584 -0.4363
 4827TIP3    H214446   2.314   6.797   2.867 -0.5666 -1.4730  0.4506
 4828TIP3   OH214447   6.203   4.097   2.655 -0.3359 -0.5809 -0.3367
 4828TIP3    H114448   6.273   4.039   2.685  0.4752  1.3297  1.7718
 4828TIP3    H214449   6.138   4.038   2.618  1.3699 -2.6310 -0.3038
 4829TIP3   OH214450   3.698   3.628   1.123  0.0512 -0.1490 -0.0136
 4829TIP3    H114451   3.773   3.569   1.119  0.2024 -0.0791  1.3602
 4829TIP3    H214452   3.635   3.591   1.061  0.3700 -1.4212  0.3970
 4830TIP3   OH214453   5.952   1.718   1.046 -0.2394  0.4108  0.1102
 4830TIP3    H114454   6.037   1.755   1.072  0.8044 -2.0737  0.6092
 4830TIP3    H214455   5.893   1.743   1.117  0.5575  0.6120  0.7285
 4831TIP3   OH214456   3.424   2.603   3.417  0.4520 -0.0246 -0.6299
 4831TIP3    H114457   3.494   2.668   3.409  0.1468  0.1542 -2.2351
 4831TIP3    H214458   3.450   2.549   3.491  1.2644  1.2503  0.0654
 4832TIP3   OH214459   5.652   2.778   3.900 -0.3210  0.1864  0.6790
 4832TIP3    H114460   5.561   2.769   3.871 -0.6996  1.2280  1.4903
 4832TIP3    H214461   5.663   2.872   3.914  1.5895  0.4112 -1.6163
 4833TIP3   OH214462   0.870   5.262   5.728 -0.1483 -0.0925 -0.1955
 4833TIP3    H114463   0.824   5.212   5.796  1.5697 -2.5479 -0.7177
 4833TIP3    H214464   0.945   5.208   5.705  1.4744  2.4599 -1.3527
 4834TIP3   OH214465   7.095   3.096   0.126 -0.7010  0.1476 -0.1186
 4834TIP3    H114466   7.141   3.170   0.166 -1.6770  1.6031 -1.5941
 4834TIP3    H214467   7.129   3.091   0.037 -0.4119 -1.4368  0.0368
 4835TIP3   OH214468   4.204   2.815   5.766  0.3714 -0.2394 -0.3144
 4835TIP3    H114469   4.290   2.772   5.769  0.6092  0.2158 -0.4669
 4835TIP3    H214470   4.218   2.891   5.709 -0.1876 -0.2813 -0.5110
 4836TIP3   OH214471   0.786   0.471   4.656  0.2799 -0.0491  0.0539
 4836TIP3    H114472   0.865   0.451   4.706 -0.3599 -0.1433  1.0542
 4836TIP3    H214473   0.809   0.547   4.604  0.7726  0.4363  0.9699
 4837TIP3   OH214474   5.294   0.651   1.312 -0.6331  0.4277  0.2032
 4837TIP3    H114475   5.348   0.633   1.235  2.9713 -1.8260  2.9024
 4837TIP3    H214476   5.267   0.565   1.344 -2.5791  1.3314  1.1734
 4838TIP3   OH214477   6.632   2.085   3.383 -0.2835 -0.2404 -0.5923
 4838TIP3    H114478   6.561   2.056   3.326 -0.9632 -1.6597  0.8791
 4838TIP3    H214479   6.687   2.007   3.392  0.5940  0.3841 -0.4193
 4839TIP3   OH214480   0.357   4.410   1.164  0.1851  0.0359 -0.1221
 4839TIP3    H114481   0.273   4.366   1.168  0.8934 -1.2889  1.3717
 4839TIP3    H214482   0.355   4.459   1.081 -2.5631  1.2008  0.5162
 4840TIP3   OH214483   5.309   4.727   1.306 -0.1254 -0.0065 -0.4387
 4840TIP3    H114484   5.281   4.817   1.317 -2.6783 -0.5518 -1.5354
 4840TIP3    H214485   5.344   4.723   1.217  2.1455  0.3195  0.3791
 4841TIP3   OH214486   6.029   5.208   1.309  0.4253 -0.2740  0.5604
 4841TIP3    H114487   6.052   5.120   1.339  0.2649 -0.2663  0.7113
 4841TIP3    H214488   6.015   5.198   1.215 -1.4383 -0.8245  0.8491
 4842TIP3   OH214489   4.552   4.917   4.209  0.3959 -0.0240  1.1504
 4842TIP3    H114490   4.622   4.958   4.260 -0.8664  0.1487  2.8664
 4842TIP3    H214491   4.532   4.836   4.256 -1.0528  0.3178  1.1915
 4843TIP3   OH214492   6.184   1.157   3.189  0.7495 -0.2444  0.0370
 4843TIP3    H114493   6.105   1.154   3.135  1.7649  0.0033 -1.5204
 4843TIP3    H214494   6.172   1.086   3.252 -0.3472 -0.7509 -0.6950
 4844TIP3   OH214495   5.725   1.069   3.566  0.0163  0.4209  0.0506
 4844TIP3    H114496   5.807   1.019   3.561 -0.1449  0.2213 -0.7143
 4844TIP3    H214497   5.699   1.062   3.658 -0.4420 -1.6446 -0.1707
 4845TIP3   OH214498   3.472   6.321   2.782  0.4824 -0.2211 -0.1476
 4845TIP3    H114499   3.491   6.318   2.876  0.0600  1.4063  0.0113
 4845TIP3    H214500   3.547   6.277   2.742  2.0489  1.4457  0.7923
 4846TIP3   OH214501   2.428   4.617   4.665 -0.7514 -0.7890  0.1783
 4846TIP3    H114502   2.440   4.522   4.666 -1.8891 -0.9433  0.3007
 4846TIP3    H214503   2.453   4.643   4.577  0.9240 -0.9892  0.5484
 4847TIP3   OH214504   0.700   0.908   4.518  0.1276  0.1251 -0.1291
 4847TIP3    H114505   0.774   0.874   4.569 -0.3770 -0.6298  0.1266
 4847TIP3    H214506   0.634   0.929   4.583 -0.1511  0.1124 -0.4085
 4848TIP3   OH214507   1.926   0.426   1.063 -0.1697  0.2405  1.0547
 4848TIP3    H114508   1.902   0.519   1.065  1.4590  0.7117  0.7068
 4848TIP3    H214509   2.006   0.421   1.116  0.5597 -0.6966 -0.0820
 4849TIP3   OH214510   0.768   5.072   1.342 -0.4940  0.5604 -0.3572
 4849TIP3    H114511   0.806   5.067   1.429  0.1940  0.7690 -0.6382
 4849TIP3    H214512   0.804   5.153   1.305  0.7117 -0.4584 -1.5193
 4850TIP3   OH214513   1.043   2.260   0.317 -0.0163 -0.0610 -0.7990
 4850TIP3    H114514   1.047   2.200   0.242  0.0211 -0.3629 -0.5580
 4850TIP3    H214515   1.071   2.207   0.392 -1.4798 -0.1953 -0.3156
 4851TIP3   OH214516   3.405   4.940   2.296 -0.1986  0.2847  0.4089
 4851TIP3    H114517   3.409   4.871   2.230  1.7501  0.2524  0.4841
 4851TIP3    H214518   3.492   4.939   2.336 -0.3265  2.3657  0.8532
 4852TIP3   OH214519   3.213   2.301   0.694  1.0668  0.3450  0.3887
 4852TIP3    H114520   3.291   2.250   0.715  1.9311  0.9234 -1.1642
 4852TIP3    H214521   3.187   2.269   0.607 -0.7359 -0.1631  1.0733
 4853TIP3   OH214522   2.693   6.502   1.642 -0.1388  0.7923 -0.2236
 4853TIP3    H114523   2.656   6.426   1.687  2.4340  0.6437  1.9101
 4853TIP3    H214524   2.711   6.471   1.554 -1.4194 -0.2860 -0.1302
 4854TIP3   OH214525   2.388   0.078   5.592 -0.3385 -0.8786  0.3349
 4854TIP3    H114526   2.314   0.138   5.584 -0.1455 -0.6613  0.1440
 4854TIP3    H214527   2.360  -0.002   5.549  1.2162  0.7360 -4.2959
 4855TIP3   OH214528   3.880   3.437   1.072  0.4723  0.0281  0.3909
 4855TIP3    H114529   3.925   3.443   0.987  0.4343  0.3370  0.3951
 4855TIP3    H214530   3.887   3.344   1.095  1.2362  0.0946  0.4548
 4856TIP3   OH214531   4.884   2.619   5.433 -0.4296  0.1947  0.3243
 4856TIP3    H114532   4.800   2.657   5.459 -1.4215 -1.3142 -0.5276
 4856TIP3    H214533   4.871   2.591   5.343  0.8065 -0.6141  0.3689
 4857TIP3   OH214534   6.602   6.435   1.124 -0.4857  0.0588  0.1420
 4857TIP3    H114535   6.647   6.512   1.157  0.0653 -0.7218  1.2985
 4857TIP3    H214536   6.672   6.371   1.111 -0.9957 -0.4278 -0.2589
 4858TIP3   OH214537   1.686   4.851   1.102 -0.2882 -0.2307  0.0848
 4858TIP3    H114538   1.635   4.798   1.164  1.1863  0.8640  2.3498
 4858TIP3    H214539   1.657   4.941   1.119 -1.2572 -0.0151 -2.2664
 4859TIP3   OH214540   6.272   3.154   1.425 -0.1463 -0.1342 -0.2568
 4859TIP3    H114541   6.254   3.060   1.430 -1.3165  0.0319 -0.8659
 4859TIP3    H214542   6.214   3.185   1.356 -1.3974  1.3940  1.3811
 4860TIP3   OH214543   4.892   4.918   2.809 -0.4097  0.1870 -0.2551
 4860TIP3    H114544   4.977   4.878   2.790  0.2448 -0.7489  3.6610
 4860TIP3    H214545   4.914   5.005   2.843 -0.5889 -0.9363  3.1475
 4861TIP3   OH214546   4.660   1.269   4.568 -0.0108  0.2772  0.2874
 4861TIP3    H114547   4.612   1.250   4.649  1.6217  1.6541  1.6504
 4861TIP3    H214548   4.698   1.185   4.542 -0.7986 -0.2427  0.7720
 4862TIP3   OH214549   6.074   4.023   0.219 -0.2380  0.0148 -0.7307
 4862TIP3    H114550   5.990   3.998   0.258  0.7765  0.4197  1.9380
 4862TIP3    H214551   6.123   3.942   0.214  0.3448  0.2216  0.8654
 4863TIP3   OH214552   1.431   1.203   0.700 -0.0886  0.1604 -0.0986
 4863TIP3    H114553   1.508   1.146   0.690 -0.3085 -0.4181  1.2744
 4863TIP3    H214554   1.468   1.289   0.720  0.2657 -0.5330  2.6735
 4864TIP3   OH214555   7.030   4.827  -0.026 -0.4835  0.1613  0.0279
 4864TIP3    H114556   7.045   4.855   0.064  1.2720 -1.7755  0.4194
 4864TIP3    H214557   6.945   4.781  -0.023 -0.2402 -0.2680  0.8141
 4865TIP3   OH214558   3.695   4.273   4.300  0.4154 -0.2515  0.2298
 4865TIP3    H114559   3.623   4.218   4.332 -1.1132  0.9654 -0.9285
 4865TIP3    H214560   3.706   4.247   4.209  0.6877  0.3572  0.0890
 4866TIP3   OH214561   0.806   5.199   5.206  0.6806  0.1753 -0.3741
 4866TIP3    H114562   0.878   5.147   5.170 -0.3881 -1.0426 -0.8218
 4866TIP3    H214563   0.849   5.277   5.241  2.1674 -0.3112 -1.0084
 4867TIP3   OH214564   3.219   1.391   1.589 -0.3235 -0.1131 -0.2573
 4867TIP3    H114565   3.282   1.456   1.621  0.5164 -0.1637 -1.7020
 4867TIP3    H214566   3.223   1.320   1.653  0.5589  0.2067  0.0598
 4868TIP3   OH214567   5.970   1.756   4.748 -0.2466  0.2032 -0.7487
 4868TIP3    H114568   5.950   1.847   4.726 -0.3412  1.5227  3.8498
 4868TIP3    H214569   6.058   1.759   4.786  0.2461 -1.9338 -1.5455
 4869TIP3   OH214570   6.005   2.883   2.026  0.0737  0.1898 -0.0602
 4869TIP3    H114571   6.009   2.883   2.122 -1.2720 -0.0767  0.0072
 4869TIP3    H214572   5.960   2.802   2.004  0.7637  0.0313 -0.9580
 4870TIP3   OH214573   4.078   3.315   0.114  0.1179 -0.1256  0.3621
 4870TIP3    H114574   4.071   3.379   0.043  0.5123  0.1772  0.5909
 4870TIP3    H214575   4.009   3.251   0.095 -0.1497  0.2545  0.0194
 4871TIP3   OH214576   6.956   2.360   0.471  0.0221 -0.1922 -0.6104
 4871TIP3    H114577   6.884   2.379   0.411 -0.6219 -0.2817  0.1156
 4871TIP3    H214578   6.933   2.275   0.510 -0.5922  0.7385  1.1964
 4872TIP3   OH214579   0.518   4.886   3.099  0.2112 -0.0291  0.0292
 4872TIP3    H114580   0.500   4.899   3.006 -0.6536 -2.5474 -0.2082
 4872TIP3    H214581   0.575   4.810   3.102 -1.1399 -1.0291  1.6375
 4873TIP3   OH214582   7.072   3.952   0.045  0.1272 -0.1281  0.2835
 4873TIP3    H114583   7.080   4.046   0.061  0.2020  0.0539 -0.7507
 4873TIP3    H214584   7.016   3.946  -0.032 -1.9773 -1.0273  1.7722
 4874TIP3   OH214585   6.929   0.683   1.788  0.2964  0.2786 -0.1401
 4874TIP3    H114586   6.914   0.711   1.698 -0.9090  1.7002  0.4600
 4874TIP3    H214587   6.857   0.623   1.807  1.5410 -1.4711 -0.6428
 4875TIP3   OH214588   7.140   5.117   1.404 -0.0567 -0.1355  0.0244
 4875TIP3    H114589   7.225   5.097   1.364 -0.5911 -2.4897 -0.1273
 4875TIP3    H214590   7.096   5.172   1.339  1.1417  0.6598 -0.1352
 4876TIP3   OH214591   2.655   4.174   0.212  0.1826 -0.7073 -0.0383
 4876TIP3    H114592   2.728   4.233   0.233 -0.5761 -0.0252  0.7305
 4876TIP3    H214593   2.591   4.229   0.168  0.7816 -1.6499 -2.2299
 4877TIP3   OH214594   0.093   1.298   5.108 -0.4575 -0.7204 -0.1044
 4877TIP3    H114595   0.010   1.284   5.063 -1.2783 -1.4688  1.5572
 4877TIP3    H214596   0.069   1.333   5.193  1.1183  1.9653 -0.6456
 4878TIP3   OH214597   2.628   6.390   3.315 -0.0005 -0.1799 -0.0916
 4878TIP3    H114598   2.603   6.352   3.231  1.3202 -1.6485  0.1231
 4878TIP3    H214599   2.679   6.321   3.358  0.8444  1.1699  1.1754
 4879TIP3   OH214600   1.547   6.503   0.095  0.0918 -0.3022 -0.2807
 4879TIP3    H114601   1.501   6.583   0.070  0.4762 -0.3854 -1.2901
 4879TIP3    H214602   1.487   6.458   0.155  0.6198  1.6225  1.8204
 4880TIP3   OH214603   4.170   4.714   1.651  0.1300 -0.0780 -0.3458
 4880TIP3    H114604   4.247   4.740   1.599  1.4731  1.9168  2.3615
 4880TIP3    H214605   4.112   4.790   1.647 -0.3006 -0.3809  0.1025
 4881TIP3   OH214606   1.417   3.493   4.114 -0.5321  0.1720  0.1599
 4881TIP3    H114607   1.447   3.417   4.064 -1.7935  0.3784 -0.9701
 4881TIP3    H214608   1.497   3.539   4.139  0.1645 -0.0387 -1.5249
 4882TIP3   OH214609   2.214   2.586   1.812 -0.7493 -0.4274 -0.3395
 4882TIP3    H114610   2.175   2.566   1.727 -2.5314 -0.6164  0.4812
 4882TIP3    H214611   2.265   2.508   1.833  0.2086 -0.1381 -1.4812
 4883TIP3   OH214612   3.270   4.050   4.521 -0.7521 -0.0059 -0.5597
 4883TIP3    H114613   3.269   4.022   4.429 -0.9597  0.6701 -0.7680
 4883TIP3    H214614   3.197   4.003   4.561  0.2484 -1.4763 -0.3697
 4884TIP3   OH214615   1.710   1.653   4.464  0.4021 -0.1983 -0.6403
 4884TIP3    H114616   1.703   1.736   4.510 -1.4555 -0.4506 -0.4180
 4884TIP3    H214617   1.769   1.600   4.518  0.8142  0.6143 -0.2840
 4885TIP3   OH214618   6.915   3.501   3.592  0.0261 -0.4200  0.5505
 4885TIP3    H114619   6.997   3.550   3.603 -0.0727 -0.6485  2.7987
 4885TIP3    H214620   6.915   3.438   3.664 -1.5979 -1.2147 -0.0987
 4886TIP3   OH214621   6.372   4.885   2.704  0.7382 -0.4104 -0.7557
 4886TIP3    H114622   6.277   4.880   2.691 -0.0968 -1.0667  3.8446
 4886TIP3    H214623   6.393   4.978   2.693 -0.9263  0.1399  0.4298
 4887TIP3   OH214624   5.371   2.051   1.258  0.2733 -0.3361 -0.4754
 4887TIP3    H114625   5.371   2.026   1.166  0.4098 -0.9161 -0.3271
 4887TIP3    H214626   5.380   2.146   1.258  0.5591 -0.3603 -1.0528
 4888TIP3   OH214627   3.456   2.128   4.108 -0.5333 -0.0594 -0.5901
 4888TIP3    H114628   3.363   2.134   4.130 -0.1692  1.9636  0.6547
 4888TIP3    H214629   3.458   2.078   4.026 -2.4791 -2.3120  0.6208
 4889TIP3   OH214630   6.966   4.154   2.065  0.0747  0.3847  0.1019
 4889TIP3    H114631   6.885   4.115   2.032  0.5451  0.1770 -0.8320
 4889TIP3    H214632   6.941   4.193   2.149 -1.2605  1.3071 -0.6793
 4890TIP3   OH214633   6.670   1.245   0.538 -0.4526 -0.0268 -0.1633
 4890TIP3    H114634   6.625   1.186   0.477 -1.3209  0.6520 -0.1974
 4890TIP3    H214635   6.632   1.331   0.520 -0.0361  0.3420  0.6917
 4891TIP3   OH214636   7.112   1.842   2.224 -0.0723 -0.1899 -0.0657
 4891TIP3    H114637   7.083   1.919   2.272  2.1338  0.5508  0.1389
 4891TIP3    H214638   7.063   1.846   2.142 -0.8730  0.7391  0.4312
 4892TIP3   OH214639   1.076   3.007   2.728 -0.0066 -0.5497  0.0720
 4892TIP3    H114640   1.110   2.976   2.644  0.6019  2.9534 -1.1153
 4892TIP3    H214641   0.986   3.033   2.710 -0.0946 -0.4062  0.6982
 4893TIP3   OH214642   1.315   4.856   5.169 -0.3802 -0.6977  0.7283
 4893TIP3    H114643   1.356   4.797   5.106 -2.6599 -0.6179 -0.9668
 4893TIP3    H214644   1.255   4.800   5.218 -0.1605 -0.3667  1.3872
 4894TIP3   OH214645   1.005   5.050   1.978 -0.0541  0.4797 -0.5036
 4894TIP3    H114646   1.013   5.006   2.063  1.1897 -0.2677 -0.9788
 4894TIP3    H214647   0.911   5.050   1.960 -0.1014 -2.9941 -0.9568
 4895TIP3   OH214648   3.682   5.274   4.024 -0.1358  0.0808  0.4109
 4895TIP3    H114649   3.700   5.358   4.067  3.1140  0.2739 -1.0212
 4895TIP3    H214650   3.737   5.275   3.946 -1.1530 -2.8039 -0.4697
 4896TIP3   OH214651   0.533   5.472   4.457 -0.2548 -0.5645 -0.2522
 4896TIP3    H114652   0.498   5.549   4.503  1.6420  1.3460 -1.7898
 4896TIP3    H214653   0.614   5.451   4.502 -0.3952 -1.2320 -0.2980
 4897TIP3   OH214654   3.492   2.776   0.431  0.6297 -0.9875  0.7829
 4897TIP3    H114655   3.523   2.867   0.439  0.2836 -0.3185 -3.2751
 4897TIP3    H214656   3.404   2.778   0.467  0.8073  0.1686  1.2140
 4898TIP3   OH214657   3.746   4.870   0.473  0.0911 -0.1238  0.2887
 4898TIP3    H114658   3.654   4.897   0.467  0.5176  2.0661  2.0111
 4898TIP3    H214659   3.746   4.799   0.538 -0.3754  0.0167  0.4501
 4899TIP3   OH214660   2.156   0.635   0.648  0.0102 -0.5748 -0.5963
 4899TIP3    H114661   2.155   0.724   0.683  2.0270 -0.4681 -0.6598
 4899TIP3    H214662   2.130   0.644   0.556  1.2623  0.1397 -0.9002
 4900TIP3   OH214663   7.172   3.577   3.628  0.2251 -0.4600  0.5658
 4900TIP3    H114664   7.145   3.651   3.681  0.9930 -1.1964  2.0419
 4900TIP3    H214665   7.257   3.602   3.593  0.0814 -0.2916  0.3382
 4901TIP3   OH214666   1.295   5.627   1.866 -0.4190  0.0701  1.0053
 4901TIP3    H114667   1.383   5.643   1.832  0.4787  1.2989  3.6409
 4901TIP3    H214668   1.273   5.707   1.913 -3.5851  0.3586 -0.6878
 4902TIP3   OH214669   1.090   5.075   1.404  0.4144  0.4003  0.3236
 4902TIP3    H114670   1.086   5.047   1.312 -1.6783  0.6746  0.2818
 4902TIP3    H214671   1.058   5.166   1.403  0.4973  0.4522  1.3006
 4903TIP3   OH214672   1.228   4.209   0.734 -0.8022  0.2653 -0.2892
 4903TIP3    H114673   1.314   4.182   0.766 -0.8001  1.0145  0.3881
 4903TIP3    H214674   1.198   4.136   0.679 -0.9000 -1.1989  1.6076
 4904TIP3   OH214675   1.655   3.594   4.496  0.2838  0.5096 -0.5980
 4904TIP3    H114676   1.747   3.580   4.476  0.3389  0.7138 -0.4865
 4904TIP3    H214677   1.652   3.598   4.592  0.1346  0.3371 -0.5930
 4905TIP3   OH214678   1.815   1.454   3.090  0.4614 -0.2615  0.2791
 4905TIP3    H114679   1.870   1.531   3.105 -0.1578 -0.0105  1.4429
 4905TIP3    H214680   1.798   1.420   3.178 -1.9792  0.2252  0.0670
 4906TIP3   OH214681   4.355   0.901   1.535 -0.1513  0.2285  0.5158
 4906TIP3    H114682   4.315   0.872   1.453 -2.6452  0.8657  1.4145
 4906TIP3    H214683   4.372   0.820   1.583 -2.4074 -0.0565  0.9527
 4907TIP3   OH214684   0.645   2.784   1.432 -0.2385  0.0042 -0.0737
 4907TIP3    H114685   0.673   2.693   1.438  0.6445 -0.1097 -3.5781
 4907TIP3    H214686   0.551   2.780   1.416  0.0215 -0.4031 -1.5773
 4908TIP3   OH214687   4.668   0.803   4.225  0.2335 -0.2378  0.5595
 4908TIP3    H114688   4.728   0.866   4.265 -0.7838  1.0001  0.1844
 4908TIP3    H214689   4.592   0.855   4.198  0.5082 -1.1185 -2.2417
 4909TIP3   OH214690   0.472   4.145   0.680  0.1732  1.1720  0.5352
 4909TIP3    H114691   0.417   4.210   0.635  0.7264  1.7659  0.6959
 4909TIP3    H214692   0.548   4.134   0.623 -1.3298 -1.7751 -1.1403
 4910TIP3   OH214693   5.894   5.639   5.487 -0.1634 -0.1158  0.0028
 4910TIP3    H114694   5.957   5.656   5.416  0.1420 -0.9553  0.0601
 4910TIP3    H214695   5.823   5.592   5.444 -1.5706  2.2328 -0.3955
 4911TIP3   OH214696   3.604   2.615   1.011  0.3305  0.6859  0.0845
 4911TIP3    H114697   3.588   2.656   1.096 -0.8260  1.0703 -0.3013
 4911TIP3    H214698   3.696   2.631   0.994  1.1886 -1.2990  2.2647
 4912TIP3   OH214699   3.485   3.531   0.961 -0.3891  0.5144 -0.2597
 4912TIP3    H114700   3.505   3.516   0.868 -1.1610 -0.0902 -0.3336
 4912TIP3    H214701   3.471   3.444   0.998  1.5937  0.6130  0.8420
 4913TIP3   OH214702   0.680   5.311   2.846  0.5109  0.3821 -0.5587
 4913TIP3    H114703   0.731   5.366   2.906  1.5312 -0.9495 -0.1610
 4913TIP3    H214704   0.714   5.223   2.860 -0.3688 -0.2012 -1.9336
 4914TIP3   OH214705   1.267   3.700   5.145  0.4121  0.0720 -0.2839
 4914TIP3    H114706   1.330   3.744   5.088  1.2784 -0.7653 -0.0015
 4914TIP3    H214707   1.251   3.763   5.215  0.1610  0.6835 -0.8757
 4915TIP3   OH214708   5.999   1.541   0.310 -0.1583 -0.9226 -0.0612
 4915TIP3    H114709   5.944   1.601   0.361  0.8384 -0.8865  1.0187
 4915TIP3    H214710   5.984   1.566   0.219 -0.0729  0.7133  0.3493
 4916TIP3   OH214711   5.361   2.711   0.487 -0.3988 -0.1170  0.4065
 4916TIP3    H114712   5.339   2.661   0.409  2.0309  0.8364 -0.9989
 4916TIP3    H214713   5.351   2.803   0.461  0.3968  0.2152  1.2092
 4917TIP3   OH214714   0.879   2.238   2.259  0.0519 -0.5962 -0.2588
 4917TIP3    H114715   0.945   2.205   2.197 -0.3656  0.5609 -1.3702
 4917TIP3    H214716   0.927   2.301   2.313  0.1391 -0.6800 -0.2384
 4918TIP3   OH214717   2.985   2.107   5.222  0.7933  0.3331 -0.4511
 4918TIP3    H114718   2.989   2.104   5.317  0.1758  1.4312 -0.3745
 4918TIP3    H214719   3.074   2.088   5.193  0.5586 -2.1251  0.2520
 4919TIP3   OH214720   3.777   5.169   3.091 -0.3903 -0.3687  0.6190
 4919TIP3    H114721   3.752   5.108   3.161  1.0938 -0.8510  0.7780
 4919TIP3    H214722   3.757   5.256   3.126 -0.5350 -0.6602  1.2782
 4920TIP3   OH214723   0.605   2.178   2.093  0.7623 -0.7101 -0.0416
 4920TIP3    H114724   0.548   2.220   2.028 -0.5956 -1.3696  0.6794
 4920TIP3    H214725   0.675   2.242   2.108  1.4469 -0.7784 -2.5394
 4921TIP3   OH214726   3.766   4.273   1.907  0.1181  0.7270 -0.4707
 4921TIP3    H114727   3.802   4.276   1.818  1.8949  1.6822  0.2327
 4921TIP3    H214728   3.671   4.271   1.894  0.3441  0.4671 -2.3863
 4922TIP3   OH214729   3.947   2.955   4.497  0.2788 -0.1395  0.1831
 4922TIP3    H114730   3.979   2.934   4.584  0.8238  0.5423  0.1519
 4922TIP3    H214731   3.852   2.959   4.506  0.2141 -1.7261  0.3733
 4923TIP3   OH214732   0.900   0.169   3.869  0.0400 -0.6693  0.4548
 4923TIP3    H114733   0.869   0.202   3.785  0.5919  0.1450  0.5547
 4923TIP3    H214734   0.984   0.214   3.882  0.6194 -1.8036  0.8052
 4924TIP3   OH214735   1.623   3.272   2.649  0.2395  0.0021  0.3635
 4924TIP3    H114736   1.534   3.241   2.638 -0.0365  1.0522 -0.5949
 4924TIP3    H214737   1.615   3.351   2.703  0.6092 -0.0528  0.5042
 4925TIP3   OH214738   2.051   3.299   4.527 -0.3121  0.0434 -0.0990
 4925TIP3    H114739   2.069   3.205   4.522 -0.7761 -0.0119 -1.0915
 4925TIP3    H214740   2.125   3.335   4.576  0.5812 -0.6558 -0.8927
 4926TIP3   OH214741   2.854   6.024   2.756  0.0459 -0.6370 -0.1169
 4926TIP3    H114742   2.765   6.048   2.780  0.1084 -0.6793  0.1523
 4926TIP3    H214743   2.909   6.086   2.803  0.1365 -0.1975 -0.7806
 4927TIP3   OH214744   5.325   1.060   2.539  0.7296 -0.2055  0.3514
 4927TIP3    H114745   5.347   1.080   2.630 -3.1554  0.1489  1.3665
 4927TIP3    H214746   5.303   0.967   2.540  1.0202 -0.2877 -0.3369
 4928TIP3   OH214747   2.241   6.713   3.987  0.2429  0.3609 -0.4710
 4928TIP3    H114748   2.155   6.755   3.993 -0.0375 -0.2767  0.1709
 4928TIP3    H214749   2.273   6.736   3.900 -2.2898 -2.6361 -2.3926
 4929TIP3   OH214750   2.531   2.289   1.902  0.2307  0.5460 -0.3010
 4929TIP3    H114751   2.491   2.311   1.986 -0.3525  1.7557 -0.8791
 4929TIP3    H214752   2.620   2.325   1.908  0.1382  0.7671 -0.2666
 4930TIP3   OH214753   1.736   6.137   1.107  0.1641  0.3463 -0.1190
 4930TIP3    H114754   1.803   6.093   1.160  0.3993 -2.2656 -2.3288
 4930TIP3    H214755   1.784   6.205   1.060  0.8917 -0.2916 -0.3164
 4931TIP3   OH214756   3.013   1.380   3.515 -0.3707 -0.2597 -0.0730
 4931TIP3    H114757   3.057   1.336   3.588  1.3290  1.0869 -0.2317
 4931TIP3    H214758   2.931   1.412   3.552 -0.7153 -1.7639  0.5577
 4932TIP3   OH214759   6.251   0.973   4.145 -0.0076 -0.0288 -0.8596
 4932TIP3    H114760   6.304   1.053   4.153 -0.6955  0.7057 -3.0746
 4932TIP3    H214761   6.161   1.004   4.136 -0.2720 -1.0166 -1.8740
 4933TIP3   OH214762   6.646   0.356   1.049 -0.1139 -0.7442  0.0060
 4933TIP3    H114763   6.608   0.423   1.106  1.0279 -0.3005  0.2765
 4933TIP3    H214764   6.739   0.379   1.044  0.1047 -1.7280 -0.7195
 4934TIP3   OH214765   6.694   5.109   3.216  0.0788  1.0621  0.0364
 4934TIP3    H114766   6.624   5.063   3.170  0.7010  0.1023  0.0154
 4934TIP3    H214767   6.703   5.061   3.299 -0.9532  2.6876  1.1488
 4935TIP3   OH214768   0.637   6.029   2.721  0.0201  0.5636 -0.3993
 4935TIP3    H114769   0.706   5.964   2.709  1.1247  1.8922 -1.7063
 4935TIP3    H214770   0.576   6.013   2.649 -0.7748 -0.2539  0.4318
 4936TIP3   OH214771   2.737   1.588   5.404  0.3775  0.2488  0.0723
 4936TIP3    H114772   2.725   1.611   5.496 -1.5536  1.8404 -0.4992
 4936TIP3    H214773   2.669   1.638   5.358  1.1669 -0.6445 -2.2007
 4937TIP3   OH214774   7.075   0.922   1.532 -0.1117 -0.2046  0.5316
 4937TIP3    H114775   7.142   0.922   1.464 -0.3410  0.3175  0.2911
 4937TIP3    H214776   7.120   0.896   1.612  0.2546 -0.4062  0.2584
 4938TIP3   OH214777   6.894   0.984   4.143 -0.0049  0.0264 -0.4725
 4938TIP3    H114778   6.969   0.924   4.151 -0.2794 -0.1565  0.9377
 4938TIP3    H214779   6.933   1.071   4.151 -0.0571 -0.0987  1.6588
 4939TIP3   OH214780   1.964   5.378   3.880  0.5028 -0.2544  0.2031
 4939TIP3    H114781   1.898   5.406   3.817 -0.7780  0.8679  1.9305
 4939TIP3    H214782   2.018   5.314   3.833 -1.8293 -1.2488 -1.2907
 4940TIP3   OH214783   0.835   2.827   5.461  0.4038  0.2584 -0.0202
 4940TIP3    H114784   0.927   2.816   5.488  0.5540 -1.1688 -1.0175
 4940TIP3    H214785   0.805   2.738   5.440 -0.0748  1.0590 -3.2611
 4941TIP3   OH214786   3.426   6.183   5.493  0.0126  0.3262  0.0752
 4941TIP3    H114787   3.391   6.167   5.405 -1.7567 -0.0304  0.8076
 4941TIP3    H214788   3.365   6.246   5.531 -0.8860 -1.6010  2.0223
 4942TIP3   OH214789   2.786   4.272   1.310 -0.2092  0.0143 -0.7679
 4942TIP3    H114790   2.771   4.291   1.217 -2.7515 -0.6002 -0.5501
 4942TIP3    H214791   2.759   4.181   1.320  2.3164 -0.7170  0.1678
 4943TIP3   OH214792   1.023   3.398   4.365 -0.2465  0.6461  0.2957
 4943TIP3    H114793   1.075   3.435   4.293  0.6454 -0.9613  0.0729
 4943TIP3    H214794   0.964   3.336   4.322 -0.4310  0.4333  0.8531
 4944TIP3   OH214795   7.028   4.134   0.761  0.6776  0.0056 -0.7102
 4944TIP3    H114796   7.055   4.111   0.850 -1.5480  1.2933  0.3960
 4944TIP3    H214797   6.953   4.077   0.744  0.5377  0.3935 -1.4079
 4945TIP3   OH214798   2.198   5.696   5.098 -0.1145 -0.1964  0.4198
 4945TIP3    H114799   2.111   5.711   5.135 -0.8651 -1.2028 -0.8414
 4945TIP3    H214800   2.209   5.768   5.035  0.6685  0.8489  1.7187
 4946TIP3   OH214801   0.452   3.338   2.026  0.1997  0.1702  0.3841
 4946TIP3    H114802   0.476   3.289   1.947  2.8521  1.7375  0.0993
 4946TIP3    H214803   0.406   3.416   1.993  0.2947  0.2650  0.4756
 4947TIP3   OH214804   4.454   1.946   2.731  0.3417  0.5440 -0.1896
 4947TIP3    H114805   4.395   1.900   2.791  0.6437  1.1789  0.6113
 4947TIP3    H214806   4.499   1.877   2.683 -0.6269  0.0421 -0.4005
 4948TIP3   OH214807   0.271   4.767   2.855  0.0174 -0.4783 -0.0862
 4948TIP3    H114808   0.258   4.753   2.948  1.3337 -0.6249  0.0962
 4948TIP3    H214809   0.183   4.765   2.817 -0.5420 -0.2441  1.1651
 4949TIP3   OH214810   4.190   3.562   2.433  0.6380 -0.1291 -0.0520
 4949TIP3    H114811   4.118   3.505   2.408 -0.6687  0.2749  2.4061
 4949TIP3    H214812   4.183   3.638   2.376 -1.1504  0.0574  0.3761
 4950TIP3   OH214813   0.017   1.734   0.287 -0.1014 -0.3305  0.3393
 4950TIP3    H114814   0.040   1.819   0.324 -1.5812 -0.3220  1.3149
 4950TIP3    H214815  -0.045   1.754   0.217 -0.0889 -0.5876  0.2523
 4951TIP3   OH214816   1.772   0.531   1.876 -0.4741 -0.2797  0.0195
 4951TIP3    H114817   1.784   0.471   1.950  0.7567 -0.7185 -0.5051
 4951TIP3    H214818   1.729   0.478   1.809  1.0773 -0.7967 -0.6368
 4952TIP3   OH214819   0.295   3.432   4.392 -0.0212  0.0658  0.0813
 4952TIP3    H114820   0.369   3.492   4.399 -0.5164  0.7527 -0.5027
 4952TIP3    H214821   0.326   3.363   4.333 -0.3476  1.1470 -1.4022
 4953TIP3   OH214822   3.052   5.627   0.561  0.1826 -0.3430 -0.0476
 4953TIP3    H114823   3.092   5.645   0.646  1.4161  0.5102 -0.7788
 4953TIP3    H214824   2.986   5.696   0.551 -1.1413 -1.4133  0.9055
 4954TIP3   OH214825   5.028   0.523   0.834 -0.3614 -0.0517 -0.1442
 4954TIP3    H114826   4.976   0.570   0.900  0.6651 -0.2701  0.8460
 4954TIP3    H214827   5.056   0.591   0.773 -1.7450  0.0808 -0.6746
 4955TIP3   OH214828   6.397   0.534   4.234  0.2120  0.2041 -0.3329
 4955TIP3    H114829   6.435   0.576   4.311  2.4578  0.9616 -1.7571
 4955TIP3    H214830   6.370   0.606   4.177  0.2451 -0.3038 -1.0068
 4956TIP3   OH214831   1.659   2.322   0.076  0.1226 -0.3679  0.1401
 4956TIP3    H114832   1.605   2.269   0.134 -1.4145 -2.2171 -2.7656
 4956TIP3    H214833   1.606   2.399   0.058 -0.7111 -1.2171 -1.1133
 4957TIP3   OH214834   3.890   4.564   0.580 -0.3589  0.6849 -0.7499
 4957TIP3    H114835   3.800   4.596   0.586 -1.2540 -1.7125 -0.1148
 4957TIP3    H214836   3.910   4.532   0.668  0.5166 -0.2290 -1.2631
 4958TIP3   OH214837   7.011   1.314   0.396  0.0872 -0.2507  0.0680
 4958TIP3    H114838   6.948   1.242   0.391 -0.8402  0.5620 -0.1673
 4958TIP3    H214839   7.046   1.309   0.485 -3.1685  1.5985  1.6095
 4959TIP3   OH214840   4.494   1.170   2.226  0.7995  0.5936  0.1852
 4959TIP3    H114841   4.498   1.241   2.162  0.8259 -0.0377 -0.5219
 4959TIP3    H214842   4.408   1.180   2.268  2.2332  3.3539  2.8278
 4960TIP3   OH214843   2.297   3.316   5.184  0.2326  0.3672 -0.3576
 4960TIP3    H114844   2.298   3.264   5.103 -1.0088 -0.4594  0.1201
 4960TIP3    H214845   2.239   3.390   5.164 -1.0263 -0.4622  0.1092
 4961TIP3   OH214846   0.428   0.020   5.178  0.5803  0.1733 -0.4827
 4961TIP3    H114847   0.384   0.086   5.231 -0.0400 -1.2774  0.9011
 4961TIP3    H214848   0.471  -0.037   5.242  0.1016 -1.4411 -1.5332
 4962TIP3   OH214849   7.130   1.663   0.920 -0.1698  0.2430 -0.2004
 4962TIP3    H114850   7.038   1.657   0.946 -0.3899  1.1676 -0.7147
 4962TIP3    H214851   7.178   1.624   0.993 -0.7373  3.0007  1.8215
 4963TIP3   OH214852   6.248   5.368   4.619  0.0603  0.9454  0.4635
 4963TIP3    H114853   6.279   5.343   4.532 -0.8975  1.4078 -0.0242
 4963TIP3    H214854   6.212   5.456   4.606 -0.8314  0.6899  1.1519
 4964TIP3   OH214855   3.410   6.689   3.655  1.0328  0.0138 -0.0092
 4964TIP3    H114856   3.388   6.626   3.587  0.2769 -0.0643  0.2975
 4964TIP3    H214857   3.380   6.773   3.621 -0.6061 -0.2140  0.7692
 4965TIP3   OH214858   6.599   1.270   5.866 -0.4686  0.4311  0.3408
 4965TIP3    H114859   6.553   1.353   5.879 -0.1052  0.7856 -0.5595
 4965TIP3    H214860   6.689   1.288   5.893 -0.3958  0.3241  0.1697
 4966TIP3   OH214861   4.450   2.353   5.600  0.7956  0.3762 -0.0779
 4966TIP3    H114862   4.433   2.407   5.676  0.4572 -0.6191  0.5794
 4966TIP3    H214863   4.388   2.280   5.607  2.1530 -0.8429 -0.1582
 4967TIP3   OH214864   2.645   5.749   4.997 -0.3632  0.3205  0.4590
 4967TIP3    H114865   2.665   5.787   4.912  1.7439 -0.6963  0.4272
 4967TIP3    H214866   2.607   5.821   5.047 -0.9882  1.1160 -1.1121
 4968TIP3   OH214867   2.296   2.811   4.459 -0.1709 -0.1902 -0.5089
 4968TIP3    H114868   2.386   2.835   4.439  0.0564  0.0870  0.7732
 4968TIP3    H214869   2.301   2.721   4.491  0.1016  0.7211  2.2986
 4969TIP3   OH214870   5.230   5.122   5.616 -0.0188 -1.1632 -0.2887
 4969TIP3    H114871   5.305   5.180   5.620 -0.8683  0.0993 -1.5380
 4969TIP3    H214872   5.177   5.156   5.543 -1.5906 -2.2509  0.2826
 4970TIP3   OH214873   1.512   3.715   2.946  0.4144  0.1844  0.3573
 4970TIP3    H114874   1.580   3.746   3.006 -0.2141  1.0412  0.6555
 4970TIP3    H214875   1.485   3.794   2.898  0.4419 -0.3663 -0.5919
 4971TIP3   OH214876   0.401   2.103   4.729 -0.3262 -0.4620 -0.8515
 4971TIP3    H114877   0.416   2.011   4.750 -1.0929 -0.5859 -0.8390
 4971TIP3    H214878   0.344   2.135   4.798 -0.6117 -0.1548 -1.2257
 4972TIP3   OH214879   2.458   0.563   4.293 -0.5779 -0.1714  0.1589
 4972TIP3    H114880   2.533   0.608   4.332 -0.3898 -1.0984  0.9041
 4972TIP3    H214881   2.408   0.530   4.368 -2.0355  0.8689 -0.3074
 4973TIP3   OH214882   5.365   6.137   2.178  0.2281  0.0900  0.4510
 4973TIP3    H114883   5.284   6.087   2.191  0.0556  0.4047  0.5960
 4973TIP3    H214884   5.370   6.149   2.083  0.4294 -0.4595  0.3880
 4974TIP3   OH214885   0.773   2.057   3.212 -0.3572  0.0260  0.0702
 4974TIP3    H114886   0.801   2.087   3.298  1.8641 -3.7663  0.9065
 4974TIP3    H214887   0.770   2.136   3.159 -0.0091  2.2754  3.1381
 4975TIP3   OH214888   3.444   2.873   1.170  0.0448  0.3068 -1.0720
 4975TIP3    H114889   3.357   2.839   1.147 -0.5970  0.8591  0.4514
 4975TIP3    H214890   3.431   2.918   1.253  1.7674  0.5616 -0.9142
 4976TIP3   OH214891   0.453   4.773   1.624 -0.0032 -0.0168  0.0735
 4976TIP3    H114892   0.511   4.832   1.673  0.9460  0.1240 -1.1620
 4976TIP3    H214893   0.512   4.710   1.583 -0.8907 -0.9553  0.1981
 4977TIP3   OH214894   5.661   1.176   2.936  0.3016  0.3183 -0.4487
 4977TIP3    H114895   5.679   1.138   3.022 -0.0845 -0.4616 -0.6985
 4977TIP3    H214896   5.652   1.270   2.952  0.5525  0.2156  0.3059
 4978TIP3   OH214897   2.574   4.969   1.725 -0.4618  0.1497  0.0471
 4978TIP3    H114898   2.639   4.964   1.656  1.0689 -0.9451  1.4887
 4978TIP3    H214899   2.503   4.912   1.696 -0.9357  1.5249 -1.6448
 4979TIP3   OH214900   2.717   1.655   2.296  0.1941 -0.3870  0.1835
 4979TIP3    H114901   2.681   1.567   2.281  1.5427 -0.9327 -0.0253
 4979TIP3    H214902   2.682   1.707   2.224 -0.0837 -0.9118 -0.0724
 4980TIP3   OH214903   5.436   1.737   1.020 -0.2243 -0.5277  0.3121
 4980TIP3    H114904   5.422   1.722   0.927 -0.2685 -0.3472  0.2883
 4980TIP3    H214905   5.426   1.832   1.030 -2.2449 -0.7651  0.8543
 4981TIP3   OH214906   1.594   5.990   0.630  0.2447  0.3322  0.1660
 4981TIP3    H114907   1.571   6.015   0.541 -0.9022  0.7013  0.5532
 4981TIP3    H214908   1.651   5.913   0.619  1.5846  1.4221 -0.9257
 4982TIP3   OH214909   2.007   1.216   3.466 -0.1098  0.5670 -0.2941
 4982TIP3    H114910   1.961   1.143   3.425 -1.1923  0.9790  0.1565
 4982TIP3    H214911   2.078   1.175   3.516  0.6370 -0.0073 -1.7528
 4983TIP3   OH214912   3.423   4.779   2.035  0.3890  0.2495 -0.1048
 4983TIP3    H114913   3.336   4.764   1.999 -0.1522 -0.5028  1.4329
 4983TIP3    H214914   3.464   4.693   2.038  1.4327  0.6736 -1.3586
 4984TIP3   OH214915   3.656   4.316   1.314 -0.2691  0.2547 -0.2875
 4984TIP3    H114916   3.622   4.303   1.402  0.8797 -0.8263  0.0292
 4984TIP3    H214917   3.698   4.233   1.292  1.0313  1.0991 -1.1300
 4985TIP3   OH214918   2.156   4.407   5.769  0.1610  0.5134  0.1542
 4985TIP3    H114919   2.155   4.455   5.687 -0.0929  1.1634  0.5339
 4985TIP3    H214920   2.249   4.392   5.787  0.1904 -0.4406 -0.7042
 4986TIP3   OH214921   2.227   2.864   2.930 -0.0376 -0.0016 -0.6991
 4986TIP3    H114922   2.138   2.836   2.950  0.0704 -1.1313 -1.6962
 4986TIP3    H214923   2.216   2.937   2.870 -0.3024  1.4053  0.9833
 4987TIP3   OH214924   1.694   1.742   3.807  0.0273  0.4044  0.0749
 4987TIP3    H114925   1.645   1.699   3.737  0.4504 -1.3211  0.7804
 4987TIP3    H214926   1.628   1.767   3.871 -0.2078  0.6296 -0.2543
 4988TIP3   OH214927   2.796   1.917   2.567  0.5449  0.6664  0.3677
 4988TIP3    H114928   2.828   1.913   2.657  0.2021 -2.2200  0.4429
 4988TIP3    H214929   2.707   1.881   2.570  0.4034  0.8040 -1.0702
 4989TIP3   OH214930   3.013   6.437   1.841 -0.2905 -0.1962  0.3841
 4989TIP3    H114931   2.952   6.369   1.867 -1.8129  0.9789  0.0199
 4989TIP3    H214932   2.994   6.511   1.899  0.5495  0.3160  0.0324
 4990TIP3   OH214933   6.080   6.224   5.124  0.5363  0.3824 -0.0544
 4990TIP3    H114934   6.085   6.234   5.219  2.4071 -0.9568  0.0484
 4990TIP3    H214935   6.154   6.275   5.091 -0.2108  0.9964 -0.8308
 4991TIP3   OH214936   3.245   0.546   1.996 -0.2389  0.1231  0.1400
 4991TIP3    H114937   3.256   0.547   2.091  0.3133 -0.3254  0.0848
 4991TIP3    H214938   3.190   0.469   1.980  1.0651 -0.8191 -0.0288
 4992TIP3   OH214939   6.857   3.397   4.346  0.3987  0.6473  0.2172
 4992TIP3    H114940   6.913   3.474   4.357  0.8527  0.3185  0.2508
 4992TIP3    H214941   6.812   3.411   4.263 -0.6270  1.6384  0.9096
 4993TIP3   OH214942   0.189   2.761   2.146  0.0204  0.0412  0.7211
 4993TIP3    H114943   0.195   2.672   2.180 -3.1468 -0.5242  0.1002
 4993TIP3    H214944   0.145   2.810   2.215 -1.3131  0.2600 -0.2523
 4994TIP3   OH214945   4.209   0.789   5.077 -0.1953  0.0459  0.4353
 4994TIP3    H114946   4.228   0.760   4.987  3.5025 -0.3224  1.1723
 4994TIP3    H214947   4.260   0.870   5.087 -0.1704 -0.1708  2.3304
 4995TIP3   OH214948   0.127   5.387   0.110 -0.2319 -0.0385 -0.2619
 4995TIP3    H114949   0.216   5.356   0.097 -0.0905  0.1909  0.1453
 4995TIP3    H214950   0.103   5.357   0.197 -0.7771 -0.6200 -0.6071
 4996TIP3   OH214951   0.960   4.327   3.446  0.0510 -0.6419 -0.4186
 4996TIP3    H114952   0.932   4.299   3.359  0.4321 -3.5650  0.3231
 4996TIP3    H214953   1.020   4.260   3.476 -0.8532 -0.3036  2.5234
 4997TIP3   OH214954   3.104   6.346   2.439  0.3776  0.1941 -0.1137
 4997TIP3    H114955   3.088   6.257   2.470  0.3202 -0.0444 -0.8234
 4997TIP3    H214956   3.082   6.344   2.346  1.3718  0.6868 -0.3736
 4998TIP3   OH214957   5.314   3.010   3.734 -0.0411 -0.6774 -0.7077
 4998TIP3    H114958   5.317   3.081   3.799  0.1182 -0.8794 -0.4941
 4998TIP3    H214959   5.392   3.024   3.680 -0.3866 -0.2725 -1.1066
 4999TIP3   OH214960   4.767   5.710   0.722  0.4312  0.4084 -0.3651
 4999TIP3    H114961   4.705   5.679   0.788  0.6881  0.3812 -0.1336
 4999TIP3    H214962   4.758   5.805   0.724 -0.3535  0.3586 -1.0713
 5000TIP3   OH214963   1.347   4.409   1.712 -0.1448 -0.3414  0.3999
 5000TIP3    H114964   1.326   4.501   1.727 -0.7407 -0.2750 -0.7375
 5000TIP3    H214965   1.437   4.410   1.679  0.7999 -0.4097  2.7757
 5001TIP3   OH214966   0.409   5.498   5.861  0.3455 -0.2777 -0.3280
 5001TIP3    H114967   0.473   5.550   5.910  0.1796 -1.3540  1.0903
 5001TIP3    H214968   0.367   5.561   5.803  0.7104  1.0324  0.7656
 5002TIP3   OH214969   1.813   1.909   1.330 -0.4133  0.5076  0.0797
 5002TIP3    H114970   1.897   1.906   1.376 -1.3120  1.3396  1.8321
 5002TIP3    H214971   1.797   1.818   1.303  0.3749  0.0925  0.9776
 5003TIP3   OH214972   2.761   2.935   4.551 -1.0540 -0.8522 -0.2685
 5003TIP3    H114973   2.715   2.852   4.564 -0.8297 -1.1750 -1.4664
 5003TIP3    H214974   2.782   2.937   4.458 -0.6262  0.3326 -0.1649
 5004TIP3   OH214975   4.533   3.075   5.201 -0.2026 -0.4961  0.4164
 5004TIP3    H114976   4.576   2.989   5.200  1.1397  0.1220  1.5352
 5004TIP3    H214977   4.557   3.114   5.117 -1.5776 -1.5262 -0.5072
 5005TIP3   OH214978   2.098   2.756   4.239  0.0255 -0.1729 -0.4760
 5005TIP3    H114979   2.126   2.816   4.171  0.8692  0.3017  0.2735
 5005TIP3    H214980   2.156   2.773   4.313 -0.6369 -0.9171  0.2504
 5006TIP3   OH214981   4.391   4.359   5.621  0.1027 -0.5815  0.3353
 5006TIP3    H114982   4.364   4.448   5.599 -0.9185 -1.0779 -0.5402
 5006TIP3    H214983   4.372   4.308   5.542 -0.5152 -1.7966  1.2327
 5007TIP3   OH214984   4.877   1.314   2.074  0.6647  0.2994  0.5943
 5007TIP3    H114985   4.872   1.404   2.107 -1.0188  0.9832 -1.2653
 5007TIP3    H214986   4.883   1.260   2.152 -1.2277  1.8936  1.9519
 5008TIP3   OH214987   1.781   6.175   0.236  0.4168  0.2527  0.3670
 5008TIP3    H114988   1.839   6.100   0.223 -1.4329 -1.1214 -0.2517
 5008TIP3    H214989   1.841   6.251   0.236  2.1510 -1.0368 -0.7264
 5009TIP3   OH214990   3.997   5.864   0.193 -0.2827  0.1470  0.6403
 5009TIP3    H114991   3.903   5.872   0.183 -0.4658  1.7160  2.8153
 5009TIP3    H214992   4.010   5.848   0.287  1.5911 -1.0242  0.2551
 5010TIP3   OH214993   4.961   3.097   0.633 -0.5966  0.2025 -0.1906
 5010TIP3    H114994   5.054   3.079   0.642 -0.8212 -0.6217  0.5679
 5010TIP3    H214995   4.948   3.106   0.538  0.2621  0.4605 -0.2969
 5011TIP3   OH214996   0.926   1.587   3.936  0.4776 -0.1541 -0.0973
 5011TIP3    H114997   0.886   1.504   3.960 -0.5443  0.2922 -0.1980
 5011TIP3    H214998   1.015   1.564   3.908  0.1777 -1.2177 -0.2238
 5012TIP3   OH214999   7.050   3.559   4.510  0.2920 -0.6050  1.0897
 5012TIP3    H115000   7.033   3.472   4.547 -1.4141 -1.3402 -1.1639
 5012TIP3    H215001   7.129   3.548   4.458 -0.0458 -0.8867  0.6289
 5013TIP3   OH215002   3.914   6.495   1.442 -0.2161  0.1443  0.1760
 5013TIP3    H115003   4.004   6.513   1.416  0.2918 -1.1401  0.9783
 5013TIP3    H215004   3.862   6.519   1.365  0.8398  0.5444 -0.4305
 5014TIP3   OH215005   6.328   5.906   3.912 -0.2129 -0.1376  0.2665
 5014TIP3    H115006   6.307   5.941   3.999  4.5381  0.8879  1.2768
 5014TIP3    H215007   6.382   5.973   3.871 -1.7728 -0.8799 -3.3379
 5015TIP3   OH215008   6.638   0.939   2.116 -0.1606  0.0088 -0.2585
 5015TIP3    H115009   6.706   0.872   2.122  0.6416  0.7194 -1.0167
 5015TIP3    H215010   6.680   1.018   2.152 -1.2315  0.0200  1.0233
 5016TIP3   OH215011   2.894   6.577   2.072  0.1839 -0.2109  0.1172
 5016TIP3    H115012   2.892   6.635   2.148 -1.3494  0.1459 -0.1567
 5016TIP3    H215013   2.804   6.580   2.037  1.0560  0.3930 -2.2730
 5017TIP3   OH215014   4.290   5.397   5.115 -0.1501 -0.0760  0.4450
 5017TIP3    H115015   4.212   5.412   5.168  0.6683  1.5471  1.2741
 5017TIP3    H215016   4.306   5.481   5.072 -0.6167 -1.2569 -2.2110
 5018TIP3   OH215017   6.102   5.353   3.452 -0.0299  0.1112  0.3121
 5018TIP3    H115018   6.189   5.334   3.418 -0.1358 -0.0727  0.1439
 5018TIP3    H215019   6.050   5.376   3.375  0.1820  1.4445  0.5412
 5019TIP3   OH215020   1.146   0.511   2.048  0.3613  0.3686  0.0385
 5019TIP3    H115021   1.177   0.451   1.980 -0.7237  1.1091 -1.1542
 5019TIP3    H215022   1.056   0.484   2.067  0.1495  1.0811  0.1015
 5020TIP3   OH215023   1.598   3.794   5.137 -0.2153 -0.2061  0.1114
 5020TIP3    H115024   1.659   3.867   5.126  0.2410 -0.7389 -1.0538
 5020TIP3    H215025   1.535   3.804   5.066 -0.6991 -0.4186  0.5066
 5021TIP3   OH215026   3.294   3.316   1.726  0.4646  0.0978 -0.2299
 5021TIP3    H115027   3.341   3.398   1.707 -0.6251  0.6950 -0.4556
 5021TIP3    H215028   3.246   3.298   1.645 -1.3409  0.6590  0.6617
 5022TIP3   OH215029   2.524   5.669   4.477 -0.2386 -0.0222 -0.2064
 5022TIP3    H115030   2.452   5.728   4.458 -0.9769 -0.7358  0.2963
 5022TIP3    H215031   2.492   5.583   4.452  0.0996 -0.4723  0.8285
 5023TIP3   OH215032   6.756   6.451   1.672  0.4216  0.0130  0.1745
 5023TIP3    H115033   6.800   6.368   1.692  1.0896  0.1059 -0.8375
 5023TIP3    H215034   6.688   6.459   1.739  1.4157 -0.5410  1.2811
 5024TIP3   OH215035   0.220   3.068   0.878  0.6423 -0.4219  0.5235
 5024TIP3    H115036   0.219   3.143   0.819 -0.3086 -0.1897  0.8137
 5024TIP3    H215037   0.310   3.063   0.908  1.2512 -0.7981 -1.2417
 5025TIP3   OH215038   4.699   3.559   3.067  0.3980  0.3568 -0.2484
 5025TIP3    H115039   4.605   3.568   3.082  0.6630  0.5988  1.5221
 5025TIP3    H215040   4.711   3.578   2.974 -1.4747 -1.2211 -0.8683
 5026TIP3   OH215041   1.416   3.129   0.803  0.2713 -0.4266  0.1239
 5026TIP3    H115042   1.464   3.157   0.725 -1.2842 -0.4914 -0.8901
 5026TIP3    H215043   1.374   3.048   0.777 -0.3775 -0.3801  0.9948
 5027TIP3   OH215044   6.378   1.015   2.579  0.0723 -0.7004 -0.2255
 5027TIP3    H115045   6.293   1.057   2.564  0.6482  0.1490 -1.2276
 5027TIP3    H215046   6.369   0.927   2.541 -0.1034 -0.3250 -1.0636
 5028TIP3   OH215047   4.276   6.481   0.609  0.5396 -0.1469 -0.9698
 5028TIP3    H115048   4.201   6.523   0.651 -1.1053 -0.0498 -3.7639
 5028TIP3    H215049   4.258   6.388   0.614  1.0716 -0.2216 -0.2510
 5029TIP3   OH215050   4.375   1.549   5.652  0.5887 -0.2481 -0.0107
 5029TIP3    H115051   4.431   1.624   5.669  0.7099 -0.8192  2.5192
 5029TIP3    H215052   4.427   1.474   5.681 -0.1711 -1.1529 -0.9145
 5030TIP3   OH215053   6.250   5.503   2.508  0.2216 -0.3096  0.3075
 5030TIP3    H115054   6.298   5.519   2.426  0.4856 -0.2729  0.4683
 5030TIP3    H215055   6.178   5.445   2.482 -0.8147  1.2029 -0.2920
 5031TIP3   OH215056   4.927   6.270   5.789 -0.0345 -0.1641  0.0335
 5031TIP3    H115057   4.839   6.240   5.768 -0.2753 -2.0306  3.0123
 5031TIP3    H215058   4.978   6.189   5.797  1.5601  0.7951 -0.1091
 5032TIP3   OH215059   6.185   6.712   0.346  0.4563 -0.1701  0.1610
 5032TIP3    H115060   6.187   6.665   0.263 -0.5238  0.1633 -0.0680
 5032TIP3    H215061   6.124   6.663   0.401  1.2158 -0.4773  0.7507
 5033TIP3   OH215062   6.674   0.664   1.475  0.2825 -0.6350  0.5694
 5033TIP3    H115063   6.730   0.728   1.431 -1.1193 -0.3577 -0.8790
 5033TIP3    H215064   6.663   0.594   1.412 -1.9618 -0.1265  0.2911
 5034TIP3   OH215065   5.465   2.818   3.569  0.6333  0.7174 -0.0827
 5034TIP3    H115066   5.541   2.868   3.601  1.3686 -1.1911  1.3560
 5034TIP3    H215067   5.417   2.794   3.649 -1.4128  1.7017 -0.9560
 5035TIP3   OH215068   4.989   4.649   3.162 -0.7503  0.6247 -0.0587
 5035TIP3    H115069   4.908   4.695   3.182 -0.1887  1.0979  1.2718
 5035TIP3    H215070   5.047   4.716   3.125 -0.2167  0.8402  1.1069
 5036TIP3   OH215071   5.773   3.972   3.211 -0.1927 -0.5138 -0.3689
 5036TIP3    H115072   5.764   3.894   3.266 -1.4896  0.4025  0.8162
 5036TIP3    H215073   5.867   3.980   3.195  0.3030 -0.6680  2.0273
 5037TIP3   OH215074   6.844   2.955   2.840  0.6205 -0.9834 -0.0738
 5037TIP3    H115075   6.844   3.022   2.909 -1.5591 -2.1276  1.1451
 5037TIP3    H215076   6.837   2.872   2.887 -2.1220 -1.7527 -1.6380
 5038TIP3   OH215077   5.546   2.432   3.154  0.8265 -0.4046  0.3779
 5038TIP3    H115078   5.484   2.383   3.208  0.5471  0.3116  0.7134
 5038TIP3    H215079   5.595   2.485   3.217  0.5294  0.3994 -0.0666
 5039TIP3   OH215080   1.564   5.851   5.414  0.6983 -0.1753 -0.1644
 5039TIP3    H115081   1.657   5.833   5.428  0.3887 -0.9774  0.9853
 5039TIP3    H215082   1.530   5.773   5.370  0.0979 -0.9566  1.5875
 5040TIP3   OH215083   1.917   0.135   1.878 -0.4310 -0.2011 -0.1252
 5040TIP3    H115084   1.871   0.191   1.941 -0.3919 -1.0614  0.6941
 5040TIP3    H215085   1.858   0.128   1.803 -2.0841 -1.9540  1.2201
 5041TIP3   OH215086   0.242   5.739   4.247 -0.1598 -0.6521 -0.0276
 5041TIP3    H115087   0.278   5.770   4.163  0.2852 -1.1665 -0.0295
 5041TIP3    H215088   0.308   5.678   4.280  0.8404  1.3299  1.8544
 5042TIP3   OH215089   6.535   0.725   2.838 -0.2208 -0.5984 -0.1316
 5042TIP3    H115090   6.466   0.679   2.790 -0.8583  1.4187 -1.2247
 5042TIP3    H215091   6.612   0.670   2.826 -1.4210 -2.5546  0.5532
 5043TIP3   OH215092   1.147   0.969   2.083 -0.0143  0.4209  0.4137
 5043TIP3    H115093   1.229   0.990   2.038 -0.0697 -0.0726  0.0706
 5043TIP3    H215094   1.167   0.892   2.136 -0.1785  0.4725  0.5515
 5044TIP3   OH215095   0.593   1.216   0.029  0.0352 -0.6690 -0.1177
 5044TIP3    H115096   0.510   1.253   0.059  0.4315  1.1163 -1.0685
 5044TIP3    H215097   0.589   1.222  -0.066  1.7928  0.8553 -0.1637
 5045TIP3   OH215098   6.220   5.964   5.067 -0.1284 -0.1649  0.3607
 5045TIP3    H115099   6.222   5.989   5.159  0.9637 -0.4788  0.4361
 5045TIP3    H215100   6.256   5.875   5.065  0.6388  0.1542 -0.4620
 5046TIP3   OH215101   3.848   6.224   4.423  0.4561 -0.1418  0.5916
 5046TIP3    H115102   3.786   6.292   4.450  1.9111  1.5563 -0.1736
 5046TIP3    H215103   3.928   6.244   4.471  1.2982 -0.5518 -0.5907
 5047TIP3   OH215104   6.893   6.394   0.470 -0.3308 -0.0840 -0.1564
 5047TIP3    H115105   6.837   6.394   0.392 -0.9895  2.5800  0.2226
 5047TIP3    H215106   6.834   6.372   0.542 -0.2553 -0.1851 -0.1261
 5048TIP3   OH215107   2.803   1.698   2.988 -0.1109  0.6226  0.4412
 5048TIP3    H115108   2.834   1.785   3.016  2.5251  0.1023 -0.5084
 5048TIP3    H215109   2.747   1.716   2.912  1.2556  1.5111 -0.4086
 5049TIP3   OH215110   5.905   6.043   2.164  0.3928 -0.3936 -0.1733
 5049TIP3    H115111   5.909   6.074   2.255  1.6677  1.2356 -0.7376
 5049TIP3    H215112   5.814   6.057   2.138  0.6921  2.1122 -0.0929
 5050TIP3   OH215113   5.158   0.226   3.649  0.3054 -0.4030 -0.1079
 5050TIP3    H115114   5.107   0.306   3.667  0.3845 -0.4650  0.4050
 5050TIP3    H215115   5.184   0.235   3.557  0.8662  0.4789  0.1293
 5051TIP3   OH215116   7.129   3.094   4.959  0.5185  0.0463  0.1123
 5051TIP3    H115117   7.221   3.121   4.956  0.2520  0.9229 -0.6094
 5051TIP3    H215118   7.085   3.154   4.900 -0.7737  0.6044  1.5827
 5052TIP3   OH215119   5.179   3.146   0.913  0.0485  0.1349  0.0001
 5052TIP3    H115120   5.191   3.102   0.829  0.4794 -0.6824  0.4771
 5052TIP3    H215121   5.248   3.212   0.915 -1.1711  1.5226 -1.1229
 5053TIP3   OH215122   2.815   2.765   0.867  0.3469  0.0755 -0.0823
 5053TIP3    H115123   2.845   2.833   0.807  1.5836  0.1027  0.5191
 5053TIP3    H215124   2.721   2.757   0.851 -0.3221  3.5084  1.3944
 5054TIP3   OH215125   4.811   2.154   4.421 -0.0411 -0.2689  0.5220
 5054TIP3    H115126   4.758   2.199   4.486  0.9742  2.5924 -0.5023
 5054TIP3    H215127   4.757   2.156   4.341 -0.0224 -0.9900  0.4845
 5055TIP3   OH215128   0.260   3.183   2.725  0.7461  0.2160  0.6786
 5055TIP3    H115129   0.304   3.259   2.687  1.6815 -0.5262  0.2500
 5055TIP3    H215130   0.195   3.158   2.659  1.8597 -0.6099 -0.1508
 5056TIP3   OH215131   2.347   2.923   2.349  0.0594 -0.1954  0.0862
 5056TIP3    H115132   2.348   2.855   2.282 -1.1404 -1.4192  1.2302
 5056TIP3    H215133   2.301   2.997   2.308  2.5406  0.5229 -1.6244
 5057TIP3   OH215134   0.076   6.351   1.610  0.0826 -0.3189 -0.2420
 5057TIP3    H115135   0.107   6.323   1.696 -0.8329  0.3969  0.3429
 5057TIP3    H215136   0.053   6.270   1.565 -0.5084 -0.6463  0.6213
 5058TIP3   OH215137   4.198   0.071   4.758  0.5628  0.4752  0.2313
 5058TIP3    H115138   4.218   0.136   4.690  0.4396  0.6550  0.3660
 5058TIP3    H215139   4.274   0.012   4.757  2.4039  2.6137  2.4871
 5059TIP3   OH215140   2.530   1.168   0.384  0.1597  0.1025  0.2274
 5059TIP3    H115141   2.610   1.115   0.382  0.3015  0.3165  0.1369
 5059TIP3    H215142   2.493   1.159   0.296 -0.8145 -1.3364  0.7359
 5060TIP3   OH215143   5.608   3.379   5.473 -0.1869  1.0447 -0.7115
 5060TIP3    H115144   5.515   3.364   5.487  0.0375 -0.3824 -0.6445
 5060TIP3    H215145   5.612   3.430   5.392 -1.0216  1.1189 -0.7169
 5061TIP3   OH215146   5.359   3.300   2.418  0.1078  0.0244 -0.0107
 5061TIP3    H115147   5.388   3.311   2.327  2.0955 -2.8203  0.1477
 5061TIP3    H215148   5.429   3.337   2.471 -1.3941  2.3808  0.4810
 5062TIP3   OH215149   1.999   3.636   4.883  0.0365  0.8299  0.0626
 5062TIP3    H115150   1.915   3.589   4.882  0.6730 -0.4145  1.4056
 5062TIP3    H215151   2.041   3.610   4.800 -0.7379  1.1935 -0.4582
 5063TIP3   OH215152   3.563   4.227   2.337  0.9963  0.1590  0.1407
 5063TIP3    H115153   3.509   4.212   2.414  0.7509  0.0935 -0.0410
 5063TIP3    H215154   3.545   4.317   2.312  2.5259  0.8162  1.2726
 5064TIP3   OH215155   4.534   5.128   4.013  0.3217 -0.1784 -0.6271
 5064TIP3    H115156   4.550   5.209   4.062  2.5937 -0.0803 -1.4287
 5064TIP3    H215157   4.544   5.059   4.078  1.2581  0.0472 -0.5228
 5065TIP3   OH215158   4.988   4.993   4.930  0.0587  0.2051 -0.2948
 5065TIP3    H115159   4.921   4.999   4.998 -0.1598  1.2011 -0.5701
 5065TIP3    H215160   5.068   4.967   4.976  0.4835  3.0430  0.7791
 5066TIP3   OH215161   5.124   4.855   3.041 -0.1640 -0.2340  0.5243
 5066TIP3    H115162   5.179   4.873   2.964  1.0326  1.9864  1.7965
 5066TIP3    H215163   5.149   4.922   3.104 -0.8354 -2.2071  3.0289
 5067TIP3   OH215164   5.858   2.964   4.492 -0.1161  0.1332 -0.0024
 5067TIP3    H115165   5.895   2.955   4.580  1.0624  0.4474 -0.4466
 5067TIP3    H215166   5.768   2.932   4.501 -0.7165  2.1052  1.7776
 5068TIP3   OH215167   5.493   1.878   2.079  0.1267 -0.3520  0.7797
 5068TIP3    H115168   5.452   1.901   2.162 -1.0153 -0.5703  0.3028
 5068TIP3    H215169   5.420   1.846   2.024  0.8575 -0.2670 -0.2786
 5069TIP3   OH215170   1.024   2.269   4.524 -0.2155 -0.0010  0.8089
 5069TIP3    H115171   0.996   2.331   4.457  0.7317 -1.9012 -1.4458
 5069TIP3    H215172   1.120   2.276   4.524 -0.2056  0.2647  2.3089
 5070TIP3   OH215173   3.469   1.790   3.449  0.0464 -0.4624 -0.1766
 5070TIP3    H115174   3.400   1.829   3.503  0.3370  0.4501 -0.4553
 5070TIP3    H215175   3.542   1.851   3.455  0.9678 -1.5854  0.3860
 5071TIP3   OH215176   4.632   0.774   2.401 -0.0357 -0.0248 -0.0652
 5071TIP3    H115177   4.561   0.713   2.419 -0.6214  0.8480  0.6841
 5071TIP3    H215178   4.649   0.764   2.307 -0.4008 -1.0230 -0.0355
 5072TIP3   OH215179   1.173   3.184   3.615 -0.2373 -0.5002  0.5207
 5072TIP3    H115180   1.093   3.131   3.614 -0.2930 -0.4141  0.3897
 5072TIP3    H215181   1.226   3.149   3.543 -0.3569 -0.2537  0.3096
 5073TIP3   OH215182   6.322   4.571   0.804  0.5135  0.1458  0.2214
 5073TIP3    H115183   6.411   4.575   0.770  1.0428 -0.8851  1.4154
 5073TIP3    H215184   6.333   4.563   0.899 -0.7873 -1.6505  0.2659
 5074TIP3   OH215185   1.985   5.460   3.387  0.2503  0.6087 -0.3079
 5074TIP3    H115186   1.993   5.520   3.462  0.9664  0.3377 -0.1557
 5074TIP3    H215187   1.933   5.387   3.421  2.0100 -0.3442  0.4873
 5075TIP3   OH215188   0.175   2.866   3.286 -0.3673 -0.2759 -0.0907
 5075TIP3    H115189   0.105   2.914   3.330 -1.4860 -2.6515  0.9102
 5075TIP3    H215190   0.233   2.838   3.356  1.1090  0.8538 -0.8204
 5076TIP3   OH215191   4.017   3.481   0.812 -0.0590  0.2773 -0.3768
 5076TIP3    H115192   4.090   3.431   0.776 -0.1458  0.6423 -1.0693
 5076TIP3    H215193   3.939   3.435   0.781 -0.1559  1.3004 -1.7181
 5077TIP3   OH215194   4.794   3.553   2.111 -0.2758 -0.2757 -0.1676
 5077TIP3    H115195   4.715   3.505   2.090 -0.9474  0.1432  1.2275
 5077TIP3    H215196   4.797   3.625   2.048 -0.3123 -1.0125 -1.0185
 5078TIP3   OH215197   0.093   2.214   5.852 -0.2562  0.6104 -0.5336
 5078TIP3    H115198   0.098   2.278   5.781  1.5438 -0.4860 -1.4606
 5078TIP3    H215199   0.184   2.201   5.880 -0.2064 -2.9710 -1.7821
 5079TIP3   OH215200   6.484   1.969   2.745  0.2047  0.3757  0.0452
 5079TIP3    H115201   6.484   1.926   2.830  0.0267  1.1047  0.4213
 5079TIP3    H215202   6.528   1.908   2.687 -1.0847 -0.8464  0.2924
 5080TIP3   OH215203   2.715   3.967   3.689  0.1557 -0.1271 -0.5470
 5080TIP3    H115204   2.797   4.004   3.721 -0.7782  0.7805  0.9044
 5080TIP3    H215205   2.716   3.983   3.595  2.1106 -1.1026 -0.7303
 5081TIP3   OH215206   4.042   6.167   4.785 -0.2303 -0.1102  0.0478
 5081TIP3    H115207   4.047   6.084   4.832 -0.3198 -0.2708 -0.2234
 5081TIP3    H215208   3.960   6.206   4.814  0.8454  0.9325  1.8871
 5082TIP3   OH215209   6.572   0.630   1.141 -0.6715  0.4269 -0.6601
 5082TIP3    H115210   6.611   0.717   1.137 -1.4773  0.7788 -1.0917
 5082TIP3    H215211   6.524   0.629   1.224  1.1053 -0.3971  0.4168
 5083TIP3   OH215212   3.572   1.127   1.523 -0.3459 -0.1509 -0.5501
 5083TIP3    H115213   3.531   1.136   1.610 -0.3186 -0.2256 -0.5292
 5083TIP3    H215214   3.632   1.054   1.533  1.5449  1.4199  0.0808
 5084TIP3   OH215215   0.936   0.157   0.405 -0.0787 -0.2690  0.0823
 5084TIP3    H115216   0.865   0.098   0.378 -0.1067 -0.5462  0.7381
 5084TIP3    H215217   0.946   0.140   0.499 -0.6717  1.3805  0.4825
 5085TIP3   OH215218   2.737   2.943   2.099 -0.5049 -0.4453  0.0521
 5085TIP3    H115219   2.804   2.976   2.159 -1.0301 -1.5770  1.3127
 5085TIP3    H215220   2.658   2.991   2.122 -0.1636  1.0515 -1.5848
 5086TIP3   OH215221   6.290   5.703   5.031 -0.0740  0.3453  0.3857
 5086TIP3    H115222   6.236   5.660   4.964  0.0135  0.0783  0.4838
 5086TIP3    H215223   6.326   5.630   5.082  1.5255  0.4358 -0.5601
 5087TIP3   OH215224   2.085   5.384   0.226 -0.1075  0.3654 -0.4916
 5087TIP3    H115225   1.994   5.388   0.197  0.4602  0.8981 -2.3481
 5087TIP3    H215226   2.113   5.475   0.234  0.0793  0.2205  0.7894
 5088TIP3   OH215227   4.240   3.194   3.555 -0.4465  0.2821  0.0523
 5088TIP3    H115228   4.239   3.119   3.615 -1.6108  1.3660  1.4719
 5088TIP3    H215229   4.148   3.217   3.544 -0.3231 -0.2161 -2.6972
 5089TIP3   OH215230   2.461   3.773   2.498  0.2954 -0.4003 -0.6437
 5089TIP3    H115231   2.494   3.801   2.583 -0.4427  0.0556 -0.4973
 5089TIP3    H215232   2.400   3.842   2.472 -1.3619 -1.7239 -0.4191
 5090TIP3   OH215233   2.680   6.338   4.469  0.5386  0.1383  0.1275
 5090TIP3    H115234   2.623   6.350   4.546  0.5584 -1.7442  0.4686
 5090TIP3    H215235   2.633   6.382   4.398 -0.5120  0.1002  0.7702
 5091TIP3   OH215236   1.222   1.163   4.337 -0.3125 -0.1052 -0.4639
 5091TIP3    H115237   1.256   1.239   4.385  0.8966 -1.3457  0.7497
 5091TIP3    H215238   1.136   1.147   4.374  0.6868 -1.1717  1.5809
 5092TIP3   OH215239   2.849   3.585   1.749 -0.3431 -0.4517  0.0204
 5092TIP3    H115240   2.870   3.611   1.839 -0.4382  0.3350 -0.1777
 5092TIP3    H215241   2.935   3.578   1.706 -0.3612  0.9077 -0.2848
 5093TIP3   OH215242   4.095   1.108   3.351  0.0858 -0.4796 -0.4255
 5093TIP3    H115243   4.131   1.078   3.268  0.4068 -1.2568 -0.0118
 5093TIP3    H215244   4.143   1.059   3.417 -0.4101 -0.1217  0.2067
 5094TIP3   OH215245   3.906   4.566   0.858  0.5110 -0.4791 -0.1554
 5094TIP3    H115246   3.896   4.509   0.935  0.7085 -0.3615 -0.0396
 5094TIP3    H215247   3.925   4.653   0.895 -2.9424  0.4260 -0.2110
 5095TIP3   OH215248   0.373   5.972   5.512 -1.0174  0.4856  0.3673
 5095TIP3    H115249   0.428   5.991   5.588 -1.8635  2.7218  0.4888
 5095TIP3    H215250   0.288   5.946   5.550 -1.4714  1.7010  0.2170
 5096TIP3   OH215251   5.356   2.546   0.201  0.1277 -0.5009 -0.1754
 5096TIP3    H115252   5.420   2.482   0.171  0.4432  0.7629 -2.4203
 5096TIP3    H215253   5.370   2.623   0.146 -0.0864  1.6601  2.5317
 5097TIP3   OH215254   4.723   1.331   5.644 -0.3919  0.5306 -0.0084
 5097TIP3    H115255   4.770   1.396   5.592  2.0485 -0.1597  1.1856
 5097TIP3    H215256   4.677   1.383   5.710  0.4642  1.1442  0.1288
 5098TIP3   OH215257   4.839   3.594   0.070 -0.1280 -0.0414 -0.0049
 5098TIP3    H115258   4.828   3.547   0.152  1.2932  0.0321  0.2597
 5098TIP3    H215259   4.833   3.525   0.003 -2.2892  0.0428  0.0558
 5099TIP3   OH215260   2.723   3.619   0.563 -0.1299  0.0316  0.3120
 5099TIP3    H115261   2.806   3.612   0.516 -0.1007 -1.4442  0.5217
 5099TIP3    H215262   2.728   3.550   0.630 -2.4602 -1.7962 -1.2221
 5100TIP3   OH215263   2.774   6.189   3.393  0.0884  0.4606 -0.4575
 5100TIP3    H115264   2.746   6.131   3.464 -0.8483  1.0972 -0.2859
 5100TIP3    H215265   2.845   6.142   3.351  0.9966  0.2778  1.1973
 5101TIP3   OH215266   1.052   2.007   0.197 -0.8858  0.0003 -0.7524
 5101TIP3    H115267   0.985   1.939   0.201 -0.4456 -0.4989 -1.6303
 5101TIP3    H215268   1.118   1.972   0.138  0.2408  0.4120  0.2272
 5102TIP3   OH215269   3.537   1.802   5.819  0.2713  0.4622 -0.3521
 5102TIP3    H115270   3.631   1.793   5.832  0.4820 -0.6129 -2.2843
 5102TIP3    H215271   3.525   1.803   5.724 -1.7520 -0.4715 -0.1608
 5103TIP3   OH215272   7.197   1.684   2.825 -0.3753 -0.1964 -0.2366
 5103TIP3    H115273   7.123   1.745   2.814 -0.5762  0.1761  2.5252
 5103TIP3    H215274   7.156   1.598   2.829 -0.2666 -0.3874 -2.2163
 5104TIP3   OH215275   0.765   3.844   4.030 -0.2964  1.1382  0.2376
 5104TIP3    H115276   0.712   3.917   3.999 -0.6290  0.2708 -1.3593
 5104TIP3    H215277   0.847   3.852   3.982 -0.8504 -0.2762 -1.0459
 5105TIP3   OH215278   4.236   6.360   2.141  0.5900 -0.0969  0.7238
 5105TIP3    H115279   4.211   6.452   2.139  1.0236  0.1188  2.8021
 5105TIP3    H215280   4.313   6.354   2.084 -0.5653  0.4056 -0.9456
 5106TIP3   OH215281   4.615   4.011   0.494 -0.3522  0.0601  0.1826
 5106TIP3    H115282   4.606   3.916   0.503  0.7271  0.0245  1.0064
 5106TIP3    H215283   4.575   4.047   0.573  0.3753  0.2241  0.4814
 5107TIP3   OH215284   6.575   1.090   0.338  0.2230  0.1384 -0.6358
 5107TIP3    H115285   6.507   1.101   0.272 -0.9624  1.0920  0.6814
 5107TIP3    H215286   6.591   0.996   0.340 -1.8473 -0.2645 -0.2604
 5108TIP3   OH215287   2.603   6.132   2.761 -0.2016  0.1871  0.1854
 5108TIP3    H115288   2.573   6.137   2.670  1.0072  2.0785 -0.1917
 5108TIP3    H215289   2.577   6.216   2.799 -1.6334 -0.9770  1.9608
 5109TIP3   OH215290   4.009   5.400   0.838 -0.0754 -0.5905  0.5460
 5109TIP3    H115291   3.949   5.474   0.830 -3.9203 -3.4035  0.4921
 5109TIP3    H215292   4.006   5.357   0.753  3.6401  0.0819 -0.0773
 5110TIP3   OH215293   4.457   2.037   4.334 -0.1789  0.5816  0.4600
 5110TIP3    H115294   4.530   2.075   4.286  0.0767  0.9566  1.1350
 5110TIP3    H215295   4.389   2.105   4.331  0.4885  1.3907  2.1806
 5111TIP3   OH215296   0.057   4.198   1.795 -0.1704 -0.5311 -0.3561
 5111TIP3    H115297   0.009   4.273   1.830 -1.4722 -2.1161  1.5092
 5111TIP3    H215298   0.143   4.204   1.837 -0.9301 -1.1000  1.3992
 5112TIP3   OH215299   4.558   2.767   5.147  0.3165  0.2278  0.5965
 5112TIP3    H115300   4.482   2.711   5.132  0.6070 -0.2198  0.7665
 5112TIP3    H215301   4.618   2.748   5.074  0.3296  0.4707  0.5414
 5113TIP3   OH215302   1.771   0.175   3.154 -0.0132 -0.3463 -0.9138
 5113TIP3    H115303   1.703   0.173   3.221  0.4119 -1.1792 -0.5077
 5113TIP3    H215304   1.731   0.225   3.082 -0.4813  0.5166 -0.0769
 5114TIP3   OH215305   4.738   2.398   2.784 -0.0758  0.3727  0.5563
 5114TIP3    H115306   4.715   2.305   2.779 -1.9464  0.7711  0.8651
 5114TIP3    H215307   4.798   2.404   2.858 -0.1444 -0.5626  0.6991
 5115TIP3   OH215308   0.480   5.944   3.488 -0.3813  0.7990  0.1261
 5115TIP3    H115309   0.451   5.918   3.575  0.0560 -0.8248 -0.1735
 5115TIP3    H215310   0.528   6.025   3.502 -0.3135  0.5606  1.3987
 5116TIP3   OH215311   5.345   1.875   4.123 -0.0812  0.5396 -0.5691
 5116TIP3    H115312   5.434   1.856   4.151  0.0516  1.5160 -0.2621
 5116TIP3    H215313   5.289   1.829   4.185  0.1974 -0.7074 -1.2247
 5117TIP3   OH215314   4.019   2.770   4.071  0.3767  0.4025 -0.3343
 5117TIP3    H115315   3.977   2.691   4.105  0.9219 -0.0932 -0.8084
 5117TIP3    H215316   4.057   2.812   4.148 -0.0576  0.2980 -0.0579
 5118TIP3   OH215317   4.024   1.405   3.892 -0.1187  0.6024  0.1445
 5118TIP3    H115318   4.042   1.391   3.799 -0.1045  2.1923 -0.1093
 5118TIP3    H215319   4.097   1.458   3.923  0.6906 -1.1579  1.4594
 5119TIP3   OH215320   6.486   0.724   5.485 -0.0322  0.2558 -0.0003
 5119TIP3    H115321   6.413   0.774   5.449  0.6212  0.0378 -1.7575
 5119TIP3    H215322   6.563   0.778   5.467  0.2576  0.5803  1.9979
 5120TIP3   OH215323   0.092   3.230   4.548 -0.1627 -0.0598 -0.3908
 5120TIP3    H115324   0.127   3.310   4.508 -1.1227  0.0371 -1.0951
 5120TIP3    H215325   0.164   3.195   4.600  0.2130  1.3740  0.0990
 5121TIP3   OH215326   5.114   2.723   2.399 -0.3349 -0.1700 -0.1655
 5121TIP3    H115327   5.097   2.817   2.397 -2.0286 -0.3583  2.0632
 5121TIP3    H215328   5.190   2.714   2.457  1.2732 -0.0818 -2.1510
 5122TIP3   OH215329   3.634   1.692   5.160  0.0897 -0.6966  0.2893
 5122TIP3    H115330   3.678   1.750   5.221  0.1197 -0.4712  0.0540
 5122TIP3    H215331   3.609   1.616   5.212 -0.8154 -0.0511  0.8162
 5123TIP3   OH215332   0.672   0.479   5.250 -0.1526 -0.1553  0.1874
 5123TIP3    H115333   0.599   0.536   5.223 -0.7402 -0.2128  1.5814
 5123TIP3    H215334   0.656   0.397   5.204 -0.2071  0.2579 -0.5588
 5124TIP3   OH215335   0.311   5.482   3.542  0.3364 -0.2978 -0.2449
 5124TIP3    H115336   0.226   5.523   3.557 -0.1059 -1.7196  1.3467
 5124TIP3    H215337   0.307   5.453   3.451 -0.9968 -0.5696 -0.1265
 5125TIP3   OH215338   5.239   6.767   2.909  0.6043 -0.1027 -0.5318
 5125TIP3    H115339   5.262   6.858   2.925  0.5693 -0.0426 -0.8234
 5125TIP3    H215340   5.240   6.727   2.996 -0.9666  0.5375 -0.1870
 5126TIP3   OH215341   6.875   2.767   0.082  0.0140  0.8794 -0.0267
 5126TIP3    H115342   6.871   2.671   0.090  1.9613  0.7630  0.0468
 5126TIP3    H215343   6.792   2.791   0.040  0.4073 -1.0837 -2.1270
 5127TIP3   OH215344   3.344   2.293   3.301 -0.4698 -0.5254 -0.5618
 5127TIP3    H115345   3.317   2.332   3.384  2.6169  2.0250 -0.5884
 5127TIP3    H215346   3.384   2.209   3.327  0.2499  0.1275  0.5391
 5128TIP3   OH215347   2.284   1.740   1.144  0.2083  0.0894 -0.0534
 5128TIP3    H115348   2.375   1.765   1.128  0.0269  1.2350  0.5602
 5128TIP3    H215349   2.250   1.810   1.199 -1.1305 -0.1618 -0.5257
 5129TIP3   OH215350   4.319   5.410   4.261 -0.4163 -0.0348 -0.0292
 5129TIP3    H115351   4.278   5.328   4.287 -0.0159 -0.7386 -1.5330
 5129TIP3    H215352   4.252   5.455   4.209 -1.3600  1.5517  2.3372
 5130TIP3   OH215353   6.512   5.913   0.440  0.2997 -0.6950 -0.6378
 5130TIP3    H115354   6.453   5.902   0.515 -0.0554 -1.8180 -1.0746
 5130TIP3    H215355   6.494   6.002   0.409  0.3370 -0.2679  0.4972
 5131TIP3   OH215356   4.319   0.032   0.925 -0.1607  0.3371 -0.2481
 5131TIP3    H115357   4.287  -0.059   0.930  1.6944 -0.2857  1.6847
 5131TIP3    H215358   4.253   0.082   0.974  0.9169 -0.7156  2.4959
 5132TIP3   OH215359   0.842   4.277   1.379 -0.0313 -0.2500  0.3099
 5132TIP3    H115360   0.749   4.278   1.403 -0.4604  2.6131 -0.9791
 5132TIP3    H215361   0.842   4.275   1.283  1.1242  1.4120  0.2222
 5133TIP3   OH215362   6.142   0.339   0.192  0.0655  0.3288  0.3965
 5133TIP3    H115363   6.233   0.321   0.215  0.3924 -0.3350 -1.2457
 5133TIP3    H215364   6.090   0.288   0.254  0.8439 -0.1789  0.6434
 5134TIP3   OH215365   0.512   5.212   1.230  0.2250 -0.0693 -0.1529
 5134TIP3    H115366   0.443   5.159   1.192 -0.0017 -0.6576  1.0261
 5134TIP3    H215367   0.586   5.152   1.238 -0.0585 -0.2594  1.2650
 5135TIP3   OH215368   0.526   2.561   4.921 -0.0820  0.0404 -0.3066
 5135TIP3    H115369   0.608   2.568   4.871  0.8959 -1.4056  0.9883
 5135TIP3    H215370   0.521   2.643   4.971  1.8171 -0.7223  1.2923
 5136TIP3   OH215371   6.413   5.941   1.148  0.1717 -0.0015 -0.0863
 5136TIP3    H115372   6.508   5.937   1.157  0.1425  1.5311  1.4473
 5136TIP3    H215373   6.383   5.856   1.180  0.9966 -0.2950 -0.0535
 5137TIP3   OH215374   2.330   2.318   4.928  0.4483  1.3901 -0.0848
 5137TIP3    H115375   2.309   2.227   4.945  0.7356  1.8953  3.9886
 5137TIP3    H215376   2.249   2.355   4.893 -0.1525 -0.0722 -0.2996
 5138TIP3   OH215377   5.207   6.681   1.435  0.3113  0.3625 -0.3697
 5138TIP3    H115378   5.253   6.660   1.517 -0.9788 -0.6527  0.1277
 5138TIP3    H215379   5.204   6.598   1.388 -0.6404  0.5089 -0.5743
 5139TIP3   OH215380   3.438   1.128   2.553 -0.2584 -0.0099 -0.4391
 5139TIP3    H115381   3.528   1.094   2.551  0.3429  1.4833 -0.2903
 5139TIP3    H215382   3.443   1.210   2.504 -1.5403  0.1099 -0.3921
 5140TIP3   OH215383   2.270   4.976   2.668 -0.6570  0.3422 -0.7273
 5140TIP3    H115384   2.365   4.969   2.679 -0.6302  0.0869 -1.0838
 5140TIP3    H215385   2.234   4.931   2.745 -0.4961  0.9821 -0.2731
 5141TIP3   OH215386   2.667   5.262   1.634  0.1469 -0.1803  0.7631
 5141TIP3    H115387   2.665   5.197   1.564  0.0868  0.6484 -0.0185
 5141TIP3    H215388   2.609   5.226   1.701  0.3120 -1.0488  0.4521
 5142TIP3   OH215389   0.370   6.194   2.447  0.0865  0.3134 -0.1238
 5142TIP3    H115390   0.284   6.154   2.442  0.6991 -0.9889 -0.6860
 5142TIP3    H215391   0.431   6.121   2.453  1.2288  1.1564 -0.9110
 5143TIP3   OH215392   3.614   4.673   5.556  0.1704 -0.3062 -0.5490
 5143TIP3    H115393   3.522   4.699   5.566  0.7885  1.1087  3.1221
 5143TIP3    H215394   3.661   4.756   5.555  1.5679 -1.0249  1.1234
 5144TIP3   OH215395   5.036   3.005   2.430 -0.2226  0.4387  0.4066
 5144TIP3    H115396   5.053   3.072   2.364  0.2415  0.7304  0.8120
 5144TIP3    H215397   4.941   3.009   2.443 -0.3797  0.0739 -0.5456
 5145TIP3   OH215398   6.443   6.235   1.804 -0.0647  0.2939  0.3177
 5145TIP3    H115399   6.513   6.189   1.851 -0.2166  0.9169  1.1704
 5145TIP3    H215400   6.442   6.194   1.717  0.1997 -0.8955  0.8604
 5146TIP3   OH215401   4.440   1.918   0.768 -0.5428 -0.2850 -0.1724
 5146TIP3    H115402   4.421   1.956   0.854  0.3812  1.5006 -0.7326
 5146TIP3    H215403   4.355   1.915   0.724 -0.7887  0.1488  0.2679
 5147TIP3   OH215404   3.528   2.441   4.818  0.1010  0.1533  0.1969
 5147TIP3    H115405   3.581   2.521   4.823  0.6868 -0.2600  0.9063
 5147TIP3    H215406   3.570   2.388   4.751  0.0498  0.1984  0.1288
 5148TIP3   OH215407   3.523   6.168   1.448  0.6435 -0.2660 -0.4063
 5148TIP3    H115408   3.529   6.218   1.530  3.4616  1.9087 -1.7323
 5148TIP3    H215409   3.448   6.206   1.403  0.7557  0.5031  0.0228
 5149TIP3   OH215410   6.859   1.100   0.319 -0.0736  0.5003  0.5368
 5149TIP3    H115411   6.779   1.060   0.352  0.1265  0.0183  0.4501
 5149TIP3    H215412   6.879   1.050   0.239 -0.0680  1.0688  0.1743
 5150TIP3   OH215413   5.835   2.995   5.704  0.0802  0.1317 -0.3466
 5150TIP3    H115414   5.744   3.024   5.713 -0.0535  0.1070 -1.4627
 5150TIP3    H215415   5.847   2.930   5.773 -0.7880  0.0461 -0.2711
 5151TIP3   OH215416   4.364   3.999   2.152 -0.1189  0.6162  0.1311
 5151TIP3    H115417   4.307   3.956   2.089 -3.8010  1.7046  2.3942
 5151TIP3    H215418   4.367   4.090   2.125 -0.6697  0.8448  0.8278
 5152TIP3   OH215419   4.338   6.463   2.381  0.1135  0.3022 -0.3217
 5152TIP3    H115420   4.308   6.395   2.321 -2.2257 -0.3971  1.4810
 5152TIP3    H215421   4.313   6.545   2.339 -0.2080 -0.1064 -0.9399
 5153TIP3   OH215422   0.721   4.803   2.611  0.1641  0.0345  0.0538
 5153TIP3    H115423   0.769   4.814   2.693  1.1411 -0.7167 -0.3801
 5153TIP3    H215424   0.698   4.891   2.584  0.7561  0.3694  0.6114
 5154TIP3   OH215425   6.892   5.194   1.155  0.3505  0.0290  0.4149
 5154TIP3    H115426   6.844   5.179   1.073 -0.9888 -1.5149  1.3988
 5154TIP3    H215427   6.952   5.265   1.135 -0.5293  0.2774 -1.6607
 5155TIP3   OH215428   2.158   6.006   3.772 -0.3799 -0.1269 -0.7242
 5155TIP3    H115429   2.246   6.042   3.786 -1.9501  3.2016  1.7223
 5155TIP3    H215430   2.152   5.995   3.677  1.5135  2.9141 -1.3360
 5156TIP3   OH215431   0.012   2.168   4.124 -0.1313  0.2125 -0.0234
 5156TIP3    H115432   0.080   2.231   4.102 -0.6314  0.1721 -1.9344
 5156TIP3    H215433   0.013   2.106   4.050 -1.3130 -0.5718  0.5904
 5157TIP3   OH215434   3.173   1.832   4.016  0.1806 -0.1820 -0.1680
 5157TIP3    H115435   3.081   1.807   4.024  0.1299 -0.1633 -0.6526
 5157TIP3    H215436   3.188   1.892   4.090 -0.5874  0.9558 -0.8926
 5158TIP3   OH215437   3.323   2.256   5.141 -0.3238 -0.4047 -0.2800
 5158TIP3    H115438   3.317   2.329   5.080  1.0612 -0.3991 -0.4495
 5158TIP3    H215439   3.294   2.180   5.091 -0.0837 -0.2489 -0.6549
 5159TIP3   OH215440   4.638   5.641   1.855  0.0224 -0.0117  0.4604
 5159TIP3    H115441   4.674   5.640   1.766 -1.5346 -0.8644 -0.1932
 5159TIP3    H215442   4.548   5.609   1.846 -0.6523  1.2428  2.1487
 5160TIP3   OH215443   1.484   2.833   0.431  0.5352 -0.2107  0.2064
 5160TIP3    H115444   1.403   2.789   0.455 -0.5003  0.7136 -1.3992
 5160TIP3    H215445   1.546   2.763   0.413 -0.6030 -0.9971 -0.7770
 5161TIP3   OH215446   1.792   1.883   3.143 -0.1522  0.0239  0.4357
 5161TIP3    H115447   1.873   1.933   3.152 -0.3375  0.3563  0.3044
 5161TIP3    H215448   1.812   1.797   3.178  0.7391 -0.4093 -1.0638
 5162TIP3   OH215449   7.073   4.250   0.096 -0.0155 -0.3175 -0.0449
 5162TIP3    H115450   7.136   4.277   0.163 -1.7305 -1.3316  2.1027
 5162TIP3    H215451   7.017   4.326   0.083 -0.4161 -0.5003  0.5900
 5163TIP3   OH215452   4.113   3.052   1.780  0.1913 -0.4082  0.5282
 5163TIP3    H115453   4.106   3.144   1.758 -1.1799 -0.4536  0.6538
 5163TIP3    H215454   4.063   3.007   1.712  1.0142 -1.0798  0.3540
 5164TIP3   OH215455   1.787   4.955   1.525 -0.0403 -0.2947 -0.3947
 5164TIP3    H115456   1.782   5.011   1.603 -3.1783 -0.2154 -0.5287
 5164TIP3    H215457   1.803   5.015   1.453  1.4615 -0.2113 -0.0350
 5165TIP3   OH215458   4.995   6.517   5.219 -0.0415  0.8318 -0.0399
 5165TIP3    H115459   4.981   6.424   5.203 -1.0627  0.9091  0.3139
 5165TIP3    H215460   5.008   6.523   5.314 -0.8971  1.1304  0.0761
 5166TIP3   OH215461   4.095   3.751   3.341 -0.2582  0.4471  0.0467
 5166TIP3    H115462   4.034   3.802   3.286  0.6536  0.2805 -1.1656
 5166TIP3    H215463   4.154   3.709   3.278 -0.4239 -1.4045  1.0716
 5167TIP3   OH215464   1.057   3.734   5.830 -0.1967  0.0551  0.2522
 5167TIP3    H115465   1.027   3.808   5.883 -0.9747 -0.7917  1.0373
 5167TIP3    H215466   1.002   3.736   5.752 -2.4402 -1.4826  1.6749
 5168TIP3   OH215467   1.803   2.013   5.223  0.3768 -0.0632 -0.6607
 5168TIP3    H115468   1.879   2.029   5.279  0.1163  0.7256 -0.5249
 5168TIP3    H215469   1.767   2.100   5.206 -0.0983 -0.3737 -1.2862
 5169TIP3   OH215470   5.951   2.304   2.163  0.0625  0.1892 -0.4498
 5169TIP3    H115471   5.926   2.377   2.220 -0.3595  0.6940 -1.2765
 5169TIP3    H215472   6.044   2.318   2.146  0.7271 -1.0770  1.7219
 5170TIP3   OH215473   3.027   2.144   1.315  0.2259  0.7257 -0.2692
 5170TIP3    H115474   3.106   2.110   1.357 -0.1088 -0.8826 -0.8564
 5170TIP3    H215475   3.041   2.239   1.308  0.9913  0.8111  1.9223
 5171TIP3   OH215476   0.549   4.978   0.311 -0.4488 -0.0153 -0.3908
 5171TIP3    H115477   0.610   5.051   0.324  0.9939 -0.6912 -2.7314
 5171TIP3    H215478   0.603   4.900   0.326 -0.5808 -0.6353 -2.7865
 5172TIP3   OH215479   4.681   3.766   4.025  0.0902 -0.1798  0.5342
 5172TIP3    H115480   4.777   3.767   4.021  0.0653  0.2270 -0.2224
 5172TIP3    H215481   4.657   3.675   4.010  0.3186 -0.0275 -0.9519
 5173TIP3   OH215482   5.664   3.006   4.091  0.1017  0.0629  0.7278
 5173TIP3    H115483   5.576   3.013   4.053 -0.1433  1.4451  1.4707
 5173TIP3    H215484   5.663   3.067   4.165  2.0023  0.8846  0.1512
 5174TIP3   OH215485   2.842   0.599   2.717  0.0165  0.6196  0.4941
 5174TIP3    H115486   2.923   0.602   2.769 -0.8702 -0.9185  2.0853
 5174TIP3    H215487   2.772   0.600   2.782 -1.2160  0.3798 -0.7831
 5175TIP3   OH215488   5.527   0.504   4.097  0.0956 -0.4986  0.4106
 5175TIP3    H115489   5.445   0.548   4.073 -0.3506 -0.4304  1.9199
 5175TIP3    H215490   5.574   0.494   4.015 -0.3536  1.6402 -0.1727
 5176TIP3   OH215491   5.230   3.430   3.593 -0.1688 -0.2432 -0.7868
 5176TIP3    H115492   5.301   3.366   3.592  1.4687  1.4381  0.5400
 5176TIP3    H215493   5.150   3.378   3.593  1.0614 -2.4298  2.4368
 5177TIP3   OH215494   5.714   2.071   5.782 -0.5271 -0.4223  0.3566
 5177TIP3    H115495   5.706   2.006   5.712 -0.9976 -0.0884  0.0946
 5177TIP3    H215496   5.627   2.111   5.787  0.0467  0.9469 -0.2276
 5178TIP3   OH215497   2.342   4.016   2.423 -0.2036  0.6347 -1.1044
 5178TIP3    H115498   2.401   4.091   2.411 -1.2788  1.4178 -1.5728
 5178TIP3    H215499   2.255   4.055   2.428 -0.6159 -0.3972  0.7014
 5179TIP3   OH215500   3.219   0.040   1.044 -0.4256 -0.1764  0.9093
 5179TIP3    H115501   3.219   0.132   1.018 -2.2232 -0.4079 -0.0823
 5179TIP3    H215502   3.297   0.030   1.099  0.8966  1.4397 -0.5940
 5180TIP3   OH215503   0.502   2.655   1.694 -0.4551  0.1374  0.0351
 5180TIP3    H115504   0.571   2.610   1.743 -0.5499  1.4858  1.4684
 5180TIP3    H215505   0.420   2.617   1.727 -0.4911  0.4895  0.3542
 5181TIP3   OH215506   1.741   0.296   3.573 -0.3059  0.0950 -0.3720
 5181TIP3    H115507   1.734   0.267   3.664 -0.4908 -2.7601 -1.1860
 5181TIP3    H215508   1.815   0.246   3.539  0.2654  1.7288 -1.6120
 5182TIP3   OH215509   6.826   5.929   5.448 -0.3494 -0.0863  0.1103
 5182TIP3    H115510   6.844   5.857   5.508  2.0148  0.0760 -0.3335
 5182TIP3    H215511   6.821   5.888   5.361 -1.3297  0.0113  0.1033
 5183TIP3   OH215512   6.705   3.180   2.191 -0.3775 -0.3581  0.2605
 5183TIP3    H115513   6.611   3.197   2.188 -0.5571 -1.4044 -0.7760
 5183TIP3    H215514   6.713   3.092   2.228  0.1974 -0.2944  0.3087
 5184TIP3   OH215515   0.283   6.594   3.206 -0.0241 -0.5490 -0.3899
 5184TIP3    H115516   0.293   6.512   3.255 -0.2805 -0.0134  0.6038
 5184TIP3    H215517   0.238   6.653   3.268 -1.0572 -0.0841 -1.5433
 5185TIP3   OH215518   2.256   6.073   5.462 -0.0152  0.0951  0.3714
 5185TIP3    H115519   2.207   5.994   5.440 -1.1116  0.0219  2.7222
 5185TIP3    H215520   2.342   6.059   5.423 -1.2107 -0.6697 -2.1626
 5186TIP3   OH215521   2.806   4.773   1.384 -0.3051  0.2689  0.1600
 5186TIP3    H115522   2.902   4.772   1.381 -0.3142 -0.1493 -0.1883
 5186TIP3    H215523   2.780   4.765   1.292 -0.6735  1.2535  0.1720
 5187TIP3   OH215524   3.856   3.356   3.061  0.1835 -0.5284  0.2796
 5187TIP3    H115525   3.928   3.414   3.084  1.3807 -2.2439  1.0271
 5187TIP3    H215526   3.897   3.273   3.039 -1.4434 -1.0107 -1.1867
 5188TIP3   OH215527   4.794   5.250   0.779  0.2965 -0.3319  0.1189
 5188TIP3    H115528   4.880   5.224   0.745 -0.0100 -0.3180 -0.6590
 5188TIP3    H215529   4.809   5.260   0.873  0.7176 -2.1697  0.2950
 5189TIP3   OH215530   0.078   4.634   0.552 -0.4897 -0.6865  0.6988
 5189TIP3    H115531   0.020   4.591   0.488 -0.5813 -1.3232  1.2029
 5189TIP3    H215532   0.160   4.645   0.505 -0.9101 -0.0855  0.0846
 5190TIP3   OH215533   5.016   1.036   0.460 -0.8146  0.2683  0.6260
 5190TIP3    H115534   4.922   1.047   0.477 -0.7054  2.4621  0.1303
 5190TIP3    H215535   5.058   1.106   0.509  0.2927  0.9433 -1.1613
 5191TIP3   OH215536   1.292   4.009   5.698  0.1404  0.2833  0.5518
 5191TIP3    H115537   1.273   3.996   5.791 -1.6594 -1.4987  0.0022
 5191TIP3    H215538   1.211   3.985   5.653  0.4753  2.4736 -1.4473
 5192TIP3   OH215539   1.798   2.387   4.517 -0.3260  0.0388 -0.2074
 5192TIP3    H115540   1.865   2.369   4.582 -0.3611  0.9457  0.0944
 5192TIP3    H215541   1.846   2.394   4.434 -0.1212  0.0832 -0.0857
 5193TIP3   OH215542   3.296   1.417   5.818  0.0957  0.0497 -0.0061
 5193TIP3    H115543   3.357   1.463   5.875  3.1753  2.2928 -4.4847
 5193TIP3    H215544   3.336   1.330   5.807  0.1136  0.0097  0.3560
 5194TIP3   OH215545   5.015   0.587   5.372  0.4478 -0.0507 -0.5003
 5194TIP3    H115546   5.085   0.650   5.352 -1.3062  1.7861 -1.1072
 5194TIP3    H215547   4.953   0.637   5.425 -1.0075 -1.2789 -0.9961
 5195TIP3   OH215548   4.559   6.039   2.380 -0.9011 -0.1359  0.2250
 5195TIP3    H115549   4.524   5.982   2.448 -1.5102  1.3168  1.1517
 5195TIP3    H215550   4.482   6.075   2.336 -0.5394  0.4331  0.0438
 5196TIP3   OH215551   4.180   0.734   5.808  0.1580 -0.4306 -0.0672
 5196TIP3    H115552   4.094   0.743   5.849 -1.2631  0.0839 -2.9315
 5196TIP3    H215553   4.207   0.645   5.829 -0.1364 -0.0218  2.4171
 5197TIP3   OH215554   0.453   5.500   0.013 -0.2405  0.2988  0.6088
 5197TIP3    H115555   0.535   5.549   0.005  0.4698 -0.8441  0.7794
 5197TIP3    H215556   0.462   5.451   0.094 -0.7373 -0.4678  0.2109
 5198TIP3   OH215557   1.850   4.562   4.699 -0.4451  0.1376  0.1551
 5198TIP3    H115558   1.937   4.591   4.672 -0.8334  2.5432  1.2950
 5198TIP3    H215559   1.861   4.533   4.789 -0.6922 -0.4081  0.0203
 5199TIP3   OH215560   2.339   5.365   5.220 -0.3180  0.2444  0.1330
 5199TIP3    H115561   2.401   5.314   5.273  0.2195  0.6475 -0.1022
 5199TIP3    H215562   2.393   5.427   5.172 -0.8971  0.5326 -0.1626
 5200TIP3   OH215563   6.427   6.438   2.895 -0.0984  0.2427 -0.0665
 5200TIP3    H115564   6.504   6.419   2.841  0.0941 -1.4153  0.7280
 5200TIP3    H215565   6.353   6.417   2.838  0.0071  1.7723 -0.8096
 5201TIP3   OH215566   0.740   3.495   0.105  0.3083  0.1132 -0.6329
 5201TIP3    H115567   0.825   3.540   0.112  0.0211  0.6067 -0.2064
 5201TIP3    H215568   0.719   3.469   0.194  0.5933 -1.1254 -0.9140
 5202TIP3   OH215569   5.846   5.382   0.391  0.6147  0.3519 -0.0639
 5202TIP3    H115570   5.812   5.350   0.475  1.1592  0.1918  0.1018
 5202TIP3    H215571   5.847   5.305   0.335  4.2079 -0.5859  1.0564
 5203TIP3   OH215572   1.076   2.588   4.586  0.0301 -0.0861 -0.3438
 5203TIP3    H115573   1.016   2.660   4.566 -1.4445 -0.4277  2.3487
 5203TIP3    H215574   1.070   2.529   4.511 -3.1362 -0.1446 -0.1704
 5204TIP3   OH215575   4.138   0.041   3.187 -0.5684 -0.0901 -0.2045
 5204TIP3    H115576   4.085  -0.039   3.183 -0.4133 -0.1942 -0.2114
 5204TIP3    H215577   4.128   0.072   3.277 -0.3719 -0.2975 -0.1088
 5205TIP3   OH215578   0.521   5.637   4.226 -0.3664 -0.2620  0.2409
 5205TIP3    H115579   0.598   5.685   4.197  0.7056 -1.0348  1.6421
 5205TIP3    H215580   0.548   5.596   4.308 -1.1718 -3.2997 -0.8776
 5206TIP3   OH215581   0.622   0.024   1.069 -0.2321  0.1618  0.9625
 5206TIP3    H115582   0.672  -0.037   1.123  0.0464 -0.3228  0.1755
 5206TIP3    H215583   0.683   0.051   1.000 -0.7349  0.3920  0.6018
 5207TIP3   OH215584   2.301   4.052   0.323  0.3261  0.4153  0.3769
 5207TIP3    H115585   2.350   4.065   0.405  2.2573 -1.6021 -0.3519
 5207TIP3    H215586   2.310   4.135   0.277  1.7955  0.6237  0.9654
 5208TIP3   OH215587   1.321   3.677   4.748 -0.7555 -0.4782  0.0983
 5208TIP3    H115588   1.263   3.636   4.683  1.3295 -1.5983 -1.1562
 5208TIP3    H215589   1.374   3.605   4.782  0.9141  0.6808  0.0868
 5209TIP3   OH215590   4.253   6.368   5.144 -0.1555 -0.4371  0.2824
 5209TIP3    H115591   4.269   6.456   5.177 -1.9573  0.6135 -1.4459
 5209TIP3    H215592   4.326   6.351   5.084  0.2005 -0.1474  0.6289
 5210TIP3   OH215593   0.767   3.736   3.356  0.5049 -0.0342 -0.2579
 5210TIP3    H115594   0.815   3.801   3.305  0.4165 -0.8133 -1.3547
 5210TIP3    H215595   0.721   3.788   3.422 -2.3587  1.5313 -3.1748
 5211TIP3   OH215596   3.270   5.159   0.039  0.3687  0.5094 -0.4224
 5211TIP3    H115597   3.306   5.218   0.105  3.9993 -0.9940 -0.8166
 5211TIP3    H215598   3.206   5.106   0.087  1.6889  0.5383  1.4770
 5212TIP3   OH215599   2.993   6.620   0.470  0.2925 -0.4547  0.0899
 5212TIP3    H115600   3.064   6.672   0.510 -0.5665  0.6278  0.2468
 5212TIP3    H215601   2.923   6.683   0.455 -1.2312 -1.7812  1.3382
 5213TIP3   OH215602   5.536   3.718   0.835 -0.0799 -0.2602  0.5181
 5213TIP3    H115603   5.539   3.703   0.741 -1.5509  0.4436  0.3313
 5213TIP3    H215604   5.561   3.810   0.846  0.4542 -0.4403  0.8578
 5214TIP3   OH215605   0.734   3.319   3.694 -0.3469  0.1582 -0.3460
 5214TIP3    H115606   0.698   3.407   3.703 -0.2992  0.0037  1.9176
 5214TIP3    H215607   0.667   3.261   3.728  0.0375 -0.6021 -0.8453
 5215TIP3   OH215608   1.667   5.219   1.519 -0.2058  0.1549 -0.6338
 5215TIP3    H115609   1.752   5.230   1.478  0.4075 -1.6378  0.0511
 5215TIP3    H215610   1.686   5.209   1.612 -1.1743 -0.1216 -0.4518
 5216TIP3   OH215611   3.790   5.180   1.269 -0.1863  0.5606  0.4027
 5216TIP3    H115612   3.719   5.134   1.225 -0.2587 -0.0209  1.1036
 5216TIP3    H215613   3.794   5.140   1.356  1.9005 -0.3907 -0.0628
 5217TIP3   OH215614   4.884   0.166   5.381  0.4186 -0.0917  0.0981
 5217TIP3    H115615   4.944   0.235   5.353  0.9197  0.1064  1.5932
 5217TIP3    H215616   4.799   0.209   5.385  0.0289 -0.4733 -2.4290
 5218TIP3   OH215617   5.026   4.639   4.561  0.6106 -0.1707 -0.5676
 5218TIP3    H115618   5.072   4.661   4.479  1.7914 -1.4745 -0.2959
 5218TIP3    H215619   4.972   4.564   4.538 -1.1093  1.0819 -0.7682
 5219TIP3   OH215620   6.877   5.085   3.844  0.0703  0.2793 -0.4945
 5219TIP3    H115621   6.801   5.039   3.879 -0.9655  0.5093 -2.3449
 5219TIP3    H215622   6.936   5.015   3.815  0.0650  0.1078 -0.0979
 5220TIP3   OH215623   6.268   5.762   2.587 -0.3688  0.2298  0.1040
 5220TIP3    H115624   6.241   5.673   2.563 -0.6388  0.0878  0.8873
 5220TIP3    H215625   6.190   5.815   2.578  0.2271  0.7962 -2.1881
 5221TIP3   OH215626   3.422   4.239   2.590  0.0800 -0.1727 -0.0775
 5221TIP3    H115627   3.380   4.153   2.590  0.0606 -0.1680 -0.7276
 5221TIP3    H215628   3.469   4.242   2.674  1.3614 -1.4547 -0.7029
 5222TIP3   OH215629   0.371   3.380   2.557  0.2610  0.3831  0.0024
 5222TIP3    H115630   0.336   3.362   2.470 -0.5305 -0.1293  0.4112
 5222TIP3    H215631   0.463   3.356   2.551  1.3736  4.4034 -1.8952
 5223TIP3   OH215632   5.761   0.983   0.056 -0.1281  0.0908 -0.1345
 5223TIP3    H115633   5.791   0.981   0.147  0.5528 -1.2389 -0.3550
 5223TIP3    H215634   5.685   0.923   0.055  0.0660 -0.1521 -0.4953
 5224TIP3   OH215635   3.743   0.625   4.522  0.0850 -0.3329  0.1562
 5224TIP3    H115636   3.763   0.714   4.493 -1.8208 -0.4834 -1.8583
 5224TIP3    H215637   3.726   0.634   4.616  0.7157  1.2622  0.1483
 5225TIP3   OH215638   5.311   2.125   5.104  0.0740  0.2294  0.0623
 5225TIP3    H115639   5.242   2.151   5.044 -2.5478 -0.9979  2.2951
 5225TIP3    H215640   5.349   2.207   5.135 -0.3149  0.9368 -1.2860
 5226TIP3   OH215641   6.727   5.377   2.694 -0.0161 -0.1168  0.5376
 5226TIP3    H115642   6.739   5.284   2.673  0.0578 -0.1420  0.6919
 5226TIP3    H215643   6.635   5.385   2.718 -0.9806  0.4858 -2.8497
 5227TIP3   OH215644   5.234   6.258   3.321 -0.5015  0.4320 -0.2281
 5227TIP3    H115645   5.232   6.194   3.392 -0.9428  0.8322  0.1278
 5227TIP3    H215646   5.256   6.340   3.364  0.0585  0.5239 -0.6815
 5228TIP3   OH215647   5.064   1.462   3.593  0.2953 -0.0427  0.1760
 5228TIP3    H115648   5.121   1.528   3.633 -1.5889  0.7350  1.7544
 5228TIP3    H215649   5.115   1.428   3.520  1.4968  2.9749 -0.5647
 5229TIP3   OH215650   4.568   3.223   2.639 -0.3404  0.0879  0.2663
 5229TIP3    H115651   4.505   3.222   2.711  0.6065 -1.3444  1.1278
 5229TIP3    H215652   4.564   3.313   2.606 -1.2920  0.6087  1.6589
 5230TIP3   OH215653   5.051   0.530   4.050 -0.0387 -0.4708  0.1547
 5230TIP3    H115654   5.136   0.561   4.017 -1.0885  1.3608 -0.9766
 5230TIP3    H215655   5.055   0.547   4.144  0.5613  0.3618 -0.0015
 5231TIP3   OH215656   3.401   6.648   0.475  0.1543  0.1628 -0.0074
 5231TIP3    H115657   3.479   6.678   0.430 -0.1730  0.8889 -0.1032
 5231TIP3    H215658   3.331   6.707   0.446  0.0759  1.1379  1.9657
 5232TIP3   OH215659   1.968   1.666   3.204  0.6013 -0.1693 -0.1316
 5232TIP3    H115660   2.049   1.710   3.180  1.3605 -0.9509  0.8830
 5232TIP3    H215661   1.959   1.683   3.298 -0.6299  0.2367 -0.3117
 5233TIP3   OH215662   1.552   2.123   2.320 -0.6972 -0.2231 -0.4425
 5233TIP3    H115663   1.515   2.180   2.252  0.0562  1.9873  0.8681
 5233TIP3    H215664   1.490   2.130   2.393  1.0776  1.8655  1.0134
 5234TIP3   OH215665   7.107   1.285   0.675 -0.4956  0.1628 -0.2426
 5234TIP3    H115666   7.023   1.317   0.709 -0.3092  1.4018 -0.8954
 5234TIP3    H215667   7.167   1.359   0.685  0.4599 -0.6257 -0.0166
 5235TIP3   OH215668   0.201   0.668   0.601  0.4758 -0.0650 -0.5574
 5235TIP3    H115669   0.206   0.576   0.626  0.1494 -0.5650 -2.2435
 5235TIP3    H215670   0.114   0.679   0.563  0.3437  1.0633 -0.0021
 5236TIP3   OH215671   5.630   5.974   2.502 -0.5061 -0.7725  0.2641
 5236TIP3    H115672   5.634   5.890   2.548  1.1132 -0.4334  0.7961
 5236TIP3    H215673   5.698   5.968   2.435 -0.1719  0.2253  0.4974
 5237TIP3   OH215674   1.408   6.281   1.309 -0.4176 -0.1754  0.1274
 5237TIP3    H115675   1.427   6.313   1.221 -0.1219  0.5153  0.4382
 5237TIP3    H215676   1.484   6.306   1.361 -0.1981 -1.3545  0.3916
 5238TIP3   OH215677   0.864   3.249   0.925  0.0074 -0.5604  0.2090
 5238TIP3    H115678   0.842   3.199   1.004 -0.1864  0.6400  0.9468
 5238TIP3    H215679   0.950   3.217   0.900  1.4469  1.0397  2.6631
 5239TIP3   OH215680   3.013   6.336   3.265  0.0781  0.2297  0.6065
 5239TIP3    H115681   2.992   6.248   3.238 -0.0995  0.7395 -1.0017
 5239TIP3    H215682   2.933   6.370   3.305  0.4958 -0.7011  2.3323
 5240TIP3   OH215683   0.216   3.306   1.567 -0.2150  0.1121 -0.0094
 5240TIP3    H115684   0.296   3.261   1.538 -0.6236 -0.3805 -0.3777
 5240TIP3    H215685   0.205   3.278   1.658  0.1418  0.3512  0.1140
 5241TIP3   OH215686   1.930   4.398   0.836 -0.5482 -0.1074 -0.0341
 5241TIP3    H115687   1.919   4.468   0.901 -0.6561  1.3535 -1.5587
 5241TIP3    H215688   1.948   4.320   0.888  0.3408  1.1922  1.7174
 5242TIP3   OH215689   4.349   2.428   0.639 -0.1220 -0.2230  0.0579
 5242TIP3    H115690   4.300   2.367   0.694 -0.6816 -0.4292 -0.6584
 5242TIP3    H215691   4.327   2.402   0.549  2.1126 -1.0137 -0.3291
 5243TIP3   OH215692   0.042   4.981   2.326 -0.0289  0.7548  0.4227
 5243TIP3    H115693   0.040   4.887   2.307 -1.3561  0.5498  1.4258
 5243TIP3    H215694   0.106   4.990   2.396  0.6506  0.7274 -0.1736
 5244TIP3   OH215695   3.520   2.965   5.050 -0.1223 -0.5472 -0.4202
 5244TIP3    H115696   3.463   3.020   5.104  2.8245  2.8433 -0.3773
 5244TIP3    H215697   3.571   2.914   5.114  0.0442 -0.1453 -0.2302
 5245TIP3   OH215698   3.851   2.400   2.358 -0.4345  0.0273  0.2497
 5245TIP3    H115699   3.814   2.459   2.424 -1.5164 -0.3492  0.0018
 5245TIP3    H215700   3.778   2.382   2.299  0.7671  1.2088 -1.7055
 5246TIP3   OH215701   5.517   5.008   0.726  0.0029 -0.5198  0.4284
 5246TIP3    H115702   5.514   5.102   0.709  0.9725 -0.4174  0.7483
 5246TIP3    H215703   5.439   4.974   0.683  0.1087  0.3088 -0.4866
 5247TIP3   OH215704   5.703   6.278   0.758 -0.2742  0.0110 -0.0522
 5247TIP3    H115705   5.782   6.316   0.721  0.0768 -1.7908 -1.2490
 5247TIP3    H215706   5.644   6.353   0.770  1.0536  1.1703 -0.5504
 5248TIP3   OH215707   6.906   1.683   1.854 -1.2398  0.8514  0.0808
 5248TIP3    H115708   6.862   1.702   1.771 -0.3852 -0.0211 -0.5888
 5248TIP3    H215709   6.946   1.766   1.879 -1.3301  1.0761 -0.4933
 5249TIP3   OH215710   3.998   5.260   0.257 -0.1019 -0.2854  0.1284
 5249TIP3    H115711   4.033   5.217   0.335  1.0846 -0.9176 -0.7069
 5249TIP3    H215712   3.932   5.199   0.224  0.8023 -1.0040 -0.4373
 5250TIP3   OH215713   2.762   5.534   0.041  0.4586  0.4569  0.1395
 5250TIP3    H115714   2.759   5.463  -0.023  1.3553  0.4772  0.0578
 5250TIP3    H215715   2.826   5.596   0.005  0.0262  1.0855  0.4352
 5251TIP3   OH215716   3.970   5.945   4.993  0.5609 -0.5539  0.4847
 5251TIP3    H115717   3.920   5.863   4.992  0.1517 -0.3305  1.2714
 5251TIP3    H215718   3.969   5.971   5.085  1.3003 -0.0319  0.3503
 5252TIP3   OH215719   6.994   6.268   1.714 -0.0706 -1.1333 -0.1376
 5252TIP3    H115720   7.056   6.269   1.787 -1.2531 -0.3267  0.8986
 5252TIP3    H215721   7.037   6.320   1.646  1.9311 -3.5381 -0.8524
 5253TIP3   OH215722   0.315   0.944   3.837 -0.4813 -0.0193 -0.2153
 5253TIP3    H115723   0.297   1.032   3.802  1.9380  1.0940  1.1030
 5253TIP3    H215724   0.331   0.890   3.759 -0.7597  1.0168 -1.0131
 5254TIP3   OH215725   1.932   0.128   0.355  0.2448  0.0158 -0.9416
 5254TIP3    H115726   1.900   0.160   0.439 -0.2263  1.3249 -1.5889
 5254TIP3    H215727   2.017   0.089   0.374  0.3741  0.7661  0.0516
 5255TIP3   OH215728   3.517   2.676   1.590 -0.3838 -0.2051 -0.0704
 5255TIP3    H115729   3.462   2.692   1.666  1.3748 -0.1778  1.2722
 5255TIP3    H215730   3.593   2.628   1.625  0.0604 -0.9754 -1.9611
 5256TIP3   OH215731   4.771   5.965   5.353 -0.3204 -0.3290  0.0006
 5256TIP3    H115732   4.733   5.977   5.266 -0.3551  3.1877  0.3559
 5256TIP3    H215733   4.855   5.922   5.337 -0.7810 -0.6874 -1.6472
 5257TIP3   OH215734   5.938   4.152   1.686 -0.3162  0.1534  0.5399
 5257TIP3    H115735   5.967   4.106   1.607  2.6511  0.7985  1.1446
 5257TIP3    H215736   5.965   4.095   1.758 -1.4390  0.3868  1.1730
 5258TIP3   OH215737   0.937   4.421   2.024  0.0001 -0.4830 -0.2306
 5258TIP3    H115738   0.878   4.347   2.037 -1.9660  1.1043  0.3290
 5258TIP3    H215739   0.950   4.425   1.929 -0.5574 -1.0198 -0.3329
 5259TIP3   OH215740   6.581   1.726   1.279  0.0522  0.6077  0.2426
 5259TIP3    H115741   6.508   1.693   1.332  0.0798 -1.5098 -0.9120
 5259TIP3    H215742   6.657   1.680   1.314 -0.0668 -1.6177 -2.1279
 5260TIP3   OH215743   5.868   2.340   4.569  0.0884  0.4297 -0.1156
 5260TIP3    H115744   5.920   2.300   4.499  0.6665 -2.3327  1.7326
 5260TIP3    H215745   5.794   2.281   4.581 -0.6079  1.4660  0.8535
 5261TIP3   OH215746   2.392   1.087   3.848  0.1762  0.1744  0.1274
 5261TIP3    H115747   2.451   1.073   3.774  0.8214  0.2626  0.6259
 5261TIP3    H215748   2.440   1.055   3.924 -0.2244  0.6843  0.6038
 5262TIP3   OH215749   4.875   3.475   5.179  0.1523  0.1393 -0.5082
 5262TIP3    H115750   4.787   3.452   5.148 -0.3612  0.8976  0.3377
 5262TIP3    H215751   4.882   3.434   5.265  0.5239  0.3122 -0.4560
 5263TIP3   OH215752   0.413   3.921   5.763 -0.3596 -0.1145  0.1217
 5263TIP3    H115753   0.337   3.955   5.715  1.0883  0.8400 -1.6160
 5263TIP3    H215754   0.455   3.860   5.702  1.7555  1.4199 -0.0711
 5264TIP3   OH215755   6.066   1.560   2.381  0.0350  0.2772  0.3938
 5264TIP3    H115756   6.010   1.569   2.458 -0.2308  1.2809  0.0950
 5264TIP3    H215757   6.036   1.629   2.321  0.5212 -0.2132 -0.4304
 5265TIP3   OH215758   1.505   0.679   5.856 -0.2958 -0.4291 -0.2416
 5265TIP3    H115759   1.430   0.652   5.803  0.1548  1.3903 -1.9122
 5265TIP3    H215760   1.467   0.725   5.931 -0.8780  0.0220 -0.8039
 5266TIP3   OH215761   4.389   4.316   4.273 -0.1980 -0.7134 -0.8392
 5266TIP3    H115762   4.390   4.309   4.368 -0.0420  1.4557 -0.6474
 5266TIP3    H215763   4.465   4.264   4.244  0.7878  0.0275  0.3339
 5267TIP3   OH215764   2.965   3.031   4.026  0.1330  0.2836 -0.4146
 5267TIP3    H115765   2.922   2.974   4.090  1.1301 -0.0863 -0.0534
 5267TIP3    H215766   2.908   3.028   3.949  0.1270 -1.1815 -0.3930
 5268TIP3   OH215767   3.450   6.056   0.068 -0.1419 -0.4224  0.3450
 5268TIP3    H115768   3.363   6.095   0.060  0.3814  0.5843 -0.7237
 5268TIP3    H215769   3.499   6.119   0.122  0.1828 -0.5297  0.1729
 5269TIP3   OH215770   5.181   6.556   5.008 -0.1205  0.0705 -0.0916
 5269TIP3    H115771   5.146   6.585   5.092  0.1238 -0.3756  0.1712
 5269TIP3    H215772   5.243   6.624   4.983 -0.2876  0.2667  0.0301
 5270TIP3   OH215773   0.100   3.282   0.232  0.1129  0.3855 -0.2357
 5270TIP3    H115774   0.126   3.194   0.260  0.1136  0.5932  0.4384
 5270TIP3    H215775   0.172   3.312   0.177  0.5955  0.3488  0.3603
 5271TIP3   OH215776   5.093   3.293   4.716 -0.4084 -0.1273  0.7778
 5271TIP3    H115777   5.069   3.337   4.635  0.7872 -1.9045 -0.6076
 5271TIP3    H215778   5.189   3.294   4.717 -0.3874 -1.2741  1.5091
 5272TIP3   OH215779   6.580   2.807   3.725 -0.3393 -0.4879  0.6518
 5272TIP3    H115780   6.608   2.717   3.744 -1.2102 -0.7564  0.7094
 5272TIP3    H215781   6.548   2.841   3.808 -1.4260 -0.6599  0.3270
 5273TIP3   OH215782   6.525   5.702   3.924  0.0925 -0.0906  0.3694
 5273TIP3    H115783   6.612   5.732   3.896 -0.6207  1.2242 -0.5540
 5273TIP3    H215784   6.467   5.776   3.904 -0.9264 -0.1087  2.9066
 5274TIP3   OH215785   1.410   4.857   3.307 -0.2937  0.8064 -0.3462
 5274TIP3    H115786   1.430   4.914   3.381 -1.9935  0.9588  0.0506
 5274TIP3    H215787   1.340   4.902   3.261  0.8176  0.7689 -2.1442
 5275TIP3   OH215788   6.391   4.675   5.220  0.4034  0.5207  0.5762
 5275TIP3    H115789   6.457   4.608   5.236 -0.0149  0.0217  0.2571
 5275TIP3    H215790   6.353   4.651   5.135  0.5833  1.4409  0.2232
 5276TIP3   OH215791   4.798   4.478   3.528 -0.2422 -0.3086  0.0107
 5276TIP3    H115792   4.771   4.468   3.437 -0.2061  1.1526 -0.1963
 5276TIP3    H215793   4.740   4.546   3.563  0.0788 -0.4854  0.9226
 5277TIP3   OH215794   4.858   4.603   2.567 -0.5615 -0.3241 -0.1769
 5277TIP3    H115795   4.937   4.549   2.567 -0.1008  0.3362  0.1950
 5277TIP3    H215796   4.871   4.665   2.639 -1.7443 -0.6732  0.3590
 5278TIP3   OH215797   1.890   0.540   0.745 -0.1770  0.3842  0.3779
 5278TIP3    H115798   1.982   0.555   0.726 -0.2192  0.1509 -0.0143
 5278TIP3    H215799   1.889   0.510   0.836  0.2235 -0.4427  0.1224
 5279TIP3   OH215800   5.711   4.386   0.195 -0.3203  1.3679  0.2352
 5279TIP3    H115801   5.799   4.409   0.224  1.2123 -2.1427 -1.0876
 5279TIP3    H215802   5.722   4.354   0.105 -2.6418 -0.6719  0.5628
 5280TIP3   OH215803   4.999   6.640   0.424  0.0188 -0.0810 -0.2239
 5280TIP3    H115804   4.912   6.629   0.462 -0.6959  0.6376 -1.5814
 5280TIP3    H215805   5.005   6.734   0.405  1.4900  0.0612  0.7144
 5281TIP3   OH215806   1.746   2.786   2.281  0.3467 -0.5819 -0.0546
 5281TIP3    H115807   1.763   2.706   2.230  1.4234 -0.1328 -0.4170
 5281TIP3    H215808   1.670   2.825   2.237  1.7734  0.2485 -1.9331
 5282TIP3   OH215809   1.042   0.496   4.197  0.1499  1.1722  0.1035
 5282TIP3    H115810   1.026   0.572   4.142  0.7026  0.6002 -0.8861
 5282TIP3    H215811   1.099   0.527   4.266  0.1295  1.7186 -0.1251
 5283TIP3   OH215812   0.444   3.987   1.388 -0.2179  0.0299 -0.3489
 5283TIP3    H115813   0.487   4.039   1.319 -0.2734 -0.2774 -0.6172
 5283TIP3    H215814   0.482   3.900   1.380  1.3450  0.4960  1.3978
 5284TIP3   OH215815   6.615   2.378   5.043 -0.0636  0.4481 -0.7872
 5284TIP3    H115816   6.640   2.415   4.958 -0.5895  0.9935 -0.7074
 5284TIP3    H215817   6.686   2.317   5.064  0.0651  0.3024 -1.6195
 5285TIP3   OH215818   6.595   3.564   4.359 -0.1786 -0.0062 -0.1476
 5285TIP3    H115819   6.668   3.557   4.298  0.0968  1.5733 -0.0459
 5285TIP3    H215820   6.626   3.625   4.427 -0.9670 -0.6718  0.8414
 5286TIP3   OH215821   7.143   6.035   3.701  0.0049 -0.0874 -0.6650
 5286TIP3    H115822   7.117   6.104   3.640 -1.1809  0.0367 -0.0323
 5286TIP3    H215823   7.217   5.992   3.657 -0.1972  0.6196 -1.7426
 5287TIP3   OH215824   4.463   5.402   2.712 -0.1431 -0.1297 -0.6413
 5287TIP3    H115825   4.487   5.459   2.639 -0.6417 -0.7434 -1.2964
 5287TIP3    H215826   4.488   5.314   2.684 -0.3495 -0.3765 -0.0727
 5288TIP3   OH215827   6.725   0.170   1.432  0.3690  0.7441  0.2550
 5288TIP3    H115828   6.735   0.123   1.349  0.5552  1.0574  0.0974
 5288TIP3    H215829   6.780   0.122   1.494  2.2501  1.9379 -0.3940
 5289TIP3   OH215830   3.401   6.637   0.857 -0.1024 -0.1565  0.3551
 5289TIP3    H115831   3.378   6.721   0.896  1.3924  0.6104 -0.3116
 5289TIP3    H215832   3.436   6.585   0.930  0.3549  0.3550  0.5078
 5290TIP3   OH215833   3.220   2.046   4.189 -0.3564  0.4137 -0.3238
 5290TIP3    H115834   3.227   2.025   4.282 -0.6274 -0.9992 -0.5986
 5290TIP3    H215835   3.144   2.104   4.183 -1.2814 -0.6961  0.1782
 5291TIP3   OH215836   2.341   4.607   0.816  0.0447  0.4959 -0.3753
 5291TIP3    H115837   2.318   4.534   0.759  0.6697  0.5597 -0.7170
 5291TIP3    H215838   2.313   4.580   0.903  1.5312 -0.7709 -0.2385
 5292TIP3   OH215839   4.630   0.644   1.085 -0.5053 -0.4389 -0.1027
 5292TIP3    H115840   4.652   0.734   1.062 -0.5488  0.2503  2.2737
 5292TIP3    H215841   4.615   0.601   1.001 -0.9529  1.8802 -1.3027
 5293TIP3   OH215842   1.823   5.381   0.031 -0.1735 -0.3750 -0.5609
 5293TIP3    H115843   1.749   5.345  -0.018 -0.3236 -0.1004 -0.5380
 5293TIP3    H215844   1.793   5.468   0.059  0.1423 -0.2802 -0.5174
 5294TIP3   OH215845   5.917   2.218   4.331 -0.3087 -0.8444  0.1781
 5294TIP3    H115846   5.971   2.228   4.252  0.3835  0.1984  0.7705
 5294TIP3    H215847   5.913   2.123   4.345 -1.4369 -1.1358 -1.7718
 5295TIP3   OH215848   4.372   6.352   5.670  0.0236  0.2919  0.2711
 5295TIP3    H115849   4.363   6.356   5.765 -2.3974  0.0509  0.1152
 5295TIP3    H215850   4.371   6.444   5.642 -0.8152  0.3305  0.3974
 5296TIP3   OH215851   0.169   2.068   2.178  0.0466 -0.1137 -0.5038
 5296TIP3    H115852   0.206   2.068   2.266 -1.1578 -1.4290  0.0335
 5296TIP3    H215853   0.143   2.159   2.163 -1.0972 -0.1461  1.1008
 5297TIP3   OH215854   0.272   5.773   1.898 -0.0463  0.1325 -0.1968
 5297TIP3    H115855   0.254   5.867   1.898 -0.5103  0.1609  2.6901
 5297TIP3    H215856   0.349   5.764   1.955  0.2687 -1.1967 -0.8061
 5298TIP3   OH215857   4.612   3.268   5.654  0.8305 -0.0167 -0.0264
 5298TIP3    H115858   4.698   3.270   5.694  0.6639  0.6454  0.3168
 5298TIP3    H215859   4.560   3.210   5.710  0.7631  0.4341  0.3820
 5299TIP3   OH215860   4.762   4.963   5.118 -0.4707 -0.2007  0.0734
 5299TIP3    H115861   4.682   4.917   5.141 -0.1344 -0.6520  0.3691
 5299TIP3    H215862   4.765   5.038   5.177  0.4807 -1.4492  1.7013
 5300TIP3   OH215863   0.302   4.491   0.704  0.3562  0.2739  0.5573
 5300TIP3    H115864   0.229   4.479   0.643  1.1737  0.4387 -0.4843
 5300TIP3    H215865   0.354   4.562   0.665  1.8012 -0.7418  0.5475
 5301TIP3   OH215866   2.646   5.604   3.242  0.1164  0.1968  0.0887
 5301TIP3    H115867   2.666   5.516   3.275 -0.4433 -0.0219 -0.1546
 5301TIP3    H215868   2.575   5.591   3.180  0.6474  0.7119 -0.6433
 5302TIP3   OH215869   0.440   1.109   3.195 -0.6623  0.0574 -0.5509
 5302TIP3    H115870   0.385   1.176   3.154 -1.6225 -0.1518  0.3537
 5302TIP3    H215871   0.524   1.152   3.209 -0.2690  0.1243 -2.7356
 5303TIP3   OH215872   3.706   0.142   2.498 -0.5877  0.0899  0.5986
 5303TIP3    H115873   3.662   0.153   2.414  1.2310  1.9842 -0.1904
 5303TIP3    H215874   3.688   0.224   2.545 -0.0502 -0.1873  1.3022
 5304TIP3   OH215875   0.798   3.166   5.658 -0.0524 -0.6386 -0.4612
 5304TIP3    H115876   0.829   3.249   5.695  2.0477 -2.0228  1.1321
 5304TIP3    H215877   0.706   3.161   5.685  0.5872 -0.1619  2.0999
 5305TIP3   OH215878   7.037   2.637   4.145  0.1840  0.0869  0.1058
 5305TIP3    H115879   6.998   2.721   4.168  0.8421  0.5668 -0.4938
 5305TIP3    H215880   7.097   2.618   4.217  1.9558  1.4006 -0.9568
 5306TIP3   OH215881   4.604   3.980   1.505 -0.3672 -0.6516  0.0303
 5306TIP3    H115882   4.521   3.994   1.459 -1.0685  0.6754  1.5779
 5306TIP3    H215883   4.634   4.069   1.526  0.9826 -1.1537  0.2962
 5307TIP3   OH215884   3.215   2.548   5.688  0.0263 -0.0904 -0.1578
 5307TIP3    H115885   3.302   2.568   5.723  0.2476 -2.7512  0.9819
 5307TIP3    H215886   3.197   2.621   5.629  2.4476  1.2247  0.5743
 5308TIP3   OH215887   4.629   0.785   5.712  0.1040  0.2294  0.4262
 5308TIP3    H115888   4.665   0.816   5.795 -0.6547  0.1356  0.7991
 5308TIP3    H215889   4.552   0.840   5.697 -0.1457 -0.1954  0.1272
 5309TIP3   OH215890   0.928   4.233   4.280 -0.0680 -0.1871 -0.5173
 5309TIP3    H115891   1.012   4.192   4.260  0.4216  1.0341 -1.0759
 5309TIP3    H215892   0.885   4.244   4.195 -0.6717 -0.5281 -0.2664
 5310TIP3   OH215893   0.326   6.584   2.439 -0.1328  0.1095  0.5052
 5310TIP3    H115894   0.315   6.636   2.518  1.2236 -1.0629  1.5170
 5310TIP3    H215895   0.406   6.618   2.399 -0.6678  0.5188 -0.2456
 5311TIP3   OH215896   1.053   3.084   1.732 -0.4403  0.2849  0.5006
 5311TIP3    H115897   1.113   3.111   1.663 -1.2891 -0.5158 -0.5859
 5311TIP3    H215898   1.080   3.136   1.808  0.5246  1.1824 -0.4072
 5312TIP3   OH215899   5.239   5.524   4.483 -0.5126 -0.3747  0.1525
 5312TIP3    H115900   5.309   5.555   4.425  0.1417  0.3292  1.2850
 5312TIP3    H215901   5.213   5.601   4.533 -1.6558 -0.7834  0.2148
 5313TIP3   OH215902   6.639   0.357   3.682 -0.8465 -0.2148 -1.0494
 5313TIP3    H115903   6.664   0.377   3.592 -1.7081  1.2410 -1.0059
 5313TIP3    H215904   6.718   0.320   3.721  0.6756  2.2879 -1.4843
 5314TIP3   OH215905   1.135   4.911   2.744  0.4155 -0.1661  0.1352
 5314TIP3    H115906   1.147   4.851   2.671 -0.3464  0.5768 -0.6274
 5314TIP3    H215907   1.175   4.867   2.819  0.7067 -1.1875 -0.6073
 5315TIP3   OH215908   0.508   1.451   3.103 -0.7352  0.1801  0.1156
 5315TIP3    H115909   0.600   1.426   3.099  0.0306  2.6353  0.6860
 5315TIP3    H215910   0.504   1.534   3.056 -2.1787  1.3312  2.1104
 5316TIP3   OH215911   5.366   2.739   3.823  0.1190 -0.0024 -0.0311
 5316TIP3    H115912   5.307   2.814   3.827 -0.5122 -0.0758 -3.7199
 5316TIP3    H215913   5.330   2.676   3.885 -0.2752  2.0767  1.9702
 5317TIP3   OH215914   7.015   2.619   3.735 -0.2488  0.2040 -0.1470
 5317TIP3    H115915   6.997   2.538   3.782  2.5907  0.7301  2.1174
 5317TIP3    H215916   7.081   2.596   3.670  0.3896  0.6259  0.3407
 5318TIP3   OH215917   4.019   3.564   2.072 -0.5152 -0.1133  0.1705
 5318TIP3    H115918   3.925   3.549   2.078 -0.4693 -0.7942 -0.6017
 5318TIP3    H215919   4.027   3.656   2.045 -1.0173 -0.4670 -1.2670
 5319TIP3   OH215920   5.216   3.979   4.077 -0.1679  0.5875 -0.8128
 5319TIP3    H115921   5.287   3.951   4.019 -0.4302  1.2921 -1.4952
 5319TIP3    H215922   5.230   3.930   4.158  0.6250  0.1196 -1.2229
 5320TIP3   OH215923   0.031   1.396   3.529  0.0667  0.2223 -0.3964
 5320TIP3    H115924   0.012   1.387   3.435  0.4196 -3.1731 -0.2774
 5320TIP3    H215925   0.126   1.411   3.532 -0.2254  2.4296 -0.5637
 5321TIP3   OH215926   0.669   3.833   4.623 -0.1159  0.1852 -0.2143
 5321TIP3    H115927   0.735   3.829   4.693 -1.7906 -1.6573  1.4133
 5321TIP3    H215928   0.703   3.777   4.554  1.0163  1.0516 -0.3828
 5322TIP3   OH215929   2.776   2.337   2.270  0.3288  0.3059 -0.2314
 5322TIP3    H115930   2.729   2.257   2.295 -0.7726  1.0948  0.3162
 5322TIP3    H215931   2.865   2.323   2.301 -0.2972  0.0512  1.6054
 5323TIP3   OH215932   5.891   5.953   4.289  0.0285 -0.0944  0.2199
 5323TIP3    H115933   5.890   5.962   4.384 -0.7400  2.2018  0.0605
 5323TIP3    H215934   5.803   5.925   4.266  0.2184 -0.6660  0.1683
 5324TIP3   OH215935   4.264   6.646   3.855  0.3271 -0.5928 -0.2523
 5324TIP3    H115936   4.297   6.717   3.911 -0.9219 -0.6445  0.5956
 5324TIP3    H215937   4.229   6.690   3.778 -1.2485 -0.1596  0.6637
 5325TIP3   OH215938   6.141   5.061   2.478 -0.2140 -0.0740  0.1653
 5325TIP3    H115939   6.113   5.143   2.437  0.7027  0.6585  0.9665
 5325TIP3    H215940   6.235   5.057   2.462 -0.1399 -0.6345  0.7332
 5326TIP3   OH215941   5.908   3.480   5.064  0.1264 -0.1599  0.2972
 5326TIP3    H115942   5.975   3.518   5.121  2.7361 -0.4466 -2.3212
 5326TIP3    H215943   5.887   3.550   5.002 -0.6453 -0.6611 -0.0266
 5327TIP3   OH215944   2.260   2.111   1.957  0.0995 -0.1346  0.0473
 5327TIP3    H115945   2.278   2.178   1.891  3.9700 -0.1234  0.8839
 5327TIP3    H215946   2.209   2.044   1.910 -0.1990  1.4029 -1.9477
 5328TIP3   OH215947   5.158   3.383   0.052  0.0358 -0.2291 -0.3241
 5328TIP3    H115948   5.144   3.305   0.104 -0.0661 -0.1332 -0.2083
 5328TIP3    H215949   5.076   3.397   0.005  0.4761 -0.9270 -1.3356
 5329TIP3   OH215950   5.555   0.774   0.435 -0.7049  0.3512 -0.1419
 5329TIP3    H115951   5.493   0.822   0.490 -0.3322  0.1105  0.4953
 5329TIP3    H215952   5.558   0.686   0.472  1.5216  0.8921  1.1273
 5330TIP3   OH215953   7.094   2.482   1.894  0.3155 -0.0211  0.4631
 5330TIP3    H115954   7.053   2.535   1.963 -0.3784 -0.3539  0.3145
 5330TIP3    H215955   7.031   2.485   1.822 -0.0699 -1.6274  0.7000
 5331TIP3   OH215956   3.880   1.825   2.157  0.1476  0.4540 -0.6681
 5331TIP3    H115957   3.962   1.803   2.112  0.8985 -0.6427  1.1384
 5331TIP3    H215958   3.837   1.741   2.170 -1.1386  0.9900 -1.3095
 5332TIP3   OH215959   1.526   3.110   1.710  0.0285  0.4904 -0.0319
 5332TIP3    H115960   1.600   3.168   1.690  1.2669 -0.6488  1.0600
 5332TIP3    H215961   1.511   3.122   1.804 -1.7053  1.2533 -0.3506
 5333TIP3   OH215962   1.462   5.581   3.736  0.4052  0.3058 -0.3246
 5333TIP3    H115963   1.524   5.623   3.676 -0.1646  1.1739 -0.3200
 5333TIP3    H215964   1.518   5.543   3.804  1.0226 -0.1856 -1.0839
 5334TIP3   OH215965   5.556   1.845   1.513  0.1780 -0.2037 -0.3401
 5334TIP3    H115966   5.586   1.877   1.598  3.3756 -1.9066 -0.6479
 5334TIP3    H215967   5.545   1.751   1.526 -0.5536 -0.2926 -1.4996
 5335TIP3   OH215968   5.459   4.966   0.269 -0.0945  0.1880 -0.5469
 5335TIP3    H115969   5.519   4.975   0.195  2.1403 -0.8236  1.0211
 5335TIP3    H215970   5.439   4.872   0.272  1.8910 -0.2353  1.5604
 5336TIP3   OH215971   6.420   6.150   1.551  0.2953  0.5269 -0.2547
 5336TIP3    H115972   6.344   6.143   1.493  0.8707  1.9647 -1.2309
 5336TIP3    H215973   6.487   6.192   1.498  1.6765 -0.3825  0.7096
 5337TIP3   OH215974   4.521   3.712   1.504 -0.0561 -0.0321 -0.8088
 5337TIP3    H115975   4.434   3.745   1.484  0.3256  1.3982 -0.2425
 5337TIP3    H215976   4.577   3.789   1.503  1.4227 -1.0591 -2.2078
 5338TIP3   OH215977   6.575   1.514   1.875  0.3020 -0.3108 -0.5413
 5338TIP3    H115978   6.616   1.429   1.896 -0.0653 -0.7856 -1.6793
 5338TIP3    H215979   6.625   1.546   1.800  0.5197  0.5553 -0.0318
 5339TIP3   OH215980   4.991   1.060   0.921  0.5805 -0.2620 -0.5422
 5339TIP3    H115981   4.956   1.136   0.968  1.6919  0.1483 -0.3538
 5339TIP3    H215982   5.083   1.082   0.904  0.8164 -1.4012 -0.8351
 5340TIP3   OH215983   4.148   0.765   5.543  0.1668 -0.2941  0.0768
 5340TIP3    H115984   4.167   0.772   5.636 -0.0065 -0.2345  0.1066
 5340TIP3    H215985   4.204   0.692   5.513  1.2693  0.5750 -0.0485
 5341TIP3   OH215986   3.255   3.749   3.257 -0.0695  0.7676 -0.0993
 5341TIP3    H115987   3.340   3.740   3.300 -0.4108  0.2873  0.5020
 5341TIP3    H215988   3.199   3.685   3.301  0.3412 -2.0691 -3.3383
 5342TIP3   OH215989   4.946   1.720   2.842 -0.2384 -0.0365  0.0689
 5342TIP3    H115990   4.933   1.803   2.798  2.1908 -0.3383 -1.4070
 5342TIP3    H215991   4.961   1.743   2.934  0.7977  1.2318 -0.3908
 5343TIP3   OH215992   2.743   5.054   2.116 -0.0450 -0.2671  0.2303
 5343TIP3    H115993   2.754   5.137   2.069 -1.0031 -0.4483 -0.3390
 5343TIP3    H215994   2.739   4.988   2.047 -0.6537 -0.6293  0.6104
 5344TIP3   OH215995   2.213   0.892   5.483  0.3626  0.5722 -0.0944
 5344TIP3    H115996   2.176   0.805   5.498 -0.1617  0.8882  0.5182
 5344TIP3    H215997   2.185   0.915   5.394 -0.1377  0.4229  0.0198
 5345TIP3   OH215998   5.940   5.329   5.709 -0.2035 -0.2228  0.0283
 5345TIP3    H115999   5.961   5.300   5.798  0.2150 -0.1343 -0.0382
 5345TIP3    H216000   6.021   5.316   5.660 -1.0616 -2.4954 -0.9186
 5346TIP3   OH216001   3.310   0.549   4.171 -0.1256  0.6506  0.1551
 5346TIP3    H116002   3.277   0.461   4.157  0.7974  0.3367 -0.1212
 5346TIP3    H216003   3.374   0.540   4.242 -0.8670  1.3052  0.9294
 5347TIP3   OH216004   1.714   5.697   3.769 -0.5315  0.5883  0.2656
 5347TIP3    H116005   1.710   5.619   3.824 -0.0370  0.9331  0.8008
 5347TIP3    H216006   1.662   5.762   3.816 -2.1573  0.1852 -0.8783
 5348TIP3   OH216007   2.990   6.067   1.454  0.1613  0.0617 -0.0085
 5348TIP3    H116008   3.002   6.129   1.527  1.1120  0.2908 -0.3517
 5348TIP3    H216009   2.945   6.119   1.387 -1.3740 -0.3455  0.6574
 5349TIP3   OH216010   3.275   4.351   3.636  0.8196 -0.1367  0.1520
 5349TIP3    H116011   3.356   4.299   3.641  1.2456  0.5972  1.1913
 5349TIP3    H216012   3.296   4.432   3.681 -0.3084  0.3412 -0.1572
 5350TIP3   OH216013   0.043   1.276   4.807 -0.4133  0.2134 -0.2102
 5350TIP3    H116014  -0.028   1.325   4.849 -1.9245 -0.6289 -1.6808
 5350TIP3    H216015   0.002   1.194   4.778  1.2823 -0.5075 -0.6854
 5351TIP3   OH216016   2.408   0.201   0.908 -0.6650 -0.3907 -0.0028
 5351TIP3    H116017   2.359   0.150   0.972 -1.7539  0.8282  0.1837
 5351TIP3    H216018   2.358   0.282   0.898 -0.0800 -0.1949 -1.7772
 5352TIP3   OH216019   1.393   6.598   2.808 -0.1606 -0.3849 -0.1547
 5352TIP3    H116020   1.310   6.588   2.761 -0.4390 -0.5138  0.3619
 5352TIP3    H216021   1.416   6.509   2.834 -0.2682 -0.2505  0.3983
 5353TIP3   OH216022   4.982   1.670   4.037 -0.3129 -0.0388 -0.5521
 5353TIP3    H116023   4.895   1.653   4.075 -0.1728 -0.0265 -0.2235
 5353TIP3    H216024   4.967   1.742   3.976 -0.6228 -0.3435 -0.8416
 5354TIP3   OH216025   1.704   4.181   5.830 -0.4582 -0.2804 -0.4716
 5354TIP3    H116026   1.783   4.217   5.872 -0.9648 -0.4608  0.6823
 5354TIP3    H216027   1.696   4.230   5.748  0.5798  0.0775 -0.3837
 5355TIP3   OH216028   2.321   4.971   4.251 -0.4457  0.0741 -0.1412
 5355TIP3    H116029   2.260   4.903   4.279  2.1460 -1.6315  1.8296
 5355TIP3    H216030   2.399   4.922   4.221  0.3208  2.1380 -1.7221
 5356TIP3   OH216031   5.415   6.580   2.154 -0.0985 -0.0903 -0.4358
 5356TIP3    H116032   5.438   6.524   2.080  2.0841 -1.4422  1.1628
 5356TIP3    H216033   5.368   6.522   2.214  0.3753  0.3135  0.3384
 5357TIP3   OH216034   4.028   0.500   4.968  0.1719  0.3358  0.0664
 5357TIP3    H116035   4.095   0.566   4.986  0.5515 -0.5799  2.3395
 5357TIP3    H216036   4.014   0.455   5.052 -2.8768  0.0828 -0.4336
 5358TIP3   OH216037   2.542   2.673   1.310  0.2822  0.5715  0.0424
 5358TIP3    H116038   2.589   2.732   1.370  1.0044 -0.5679  0.6325
 5358TIP3    H216039   2.491   2.732   1.254  0.2619  1.7198  1.2037
 5359TIP3   OH216040   6.422   0.274   2.284  0.0256 -0.0130  0.2410
 5359TIP3    H116041   6.465   0.278   2.198 -0.5433 -1.8490 -0.1618
 5359TIP3    H216042   6.338   0.318   2.270 -0.5412 -1.2738 -0.4724
 5360TIP3   OH216043   3.942   4.595   4.197  0.9570  0.2877  0.2677
 5360TIP3    H116044   3.948   4.598   4.292  0.4473  1.3254  0.2828
 5360TIP3    H216045   4.008   4.531   4.171 -0.2026 -1.4769  1.4214
 5361TIP3   OH216046   5.240   6.517   0.493 -0.6020  0.9378 -0.6431
 5361TIP3    H116047   5.238   6.467   0.575 -1.1455 -0.1519 -1.3023
 5361TIP3    H216048   5.164   6.575   0.498 -1.7908 -0.5322 -1.2127
 5362TIP3   OH216049   4.670   3.505   1.605 -0.2886 -1.1281 -0.2148
 5362TIP3    H116050   4.596   3.452   1.635 -1.1190 -1.5445 -2.7789
 5362TIP3    H216051   4.630   3.571   1.547  0.9566  1.0836  1.2735
 5363TIP3   OH216052   2.165   0.259   2.594 -0.5397  0.6037 -0.1765
 5363TIP3    H116053   2.250   0.301   2.581 -0.3106  0.0583 -0.4505
 5363TIP3    H216054   2.146   0.272   2.687  0.8391 -1.0709  0.4010
 5364TIP3   OH216055   2.795   5.707   0.552  0.2790 -0.1951  0.0834
 5364TIP3    H116056   2.741   5.776   0.514  0.0636 -0.2265  0.3261
 5364TIP3    H216057   2.774   5.629   0.501  0.6172 -0.0553 -0.2732
 5365TIP3   OH216058   6.535   6.503   2.462 -0.1886  0.1007 -0.0106
 5365TIP3    H116059   6.628   6.519   2.444 -0.0208 -0.5693  0.2145
 5365TIP3    H216060   6.529   6.407   2.471 -0.9717  0.1133 -0.3965
 5366TIP3   OH216061   6.849   3.841   2.854 -0.4272 -0.6016 -0.6753
 5366TIP3    H116062   6.774   3.871   2.905 -0.0592  0.4178 -0.7063
 5366TIP3    H216063   6.821   3.758   2.816 -1.1387 -0.7773  0.2039
 5367TIP3   OH216064   2.708   0.840   1.538  0.3570 -0.4052 -0.2281
 5367TIP3    H116065   2.685   0.748   1.554  0.4652 -0.1897  1.2527
 5367TIP3    H216066   2.623   0.883   1.526 -0.4487  0.4773  5.7029
 5368TIP3   OH216067   3.858   4.666   2.710 -0.4002  0.0282 -0.5216
 5368TIP3    H116068   3.942   4.670   2.754 -0.5615 -0.6087 -0.1440
 5368TIP3    H216069   3.880   4.652   2.618 -0.1049 -1.2217 -0.2729
 5369TIP3   OH216070   6.129   1.827   3.511 -0.0327  0.2819  0.7165
 5369TIP3    H116071   6.098   1.747   3.469  0.0967  0.3240  0.5413
 5369TIP3    H216072   6.069   1.840   3.585 -1.5703  1.3346 -0.6467
 5370TIP3   OH216073   4.193   5.397   4.697 -0.0519 -0.5349 -0.5540
 5370TIP3    H116074   4.193   5.305   4.673 -1.8193 -0.9843  0.9511
 5370TIP3    H216075   4.100   5.421   4.700  0.2590  0.6387  1.3527
 5371TIP3   OH216076   4.763   4.624   0.306 -0.0149 -0.0021 -0.2747
 5371TIP3    H116077   4.674   4.595   0.291 -0.8218  2.9495 -1.7958
 5371TIP3    H216078   4.818   4.559   0.261 -1.2147 -2.3995  1.4974
 5372TIP3   OH216079   2.017   0.516   0.425 -0.4812  0.6021 -0.0726
 5372TIP3    H116080   2.032   0.503   0.331  1.7207  1.8500  0.0468
 5372TIP3    H216081   1.943   0.578   0.428  0.4289  1.7922 -1.0678
 5373TIP3   OH216082   4.684   6.495   5.097  0.1447  0.3464  0.1730
 5373TIP3    H116083   4.764   6.526   5.054  0.8889  0.0345  1.2998
 5373TIP3    H216084   4.705   6.406   5.124 -1.2360 -0.4258 -1.1462
 5374TIP3   OH216085   3.020  -0.010   3.366 -0.4790  0.0246  0.5062
 5374TIP3    H116086   2.988   0.032   3.445  1.1829  0.4779  0.9818
 5374TIP3    H216087   2.993   0.048   3.295 -0.8550  0.2851  0.8585
 5375TIP3   OH216088   5.244   1.853   3.859  0.5057 -0.1606 -0.6631
 5375TIP3    H116089   5.271   1.858   3.950  2.9237  0.7015 -1.3330
 5375TIP3    H216090   5.224   1.944   3.835  2.6756  0.1301 -1.6607
 5376TIP3   OH216091   0.510   5.852   3.761  0.9082  0.1931 -0.1475
 5376TIP3    H116092   0.593   5.897   3.778  1.8386 -0.4646 -2.5894
 5376TIP3    H216093   0.536   5.771   3.718 -1.0358  0.0325 -1.0917
 5377TIP3   OH216094   3.466   3.790   2.258 -0.0022 -0.1027 -0.2853
 5377TIP3    H116095   3.451   3.882   2.241  3.4128  0.7830  0.6106
 5377TIP3    H216096   3.516   3.789   2.340  0.1759 -2.7489 -0.3323
 5378TIP3   OH216097   6.978   6.010   2.467  0.3001  0.0506 -0.0663
 5378TIP3    H116098   6.965   6.088   2.521 -0.2792 -0.3907  0.4462
 5378TIP3    H216099   6.998   5.941   2.530  2.2885  0.0717 -0.6171
 5379TIP3   OH216100   6.617   6.702   3.069 -0.0924 -0.4297  0.5945
 5379TIP3    H116101   6.630   6.793   3.095 -0.3284 -0.1965 -0.0820
 5379TIP3    H216102   6.635   6.701   2.975 -0.2945 -1.0394  0.5593
 5380TIP3   OH216103   4.933   1.065   2.858  0.1925  0.4958  0.2772
 5380TIP3    H116104   4.864   1.008   2.825 -0.0193  1.9960 -2.1257
 5380TIP3    H216105   4.987   1.008   2.913 -3.4815 -0.5104  3.3400
 5381TIP3   OH216106   4.463   5.371   4.615  0.0752  0.2879 -0.0169
 5381TIP3    H116107   4.474   5.454   4.568  0.3397  0.6574  0.6755
 5381TIP3    H216108   4.375   5.376   4.653  0.3952  0.6168  0.7029
 5382TIP3   OH216109   0.335   2.984   2.020 -0.4016  0.0728 -0.2033
 5382TIP3    H116110   0.405   2.978   1.956  1.7128 -2.5439  2.1230
 5382TIP3    H216111   0.297   2.896   2.022 -1.0674  0.3720  1.4271
 5383TIP3   OH216112   4.568   1.539   2.063  0.0450  0.2228 -0.2864
 5383TIP3    H116113   4.520   1.623   2.065 -0.2190  0.0624  0.1181
 5383TIP3    H216114   4.619   1.539   2.143  1.7458  0.9733 -1.3054
 5384TIP3   OH216115   4.886   6.194   2.086  0.0246  0.2869  0.1134
 5384TIP3    H116116   4.857   6.161   2.171 -0.2593  0.7483  0.1989
 5384TIP3    H216117   4.955   6.256   2.107  1.1859 -0.8802 -0.0947
 5385TIP3   OH216118   5.497   5.692   3.863 -0.5219  0.5648  0.5396
 5385TIP3    H116119   5.548   5.642   3.799 -1.2639  0.7882 -0.2359
 5385TIP3    H216120   5.406   5.682   3.836 -0.9893 -0.3943  2.3161
 5386TIP3   OH216121   5.980   3.263   2.064 -0.4836 -0.5599 -0.0345
 5386TIP3    H116122   6.042   3.242   1.994  0.5833 -0.4948  0.8678
 5386TIP3    H216123   5.987   3.358   2.076  0.7849 -0.7928  1.4336
 5387TIP3   OH216124   1.580   0.319   4.780 -0.9825 -0.0973  0.0216
 5387TIP3    H116125   1.637   0.242   4.772  0.7051  1.1167 -0.2301
 5387TIP3    H216126   1.609   0.377   4.709 -0.9839  1.5084  1.2869
 5388TIP3   OH216127   5.377   1.363   0.944  0.3404  0.4593 -0.7153
 5388TIP3    H116128   5.459   1.364   0.994  1.8399  2.9404 -2.8982
 5388TIP3    H216129   5.314   1.409   1.000  0.5847 -0.8607  0.7026
 5389TIP3   OH216130   3.923   1.341   2.100  0.4791  0.4353 -0.0589
 5389TIP3    H116131   3.985   1.295   2.044  2.0692  0.1631  1.8194
 5389TIP3    H216132   3.851   1.279   2.112 -0.7710  1.1032 -3.0287
 5390TIP3   OH216133   2.560   0.625   0.869  0.3261 -0.1637  0.6578
 5390TIP3    H116134   2.504   0.651   0.796 -0.9524 -0.0478  1.6392
 5390TIP3    H216135   2.608   0.549   0.836 -0.6339 -0.4586 -0.1330
 5391TIP3   OH216136   5.948   3.773   2.929 -0.1740  0.1652  0.5585
 5391TIP3    H116137   6.013   3.718   2.974 -0.5636 -0.0876  0.8209
 5391TIP3    H216138   5.885   3.710   2.893 -0.1308  0.3943  0.0804
 5392TIP3   OH216139   3.487   0.535   3.949 -0.0035  0.0518 -0.0895
 5392TIP3    H116140   3.454   0.578   3.871 -0.7627 -3.2153 -1.7575
 5392TIP3    H216141   3.421   0.552   4.016 -0.8549  0.5081 -1.0185
 5393TIP3   OH216142   6.633   3.311   4.984  0.4393 -0.2821 -0.3211
 5393TIP3    H116143   6.638   3.407   4.979  1.9000 -0.3318 -0.4172
 5393TIP3    H216144   6.590   3.294   5.068  0.3821  0.4634 -0.1919
 5394TIP3   OH216145   0.993   0.957   2.645 -0.0490  0.2422 -0.1421
 5394TIP3    H116146   1.021   1.038   2.688  1.2331 -0.2928  0.0671
 5394TIP3    H216147   1.013   0.971   2.552 -0.3647  0.3792 -0.1914
 5395TIP3   OH216148   3.752   2.016   4.566  0.6177  0.2839 -0.1210
 5395TIP3    H116149   3.723   2.055   4.484 -0.6567 -0.5678 -0.0948
 5395TIP3    H216150   3.681   2.034   4.628  1.6694  1.1590  0.9020
 5396TIP3   OH216151   1.768   5.658   2.327  0.6166 -0.4321  0.0880
 5396TIP3    H116152   1.807   5.661   2.240  1.5811  0.7871  0.5267
 5396TIP3    H216153   1.835   5.616   2.381 -0.1415 -1.5637  0.1888
 5397TIP3   OH216154   4.454   3.504   3.221 -0.0729 -0.3729  0.4490
 5397TIP3    H116155   4.462   3.566   3.293  0.6611  0.1767 -0.0877
 5397TIP3    H216156   4.456   3.418   3.262 -0.0101 -0.0595  1.1113
 5398TIP3   OH216157   0.892   2.746   3.067 -0.0657 -0.3034 -0.0370
 5398TIP3    H116158   0.923   2.717   3.152  2.4781 -1.1435 -1.1357
 5398TIP3    H216159   0.944   2.824   3.047 -0.3398 -0.3388 -0.9758
 5399TIP3   OH216160   4.270   5.226   3.496  0.8504 -0.0327  0.0674
 5399TIP3    H116161   4.284   5.280   3.418 -0.1088  0.7614  0.4220
 5399TIP3    H216162   4.226   5.284   3.557 -0.1299 -1.1910  0.4986
 5400TIP3   OH216163   2.514   2.054   3.993  0.3072  0.3620  0.1502
 5400TIP3    H116164   2.512   2.146   3.966  0.0969  0.3651  0.1695
 5400TIP3    H216165   2.422   2.030   4.003  0.3639  0.1824  0.2595
 5401TIP3   OH216166   0.081   4.515   5.629 -0.6323  0.6344 -0.1675
 5401TIP3    H116167   0.059   4.509   5.722  0.5299  0.8101  0.1411
 5401TIP3    H216168   0.120   4.602   5.620 -1.4222  0.9178 -0.9878
 5402TIP3   OH216169   5.398   2.173   2.736  0.2087 -0.0006 -0.5627
 5402TIP3    H116170   5.481   2.163   2.783 -1.0077  2.0165  2.3020
 5402TIP3    H216171   5.343   2.102   2.768  0.6332 -1.1394 -2.2190
 5403TIP3   OH216172   7.018   4.599   0.915  0.1973 -0.0853 -0.4335
 5403TIP3    H116173   6.998   4.690   0.938 -0.7437  0.6276 -3.5041
 5403TIP3    H216174   6.945   4.548   0.949 -1.1182  0.8834 -1.6565
 5404TIP3   OH216175   2.356   5.018   5.442 -0.2859  0.1365  0.5466
 5404TIP3    H116176   2.401   5.102   5.447  0.3180 -0.1163 -0.2803
 5404TIP3    H216177   2.391   4.977   5.362  0.2952 -1.3899  1.5384
 5405TIP3   OH216178   4.462   1.573   4.082  0.7007  0.6203 -0.6890
 5405TIP3    H116179   4.404   1.647   4.062  0.3881 -0.1556 -2.8437
 5405TIP3    H216180   4.548   1.600   4.050  1.1777  1.0371  0.8561
 5406TIP3   OH216181   3.888   5.630   2.203  0.4825  0.1429  0.1948
 5406TIP3    H116182   3.831   5.659   2.131  0.2200 -1.5951 -0.3525
 5406TIP3    H216183   3.914   5.541   2.178 -0.0591 -0.7352  2.5093
 5407TIP3   OH216184   4.357   4.491   4.824  0.3236  0.2546  0.1190
 5407TIP3    H116185   4.379   4.480   4.916 -0.2767 -1.6728  0.0633
 5407TIP3    H216186   4.265   4.518   4.825 -0.0618 -1.0221  0.0600
 5408TIP3   OH216187   4.177   3.783   2.264 -0.0476  0.0895  0.1833
 5408TIP3    H116188   4.083   3.777   2.246  0.1883 -0.1585 -1.0578
 5408TIP3    H216189   4.188   3.869   2.305 -0.9270 -0.2484  1.1902
 5409TIP3   OH216190   6.074   6.038   1.948 -0.5260  0.0713  0.1294
 5409TIP3    H116191   6.025   6.000   1.875  1.3630 -4.3970  0.8456
 5409TIP3    H216192   6.027   6.010   2.027 -0.3792  1.4707  0.7625
 5410TIP3   OH216193   4.426   5.180   2.995 -0.6326 -0.4574  0.1859
 5410TIP3    H116194   4.427   5.084   2.990 -0.4562 -0.5436  1.3786
 5410TIP3    H216195   4.335   5.202   3.017 -0.8811 -0.2802 -0.9889
 5411TIP3   OH216196   2.790   3.543   4.358 -0.5801 -0.5362  0.1415
 5411TIP3    H116197   2.708   3.496   4.342 -1.3353  0.9854 -0.7170
 5411TIP3    H216198   2.848   3.515   4.287  0.1815 -2.6620  1.5197
 5412TIP3   OH216199   6.775   1.066   3.426  0.1167 -0.0099  0.3405
 5412TIP3    H116200   6.826   1.017   3.361  0.5459 -2.3954  2.3313
 5412TIP3    H216201   6.708   1.112   3.375  1.6108 -0.2201 -1.9355
 5413TIP3   OH216202   0.178   2.954   0.591  0.3275  0.4720 -1.2959
 5413TIP3    H116203   0.193   2.991   0.679  0.2564  1.4559 -1.6808
 5413TIP3    H216204   0.103   2.896   0.602 -0.8262  1.9314 -1.0338
 5414TIP3   OH216205   6.354   6.487   1.859  0.1781  0.1251  0.7658
 5414TIP3    H116206   6.443   6.521   1.862  0.9688 -1.8643  1.3356
 5414TIP3    H216207   6.364   6.392   1.863 -1.9401 -0.1935 -0.1175
 5415TIP3   OH216208   6.704   1.365   2.705 -0.2026  0.4825  0.3190
 5415TIP3    H116209   6.768   1.390   2.638 -0.6422  0.3301 -0.1681
 5415TIP3    H216210   6.627   1.418   2.684 -0.8854 -0.6854 -0.2564
 5416TIP3   OH216211   2.109   3.411   2.432 -0.2154 -0.8235  0.0320
 5416TIP3    H116212   2.017   3.386   2.428 -0.6523  0.7480 -0.3868
 5416TIP3    H216213   2.111   3.490   2.486  0.4304  0.9575 -2.4214
 5417TIP3   OH216214   0.749   4.405   2.813  0.0579 -0.1697  0.1320
 5417TIP3    H116215   0.701   4.433   2.891  0.0822  1.5088 -0.3952
 5417TIP3    H216216   0.821   4.469   2.806  0.1221 -0.3592 -1.1763
 5418TIP3   OH216217   0.588   3.964   2.087  0.1519  0.0717 -0.1224
 5418TIP3    H116218   0.603   3.918   2.005  1.4514 -1.2668  0.7990
 5418TIP3    H216219   0.650   4.036   2.086  1.0158 -0.6413  0.1490
 5419TIP3   OH216220   6.713   0.199   1.836 -0.7255 -0.3316 -0.2742
 5419TIP3    H116221   6.789   0.224   1.890 -0.8389 -0.7447  0.0869
 5419TIP3    H216222   6.715   0.104   1.836 -0.7842 -0.3336 -0.9330
 5420TIP3   OH216223   2.903   6.706   3.851  0.3848  0.6002  0.0624
 5420TIP3    H116224   2.939   6.792   3.873 -0.0715  1.2785 -1.7082
 5420TIP3    H216225   2.977   6.656   3.818  0.1301  1.3701 -1.7978
 5421TIP3   OH216226   0.804   1.101   3.099 -0.0527  0.2413  0.2045
 5421TIP3    H116227   0.811   1.112   3.194 -0.4068  0.6475  0.1852
 5421TIP3    H216228   0.718   1.138   3.076 -0.3839 -0.7004 -0.1463
 5422TIP3   OH216229   0.821   1.693   3.229  0.3079 -0.3495  0.4038
 5422TIP3    H116230   0.890   1.754   3.202  0.2445 -1.1396 -1.7219
 5422TIP3    H216231   0.759   1.747   3.279  1.0780  0.9694 -0.0271
 5423TIP3   OH216232   4.330   6.590   5.327  0.0307 -0.0188  0.4236
 5423TIP3    H116233   4.357   6.587   5.419  1.3520 -0.9332  0.0273
 5423TIP3    H216234   4.391   6.651   5.286 -0.9921  0.9335  0.2646
 5424TIP3   OH216235   3.640   0.325   4.140  0.3135 -0.5520  0.3801
 5424TIP3    H116236   3.639   0.374   4.058 -1.1560 -1.3383 -0.0928
 5424TIP3    H216237   3.619   0.391   4.207 -0.4716 -0.2942 -0.1101
 5425TIP3   OH216238   2.638   6.459   5.171  0.5763  0.4275 -0.4282
 5425TIP3    H116239   2.649   6.422   5.259  0.0394  1.5012  0.1118
 5425TIP3    H216240   2.724   6.450   5.130  0.7997 -0.1983  0.1576
 5426TIP3   OH216241   6.969   5.791   4.151 -0.4976  0.0118  0.6210
 5426TIP3    H116242   6.957   5.877   4.192  1.2792  1.1957 -1.1969
 5426TIP3    H216243   7.022   5.742   4.214 -0.0732  0.8512  0.9377
 5427TIP3   OH216244   5.987   6.706   1.266 -0.1437  0.3633  0.3288
 5427TIP3    H116245   5.914   6.768   1.276  0.3686  1.0553 -0.0978
 5427TIP3    H216246   6.016   6.688   1.355 -1.7581 -1.0829  0.6273
 5428TIP3   OH216247   6.471   0.897   3.021  0.2950  0.1576 -0.2048
 5428TIP3    H116248   6.391   0.938   2.987  1.4090  1.5059 -1.2846
 5428TIP3    H216249   6.494   0.833   2.953 -0.3211 -0.8780  0.5282
 5429TIP3   OH216250   4.025   1.536   2.390 -0.1051 -0.0329  0.0725
 5429TIP3    H116251   4.065   1.568   2.309 -1.8070 -0.2267 -0.9038
 5429TIP3    H216252   4.098   1.515   2.447  1.1409  0.0247 -1.4536
 5430TIP3   OH216253   6.472   2.532   2.433 -0.1367 -0.1456  0.2811
 5430TIP3    H116254   6.540   2.517   2.499  0.6917 -0.0041 -0.5254
 5430TIP3    H216255   6.493   2.471   2.363 -2.1520 -1.7242  0.9407
 5431TIP3   OH216256   4.950   5.516   0.430 -0.1695  0.3426 -0.2256
 5431TIP3    H116257   5.036   5.511   0.473  0.4112 -2.1645 -1.4739
 5431TIP3    H216258   4.962   5.469   0.347 -2.3431  1.3933 -1.2283
 5432TIP3   OH216259   6.924   3.119   2.406  0.2239 -0.1532  0.3413
 5432TIP3    H116260   6.991   3.171   2.361 -0.0397  0.0947  0.2290
 5432TIP3    H216261   6.874   3.079   2.335  1.5309 -2.0528  0.3952
 5433TIP3   OH216262   6.647   2.924   5.638  0.0484 -0.1268  0.1065
 5433TIP3    H116263   6.658   2.995   5.575  0.7517  1.0476  1.4782
 5433TIP3    H216264   6.688   2.848   5.597 -0.2156  0.3870 -1.1646
 5434TIP3   OH216265   2.358   6.249   5.117  0.3500  0.1673 -0.1898
 5434TIP3    H116266   2.292   6.312   5.089  0.4195 -0.2882 -1.4481
 5434TIP3    H216267   2.375   6.271   5.209  1.0730  2.5996 -0.8338
 5435TIP3   OH216268   4.927   0.768   1.324 -0.4327 -0.4128 -0.3240
 5435TIP3    H116269   4.918   0.814   1.241  0.4500 -0.5911 -0.5231
 5435TIP3    H216270   5.014   0.792   1.356 -1.2485  0.7039  1.2012
 5436TIP3   OH216271   3.214   4.270   4.742 -0.1840 -0.3735  0.6188
 5436TIP3    H116272   3.242   4.218   4.667  0.3692 -1.6757  1.6803
 5436TIP3    H216273   3.120   4.255   4.748 -0.4699  0.8427 -0.6167
 5437TIP3   OH216274   2.620   0.858   3.777  0.2102  0.3177  0.1024
 5437TIP3    H116275   2.673   0.928   3.814  0.6850 -0.3755  0.7736
 5437TIP3    H216276   2.621   0.874   3.683 -1.0974  2.1714  0.3504
 5438TIP3   OH216277   5.654   3.598   1.053  0.1541 -0.0264  0.6698
 5438TIP3    H116278   5.607   3.624   0.974  2.4974 -0.5912 -1.0199
 5438TIP3    H216279   5.697   3.516   1.029 -1.3625 -1.8481  3.5384
 5439TIP3   OH216280   6.633   2.608   1.479 -0.1039 -0.4440  0.0298
 5439TIP3    H116281   6.638   2.675   1.547  0.2856 -0.3081 -0.1301
 5439TIP3    H216282   6.603   2.529   1.525 -1.2850  0.0161  0.0878
 5440TIP3   OH216283   2.437   0.044   1.388  0.2899  0.5415  0.4340
 5440TIP3    H116284   2.364   0.086   1.434 -2.5676 -0.7191 -2.5305
 5440TIP3    H216285   2.434  -0.047   1.418 -0.9733 -0.0559 -1.3245
 5441TIP3   OH216286   6.539   1.532   0.735 -0.1709  0.4985  0.6103
 5441TIP3    H116287   6.490   1.496   0.661  0.8882 -0.1345  0.1880
 5441TIP3    H216288   6.543   1.626   0.717  1.3094  0.1890 -0.9463
 5442TIP3   OH216289   0.037   2.076   3.429  0.1141  0.5794 -0.6786
 5442TIP3    H116290  -0.003   2.033   3.354 -0.7899 -2.7107  1.4574
 5442TIP3    H216291   0.098   2.011   3.465 -0.7579  1.2504  2.3434
 5443TIP3   OH216292   0.187   1.503   0.322  0.0022 -0.5451  0.2158
 5443TIP3    H116293   0.135   1.581   0.341 -0.9996 -1.4736  1.4369
 5443TIP3    H216294   0.129   1.448   0.269  1.3721  0.2976 -2.3278
 5444TIP3   OH216295   4.113   5.070   1.616  0.6201 -0.7344 -0.0983
 5444TIP3    H116296   4.188   5.069   1.675 -0.4891 -0.4901  1.3685
 5444TIP3    H216297   4.115   5.157   1.576 -1.6026  1.3529  3.7135
 5445TIP3   OH216298   4.513   1.213   0.838  0.1442 -0.2255  0.1700
 5445TIP3    H116299   4.532   1.240   0.928  0.1210 -1.7259  0.6532
 5445TIP3    H216300   4.584   1.251   0.786  0.0870  0.7643  0.7880
 5446TIP3   OH216301   3.334   6.091   4.174  0.2067  0.0215 -0.4676
 5446TIP3    H116302   3.259   6.118   4.121  0.6812  1.3354 -0.5166
 5446TIP3    H216303   3.341   6.158   4.242 -0.4738 -1.7070  1.4184
 5447TIP3   OH216304   4.339   5.360   2.288  0.4025 -0.0277  0.1395
 5447TIP3    H116305   4.393   5.326   2.360  1.2463  0.7203 -0.1179
 5447TIP3    H216306   4.375   5.317   2.210  0.4488  0.2710 -0.0029
 5448TIP3   OH216307   4.531   2.866   0.790 -0.6924  0.5347 -0.3397
 5448TIP3    H116308   4.509   2.908   0.873 -1.3421 -0.4666  0.0153
 5448TIP3    H216309   4.469   2.793   0.783  1.7949 -1.7648  0.1762
 5449TIP3   OH216310   2.349   2.821   3.199  0.9450 -0.0474  0.1563
 5449TIP3    H116311   2.259   2.797   3.224  1.0722  0.0730  0.7368
 5449TIP3    H216312   2.401   2.744   3.220  1.1088  0.1808  0.5982
 5450TIP3   OH216313   4.371   2.806   4.834  0.0852 -0.4382 -0.5989
 5450TIP3    H116314   4.392   2.888   4.790 -0.0811 -0.6451 -1.0742
 5450TIP3    H216315   4.411   2.739   4.779  1.5944 -0.5935  0.6365
 5451TIP3   OH216316   2.286   2.057   0.923 -0.7717  0.6832  0.3885
 5451TIP3    H116317   2.266   2.045   0.830 -1.4665  0.2724  0.5873
 5451TIP3    H216318   2.382   2.053   0.927 -0.7614  0.1276 -0.2339
 5452TIP3   OH216319   6.748   0.281   2.521  0.1140  0.1572  0.0901
 5452TIP3    H116320   6.821   0.339   2.543  1.2383 -1.2705  0.2628
 5452TIP3    H216321   6.789   0.203   2.486 -1.4552  0.4359 -2.6534
 5453TIP3   OH216322   0.239   5.211   2.839  0.2400  0.9327  0.6980
 5453TIP3    H116323   0.304   5.152   2.800  0.2562  1.0802  0.4980
 5453TIP3    H216324   0.259   5.297   2.802 -1.1665  0.6765 -0.7683
 5454TIP3   OH216325   2.127   4.576   4.851 -0.3014  0.0849  0.8762
 5454TIP3    H116326   2.064   4.516   4.890  1.1690 -1.0261  1.6170
 5454TIP3    H216327   2.122   4.559   4.757 -0.0449 -1.0547  1.0634
 5455TIP3   OH216328   4.749   5.304   3.633 -0.2779 -0.2343  0.3148
 5455TIP3    H116329   4.666   5.260   3.615  0.5280 -0.9831 -1.9718
 5455TIP3    H216330   4.756   5.372   3.565  1.6053 -1.1545 -0.4902
 5456TIP3   OH216331   2.681   6.589   0.660 -0.1127 -0.3595 -0.6268
 5456TIP3    H116332   2.677   6.603   0.755 -0.6791 -0.4822 -0.6285
 5456TIP3    H216333   2.643   6.669   0.623 -0.5968 -0.6372 -0.7275
 5457TIP3   OH216334  -0.005   4.853   3.122 -0.1955 -0.6041  0.2288
 5457TIP3    H116335  -0.021   4.889   3.034  0.2657  0.0253  0.3917
 5457TIP3    H216336   0.069   4.793   3.110  0.8163  0.5672  0.4266
 5458TIP3   OH216337   0.349   0.288   2.001 -0.2753  0.0161  0.1451
 5458TIP3    H116338   0.340   0.198   2.033 -0.1102 -0.1077 -0.1489
 5458TIP3    H216339   0.271   0.333   2.034 -0.4890 -0.2988  0.0812
 5459TIP3   OH216340   0.629   1.859   3.344  0.3152  0.3515 -0.9813
 5459TIP3    H116341   0.671   1.936   3.307  1.0160  1.7702  2.3882
 5459TIP3    H216342   0.606   1.885   3.433 -0.7437 -2.8989 -0.1713
 5460TIP3   OH216343   6.536   4.211   3.471 -0.0341 -0.1615 -0.1728
 5460TIP3    H116344   6.628   4.192   3.458 -0.4927 -2.1667 -0.8432
 5460TIP3    H216345   6.522   4.294   3.425  1.5201  0.4501  0.3981
 5461TIP3   OH216346   0.421   1.199   4.568 -0.1488  0.8473  0.2191
 5461TIP3    H116347   0.400   1.213   4.476 -0.2133  0.0467  0.1049
 5461TIP3    H216348   0.448   1.108   4.573  0.9226  1.1827  0.8042
 5462TIP3   OH216349   5.598   4.355   3.601  0.1835  0.3112  0.2185
 5462TIP3    H116350   5.573   4.447   3.599  1.6121  0.7298 -0.6277
 5462TIP3    H216351   5.561   4.318   3.521 -1.0253 -0.0515  0.9300
 5463TIP3   OH216352   3.928   1.080   1.356 -0.0652  0.0962 -0.2734
 5463TIP3    H116353   3.870   1.007   1.377 -1.8149  1.5525  0.2923
 5463TIP3    H216354   3.872   1.157   1.363  1.3979  1.4146 -2.0446
 5464TIP3   OH216355   5.754   2.815   4.917 -0.3977 -0.0470 -0.1762
 5464TIP3    H116356   5.701   2.846   4.991 -0.6851  0.4107 -0.5653
 5464TIP3    H216357   5.694   2.757   4.868 -0.0841 -0.6675  0.1608
 5465TIP3   OH216358   1.822   1.009   0.488  0.3248  0.3825  0.0981
 5465TIP3    H116359   1.853   1.058   0.412  0.9627  0.2641  0.2846
 5465TIP3    H216360   1.878   0.932   0.492  0.4639  0.5192  0.8429
 5466TIP3   OH216361   3.987   3.317   5.680  0.2262 -0.2919 -0.0941
 5466TIP3    H116362   3.960   3.288   5.768  0.8106  1.6200  0.7775
 5466TIP3    H216363   3.967   3.411   5.679  3.3441  0.4889 -0.6959
 5467TIP3   OH216364   1.089   1.386   3.175 -0.5721 -0.5866 -0.2924
 5467TIP3    H116365   1.137   1.467   3.192 -0.3772 -0.8694  0.5598
 5467TIP3    H216366   1.118   1.326   3.244 -0.8976 -1.3021 -0.7660
 5468TIP3   OH216367   0.275   6.080   0.974 -0.3151 -0.1564 -0.2460
 5468TIP3    H116368   0.245   6.032   1.051  2.3750 -1.9588 -0.2062
 5468TIP3    H216369   0.194   6.101   0.926 -1.8888 -0.8404  1.9519
 5469TIP3   OH216370   0.621   1.946   3.598  0.0688 -0.4610 -0.0926
 5469TIP3    H116371   0.598   2.026   3.550  0.4933  0.2957  0.9164
 5469TIP3    H216372   0.625   1.974   3.690  1.3752 -1.3794  0.1602
 5470TIP3   OH216373   0.705   3.312   4.446 -0.3626 -0.0156  0.1882
 5470TIP3    H116374   0.629   3.254   4.443  1.2390 -2.2561  0.6877
 5470TIP3    H216375   0.739   3.311   4.357  0.1097 -0.4917  0.3691
 5471TIP3   OH216376   4.626   5.770   4.950  0.4820  0.4807  0.6777
 5471TIP3    H116377   4.607   5.863   4.960 -0.4360  0.3316  0.3688
 5471TIP3    H216378   4.703   5.755   5.006 -0.3225  1.0869  1.9747
 5472TIP3   OH216379   6.614   2.879   2.582  0.5011 -0.6641 -0.3373
 5472TIP3    H116380   6.632   2.833   2.664  1.8062  0.4114  0.0094
 5472TIP3    H216381   6.614   2.972   2.606 -0.1864 -0.3904 -1.3603
 5473TIP3   OH216382   0.075   1.492   2.022 -0.1280  0.2341  0.1467
 5473TIP3    H116383   0.114   1.510   1.936 -0.3150  1.1831  0.2458
 5473TIP3    H216384   0.126   1.419   2.057 -0.8071 -0.9692 -1.2696
 5474TIP3   OH216385   2.579   0.763   1.267  0.8573  0.5288 -0.7011
 5474TIP3    H116386   2.629   0.695   1.313  0.6202  0.4345 -0.5824
 5474TIP3    H216387   2.518   0.715   1.212 -0.0221  0.6286  0.1518
 5475TIP3   OH216388   5.641   1.473   2.970 -0.6694 -0.0039  0.1285
 5475TIP3    H116389   5.651   1.516   3.055 -0.0341 -0.8139  0.4773
 5475TIP3    H216390   5.546   1.463   2.959 -0.7615  0.2146  0.6843
 5476TIP3   OH216391   7.026   0.265   4.016 -0.1064 -0.7593  0.2984
 5476TIP3    H116392   7.064   0.191   4.064  0.5183 -0.4551  0.2898
 5476TIP3    H216393   6.933   0.247   4.014 -0.4830  0.1306  3.3569
 5477TIP3   OH216394   0.210   3.642   2.614 -0.5816  0.1398 -0.1755
 5477TIP3    H116395   0.157   3.568   2.584 -1.3847  0.9937 -0.9356
 5477TIP3    H216396   0.291   3.635   2.564  0.3387 -1.5366  1.4459
 5478TIP3   OH216397   0.310   0.778   0.115 -0.4831 -0.4386 -0.3300
 5478TIP3    H116398   0.247   0.774   0.187 -0.4489  0.3338 -0.2525
 5478TIP3    H216399   0.282   0.708   0.055 -0.7773 -0.7923  0.2136
 5479TIP3   OH216400   1.013   1.237   2.972 -0.3244 -0.2074 -0.2714
 5479TIP3    H116401   0.933   1.192   3.001 -0.6046  0.6634  0.3753
 5479TIP3    H216402   1.046   1.279   3.051 -0.9403  2.0103 -1.1270
 5480TIP3   OH216403   2.658   1.215   1.868  0.2104 -0.1194 -0.6212
 5480TIP3    H116404   2.639   1.139   1.923 -0.6973 -0.5875 -1.5490
 5480TIP3    H216405   2.644   1.183   1.779  2.2617  0.4236 -1.2065
 5481TIP3   OH216406   1.063   2.386   4.805 -0.1715  0.6707 -0.2951
 5481TIP3    H116407   1.083   2.474   4.774 -0.2312  0.6362 -0.4333
 5481TIP3    H216408   0.969   2.376   4.792 -0.5087  1.2530  1.4364
 5482TIP3   OH216409   5.344   5.157   5.340 -0.5092  0.0426 -0.4034
 5482TIP3    H116410   5.266   5.209   5.360  0.6813  1.5640  0.5136
 5482TIP3    H216411   5.382   5.199   5.264  0.2295  0.2676  0.0777
 5483TIP3   OH216412   3.023   3.593   0.535 -0.3561  0.3305  0.4628
 5483TIP3    H116413   3.066   3.636   0.610 -0.3025 -0.4159  0.8782
 5483TIP3    H216414   3.047   3.501   0.545 -0.2462  0.2456 -0.5559
 5484TIP3   OH216415   4.056   5.538   3.493 -0.7782  0.1773 -0.0565
 5484TIP3    H116416   4.052   5.477   3.419  0.1774  2.2160 -1.8958
 5484TIP3    H216417   4.099   5.488   3.563  1.6839 -0.7466 -2.0741
 5485TIP3   OH216418   2.952   4.919   3.763  0.0764  0.8132 -0.5051
 5485TIP3    H116419   2.967   4.940   3.671  1.0789  1.1574 -0.2660
 5485TIP3    H216420   2.933   4.825   3.762  0.6792  0.6899 -0.9952
 5486TIP3   OH216421   2.688   0.530   0.403 -0.7723  0.0532  0.7286
 5486TIP3    H116422   2.761   0.587   0.384 -0.1867 -0.0339  2.5223
 5486TIP3    H216423   2.702   0.453   0.348  0.4539  0.0777  0.9804
 5487TIP3   OH216424   6.090   0.483   4.271 -0.1436  0.3172  0.0330
 5487TIP3    H116425   6.184   0.465   4.270 -0.2421 -0.3921  1.3801
 5487TIP3    H216426   6.084   0.578   4.274  0.5334  0.3637  0.0524
 5488TIP3   OH216427   0.044   0.789   1.694 -0.4870  0.2213 -0.0294
 5488TIP3    H116428   0.139   0.795   1.700 -0.5660  3.6978 -0.3110
 5488TIP3    H216429   0.028   0.708   1.646  2.4645  0.6516 -2.0217
 5489TIP3   OH216430   0.907   0.511   0.724 -0.0434 -0.9863 -0.2166
 5489TIP3    H116431   0.953   0.427   0.717  0.2289 -0.7221 -2.2239
 5489TIP3    H216432   0.815   0.487   0.730  0.0044 -1.4586 -1.1038
 5490TIP3   OH216433   1.419   6.766   0.052  0.6327 -0.5973 -0.3293
 5490TIP3    H116434   1.333   6.732   0.078  0.8923 -1.7571 -0.9520
 5490TIP3    H216435   1.399   6.832  -0.015  0.2222 -0.7943 -0.4063
 5491TIP3   OH216436   3.164   4.748   5.217  0.0394  0.0118 -0.5208
 5491TIP3    H116437   3.167   4.832   5.263 -1.1533 -0.5385  0.6297
 5491TIP3    H216438   3.255   4.731   5.193  0.9025 -0.0299  2.3863
 5492TIP3   OH216439   1.014   2.418   5.849 -0.3183 -0.6197  0.0055
 5492TIP3    H116440   0.996   2.504   5.889 -0.8930 -1.0058  0.6021
 5492TIP3    H216441   1.064   2.438   5.770  1.3023  0.1456  1.1757
 5493TIP3   OH216442   4.104   4.203   4.398  0.2562  0.1555  0.1735
 5493TIP3    H116443   4.191   4.215   4.435 -0.3401  0.7980  1.4061
 5493TIP3    H216444   4.068   4.291   4.391 -0.3803 -0.1182 -0.1375
 5494TIP3   OH216445   4.035   2.972   0.459  0.4062  0.4772  0.5877
 5494TIP3    H116446   4.105   2.914   0.427 -1.0895 -1.0999  0.0207
 5494TIP3    H216447   4.048   3.054   0.411  1.8966  0.2574  0.5541
 5495TIP3   OH216448   7.145   1.959   4.525 -0.0188 -0.0876  0.2488
 5495TIP3    H116449   7.215   1.959   4.461  1.7906  0.0307  2.1309
 5495TIP3    H216450   7.128   2.052   4.544  0.2221 -0.1380  0.7285
 5496TIP3   OH216451   1.703   6.658   0.880 -0.4905 -0.2823  0.2422
 5496TIP3    H116452   1.656   6.666   0.963 -0.4739 -0.6761  0.2905
 5496TIP3    H216453   1.636   6.673   0.813 -0.6174 -0.5235  0.3163
 5497TIP3   OH216454   3.210   1.971   5.187 -0.0971 -0.2663  0.0666
 5497TIP3    H116455   3.189   1.898   5.128 -1.1626 -0.7403  1.0016
 5497TIP3    H216456   3.171   1.946   5.271 -0.4492  1.3608  0.4144
 5498TIP3   OH216457   3.278   2.791   4.002 -0.2637 -0.1372 -0.5692
 5498TIP3    H116458   3.186   2.807   4.024 -0.4368  0.1296 -1.4400
 5498TIP3    H216459   3.294   2.844   3.924  0.2576 -1.1709 -1.1956
 5499TIP3   OH216460   3.733   2.988   1.896  0.2249  0.0759 -0.1807
 5499TIP3    H116461   3.656   2.967   1.950  0.1496  3.3406  1.2243
 5499TIP3    H216462   3.702   3.056   1.836  0.8815 -1.9963 -3.0166
 5500TIP3   OH216463   1.339   2.993   4.860  0.6490 -0.5231  0.0178
 5500TIP3    H116464   1.260   2.942   4.846  1.3229 -1.4944 -0.3580
 5500TIP3    H216465   1.396   2.936   4.913  0.9348  0.3263  0.6636
 5501TIP3   OH216466   2.419   6.735   0.295 -0.4560 -0.1783 -0.3148
 5501TIP3    H116467   2.435   6.648   0.258 -0.8259  0.1556 -1.3090
 5501TIP3    H216468   2.482   6.792   0.249 -1.1121  0.2958 -0.6417
 5502TIP3   OH216469   6.814   4.859   0.707 -0.2952 -0.3202  0.1944
 5502TIP3    H116470   6.753   4.865   0.780 -0.2154 -0.4687  0.2742
 5502TIP3    H216471   6.842   4.767   0.706 -0.0395 -0.2451  0.1909
 5503TIP3   OH216472   0.434   1.884   5.130 -0.4330  0.0583 -0.3114
 5503TIP3    H116473   0.372   1.840   5.189 -0.7380  0.1807 -0.5351
 5503TIP3    H216474   0.393   1.968   5.110 -1.1137 -0.6042 -1.9459
 5504TIP3   OH216475   0.318   3.794   4.292 -0.6917  0.1778 -0.0113
 5504TIP3    H116476   0.409   3.819   4.278 -0.7137  0.0527 -0.3730
 5504TIP3    H216477   0.288   3.850   4.364 -0.5880  0.8168 -0.4604
 5505TIP3   OH216478   1.502   0.170   3.216  0.0992 -0.3303 -0.0836
 5505TIP3    H116479   1.481   0.238   3.152  1.5172 -1.0446 -1.3597
 5505TIP3    H216480   1.527   0.219   3.295 -1.2479  0.5687 -0.1794
 5506TIP3   OH216481   5.271   2.842   3.079  0.2781  0.1218 -0.0029
 5506TIP3    H116482   5.318   2.881   3.152 -0.1006  0.4688  0.0603
 5506TIP3    H216483   5.197   2.901   3.064 -0.3307 -0.6057  0.1271
 5507TIP3   OH216484   4.587   3.074   4.416  0.0413 -0.9710  0.7185
 5507TIP3    H116485   4.570   2.988   4.455  0.7487 -1.3784  0.1677
 5507TIP3    H216486   4.675   3.065   4.378 -0.3911 -0.4140 -0.4516
 5508TIP3   OH216487   7.192   4.818   4.855 -0.6822  0.1464 -0.0337
 5508TIP3    H116488   7.260   4.849   4.795 -0.8585 -1.0759 -0.8852
 5508TIP3    H216489   7.121   4.882   4.845 -0.3625  0.4371 -0.4841
 5509TIP3   OH216490   2.734   0.577   1.411  0.2600  0.1453  0.0285
 5509TIP3    H116491   2.693   0.521   1.477  0.8037  0.1780  0.3967
 5509TIP3    H216492   2.775   0.516   1.350 -2.7313 -0.0503 -2.0153
 5510TIP3   OH216493   2.301   3.389   0.465 -0.4810 -0.1126 -0.3856
 5510TIP3    H116494   2.307   3.322   0.533  2.0630  0.8385  0.4486
 5510TIP3    H216495   2.392   3.417   0.451 -1.1424  1.0294 -2.8725
 5511TIP3   OH216496   4.095   0.376   4.403 -0.2428  0.2638  0.6787
 5511TIP3    H116497   4.141   0.304   4.446  1.6892  1.2590  0.4210
 5511TIP3    H216498   4.132   0.378   4.314 -0.6375  1.2449  0.5191
 5512TIP3   OH216499   0.145   0.910   2.205  0.2668  0.4180  0.4220
 5512TIP3    H116500   0.238   0.887   2.217 -0.0070 -1.1325 -0.2780
 5512TIP3    H216501   0.110   0.914   2.294  0.9308  0.7748  0.6783
 5513TIP3   OH216502   0.329   1.229   2.805  0.4686  0.4405  0.1649
 5513TIP3    H116503   0.257   1.258   2.749  1.5016 -1.2155 -2.1944
 5513TIP3    H216504   0.405   1.278   2.773  1.1483 -0.8081 -0.2007
 5514TIP3   OH216505   3.378   5.497   5.259  0.2558 -0.6227 -0.3614
 5514TIP3    H116506   3.364   5.490   5.164 -2.7842 -1.6642  0.0483
 5514TIP3    H216507   3.352   5.586   5.280  0.8709 -0.4116 -0.4591
 5515TIP3   OH216508   1.328   2.919   1.037  0.3624 -0.2893 -0.0388
 5515TIP3    H116509   1.423   2.925   1.051  0.4638 -0.2068 -0.7217
 5515TIP3    H216510   1.318   2.924   0.942 -0.4463  1.3429  0.0987
 5516TIP3   OH216511   2.658   3.405   2.381  0.4961  0.3832  0.0329
 5516TIP3    H116512   2.727   3.411   2.315 -0.3381 -0.9834 -1.0195
 5516TIP3    H216513   2.685   3.332   2.437 -0.4718 -0.7302 -0.9001
 5517TIP3   OH216514   2.334   6.109   4.670  0.3327  0.1370  0.0185
 5517TIP3    H116515   2.242   6.135   4.667 -0.0221 -1.0671 -0.2843
 5517TIP3    H216516   2.382   6.191   4.682 -0.7750  0.7822  0.2019
 5518TIP3   OH216517   1.894   5.978   4.594  0.5034  0.0961 -1.2275
 5518TIP3    H116518   1.896   6.055   4.537  2.1541 -0.2354 -1.6915
 5518TIP3    H216519   1.972   5.988   4.649 -1.7683  1.1366  2.0641
 5519TIP3   OH216520   2.206   4.814   1.210 -0.4072  0.4491 -0.4475
 5519TIP3    H116521   2.282   4.852   1.166  1.3203 -0.7006  1.4072
 5519TIP3    H216522   2.131   4.858   1.169  1.2653  2.4091 -1.6092
 5520TIP3   OH216523   2.053   0.511   2.992  0.2868 -0.4259  0.0585
 5520TIP3    H116524   2.000   0.576   2.946 -0.1658 -0.5696  0.3713
 5520TIP3    H216525   2.047   0.536   3.084  0.8203 -0.4040  0.0907
 5521TIP3   OH216526   4.327   4.616   2.052  0.1048  0.6289 -0.3639
 5521TIP3    H116527   4.339   4.710   2.061 -0.5421  0.5806  1.3011
 5521TIP3    H216528   4.299   4.587   2.139 -0.4569 -0.9840 -1.0487
 5522TIP3   OH216529   4.267   6.512   3.456 -0.1715  1.0996  0.3979
 5522TIP3    H116530   4.315   6.576   3.509 -0.3731  0.7982  0.9530
 5522TIP3    H216531   4.184   6.556   3.436 -0.6498  0.7111  1.4731
 5523TIP3   OH216532   0.769   3.736   5.644 -0.1623 -0.0832  0.1008
 5523TIP3    H116533   0.815   3.708   5.564  0.1957 -1.1262  0.6581
 5523TIP3    H216534   0.699   3.793   5.612 -0.2134 -0.7272 -0.9827
 5524TIP3   OH216535   1.562   6.298   0.368 -0.2004 -1.0199 -0.1211
 5524TIP3    H116536   1.622   6.250   0.312 -0.2822  0.2396 -1.3366
 5524TIP3    H216537   1.617   6.357   0.419 -0.3309 -0.2543 -0.8417
 5525TIP3   OH216538   1.922   0.819   3.627 -0.1328 -0.5659  1.0054
 5525TIP3    H116539   1.998   0.822   3.685 -0.7153  0.6174  1.7354
 5525TIP3    H216540   1.877   0.738   3.650  0.5039 -0.9037  1.0792
 5526TIP3   OH216541   5.377   0.675   5.575  0.6852  0.2562 -0.1652
 5526TIP3    H116542   5.376   0.636   5.487 -0.5919  0.4819 -0.2694
 5526TIP3    H216543   5.451   0.633   5.619  0.8433 -0.4584 -1.0806
 5527TIP3   OH216544   1.736   6.488   0.499  0.1112 -0.1530  0.3996
 5527TIP3    H116545   1.801   6.427   0.535 -1.0418 -2.3193 -0.9638
 5527TIP3    H216546   1.762   6.500   0.408 -1.1620 -0.8283 -0.0899
 5528TIP3   OH216547   0.630   4.565   1.527  0.0451  0.1268  0.1577
 5528TIP3    H116548   0.684   4.513   1.586  0.1043  1.7145  1.5551
 5528TIP3    H216549   0.654   4.534   1.439  1.3866 -0.9205  0.8581
 5529TIP3   OH216550   3.776   6.746   2.218  0.2602  0.0029  0.2358
 5529TIP3    H116551   3.838   6.757   2.146  0.5023 -0.7012  0.3261
 5529TIP3    H216552   3.788   6.824   2.272  0.6722  0.1380 -0.0424
 5530TIP3   OH216553   4.806   3.189   2.882 -0.2788  0.4181 -0.2512
 5530TIP3    H116554   4.719   3.214   2.850 -0.2849 -0.6947 -1.1862
 5530TIP3    H216555   4.807   3.094   2.874  1.3000  0.4753 -0.9958
 5531TIP3   OH216556   3.782   3.710   3.738  0.2456  0.6419  0.1822
 5531TIP3    H116557   3.806   3.780   3.677 -0.3334  1.0627  0.4255
 5531TIP3    H216558   3.805   3.745   3.824  1.0174  0.0677  0.2228
 5532TIP3   OH216559   5.547   4.763   3.276  0.2462  0.2132 -0.1743
 5532TIP3    H116560   5.467   4.721   3.308 -0.3910 -0.3019 -2.2892
 5532TIP3    H216561   5.538   4.855   3.302 -0.4857 -0.0607  0.5908
 5533TIP3   OH216562   4.934   5.926   2.804  0.6789 -0.4725  0.4237
 5533TIP3    H116563   4.968   5.990   2.866 -1.6492  0.1823  1.1059
 5533TIP3    H216564   4.877   5.976   2.746  0.5305 -1.5759 -0.4246
 5534TIP3   OH216565   4.730   5.679   1.613 -0.4507 -0.6109  0.4038
 5534TIP3    H116566   4.697   5.623   1.542  0.5883 -1.1739  0.3482
 5534TIP3    H216567   4.709   5.768   1.585  0.7116 -0.7617 -1.0446
 5535TIP3   OH216568   5.494   0.080   0.582  0.2561 -0.0431  0.1723
 5535TIP3    H116569   5.539   0.135   0.645 -2.0550  0.8866  1.1257
 5535TIP3    H216570   5.503   0.127   0.499 -0.8417  1.3372  0.7862
 5536TIP3   OH216571   5.344   5.481   1.731  0.0283 -0.0611 -0.1908
 5536TIP3    H116572   5.351   5.406   1.791 -0.5762  0.0560  0.0372
 5536TIP3    H216573   5.294   5.448   1.657  0.3148 -0.0576 -0.3853
 5537TIP3   OH216574   3.430   3.767   3.933 -0.0463  0.2769  0.1985
 5537TIP3    H116575   3.384   3.777   3.850  0.5056  0.1284 -0.1339
 5537TIP3    H216576   3.494   3.838   3.932  1.9868 -1.4520 -0.8791
 5538TIP3   OH216577   3.079   0.987   3.592 -0.1283  0.1034  0.8021
 5538TIP3    H116578   2.995   1.015   3.627 -0.8523 -0.4687 -0.4310
 5538TIP3    H216579   3.076   1.010   3.499 -1.2857 -4.9367 -0.6996
 5539TIP3   OH216580   6.635   5.928   3.737  0.6151 -0.3575 -0.6758
 5539TIP3    H116581   6.591   5.882   3.665 -1.1780 -0.5213  0.4688
 5539TIP3    H216582   6.590   6.012   3.742  1.0762 -0.1455 -0.0782
 5540TIP3   OH216583   6.702   6.654   5.335  0.1716 -0.1151  0.5639
 5540TIP3    H116584   6.740   6.701   5.410 -1.5853 -0.3989  1.7003
 5540TIP3    H216585   6.691   6.565   5.367 -1.1854 -0.0961  0.2032
 5541TIP3   OH216586   5.711   1.557   0.325 -0.1535  0.8528  0.4739
 5541TIP3    H116587   5.785   1.501   0.303 -0.3810  1.0181 -0.7745
 5541TIP3    H216588   5.662   1.566   0.243 -1.7432  0.4863  1.3255
 5542TIP3   OH216589   5.481   5.940   3.600 -0.0331 -0.1225 -0.3201
 5542TIP3    H116590   5.548   5.897   3.546  1.7233 -0.1838  1.7834
 5542TIP3    H216591   5.523   5.955   3.684 -1.9013  2.1383  0.3246
 5543TIP3   OH216592   0.500   6.706   0.128 -0.0805 -0.1852 -1.0417
 5543TIP3    H116593   0.480   6.613   0.135 -2.7016  0.4054  0.5314
 5543TIP3    H216594   0.457   6.746   0.204  1.7389  2.2120 -1.1664
 5544TIP3   OH216595   2.822   3.520   2.204  0.9061  0.5955 -0.3681
 5544TIP3    H116596   2.904   3.535   2.251  0.3521 -0.3629  0.9835
 5544TIP3    H216597   2.837   3.557   2.117  2.8126  0.3069 -0.2083
 5545TIP3   OH216598   4.161   0.097   1.708 -0.0012 -0.0824 -0.2403
 5545TIP3    H116599   4.218   0.043   1.763  1.8217 -0.4898 -2.3620
 5545TIP3    H216600   4.173   0.186   1.741  2.7571 -0.0042 -1.2019
 5546TIP3   OH216601   2.341   5.268   4.893 -0.9220  0.2839 -0.0053
 5546TIP3    H116602   2.261   5.282   4.944 -0.0607  1.4486  1.0954
 5546TIP3    H216603   2.343   5.338   4.829 -0.7698  0.2790 -0.0076
 5547TIP3   OH216604   0.207   3.059   3.581 -0.1349 -0.1324 -0.9481
 5547TIP3    H116605   0.251   3.115   3.517  0.0226 -0.1242 -0.8322
 5547TIP3    H216606   0.120   3.044   3.544 -0.9158  1.8303 -0.0278
 5548TIP3   OH216607   4.165   4.874   1.323  0.0962  0.0811 -0.1879
 5548TIP3    H116608   4.208   4.871   1.408 -1.7645 -0.6789  0.7903
 5548TIP3    H216609   4.230   4.912   1.264  2.2451 -1.4489  1.0643
 5549TIP3   OH216610   6.744   0.222   4.475  0.0089 -0.1127 -0.3310
 5549TIP3    H116611   6.702   0.226   4.389 -1.1510  1.2085  0.2553
 5549TIP3    H216612   6.755   0.129   4.493  0.1610 -0.4084 -1.8537
 5550TIP3   OH216613   6.422   4.135   5.693  0.1476  0.6436  0.0975
 5550TIP3    H116614   6.440   4.192   5.767 -1.0325  0.5301  0.4981
 5550TIP3    H216615   6.334   4.100   5.710 -0.4201  1.0986 -1.6502
 5551TIP3   OH216616   6.799   0.449   3.157 -0.2914 -0.4152 -0.2342
 5551TIP3    H116617   6.837   0.521   3.106 -1.3861  0.4921  0.1816
 5551TIP3    H216618   6.851   0.446   3.237 -0.9829  0.7504  0.2860
 5552TIP3   OH216619   2.592   4.852   3.854 -0.4902  0.1938  0.2443
 5552TIP3    H116620   2.610   4.916   3.785 -0.0642 -0.2654 -0.0779
 5552TIP3    H216621   2.649   4.778   3.833  0.0151  0.2508  1.3678
 5553TIP3   OH216622   6.769   6.184   3.187  0.1683  0.2965  0.8290
 5553TIP3    H116623   6.757   6.173   3.282 -0.9415  0.0371  0.6777
 5553TIP3    H216624   6.681   6.204   3.154  0.5209  0.2622 -0.1640
 5554TIP3   OH216625   3.408   6.523   5.390  0.4470  0.0471  0.2680
 5554TIP3    H116626   3.395   6.565   5.305 -0.9273 -1.6114 -0.3907
 5554TIP3    H216627   3.484   6.466   5.377  3.2997  3.1755  1.5855
 5555TIP3   OH216628   1.902   3.906   2.986  0.0628 -0.3698 -0.3330
 5555TIP3    H116629   1.878   3.951   3.067 -0.6347 -0.7242 -0.3321
 5555TIP3    H216630   1.887   3.971   2.917  0.8672  0.0029 -0.1666
 5556TIP3   OH216631   2.283   0.731   1.205  0.5825  0.0052  0.1867
 5556TIP3    H116632   2.263   0.762   1.294 -0.2504 -1.9690  0.7474
 5556TIP3    H216633   2.284   0.636   1.213  1.4680 -0.1844 -1.7451
 5557TIP3   OH216634   6.588   6.260   1.381 -0.1220  0.5534  0.2341
 5557TIP3    H116635   6.575   6.259   1.287  0.7158  0.5971  0.1107
 5557TIP3    H216636   6.682   6.244   1.393 -0.1932  0.6843  1.0532
 5558TIP3   OH216637   5.220   2.107   0.473  0.1867 -0.2570 -0.0384
 5558TIP3    H116638   5.223   2.191   0.427 -0.9070 -1.1856 -1.9630
 5558TIP3    H216639   5.239   2.042   0.404  0.1723 -1.6447  1.2138
 5559TIP3   OH216640   7.065   1.424   2.834  0.0760  0.2062  0.2308
 5559TIP3    H116641   7.062   1.342   2.786  2.7250  0.0541  0.1278
 5559TIP3    H216642   6.983   1.427   2.883 -1.1856 -1.2629 -1.6426
 5560TIP3   OH216643   1.364   3.082   1.289  0.0360 -0.1481 -0.0559
 5560TIP3    H116644   1.453   3.052   1.273 -0.1802  0.7743 -4.2843
 5560TIP3    H216645   1.310   3.030   1.228 -2.2101  0.0423  1.6377
 5561TIP3   OH216646   3.676   5.539   5.002 -0.2203  0.0086  0.0096
 5561TIP3    H116647   3.619   5.467   4.975  1.5021 -1.2531 -0.4046
 5561TIP3    H216648   3.709   5.512   5.088 -0.7200  1.0318  0.5416
 5562TIP3   OH216649   4.685   2.033   1.037 -0.0963 -0.5820 -0.1632
 5562TIP3    H116650   4.718   1.952   0.998  1.1846 -0.4275  0.5321
 5562TIP3    H216651   4.691   2.018   1.131  0.4160  0.4060 -0.0239
 5563TIP3   OH216652   5.559   1.559   4.555  0.2213 -0.4425  0.1359
 5563TIP3    H116653   5.552   1.466   4.575 -1.3544 -0.3357  0.1925
 5563TIP3    H216654   5.518   1.568   4.469 -1.3155  0.4387  0.9188
 5564TIP3   OH216655   6.310   5.514   3.754  0.5561  0.3670  0.1855
 5564TIP3    H116656   6.316   5.604   3.787 -0.3195 -0.3121  2.3845
 5564TIP3    H216657   6.394   5.475   3.777  0.3642  0.2112  0.6400
 5565TIP3   OH216658   1.409   5.690   4.670  0.4564  0.6074 -0.8550
 5565TIP3    H116659   1.337   5.753   4.678  0.1987  0.4070 -1.5720
 5565TIP3    H216660   1.386   5.636   4.594  1.6449  0.9175 -1.4588
 5566TIP3   OH216661   4.639   1.571   1.381 -0.8961 -0.2398  0.9030
 5566TIP3    H116662   4.563   1.536   1.427 -2.1745 -0.2219 -1.1044
 5566TIP3    H216663   4.618   1.662   1.365 -1.4558 -0.7318 -1.5254
 5567TIP3   OH216664   3.237   2.711   0.489 -0.0027 -0.3134  0.2080
 5567TIP3    H116665   3.272   2.655   0.558 -1.5034 -2.1252 -0.4092
 5567TIP3    H216666   3.190   2.651   0.431 -1.1499  1.5264 -0.8700
 5568TIP3   OH216667   0.800   0.974   1.820 -0.2164  0.8125  0.6363
 5568TIP3    H116668   0.810   0.989   1.913  1.7401 -0.4405  0.6910
 5568TIP3    H216669   0.864   0.906   1.800 -1.6368 -0.0476 -1.3383
 5569TIP3   OH216670   5.174   2.616   2.877 -0.1470  0.1290 -0.3949
 5569TIP3    H116671   5.218   2.542   2.920 -2.1643  0.2980  2.2625
 5569TIP3    H216672   5.200   2.692   2.929 -1.2084  0.6567 -0.6129
 5570TIP3   OH216673   4.497   3.034   4.744  0.5232  0.5038 -0.5794
 5570TIP3    H116674   4.575   3.032   4.800  1.9788  0.4020 -2.5276
 5570TIP3    H216675   4.495   3.123   4.710 -0.2684  0.5175 -0.5169
 5571TIP3   OH216676   4.040   4.473   2.145  0.0880 -0.3694 -0.5308
 5571TIP3    H116677   4.093   4.539   2.190  0.5471 -0.6424 -0.6552
 5571TIP3    H216678   3.979   4.523   2.092 -0.3203 -0.0436  0.2299
 5572TIP3   OH216679   0.387   6.384   2.215 -0.5051 -0.0708 -0.0054
 5572TIP3    H116680   0.308   6.386   2.162 -0.5857  0.7073  0.1327
 5572TIP3    H216681   0.372   6.312   2.277  0.8781 -3.1684 -2.9077
 5573TIP3   OH216682   0.395   1.673   4.907 -0.3616  0.0584  0.5134
 5573TIP3    H116683   0.411   1.741   4.973  0.5927  0.5611 -0.2125
 5573TIP3    H216684   0.375   1.595   4.958  0.7727  0.3342  1.4307
 5574TIP3   OH216685   3.255   1.858   0.670  0.4147  0.2541  0.5930
 5574TIP3    H116686   3.173   1.887   0.630  0.3686  0.5116  0.8744
 5574TIP3    H216687   3.231   1.782   0.723  0.1194  1.0971  1.7091
 5575TIP3   OH216688   5.585   4.822   0.906  0.3585 -0.1870  0.0833
 5575TIP3    H116689   5.669   4.825   0.952  1.2744  1.6753 -1.5268
 5575TIP3    H216690   5.587   4.899   0.849 -2.9952  0.6625  0.8878
 5576TIP3   OH216691   6.538   5.219   4.814  0.4037 -0.3650 -0.3054
 5576TIP3    H116692   6.546   5.197   4.721 -0.9482  2.3375 -1.1440
 5576TIP3    H216693   6.503   5.140   4.855  0.2413 -1.3305 -2.2295
 5577TIP3   OH216694   2.552   3.305   2.736 -0.6020 -0.2279  0.1158
 5577TIP3    H116695   2.598   3.275   2.814  0.7271  0.5043 -0.3398
 5577TIP3    H216696   2.609   3.280   2.663 -0.9751  0.5965 -0.4852
 5578TIP3   OH216697   3.135   3.502   1.556 -0.2594 -0.7348  0.2142
 5578TIP3    H116698   3.196   3.535   1.621 -2.7152  0.2119  2.1712
 5578TIP3    H216699   3.189   3.484   1.479  2.1880  1.6446  1.2498
 5579TIP3   OH216700   5.378   1.450   0.342  0.1482  0.3779 -0.1555
 5579TIP3    H116701   5.365   1.360   0.374 -0.0400  0.4080 -0.1452
 5579TIP3    H216702   5.473   1.461   0.339  0.1788  0.0139 -0.6156
 5580TIP3   OH216703   5.761   5.070   3.846 -0.7224 -0.1964  0.0572
 5580TIP3    H116704   5.797   4.990   3.884 -0.2135  0.1870  0.4046
 5580TIP3    H216705   5.821   5.139   3.874  1.0414 -0.1644 -3.3126
 5581TIP3   OH216706   0.323   1.541   3.284 -0.0754 -0.2462 -0.3663
 5581TIP3    H116707   0.390   1.515   3.221  1.0631  0.8099  0.3581
 5581TIP3    H216708   0.261   1.592   3.233  1.2295  1.2456 -0.5396
 5582TIP3   OH216709   4.083   5.284   2.290  0.2732 -0.3685 -0.3496
 5582TIP3    H116710   4.049   5.203   2.327  1.7275  0.0438  2.1374
 5582TIP3    H216711   4.178   5.277   2.300  0.7490  0.1724 -3.4169
 5583TIP3   OH216712   2.546   3.685   0.335 -0.6417  0.1755 -0.1653
 5583TIP3    H116713   2.606   3.662   0.405  0.3025  1.8923 -0.3585
 5583TIP3    H216714   2.460   3.690   0.377 -0.1943  0.5007  0.7234
 5584TIP3   OH216715   1.944   4.328   2.561 -0.0401 -0.5966  0.2030
 5584TIP3    H116716   1.939   4.302   2.653 -0.5092  0.0883  0.3798
 5584TIP3    H216717   2.032   4.302   2.533  0.4895  0.1379  1.1356
 5585TIP3   OH216718   2.617   0.264   0.594 -0.2409  0.1435  0.0649
 5585TIP3    H116719   2.632   0.342   0.541 -1.1925  0.6425  0.5187
 5585TIP3    H216720   2.654   0.286   0.680  1.4893 -0.7398 -0.4038
 5586TIP3   OH216721   6.405   2.548   3.962  0.0251  0.3360  0.3468
 5586TIP3    H116722   6.493   2.531   3.996  0.3762  0.8215 -0.3065
 5586TIP3    H216723   6.408   2.520   3.871 -1.5544 -3.0775  1.1880
 5587TIP3   OH216724   6.222   1.913   5.395 -0.2606 -0.3741  0.1531
 5587TIP3    H116725   6.139   1.868   5.382  0.3867 -1.4703 -0.3885
 5587TIP3    H216726   6.199   1.994   5.439 -1.5565 -0.9021  0.4988
 5588TIP3   OH216727   1.147   2.807   1.444 -0.2599  0.3232 -0.1113
 5588TIP3    H116728   1.229   2.848   1.472 -1.4848  3.3950 -0.7124
 5588TIP3    H216729   1.079   2.854   1.491 -1.8550 -0.4054 -1.5680
 5589TIP3   OH216730   2.889   3.979   5.628 -0.4152 -0.2243 -0.0975
 5589TIP3    H116731   2.824   4.030   5.676  0.7499  0.6219  0.6452
 5589TIP3    H216732   2.857   3.976   5.538  0.2129  3.2218 -0.5487
 5590TIP3   OH216733   0.723   4.802   5.377  0.2734 -0.2374 -0.0039
 5590TIP3    H116734   0.680   4.720   5.403  0.7518 -1.7175 -3.3219
 5590TIP3    H216735   0.666   4.838   5.309  0.7429  1.5344  0.5020
 5591TIP3   OH216736   0.666   1.004   1.552  0.0351  0.1462 -0.1272
 5591TIP3    H116737   0.695   0.968   1.636  1.1640  0.2975 -0.4338
 5591TIP3    H216738   0.621   0.931   1.509 -1.8530  0.4620  1.1686
 5592TIP3   OH216739   4.094   5.174   4.609  0.0173  0.4384 -0.0270
 5592TIP3    H116740   4.123   5.084   4.623  0.8403  0.6548 -0.2821
 5592TIP3    H216741   3.999   5.167   4.601 -0.4333  0.0431  3.7005
 5593TIP3   OH216742   5.890   4.762   0.734 -0.6403 -0.3520  0.2810
 5593TIP3    H116743   5.847   4.698   0.678 -0.2322  0.1264 -0.6061
 5593TIP3    H216744   5.907   4.837   0.676  1.8721 -0.7312  0.4199
 5594TIP3   OH216745   0.587   1.010   2.568 -0.1835 -0.2914 -0.0323
 5594TIP3    H116746   0.617   0.987   2.656  1.2876  0.5199 -0.2762
 5594TIP3    H216747   0.498   0.975   2.562 -0.8876  0.9160  2.3121
 5595TIP3   OH216748   1.942   5.751   0.536  0.4088 -0.4846  0.4922
 5595TIP3    H116749   1.893   5.710   0.466  0.2716  3.7602 -2.2152
 5595TIP3    H216750   1.876   5.785   0.596  0.3962 -0.9814  0.7687
 5596TIP3   OH216751   7.115   3.240   4.222  0.3918  0.2465  0.5348
 5596TIP3    H116752   7.128   3.312   4.283  3.7555  1.3240 -1.2021
 5596TIP3    H216753   7.114   3.281   4.136 -2.7231 -1.3730 -0.3595
 5597TIP3   OH216754   2.762   1.164   3.313 -0.4470  0.0040 -0.4940
 5597TIP3    H116755   2.762   1.079   3.270  1.3399 -0.9423  1.1761
 5597TIP3    H216756   2.825   1.216   3.263 -0.6235 -0.0710 -0.7946
 5598TIP3   OH216757   5.223   1.676   0.354  0.2292  0.5218 -0.0425
 5598TIP3    H116758   5.182   1.703   0.437 -1.3310 -2.9850  0.5176
 5598TIP3    H216759   5.295   1.618   0.381 -0.1977 -0.5368 -1.0933
 5599TIP3   OH216760   3.109   6.344   0.468  0.6248 -0.3593 -0.0774
 5599TIP3    H116761   3.173   6.372   0.533 -0.7927  0.9393  0.8268
 5599TIP3    H216762   3.071   6.425   0.434 -1.3436 -1.0647  0.2858
 5600TIP3   OH216763   6.909   0.029   5.237 -0.4365 -0.0583  0.0258
 5600TIP3    H116764   6.970   0.028   5.311 -0.7626 -0.2237  0.2964
 5600TIP3    H216765   6.961   0.002   5.162 -0.2591 -0.5299  0.3176
 5601TIP3   OH216766   5.470   4.313   1.462  0.2171 -0.9498 -0.0713
 5601TIP3    H116767   5.556   4.280   1.488  0.9210  0.6296 -0.2542
 5601TIP3    H216768   5.415   4.235   1.456  1.0728 -1.8142  2.0991
 5602TIP3   OH216769   5.432   5.762   1.322 -0.1220 -0.5450  0.5059
 5602TIP3    H116770   5.500   5.710   1.366  0.4760 -0.5496 -0.3949
 5602TIP3    H216771   5.405   5.708   1.248 -1.0649 -0.5050  0.8128
 5603TIP3   OH216772   1.063   6.487   0.437  0.2008 -0.1908 -0.5435
 5603TIP3    H116773   1.070   6.582   0.428  2.3266 -0.3732 -1.4026
 5603TIP3    H216774   1.066   6.471   0.531 -1.6890  0.6335 -0.2952
 5604TIP3   OH216775   4.608   5.663   2.517 -0.0341 -0.7084  0.1156
 5604TIP3    H116776   4.685   5.640   2.465 -0.5816  1.2710 -1.7326
 5604TIP3    H216777   4.557   5.721   2.460 -1.3122  0.6102  2.4362
 5605TIP3   OH216778   3.964   3.366   2.463 -0.2250 -0.0279  0.6083
 5605TIP3    H116779   3.879   3.377   2.420 -0.2902  0.9901  0.9856
 5605TIP3    H216780   3.954   3.287   2.517 -1.4471  0.9469  1.8672
 5606TIP3   OH216781   0.926   1.070   0.502  0.4648  0.0099  0.1573
 5606TIP3    H116782   0.848   1.026   0.468  1.9269 -1.3704 -1.6180
 5606TIP3    H216783   0.916   1.065   0.598 -1.8645  0.4039  0.0010
 5607TIP3   OH216784   3.448   1.188   5.809  0.0055 -0.5270 -0.2678
 5607TIP3    H116785   3.499   1.190   5.890 -1.1340 -0.9373  0.4833
 5607TIP3    H216786   3.433   1.095   5.792 -2.0365 -0.4224  0.5803
 5608TIP3   OH216787   3.120   2.964   5.142 -0.6841 -0.1609 -0.5011
 5608TIP3    H116788   3.111   2.947   5.048  0.1187 -0.8394 -0.4735
 5608TIP3    H216789   3.119   3.059   5.150  1.9738  0.0261 -1.5392
 5609TIP3   OH216790   0.100   2.571   5.475  0.0950 -0.1839  0.5033
 5609TIP3    H116791   0.141   2.657   5.470 -2.3939  1.0429 -0.7413
 5609TIP3    H216792   0.152   2.517   5.416  1.1256  0.7211  0.5540
 5610TIP3   OH216793   2.593   1.146   4.153  0.0707 -0.4701 -0.2757
 5610TIP3    H116794   2.533   1.075   4.133  0.0785 -0.4477 -0.3754
 5610TIP3    H216795   2.537   1.223   4.162 -0.3310 -0.9634  2.6353
 5611TIP3   OH216796   2.822   6.223   1.808 -1.0403  0.2795 -0.4149
 5611TIP3    H116797   2.868   6.231   1.725  0.1581  0.7328  0.2624
 5611TIP3    H216798   2.729   6.224   1.785 -0.7277 -1.0648 -1.8586
 5612TIP3   OH216799   0.990   2.830   3.873  0.3191  0.3259  0.0838
 5612TIP3    H116800   1.059   2.896   3.883  2.5393 -1.7743 -0.4470
 5612TIP3    H216801   0.937   2.862   3.800  1.4806  1.4170 -0.3135
 5613TIP3   OH216802   0.265   1.306   3.078  0.5808 -0.2256 -0.2048
 5613TIP3    H116803   0.299   1.309   2.989  0.0872 -0.1643 -0.3945
 5613TIP3    H216804   0.320   1.368   3.127  1.3421 -0.8267 -0.2855
 5614TIP3   OH216805   5.616   0.614   5.674 -0.1517  0.5513 -0.4084
 5614TIP3    H116806   5.672   0.677   5.719 -0.1087 -0.9502  1.8400
 5614TIP3    H216807   5.662   0.594   5.593  0.7664  1.9642 -0.2728
 5615TIP3   OH216808   1.618   2.163   1.030 -0.2830  0.2567 -0.0750
 5615TIP3    H116809   1.706   2.126   1.031 -1.1444 -2.0519 -1.2259
 5615TIP3    H216810   1.580   2.129   0.949 -0.8817  4.6563 -1.9083
 5616TIP3   OH216811   4.823   2.940   2.797 -0.2016 -0.3478  0.0456
 5616TIP3    H116812   4.745   2.886   2.811 -0.7796  0.6416  0.7336
 5616TIP3    H216813   4.861   2.906   2.716 -1.3703 -0.8227 -0.3325
 5617TIP3   OH216814   3.474   1.804   5.549  0.1192 -0.5636 -0.2603
 5617TIP3    H116815   3.474   1.850   5.466 -1.1342  1.7333  0.9239
 5617TIP3    H216816   3.455   1.713   5.526  2.3599 -0.5341 -2.6547
 5618TIP3   OH216817   4.745   2.489   5.720  0.0195 -0.2049 -0.1983
 5618TIP3    H116818   4.748   2.394   5.733  0.6781 -0.2028 -0.3378
 5618TIP3    H216819   4.834   2.519   5.736 -0.2470  0.4329  0.1406
 5619TIP3   OH216820   5.160   5.813   0.103 -1.0139 -0.0485  0.5193
 5619TIP3    H116821   5.242   5.835   0.059 -1.4933  0.8958  0.0696
 5619TIP3    H216822   5.155   5.873   0.177 -1.0028 -0.5330  0.9231
 5620TIP3   OH216823   2.360   5.671   3.234 -0.1525  0.3109 -0.2315
 5620TIP3    H116824   2.344   5.582   3.264  0.8059  0.1927 -0.0417
 5620TIP3    H216825   2.297   5.685   3.163 -0.3020 -0.5211 -0.2657
 5621TIP3   OH216826   2.693   3.999   5.157  0.2242 -0.3969 -0.0092
 5621TIP3    H116827   2.674   4.046   5.075  1.3486 -0.1816 -0.1644
 5621TIP3    H216828   2.648   4.050   5.224  1.2344  0.7989 -0.2092
 5622TIP3   OH216829   1.051   3.887   4.619 -0.2787 -0.5744  0.2150
 5622TIP3    H116830   1.071   3.940   4.697  1.5564 -0.1513 -0.5024
 5622TIP3    H216831   1.098   3.805   4.633 -1.0697 -1.0579  0.1452
 5623TIP3   OH216832   6.421   0.614   4.618  0.0490  0.3337  0.4983
 5623TIP3    H116833   6.437   0.520   4.624 -1.2373  0.0766  0.2046
 5623TIP3    H216834   6.508   0.652   4.604  0.5364 -0.8371  0.2001
 5624TIP3   OH216835   2.102   1.949   1.071  0.1687 -0.0326 -0.1154
 5624TIP3    H116836   2.081   2.032   1.113 -2.8853 -0.2929 -0.9408
 5624TIP3    H216837   2.185   1.965   1.027  0.8424  1.8244  1.6488
 5625TIP3   OH216838   3.254   1.584   0.921 -0.0523 -0.5490 -0.0783
 5625TIP3    H116839   3.268   1.633   1.002  0.1424 -0.5045 -0.1372
 5625TIP3    H216840   3.166   1.548   0.929 -0.2402 -0.0942 -0.0826
 5626TIP3   OH216841   2.264   3.458   3.291 -0.0068 -0.3560  0.3873
 5626TIP3    H116842   2.236   3.432   3.203 -0.4858 -0.0101  0.4361
 5626TIP3    H216843   2.280   3.553   3.284 -0.8065 -0.1830  0.8681
 5627TIP3   OH216844   5.088   0.945   3.729 -0.0164 -0.0403 -0.5146
 5627TIP3    H116845   5.125   0.908   3.809  2.5951  0.8223 -1.2301
 5627TIP3    H216846   5.009   0.991   3.759  0.1576 -0.8354  1.3363
 5628TIP3   OH216847   5.142   4.519   2.586  0.4333 -0.2066  0.0061
 5628TIP3    H116848   5.198   4.581   2.539 -0.1388  1.1571  1.0905
 5628TIP3    H216849   5.204   4.455   2.622  1.0482 -0.1433 -0.8778
 5629TIP3   OH216850   4.024   1.217   3.040 -0.2662  0.2838 -0.0676
 5629TIP3    H116851   4.063   1.295   3.080  0.6315 -0.1941  0.0311
 5629TIP3    H216852   3.943   1.248   3.001  0.3693  1.4060 -0.5575
 5630TIP3   OH216853   6.818   3.430   2.225 -0.2207 -0.6806  0.3048
 5630TIP3    H116854   6.786   3.341   2.208 -0.3659 -0.3358 -1.4744
 5630TIP3    H216855   6.752   3.486   2.185  0.8886  0.1476 -0.4168
 5631TIP3   OH216856   1.511   5.131   5.235 -0.5664  0.4688 -0.0818
 5631TIP3    H116857   1.498   5.185   5.157  1.6821  0.3768 -0.5800
 5631TIP3    H216858   1.506   5.041   5.202 -0.2199  0.4272 -0.0289
 5632TIP3   OH216859   5.435   0.757   2.739  0.4809 -0.5108 -1.3365
 5632TIP3    H116860   5.397   0.822   2.798  1.6414  0.9259 -2.1084
 5632TIP3    H216861   5.378   0.758   2.663 -1.1997 -2.5907 -0.2334
 5633TIP3   OH216862   4.490   3.109   0.962 -0.3455  0.2734 -0.0252
 5633TIP3    H116863   4.541   3.146   1.034  0.6059 -0.4724 -0.2988
 5633TIP3    H216864   4.449   3.185   0.920  0.3142  0.8566  0.3750
 5634TIP3   OH216865   3.677   3.566   5.012 -0.2289 -0.3034 -0.8672
 5634TIP3    H116866   3.674   3.515   5.093 -0.5908 -0.6497 -1.0869
 5634TIP3    H216867   3.757   3.617   5.017 -0.4941  0.0426 -0.0751
 5635TIP3   OH216868   3.307   0.665   3.107 -0.6476 -0.2598 -0.0124
 5635TIP3    H116869   3.318   0.727   3.178  0.2388 -0.8129  0.3637
 5635TIP3    H216870   3.334   0.713   3.029 -1.4622  0.2978  0.0459
 5636TIP3   OH216871   3.488   0.845   4.251 -0.1492  0.1316  0.1056
 5636TIP3    H116872   3.399   0.814   4.234  0.8075 -1.7799 -2.0132
 5636TIP3    H216873   3.506   0.907   4.180 -0.2028  1.5512  1.2931
 5637TIP3   OH216874   5.366   1.526   2.929 -0.5241 -0.1510  0.0935
 5637TIP3    H116875   5.322   1.476   2.861  2.3901 -0.5018 -1.7243
 5637TIP3    H216876   5.373   1.614   2.892  2.2572 -0.6536 -0.8203
 5638TIP3   OH216877   6.365   0.582   3.458  0.0402  0.1835  0.0077
 5638TIP3    H116878   6.317   0.619   3.385  0.3747  1.1166  0.2523
 5638TIP3    H216879   6.332   0.629   3.535  0.3227 -0.1668  0.3488
 5639TIP3   OH216880   2.938   0.696   0.013  0.4054  0.3268 -0.4531
 5639TIP3    H116881   2.953   0.604   0.032 -1.6079 -0.4851 -2.3923
 5639TIP3    H216882   2.847   0.712   0.040  0.5372  1.5897 -0.6785
 5640TIP3   OH216883   4.238   3.716   1.645  0.1034  0.0193 -0.5390
 5640TIP3    H116884   4.185   3.637   1.632 -1.6019  0.5656  2.2271
 5640TIP3    H216885   4.190   3.785   1.599  0.7531 -0.2359 -1.6292
 5641TIP3   OH216886   6.533   2.448   5.695 -0.4663 -0.1000  0.2168
 5641TIP3    H116887   6.447   2.484   5.673 -0.9918  1.5289  4.1442
 5641TIP3    H216888   6.516   2.358   5.722 -0.3278 -0.8928 -2.1012
 5642TIP3   OH216889   5.968   6.389   0.881 -0.0514  0.1888  0.2826
 5642TIP3    H116890   5.894   6.451   0.882  1.4628  2.1284 -0.6722
 5642TIP3    H216891   6.032   6.427   0.941  0.1363 -1.5980  1.2799
 5643TIP3   OH216892   5.292   4.046   2.769 -0.1131  0.6238  0.1582
 5643TIP3    H116893   5.225   4.046   2.838 -0.5796  0.4034 -0.2872
 5643TIP3    H216894   5.293   3.955   2.738  1.6327  0.1936  1.3435
 5644TIP3   OH216895   2.711   3.827   3.928 -0.1746  0.4495  0.1868
 5644TIP3    H116896   2.689   3.861   3.842 -0.4002 -0.5363 -0.1539
 5644TIP3    H216897   2.649   3.869   3.987 -2.3657 -1.4285 -0.6067
 5645TIP3   OH216898   5.069   3.201   0.233 -0.8329 -0.1838  0.1672
 5645TIP3    H116899   5.066   3.112   0.268 -2.0765 -0.1023  0.3119
 5645TIP3    H216900   5.107   3.253   0.304 -0.6186 -0.5055  0.2904
 5646TIP3   OH216901   1.177   6.158   1.451 -0.0675 -0.2302 -0.3156
 5646TIP3    H116902   1.173   6.067   1.423  1.9381 -0.3183 -0.4319
 5646TIP3    H216903   1.260   6.191   1.416 -0.0927  1.2448  0.8925
 5647TIP3   OH216904   5.981   5.959   3.483  0.1172 -0.6305  0.0147
 5647TIP3    H116905   5.951   5.881   3.437  0.5452  0.0164 -1.3840
 5647TIP3    H216906   5.905   5.986   3.536  0.2739 -2.5142  1.2803
 5648TIP3   OH216907   5.163   3.870   3.180 -0.2156 -0.4010  0.1982
 5648TIP3    H116908   5.173   3.887   3.274 -0.5982  0.0278  0.1650
 5648TIP3    H216909   5.072   3.843   3.170 -0.8172  1.6602 -0.3429
 5649TIP3   OH216910   4.597   1.439   0.482  0.5271 -0.3255  0.2584
 5649TIP3    H116911   4.667   1.472   0.425  0.5310 -0.2050  0.3305
 5649TIP3    H216912   4.517   1.448   0.430  0.3243  1.1253  0.7700
 5650TIP3   OH216913   3.516   4.831   0.208  0.1599 -0.0504  0.0879
 5650TIP3    H116914   3.561   4.880   0.139 -0.4569 -0.5527 -0.6853
 5650TIP3    H216915   3.578   4.762   0.233  0.2404 -0.0959 -0.2331
 5651TIP3   OH216916   5.586   1.242   5.866 -0.2814  0.0668  0.1651
 5651TIP3    H116917   5.581   1.315   5.804  0.0806 -0.3306 -0.3404
 5651TIP3    H216918   5.498   1.235   5.902 -1.0692 -0.9865 -1.8094
 5652TIP3   OH216919   2.665   6.466   5.576  0.1151 -0.0853 -0.6156
 5652TIP3    H116920   2.630   6.552   5.554  0.1281 -0.1252 -0.7956
 5652TIP3    H216921   2.606   6.432   5.643  0.6906  0.4843  0.2071
 5653TIP3   OH216922   0.021   5.700   0.347 -0.5683  0.4158 -0.6274
 5653TIP3    H116923  -0.027   5.659   0.275 -1.1810  1.2186 -0.6896
 5653TIP3    H216924   0.104   5.651   0.352 -1.7123 -1.6014  0.0535
 5654TIP3   OH216925   5.741   5.902   4.862 -0.0386  0.3924  0.0651
 5654TIP3    H116926   5.828   5.942   4.863 -0.3393  1.1265 -1.0126
 5654TIP3    H216927   5.750   5.824   4.918  1.3111  0.4367 -0.0434
 5655TIP3   OH216928   0.896   2.347   3.994  0.3199 -0.0979 -0.7864
 5655TIP3    H116929   0.802   2.358   4.007  0.2522 -1.4870  0.0898
 5655TIP3    H216930   0.921   2.420   3.937 -1.2941  0.2361 -1.1142
 5656TIP3   OH216931   4.580   3.829   5.225  0.2540 -0.7980  0.4634
 5656TIP3    H116932   4.667   3.861   5.250 -0.1073  0.0954  0.6211
 5656TIP3    H216933   4.590   3.799   5.134  0.3502  0.8943 -0.1240
 5657TIP3   OH216934   1.476   6.103   4.720  0.0107 -0.1610 -0.1220
 5657TIP3    H116935   1.520   6.098   4.636  0.9083  0.3103  0.3083
 5657TIP3    H216936   1.530   6.052   4.780 -0.4372 -0.2097  0.2530
 5658TIP3   OH216937   2.752   2.493   1.576  0.1679  0.0577  0.2963
 5658TIP3    H116938   2.662   2.521   1.594 -0.0537 -0.1907 -0.4353
 5658TIP3    H216939   2.806   2.553   1.629 -0.4623 -0.5205  1.6332
 5659TIP3   OH216940   2.172   0.853   4.549 -0.4803  0.0171  0.6508
 5659TIP3    H116941   2.262   0.876   4.525  0.2530 -1.9438  1.3472
 5659TIP3    H216942   2.118   0.893   4.480  0.9563  0.7490 -0.1022
 5660TIP3   OH216943   5.798   1.272   0.779 -0.3708  0.0200  0.0806
 5660TIP3    H116944   5.798   1.329   0.702  0.2560 -0.9007 -0.6459
 5660TIP3    H216945   5.819   1.329   0.852  0.8047  0.6398 -0.7010
 5661TIP3   OH216946   0.262   5.062   0.577 -0.0389 -0.3634 -0.5620
 5661TIP3    H116947   0.195   5.121   0.541  0.5341  1.4705  1.1523
 5661TIP3    H216948   0.342   5.087   0.532  0.3900  0.9340  0.7966
 5662TIP3   OH216949   3.287   0.168   1.386  0.0942  0.2182 -0.1907
 5662TIP3    H116950   3.316   0.079   1.404 -1.8955 -0.1533  1.4290
 5662TIP3    H216951   3.352   0.224   1.429  0.7401 -0.4533 -0.2752
 5663TIP3   OH216952   6.809   3.717   4.186  0.1144  0.3420  0.7131
 5663TIP3    H116953   6.834   3.810   4.187 -0.6154  0.6327 -1.5498
 5663TIP3    H216954   6.887   3.672   4.153 -0.2728  0.4807 -0.4442
 5664TIP3   OH216955   6.955   5.687   4.483  0.1140  0.2744  0.0255
 5664TIP3    H116956   6.939   5.594   4.502 -0.0118  0.7429  2.5982
 5664TIP3    H216957   7.050   5.693   4.474  0.1027 -0.1396 -0.4062
 5665TIP3   OH216958   2.267   0.113   0.613  0.1481 -0.1809  0.3308
 5665TIP3    H116959   2.351   0.080   0.583 -0.4243 -1.2094 -0.1685
 5665TIP3    H216960   2.250   0.189   0.558 -1.0869 -2.2708 -2.3811
 5666TIP3   OH216961   3.635   0.364   0.843  0.0549  0.3483  0.2399
 5666TIP3    H116962   3.671   0.290   0.794 -1.8034  0.3735 -1.2888
 5666TIP3    H216963   3.675   0.441   0.802  2.1368  0.2754  1.9555
 5667TIP3   OH216964   0.161   3.651   3.441  0.7086 -0.0966 -0.4682
 5667TIP3    H116965   0.153   3.710   3.365 -1.1807  2.6423  1.6257
 5667TIP3    H216966   0.249   3.666   3.474  0.7533  0.4716 -0.8269
 5668TIP3   OH216967   6.093   0.592   4.814 -0.2701 -0.7684 -0.2782
 5668TIP3    H116968   6.118   0.526   4.749 -0.4585 -0.3509 -0.7806
 5668TIP3    H216969   6.159   0.661   4.804 -0.5950 -0.4737 -0.3701
 5669TIP3   OH216970   2.568   2.674   3.348 -0.3149  0.7818  0.3617
 5669TIP3    H116971   2.636   2.726   3.392 -0.1923  1.9169 -1.0700
 5669TIP3    H216972   2.535   2.615   3.415  2.7763 -0.5434  0.9029
 5670TIP3   OH216973   0.406   2.495   2.150 -0.6772  0.5069 -0.0798
 5670TIP3    H116974   0.441   2.480   2.063 -0.1528  0.7910  0.0832
 5670TIP3    H216975   0.448   2.428   2.205 -0.1852  1.0093  0.1656
 5671TIP3   OH216976   6.029   6.790   2.071  0.2907  0.0627 -0.1968
 5671TIP3    H116977   6.001   6.832   2.152 -1.1331 -1.8210  0.3477
 5671TIP3    H216978   6.097   6.728   2.097  1.0404  0.6546 -0.7090
 5672TIP3   OH216979   5.674   3.610   3.470 -0.0572 -0.9544 -0.5017
 5672TIP3    H116980   5.612   3.614   3.397 -0.5754  0.6056 -0.0166
 5672TIP3    H216981   5.750   3.660   3.440  0.8081 -2.4372 -0.8997
 5673TIP3   OH216982   6.692   0.110   1.160 -0.5087 -0.3393 -0.3745
 5673TIP3    H116983   6.674   0.195   1.119  0.1832  1.2062  2.2916
 5673TIP3    H216984   6.705   0.050   1.086 -1.9375  1.6274 -2.3627
 5674TIP3   OH216985   7.190   3.647   4.772 -0.2636 -0.4763  0.2054
 5674TIP3    H116986   7.138   3.586   4.718 -1.4438  0.5206  0.1819
 5674TIP3    H216987   7.148   3.732   4.758  1.9982  0.5722 -0.6069
 5675TIP3   OH216988   5.629   5.475   5.379  0.1751  0.1242  0.2449
 5675TIP3    H116989   5.541   5.465   5.345  0.4014 -0.4113 -0.2017
 5675TIP3    H216990   5.647   5.393   5.425  1.6010 -1.1938 -2.3977
 5676TIP3   OH216991   6.513   3.011   3.520 -0.6819  0.5722 -0.1968
 5676TIP3    H116992   6.528   2.936   3.578 -0.9209  0.3295 -0.4462
 5676TIP3    H216993   6.593   3.016   3.467  0.0432  1.5186  0.9360
 5677TIP3   OH216994   4.894   0.749   3.982 -0.0610 -0.1671  0.3381
 5677TIP3    H116995   4.942   0.675   4.018 -1.2831 -0.6026  1.1187
 5677TIP3    H216996   4.801   0.724   3.990 -0.4349  0.2053 -2.0369
 5678TIP3   OH216997   2.717   1.305   5.225  0.4270  0.1290 -0.1490
 5678TIP3    H116998   2.739   1.384   5.275 -2.4258  2.2617 -1.9922
 5678TIP3    H216999   2.641   1.268   5.270  1.1066 -1.0283  0.0909
 5679TIP3   OH217000   2.487   5.440   0.633  0.4787  0.5079  0.2677
 5679TIP3    H117001   2.454   5.496   0.562 -0.1579  0.5171  0.5643
 5679TIP3    H217002   2.432   5.462   0.708  0.0231 -0.7235  0.3083
 5680TIP3   OH217003   1.092   6.707   4.704 -0.2515  0.0299  0.5515
 5680TIP3    H117004   1.153   6.756   4.759 -0.1979  0.8902 -0.2701
 5680TIP3    H217005   1.062   6.769   4.638  0.9171 -1.3732 -1.4252
 5681TIP3   OH217006   6.713   6.276   4.597  0.1011 -0.6099 -0.0924
 5681TIP3    H117007   6.758   6.335   4.657  1.6137 -1.8316  0.0447
 5681TIP3    H217008   6.705   6.326   4.516 -0.9431  0.6490  0.7455
 5682TIP3   OH217009   0.453   5.924   2.458  0.5114  0.1912  0.2759
 5682TIP3    H117010   0.368   5.905   2.418  0.5632  0.8485 -0.1519
 5682TIP3    H217011   0.516   5.908   2.389  0.7878 -0.7594  0.7307
 5683TIP3   OH217012   6.963   1.100   1.885  0.2838  0.4337 -0.2077
 5683TIP3    H117013   7.048   1.113   1.843  0.1021 -0.3213 -0.8188
 5683TIP3    H217014   6.981   1.044   1.959  0.2703  0.0006 -0.5299
 5684TIP3   OH217015   0.516   1.436   2.080  0.5152 -0.0066 -0.7830
 5684TIP3    H117016   0.557   1.350   2.079  0.0969 -0.2068 -1.9355
 5684TIP3    H217017   0.568   1.486   2.142  1.2624 -0.8433 -0.7048
 5685TIP3   OH217018   6.670   6.088   2.362 -0.0480 -0.2351 -0.2288
 5685TIP3    H117019   6.577   6.101   2.382 -0.4502 -1.9182 -0.8868
 5685TIP3    H217020   6.708   6.055   2.444 -0.3621 -1.0348 -0.4021
 5686TIP3   OH217021   4.726   3.283   0.984 -0.1318  0.4969  0.3123
 5686TIP3    H117022   4.699   3.245   0.901  1.4817  0.1470 -0.0782
 5686TIP3    H217023   4.813   3.247   1.001 -0.3433  0.6943  2.0774
 5687TIP3   OH217024   5.270   5.033   1.917  0.1076 -0.1085  0.7549
 5687TIP3    H117025   5.299   5.021   1.827 -0.7689  3.6345 -0.2386
 5687TIP3    H217026   5.193   4.977   1.926 -0.9681  0.8833 -1.5685
 5688TIP3   OH217027   2.939   6.049   3.241 -0.6584 -0.1826 -0.2430
 5688TIP3    H117028   2.973   5.987   3.306  0.1567  1.1604  0.6627
 5688TIP3    H217029   2.961   6.009   3.156 -1.4626 -1.8176  0.2679
 5689TIP3   OH217030   5.758   3.624   2.812 -0.2510  0.0661 -0.4664
 5689TIP3    H117031   5.674   3.648   2.851  0.3624 -0.9767  1.7293
 5689TIP3    H217032   5.747   3.532   2.786  0.0340  0.0696 -0.6043
 5690TIP3   OH217033   6.677   4.228   0.151  0.7984 -0.6674 -0.6025
 5690TIP3    H117034   6.631   4.312   0.147  0.3528 -0.8901 -0.3379
 5690TIP3    H217035   6.672   4.194   0.062  1.4729 -0.1638 -0.8442
 5691TIP3   OH217036   4.273   1.308   1.309 -0.0320  0.0364  0.2613
 5691TIP3    H117037   4.308   1.237   1.256  0.9430  0.6749  0.0236
 5691TIP3    H217038   4.290   1.387   1.258 -0.6809  0.4906  0.7274
 5692TIP3   OH217039   2.307   6.248   0.416 -0.1405 -0.0890 -0.2845
 5692TIP3    H117040   2.256   6.177   0.453 -0.2866  0.5405  0.7751
 5692TIP3    H217041   2.359   6.282   0.489 -0.7606  1.4808 -0.5197
 5693TIP3   OH217042   4.136   5.255   2.712  0.0885 -0.5763  0.1366
 5693TIP3    H117043   4.056   5.240   2.762 -0.1770 -1.5208 -0.5380
 5693TIP3    H217044   4.207   5.241   2.775 -0.2533 -0.4413  0.5595
 5694TIP3   OH217045   1.631   3.624   4.208 -0.1844  0.2821 -0.0676
 5694TIP3    H117046   1.715   3.629   4.162  0.6022  0.6933  1.3542
 5694TIP3    H217047   1.654   3.599   4.297 -1.6090  0.1620  0.2912
 5695TIP3   OH217048   1.558   2.011   4.342 -0.2280 -0.3576 -0.0464
 5695TIP3    H117049   1.567   2.086   4.283  0.5344 -0.6287 -0.2885
 5695TIP3    H217050   1.469   1.979   4.326 -0.6392  0.6205  0.2238
 5696TIP3   OH217051   4.356   5.009   4.444  0.0774  0.0463  0.1983
 5696TIP3    H117052   4.292   4.991   4.512 -1.0714  2.9913  0.0461
 5696TIP3    H217053   4.411   5.079   4.480  0.9773 -0.0109 -0.9936
 5697TIP3   OH217054   5.876   3.374   2.501 -0.7698  0.1712 -0.4783
 5697TIP3    H117055   5.901   3.302   2.444  0.8737  0.7901 -0.6199
 5697TIP3    H217056   5.858   3.447   2.442  0.1622  0.5902 -0.2703
 5698TIP3   OH217057   1.945   1.171   5.099 -0.2538 -0.0346 -0.6008
 5698TIP3    H117058   1.954   1.198   5.008  0.7422 -0.3860 -0.6177
 5698TIP3    H217059   1.922   1.252   5.146  1.2545  0.5851 -0.8660
 5699TIP3   OH217060   2.055   5.141   2.688  0.3392  0.0960 -0.2007
 5699TIP3    H117061   1.984   5.077   2.694 -0.3773  1.0112  2.2919
 5699TIP3    H217062   2.134   5.088   2.673 -0.8271 -0.8794 -4.2241
 5700TIP3   OH217063   4.588   5.152   4.567  0.0474  0.2421  0.3901
 5700TIP3    H117064   4.606   5.126   4.657  0.9010 -0.3547  0.0623
 5700TIP3    H217065   4.553   5.240   4.574  0.1999  0.2418  1.2991
 5701TIP3   OH217066   1.924   6.018   4.307  0.0101  0.2708  0.4781
 5701TIP3    H117067   1.948   6.014   4.214 -1.2330 -1.1399  0.1951
 5701TIP3    H217068   1.901   6.110   4.321 -1.5955  0.1742 -1.1045
 5702TIP3   OH217069   5.420   0.216   5.783 -0.5157 -0.1006  0.7740
 5702TIP3    H117070   5.393   0.146   5.723  0.1174  0.3087 -0.0029
 5702TIP3    H217071   5.448   0.170   5.863 -0.8917 -0.6793  0.5796
 5703TIP3   OH217072   3.669   6.069   5.262 -0.6977  0.5279  0.1610
 5703TIP3    H117073   3.748   6.028   5.228 -0.0601  1.0104  1.0062
 5703TIP3    H217074   3.615   5.996   5.293 -1.5622  0.0195 -2.3047
 5704TIP3   OH217075   0.917   3.298   2.638 -0.0101  0.5482 -0.0944
 5704TIP3    H117076   0.844   3.252   2.680 -0.0375  0.7602  0.0891
 5704TIP3    H217077   0.948   3.237   2.571 -0.0117  0.2372  0.1861
 5705TIP3   OH217078   0.085   0.837   1.223  0.2428  0.1396  0.4965
 5705TIP3    H117079   0.119   0.900   1.287  1.7287 -0.5294  0.4213
 5705TIP3    H217080   0.152   0.768   1.220 -0.0910 -0.1638 -1.3046
 5706TIP3   OH217081   4.166   2.867   1.526  0.1305  0.0478  0.0830
 5706TIP3    H117082   4.133   2.821   1.604  2.2352  0.3595  1.2150
 5706TIP3    H217083   4.087   2.902   1.485 -1.0067  0.5275  2.4810
 5707TIP3   OH217084   0.567   4.628   2.225 -0.0009 -0.0791  0.5512
 5707TIP3    H117085   0.646   4.639   2.277  1.0015 -0.4220 -0.8293
 5707TIP3    H217086   0.559   4.533   2.213  0.1399  0.0209 -0.4018
 5708TIP3   OH217087   1.581   0.872   4.337  0.4157 -0.6691 -0.2169
 5708TIP3    H117088   1.654   0.850   4.280  0.6090 -1.1745  0.2185
 5708TIP3    H217089   1.554   0.789   4.376 -0.1359 -0.4317 -0.0675
 5709TIP3   OH217090   5.811   1.734   1.837  0.2890 -0.3830  0.0683
 5709TIP3    H117091   5.856   1.694   1.911  0.8817  2.5572  1.4294
 5709TIP3    H217092   5.721   1.748   1.867 -0.0845 -1.2038 -0.6237
 5710TIP3   OH217093   6.408   0.603   2.185 -1.0577 -0.0594  0.0193
 5710TIP3    H117094   6.454   0.583   2.103  0.2102 -0.2053  0.7433
 5710TIP3    H217095   6.471   0.582   2.254 -1.8255  0.8014  1.0195
 5711TIP3   OH217096   3.244   4.268   2.155 -0.2375 -0.0737  0.1491
 5711TIP3    H117097   3.319   4.324   2.179 -1.3780  0.6329  2.3696
 5711TIP3    H217098   3.199   4.317   2.086 -0.5329  1.2234  1.2116
 5712TIP3   OH217099   6.891   4.856   1.460  0.2894 -0.2918 -0.1694
 5712TIP3    H117100   6.958   4.818   1.405  0.7358 -0.2372  0.3302
 5712TIP3    H217101   6.899   4.951   1.448 -0.5252 -0.3170 -1.0651
 5713TIP3   OH217102   3.265   3.151   1.228 -0.3069 -0.2600 -0.2533
 5713TIP3    H117103   3.227   3.070   1.260 -1.6486  0.7095  0.6940
 5713TIP3    H217104   3.192   3.201   1.192  0.5278  0.4491 -1.0550
 5714TIP3   OH217105   0.824   2.972   5.031  0.3462 -0.2298 -0.3802
 5714TIP3    H117106   0.890   2.983   5.099 -0.5016 -0.3316  0.4812
 5714TIP3    H217107   0.846   2.890   4.989 -0.8002 -1.7184  1.7443
 5715TIP3   OH217108   3.763   3.253   3.990 -0.0838  0.1018  0.3386
 5715TIP3    H117109   3.775   3.165   4.025 -0.3750  0.6198  1.8118
 5715TIP3    H217110   3.723   3.240   3.904  2.9536 -1.3326 -1.0328
 5716TIP3   OH217111   5.781   5.492   5.877  0.7270 -0.3816 -0.2289
 5716TIP3    H117112   5.817   5.439   5.806 -0.6053 -0.4319 -0.9161
 5716TIP3    H217113   5.794   5.582   5.848 -0.5406 -0.4024 -0.9810
 5717TIP3   OH217114   3.425   2.878   1.467  0.3425 -0.4748  0.4774
 5717TIP3    H117115   3.434   2.928   1.548 -2.6622 -0.8321  1.1430
 5717TIP3    H217116   3.474   2.797   1.483  0.4225 -0.2141  1.6176
 5718TIP3   OH217117   3.917   2.908   4.975 -0.3336  0.3163  0.7026
 5718TIP3    H117118   3.954   2.898   5.063 -0.9638 -0.1582  0.9149
 5718TIP3    H217119   3.875   2.994   4.977  0.2649  0.6185  0.6336
 5719TIP3   OH217120   5.766   0.582   0.047 -0.2089  0.2336  0.4391
 5719TIP3    H117121   5.858   0.609   0.044 -0.0868  0.1537  2.0746
 5719TIP3    H217122   5.717   0.664   0.053 -0.1429  0.2528  0.7848
 5720TIP3   OH217123   2.260   1.227   5.072 -0.6589 -0.1523 -0.2196
 5720TIP3    H117124   2.280   1.192   4.985 -2.9984  1.2124 -1.3909
 5720TIP3    H217125   2.191   1.170   5.106  1.0059 -1.3747  1.3259
 5721TIP3   OH217126   2.158   1.440   5.239 -0.1837  0.4418 -0.6629
 5721TIP3    H117127   2.176   1.378   5.168 -2.9851  1.6642 -2.6407
 5721TIP3    H217128   2.239   1.489   5.248  1.2535 -1.7665 -0.8257
 5722TIP3   OH217129   1.746   1.500   2.649  0.3914  0.0768  0.5797
 5722TIP3    H117130   1.701   1.479   2.731 -0.3710 -0.6549 -0.0050
 5722TIP3    H217131   1.755   1.416   2.604  0.9599  0.4411 -0.0074
 5723TIP3   OH217132   3.869   3.254   2.713  0.1853  0.2958 -0.2208
 5723TIP3    H117133   3.846   3.338   2.753 -0.4702 -0.1221  0.3074
 5723TIP3    H217134   3.804   3.193   2.747  0.6856 -0.4402 -0.5583
 5724TIP3   OH217135   3.734   2.490   5.206  0.8922  0.2749  0.2329
 5724TIP3    H117136   3.735   2.407   5.158  0.1262 -1.1957  2.5838
 5724TIP3    H217137   3.826   2.513   5.215  1.2783 -1.5494  1.4475
 5725TIP3   OH217138   6.043   5.934   2.979 -0.4134 -0.7014  0.4510
 5725TIP3    H117139   6.128   5.924   3.021  0.0462 -0.2990 -0.3611
 5725TIP3    H217140   5.979   5.923   3.050  0.2830 -1.6201  0.9608
 5726TIP3   OH217141   2.275   3.305   1.056  0.1492  0.5905 -0.1357
 5726TIP3    H117142   2.205   3.354   1.099 -0.1130  1.4676 -1.5155
 5726TIP3    H217143   2.333   3.279   1.128 -1.0804  0.6504  0.9215
 5727TIP3   OH217144   0.791   3.360   0.464 -0.9041  0.0106 -0.4325
 5727TIP3    H117145   0.744   3.304   0.402  0.1655  0.8391 -2.0691
 5727TIP3    H217146   0.752   3.446   0.454 -0.7298  0.1569  0.0855
 5728TIP3   OH217147   7.017   0.437   2.117  0.7969 -0.7287 -0.1871
 5728TIP3    H117148   7.034   0.530   2.129 -0.7957 -0.4450  0.1499
 5728TIP3    H217149   7.098   0.394   2.142  1.2605  0.5241  0.5391
 5729TIP3   OH217150   3.131   3.245   5.340 -0.3179 -0.4007 -0.3701
 5729TIP3    H117151   3.161   3.336   5.335 -0.7093 -0.2997 -0.9207
 5729TIP3    H217152   3.172   3.211   5.419  1.4031 -0.3249 -1.1943
 5730TIP3   OH217153   6.335   3.270   2.811  0.7063 -0.0318 -0.0480
 5730TIP3    H117154   6.380   3.308   2.887  1.7457  0.5256 -0.9126
 5730TIP3    H217155   6.369   3.181   2.804  1.7241  0.3932 -0.7082
 5731TIP3   OH217156   6.362   0.159   4.075  0.2690  0.4924 -0.3837
 5731TIP3    H117157   6.272   0.128   4.068 -0.4823  2.1048  1.3098
 5731TIP3    H217158   6.393   0.163   3.984 -1.4829  0.2346 -1.0275
 5732TIP3   OH217159   6.641   0.838   0.340  0.4944  0.1742 -0.1996
 5732TIP3    H117160   6.663   0.825   0.248  0.1177  1.0314 -0.4268
 5732TIP3    H217161   6.713   0.799   0.388  1.4205  0.9910 -0.8858
 5733TIP3   OH217162   2.121   5.203   5.143 -0.1849  0.0802 -0.2698
 5733TIP3    H117163   2.041   5.254   5.135 -0.3125 -0.3320 -1.7810
 5733TIP3    H217164   2.189   5.267   5.163 -0.5263  0.7042 -1.0815
 5734TIP3   OH217165   3.119   0.682   0.443  0.3821  0.3013 -0.4086
 5734TIP3    H117166   3.032   0.720   0.441  0.3109  0.1729  0.2032
 5734TIP3    H217167   3.178   0.756   0.427  0.1960  0.5000 -0.1765
 5735TIP3   OH217168   5.014   5.902   1.958  0.4291 -0.0728  0.3670
 5735TIP3    H117169   5.078   5.833   1.939  0.3124 -0.5752  1.7004
 5735TIP3    H217170   5.045   5.942   2.039 -1.2765 -0.7755  1.4195
 5736TIP3   OH217171   3.246   5.822   1.258  0.6021 -0.1656  0.0983
 5736TIP3    H117172   3.287   5.759   1.317 -1.6466 -1.2362  0.6331
 5736TIP3    H217173   3.264   5.789   1.171  2.3927  0.4149  0.2153
 5737TIP3   OH217174   3.571   4.938   5.803  0.1700  0.1588 -0.2568
 5737TIP3    H117175   3.494   4.897   5.842  0.5002  0.8119  1.1557
 5737TIP3    H217176   3.645   4.896   5.847  0.6082  0.0308 -1.0996
 5738TIP3   OH217177   2.575   1.000   5.034  0.1541  0.1152 -0.4532
 5738TIP3    H117178   2.611   0.936   5.095  0.8111  0.8859 -0.0232
 5738TIP3    H217179   2.558   0.950   4.954  2.3456 -0.2693 -0.7405
 5739TIP3   OH217180   0.364   2.902   0.177 -0.1306  0.3130 -0.5585
 5739TIP3    H117181   0.405   2.816   0.161  1.6682  0.8555  0.7890
 5739TIP3    H217182   0.426   2.965   0.140  0.1284  1.1526  1.1992
 5740TIP3   OH217183   1.513   1.459   2.274  0.0125 -0.1230 -0.1396
 5740TIP3    H117184   1.517   1.364   2.290 -1.5041 -0.1853  0.0158
 5740TIP3    H217185   1.433   1.471   2.223  0.4479  1.0328 -0.5654
 5741TIP3   OH217186   4.906   2.010   2.758 -0.0005 -0.2978  0.2274
 5741TIP3    H117187   4.967   2.083   2.759 -0.3857  0.0534 -0.6651
 5741TIP3    H217188   4.823   2.048   2.730 -0.6518 -0.7654  1.4112
 5742TIP3   OH217189   3.865   5.636   0.810  0.5738 -0.2794  0.0400
 5742TIP3    H117190   3.845   5.670   0.723  1.4482 -0.8474 -0.3923
 5742TIP3    H217191   3.807   5.686   0.868  0.1712  0.2996 -0.8233
 5743TIP3   OH217192   3.293   6.024   3.356  0.1076  0.1105 -0.5213
 5743TIP3    H117193   3.287   5.948   3.414  2.6840 -1.2340 -1.8401
 5743TIP3    H217194   3.246   5.998   3.277  0.0662  0.3267 -0.5686
 5744TIP3   OH217195   4.977   1.917   2.465 -0.6011 -0.0471 -0.2587
 5744TIP3    H117196   5.030   1.991   2.435 -0.4681 -0.4012 -0.9271
 5744TIP3    H217197   4.938   1.947   2.547  0.6686  0.1999  0.2710
 5745TIP3   OH217198   1.245   1.821   4.598  0.2012  0.3587 -0.2326
 5745TIP3    H117199   1.286   1.839   4.514 -1.1690  1.1157 -0.7590
 5745TIP3    H217200   1.166   1.772   4.576  0.7114 -0.9700  0.7543
 5746TIP3   OH217201   6.394   4.985   0.918  0.0942 -0.0849 -0.5158
 5746TIP3    H117202   6.367   5.077   0.922  1.1057  0.2264 -0.4662
 5746TIP3    H217203   6.312   4.936   0.919 -0.4470  0.7561  1.1637
 5747TIP3   OH217204   1.088   1.041   0.888  0.1511  0.3100 -0.0593
 5747TIP3    H117205   1.099   1.113   0.825 -1.4999  0.9815  0.3708
 5747TIP3    H217206   0.994   1.041   0.908  0.3164 -1.2469  0.8180
 5748TIP3   OH217207   6.118   6.395   0.242  0.0490  0.7850 -0.2835
 5748TIP3    H117208   6.125   6.318   0.298  0.8778  0.5838 -0.6526
 5748TIP3    H217209   6.030   6.428   0.259  0.4017  0.9388  1.3935
 5749TIP3   OH217210   4.284  -0.024   5.035 -0.0974  0.2529 -0.2804
 5749TIP3    H117211   4.364   0.021   5.062  0.0292 -0.1147 -0.0261
 5749TIP3    H217212   4.255   0.022   4.956  1.6754 -1.0782 -1.7989
 5750TIP3   OH217213   5.993   1.132   1.761 -0.1276  0.0603  0.0792
 5750TIP3    H117214   5.967   1.070   1.693  0.2296 -0.1940  0.1725
 5750TIP3    H217215   6.083   1.157   1.739  0.6623 -1.4085  1.4469
 5751TIP3   OH217216   6.074   4.961   1.097 -0.3726  0.3015  0.1220
 5751TIP3    H117217   6.111   4.903   1.031  0.1748  0.2976  0.4329
 5751TIP3    H217218   6.049   5.040   1.048 -0.8789 -0.0790 -0.2550
 5752TIP3   OH217219   1.504   2.536   2.853  0.0378  0.5517 -0.0963
 5752TIP3    H117220   1.461   2.561   2.772  0.7968  0.1148 -0.6480
 5752TIP3    H217221   1.532   2.445   2.839 -0.1935  0.3343  0.8077
 5753TIP3   OH217222   4.122   4.294   0.920 -0.5484 -0.5451  0.5262
 5753TIP3    H117223   4.031   4.319   0.933 -0.4334  0.1473  0.0566
 5753TIP3    H217224   4.119   4.231   0.848 -0.5151  0.7039 -0.6160
 5754TIP3   OH217225   5.048   4.919   0.851 -0.0062 -0.1208  0.3961
 5754TIP3    H117226   5.002   4.876   0.923  0.8665 -0.2138  0.9116
 5754TIP3    H217227   5.140   4.921   0.879  0.2505  0.3855 -0.4498
 5755TIP3   OH217228   5.287   2.794   2.593  0.3596  0.2219 -0.0189
 5755TIP3    H117229   5.301   2.802   2.688 -1.1594  1.0781  0.1654
 5755TIP3    H217230   5.320   2.876   2.557  0.8245 -0.0539 -0.2347
 5756TIP3   OH217231   0.546   4.048   0.938  0.1445  0.3823 -0.1121
 5756TIP3    H117232   0.521   4.114   0.874 -0.7949 -0.1534 -0.3127
 5756TIP3    H217233   0.531   3.964   0.894  0.2390  0.0178  0.5286
 5757TIP3   OH217234   2.881   4.603   2.620 -0.5104 -0.3687 -0.3548
 5757TIP3    H117235   2.946   4.567   2.681 -1.0570 -0.8306 -0.0315
 5757TIP3    H217236   2.928   4.614   2.538  0.4245  0.8785  0.3020
 5758TIP3   OH217237   1.191   4.748   2.524 -0.0249 -0.3608  0.5978
 5758TIP3    H117238   1.099   4.752   2.495  0.8170  0.0938 -2.3668
 5758TIP3    H217239   1.221   4.662   2.496  1.0776  0.4288 -0.8257
 5759TIP3   OH217240   1.778   2.532   4.109  0.4066  0.2365  0.0640
 5759TIP3    H117241   1.686   2.556   4.118  0.5041  0.1689  1.5809
 5759TIP3    H217242   1.785   2.494   4.021 -1.2512 -0.7780  0.3274
 5760TIP3   OH217243   5.841   5.629   2.023 -0.1382 -0.5700  0.0879
 5760TIP3    H117244   5.878   5.649   1.937  1.4984 -1.9473  0.4267
 5760TIP3    H217245   5.831   5.534   2.023 -2.0097 -0.4167  0.7245
 5761TIP3   OH217246   1.439   3.453   4.824 -0.0776 -0.1425 -0.0670
 5761TIP3    H117247   1.428   3.390   4.895 -1.3472 -0.5910 -0.6364
 5761TIP3    H217248   1.424   3.402   4.744 -1.1895  0.8734 -0.5394
 5762TIP3   OH217249   3.878   3.956   2.808  0.2085  0.3060 -0.7637
 5762TIP3    H117250   3.914   3.952   2.719  0.7712 -0.9336 -0.4960
 5762TIP3    H217251   3.955   3.952   2.865 -0.2307 -0.4725 -0.2103
 5763TIP3   OH217252   1.306   4.546   2.377 -0.3561  0.1310 -0.0431
 5763TIP3    H117253   1.288   4.541   2.283  1.9082  0.7999 -0.5757
 5763TIP3    H217254   1.392   4.503   2.387 -1.4831 -1.8625  2.0760
 5764TIP3   OH217255   3.256   3.710   2.434  0.2898  0.2149  0.0220
 5764TIP3    H117256   3.276   3.699   2.527  0.1281 -1.8510 -0.1495
 5764TIP3    H217257   3.327   3.765   2.401  0.9697  0.0372  1.1311
 5765TIP3   OH217258   0.675   5.418   4.061  0.3933 -0.1303  0.2952
 5765TIP3    H117259   0.729   5.468   3.999 -2.0542  1.4898 -0.6965
 5765TIP3    H217260   0.652   5.338   4.013  1.0086 -0.3208  0.3114
 5766TIP3   OH217261   3.580   5.241   0.901  0.3525  0.3866 -0.1105
 5766TIP3    H117262   3.642   5.172   0.928 -0.1545  0.3649  1.0295
 5766TIP3    H217263   3.628   5.291   0.835  1.9601  0.9168  1.3745
 5767TIP3   OH217264   6.726   2.243   0.971 -0.4617  0.1561  0.8233
 5767TIP3    H117265   6.723   2.316   0.909 -1.8988  0.7113  1.4925
 5767TIP3    H217266   6.659   2.264   1.037 -0.9923 -1.8005  0.9940
 5768TIP3   OH217267   5.531   1.955   3.325 -0.7161 -0.2157 -0.2000
 5768TIP3    H117268   5.470   1.945   3.398 -0.1394  0.3926  0.3663
 5768TIP3    H217269   5.615   1.978   3.365 -1.0198  3.0538 -1.1420
 5769TIP3   OH217270   3.006   5.819   1.348  0.3314 -0.2191 -0.1621
 5769TIP3    H117271   3.010   5.902   1.395  0.1088 -0.8853  1.0749
 5769TIP3    H217272   3.093   5.809   1.309  0.8375 -0.0891  0.8977
 5770TIP3   OH217273   3.159   5.789   1.654  0.1396  0.1319  0.3066
 5770TIP3    H117274   3.216   5.766   1.727 -1.1693  0.3679  1.4653
 5770TIP3    H217275   3.073   5.756   1.680 -0.0726 -1.2388 -1.8865
 5771TIP3   OH217276   3.561   5.028   2.521  0.0369 -0.0667  0.1972
 5771TIP3    H117277   3.656   5.020   2.521 -0.0262 -1.3824  2.0083
 5771TIP3    H217278   3.542   5.088   2.448  2.2113  0.0902 -0.3088
 5772TIP3   OH217279   4.406   5.706   5.840  0.2451 -0.4349  0.3581
 5772TIP3    H117280   4.389   5.646   5.913  0.5988 -0.3091  0.5440
 5772TIP3    H217281   4.490   5.676   5.804  0.0069 -0.5800 -0.0816
 5773TIP3   OH217282   5.499   3.278   5.159 -0.0194 -0.6679  0.7393
 5773TIP3    H117283   5.428   3.323   5.205  0.3918 -0.0623  0.7928
 5773TIP3    H217284   5.565   3.346   5.144 -0.2988 -0.7591 -1.0699
 5774TIP3   OH217285   3.414   2.209   2.159 -0.0660 -0.6802 -0.2433
 5774TIP3    H117286   3.330   2.253   2.163  0.3076 -0.0306  0.8741
 5774TIP3    H217287   3.412   2.159   2.077 -0.7045  1.0021 -1.2868
 5775TIP3   OH217288   6.854   0.864   1.343 -0.8866 -0.1541  0.0186
 5775TIP3    H117289   6.942   0.876   1.378 -0.0374 -0.3752 -1.9423
 5775TIP3    H217290   6.867   0.827   1.256 -2.9631 -1.5268  0.2132
 5776TIP3   OH217291   0.934   3.115   2.430  0.0592 -0.0978 -0.1306
 5776TIP3    H117292   0.988   3.038   2.449  0.1179 -0.4167 -1.5101
 5776TIP3    H217293   0.936   3.124   2.335 -0.3808  1.3090 -0.0364
 5777TIP3   OH217294   1.625   3.906   1.859 -0.4007  0.2899  0.4493
 5777TIP3    H117295   1.587   3.946   1.781  0.1559  0.1402  0.0946
 5777TIP3    H217296   1.706   3.956   1.875  1.1027 -1.5477 -0.8737
 5778TIP3   OH217297   0.439   2.830   0.487  0.4332  0.0996 -0.6770
 5778TIP3    H117298   0.349   2.843   0.515  0.7755 -1.5765  1.4272
 5778TIP3    H217299   0.490   2.894   0.538  0.7584 -1.1407  0.6031
 5779TIP3   OH217300   6.885   5.839   5.164  0.1211  0.4343  0.5794
 5779TIP3    H117301   6.892   5.752   5.125  2.6939  1.1674 -0.7833
 5779TIP3    H217302   6.807   5.877   5.124  1.2640  0.2110 -2.0186
 5780TIP3   OH217303   1.159   5.933   1.814 -0.2875 -0.3283  0.7807
 5780TIP3    H117304   1.100   5.976   1.752  1.5040  0.6218 -0.3486
 5780TIP3    H217305   1.247   5.951   1.780  0.6405 -2.9794  1.5213
 5781TIP3   OH217306   2.137   4.251   5.084  0.7388  0.5935  0.2329
 5781TIP3    H117307   2.087   4.172   5.103 -0.0543  1.4144  1.7380
 5781TIP3    H217308   2.222   4.237   5.127  1.5892 -0.4734 -1.6723
 5782TIP3   OH217309   1.302   4.437   1.154  1.1733 -0.0211  0.1273
 5782TIP3    H117310   1.352   4.486   1.089 -2.2521  1.8473 -1.3870
 5782TIP3    H217311   1.282   4.502   1.222  1.2645 -0.8710  0.9888
 5783TIP3   OH217312   4.765   3.516   1.199  0.1958  0.6479  0.3403
 5783TIP3    H117313   4.712   3.587   1.163 -0.5119  0.0985  0.2816
 5783TIP3    H217314   4.727   3.436   1.162  0.7466  0.2104  0.6974
 5784TIP3   OH217315   4.375   5.442   1.580  0.0103 -0.4380  0.2049
 5784TIP3    H117316   4.371   5.450   1.675 -0.0170 -0.5652  0.2157
 5784TIP3    H217317   4.421   5.359   1.565  1.2059  0.2171  0.0954
 5785TIP3   OH217318   1.526   6.075   4.108 -0.3320  0.1616  0.2516
 5785TIP3    H117319   1.431   6.081   4.097 -0.2647  1.8535  0.3793
 5785TIP3    H217320   1.549   6.151   4.161  0.8850 -1.2324  1.8238
 5786TIP3   OH217321   0.860   0.717   1.545 -0.3051  0.2028  0.1124
 5786TIP3    H117322   0.796   0.691   1.612 -1.3620  1.4464 -0.3697
 5786TIP3    H217323   0.818   0.693   1.462  0.5584 -0.4155 -0.1536
 5787TIP3   OH217324   6.565   4.268   2.134 -0.4138 -0.1936  0.1985
 5787TIP3    H117325   6.608   4.337   2.186 -1.1675  0.1378  0.3903
 5787TIP3    H217326   6.525   4.315   2.061 -1.9861 -0.2385  0.9835
 5788TIP3   OH217327   0.274   3.024   4.326  0.5958 -0.4490 -0.1824
 5788TIP3    H117328   0.302   2.933   4.312  3.1428  0.2621 -0.1997
 5788TIP3    H217329   0.195   3.033   4.273  1.2693 -2.1772 -1.5883
 5789TIP3   OH217330   2.024   3.790   0.801  0.4930  0.2209  0.1662
 5789TIP3    H117331   1.971   3.865   0.773  1.0127  1.3413  1.9837
 5789TIP3    H217332   1.980   3.756   0.878  0.5338 -1.0637 -0.3626
 5790TIP3   OH217333   3.210   3.952   4.278  0.1830 -0.0780 -0.4561
 5790TIP3    H117334   3.143   3.909   4.332  0.9715 -0.2915  0.3781
 5790TIP3    H217335   3.170   3.960   4.191 -0.2578 -1.8618 -0.4546
 5791TIP3   OH217336   4.741   5.031   3.394 -0.5759 -0.5905  0.1394
 5791TIP3    H117337   4.648   5.040   3.415 -0.5190  1.3420 -0.1965
 5791TIP3    H217338   4.785   5.087   3.457  0.2775 -0.8043 -0.2567
 5792TIP3   OH217339   1.203   3.431   1.141  0.0096  0.0171 -0.3426
 5792TIP3    H117340   1.272   3.495   1.160  0.4776  0.4923 -3.1830
 5792TIP3    H217341   1.145   3.435   1.217  3.0237 -0.3888  2.1702
 5793TIP3   OH217342   3.360   3.013   5.273  0.0317  0.0135 -0.4456
 5793TIP3    H117343   3.282   2.986   5.225 -0.5825  1.6653 -0.4522
 5793TIP3    H217344   3.343   2.988   5.363  0.0277 -0.7249 -0.6484
 5794TIP3   OH217345   1.775   0.083   4.056  0.0606  0.2378  0.1724
 5794TIP3    H117346   1.865   0.055   4.040  0.3758  1.3788 -0.1587
 5794TIP3    H217347   1.770   0.172   4.019 -0.6279  0.9770  1.9086
 5795TIP3   OH217348   5.550   5.611   4.107 -0.5480  0.4866 -0.1949
 5795TIP3    H117349   5.639   5.645   4.116 -0.2737 -0.3433  0.4065
 5795TIP3    H217350   5.524   5.632   4.017 -0.1956  1.7624 -0.0171
 5796TIP3   OH217351   4.304   5.943   2.078  0.4720 -0.3159  0.1519
 5796TIP3    H117352   4.376   5.990   2.036  1.8484 -0.7316  1.9391
 5796TIP3    H217353   4.276   5.879   2.013 -0.5263  1.9741 -1.8190
 5797TIP3   OH217354   6.126   1.181   3.623  0.1055 -0.1679  0.0076
 5797TIP3    H117355   6.049   1.205   3.674  1.0446  1.3319  0.7704
 5797TIP3    H217356   6.185   1.139   3.685  1.0873  1.3029  0.1073
 5798TIP3   OH217357   0.343   2.095   3.293 -0.3676  0.1980  0.0875
 5798TIP3    H117358   0.434   2.114   3.315  0.8597 -2.7104 -1.9303
 5798TIP3    H217359   0.308   2.049   3.369  0.7687 -1.1441 -0.1724
 5799TIP3   OH217360   3.566   1.990   1.305 -0.6872 -0.7257 -0.6572
 5799TIP3    H117361   3.507   1.948   1.244  0.2816 -0.8662 -1.5306
 5799TIP3    H217362   3.634   1.925   1.321 -0.4437 -0.3568 -0.1416
 5800TIP3   OH217363   0.314   4.797   0.524 -0.0289  0.3051  0.3103
 5800TIP3    H117364   0.297   4.822   0.433 -0.5579 -0.1429  0.2782
 5800TIP3    H217365   0.328   4.880   0.569 -1.4760  0.6648  0.1511
 5801TIP3   OH217366   7.153   3.660   2.817  0.1900  0.2525 -0.8194
 5801TIP3    H117367   7.237   3.642   2.858  0.5741  1.5118 -1.0140
 5801TIP3    H217368   7.173   3.664   2.723  0.1350  1.5956 -0.7921
 5802TIP3   OH217369   3.347   6.619   4.583  0.2658 -0.1689 -0.4688
 5802TIP3    H117370   3.333   6.713   4.600  1.1050 -0.2201  0.6196
 5802TIP3    H217371   3.407   6.617   4.508 -0.1574  0.1548 -0.8181
 5803TIP3   OH217372   7.082   2.766   1.562  0.2445 -0.0523  0.0753
 5803TIP3    H117373   7.132   2.686   1.544 -1.4587 -1.1390 -0.0205
 5803TIP3    H217374   7.134   2.836   1.522  1.4167 -1.2007 -0.4810
 5804TIP3   OH217375   5.553   6.756   2.297 -0.3388 -0.0984  0.4407
 5804TIP3    H117376   5.558   6.696   2.372  3.7974 -0.3663  0.1553
 5804TIP3    H217377   5.508   6.706   2.229  0.6824 -1.9297  1.0568
 5805TIP3   OH217378   5.007   2.351   3.535 -0.3673  0.0086  0.0074
 5805TIP3    H117379   5.064   2.346   3.612  1.1894 -1.9707 -1.1698
 5805TIP3    H217380   4.990   2.260   3.511 -0.5740  0.5409 -2.1184
 5806TIP3   OH217381   3.166   2.069   2.009 -0.2551 -0.6600 -0.3571
 5806TIP3    H117382   3.084   2.104   2.044 -0.8426 -1.6269 -0.7236
 5806TIP3    H217383   3.183   2.123   1.932  0.7387  1.0963  1.0385
 5807TIP3   OH217384   6.792   0.591   2.791  0.4986 -0.4451  0.1812
 5807TIP3    H117385   6.753   0.503   2.797  2.1822 -1.4282 -1.8774
 5807TIP3    H217386   6.872   0.585   2.843 -0.8124  0.8638  2.4963
 5808TIP3   OH217387   6.386   1.072   2.085 -0.3995 -0.3457 -0.7007
 5808TIP3    H117388   6.474   1.043   2.063  0.5677  1.9735 -0.1878
 5808TIP3    H217389   6.399   1.150   2.139 -2.7766 -0.0341 -0.4567
 5809TIP3   OH217390   3.052   0.841   5.071 -0.6606  0.1054  0.4981
 5809TIP3    H117391   3.021   0.912   5.128 -0.6357  1.3782 -1.0193
 5809TIP3    H217392   3.017   0.761   5.112 -3.7072  1.2344  0.3675
 5810TIP3   OH217393   2.892   4.949   2.314 -0.2146  0.0941  0.7666
 5810TIP3    H117394   2.875   5.009   2.387  0.5209  1.3177 -0.0427
 5810TIP3    H217395   2.813   4.953   2.261 -0.0340  0.6072  0.5364
 5811TIP3   OH217396   4.546   1.384   3.040  0.0639  0.4054  0.0074
 5811TIP3    H117397   4.616   1.348   2.987  0.5595 -0.8718  1.4331
 5811TIP3    H217398   4.467   1.370   2.989  0.4549 -1.3094 -0.1822
 5812TIP3   OH217399   1.758   0.206   1.063  0.0627  0.0941  0.5337
 5812TIP3    H117400   1.776   0.190   0.970  0.7187 -0.6243  0.7779
 5812TIP3    H217401   1.811   0.283   1.084 -0.3526  0.4670  0.2317
 5813TIP3   OH217402   3.056   0.932   0.186  0.4456 -0.1754  1.0306
 5813TIP3    H117403   3.136   0.948   0.235  0.4575  0.8411  0.6981
 5813TIP3    H217404   3.083   0.877   0.113  0.9600  0.6716  0.5752
 5814TIP3   OH217405   2.652   1.698   5.650  0.1897  0.0665  0.2061
 5814TIP3    H117406   2.726   1.736   5.698  1.1253  1.9145 -2.4708
 5814TIP3    H217407   2.578   1.755   5.671 -0.0842 -0.6828  1.4098
 5815TIP3   OH217408   1.253   3.769   0.990 -0.5504 -0.3988  0.3390
 5815TIP3    H117409   1.336   3.801   1.025 -0.4167  0.3168 -0.5944
 5815TIP3    H217410   1.195   3.845   0.992 -0.5564 -0.3568 -0.9210
 5816TIP3   OH217411   5.647   3.533   2.026  0.0067 -0.1101 -0.0655
 5816TIP3    H117412   5.604   3.557   2.107 -0.8850  0.7262 -0.7618
 5816TIP3    H217413   5.620   3.600   1.963 -0.2740 -1.3695 -1.3597
 5817TIP3   OH217414   3.026   0.190   0.281  0.0353 -0.0482 -0.2480
 5817TIP3    H117415   2.974   0.182   0.360  2.0352 -2.3976  0.9473
 5817TIP3    H217416   3.117   0.193   0.312  0.8086  0.8130 -2.3887
 5818TIP3   OH217417   3.404   4.691   4.470 -0.1656  0.1506  0.3173
 5818TIP3    H117418   3.403   4.726   4.381 -0.9704  0.9727  0.6276
 5818TIP3    H217419   3.494   4.700   4.499 -0.6622  4.2081  1.1759
 5819TIP3   OH217420   5.813   5.364   1.752  0.2591  0.3144 -0.2006
 5819TIP3    H117421   5.795   5.301   1.822  1.4151  2.4791  2.1740
 5819TIP3    H217422   5.909   5.364   1.743  0.3257  2.0424  0.1901
 5820TIP3   OH217423   3.772   0.291   1.076 -0.0124 -0.6404 -0.3226
 5820TIP3    H117424   3.729   0.285   0.991  0.0455 -2.0578 -0.2776
 5820TIP3    H217425   3.865   0.276   1.057  0.1210 -0.1307 -0.1012
 5821TIP3   OH217426   2.601   1.900   4.426  0.1474 -0.0173 -0.2578
 5821TIP3    H117427   2.573   1.970   4.485  0.0504 -0.5050  0.2843
 5821TIP3    H217428   2.645   1.836   4.483  0.3486 -0.3379 -0.7607
 5822TIP3   OH217429   5.469   2.919   0.802 -0.0727  0.2209 -0.5348
 5822TIP3    H117430   5.491   2.827   0.811  0.3103  0.4812  1.7330
 5822TIP3    H217431   5.489   2.958   0.887 -2.3048  1.9724 -0.6866
 5823TIP3   OH217432   5.403   4.066   3.830  0.2045 -0.5462  0.0466
 5823TIP3    H117433   5.451   3.984   3.817  1.7140  0.2088  0.6355
 5823TIP3    H217434   5.468   4.127   3.865 -1.4540  0.1806  2.1082
 5824TIP3   OH217435   1.239   0.854   1.356  0.6009 -0.1470 -0.4263
 5824TIP3    H117436   1.220   0.836   1.264 -2.5063 -0.2666  0.1212
 5824TIP3    H217437   1.242   0.950   1.361  0.7102 -0.1382 -0.6552
 5825TIP3   OH217438   0.573   2.910   2.598  0.2189  0.0215  0.6537
 5825TIP3    H117439   0.545   2.819   2.589  2.3715 -0.8022  1.5121
 5825TIP3    H217440   0.543   2.953   2.517 -1.1934 -1.3193  0.4240
 5826TIP3   OH217441   6.566   2.723   1.745 -0.3636  0.5371 -0.3408
 5826TIP3    H117442   6.532   2.808   1.772 -0.1214  0.2363  0.9675
 5826TIP3    H217443   6.661   2.730   1.757 -0.2597  0.3250 -0.9672
 5827TIP3   OH217444   3.507   0.319   1.467 -0.0110  0.0642  0.0782
 5827TIP3    H117445   3.555   0.346   1.388  0.4168 -0.8950 -0.0014
 5827TIP3    H217446   3.469   0.401   1.500 -0.8611  0.3720 -1.5474
 5828TIP3   OH217447   3.749   6.515   2.702  0.2151 -0.2601  0.7989
 5828TIP3    H117448   3.653   6.509   2.701  0.2565 -1.1764  1.1867
 5828TIP3    H217449   3.767   6.605   2.731 -0.5172  0.0516  0.3293
 5829TIP3   OH217450   1.421   4.240   2.386 -0.1731  1.1966  0.2429
 5829TIP3    H117451   1.483   4.254   2.314  0.0601 -0.4655  0.0808
 5829TIP3    H217452   1.349   4.190   2.346  0.0687  0.0482  1.1894
 5830TIP3   OH217453   1.190   0.736   2.203 -0.4083 -0.4191 -0.2824
 5830TIP3    H117454   1.195   0.664   2.140 -0.8807 -0.0566 -0.7445
 5830TIP3    H217455   1.249   0.710   2.274 -0.5622 -1.2549 -0.4492
 5831TIP3   OH217456   1.062   2.136   1.224  0.4930 -0.0407  0.4298
 5831TIP3    H117457   1.012   2.217   1.233  1.6658  0.9152 -1.2963
 5831TIP3    H217458   1.028   2.080   1.294 -2.3306  0.8771 -0.0763
 5832TIP3   OH217459   2.188   1.092   1.915 -0.2899  0.0445 -0.4463
 5832TIP3    H117460   2.234   1.068   1.994 -1.1382  0.4134  0.1760
 5832TIP3    H217461   2.243   1.159   1.874 -0.5850  0.9733  0.6354
 5833TIP3   OH217462   3.554   3.073   5.743 -0.6577 -0.2305 -0.5385
 5833TIP3    H117463   3.497   3.035   5.811 -0.7012 -1.1855 -1.0926
 5833TIP3    H217464   3.593   2.997   5.700 -0.0512  0.3899 -1.0969
 5834TIP3   OH217465   7.083   1.832   4.121  0.1816 -0.1030  0.2391
 5834TIP3    H117466   7.158   1.832   4.181 -0.1447  0.3633  0.6515
 5834TIP3    H217467   7.099   1.907   4.063  0.1143 -0.0988  0.2261
 5835TIP3   OH217468   3.205   0.220   5.218 -0.0251 -0.3089  0.9056
 5835TIP3    H117469   3.266   0.160   5.176  0.4441 -0.8145  2.2561
 5835TIP3    H217470   3.228   0.217   5.311 -3.2037 -1.8373  1.7724
 5836TIP3   OH217471   1.090   2.339   1.491 -0.7327 -0.2518 -0.1810
 5836TIP3    H117472   1.147   2.266   1.514 -0.7322 -0.2301 -0.1107
 5836TIP3    H217473   1.006   2.299   1.472 -0.4209 -0.3854 -1.3211
 5837TIP3   OH217474   4.367   2.670   4.586  0.1747  0.3451 -0.1210
 5837TIP3    H117475   4.334   2.600   4.642  0.4389  0.6580  0.4337
 5837TIP3    H217476   4.304   2.675   4.514  0.9025 -1.4025 -0.9340
 5838TIP3   OH217477   4.645   4.627   2.885  0.0657  0.5897 -0.9067
 5838TIP3    H117478   4.655   4.633   2.790  2.3402  1.2797 -0.6686
 5838TIP3    H217479   4.636   4.717   2.915 -3.0218  0.2827 -0.6031
 5839TIP3   OH217480   1.809   0.740   5.482  0.2657  0.3209 -0.2180
 5839TIP3    H117481   1.831   0.770   5.570  1.2384  1.1698 -0.7341
 5839TIP3    H217482   1.766   0.815   5.441 -2.6600 -0.9022  0.3598
 5840TIP3   OH217483   1.126   2.934   2.474 -0.1498  0.5772 -0.0763
 5840TIP3    H117484   1.119   2.840   2.457  0.2293  0.3188  1.1186
 5840TIP3    H217485   1.161   2.970   2.392  3.4731 -0.8732  0.6480
 5841TIP3   OH217486   1.820   4.424   3.168 -0.0868 -0.2065  0.3534
 5841TIP3    H117487   1.727   4.423   3.144  0.2504 -1.5660 -1.0638
 5841TIP3    H217488   1.822   4.467   3.253 -1.9349  0.4394  0.1255
 5842TIP3   OH217489   5.930   3.774   4.765 -0.1646  0.4985  0.1800
 5842TIP3    H117490   5.860   3.741   4.821  1.1295  0.1490  1.6720
 5842TIP3    H217491   5.940   3.866   4.790  1.3402 -0.0025  1.6097
 5843TIP3   OH217492   4.549   3.542   0.214  0.0917 -0.1650  0.0243
 5843TIP3    H117493   4.606   3.485   0.266  0.8580 -0.5505 -1.2005
 5843TIP3    H217494   4.463   3.533   0.255  0.8850  0.4864  1.9609
 5844TIP3   OH217495   4.043   2.574   1.980 -0.1970 -0.0272  0.2246
 5844TIP3    H117496   4.064   2.660   1.944  0.4264  0.1454  0.9680
 5844TIP3    H217497   4.083   2.574   2.067 -2.6587  0.0315  1.4476
 5845TIP3   OH217498   0.332   5.680   1.039 -0.0981 -0.6415  0.0320
 5845TIP3    H117499   0.389   5.695   0.964 -1.4044 -1.2819 -1.1178
 5845TIP3    H217500   0.363   5.596   1.075  0.4434 -0.3966  0.1559
 5846TIP3   OH217501   2.658   1.486   4.830  0.8550 -0.2887 -0.4235
 5846TIP3    H117502   2.720   1.479   4.902 -0.4614  0.0904  0.7891
 5846TIP3    H217503   2.628   1.396   4.815 -0.1461 -0.1605  0.6920
 5847TIP3   OH217504   0.178   6.661   4.740  0.0091  0.3447 -0.0774
 5847TIP3    H117505   0.166   6.730   4.674 -3.3948 -1.0019 -1.0465
 5847TIP3    H217506   0.201   6.709   4.820 -2.2160  2.6691 -0.6921
 5848TIP3   OH217507   4.657   3.818   0.244 -0.2901  0.4371 -0.4081
 5848TIP3    H117508   4.643   3.729   0.211 -0.4549  0.5990 -0.7750
 5848TIP3    H217509   4.570   3.858   0.241 -0.6777 -0.1058  1.8829
 5849TIP3   OH217510   5.507   4.022   1.156 -0.3856 -0.1147  0.0844
 5849TIP3    H117511   5.497   3.927   1.162  0.4919 -0.2214 -0.0174
 5849TIP3    H217512   5.453   4.056   1.228 -0.2189 -0.7212  0.5038
 5850TIP3   OH217513   0.420   0.744   2.844 -0.4929 -0.3347 -0.4577
 5850TIP3    H117514   0.327   0.733   2.862 -0.8510  0.4059 -1.7226
 5850TIP3    H217515   0.436   0.691   2.766  0.4561 -1.4984  0.4980
 5851TIP3   OH217516   3.590   6.739   5.697  0.0693 -0.0200  0.0355
 5851TIP3    H117517   3.519   6.680   5.718  0.1013 -0.1942 -0.3461
 5851TIP3    H217518   3.669   6.696   5.731  0.2501 -0.7504 -1.2357
 5852TIP3   OH217519   7.085   2.787   3.151 -0.4811 -0.3706 -0.4000
 5852TIP3    H117520   7.134   2.824   3.225 -0.5481 -2.8438  0.9948
 5852TIP3    H217521   7.105   2.845   3.078 -1.0508  2.6892  1.6814
 5853TIP3   OH217522   3.501   2.092   1.906 -0.0249 -0.5244  1.0607
 5853TIP3    H117523   3.508   2.187   1.920 -3.1083 -0.2850  1.6430
 5853TIP3    H217524   3.524   2.080   1.814 -0.0450  0.8537  0.8434
 5854TIP3   OH217525   6.153   4.551   1.749 -0.1595  0.2176 -0.0481
 5854TIP3    H117526   6.176   4.627   1.696 -1.0547  1.7804  1.6597
 5854TIP3    H217527   6.237   4.516   1.780  0.3033 -0.0565 -1.5355
 5855TIP3   OH217528   3.664   4.939   2.029  0.0713 -0.1092  0.6841
 5855TIP3    H117529   3.650   5.026   2.068 -1.6613  0.2750 -0.7143
 5855TIP3    H217530   3.586   4.889   2.052  0.3789 -0.8306  0.1882
 5856TIP3   OH217531   6.391   5.297   0.419  0.2123 -0.1380 -0.3003
 5856TIP3    H117532   6.424   5.357   0.486 -1.5178  0.6108 -0.0696
 5856TIP3    H217533   6.342   5.231   0.468 -0.1142 -0.2272 -0.7408
 5857TIP3   OH217534   1.225   5.814   4.948  0.0487 -0.8091 -0.2250
 5857TIP3    H117535   1.221   5.835   4.855  1.8112  0.5997 -0.0431
 5857TIP3    H217536   1.317   5.792   4.963  0.3953  1.4815  1.6156
 5858TIP3   OH217537   4.051   0.514   3.921  0.0399 -0.1877  0.5076
 5858TIP3    H117538   3.958   0.499   3.937  0.1473  1.7114  3.5983
 5858TIP3    H217539   4.063   0.608   3.934  2.1151 -0.0269 -1.8110
 5859TIP3   OH217540   5.997   0.616   2.130 -0.0089  0.1335 -0.3371
 5859TIP3    H117541   5.942   0.645   2.058  0.8276 -1.6747 -1.7793
 5859TIP3    H217542   6.087   0.634   2.102  0.3237 -0.4037  0.3284
 5860TIP3   OH217543   4.584   5.616   5.587 -0.0809 -0.8514 -0.2322
 5860TIP3    H117544   4.599   5.540   5.643 -3.2321 -1.1437  0.3893
 5860TIP3    H217545   4.570   5.580   5.500 -1.5786 -1.0535  0.0629
 5861TIP3   OH217546   1.210   1.161   5.567  0.1435 -0.0449  0.1252
 5861TIP3    H117547   1.125   1.180   5.529 -0.4214 -0.3048  1.2300
 5861TIP3    H217548   1.212   1.209   5.650  0.8325 -0.4807  0.3782
 5862TIP3   OH217549   0.760   4.041   5.620 -0.1996 -0.3232 -0.0516
 5862TIP3    H117550   0.690   3.995   5.573  0.6068 -2.6274  0.8685
 5862TIP3    H217551   0.715   4.088   5.690 -0.8683 -1.4760  0.3111
 5863TIP3   OH217552   5.080   0.229   2.398  0.5140 -0.3849 -0.0199
 5863TIP3    H117553   5.008   0.235   2.461  2.2934 -1.0347  2.1704
 5863TIP3    H217554   5.149   0.283   2.435  1.8821 -1.3545 -1.0687
 5864TIP3   OH217555   5.348   4.408   1.114  0.2913  0.1462  0.2933
 5864TIP3    H117556   5.336   4.502   1.129 -0.2204  0.2777 -0.8201
 5864TIP3    H217557   5.443   4.397   1.109  0.3409  0.7239 -0.1937
 5865TIP3   OH217558   3.280   0.204   5.481 -0.5518  0.4386  0.1583
 5865TIP3    H117559   3.355   0.146   5.493 -0.3983  0.8043  1.1011
 5865TIP3    H217560   3.240   0.209   5.568 -0.7614  1.4583  0.0168
 5866TIP3   OH217561   2.056   1.464   4.334  0.3055 -0.0228  0.1151
 5866TIP3    H117562   2.147   1.456   4.305 -0.4443  0.2727 -2.6430
 5866TIP3    H217563   2.033   1.376   4.365  0.7995 -0.8567 -1.7117
 5867TIP3   OH217564   2.452   0.973   3.359 -0.2435 -0.4968  0.3165
 5867TIP3    H117565   2.389   0.932   3.300  0.4591  1.0513 -1.6139
 5867TIP3    H217566   2.505   0.900   3.392 -0.4430 -1.4022 -1.2497
 5868TIP3   OH217567   0.680   3.517   2.810 -0.0455 -0.3926 -0.4772
 5868TIP3    H117568   0.688   3.539   2.717  0.2474 -0.7901 -0.5479
 5868TIP3    H217569   0.642   3.430   2.811  0.2845 -0.5369 -0.2330
 5869TIP3   OH217570   6.225   4.034   1.197 -0.1766  0.2070  0.2895
 5869TIP3    H117571   6.283   3.996   1.264  1.7184  0.2492 -1.2393
 5869TIP3    H217572   6.144   3.984   1.205  1.1156 -2.0100  0.4924
 5870TIP3   OH217573   5.868   5.665   1.718 -0.1018 -0.3916 -0.0638
 5870TIP3    H117574   5.896   5.610   1.645 -1.5711  0.9001 -1.6885
 5870TIP3    H217575   5.779   5.636   1.737 -1.5305  2.2763 -2.0116
 5871TIP3   OH217576   2.525   3.094   3.202  0.0322 -0.0275  0.3329
 5871TIP3    H117577   2.605   3.042   3.211 -0.8703 -1.4228  0.6019
 5871TIP3    H217578   2.512   3.134   3.288  0.0456 -0.4022  0.5111
 5872TIP3   OH217579   1.534   1.456   4.482 -0.0386  0.7131  0.5768
 5872TIP3    H117580   1.574   1.409   4.555 -2.4356 -1.3002  0.7213
 5872TIP3    H217581   1.596   1.525   4.461  2.8168 -1.3435  1.6248
 5873TIP3   OH217582   1.177   5.029   3.893 -0.0907 -0.3414  0.4604
 5873TIP3    H117583   1.101   4.973   3.876 -0.2527  0.2608 -0.8929
 5873TIP3    H217584   1.150   5.084   3.966 -1.3662  0.5732 -0.6570
 5874TIP3   OH217585   0.374   4.868   3.338  0.4404 -0.0636  0.5110
 5874TIP3    H117586   0.420   4.866   3.254 -0.1334 -0.2681  0.1967
 5874TIP3    H217587   0.332   4.954   3.340 -0.3235 -0.4100  0.1510
 5875TIP3   OH217588   4.133   6.716   3.335  0.2212 -0.4296  0.1974
 5875TIP3    H117589   4.092   6.648   3.282  0.7455 -2.0816  1.7823
 5875TIP3    H217590   4.145   6.790   3.276 -2.8504 -0.6979 -0.8995
 5876TIP3   OH217591   4.962   5.884   4.263  0.4436  0.1891  0.2170
 5876TIP3    H117592   4.938   5.893   4.171 -0.1102 -1.1163  0.2190
 5876TIP3    H217593   5.058   5.893   4.264  0.2478  3.4531 -0.0330
 5877TIP3   OH217594   3.520   6.299   0.500 -0.2286  0.2520 -0.1060
 5877TIP3    H117595   3.440   6.246   0.504 -0.2290  0.3478  2.4889
 5877TIP3    H217596   3.580   6.247   0.446 -0.1832 -2.5742  2.3837
 5878TIP3   OH217597   3.055   5.477   5.346  0.2526  0.2904  0.1946
 5878TIP3    H117598   3.113   5.509   5.416 -0.4526  0.8952  0.5116
 5878TIP3    H217599   3.105   5.406   5.305  1.1150  0.6229  0.6281
 5879TIP3   OH217600   6.692   5.563   0.228  0.2865 -0.2283  0.1321
 5879TIP3    H117601   6.615   5.609   0.195 -0.2373 -1.3330 -0.2483
 5879TIP3    H217602   6.675   5.471   0.207  1.6647 -0.5025  0.1366
 5880TIP3   OH217603   5.198   1.973   5.645  0.3485 -0.5306 -0.5496
 5880TIP3    H117604   5.237   1.889   5.620  0.2919 -0.5106 -0.7050
 5880TIP3    H217605   5.254   2.006   5.715 -0.3618 -1.3152  0.4248
 5881TIP3   OH217606   5.493   6.535   0.402  0.3920 -0.0847  0.1274
 5881TIP3    H117607   5.403   6.514   0.427 -0.0349  1.7033  0.2135
 5881TIP3    H217608   5.490   6.542   0.307  0.2190  0.9198  0.2049
 5882TIP3   OH217609   4.410   1.627   3.710 -0.3181 -0.3854  0.0516
 5882TIP3    H117610   4.459   1.559   3.663  2.7868  2.2833 -0.9353
 5882TIP3    H217611   4.350   1.663   3.645  1.2805  0.7503 -0.8814
 5883TIP3   OH217612   1.450   5.273   0.213 -0.0635 -0.1862 -0.5152
 5883TIP3    H117613   1.412   5.350   0.257  2.3981  0.7329  0.1936
 5883TIP3    H217614   1.515   5.241   0.275  0.5407 -1.4841 -1.7746
 5884TIP3   OH217615   2.583   5.914   1.773  0.7180 -0.1093  0.8412
 5884TIP3    H117616   2.655   5.920   1.710 -0.9676 -0.9011 -1.2990
 5884TIP3    H217617   2.519   5.978   1.742 -0.8327 -1.6212  0.7558
 5885TIP3   OH217618   1.580   1.763   2.630  0.0064 -0.0819  0.1497
 5885TIP3    H117619   1.639   1.716   2.689  0.3618 -1.5101 -1.2729
 5885TIP3    H217620   1.582   1.712   2.548 -0.3395  1.9007 -1.1616
 5886TIP3   OH217621   3.449   0.333   5.009  0.2389 -0.1400  0.1489
 5886TIP3    H117622   3.521   0.371   5.059 -0.0890  0.5911  0.0794
 5886TIP3    H217623   3.370   0.372   5.046 -0.1481 -1.1378  0.4049
 5887TIP3   OH217624   2.436   5.220   0.876 -0.1577 -0.3981  0.1169
 5887TIP3    H117625   2.499   5.198   0.808  1.2928 -1.0178  1.6069
 5887TIP3    H217626   2.454   5.312   0.897  1.3533 -0.9974  1.6117
 5888TIP3   OH217627   3.794   1.705   0.619  0.1471 -0.1516  0.4180
 5888TIP3    H117628   3.711   1.658   0.618  0.6674 -1.1803  1.7198
 5888TIP3    H217629   3.773   1.791   0.656 -0.1448 -0.9223  2.1876
 5889TIP3   OH217630   4.758   5.445   3.402  1.0512 -0.1081  0.5409
 5889TIP3    H117631   4.676   5.423   3.358  1.9130 -1.1344 -0.6291
 5889TIP3    H217632   4.766   5.540   3.391 -0.0315  0.0384  0.8116
 5890TIP3   OH217633   1.440   4.215   1.060 -0.8014  0.1037 -0.0768
 5890TIP3    H117634   1.395   4.286   1.107 -1.9966  0.2027 -1.3088
 5890TIP3    H217635   1.533   4.231   1.077 -1.1316  0.8845  1.1628
 5891TIP3   OH217636   6.748   6.062   5.037  0.0707 -0.3989  0.4273
 5891TIP3    H117637   6.691   6.022   4.972 -0.4114 -0.5503  0.9304
 5891TIP3    H217638   6.807   6.118   4.987  0.0714 -0.9381 -0.1847
 5892TIP3   OH217639   0.198   5.160   2.146  0.3712 -0.0932 -0.2726
 5892TIP3    H117640   0.142   5.147   2.069  0.6167 -0.5561 -0.3750
 5892TIP3    H217641   0.137   5.158   2.220  0.0340  1.1178 -0.5017
 5893TIP3   OH217642   4.698   4.058   4.676 -0.5668 -0.1375  0.2643
 5893TIP3    H117643   4.618   4.072   4.726 -0.2581  0.8723  0.4894
 5893TIP3    H217644   4.667   4.035   4.588 -1.1388  1.9786 -0.1361
 5894TIP3   OH217645   0.801   4.285   4.042 -0.4277 -0.1656  0.1198
 5894TIP3    H117646   0.792   4.369   3.997 -0.6204  0.6436  1.6250
 5894TIP3    H217647   0.730   4.232   4.007 -1.9664  1.1924  1.0352
 5895TIP3   OH217648   6.309   5.673   2.930 -0.0489  0.3696  0.5891
 5895TIP3    H117649   6.319   5.697   2.838  0.5257  0.5620  0.6998
 5895TIP3    H217650   6.397   5.647   2.958  0.4762  3.0927  1.8586
 5896TIP3   OH217651   5.072   2.707   3.239 -0.2145  0.3643  0.8495
 5896TIP3    H117652   5.155   2.749   3.218  0.0306 -1.3525 -2.2295
 5896TIP3    H217653   5.088   2.614   3.226 -2.6724  0.0087 -0.1612
 5897TIP3   OH217654   1.044   6.607   4.386 -0.6233  0.2940  0.3058
 5897TIP3    H117655   1.128   6.562   4.375 -0.1187  0.6020  2.3492
 5897TIP3    H217656   1.066   6.700   4.387 -1.0668  0.4024  0.2862
 5898TIP3   OH217657   5.563   0.692   3.005  0.2107  0.0565 -0.9526
 5898TIP3    H117658   5.515   0.609   3.009 -1.1513  0.7561 -1.7798
 5898TIP3    H217659   5.613   0.687   2.923  0.6225 -0.2018 -0.6849
 5899TIP3   OH217660   5.290   6.443   1.267  0.4488  0.2958  0.2449
 5899TIP3    H117661   5.351   6.379   1.305  0.5966 -0.7010 -1.5637
 5899TIP3    H217662   5.203   6.405   1.282  0.5796 -0.8948 -1.6766
 5900TIP3   OH217663   0.206   0.219   5.204 -0.4341 -0.4273 -0.1105
 5900TIP3    H117664   0.237   0.192   5.117  0.1658  1.4159 -0.5091
 5900TIP3    H217665   0.117   0.249   5.190  0.2137  1.4513 -0.4577
 5901TIP3   OH217666   2.532   1.244   5.611 -0.0952  0.1187  0.8323
 5901TIP3    H117667   2.549   1.337   5.625 -0.6502  0.3033  0.3330
 5901TIP3    H217668   2.439   1.240   5.589 -0.1446 -0.5906  1.1468
 5902TIP3   OH217669   3.227   4.683   3.390 -0.1014 -0.1884  0.2632
 5902TIP3    H117670   3.203   4.730   3.310 -0.8144 -0.8377  0.0786
 5902TIP3    H217671   3.149   4.687   3.445  0.0635 -0.5556  0.5324
 5903TIP3   OH217672   5.939   1.278   2.147 -0.0842 -0.1006  0.3750
 5903TIP3    H117673   6.024   1.317   2.128  0.2779 -0.9533  0.2384
 5903TIP3    H217674   5.881   1.354   2.160  0.2979  0.5139 -1.2285
 5904TIP3   OH217675   3.584   2.841   4.037  0.1127  0.1169  0.2705
 5904TIP3    H117676   3.637   2.761   4.038  0.0884 -0.0426  4.6138
 5904TIP3    H217677   3.507   2.820   4.090 -0.8335  2.5173 -0.0240
 5905TIP3   OH217678   6.471   5.984   2.978  0.0685  0.1228  0.3533
 5905TIP3    H117679   6.479   5.898   2.937  0.8682  0.4789 -0.2682
 5905TIP3    H217680   6.414   5.970   3.053 -0.2965 -0.8251 -0.0917
 5906TIP3   OH217681   6.706   6.574   0.303  0.1902 -0.1965 -0.1138
 5906TIP3    H117682   6.781   6.631   0.317 -0.5360  0.9671 -0.7746
 5906TIP3    H217683   6.711   6.548   0.210  1.9768 -3.4449  0.7341
 5907TIP3   OH217684   4.511   5.156   3.584 -0.2531 -0.1614 -0.0395
 5907TIP3    H117685   4.430   5.193   3.547 -0.5179 -1.2158 -0.5805
 5907TIP3    H217686   4.483   5.072   3.621  0.1769  0.4924  1.8495
 5908TIP3   OH217687   2.960   1.497   0.255  0.0083 -0.5433  0.3021
 5908TIP3    H117688   2.959   1.525   0.164  0.9881 -1.4259  0.0046
 5908TIP3    H217689   3.004   1.412   0.254  1.0243 -0.0652  1.7403
 5909TIP3   OH217690   0.011   3.160   3.815  0.7255  0.0473 -0.3178
 5909TIP3    H117691  -0.025   3.072   3.810 -1.7255  1.0111 -1.5032
 5909TIP3    H217692   0.052   3.174   3.730  1.1654  0.0208 -0.1091
 5910TIP3   OH217693   6.463   0.046   0.689  0.4925  0.3222 -0.4069
 5910TIP3    H117694   6.502   0.123   0.730 -1.1715  0.6089  0.7395
 5910TIP3    H217695   6.462  -0.021   0.758 -0.7980  0.2650 -0.4546
 5911TIP3   OH217696   6.943   4.649   3.859 -0.1463 -0.3892 -0.4611
 5911TIP3    H117697   7.001   4.722   3.838 -0.2523  0.4266  1.7529
 5911TIP3    H217698   6.884   4.643   3.784  1.3892  0.2166 -1.7571
 5912TIP3   OH217699   1.462   1.137   5.082  0.0221 -0.5599 -0.3070
 5912TIP3    H117700   1.370   1.126   5.058 -0.1421  2.8950 -1.9588
 5912TIP3    H217701   1.460   1.159   5.175 -1.2384  2.0901 -0.8661
 5913TIP3   OH217702   3.702   3.991   1.751 -0.2461  0.1798  0.4136
 5913TIP3    H117703   3.788   4.000   1.794  1.2138 -1.9297 -1.8073
 5913TIP3    H217704   3.642   3.968   1.822  1.6378 -1.2332  1.6441
 5914TIP3   OH217705   2.710   4.656   2.128  0.5105 -0.2938 -0.2419
 5914TIP3    H117706   2.653   4.658   2.205  0.8726  0.6650  0.0131
 5914TIP3    H217707   2.688   4.736   2.081  1.8891  0.2747  0.0446
 5915TIP3   OH217708   5.450   3.460   4.272 -0.0963 -0.4653 -0.0855
 5915TIP3    H117709   5.437   3.452   4.367 -0.4331 -0.4285 -0.1274
 5915TIP3    H217710   5.532   3.507   4.263  0.0549 -0.6719  0.1891
 5916TIP3   OH217711   4.902   6.252   5.020 -0.0093  0.1477 -0.0187
 5916TIP3    H117712   4.945   6.270   4.937  0.7696  0.2741  0.4010
 5916TIP3    H217713   4.974   6.249   5.084 -0.2689 -2.7701  0.2321
 5917TIP3   OH217714   3.975   6.528   3.228 -0.7008  0.3783 -0.0121
 5917TIP3    H117715   4.006   6.442   3.257 -1.5919  0.0073 -0.1182
 5917TIP3    H217716   3.926   6.509   3.147 -0.6897  1.0193 -0.1709
 5918TIP3   OH217717   0.433   5.228   3.588  0.8562 -0.2241 -0.0609
 5918TIP3    H117718   0.497   5.217   3.517 -1.4569  0.2053 -2.3504
 5918TIP3    H217719   0.406   5.319   3.583 -0.8504 -0.6898 -0.0145
 5919TIP3   OH217720   6.030   3.413   2.908 -0.4502  0.5301 -0.3759
 5919TIP3    H117721   6.020   3.318   2.913  0.5181  0.4262 -0.2172
 5919TIP3    H217722   6.124   3.427   2.902 -0.5328  1.5189  0.3696
 5920TIP3   OH217723   5.864   0.095   0.040 -0.3584  0.1958 -0.1176
 5920TIP3    H117724   5.875   0.181   0.000 -0.1816 -0.3844 -1.3961
 5920TIP3    H217725   5.953   0.058   0.043 -0.6204 -0.5680 -1.1132
 5921TIP3   OH217726   4.559   5.387   5.740  0.1369  0.2913 -0.5673
 5921TIP3    H117727   4.550   5.363   5.832  0.1565 -1.2404 -0.9346
 5921TIP3    H217728   4.588   5.306   5.697  2.8232  1.6300 -1.5209
 5922TIP3   OH217729   1.997   3.513   0.651  0.3560  0.8643 -0.0705
 5922TIP3    H117730   2.023   3.605   0.646  0.6703  0.9303  1.9627
 5922TIP3    H217731   2.053   3.476   0.718  0.9681 -1.1136 -1.5693
 5923TIP3   OH217732   2.635   6.185   0.554 -0.5536  0.7478 -0.2415
 5923TIP3    H117733   2.546   6.221   0.546 -0.4934  1.3525  1.5081
 5923TIP3    H217734   2.674   6.232   0.628  0.8991 -0.1913 -0.3698
 5924TIP3   OH217735   1.218   6.406   5.027  0.0340 -0.4503 -0.7013
 5924TIP3    H117736   1.215   6.351   5.105 -1.0075 -0.1327 -0.4909
 5924TIP3    H217737   1.295   6.376   4.978 -0.1038 -1.5998 -0.2417
 5925TIP3   OH217738   6.516   2.059   0.210 -0.2266  0.3131  0.3163
 5925TIP3    H117739   6.466   2.022   0.137 -0.3230  0.4146  0.3315
 5925TIP3    H217740   6.464   2.037   0.288  0.5687 -1.0342  0.5028
 5926TIP3   OH217741   3.029   6.175   5.796 -0.1077 -0.1693  0.0559
 5926TIP3    H117742   2.970   6.122   5.849 -0.0576  0.6515  0.9644
 5926TIP3    H217743   2.971   6.225   5.738 -0.4978  1.8863  2.0840
 5927TIP3   OH217744   5.100   6.034   5.838 -0.1035  0.1103  0.3245
 5927TIP3    H117745   5.080   5.954   5.887  0.8763  0.6141  1.5843
 5927TIP3    H217746   5.187   6.060   5.868 -0.1409  1.3142 -0.5293
 5928TIP3   OH217747   6.229   2.220   0.272  0.1010 -0.1493  0.1615
 5928TIP3    H117748   6.210   2.126   0.268 -0.6251 -0.0145  0.4700
 5928TIP3    H217749   6.296   2.233   0.205 -0.0796 -0.8213 -0.1567
 5929TIP3   OH217750   3.664   5.862   1.635  0.4183  0.1155  0.2154
 5929TIP3    H117751   3.668   5.769   1.657 -0.5250 -0.1303 -0.5491
 5929TIP3    H217752   3.570   5.881   1.630  0.6015  0.8921 -0.5085
 5930TIP3   OH217753   6.961   0.400   1.588  0.3762  0.2521 -0.4060
 5930TIP3    H117754   6.930   0.350   1.513 -0.0892 -0.5054  0.2756
 5930TIP3    H217755   6.895   0.468   1.601 -0.5468 -0.7777  0.4607
 5931TIP3   OH217756   5.146   3.473   4.483  0.1304  0.6222 -0.1377
 5931TIP3    H117757   5.241   3.470   4.494  0.1183  0.6527 -0.0243
 5931TIP3    H217758   5.131   3.550   4.428  0.2496  0.0521 -0.9925
 5932TIP3   OH217759   6.098   3.439   1.163  0.4280  0.7642  0.0471
 5932TIP3    H117760   6.080   3.469   1.074  0.3875 -0.1550 -0.2709
 5932TIP3    H217761   6.012   3.427   1.203  0.3477 -0.9151 -0.5354
 5933TIP3   OH217762   2.125   3.575   1.717  0.1066  0.7791  0.0925
 5933TIP3    H117763   2.190   3.596   1.650 -0.1736 -0.0401 -0.4481
 5933TIP3    H217764   2.176   3.532   1.786  0.0319 -0.8401 -0.7932
 5934TIP3   OH217765   7.018   4.879   3.711 -0.1091  0.0706 -0.1005
 5934TIP3    H117766   7.110   4.862   3.731  0.9117  4.0458 -0.6455
 5934TIP3    H217767   7.014   4.881   3.615 -0.9470 -0.6726 -0.0966
 5935TIP3   OH217768   0.347   6.714   0.344 -0.1807  0.7314 -0.5274
 5935TIP3    H117769   0.335   6.620   0.354  0.1707  0.8253  0.9727
 5935TIP3    H217770   0.398   6.741   0.421 -1.8499  2.4501  0.0596
 5936TIP3   OH217771   2.157   2.875   5.496  0.1839  0.5679  0.6551
 5936TIP3    H117772   2.239   2.895   5.451  0.9392 -1.6166  0.9410
 5936TIP3    H217773   2.182   2.818   5.568 -1.3770  1.4749  1.9916
 5937TIP3   OH217774   4.342   4.812   5.031  0.0913  0.2845 -0.2632
 5937TIP3    H117775   4.292   4.748   5.081  0.1922  1.4600  1.4010
 5937TIP3    H217776   4.279   4.845   4.966  0.5201 -2.7468 -2.4967
 5938TIP3   OH217777   0.790   5.614   3.362 -0.2049 -0.1850 -0.4889
 5938TIP3    H117778   0.703   5.621   3.402  0.2722  0.6542  0.4752
 5938TIP3    H217779   0.813   5.705   3.341  1.3494 -0.0720  1.3797
 5939TIP3   OH217780   6.146   1.433   4.033 -0.1200 -0.2509 -0.3878
 5939TIP3    H117781   6.083   1.416   4.103 -0.3576 -1.9312 -0.9684
 5939TIP3    H217782   6.209   1.362   4.039  0.3813  0.1000 -1.2961
 5940TIP3   OH217783   0.912   0.659   4.922  0.1507 -0.6473 -0.5268
 5940TIP3    H117784   0.825   0.623   4.938  0.6324 -1.4922  0.2870
 5940TIP3    H217785   0.970   0.583   4.920  0.9951 -0.0289 -0.1932
 5941TIP3   OH217786   4.248   1.631   1.834  0.0092  0.5677  0.0621
 5941TIP3    H117787   4.167   1.626   1.885  0.1964  2.0092  0.5482
 5941TIP3    H217788   4.273   1.540   1.820  0.0325  0.0989  2.6806
 5942TIP3   OH217789   2.231   5.419   2.182  0.0346 -0.4815  0.3235
 5942TIP3    H117790   2.187   5.425   2.097  2.0832  0.0972 -0.7495
 5942TIP3    H217791   2.163   5.389   2.242 -2.1203  1.4386 -1.0009
 5943TIP3   OH217792   6.453   1.771   3.555  0.3066  0.0633  0.1668
 5943TIP3    H117793   6.430   1.685   3.592 -0.4929 -0.3527 -1.2417
 5943TIP3    H217794   6.422   1.767   3.465  0.0909  1.9125  0.1284
 5944TIP3   OH217795   2.923   0.968   1.645 -0.7413  0.5378  0.2094
 5944TIP3    H117796   2.916   0.948   1.739 -3.0170 -0.0790 -0.0421
 5944TIP3    H217797   2.873   0.899   1.602 -2.2935  2.4557 -1.2401
 5945TIP3   OH217798   2.854   1.737   3.639 -0.5189  0.5165 -0.0285
 5945TIP3    H117799   2.844   1.825   3.676 -1.5395 -0.1540  1.4108
 5945TIP3    H217800   2.913   1.692   3.699  0.7955  0.4601 -1.2918
 5946TIP3   OH217801   1.451   3.378   1.352  0.3711  0.0321 -0.1332
 5946TIP3    H117802   1.413   3.306   1.302 -0.1295  0.5135 -0.4559
 5946TIP3    H217803   1.475   3.339   1.436  0.9216 -0.7139 -0.6199
 5947TIP3   OH217804   1.408   6.014   1.712 -0.3924  0.0782  0.4053
 5947TIP3    H117805   1.443   6.098   1.683 -0.4025 -0.3376 -0.8812
 5947TIP3    H217806   1.409   5.959   1.633 -0.6283 -1.0458  1.1604
 5948TIP3   OH217807   7.174   2.452   0.149 -0.4209 -0.0846  0.3133
 5948TIP3    H117808   7.187   2.508   0.226 -1.2873 -0.0884  0.4723
 5948TIP3    H217809   7.082   2.464   0.126 -0.1885 -0.1403 -0.6871
 5949TIP3   OH217810   4.139   3.638   4.434  0.2746 -0.5345 -0.1748
 5949TIP3    H117811   4.229   3.618   4.407  0.5445  0.0448  0.2715
 5949TIP3    H217812   4.118   3.718   4.385 -0.8958 -1.9661 -2.1767
 5950TIP3   OH217813   7.172   2.144   5.555 -0.0659 -0.5273 -0.0143
 5950TIP3    H117814   7.183   2.074   5.619 -0.1758  1.1346  1.8978
 5950TIP3    H217815   7.260   2.162   5.523  0.0256 -1.1711 -0.1343
 5951TIP3   OH217816   5.311   6.145   4.465 -0.1607  0.1878  0.3316
 5951TIP3    H117817   5.280   6.071   4.518  1.7468 -0.0492  1.1953
 5951TIP3    H217818   5.397   6.118   4.435  0.4940  1.9741  0.4931
 5952TIP3   OH217819   0.392   0.497   5.343 -0.1474  0.3116 -0.1395
 5952TIP3    H117820   0.388   0.463   5.253  1.4340 -0.1309 -0.0706
 5952TIP3    H217821   0.415   0.421   5.396  0.0841  0.8051  0.4737
 5953TIP3   OH217822   0.136   4.197   1.526  0.1006  0.1379  0.3549
 5953TIP3    H117823   0.217   4.247   1.531  0.0657  0.1438  1.1223
 5953TIP3    H217824   0.102   4.199   1.616 -1.2285  0.9360 -0.1462
 5954TIP3   OH217825   6.331   5.820   4.685 -0.5082 -0.1439 -0.3078
 5954TIP3    H117826   6.236   5.835   4.689 -0.3047  1.5859 -0.9700
 5954TIP3    H217827   6.343   5.761   4.611 -1.0740 -0.5808 -0.0629
 5955TIP3   OH217828   3.429   1.148   1.284  0.9836  0.5236 -0.6546
 5955TIP3    H117829   3.424   1.059   1.249  1.4740 -0.5014  1.6817
 5955TIP3    H217830   3.458   1.136   1.375 -1.7732  2.8453  0.6988
 5956TIP3   OH217831   0.411   2.967   2.831 -0.2114 -0.2968  0.6992
 5956TIP3    H117832   0.478   2.963   2.763 -0.4957 -2.0498  0.4827
 5956TIP3    H217833   0.356   3.041   2.807  1.0088  0.5082  0.2915
 5957TIP3   OH217834   6.293   6.355   3.695 -0.0150  0.2104  0.5018
 5957TIP3    H117835   6.220   6.302   3.729 -1.2987 -0.1376 -2.5336
 5957TIP3    H217836   6.266   6.445   3.713 -0.9304  0.0568 -0.0253
 5958TIP3   OH217837   1.799   5.635   1.687 -0.5498  0.0273  0.5259
 5958TIP3    H117838   1.863   5.623   1.617  0.6041 -2.2196  1.8698
 5958TIP3    H217839   1.805   5.555   1.739 -3.7496  0.1760  1.3225
 5959TIP3   OH217840   2.462   5.764   3.511 -0.1543 -0.2692  0.7462
 5959TIP3    H117841   2.452   5.682   3.561  0.7520 -1.7000 -1.2906
 5959TIP3    H217842   2.450   5.738   3.420  0.7372  1.7807  0.0028
 5960TIP3   OH217843   6.280   1.658   0.288 -0.8492 -0.3760 -0.4923
 5960TIP3    H117844   6.203   1.614   0.322 -1.6441 -1.3787 -3.3564
 5960TIP3    H217845   6.351   1.632   0.348 -2.5890  0.5512  2.1825
 5961TIP3   OH217846   6.599   6.316   0.232  0.1179 -0.3459  0.0932
 5961TIP3    H117847   6.681   6.275   0.205  0.6361  0.6285  0.1244
 5961TIP3    H217848   6.626   6.399   0.272 -0.8583 -0.2095  0.4987
 5962TIP3   OH217849   7.136   5.424   4.180 -0.1073  0.2909 -0.1417
 5962TIP3    H117850   7.137   5.455   4.090  0.1086  0.8853  0.0545
 5962TIP3    H217851   7.055   5.374   4.188  0.3325 -0.5675 -0.9174
 5963TIP3   OH217852   2.868   5.138   3.436 -0.1028  0.1941 -0.2793
 5963TIP3    H117853   2.953   5.174   3.459  0.4802 -2.2516  1.8447
 5963TIP3    H217854   2.888   5.056   3.391 -1.1882 -1.4586  2.0258
 5964TIP3   OH217855   2.621   4.613   0.840  0.3814  0.7390 -0.1784
 5964TIP3    H117856   2.525   4.616   0.842  0.3235  0.7864 -1.5963
 5964TIP3    H217857   2.643   4.619   0.747  1.7955  1.4462  0.1644
 5965TIP3   OH217858   6.114   2.240   4.100  0.0894 -0.1255 -0.3039
 5965TIP3    H117859   6.110   2.188   4.020 -0.7320  1.3583 -1.2737
 5965TIP3    H217860   6.101   2.330   4.071  1.8295  0.7061  1.2728
 5966TIP3   OH217861   0.071   5.270   5.704  0.0250  0.0681 -0.2946
 5966TIP3    H117862  -0.018   5.285   5.735  0.0339  1.6670 -0.9371
 5966TIP3    H217863   0.123   5.262   5.784 -0.3331  1.5680  0.1154
 5967TIP3   OH217864   2.846   0.171   1.947  0.7280  0.2329 -0.9223
 5967TIP3    H117865   2.923   0.158   1.892  1.5931 -1.9600  0.6586
 5967TIP3    H217866   2.867   0.249   1.999  2.1857 -0.6081 -0.1605
 5968TIP3   OH217867   2.429   5.577   5.045 -0.6680 -0.1117 -0.6532
 5968TIP3    H117868   2.353   5.634   5.058 -0.5845  0.5349 -2.6663
 5968TIP3    H217869   2.486   5.627   4.988  0.9307 -0.9332  0.1670
 5969TIP3   OH217870   3.279   5.723   5.390 -0.0206 -0.2089 -0.7265
 5969TIP3    H117871   3.260   5.803   5.440  0.7999  1.0530 -2.3599
 5969TIP3    H217872   3.204   5.714   5.331 -1.1771 -1.9123  0.8557
 5970TIP3   OH217873   6.095   5.576   4.843 -0.2357 -0.2260 -0.2178
 5970TIP3    H117874   6.057   5.499   4.800  1.5662 -0.8527 -0.7643
 5970TIP3    H217875   6.087   5.645   4.778  1.5368 -0.9156 -1.2279
 5971TIP3   OH217876   7.064   0.587   2.870 -0.0333 -0.3798 -0.2991
 5971TIP3    H117877   7.117   0.519   2.911  1.0433  1.5436  1.6907
 5971TIP3    H217878   7.084   0.580   2.776  1.1432 -1.8522  0.0279
 5972TIP3   OH217879   5.292   5.222   4.457  0.2493 -0.0915  0.0909
 5972TIP3    H117880   5.388   5.232   4.456  0.1281  1.8295  1.5275
 5972TIP3    H217881   5.259   5.312   4.464 -1.5928 -0.8562  2.1962
 5973TIP3   OH217882   5.658   1.072   3.856 -0.3059  0.0772 -0.6402
 5973TIP3    H117883   5.651   1.056   3.950 -1.1869  0.5851 -0.6120
 5973TIP3    H217884   5.568   1.070   3.824 -0.0337  0.1329 -1.4414
 5974TIP3   OH217885   1.423   0.451   3.773  0.1889 -0.1072 -0.5736
 5974TIP3    H117886   1.358   0.519   3.788 -0.1359 -0.5534  0.1161
 5974TIP3    H217887   1.423   0.438   3.678  0.0416  0.6373 -0.6807
 5975TIP3   OH217888   6.413   1.275   4.375  0.7292 -0.1000  0.0945
 5975TIP3    H117889   6.328   1.294   4.416  1.5989  1.3039  1.3408
 5975TIP3    H217890   6.397   1.286   4.281 -0.5716 -0.2856  0.2725
 5976TIP3   OH217891   6.412   5.885   5.302  0.0796 -0.2643  0.4956
 5976TIP3    H117892   6.456   5.880   5.386 -0.1412 -0.3667  0.6063
 5976TIP3    H217893   6.326   5.923   5.322 -0.0242 -0.4147  0.3372
 5977TIP3   OH217894   6.481   1.905   1.836 -0.3151  0.2099 -0.2936
 5977TIP3    H117895   6.559   1.853   1.817 -1.0473 -0.8164 -0.5886
 5977TIP3    H217896   6.505   1.994   1.810  0.1529 -0.4071 -2.1303
 5978TIP3   OH217897   6.906   0.741   4.891  0.1420  0.3596 -0.2314
 5978TIP3    H117898   6.927   0.721   4.982  2.3171  2.3792 -0.1680
 5978TIP3    H217899   6.901   0.837   4.888 -0.8012  0.3011 -2.0640
 5979TIP3   OH217900   4.757   1.607   4.187  0.0153  0.5221  0.4151
 5979TIP3    H117901   4.737   1.514   4.195  0.6748  0.4443  1.4079
 5979TIP3    H217902   4.694   1.650   4.245  0.3930  0.5862  0.7879
 5980TIP3   OH217903   1.388   2.611   3.475  0.0259  0.0475  0.4360
 5980TIP3    H117904   1.436   2.622   3.393 -1.4115  1.2702 -0.2751
 5980TIP3    H217905   1.452   2.633   3.543  0.6342  1.0925 -0.4583
 5981TIP3   OH217906   4.035   1.034   2.830  0.1042  0.1088 -0.2431
 5981TIP3    H117907   3.988   0.954   2.807 -0.6528  0.8058 -1.2342
 5981TIP3    H217908   3.977   1.081   2.889 -0.2843  0.7708 -1.1275
 5982TIP3   OH217909   3.340   0.684   2.638  0.6694 -0.6294  0.0095
 5982TIP3    H117910   3.393   0.622   2.588 -0.9084  0.4076 -3.2067
 5982TIP3    H217911   3.307   0.746   2.573 -3.0275 -0.1797  2.0264
 5983TIP3   OH217912   4.236   1.742   3.536 -0.5367 -0.2904  0.4475
 5983TIP3    H117913   4.281   1.785   3.464  2.1929 -1.5229  1.2766
 5983TIP3    H217914   4.165   1.692   3.495 -1.4786  1.9633 -0.8808
 5984TIP3   OH217915   4.235   2.340   4.498  0.6060 -0.1391  0.2253
 5984TIP3    H117916   4.142   2.352   4.480  0.5508 -1.4068 -0.4086
 5984TIP3    H217917   4.237   2.291   4.580  0.6115 -2.3534 -1.0282
 5985TIP3   OH217918   2.059   5.664   3.534 -0.4370 -0.2365  0.3597
 5985TIP3    H117919   2.121   5.727   3.496 -0.1193  0.0711  1.3557
 5985TIP3    H217920   2.082   5.661   3.626 -1.4639 -0.6566  0.6113
 5986TIP3   OH217921   0.548   2.981   1.129  0.8411 -0.1205 -0.0983
 5986TIP3    H117922   0.598   2.956   1.206  1.2877  0.7932 -0.0706
 5986TIP3    H217923   0.465   2.935   1.138  0.9835 -0.2257  0.7977
 5987TIP3   OH217924   5.116   2.236   4.861  1.2329  0.1939  0.0621
 5987TIP3    H117925   5.108   2.294   4.937  1.9298  0.3502  0.0302
 5987TIP3    H217926   5.026   2.220   4.833  0.8859 -0.9397  1.7125
 5988TIP3   OH217927   3.668   4.379   4.896 -0.6016  0.0404  0.2735
 5988TIP3    H117928   3.673   4.456   4.953 -2.4394  2.7066 -2.8263
 5988TIP3    H217929   3.574   4.359   4.892 -0.5157 -0.1539 -1.6043
 5989TIP3   OH217930   0.095   2.645   3.815  0.3006 -0.4475 -0.0645
 5989TIP3    H117931   0.035   2.578   3.847  0.3760 -0.9107 -0.8488
 5989TIP3    H217932   0.089   2.639   3.719 -1.4725  2.2855 -0.2274
 5990TIP3   OH217933   6.953   2.030   0.428  0.6305 -0.3258 -0.1069
 5990TIP3    H117934   6.892   1.959   0.409  0.0786 -0.3674  1.6477
 5990TIP3    H217935   6.916   2.074   0.505  2.8109 -0.3679  1.0442
 5991TIP3   OH217936   4.303   1.315   2.582  0.2362 -0.3518 -0.1324
 5991TIP3    H117937   4.210   1.335   2.586 -0.4711 -2.9567 -1.1941
 5991TIP3    H217938   4.337   1.371   2.512 -1.0708 -0.9963 -1.3348
 5992TIP3   OH217939   4.100   1.519   4.213 -0.4324  0.3372 -0.2096
 5992TIP3    H117940   4.162   1.548   4.145  1.4619  0.6682  1.5737
 5992TIP3    H217941   4.081   1.598   4.263 -1.3447 -0.0229  0.0230
 5993TIP3   OH217942   6.333   1.723   2.264  0.1639 -0.6823  0.1187
 5993TIP3    H117943   6.351   1.717   2.171 -0.3740 -1.8063  0.0629
 5993TIP3    H217944   6.389   1.657   2.304  0.0650 -0.5171  0.5369
 5994TIP3   OH217945   0.136   1.126   3.539 -0.2169  0.0088 -0.5048
 5994TIP3    H117946   0.092   1.185   3.477 -2.8369  0.8920  1.9966
 5994TIP3    H217947   0.105   1.038   3.514 -1.1228  0.3374 -0.5639
 5995TIP3   OH217948   0.606   1.678   0.563  0.0156 -0.2134 -0.1055
 5995TIP3    H117949   0.593   1.589   0.529 -3.4140 -0.5180  1.5767
 5995TIP3    H217950   0.606   1.734   0.486 -0.2205 -1.4531 -1.0347
 5996TIP3   OH217951   3.778   5.750   5.586 -0.2405 -0.6906  0.1834
 5996TIP3    H117952   3.693   5.739   5.629  0.2243 -1.0279  1.0455
 5996TIP3    H217953   3.821   5.820   5.635  0.9631 -2.1966  1.4054
 5997TIP3   OH217954   0.994   5.917   1.136 -0.1970  0.1980  0.1799
 5997TIP3    H117955   1.040   5.997   1.111  0.8108  0.0409  1.4113
 5997TIP3    H217956   0.932   5.901   1.065  0.7150  1.1791 -0.8668
 5998TIP3   OH217957   3.202   5.376   0.752  0.1968 -0.0296  1.0104
 5998TIP3    H117958   3.216   5.471   0.752 -0.7635  0.1545 -0.3963
 5998TIP3    H217959   3.229   5.348   0.665 -0.2404 -0.9237  1.1530
 5999TIP3   OH217960   1.537   2.358   1.213 -0.5988 -0.2104  0.3268
 5999TIP3    H117961   1.562   2.278   1.166 -1.6856 -0.0955 -0.4861
 5999TIP3    H217962   1.578   2.429   1.163  1.4502 -0.2901  1.7809
 6000TIP3   OH217963   1.659   6.318   5.159 -0.0283 -0.2936  0.3314
 6000TIP3    H117964   1.591   6.324   5.092 -0.5574 -0.7311  0.8154
 6000TIP3    H217965   1.724   6.258   5.122  0.5527  0.8204 -0.5071
 6001TIP3   OH217966   1.892   5.470   1.257  0.2925 -0.1744 -0.3467
 6001TIP3    H117967   1.945   5.418   1.317  0.3892 -0.7468 -0.9121
 6001TIP3    H217968   1.838   5.406   1.210  0.2057  0.2571 -0.8538
 6002TIP3   OH217969   5.063   1.751   4.312 -0.1975 -0.0781  0.2396
 6002TIP3    H117970   5.006   1.745   4.235  0.5138  1.7489 -0.4818
 6002TIP3    H217971   5.126   1.680   4.300 -1.2664 -1.0418  0.1663
 6003TIP3   OH217972   5.391   4.286   1.877 -0.0161  0.2655 -0.0082
 6003TIP3    H117973   5.472   4.241   1.853 -1.9579 -3.7086  0.0519
 6003TIP3    H217974   5.373   4.256   1.966 -2.6055 -0.9145 -0.8243
 6004TIP3   OH217975   5.000   5.402   4.367 -0.3171 -0.1662 -0.1967
 6004TIP3    H117976   5.087   5.434   4.391  1.2265 -4.9649  2.0168
 6004TIP3    H217977   4.948   5.409   4.447  0.3325 -3.3002  0.6559
 6005TIP3   OH217978   4.413   6.644   5.580  0.2426  0.4209 -0.0125
 6005TIP3    H117979   4.460   6.654   5.663 -0.0273 -2.4577  0.5801
 6005TIP3    H217980   4.355   6.719   5.576  1.4713  1.5207  1.5664
 6006TIP3   OH217981   2.287   6.020   1.985  0.0587 -0.0283  0.2015
 6006TIP3    H117982   2.227   5.955   1.950  0.4107 -0.0726 -0.3330
 6006TIP3    H217983   2.239   6.103   1.981 -0.2167 -0.1766  0.4412
 6007TIP3   OH217984   4.927   2.078   3.558  0.0372  0.5379  0.1600
 6007TIP3    H117985   5.000   2.062   3.617 -0.2793 -1.1286  0.1573
 6007TIP3    H217986   4.861   2.012   3.582 -0.1385 -0.1381 -1.9373
 6008TIP3   OH217987   5.592   1.918   4.854  0.4266 -0.0359  0.2383
 6008TIP3    H117988   5.499   1.917   4.877  0.3611 -0.4999 -0.0236
 6008TIP3    H217989   5.612   1.827   4.831  1.0768 -0.0436  0.7974
 6009TIP3   OH217990   2.533   1.734   3.419  0.2424 -0.2758  0.2067
 6009TIP3    H117991   2.502   1.798   3.482 -1.1143 -1.3029  0.6072
 6009TIP3    H217992   2.585   1.672   3.470 -1.0461 -1.2376  0.3995
 6010TIP3   OH217993   0.843   1.482   0.634 -0.1781  0.0029 -0.1219
 6010TIP3    H117994   0.880   1.529   0.560  0.0902 -0.2500 -0.1471
 6010TIP3    H217995   0.878   1.527   0.711  0.2671 -0.3032 -0.1454
 6011TIP3   OH217996   2.209   4.045   4.842  0.1821 -0.5235 -0.1816
 6011TIP3    H117997   2.173   3.997   4.767 -0.2446  2.0446 -1.7751
 6011TIP3    H217998   2.158   4.015   4.917 -1.4618 -1.0471 -1.4394
 6012TIP3   OH217999   4.763   2.916   2.500 -0.8160  0.0638  0.1197
 6012TIP3    H118000   4.668   2.933   2.502 -0.8013  0.0812  1.2000
 6012TIP3    H218001   4.771   2.830   2.459 -1.1424  0.9667 -1.9806
 6013TIP3   OH218002   3.554   1.252   5.255  0.2797 -0.2059 -0.2106
 6013TIP3    H118003   3.589   1.163   5.250 -1.6778 -0.9785 -1.1058
 6013TIP3    H218004   3.504   1.254   5.336  0.2022  0.0540 -0.2624
 6014TIP3   OH218005   2.417   1.278   3.334 -0.2264 -0.3229 -0.1188
 6014TIP3    H118006   2.476   1.209   3.365 -0.9109  0.0125  2.0936
 6014TIP3    H218007   2.474   1.353   3.320  0.4418 -1.1266 -2.0096
 6015TIP3   OH218008   5.895   4.971   4.281  0.5191 -0.2081 -0.3668
 6015TIP3    H118009   5.818   4.926   4.244  1.0801 -1.7710  0.2758
 6015TIP3    H218010   5.962   4.962   4.214  0.6708 -0.4568 -0.1835
 6016TIP3   OH218011   2.070   2.460   1.317 -0.4139 -0.2893  0.4504
 6016TIP3    H118012   2.123   2.404   1.372  1.5130  2.3719  1.5027
 6016TIP3    H218013   2.075   2.546   1.358 -1.1841  1.2285 -2.3584
 6017TIP3   OH218014   2.546   2.295   1.109  0.0907 -0.0882  0.0175
 6017TIP3    H118015   2.582   2.344   1.182  0.1497  1.3608 -0.9580
 6017TIP3    H218016   2.451   2.299   1.122  0.0806  0.6360 -0.2852
 6018TIP3   OH218017   0.353   1.967   4.497 -0.1309  0.0660  0.1891
 6018TIP3    H118018   0.383   1.885   4.536  2.1837  0.9959  0.5044
 6018TIP3    H218019   0.336   2.025   4.572 -1.0868  0.1118 -0.0491
 6019TIP3   OH218020   1.090   1.600   3.414  0.2548  0.1733 -0.2779
 6019TIP3    H118021   1.093   1.693   3.436 -1.3240  0.4850 -1.1993
 6019TIP3    H218022   1.050   1.558   3.491  0.6312  0.2982 -0.0113
 6020TIP3   OH218023   5.912   4.861   3.981  0.4314 -0.6735 -0.4155
 6020TIP3    H118024   6.004   4.841   3.961  0.0260 -3.1474 -0.0944
 6020TIP3    H218025   5.879   4.782   4.023 -1.1532  1.1027  1.9446
 6021TIP3   OH218026   2.763   1.330   4.615  0.5053  1.0088  0.1923
 6021TIP3    H118027   2.728   1.386   4.685  0.0130  2.5072 -1.1805
 6021TIP3    H218028   2.703   1.344   4.542  1.1883 -0.2689 -0.6419
 6022TIP3   OH218029   1.528   5.716   1.712  0.4987 -0.0808  0.6525
 6022TIP3    H118030   1.615   5.677   1.705  0.4802 -0.5280  2.4805
 6022TIP3    H218031   1.528   5.788   1.648  2.0265 -0.3671  0.3017
 6023TIP3   OH218032   0.909   2.616   0.877 -0.1898 -0.0882 -0.3847
 6023TIP3    H118033   0.897   2.594   0.970  0.5032  0.1069 -0.2445
 6023TIP3    H218034   0.866   2.700   0.866  0.8928  0.5429  0.0809
 6024TIP3   OH218035   4.073   6.202   3.776  0.2640  0.6520  0.4215
 6024TIP3    H118036   3.983   6.177   3.799  0.3707 -1.1514 -0.9309
 6024TIP3    H218037   4.127   6.162   3.844  0.2811 -1.4961 -0.7563
 6025TIP3   OH218038   0.863   1.204   5.199  0.7687  0.1778  0.4542
 6025TIP3    H118039   0.786   1.154   5.172 -0.1180  1.2420  0.9012
 6025TIP3    H218040   0.898   1.240   5.117  1.3181 -1.0241  0.1538
 6026TIP3   OH218041   3.479   2.767   2.561 -0.2263 -0.1652  0.1592
 6026TIP3    H118042   3.388   2.759   2.535 -0.0711  2.1719 -1.5315
 6026TIP3    H218043   3.494   2.862   2.565  2.3787 -0.4557 -0.7448
 6027TIP3   OH218044   2.418   5.939   5.065 -0.1874  0.0886 -0.1781
 6027TIP3    H118045   2.408   6.031   5.090  0.3094  0.0549  0.1646
 6027TIP3    H218046   2.421   5.892   5.149  0.6043 -0.1266 -0.3190
 6028TIP3   OH218047   1.701   3.403   5.889  0.3261 -0.1943  0.1054
 6028TIP3    H118048   1.722   3.480   5.837  0.9087 -0.3815  0.0565
 6028TIP3    H218049   1.686   3.333   5.825 -0.5455 -0.0510  0.1350
 6029TIP3   OH218050   1.800   5.718   4.197 -0.4115 -0.5217  0.1018
 6029TIP3    H118051   1.836   5.636   4.164 -0.5480 -0.2128 -0.8446
 6029TIP3    H218052   1.821   5.783   4.129 -0.3622  0.2153  0.7991
 6030TIP3   OH218053   4.982   4.009   1.016  0.4177 -0.1131 -0.0734
 6030TIP3    H118054   5.073   4.034   1.004  0.1166  1.7866  1.1247
 6030TIP3    H218055   4.943   4.015   0.928  1.2036  0.0713 -0.4129
 6031TIP3   OH218056   5.623   4.127   1.771  0.2629 -0.6538 -0.0550
 6031TIP3    H118057   5.693   4.169   1.820 -0.9945  2.5869 -0.7921
 6031TIP3    H218058   5.648   4.138   1.679 -1.9041  2.2338 -0.4279
 6032TIP3   OH218059   6.323   3.419   0.075  0.1081 -0.1869  0.1617
 6032TIP3    H118060   6.334   3.333   0.036  2.5153 -0.3669  1.0983
 6032TIP3    H218061   6.268   3.404   0.152  0.8058 -0.9855  0.5216
 6033TIP3   OH218062   1.274   2.087   3.539  0.5165  0.4420  0.2327
 6033TIP3    H118063   1.356   2.041   3.524  0.9229  1.2576 -0.1187
 6033TIP3    H218064   1.299   2.180   3.542 -0.3026  0.6538  0.7421
 6034TIP3   OH218065   5.576   2.495   2.373  0.1951 -0.1487 -0.0366
 6034TIP3    H118066   5.542   2.548   2.445  1.6423  1.3366 -0.3789
 6034TIP3    H218067   5.573   2.405   2.406 -1.0287  0.2614  1.0965
 6035TIP3   OH218068   2.955   1.408   2.920 -0.1291  0.0003  0.2993
 6035TIP3    H118069   2.906   1.461   2.983 -0.1689 -0.4801  0.6705
 6035TIP3    H218070   2.916   1.430   2.835 -0.8216 -0.1906  0.5614
 6036TIP3   OH218071   7.089   5.886   4.675  0.1083 -0.5369 -0.5350
 6036TIP3    H118072   7.063   5.850   4.760  0.3424 -0.4820 -0.4409
 6036TIP3    H218073   7.009   5.882   4.622 -1.1263  2.7341  0.7717
 6037TIP3   OH218074   6.733   5.124   5.139  0.2326 -0.4039  0.5050
 6037TIP3    H118075   6.665   5.057   5.135 -0.7709  0.6101  0.3118
 6037TIP3    H218076   6.702   5.186   5.205 -0.2590  1.3595 -1.2905
 6038TIP3   OH218077   5.341   3.695   4.159 -0.2010  0.0155  0.3980
 6038TIP3    H118078   5.313   3.708   4.250  1.3473 -1.1539  1.0911
 6038TIP3    H218079   5.299   3.613   4.134  0.6277 -0.4901  0.6237
 6039TIP3   OH218080   0.962   1.591   5.361 -0.7400  0.4107  0.1692
 6039TIP3    H118081   1.008   1.659   5.311  1.6672 -1.0677  0.2005
 6039TIP3    H218082   0.894   1.559   5.302  2.3782 -1.7046 -2.5834
 6040TIP3   OH218083   3.629   4.759   3.639  0.0805  0.2170 -0.2671
 6040TIP3    H118084   3.717   4.725   3.627  0.4257  1.4163 -1.2878
 6040TIP3    H218085   3.634   4.813   3.718  0.6460  1.4294 -1.0990
 6041TIP3   OH218086   3.122   0.904   4.454  0.3211  0.1870 -0.2978
 6041TIP3    H118087   3.179   0.840   4.498 -0.2295 -0.4749 -0.5314
 6041TIP3    H218088   3.183   0.962   4.408  0.8428  0.0307  0.1765
 6042TIP3   OH218089   3.690   2.252   5.041 -0.3596  0.2144  0.2900
 6042TIP3    H118090   3.602   2.262   5.004 -1.3680 -1.9730  1.8759
 6042TIP3    H218091   3.701   2.157   5.052  0.7733  0.5877  3.3178
 6043TIP3   OH218092   3.268   0.055   3.448 -0.3345  0.2092  0.4689
 6043TIP3    H118093   3.191   0.019   3.406 -0.0746  1.7466 -1.4534
 6043TIP3    H218094   3.340   0.034   3.389  0.0745  2.2588  0.1556
 6044TIP3   OH218095   1.205   1.419   5.391 -0.2050  0.0582  0.6631
 6044TIP3    H118096   1.230   1.432   5.300  0.1139  0.5261  0.8084
 6044TIP3    H218097   1.130   1.361   5.388  0.4854 -0.8369  0.1642
 6045TIP3   OH218098   5.515   4.060   3.142  0.1779  0.6122 -0.0526
 6045TIP3    H118099   5.609   4.047   3.150  0.1002  0.9066  1.7122
 6045TIP3    H218100   5.478   3.972   3.142  0.4173  0.5119 -0.2396
 6046TIP3   OH218101   4.278   5.790   0.083  0.7985  0.3413  0.0077
 6046TIP3    H118102   4.226   5.755   0.155 -0.8343  0.2463 -1.1506
 6046TIP3    H218103   4.231   5.868   0.055  0.8493 -0.1250 -1.5235
 6047TIP3   OH218104   6.590   3.774   2.471  0.5673 -0.3432 -0.4126
 6047TIP3    H118105   6.521   3.732   2.523  1.3447 -0.7246  0.3428
 6047TIP3    H218106   6.607   3.857   2.516  1.0517 -0.5515 -0.1944
 6048TIP3   OH218107   0.225   3.065   0.342 -0.2632 -0.3419  0.3186
 6048TIP3    H118108   0.195   2.989   0.391  1.6741 -1.5776 -0.3189
 6048TIP3    H218109   0.273   3.029   0.268 -0.3520  1.5056 -0.7099
 6049TIP3   OH218110   0.277   4.840   3.854 -0.4503  0.2339 -0.4476
 6049TIP3    H118111   0.329   4.886   3.788  1.2402  1.6960  1.7423
 6049TIP3    H218112   0.336   4.772   3.888 -0.8748  0.2515  0.3449
 6050TIP3   OH218113   0.079   6.122   0.795  0.1291 -0.3094 -0.4851
 6050TIP3    H118114  -0.008   6.103   0.758 -0.2357 -1.2069  0.7503
 6050TIP3    H218115   0.085   6.218   0.792 -0.9738 -0.2156 -0.4636
 6051TIP3   OH218116   1.496   2.489   0.449  0.6225 -0.1105 -0.2306
 6051TIP3    H118117   1.545   2.407   0.459 -1.0716 -1.2056 -0.5292
 6051TIP3    H218118   1.405   2.466   0.468 -0.3290  1.1243 -2.7842
 6052TIP3   OH218119   1.529   3.872   0.235  0.4904 -0.2090  0.3596
 6052TIP3    H118120   1.448   3.839   0.275 -0.2403 -1.0803 -1.7084
 6052TIP3    H218121   1.597   3.814   0.268  0.1763  0.0375  1.5006
 6053TIP3   OH218122   6.180   5.966   5.733 -0.3790  0.3667  0.2815
 6053TIP3    H118123   6.090   5.981   5.704 -0.0331 -0.4528 -1.3408
 6053TIP3    H218124   6.197   5.874   5.711  1.1666  0.7729 -0.3410
 6054TIP3   OH218125   4.086   4.687   4.425  0.0634 -0.1589  0.2346
 6054TIP3    H118126   4.138   4.735   4.360 -0.3382 -1.0282 -0.7678
 6054TIP3    H218127   4.148   4.626   4.465  0.4070  0.6668  0.9845
 6055TIP3   OH218128   3.591   3.964   2.787 -0.2178 -0.1836  0.4968
 6055TIP3    H118129   3.553   4.052   2.788 -0.0531 -0.1136  2.1626
 6055TIP3    H218130   3.685   3.979   2.779 -0.1937 -0.2130  0.7277
 6056TIP3   OH218131   4.817   0.727   4.874 -0.7425  0.1398 -0.8176
 6056TIP3    H118132   4.895   0.782   4.865 -0.1806 -0.5284 -0.2105
 6056TIP3    H218133   4.847   0.639   4.850 -0.4681 -0.7417  2.3663
 6057TIP3   OH218134   3.142   2.998   2.096 -0.4094 -0.4695  0.0348
 6057TIP3    H118135   3.063   3.032   2.137  0.5368 -0.0283  1.5857
 6057TIP3    H218136   3.204   2.988   2.168  0.2371 -2.9695 -0.7772
 6058TIP3   OH218137   0.234   5.887   4.648 -0.1949  0.3557 -0.0451
 6058TIP3    H118138   0.280   5.971   4.649 -0.2973  0.4325 -0.9425
 6058TIP3    H218139   0.145   5.909   4.620 -0.0809 -0.1072 -0.7940
 6059TIP3   OH218140   5.452   6.171   0.701  1.1592 -0.0799 -0.4724
 6059TIP3    H118141   5.507   6.228   0.754  2.5010 -1.1708 -0.6510
 6059TIP3    H218142   5.461   6.204   0.612  1.3647 -0.1239 -0.4684
 6060TIP3   OH218143   3.801   1.778   5.881 -0.3313  0.4790  0.2189
 6060TIP3    H118144   3.811   1.727   5.801 -1.3789  0.7143 -0.0811
 6060TIP3    H218145   3.882   1.829   5.887  0.0359 -0.0222 -0.3365
 6061TIP3   OH218146   4.766   5.373   1.296  0.6234  0.3944  0.4509
 6061TIP3    H118147   4.728   5.289   1.323  1.4785  0.0710  0.6796
 6061TIP3    H218148   4.697   5.437   1.316 -0.3254 -0.3261 -0.4294
 6062TIP3   OH218149   3.178   5.190   1.875 -0.2658  0.1778  0.6200
 6062TIP3    H118150   3.140   5.113   1.918 -0.1372  0.1089  0.6120
 6062TIP3    H218151   3.179   5.257   1.944  1.4797 -0.4180  1.2547
 6063TIP3   OH218152   0.453   3.161   1.530  0.5155 -0.5523 -0.5535
 6063TIP3    H118153   0.381   3.103   1.556  2.8158 -3.6449 -0.4822
 6063TIP3    H218154   0.444   3.170   1.435  0.1743 -1.1834 -0.5865
 6064TIP3   OH218155   1.263   3.254   2.533 -0.4321  0.4002  0.1024
 6064TIP3    H118156   1.268   3.207   2.450  2.2274  2.8145 -1.2992
 6064TIP3    H218157   1.313   3.200   2.594  1.9959  0.9142 -1.2881
 6065TIP3   OH218158   1.025   5.480   3.390 -0.1322  0.0528  0.2478
 6065TIP3    H118159   0.936   5.515   3.386  0.6539  2.5158  1.7283
 6065TIP3    H218160   1.070   5.523   3.317  0.3299  0.5791  0.8211
 6066TIP3   OH218161   4.529   0.414   4.195  0.0022  0.3046  0.6428
 6066TIP3    H118162   4.567   0.485   4.248  0.3722  0.5341  0.0825
 6066TIP3    H218163   4.545   0.335   4.245 -2.6531  0.8129  2.5593
 6067TIP3   OH218164   4.860   0.754   5.176  0.2726  0.6520  0.8121
 6067TIP3    H118165   4.787   0.703   5.142  0.0651  0.2827  1.7903
 6067TIP3    H218166   4.938   0.708   5.144  0.0838  0.2399  0.9421
 6068TIP3   OH218167   0.102   2.778   0.351  0.0828 -0.1699 -0.2054
 6068TIP3    H118168   0.184   2.730   0.340  0.5088 -0.0770  2.0996
 6068TIP3    H218169   0.059   2.736   0.426 -1.3687  0.6160 -0.5515
 6069TIP3   OH218170   0.684   0.320   5.747  0.1318  0.2047  0.2468
 6069TIP3    H118171   0.752   0.357   5.691 -0.0708 -0.1976 -0.2733
 6069TIP3    H218172   0.605   0.369   5.724 -0.4957 -1.5057 -1.5624
 6070TIP3   OH218173   6.369   6.381   0.100  0.2563 -0.0356 -0.0304
 6070TIP3    H118174   6.424   6.359   0.175 -0.0319 -3.9634 -0.7576
 6070TIP3    H218175   6.282   6.350   0.125  0.2532 -1.9029 -2.0538
 6071TIP3   OH218176   3.351   4.163   0.920 -1.0770 -0.2161  0.7590
 6071TIP3    H118177   3.423   4.218   0.948  0.2999 -2.1361  1.2063
 6071TIP3    H218178   3.334   4.189   0.829 -0.3953  0.8141  0.9166
 6072TIP3   OH218179   5.321   6.033   5.075 -0.2373  0.2379  0.2462
 6072TIP3    H118180   5.288   6.063   4.990  1.6009 -0.0983 -0.6351
 6072TIP3    H218181   5.399   6.086   5.091 -0.4967  0.2236  1.6972
 6073TIP3   OH218182   0.645   6.596   1.015  0.2084  0.3332 -0.3810
 6073TIP3    H118183   0.718   6.583   1.075  0.6883  0.6628 -0.8798
 6073TIP3    H218184   0.626   6.690   1.021 -0.6793  0.1156  0.3135
 6074TIP3   OH218185   2.788   1.702   4.595  0.0551 -0.3412  0.2623
 6074TIP3    H118186   2.775   1.636   4.527 -0.5402  2.2598 -2.3445
 6074TIP3    H218187   2.706   1.701   4.645 -0.1888 -1.1326 -0.1322
 6075TIP3   OH218188   2.568   5.309   0.361 -0.6114 -0.3030  0.3440
 6075TIP3    H118189   2.626   5.374   0.321  0.0186  0.1243  1.8559
 6075TIP3    H218190   2.563   5.336   0.453 -0.9206 -1.9851  0.8514
 6076TIP3   OH218191   1.216   4.848   3.000 -0.6568 -0.1684 -0.4768
 6076TIP3    H118192   1.165   4.892   3.068  0.7444 -0.1086  0.5923
 6076TIP3    H218193   1.242   4.765   3.039 -1.0215 -0.7775 -1.4870
 6077TIP3   OH218194   5.333   0.979   0.104 -0.1466 -0.2193  0.5335
 6077TIP3    H118195   5.247   0.968   0.144 -0.9796 -0.1418 -1.1579
 6077TIP3    H218196   5.352   1.073   0.113 -1.4721  0.2937 -1.3812
 6078TIP3   OH218197   3.893   0.786   2.061 -0.1963 -0.7339 -0.1667
 6078TIP3    H118198   3.914   0.870   2.020 -1.3985 -0.7654 -0.8853
 6078TIP3    H218199   3.959   0.726   2.026  1.5108  0.1283  1.3614
 6079TIP3   OH218200   4.787   1.028   4.312  0.6616 -0.8092  0.1850
 6079TIP3    H118201   4.861   1.032   4.252 -0.4216  1.0740 -1.1472
 6079TIP3    H218202   4.827   1.019   4.399  2.5405  0.9577 -0.4033
 6080TIP3   OH218203   4.302   6.375   3.838  0.1607 -0.5297  0.0231
 6080TIP3    H118204   4.290   6.469   3.833 -0.0634 -0.4881  1.0327
 6080TIP3    H218205   4.235   6.345   3.900  0.2617 -1.3380 -0.2383
 6081TIP3   OH218206   6.445   5.289   0.019  0.6464  0.5933 -0.0144
 6081TIP3    H118207   6.494   5.281  -0.063 -0.5490  1.0105 -0.7995
 6081TIP3    H218208   6.496   5.237   0.082  0.7179 -1.1558 -1.4099
 6082TIP3   OH218209   2.560   6.328   1.803 -0.5293  0.4960 -0.0732
 6082TIP3    H118210   2.551   6.353   1.895 -2.6510  1.6103 -0.5327
 6082TIP3    H218211   2.526   6.238   1.800  3.4825 -1.3162  0.8678
 6083TIP3   OH218212   1.101   4.123   1.387 -0.2958 -0.7798  0.3245
 6083TIP3    H118213   1.018   4.168   1.369 -0.3032 -1.4617 -1.6249
 6083TIP3    H218214   1.128   4.089   1.302  1.3768 -1.6368  1.1554
 6084TIP3   OH218215   4.288   2.230   4.240  0.0285 -0.5415  0.2232
 6084TIP3    H118216   4.306   2.297   4.305 -1.2791 -0.6539  0.7184
 6084TIP3    H218217   4.248   2.276   4.167 -0.2454 -0.6906  0.2794
 6085TIP3   OH218218   1.994   0.674   2.212 -0.3668 -0.5568 -0.0367
 6085TIP3    H118219   1.966   0.583   2.217  0.3489 -0.7458  0.6521
 6085TIP3    H218220   2.052   0.686   2.287  1.6734 -0.2677 -1.5869
 6086TIP3   OH218221   6.944   1.555   3.317 -0.2975  0.5864  0.1127
 6086TIP3    H118222   6.906   1.600   3.241  1.1545 -3.1729 -3.1880
 6086TIP3    H218223   6.868   1.518   3.363 -1.1272  2.0237 -0.0158
 6087TIP3   OH218224   6.003   0.310   2.095  0.0089 -0.3559 -0.2494
 6087TIP3    H118225   6.038   0.252   2.163 -0.3329 -0.7359 -0.3946
 6087TIP3    H218226   6.018   0.399   2.129 -2.8873 -0.5058  1.7775
 6088TIP3   OH218227   2.783   6.254   2.315 -0.1289 -0.1975 -0.5192
 6088TIP3    H118228   2.838   6.192   2.365 -1.3300 -1.3320 -0.5452
 6088TIP3    H218229   2.736   6.198   2.253 -3.9209  0.1234  1.7598
 6089TIP3   OH218230   7.213   3.643   1.653 -0.3107 -0.3371  0.0756
 6089TIP3    H118231   7.174   3.556   1.658 -0.6859 -0.2544 -0.9552
 6089TIP3    H218232   7.213   3.675   1.743 -1.4008 -0.8827  0.2942
 6090TIP3   OH218233   1.539   2.278   5.454 -0.4419 -0.2719  0.0821
 6090TIP3    H118234   1.616   2.313   5.410 -0.6236  0.1839  0.1234
 6090TIP3    H218235   1.471   2.279   5.386 -0.2915 -1.1434 -0.1014
 6091TIP3   OH218236   5.497   4.692   1.113  0.1098 -0.3553  0.2359
 6091TIP3    H118237   5.530   4.730   1.032  1.6210 -1.1545  0.4295
 6091TIP3    H218238   5.549   4.612   1.124 -1.0316 -0.9775  1.2743
 6092TIP3   OH218239   7.032   6.168   4.694 -0.7166 -0.8451  0.0875
 6092TIP3    H118240   6.975   6.098   4.664 -2.4169 -0.2528  1.8211
 6092TIP3    H218241   7.099   6.124   4.747  0.2460 -1.4712 -1.5349
 6093TIP3   OH218242   5.689   3.012   3.617  0.5388  0.2337  0.3762
 6093TIP3    H118243   5.767   3.029   3.564  0.4496 -0.0924  0.1355
 6093TIP3    H218244   5.695   3.074   3.689  0.9990  0.2402  0.3365
 6094TIP3   OH218245   7.167   3.093   1.690 -0.1980 -0.2532 -0.2731
 6094TIP3    H118246   7.256   3.056   1.689 -0.3029 -0.6326  1.3244
 6094TIP3    H218247   7.132   3.068   1.775 -1.6623  0.3491 -0.6696
 6095TIP3   OH218248   2.769   0.897   3.226  0.3502  0.4747 -0.0280
 6095TIP3    H118249   2.826   0.912   3.150  0.1836 -0.3396 -0.3283
 6095TIP3    H218250   2.726   0.813   3.207 -2.0608  1.7222 -0.5030
 6096TIP3   OH218251   2.548   4.149   2.328  0.1823 -0.5488  0.2382
 6096TIP3    H118252   2.611   4.080   2.349 -0.2641 -0.8981  0.4436
 6096TIP3    H218253   2.549   4.154   2.233 -0.6123 -1.6345  0.1555
 6097TIP3   OH218254   2.884   1.190   0.486 -0.6249 -0.2128 -0.6097
 6097TIP3    H118255   2.815   1.255   0.496 -0.9526 -0.5140 -0.8789
 6097TIP3    H218256   2.932   1.218   0.407  2.1214  2.3088  1.6944
 6098TIP3   OH218257   6.855   0.016   2.142  0.5227 -0.1170 -0.5451
 6098TIP3    H118258   6.947   0.038   2.158  0.8508 -0.3951 -1.9159
 6098TIP3    H218259   6.852  -0.008   2.050 -0.9397 -0.1131 -0.5191
 6099TIP3   OH218260   0.535   3.187   3.815  0.1629 -0.7497  0.0025
 6099TIP3    H118261   0.472   3.150   3.754 -0.5336 -1.2858  1.0174
 6099TIP3    H218262   0.491   3.184   3.900  1.6657 -1.4114  0.8010
 6100TIP3   OH218263   4.076   6.073   3.231 -0.3310 -0.6406  0.1741
 6100TIP3    H118264   4.096   6.069   3.324  0.0520 -1.4099  0.0653
 6100TIP3    H218265   4.127   6.002   3.192  0.5294  0.4888 -0.8080
 6101TIP3   OH218266   5.839   1.698   5.023 -0.6785  0.0600 -0.5043
 6101TIP3    H118267   5.850   1.686   4.929 -2.1945 -0.3639 -0.6443
 6101TIP3    H218268   5.893   1.629   5.062  0.2828  0.4933 -1.0384
 6102TIP3   OH218269   3.669   3.194   2.449 -0.1707 -0.5343 -0.7322
 6102TIP3    H118270   3.710   3.152   2.373 -0.2276 -0.1118 -1.0012
 6102TIP3    H218271   3.671   3.287   2.428  0.1318 -0.3852 -0.0527
 6103TIP3   OH218272   5.549   4.073   4.324 -0.0643  0.2303 -0.3431
 6103TIP3    H118273   5.519   4.163   4.311  1.8022  1.3093  2.1330
 6103TIP3    H218274   5.515   4.025   4.248 -2.7190  2.5808 -0.7884
 6104TIP3   OH218275   5.674   4.847   5.478  0.0410 -0.6926  0.3755
 6104TIP3    H118276   5.719   4.806   5.553  0.2655 -1.0878  0.0277
 6104TIP3    H218277   5.733   4.917   5.450  1.0083 -1.9294 -0.7965
 6105TIP3   OH218278   4.391   4.345   0.589  0.1606 -0.1398  0.2659
 6105TIP3    H118279   4.388   4.427   0.539  0.5058  0.9151  1.8995
 6105TIP3    H218280   4.363   4.370   0.677 -2.2230 -2.2736  0.2339
 6106TIP3   OH218281   1.950   2.728   3.058  0.2351 -0.0370 -0.5237
 6106TIP3    H118282   1.991   2.652   3.017  0.6654 -1.0065  1.5474
 6106TIP3    H218283   1.864   2.696   3.087  0.5873  0.0954  0.7409
 6107TIP3   OH218284   6.704   2.187   0.384  0.0868 -0.5063 -0.0902
 6107TIP3    H118285   6.645   2.201   0.310  0.1119  0.0769 -0.0064
 6107TIP3    H218286   6.699   2.093   0.402 -0.5164 -0.5254 -0.3351
 6108TIP3   OH218287   1.003   1.331   0.426 -0.6841  0.1427  0.1566
 6108TIP3    H118288   0.954   1.250   0.439  0.3676 -0.7759 -1.1642
 6108TIP3    H218289   0.957   1.376   0.355  0.3619 -0.7967 -1.1956
 6109TIP3   OH218290   0.989   0.323   3.304 -0.5078 -0.1765 -0.2339
 6109TIP3    H118291   0.900   0.329   3.268  0.0298 -0.2690 -1.6463
 6109TIP3    H218292   1.013   0.230   3.293  1.3606  0.5629 -4.0604
 6110TIP3   OH218293   5.677   0.201   3.170 -0.6568  0.5340 -0.0516
 6110TIP3    H118294   5.704   0.284   3.129 -1.1325  0.3237 -0.8014
 6110TIP3    H218295   5.760   0.159   3.195 -0.4325  2.0767  2.0796
 6111TIP3   OH218296   5.062   4.538   2.889  0.1259  0.5548  0.3336
 6111TIP3    H118297   5.035   4.550   2.980  1.4790  0.8858  0.7124
 6111TIP3    H218298   5.097   4.623   2.864  1.3289 -0.0153  0.0556
 6112TIP3   OH218299   3.889   4.014   3.260 -0.4903 -0.1769 -0.8734
 6112TIP3    H118300   3.871   3.922   3.282 -0.2462  0.1232  0.6849
 6112TIP3    H218301   3.805   4.048   3.231 -1.5402  0.0463  2.1144
 6113TIP3   OH218302   3.985   4.675   0.226  0.3030 -0.1451  0.3389
 6113TIP3    H118303   4.061   4.684   0.169  0.3542  0.2009  0.4615
 6113TIP3    H218304   3.956   4.765   0.242  1.6606 -0.0483  2.7433
 6114TIP3   OH218305   4.017   3.924   4.270  0.3224 -0.4742 -0.1168
 6114TIP3    H118306   4.025   4.012   4.307 -0.6823 -0.1561 -0.6298
 6114TIP3    H218307   3.924   3.905   4.272  0.1010 -0.1665 -3.0213
 6115TIP3   OH218308   4.201   1.934   0.606  0.2296  0.2556 -0.0766
 6115TIP3    H118309   4.225   2.002   0.543 -0.3197 -0.6299 -1.2750
 6115TIP3    H218310   4.107   1.920   0.591  0.4252 -1.0670 -0.1571
 6116TIP3   OH218311   6.901   5.186   0.424 -1.1734  0.0927 -0.0720
 6116TIP3    H118312   6.806   5.179   0.420 -1.3036 -0.5462  2.2805
 6116TIP3    H218313   6.923   5.159   0.513  1.0257  2.3596  0.2036
 6117TIP3   OH218314   4.800   4.448   4.484 -0.8940  0.2763 -0.0034
 6117TIP3    H118315   4.742   4.518   4.457 -1.0288 -0.0338 -0.5341
 6117TIP3    H218316   4.750   4.399   4.549 -1.1544  0.1238 -0.3173
 6118TIP3   OH218317   2.867   6.452   5.029  0.0662  0.0976 -0.0119
 6118TIP3    H118318   2.892   6.511   4.958 -1.8577  0.3650 -0.5118
 6118TIP3    H218319   2.893   6.365   4.997  0.1898  0.3334 -0.5684
 6119TIP3   OH218320   2.126   2.006   0.146 -0.0741 -0.1431 -0.0550
 6119TIP3    H118321   2.211   2.042   0.120  0.5052 -3.0001 -2.6715
 6119TIP3    H218322   2.147   1.937   0.209 -0.5039 -0.4288 -0.2219
 6120TIP3   OH218323   2.540   3.025   2.588 -0.2716  0.6555  0.4322
 6120TIP3    H118324   2.610   3.083   2.560 -0.4038  0.0523 -1.2388
 6120TIP3    H218325   2.499   2.995   2.507  0.2354 -2.3257  1.1408
 6121TIP3   OH218326   2.050   4.783   0.090 -0.2864  0.2411 -0.5344
 6121TIP3    H118327   2.086   4.822   0.169  1.1050 -1.8751 -0.0288
 6121TIP3    H218328   2.080   4.692   0.093 -3.1286 -0.8394 -1.7255
 6122TIP3   OH218329   4.057   6.497   5.396  0.1848  0.3387 -0.4906
 6122TIP3    H118330   4.063   6.558   5.470 -1.2297 -1.1159  0.9113
 6122TIP3    H218331   4.148   6.476   5.375  0.6432 -0.3156  1.8480
 6123TIP3   OH218332   6.514   2.974   5.286 -0.2744 -0.4713  0.1530
 6123TIP3    H118333   6.493   3.064   5.259  0.9426 -0.8515 -2.2698
 6123TIP3    H218334   6.430   2.938   5.316 -0.6286  1.7006  2.0965
 6124TIP3   OH218335   6.842   6.736   4.823 -0.3151  0.0762  0.3862
 6124TIP3    H118336   6.869   6.814   4.774 -0.1760 -0.1910  0.0369
 6124TIP3    H218337   6.889   6.743   4.906  0.1483  0.0686  0.1286
 6125TIP3   OH218338   3.746   5.928   0.098  0.2425 -0.2945 -0.0566
 6125TIP3    H118339   3.684   5.999   0.083 -0.7865 -1.2004 -0.2128
 6125TIP3    H218340   3.794   5.920   0.015 -0.1581 -0.2653 -0.2933
 6126TIP3   OH218341   3.018   6.339   1.593 -0.0677  0.3146 -0.1844
 6126TIP3    H118342   3.009   6.421   1.544  1.4612  1.0177  0.6494
 6126TIP3    H218343   3.033   6.366   1.684  2.4583 -0.7875 -0.1917
 6127TIP3   OH218344   4.415   3.990   3.931  0.2950  0.2717 -0.7657
 6127TIP3    H118345   4.355   4.049   3.976  0.6179 -0.1287  0.2143
 6127TIP3    H218346   4.471   4.048   3.879 -2.7968  0.5639 -4.2181
 6128TIP3   OH218347   3.271   1.354   1.151  0.2026  0.4562  0.2585
 6128TIP3    H118348   3.223   1.303   1.085  1.1580  1.0334 -0.9297
 6128TIP3    H218349   3.324   1.289   1.198 -1.2921 -0.1088  1.2184
 6129TIP3   OH218350   4.938   3.013   4.952  0.2939  0.0940 -0.4350
 6129TIP3    H118351   4.940   2.949   5.023 -3.2154  0.9401  0.6214
 6129TIP3    H218352   4.998   3.082   4.979 -1.2235  0.5587  1.9723
 6130TIP3   OH218353   0.673   6.782   4.992 -0.2861  0.1127  0.9036
 6130TIP3    H118354   0.655   6.718   5.061 -0.1320  0.0500  0.8875
 6130TIP3    H218355   0.692   6.729   4.915 -1.2396  0.1888  0.6057
 6131TIP3   OH218356   2.910   1.670   1.454  0.1691  0.7827  0.1322
 6131TIP3    H118357   2.965   1.713   1.520  1.6583  0.6120 -0.9418
 6131TIP3    H218358   2.930   1.576   1.464 -1.5244  0.4867  1.1005
 6132TIP3   OH218359   3.632   1.401   1.665  0.1937 -0.3287  0.3630
 6132TIP3    H118360   3.548   1.444   1.679  0.5223  0.5194 -0.2284
 6132TIP3    H218361   3.609   1.309   1.651 -0.8182  0.1371 -1.4295
 6133TIP3   OH218362   6.284   0.010   5.789  0.0543  0.3856 -0.1720
 6133TIP3    H118363   6.361   0.055   5.824 -0.4505 -0.0393  1.5963
 6133TIP3    H218364   6.319  -0.052   5.726  1.2382 -0.1003  0.9175
 6134TIP3   OH218365   5.009   2.596   3.871  0.4060 -0.2671  0.3924
 6134TIP3    H118366   5.067   2.594   3.947  0.9066 -1.9162  0.0070
 6134TIP3    H218367   5.030   2.516   3.822 -0.1150  0.5805 -1.3192
 6135TIP3   OH218368   6.577   4.802   3.225 -0.1731  0.1542  0.4857
 6135TIP3    H118369   6.498   4.757   3.253  0.4322 -0.2760  1.5502
 6135TIP3    H218370   6.545   4.880   3.178 -1.2222  0.1207  1.1166
 6136TIP3   OH218371   4.667   6.436   5.395 -0.8196 -0.1487 -0.0423
 6136TIP3    H118372   4.581   6.397   5.381 -1.2275  0.5473  0.4677
 6136TIP3    H218373   4.724   6.361   5.411 -1.0876 -0.6998 -1.4949
 6137TIP3   OH218374   1.268   2.294   0.787  0.1778 -0.0848 -0.9629
 6137TIP3    H118375   1.357   2.285   0.822  0.4158 -1.1516 -1.8039
 6137TIP3    H218376   1.218   2.331   0.860  1.4190  1.0659 -0.6501
 6138TIP3   OH218377   4.599   1.725   3.882 -0.2248 -0.1632 -0.1200
 6138TIP3    H118378   4.535   1.770   3.937 -1.5139 -0.0922 -1.5972
 6138TIP3    H218379   4.550   1.702   3.803  1.0865 -1.8478 -0.4982
 6139TIP3   OH218380   0.962   6.379   2.815 -0.1008 -0.9717 -0.4495
 6139TIP3    H118381   0.901   6.442   2.852  0.8805 -1.6720  2.6678
 6139TIP3    H218382   0.906   6.314   2.772 -1.3613 -0.1424 -0.1163
 6140TIP3   OH218383   6.945   4.122   2.836 -0.3603  0.4766 -0.4433
 6140TIP3    H118384   7.038   4.102   2.828 -0.2229  1.2691 -1.0389
 6140TIP3    H218385   6.903   4.038   2.854  0.4864  0.1381 -0.0066
 6141TIP3   OH218386   1.451   6.716   2.403 -0.3491 -0.2774 -0.4639
 6141TIP3    H118387   1.434   6.735   2.310 -3.4271 -0.4723 -0.0685
 6141TIP3    H218388   1.430   6.798   2.448  0.7437 -0.2997  0.1040
 6142TIP3   OH218389   6.649   6.678   4.631  0.2459 -0.5938  0.0430
 6142TIP3    H118390   6.681   6.606   4.577  0.1201 -0.6928  0.1001
 6142TIP3    H218391   6.719   6.691   4.696  0.4386 -0.4118 -0.2009
 6143TIP3   OH218392   0.999   6.785   3.177 -0.1982  0.2901 -0.4139
 6143TIP3    H118393   1.031   6.765   3.089 -0.4521  0.2326 -0.4929
 6143TIP3    H218394   0.915   6.829   3.163 -1.2234 -1.5008 -0.1493
 6144TIP3   OH218395   4.345   3.082   0.666  0.8084 -0.5824  0.4741
 6144TIP3    H118396   4.439   3.071   0.677  1.7432  1.4784 -3.5197
 6144TIP3    H218397   4.318   3.006   0.615  0.6541 -0.3816  0.2557
 6145TIP3   OH218398   1.343   4.140   1.822  0.8179  0.3094  0.2204
 6145TIP3    H118399   1.343   4.234   1.803  2.2938  0.3895  0.5424
 6145TIP3    H218400   1.389   4.100   1.749 -1.5430 -0.4450 -0.9622
 6146TIP3   OH218401   0.449   3.759   3.249  0.0432 -0.1202  0.5330
 6146TIP3    H118402   0.433   3.702   3.325 -2.4051 -1.3532 -0.7983
 6146TIP3    H218403   0.488   3.701   3.184 -0.5234  0.2183 -0.1151
 6147TIP3   OH218404   4.951   3.945   0.520  0.0258 -0.3224  0.2497
 6147TIP3    H118405   4.968   3.863   0.473  0.5195 -0.3530  0.4689
 6147TIP3    H218406   4.856   3.955   0.518  0.1340  1.4262 -3.6704
 6148TIP3   OH218407   4.458   3.691   3.458 -0.1852 -0.0588  0.7573
 6148TIP3    H118408   4.531   3.726   3.509  1.4906 -3.1463  0.7324
 6148TIP3    H218409   4.383   3.694   3.518 -0.0662  2.8201  0.9006
 6149TIP3   OH218410   2.776   1.617   0.428  0.3925 -0.2577  0.1876
 6149TIP3    H118411   2.729   1.535   0.445  1.1607 -1.0532 -1.3556
 6149TIP3    H218412   2.840   1.595   0.361  1.9213  1.1787  1.1067
 6150TIP3   OH218413   7.094   5.250   2.245  0.0249  0.3143  0.0636
 6150TIP3    H118414   7.122   5.324   2.191 -2.9202  0.0222 -2.0455
 6150TIP3    H218415   7.115   5.172   2.193  0.5152 -0.2134  1.0191
 6151TIP3   OH218416   1.460   0.718   3.362 -0.0224 -0.5439  0.0982
 6151TIP3    H118417   1.457   0.730   3.457  2.1913  0.4465  0.1110
 6151TIP3    H218418   1.378   0.674   3.341 -1.1502  0.3328  2.2949
 6152TIP3   OH218419   1.222   3.663   1.674  0.0284  0.1864 -0.2088
 6152TIP3    H118420   1.194   3.601   1.741  1.1257 -0.5754 -0.4225
 6152TIP3    H218421   1.188   3.748   1.703 -1.6511 -0.5232  0.0048
 6153TIP3   OH218422   4.392   5.453   1.842 -0.3304 -0.1525 -0.3825
 6153TIP3    H118423   4.416   5.486   1.928 -2.1601  0.2454 -0.0024
 6153TIP3    H218424   4.366   5.362   1.856  1.5613 -0.8350 -0.9218
 6154TIP3   OH218425   2.864   0.074   0.822 -0.6801 -0.3876  0.0127
 6154TIP3    H118426   2.803   0.105   0.889 -2.1938  1.7964 -2.2632
 6154TIP3    H218427   2.927   0.145   0.812 -0.8948 -0.3865 -1.3957
 6155TIP3   OH218428   6.067   5.226   0.254 -0.0425  0.5024  0.2551
 6155TIP3    H118429   6.136   5.225   0.321  1.0935 -0.8348 -0.8892
 6155TIP3    H218430   6.112   5.251   0.173 -0.8068 -0.7846 -0.5939
 6156TIP3   OH218431   6.844   1.885   3.192  0.0322 -0.2607  0.1485
 6156TIP3    H118432   6.822   1.834   3.114 -0.0564  0.4297 -0.2833
 6156TIP3    H218433   6.787   1.851   3.260  1.6014 -2.4012  0.5120
 6157TIP3   OH218434   3.551   0.333   3.316 -0.4250  0.2061  0.1572
 6157TIP3    H118435   3.602   0.404   3.354 -0.2959 -0.1304  0.6278
 6157TIP3    H218436   3.607   0.256   3.325 -1.2053 -0.2608  1.1309
 6158TIP3   OH218437   3.611   4.166   0.668  0.0358 -0.1788  0.3427
 6158TIP3    H118438   3.679   4.099   0.679  0.2515 -0.2606 -1.2176
 6158TIP3    H218439   3.565   4.140   0.588  0.0182  1.4463 -0.1932
 6159TIP3   OH218440   4.403   0.289   5.447  0.5883  0.0298  0.3939
 6159TIP3    H118441   4.379   0.236   5.371  1.2645  0.7652 -0.3575
 6159TIP3    H218442   4.405   0.228   5.520  0.3311 -0.7701 -0.2605
 6160TIP3   OH218443   2.854   5.360   5.121  0.6508 -0.0410  0.0733
 6160TIP3    H118444   2.766   5.334   5.094  0.7331 -0.6276  0.3416
 6160TIP3    H218445   2.840   5.427   5.188  0.4180  0.2560 -0.2726
 6161TIP3   OH218446   4.505   6.310   2.572  0.3579  0.8240  0.0212
 6161TIP3    H118447   4.600   6.321   2.570  0.3795  0.5239 -2.1989
 6161TIP3    H218448   4.473   6.366   2.502 -0.9566 -0.4489 -0.4274
 6162TIP3   OH218449   5.963   2.497   4.798  0.6203 -0.0435  0.1677
 6162TIP3    H118450   5.908   2.423   4.773  2.5471 -2.2639  2.0019
 6162TIP3    H218451   6.051   2.473   4.766  1.3502  1.3260  1.0499
 6163TIP3   OH218452   5.283   4.118   1.438  0.4695 -0.0554  0.0792
 6163TIP3    H118453   5.217   4.159   1.382 -0.4396 -1.3631  0.1340
 6163TIP3    H218454   5.252   4.134   1.527  1.7189  1.7005  0.2532
 6164TIP3   OH218455   6.632   1.854   5.122 -0.1696 -0.1666 -0.3337
 6164TIP3    H118456   6.587   1.890   5.199  0.4666  1.3235 -0.6199
 6164TIP3    H218457   6.589   1.897   5.047  1.5387  1.1544 -0.6205
 6165TIP3   OH218458   4.740   3.947   3.816  0.0180  0.0748 -0.9645
 6165TIP3    H118459   4.706   3.905   3.895 -0.6269  0.0685 -1.2342
 6165TIP3    H218460   4.820   3.991   3.844 -1.2453  1.8093  0.1984
 6166TIP3   OH218461   1.748   2.694   2.821  0.2351 -0.2063 -0.5562
 6166TIP3    H118462   1.669   2.645   2.845 -2.2351  3.9711  0.7337
 6166TIP3    H218463   1.727   2.734   2.736  0.3715  1.9159  0.3559
 6167TIP3   OH218464   0.484   4.603   3.862  0.1678  0.9171 -0.4243
 6167TIP3    H118465   0.486   4.545   3.786  1.6965  0.6765 -0.2290
 6167TIP3    H218466   0.432   4.556   3.927  1.4186 -0.2846 -0.2571
 6168TIP3   OH218467   4.368   4.184   4.520  0.3534 -0.0311  0.2708
 6168TIP3    H118468   4.380   4.168   4.613 -1.5048 -1.5699  0.3348
 6168TIP3    H218469   4.419   4.115   4.477 -0.6508 -0.8096  0.2710
 6169TIP3   OH218470   0.654   2.295   0.899 -0.1962  0.3310  0.3400
 6169TIP3    H118471   0.597   2.370   0.918  0.4525  1.4873 -1.9028
 6169TIP3    H218472   0.704   2.281   0.980  0.5615  3.1582  0.4519
 6170TIP3   OH218473   3.763   4.037   2.219 -0.3659 -0.1272  0.4114
 6170TIP3    H118474   3.698   4.107   2.227 -2.3477 -1.8687  0.1887
 6170TIP3    H218475   3.844   4.083   2.196 -1.5464  2.0994  0.4298
 6171TIP3   OH218476   6.245   3.905   4.058 -0.2852  0.3826  0.4214
 6171TIP3    H118477   6.189   3.915   4.136  0.9403 -0.2184  1.4049
 6171TIP3    H218478   6.300   3.829   4.077  0.6171  0.7293 -0.6870
 6172TIP3   OH218479   6.031   1.925   4.182  0.0841  0.4037 -0.3824
 6172TIP3    H118480   6.011   1.900   4.273  0.6641 -0.2264 -0.4190
 6172TIP3    H218481   5.948   1.918   4.136 -0.2530  0.8984  0.1363
 6173TIP3   OH218482   6.863   3.831   4.786 -0.1438 -0.5469 -0.7075
 6173TIP3    H118483   6.820   3.796   4.709 -1.1428  0.8249 -0.8137
 6173TIP3    H218484   6.952   3.851   4.757 -0.8781  1.2219 -1.9532
 6174TIP3   OH218485   1.707   0.484   4.976 -0.1567 -0.3209 -0.1226
 6174TIP3    H118486   1.684   0.573   4.950 -2.1498 -0.8213 -0.2331
 6174TIP3    H218487   1.685   0.431   4.899  0.8106 -0.9382  0.0164
 6175TIP3   OH218488   5.651   3.187   3.868 -0.0640  0.0771  0.0317
 6175TIP3    H118489   5.650   3.283   3.866 -1.4333  0.0998  0.6302
 6175TIP3    H218490   5.726   3.165   3.924 -1.4667  0.9023  2.3790
 6176TIP3   OH218491   3.764   5.473   1.306  0.1616 -0.2039  0.1061
 6176TIP3    H118492   3.842   5.454   1.357  0.6671 -0.2430 -0.6675
 6176TIP3    H218493   3.738   5.388   1.270 -0.9877 -0.4279  1.3669
 6177TIP3   OH218494   3.278   5.710   5.017 -0.3627 -0.2474 -0.3045
 6177TIP3    H118495   3.293   5.615   5.011 -1.1527 -0.4259  0.3729
 6177TIP3    H218496   3.363   5.749   4.997  0.4049 -1.1414  1.0690
 6178TIP3   OH218497   1.368   4.117   4.225 -0.6630  0.4192 -0.1029
 6178TIP3    H118498   1.412   4.033   4.236 -0.7251  0.4796  0.6878
 6178TIP3    H218499   1.371   4.158   4.312 -0.1733  1.4639 -0.5897
 6179TIP3   OH218500   4.033   2.695   1.292  0.8212  0.4278  0.6892
 6179TIP3    H118501   4.024   2.756   1.219 -0.0833 -0.5922 -0.0806
 6179TIP3    H218502   4.123   2.663   1.285  0.9000  0.7192  0.3191
 6180TIP3   OH218503   1.400   3.844   4.943 -0.0529 -0.5519  0.3007
 6180TIP3    H118504   1.367   3.790   4.871  0.0495 -0.0308 -0.1474
 6180TIP3    H218505   1.469   3.897   4.903  1.3057 -1.5781  1.2036
 6181TIP3   OH218506   1.187   0.546   3.243  0.9652  0.3020  0.0459
 6181TIP3    H118507   1.112   0.486   3.245 -0.0948  1.5229 -0.6415
 6181TIP3    H218508   1.194   0.578   3.334 -0.4998  1.4653 -0.2021
 6182TIP3   OH218509   5.937   2.855   2.693  0.0104  0.6378 -0.3510
 6182TIP3    H118510   5.862   2.832   2.639  0.3913  0.1740 -0.6913
 6182TIP3    H218511   5.914   2.939   2.732 -1.5880 -0.4640  1.2441
 6183TIP3   OH218512   5.692   6.026   0.625 -0.2862  0.8558 -0.7740
 6183TIP3    H118513   5.785   6.047   0.621 -0.3674  1.6647  0.8979
 6183TIP3    H218514   5.650   6.106   0.656 -0.9188 -0.7535  3.1353
 6184TIP3   OH218515   3.990   3.283   3.530  0.3351  0.0725 -0.8477
 6184TIP3    H118516   3.959   3.373   3.537 -0.9436 -0.4485  1.2290
 6184TIP3    H218517   3.915   3.235   3.493 -0.0403 -0.5715  0.6817
 6185TIP3   OH218518   0.760   4.519   3.917 -0.0606 -0.1088 -0.0491
 6185TIP3    H118519   0.709   4.595   3.945 -1.4018 -0.6585 -0.9122
 6185TIP3    H218520   0.811   4.552   3.843 -1.5556 -0.2960 -1.2212
 6186TIP3   OH218521   0.296   1.663   1.553 -0.2294  0.1863  0.0534
 6186TIP3    H118522   0.344   1.708   1.621 -0.8263  1.5697 -0.4128
 6186TIP3    H218523   0.235   1.606   1.600  0.7375 -0.3927  0.6428
 6187TIP3   OH218524   4.994   5.344   5.748 -0.3107 -0.3122  0.0581
 6187TIP3    H118525   4.963   5.258   5.721  0.3837 -0.7211  0.5483
 6187TIP3    H218526   4.916   5.387   5.785 -0.6449 -0.7414 -0.1395
 6188TIP3   OH218527   6.134   3.418   0.326  0.4779 -0.0470  0.3025
 6188TIP3    H118528   6.172   3.498   0.363  2.6998 -0.8799  0.0073
 6188TIP3    H218529   6.061   3.449   0.273  1.2324  1.7998  0.2466
 6189TIP3   OH218530   5.756   4.732   2.881  0.1136 -0.3969  0.6412
 6189TIP3    H118531   5.840   4.762   2.915 -0.1784  0.6690  0.4575
 6189TIP3    H218532   5.764   4.636   2.879  1.2208 -0.3259  0.8686
 6190TIP3   OH218533   3.492   5.689   0.719  0.1582 -0.3715 -0.4848
 6190TIP3    H118534   3.542   5.611   0.694 -0.5149 -0.6725 -0.9438
 6190TIP3    H218535   3.498   5.746   0.642  0.2262 -0.1859 -0.3422
 6191TIP3   OH218536   5.495   4.184   0.533 -0.5382 -0.0612 -0.1501
 6191TIP3    H118537   5.512   4.093   0.558  0.3975 -0.2509 -1.3792
 6191TIP3    H218538   5.582   4.225   0.532 -0.8075  0.5121 -0.8173
 6192TIP3   OH218539   3.554   1.392   3.002 -0.1209  0.3510  0.4794
 6192TIP3    H118540   3.463   1.417   3.018 -0.3651 -0.6643  0.7628
 6192TIP3    H218541   3.556   1.363   2.911 -0.8363 -2.5753  1.2728
 6193TIP3   OH218542   6.854   1.389   0.773  0.0856 -0.0694 -0.1533
 6193TIP3    H118543   6.894   1.458   0.826 -0.5580 -0.8417  1.4011
 6193TIP3    H218544   6.785   1.434   0.724 -1.6952  0.1439  2.3577
 6194TIP3   OH218545   6.042   2.648   5.264  0.3166 -0.2292  0.1280
 6194TIP3    H118546   5.979   2.706   5.306  0.7829 -1.5661  2.8734
 6194TIP3    H218547   6.015   2.646   5.172 -3.3430 -0.3505  1.0604
 6195TIP3   OH218548   6.230   2.181   3.788 -0.6966 -0.4528 -0.0884
 6195TIP3    H118549   6.288   2.256   3.775 -0.7405 -0.3413  0.3288
 6195TIP3    H218550   6.282   2.105   3.762  0.1504 -0.5037  1.6014
 6196TIP3   OH218551   0.428   1.833   1.742  0.5032 -0.2044 -0.1183
 6196TIP3    H118552   0.472   1.761   1.787  0.8338 -0.4317 -0.7905
 6196TIP3    H218553   0.392   1.887   1.812 -0.4637 -1.4636  0.3891
 6197TIP3   OH218554   4.731   2.379   3.730  0.2341 -0.0175 -0.0100
 6197TIP3    H118555   4.806   2.349   3.679  0.8165 -0.9787  1.3419
 6197TIP3    H218556   4.711   2.466   3.695  1.9197  0.2123 -0.4771
 6198TIP3   OH218557   1.814   3.039   3.273 -0.0095  0.2748  0.2200
 6198TIP3    H118558   1.809   3.012   3.181  0.1682  0.4840  0.1491
 6198TIP3    H218559   1.880   3.108   3.274 -0.0289  0.2880  0.5021
 6199TIP3   OH218560   2.455   1.164   5.260  0.0756  0.3998  0.0678
 6199TIP3    H118561   2.379   1.210   5.227  0.7615  1.9825  0.6134
 6199TIP3    H218562   2.496   1.126   5.182  0.3057  1.9862 -0.6244
 6200TIP3   OH218563   2.368   2.322   0.248 -0.4440  0.1939  0.6793
 6200TIP3    H118564   2.441   2.278   0.291  0.9455  0.4652 -1.2582
 6200TIP3    H218565   2.381   2.415   0.269  0.8032  0.4458 -1.0005
 6201TIP3   OH218566   2.152   6.674   0.895  0.8472 -0.5746 -0.7903
 6201TIP3    H118567   2.174   6.699   0.985  1.1319 -0.7652 -0.8076
 6201TIP3    H218568   2.076   6.728   0.874  1.3228  0.1299 -0.7499
 6202TIP3   OH218569   0.663   2.620   4.322 -0.3345 -0.2275 -0.2132
 6202TIP3    H118570   0.650   2.642   4.229 -0.0927  0.1303 -0.1669
 6202TIP3    H218571   0.587   2.567   4.345  0.3426 -1.6041 -1.0118
 6203TIP3   OH218572   5.858   0.808   0.747  0.3256 -0.7621 -0.3438
 6203TIP3    H118573   5.816   0.777   0.827 -0.4782 -1.5145 -1.0222
 6203TIP3    H218574   5.834   0.900   0.742  0.1698 -0.7707  0.1570
 6204TIP3   OH218575   4.931   0.737   2.419 -0.9039  0.2599 -0.1732
 6204TIP3    H118576   4.961   0.649   2.441  0.9004 -0.0319 -3.1379
 6204TIP3    H218577   4.838   0.737   2.441 -0.6385 -1.8469  1.2896
 6205TIP3   OH218578   5.720   3.936   0.706  0.2000  0.3147  0.5631
 6205TIP3    H118579   5.677   4.014   0.740  0.6631  0.3213  1.1531
 6205TIP3    H218580   5.697   3.934   0.614 -1.3451  0.1288  0.9301
 6206TIP3   OH218581   1.540   4.105   5.521 -0.6371 -0.1090  0.2270
 6206TIP3    H118582   1.616   4.047   5.515 -0.8753 -0.2622 -2.0751
 6206TIP3    H218583   1.479   4.059   5.577  0.0820 -1.0350  0.2669
 6207TIP3   OH218584   1.357   3.151   4.113  0.4824 -0.1617  0.0039
 6207TIP3    H118585   1.338   3.065   4.075 -0.4173 -1.0405  2.2383
 6207TIP3    H218586   1.286   3.207   4.082  0.3803 -0.5517 -0.4827
 6208TIP3   OH218587   3.326   6.466   2.242  0.0909  0.1721 -0.4409
 6208TIP3    H118588   3.237   6.498   2.226  0.9976  2.1211 -2.0489
 6208TIP3    H218589   3.375   6.545   2.266  1.2042 -1.0275  1.4624
 6209TIP3   OH218590   5.712   2.621   3.240  0.0968 -0.1969  0.0899
 6209TIP3    H118591   5.797   2.651   3.271 -1.2617  2.4492  1.6495
 6209TIP3    H218592   5.701   2.664   3.156  0.5470 -1.0895 -0.4383
 6210TIP3   OH218593   4.255   2.343   1.233  0.2868  0.0348 -0.4825
 6210TIP3    H118594   4.337   2.347   1.183 -0.4764  1.1254 -1.7269
 6210TIP3    H218595   4.232   2.435   1.248  0.0359 -0.2729  1.1567
 6211TIP3   OH218596   2.165   4.300   1.729  0.1685  0.1675  0.1787
 6211TIP3    H118597   2.118   4.306   1.646  0.9840  1.7956 -0.2092
 6211TIP3    H218598   2.258   4.297   1.704  0.5550  2.7170  1.0188
 6212TIP3   OH218599   1.318   4.678   1.726  0.8529 -0.0135  0.0421
 6212TIP3    H118600   1.295   4.707   1.638  0.6608 -1.0151 -0.2502
 6212TIP3    H218601   1.241   4.700   1.780 -1.0748 -3.4588 -0.9463
 6213TIP3   OH218602   3.680   2.988   2.226  0.0529 -0.2904  0.1168
 6213TIP3    H118603   3.692   2.893   2.222  0.7010 -0.2479  0.7231
 6213TIP3    H218604   3.752   3.024   2.174  0.0171 -0.1245  0.1811
 6214TIP3   OH218605   2.971   0.882   1.035 -0.0647  0.0944  0.1225
 6214TIP3    H118606   2.953   0.974   1.052  1.1749  0.1879  1.0647
 6214TIP3    H218607   2.926   0.835   1.105 -2.0918 -0.1965 -1.2730
 6215TIP3   OH218608   3.613   4.039   5.474  0.2737 -0.2181 -0.5018
 6215TIP3    H118609   3.585   4.101   5.541  0.0105 -0.1604 -0.6668
 6215TIP3    H218610   3.651   4.093   5.405 -0.3998 -0.2069 -0.8652
 6216TIP3   OH218611   3.467   0.433   3.064  0.3595 -0.3411 -0.1137
 6216TIP3    H118612   3.530   0.474   3.124  0.3238  1.5159 -1.2583
 6216TIP3    H218613   3.394   0.494   3.062  0.1510 -0.6023 -1.6572
 6217TIP3   OH218614   0.148   2.159   1.409 -0.4491  0.4315 -0.5264
 6217TIP3    H118615   0.121   2.209   1.486  2.6076  0.0526  0.9362
 6217TIP3    H218616   0.155   2.068   1.440 -1.1867 -0.1061 -1.8378
 6218TIP3   OH218617   6.820   5.532   4.046 -0.4393 -0.1246  0.3200
 6218TIP3    H118618   6.866   5.613   4.023 -0.6078 -0.5204 -1.5901
 6218TIP3    H218619   6.772   5.508   3.966 -2.5675 -0.6717  1.6808
 6219TIP3   OH218620   2.988   2.487   3.841 -0.2048 -0.1144  0.1314
 6219TIP3    H118621   2.899   2.506   3.871 -0.6320 -0.8867 -0.6139
 6219TIP3    H218622   3.023   2.572   3.816 -0.6143  0.2382  0.7208
 6220TIP3   OH218623   1.418   4.234   3.054 -0.9910 -0.5699  0.0703
 6220TIP3    H118624   1.325   4.212   3.045 -1.3238  0.9308 -0.5471
 6220TIP3    H218625   1.463   4.173   2.997 -1.9006  0.4664 -1.8655
 6221TIP3   OH218626   7.193   1.456   3.242 -0.4113 -0.0389  0.0113
 6221TIP3    H118627   7.204   1.506   3.161  0.1421  1.4219  0.9353
 6221TIP3    H218628   7.121   1.501   3.287  0.0572 -0.0898  0.8364
 6222TIP3   OH218629   3.847   1.498   0.911 -0.2059 -0.1123 -0.2937
 6222TIP3    H118630   3.762   1.541   0.919  0.7060  1.6790  0.4804
 6222TIP3    H218631   3.826   1.406   0.899 -2.2560  0.3528 -0.7001
 6223TIP3   OH218632   5.324   6.331   4.978 -0.5341 -0.3027  0.4819
 6223TIP3    H118633   5.398   6.320   5.038  0.2386  0.1610 -0.3624
 6223TIP3    H218634   5.288   6.417   5.000  0.0264  0.0648  0.0048
 6224TIP3   OH218635   4.031   4.496   3.598  0.4605  0.2087 -0.5004
 6224TIP3    H118636   4.002   4.473   3.510 -2.2520  0.1874  0.3185
 6224TIP3    H218637   4.003   4.423   3.652  2.3445  0.0829  0.4064
 6225TIP3   OH218638   0.033   0.964   3.881 -0.3485 -0.0664 -0.3923
 6225TIP3    H118639   0.121   1.000   3.881 -0.2947 -0.1688 -1.4562
 6225TIP3    H218640  -0.024   1.042   3.884 -0.2298  0.0114 -0.1095
 6226TIP3   OH218641   3.614   1.632   0.854  0.2008  0.4952 -0.3206
 6226TIP3    H118642   3.585   1.654   0.943  0.9955  1.0568 -0.1930
 6226TIP3    H218643   3.534   1.609   0.808 -0.2037  0.0007  0.5956
 6227TIP3   OH218644   4.387   6.792   4.235  0.2257  0.3812 -0.5132
 6227TIP3    H118645   4.389   6.764   4.326 -1.1388  0.0213 -0.5603
 6227TIP3    H218646   4.437   6.726   4.188 -0.8069 -0.6041 -0.2752
 6228TIP3   OH218647   5.109   0.120   1.185 -0.3824 -0.0435 -0.3767
 6228TIP3    H118648   5.034   0.074   1.148 -1.0042  1.8933 -1.6909
 6228TIP3    H218649   5.082   0.142   1.274 -0.8364 -0.5014 -0.3955
 6229TIP3   OH218650   7.067   1.765   3.470 -0.2248  0.1414 -0.3374
 6229TIP3    H118651   7.155   1.775   3.433 -0.1093  0.6698  0.0758
 6229TIP3    H218652   7.035   1.683   3.432  0.9314 -0.7304  0.4839
 6230TIP3   OH218653   6.011   0.197   1.820 -0.1075 -0.4170 -0.1040
 6230TIP3    H118654   6.022   0.234   1.907 -2.0164  1.2471 -0.4830
 6230TIP3    H218655   5.959   0.118   1.834 -0.6195 -0.0249  0.2835
 6231TIP3   OH218656   6.003   1.316   2.993  0.3655 -0.9582 -0.0044
 6231TIP3    H118657   6.064   1.334   2.922  3.7029 -0.5852  2.6762
 6231TIP3    H218658   6.000   1.398   3.043 -0.3348 -1.7671  1.3272
 6232TIP3   OH218659   6.905   1.289   1.049 -0.3901 -0.3811 -0.0713
 6232TIP3    H118660   6.970   1.232   1.007 -0.2229 -0.3037  0.0806
 6232TIP3    H218661   6.900   1.256   1.139  0.9478  0.8930  0.5103
 6233TIP3   OH218662   3.554   3.396   1.333  0.0487 -0.3092  0.2582
 6233TIP3    H118663   3.468   3.429   1.361 -0.2565 -0.8480 -0.0159
 6233TIP3    H218664   3.561   3.311   1.374  0.1305 -0.5805 -0.3050
 6234TIP3   OH218665   5.234   1.282   4.707 -0.3999 -0.3380 -0.4218
 6234TIP3    H118666   5.195   1.369   4.705 -0.7074 -0.4764 -2.6540
 6234TIP3    H218667   5.193   1.239   4.782  1.1644  1.9816  1.9415
 6235TIP3   OH218668   4.044   5.050   0.896 -0.0516  0.0118  0.2035
 6235TIP3    H118669   4.130   5.051   0.855 -1.6626  0.8303 -3.6271
 6235TIP3    H218670   4.048   5.120   0.961  3.0409 -2.1248  2.5567
 6236TIP3   OH218671   3.267   0.932   3.796  0.3837  0.5759  0.0152
 6236TIP3    H118672   3.191   0.941   3.854 -0.2094 -0.5667 -0.5594
 6236TIP3    H218673   3.237   0.965   3.712  1.4063  2.7457  0.4088
 6237TIP3   OH218674  -0.017   6.267   1.244  0.1899 -0.0507  0.1056
 6237TIP3    H118675   0.079   6.267   1.239  0.3316 -0.9002  1.8497
 6237TIP3    H218676  -0.040   6.359   1.258  0.6245  0.3422 -1.5151
 6238TIP3   OH218677   4.946   0.421   1.409  0.3307  0.4462  0.1323
 6238TIP3    H118678   4.936   0.491   1.474 -2.5868 -0.1699  0.4815
 6238TIP3    H218679   4.938   0.465   1.325 -0.6738  0.6596  0.3308
 6239TIP3   OH218680   4.162   2.225   0.754  0.1689 -0.1285  0.5858
 6239TIP3    H118681   4.187   2.139   0.788 -0.7821 -0.5402  0.2823
 6239TIP3    H218682   4.067   2.220   0.742  0.4352 -0.1958 -2.5056
 6240TIP3   OH218683   1.938   5.845   2.647 -0.0301  0.6023  0.1308
 6240TIP3    H118684   1.982   5.836   2.562  0.0869  3.6358 -0.2381
 6240TIP3    H218685   1.870   5.910   2.632 -0.6984  0.4233  2.1281
 6241TIP3   OH218686   2.931   0.210   4.913 -0.5965 -0.3009  0.2847
 6241TIP3    H118687   2.995   0.153   4.956  0.3066  1.4262  1.3210
 6241TIP3    H218688   2.979   0.251   4.842 -0.1741  1.7795  1.6845
 6242TIP3   OH218689   6.817   5.065   0.190  0.4583  0.3598 -0.0591
 6242TIP3    H118690   6.816   5.131   0.120 -2.5178  0.8342  0.2788
 6242TIP3    H218691   6.884   5.095   0.250 -1.8043  4.1929  0.9308
 6243TIP3   OH218692   7.172   5.025   2.673  0.2656 -0.0896  0.6636
 6243TIP3    H118693   7.150   5.097   2.615 -0.0780  0.4390  1.4402
 6243TIP3    H218694   7.088   4.990   2.702  0.4311 -0.5644  0.5777
 6244TIP3   OH218695   4.076   2.707   0.584  0.2628  0.1088  0.3377
 6244TIP3    H118696   4.021   2.782   0.607 -0.1439  0.2872 -1.1314
 6244TIP3    H218697   4.164   2.731   0.614  0.3003  1.5476 -0.8429
 6245TIP3   OH218698   4.916   3.320   1.496  0.3098 -0.2318 -0.0612
 6245TIP3    H118699   4.922   3.405   1.453 -0.5378 -0.0423  0.1915
 6245TIP3    H218700   4.849   3.331   1.563  0.9676 -0.7840  0.7150
 6246TIP3   OH218701   0.682   6.149   1.583  0.3064  0.2805  0.3828
 6246TIP3    H118702   0.694   6.235   1.543  1.2613  0.4401  0.9712
 6246TIP3    H218703   0.740   6.092   1.533 -0.1197  0.0344  0.1694
 6247TIP3   OH218704   3.360   3.635   5.315 -0.2132  0.1978  0.3729
 6247TIP3    H118705   3.283   3.600   5.270 -2.6540  3.0878  1.9137
 6247TIP3    H218706   3.385   3.566   5.376 -0.3766 -1.5225 -1.4126
 6248TIP3   OH218707   7.197   2.994   4.516 -0.5344  0.6665 -0.2203
 6248TIP3    H118708   7.189   2.991   4.420 -0.5050  2.1066 -0.2793
 6248TIP3    H218709   7.243   3.075   4.534  0.6361 -0.2158  0.9699
 6249TIP3   OH218710   3.490   3.445   3.826  0.1897 -0.0850  0.6739
 6249TIP3    H118711   3.498   3.414   3.916  1.4591 -0.0260  0.6032
 6249TIP3    H218712   3.519   3.537   3.830 -2.1193  0.7073  0.6279
 6250TIP3   OH218713   0.692   0.527   5.539  0.5355 -0.3604  0.1569
 6250TIP3    H118714   0.703   0.518   5.444  2.2711 -1.1431  0.4036
 6250TIP3    H218715   0.597   0.530   5.551  0.2686  1.9557 -1.7699
 6251TIP3   OH218716   5.979   0.667   3.481 -0.3702 -0.3659  0.3130
 6251TIP3    H118717   5.990   0.760   3.502 -0.4656 -0.5373  1.1440
 6251TIP3    H218718   6.003   0.660   3.388  2.2554  0.0061  0.8968
 6252TIP3   OH218719   5.344   6.011   2.468 -0.1339  0.0497  0.0685
 6252TIP3    H118720   5.430   6.032   2.505  0.0598 -1.1927  0.3650
 6252TIP3    H218721   5.364   5.975   2.382 -0.3387 -0.4353  0.2227
 6253TIP3   OH218722   1.289   2.293   2.404 -0.0680  0.0123  0.2243
 6253TIP3    H118723   1.259   2.255   2.487  0.5847 -2.1624 -0.4643
 6253TIP3    H218724   1.270   2.226   2.339  2.1759  0.3773 -0.9035
 6254TIP3   OH218725   5.808   6.593   5.299 -0.2925 -0.2076  0.0105
 6254TIP3    H118726   5.895   6.552   5.301  0.3047  1.0428  1.4628
 6254TIP3    H218727   5.825   6.686   5.284 -1.3568  0.0837  0.4735
 6255TIP3   OH218728   5.433   1.236   0.045 -0.4529 -0.0143 -0.0182
 6255TIP3    H118729   5.477   1.208  -0.035  2.6968  1.9329  0.8730
 6255TIP3    H218730   5.376   1.308   0.016 -0.8093 -0.5635 -0.7375
 6256TIP3   OH218731   2.682   2.729   0.226 -0.0890  0.3861 -0.4454
 6256TIP3    H118732   2.725   2.814   0.223  0.0337  0.2924 -2.5792
 6256TIP3    H218733   2.630   2.725   0.146  2.1023 -2.6447 -1.9091
 6257TIP3   OH218734   1.538   2.331   4.392 -0.3839  0.0351 -0.2397
 6257TIP3    H118735   1.575   2.295   4.311 -0.0949  1.0696 -0.5830
 6257TIP3    H218736   1.614   2.365   4.440 -0.7500  1.2314 -0.4663
 6258TIP3   OH218737   5.605   1.875   5.435  0.0329  0.3076 -0.1574
 6258TIP3    H118738   5.633   1.791   5.398  1.4399 -0.0731  1.6272
 6258TIP3    H218739   5.629   1.939   5.369  0.0444 -0.5785 -1.0414
 6259TIP3   OH218740   0.378   2.870   3.699 -0.2728  0.3441 -0.2429
 6259TIP3    H118741   0.325   2.938   3.657 -1.0303  0.6966  1.2239
 6259TIP3    H218742   0.441   2.919   3.752 -0.0614 -0.1035 -0.0761
 6260TIP3   OH218743   2.926   0.792   1.896  0.2672 -0.0123  0.0312
 6260TIP3    H118744   2.903   0.792   1.989  0.3050  3.3960  0.1897
 6260TIP3    H218745   3.015   0.828   1.894  0.6316 -0.9297 -1.3062
 6261TIP3   OH218746   6.294   2.134   4.673 -0.7331 -0.4050  0.0103
 6261TIP3    H118747   6.279   2.228   4.677  0.3082 -0.2623  1.0117
 6261TIP3    H218748   6.283   2.105   4.764  2.3838 -0.6663  0.4151
 6262TIP3   OH218749   1.557   3.960   4.354  0.1607  0.0891 -0.3020
 6262TIP3    H118750   1.538   3.976   4.446  1.4837  1.3166 -0.2071
 6262TIP3    H218751   1.647   3.929   4.353  0.1370  0.0124 -1.1738
 6263TIP3   OH218752   3.109   1.056   3.328 -0.1174 -0.6061 -0.6524
 6263TIP3    H118753   3.188   1.052   3.275  0.0932  1.7046 -0.6192
 6263TIP3    H218754   3.048   1.109   3.277  0.2431  2.0753  1.4478
 6264TIP3   OH218755   1.507   6.575   4.775  0.7255  0.6873 -0.1197
 6264TIP3    H118756   1.441   6.584   4.844  2.4047  0.2927  1.6081
 6264TIP3    H218757   1.591   6.591   4.819  2.1329 -2.3954 -1.3984
 6265TIP3   OH218758   1.498   5.199   3.933 -0.5094  0.1532  0.7176
 6265TIP3    H118759   1.455   5.120   3.963  0.0528 -0.9104 -1.1222
 6265TIP3    H218760   1.587   5.194   3.968 -0.7922  0.5610  1.5271
 6266TIP3   OH218761   5.901   4.400   4.837  0.4918 -0.5029 -0.3450
 6266TIP3    H118762   5.972   4.460   4.858 -0.9451  0.9980  0.5160
 6266TIP3    H218763   5.875   4.362   4.922 -1.7553  1.4178 -0.0565
 6267TIP3   OH218764   3.889   0.804   4.742  0.6085  0.4449 -0.0493
 6267TIP3    H118765   3.868   0.873   4.679  0.5811  0.7644  0.3061
 6267TIP3    H218766   3.982   0.816   4.761  0.3828  1.0067  0.7536
 6268TIP3   OH218767   6.108   0.871   1.471  0.2007 -0.2523  0.2330
 6268TIP3    H118768   6.027   0.917   1.493 -0.0531 -0.2740 -0.6295
 6268TIP3    H218769   6.155   0.864   1.555 -0.4438  0.2244  0.6441
 6269TIP3   OH218770   0.831   5.340   2.157  0.1156 -0.1284  0.5058
 6269TIP3    H118771   0.858   5.323   2.067 -3.5235  0.7838 -0.9359
 6269TIP3    H218772   0.900   5.396   2.193  1.8999 -0.8962 -1.5124
 6270TIP3   OH218773   4.884   1.128   2.552 -0.0724  0.1306  0.2741
 6270TIP3    H118774   4.946   1.118   2.624 -0.3615  0.9935  0.6564
 6270TIP3    H218775   4.837   1.045   2.548  1.3159 -0.6777 -0.2343
 6271TIP3   OH218776   6.281   0.383   1.172  0.0478  0.3678  0.4533
 6271TIP3    H118777   6.263   0.374   1.079  0.0036 -0.4202  0.5354
 6271TIP3    H218778   6.295   0.477   1.184  2.5273  0.2594 -0.8143
 6272TIP3   OH218779   1.621   4.200   4.116  0.4748 -0.0209 -0.5929
 6272TIP3    H118780   1.572   4.143   4.174 -0.6949 -0.2772 -1.7815
 6272TIP3    H218781   1.676   4.253   4.174 -0.1133 -0.7566  0.6692
 6273TIP3   OH218782   4.172   2.891   2.010 -0.4248 -0.8551  0.5078
 6273TIP3    H118783   4.166   2.841   1.929 -0.5209  1.4547 -0.9761
 6273TIP3    H218784   4.148   2.980   1.986  0.4121  0.0974  2.8990
 6274TIP3   OH218785   4.703   0.901   1.656  0.4926 -0.4688 -0.0980
 6274TIP3    H118786   4.685   0.908   1.562  1.0802 -0.4180 -0.2121
 6274TIP3    H218787   4.675   0.813   1.680 -0.8776 -0.0410 -0.0383
 6275TIP3   OH218788   1.255   0.106   3.595  0.3098  0.0891  0.1327
 6275TIP3    H118789   1.169   0.142   3.574  0.4662  0.8006  0.6645
 6275TIP3    H218790   1.260   0.025   3.545 -1.6140 -1.2231  1.8856
 6276TIP3   OH218791   0.637   2.954   3.237 -0.2161 -0.6344 -0.3407
 6276TIP3    H118792   0.678   3.036   3.264  0.4086 -1.0604  0.0368
 6276TIP3    H218793   0.545   2.977   3.222 -0.1198  0.0622  0.0758
 6277TIP3   OH218794   0.994   1.971   2.582  0.1160 -0.7733  0.4145
 6277TIP3    H118795   0.910   2.000   2.618 -1.0843 -3.0518 -0.3335
 6277TIP3    H218796   1.025   1.906   2.645  0.7391 -0.8016  0.0863
 6278TIP3   OH218797   0.058   4.379   4.649  0.5368  0.5030 -0.4336
 6278TIP3    H118798  -0.006   4.444   4.618  0.5247  0.6058 -0.1897
 6278TIP3    H218799   0.118   4.368   4.574 -0.0784 -0.0041 -0.8648
 6279TIP3   OH218800   1.710   5.954   4.807 -0.6076  0.1872 -0.3053
 6279TIP3    H118801   1.773   5.944   4.735 -0.7560 -0.9305 -0.2904
 6279TIP3    H218802   1.738   6.034   4.851  1.8023 -1.0966  0.6761
 6280TIP3   OH218803   6.898   4.529   5.309  0.4515  0.3534 -0.6737
 6280TIP3    H118804   6.963   4.463   5.334 -0.3553  0.4764  2.0726
 6280TIP3    H218805   6.878   4.575   5.391 -2.6048  0.7420 -1.5298
 6281TIP3   OH218806   0.799   6.387   5.452  0.0474 -0.5632 -0.3923
 6281TIP3    H118807   0.816   6.379   5.358 -2.1464 -0.3136 -0.8549
 6281TIP3    H218808   0.812   6.480   5.471 -0.7614 -0.3688 -0.7443
 6282TIP3   OH218809   2.715   3.939   2.380  0.5239  0.1443  0.2964
 6282TIP3    H118810   2.809   3.950   2.391  0.3945  0.1006  1.5149
 6282TIP3    H218811   2.696   3.852   2.415  0.0534  0.0524 -0.1595
 6283TIP3   OH218812   5.957   3.477   0.139  0.2546  0.0399 -0.3085
 6283TIP3    H118813   5.874   3.442   0.172 -0.0543  0.0519 -1.0576
 6283TIP3    H218814   5.932   3.532   0.064  0.6845  2.0048  0.9003
 6284TIP3   OH218815   0.572   4.196   4.226 -0.2552  0.1429 -0.0764
 6284TIP3    H118816   0.597   4.156   4.309  0.0719  1.0614  0.2787
 6284TIP3    H218817   0.566   4.289   4.245 -2.3538  0.1574 -0.5473
 6285TIP3   OH218818   5.427   4.597   1.509  0.5587  0.1645 -0.3385
 6285TIP3    H118819   5.414   4.503   1.496 -0.5222  0.4188 -1.2436
 6285TIP3    H218820   5.369   4.638   1.445 -0.0505  1.4522  0.9842
 6286TIP3   OH218821   1.069   6.096   3.277 -0.5644 -0.0581 -0.8587
 6286TIP3    H118822   1.126   6.165   3.312 -1.7502  0.9929 -0.9284
 6286TIP3    H218823   1.011   6.141   3.215 -0.6706 -1.3154 -1.7273
 6287TIP3   OH218824   5.553   3.909   0.463  0.7416 -0.2043 -0.2780
 6287TIP3    H118825   5.523   3.833   0.512 -1.1037 -0.0285 -1.0509
 6287TIP3    H218826   5.499   3.909   0.383  1.8359  0.9951 -1.0607
 6288TIP3   OH218827   6.562   4.448   3.251 -0.4270  0.0393 -0.6523
 6288TIP3    H118828   6.473   4.426   3.224 -0.2890  2.0105 -3.1046
 6288TIP3    H218829   6.617   4.383   3.207 -0.5299  0.2392 -1.0849
 6289TIP3   OH218830   6.303   6.181   5.617 -0.1139 -0.4515 -0.3804
 6289TIP3    H118831   6.237   6.124   5.657 -0.7290  1.3699  1.3854
 6289TIP3    H218832   6.341   6.229   5.691  0.8347  0.9255 -1.7089
 6290TIP3   OH218833   5.952   5.698   3.399 -0.9115  0.6174 -0.2277
 6290TIP3    H118834   5.868   5.653   3.409 -1.2975  1.0008 -1.5513
 6290TIP3    H218835   5.991   5.659   3.321  1.6151 -1.7805  1.9765
 6291TIP3   OH218836   5.709   1.612   3.589  0.0053  0.0361  0.5433
 6291TIP3    H118837   5.640   1.569   3.538 -0.8309 -0.0039  1.6515
 6291TIP3    H218838   5.685   1.704   3.590  0.9739  0.3194 -0.5690
 6292TIP3   OH218839   5.169   4.688   4.836  0.0474  0.2242 -1.0740
 6292TIP3    H118840   5.242   4.629   4.816  1.2239  1.3556 -0.2881
 6292TIP3    H218841   5.132   4.710   4.751  1.4073  0.5806 -1.6057
 6293TIP3   OH218842   6.745   0.867   0.830  0.1415 -0.0120  0.0720
 6293TIP3    H118843   6.765   0.958   0.808  0.6343 -0.2203 -0.3252
 6293TIP3    H218844   6.829   0.823   0.834  0.1630  0.1050  2.8407
 6294TIP3   OH218845   6.677   5.702   0.477  0.3207 -0.1527 -0.2861
 6294TIP3    H118846   6.708   5.685   0.388  0.4508  1.6804 -0.6322
 6294TIP3    H218847   6.610   5.770   0.466  1.0664  0.8593  1.0837
 6295TIP3   OH218848   3.829   2.409   4.709 -0.2387 -0.1051 -0.1123
 6295TIP3    H118849   3.742   2.395   4.673 -1.5908  0.5379  2.6355
 6295TIP3    H218850   3.821   2.487   4.763  2.4839  0.8755 -0.9517
 6296TIP3   OH218851   2.683   3.729   0.079 -0.7774  0.0656 -0.3261
 6296TIP3    H118852   2.664   3.748   0.171 -0.4289  2.1094 -0.6233
 6296TIP3    H218853   2.747   3.796   0.054 -2.8361  1.2949 -2.7557
 6297TIP3   OH218854   4.059   4.994   4.896 -0.8302 -0.3319  0.0883
 6297TIP3    H118855   4.074   4.999   4.802  0.6415 -0.5166  0.2978
 6297TIP3    H218856   4.049   5.086   4.924  2.0991  0.0208  0.2344
 6298TIP3   OH218857   7.022   5.100   4.630  0.1804  0.0135 -0.2626
 6298TIP3    H118858   6.984   5.180   4.594 -0.2636  0.0981  0.3744
 6298TIP3    H218859   7.049   5.124   4.719  0.8955 -0.2944 -0.3898
 6299TIP3   OH218860   6.905   4.027   5.326 -0.2199 -0.3807  0.0703
 6299TIP3    H118861   6.855   3.960   5.372 -0.7991  0.4373  0.6795
 6299TIP3    H218862   6.920   4.095   5.392 -0.0613  0.3051 -0.6547
 6300TIP3   OH218863   7.113   4.169   1.172 -0.5854 -0.2974  0.6218
 6300TIP3    H118864   7.206   4.181   1.189 -0.4318 -0.9454  0.2602
 6300TIP3    H218865   7.109   4.094   1.113 -1.4917 -1.9400  2.6242
 6301TIP3   OH218866   1.600   3.242   0.969 -0.6682 -0.5269  0.7707
 6301TIP3    H118867   1.527   3.217   0.912 -1.1715  0.0971  1.1327
 6301TIP3    H218868   1.600   3.337   0.968 -0.4686 -0.5124  1.5451
 6302TIP3   OH218869   3.718   6.208   2.733  0.6777  0.4955 -0.1365
 6302TIP3    H118870   3.716   6.115   2.714  1.8577  0.4495 -0.1202
 6302TIP3    H218871   3.779   6.216   2.807 -0.9508  1.0698  1.2274
 6303TIP3   OH218872   6.757   1.097   2.298 -0.3830 -0.0648  0.4552
 6303TIP3    H118873   6.819   1.157   2.340 -1.5523  2.0902 -0.7403
 6303TIP3    H218874   6.725   1.042   2.370  2.3597 -0.8379  1.2151
 6304TIP3   OH218875   1.351   3.580   0.826 -0.5895  0.4764 -0.2069
 6304TIP3    H118876   1.434   3.556   0.866 -0.1295  0.4718 -1.1368
 6304TIP3    H218877   1.307   3.635   0.891 -0.6515 -0.9688  1.0177
 6305TIP3   OH218878   1.694   4.697   1.551 -0.0541  0.0880 -0.2731
 6305TIP3    H118879   1.626   4.701   1.617 -0.6935 -0.3205 -0.8862
 6305TIP3    H218880   1.726   4.787   1.543 -0.2427  0.2085  0.2990
 6306TIP3   OH218881   4.472   6.669   3.607  0.0530 -0.5646  0.9923
 6306TIP3    H118882   4.558   6.700   3.635  0.0734 -0.1607  0.5000
 6306TIP3    H218883   4.423   6.748   3.585  0.7653 -0.8476 -2.1856
 6307TIP3   OH218884   2.853   2.626   5.801 -0.0448 -0.1799 -0.8114
 6307TIP3    H118885   2.787   2.641   5.869  1.1318 -1.2939  0.6684
 6307TIP3    H218886   2.909   2.703   5.803 -0.7871  0.3818 -1.4640
 6308TIP3   OH218887   3.136   6.521   5.483  0.9103 -0.0695  0.1363
 6308TIP3    H118888   3.081   6.515   5.405  1.1748 -2.6822  0.0382
 6308TIP3    H218889   3.225   6.523   5.450  1.0238 -1.2041  0.3314
 6309TIP3   OH218890   2.843   3.652   1.082  0.4641 -0.3788  0.5356
 6309TIP3    H118891   2.929   3.610   1.078  0.3796 -0.4927 -2.8402
 6309TIP3    H218892   2.853   3.730   1.027 -0.4121  2.1537  3.7139
 6310TIP3   OH218893   5.291   2.028   3.112 -0.8213 -0.5262 -0.0988
 6310TIP3    H118894   5.354   1.956   3.110 -1.5693 -1.1940 -0.1189
 6310TIP3    H218895   5.242   2.015   3.193  0.5723  1.3282  1.1174
 6311TIP3   OH218896   3.986   2.667   2.867 -0.3463  0.0206  0.4835
 6311TIP3    H118897   3.945   2.717   2.938 -0.6015  0.5742 -0.0427
 6311TIP3    H218898   3.926   2.594   2.851 -0.5308  0.1656  0.5109
 6312TIP3   OH218899   4.100   5.105   3.277  0.4018 -0.2714  0.6504
 6312TIP3    H118900   4.156   5.121   3.353  0.5433 -1.0878  0.7302
 6312TIP3    H218901   4.075   5.013   3.285  0.9686 -0.5660 -0.6288
 6313TIP3   OH218902   5.194   3.035   4.488  0.2593 -0.1741 -0.0741
 6313TIP3    H118903   5.202   3.049   4.583 -1.9312  2.1154 -0.1044
 6313TIP3    H218904   5.279   3.058   4.453  0.7631  0.0600  1.2381
 6314TIP3   OH218905   0.964   6.045   5.842  0.1557  0.4384  0.2126
 6314TIP3    H118906   1.033   6.095   5.885  0.4447 -0.4049  0.7426
 6314TIP3    H218907   0.897   6.110   5.821  0.6063  1.0733  0.7197
 6315TIP3   OH218908   5.816   3.823   1.098  0.6995 -0.2832  0.3375
 6315TIP3    H118909   5.872   3.794   1.170 -2.3359  0.5501  3.3014
 6315TIP3    H218910   5.759   3.748   1.081 -2.6620  1.2929  3.3233
 6316TIP3   OH218911   0.472   5.732   2.670  0.6452 -0.0526 -0.6795
 6316TIP3    H118912   0.379   5.712   2.661 -0.1531  1.8108  2.0951
 6316TIP3    H218913   0.494   5.779   2.590 -0.7840 -0.4588 -1.3528
 6317TIP3   OH218914   3.323   1.749   2.872 -0.3272 -0.2444  0.2094
 6317TIP3    H118915   3.359   1.737   2.960  0.8004 -1.1408 -0.3425
 6317TIP3    H218916   3.365   1.828   2.840  1.5412 -1.4898 -0.5725
 6318TIP3   OH218917   1.679   4.187   1.438 -0.4846  0.6032 -0.0696
 6318TIP3    H118918   1.585   4.173   1.421 -1.1450 -0.7563  3.8181
 6318TIP3    H218919   1.715   4.100   1.450  0.5701  1.2155  1.5137
 6319TIP3   OH218920   0.585   1.658   0.125 -0.4143 -0.2514  0.1644
 6319TIP3    H118921   0.562   1.724   0.190  0.0767 -0.7900  0.9009
 6319TIP3    H218922   0.515   1.593   0.131 -1.1210  0.3919 -0.8552
 6320TIP3   OH218923   4.084   2.414   0.228 -0.2536  0.0250 -0.0594
 6320TIP3    H118924   4.107   2.389   0.139 -1.6859 -0.4040 -0.3404
 6320TIP3    H218925   4.095   2.333   0.279  1.9097  0.5906  0.4790
 6321TIP3   OH218926   2.587   5.465   4.808 -0.3504  0.0064  0.3187
 6321TIP3    H118927   2.674   5.455   4.769 -0.6575 -0.6742 -0.2153
 6321TIP3    H218928   2.604   5.474   4.902  0.2556 -0.9977  0.3223
 6322TIP3   OH218929   6.120   4.445   5.112  0.0098 -0.1863 -0.3050
 6322TIP3    H118930   6.175   4.388   5.058 -0.9736 -0.3400 -1.1785
 6322TIP3    H218931   6.090   4.513   5.052  1.8643  1.8237  0.9043
 6323TIP3   OH218932   4.068   6.659   5.648  0.5298 -0.2586 -0.5111
 6323TIP3    H118933   4.119   6.609   5.711  1.0660  0.3408 -0.4652
 6323TIP3    H218934   4.130   6.721   5.610 -0.2255  0.6881 -0.2313
 6324TIP3   OH218935   6.550   4.864   2.446  0.3835 -0.2348 -0.4260
 6324TIP3    H118936   6.587   4.815   2.372 -0.4475 -1.3657 -0.1227
 6324TIP3    H218937   6.515   4.944   2.407 -1.3588 -1.4758 -1.5429
 6325TIP3   OH218938   0.161   6.300   4.713  0.4156  0.3244 -0.1350
 6325TIP3    H118939   0.106   6.233   4.755  0.2128 -0.1370 -1.1111
 6325TIP3    H218940   0.221   6.250   4.657  0.1616  0.9599 -0.9910
 6326TIP3   OH218941   1.356   3.253   5.043  0.1479  0.1592 -0.8333
 6326TIP3    H118942   1.303   3.174   5.032  0.3287 -0.1816  0.6378
 6326TIP3    H218943   1.356   3.269   5.137 -0.4315  2.3034 -1.1483
 6327TIP3   OH218944   4.103   3.415   3.767  0.1245  0.8088 -0.1714
 6327TIP3    H118945   4.009   3.431   3.771 -0.4619 -2.2039  0.5346
 6327TIP3    H218946   4.115   3.369   3.683  0.7533  0.1953  0.2462
 6328TIP3   OH218947   1.629   1.302   3.792 -0.0960 -0.3850  0.4145
 6328TIP3    H118948   1.558   1.366   3.794 -0.8738 -1.2282  0.2767
 6328TIP3    H218949   1.664   1.309   3.703 -0.0689 -0.0479  0.4471
 6329TIP3   OH218950   0.575   6.038   5.187 -0.5131  0.2160  0.1209
 6329TIP3    H118951   0.565   6.007   5.097  0.6019  0.1652 -0.0068
 6329TIP3    H218952   0.655   6.091   5.184 -0.5999  0.4053  1.0374
 6330TIP3   OH218953   7.145   3.110   5.880 -0.2737 -0.0543  0.4540
 6330TIP3    H118954   7.123   3.203   5.882 -0.1806 -0.0260  0.1543
 6330TIP3    H218955   7.238   3.107   5.858 -0.2649 -0.2173  0.5063
 6331TIP3   OH218956   3.728   6.146   0.315  0.1836  0.1038 -0.5569
 6331TIP3    H118957   3.768   6.095   0.244 -0.1197 -0.8594 -0.0617
 6331TIP3    H218958   3.791   6.216   0.334  1.5597 -1.2301  0.0467
 6332TIP3   OH218959   3.865   6.038   1.617 -0.0623 -0.2109 -0.5572
 6332TIP3    H118960   3.775   6.006   1.613  0.0841 -0.6016 -0.7411
 6332TIP3    H218961   3.898   6.006   1.702  0.0965 -0.5979 -0.7581
 6333TIP3   OH218962   0.677   1.413   5.824  0.0224 -0.3895 -0.1420
 6333TIP3    H118963   0.656   1.450   5.910 -0.7709 -2.3662  0.5729
 6333TIP3    H218964   0.682   1.488   5.766 -2.0844  0.8030  1.0938
 6334TIP3   OH218965   1.088   5.478   1.171  0.2183  0.4286  0.4025
 6334TIP3    H118966   1.095   5.537   1.096 -0.7320  0.7784  0.5768
 6334TIP3    H218967   1.170   5.428   1.169  0.8292  1.4028 -0.0366
 6335TIP3   OH218968   5.843   0.224   5.178  0.3437 -0.6382 -0.4810
 6335TIP3    H118969   5.936   0.199   5.179  0.0116 -2.1483 -2.3460
 6335TIP3    H218970   5.844   0.318   5.162  1.5594 -0.7968 -1.5118
 6336TIP3   OH218971   1.171   2.233   3.301 -0.1463  0.2280  0.3063
 6336TIP3    H118972   1.134   2.189   3.377 -2.2937  0.0181 -0.7831
 6336TIP3    H218973   1.143   2.324   3.311 -3.4157 -0.3746 -1.7777
 6337TIP3   OH218974   3.543   2.271   0.256 -0.0371 -0.3384  0.5475
 6337TIP3    H118975   3.590   2.303   0.179 -2.9786 -0.9260 -1.6834
 6337TIP3    H218976   3.528   2.349   0.308 -2.2034  1.1149 -1.9982
 6338TIP3   OH218977   3.282   4.147   1.687 -0.3302 -0.1331  0.2868
 6338TIP3    H118978   3.242   4.231   1.707  0.1569  0.1988 -0.1204
 6338TIP3    H218979   3.239   4.119   1.606  0.6271  0.4867 -0.4614
 6339TIP3   OH218980   2.084   6.137   2.534 -0.1844 -0.0258 -0.1155
 6339TIP3    H118981   2.008   6.082   2.553 -0.5598  0.0527 -1.2989
 6339TIP3    H218982   2.159   6.077   2.540  0.1901  0.5559  4.5200
 6340TIP3   OH218983   5.236   6.616   3.137 -0.8128  0.1271 -0.5775
 6340TIP3    H118984   5.178   6.542   3.119  1.2146 -2.3582  2.0894
 6340TIP3    H218985   5.225   6.632   3.231  0.5534  1.6703 -0.6341
 6341TIP3   OH218986   2.572   0.507   1.119  0.0849  0.5770 -0.1337
 6341TIP3    H118987   2.571   0.557   1.038 -0.3286 -1.3071 -1.3488
 6341TIP3    H218988   2.656   0.461   1.119 -0.2815 -0.1226  0.0262
 6342TIP3   OH218989   1.211   3.838   2.771 -0.7723  0.5685  0.0278
 6342TIP3    H118990   1.127   3.794   2.786 -0.3867 -0.1179  0.1942
 6342TIP3    H218991   1.187   3.921   2.730 -1.5654  0.5920  0.5162
 6343TIP3   OH218992   1.532   5.492   3.983  0.1907  0.2999 -0.6001
 6343TIP3    H118993   1.594   5.484   4.056 -0.3040  0.0876 -0.1973
 6343TIP3    H218994   1.500   5.403   3.969 -1.6659  0.7066  0.6624
 6344TIP3   OH218995   0.222   0.430   4.494 -0.1768  0.0307  0.7979
 6344TIP3    H118996   0.298   0.486   4.515 -0.8228  0.7150  1.3556
 6344TIP3    H218997   0.208   0.444   4.400  0.5238 -0.2754  0.6421
 6345TIP3   OH218998   6.269   1.262   5.323  0.1882 -0.7661  0.2520
 6345TIP3    H118999   6.194   1.206   5.343  0.3961 -1.1370  0.0107
 6345TIP3    H219000   6.279   1.317   5.400 -0.1863 -0.8756  0.3833
 6346TIP3   OH219001   0.561   4.243   1.870 -0.0705  0.2508  0.6759
 6346TIP3    H119002   0.596   4.252   1.959  1.5740  2.7346 -0.1298
 6346TIP3    H219003   0.635   4.215   1.817 -0.8642 -0.5102 -0.0628
 6347TIP3   OH219004   5.120   0.910   4.005  0.2077  0.4712  0.2271
 6347TIP3    H119005   5.107   0.972   4.078 -0.7132  1.2770 -0.5785
 6347TIP3    H219006   5.035   0.867   3.996  0.3765  0.2337 -0.2401
 6348TIP3   OH219007   5.279   4.398   0.096  0.3372 -0.4152  0.0233
 6348TIP3    H119008   5.221   4.333   0.058 -0.3540 -0.4758  1.1192
 6348TIP3    H219009   5.259   4.396   0.190  0.7246  0.9460  0.1644
 6349TIP3   OH219010   4.393   5.642   5.051 -0.4412 -0.9684  0.0924
 6349TIP3    H119011   4.454   5.695   5.000 -0.1254 -0.5046  0.9395
 6349TIP3    H219012   4.353   5.703   5.113  0.4489 -1.8002  1.5705
 6350TIP3   OH219013   5.782   3.975   2.814 -0.3392 -0.4012 -0.1849
 6350TIP3    H119014   5.818   3.923   2.742  1.7938  0.3499  0.2695
 6350TIP3    H219015   5.847   3.968   2.884 -1.3195  0.6607  0.8724
 6351TIP3   OH219016   2.665  -0.015   2.090  0.2843 -0.1870  0.1991
 6351TIP3    H119017   2.655   0.038   2.170  2.3285 -1.0126  1.0838
 6351TIP3    H219018   2.697   0.047   2.025 -0.0911  0.2261  0.3959
 6352TIP3   OH219019   7.079   4.629   1.868  0.1870  0.2948  0.2264
 6352TIP3    H119020   7.088   4.724   1.878 -1.1471  0.8689 -2.7640
 6352TIP3    H219021   7.053   4.617   1.776  0.8341 -3.0244  0.3438
 6353TIP3   OH219022   5.844   1.725   2.514 -0.0280  0.8578  0.5714
 6353TIP3    H119023   5.777   1.676   2.466 -0.0443  0.6068  0.8494
 6353TIP3    H219024   5.877   1.788   2.450 -1.0833  1.5305  0.6533
 6354TIP3   OH219025   5.463   5.925   5.780 -0.4503  0.7189 -0.1932
 6354TIP3    H119026   5.432   5.992   5.841  1.1060  1.1004  0.2201
 6354TIP3    H219027   5.383   5.882   5.749 -1.4600  2.4904 -0.1757
 6355TIP3   OH219028   2.829   4.946   5.014  0.0188 -0.4813  0.2886
 6355TIP3    H119029   2.894   4.876   5.006 -0.0506 -0.9240  2.9056
 6355TIP3    H219030   2.881   5.025   5.031  0.0652  0.1273 -2.2025
 6356TIP3   OH219031   2.357   2.845   1.163  0.2141 -0.2095  0.5896
 6356TIP3    H119032   2.332   2.897   1.086 -2.5190 -0.4213  1.2267
 6356TIP3    H219033   2.335   2.902   1.237  2.7296 -0.0455  1.2891
 6357TIP3   OH219034   1.424   4.194   4.559  0.0615  0.3927  0.4265
 6357TIP3    H119035   1.385   4.276   4.528  0.8398  1.5972  2.4869
 6357TIP3    H219036   1.350   4.139   4.583 -0.4384  0.9721  0.2212
 6358TIP3   OH219037   0.537   2.169   3.850  0.3753 -0.2006  0.0015
 6358TIP3    H119038   0.494   2.099   3.900 -0.2002 -0.3932 -0.7434
 6358TIP3    H219039   0.610   2.197   3.906 -0.4790 -0.1329  1.1178
 6359TIP3   OH219040   6.626   3.905   3.501 -0.2126 -0.0381 -0.2461
 6359TIP3    H119041   6.691   3.970   3.474  0.1784 -0.2508  0.1744
 6359TIP3    H219042   6.574   3.950   3.567  0.6637 -0.4418  0.7533
 6360TIP3   OH219043   1.356   6.417   2.468  0.8550 -0.6311  0.2962
 6360TIP3    H119044   1.300   6.463   2.530 -0.7306 -1.0572 -0.7392
 6360TIP3    H219045   1.402   6.486   2.421  1.0660 -0.2586  1.0462
 6361TIP3   OH219046   6.872   1.466   0.116 -0.3822  0.4770  0.3347
 6361TIP3    H119047   6.830   1.501   0.037  1.9811  1.7656 -0.4483
 6361TIP3    H219048   6.954   1.428   0.085 -0.3261 -0.8368  1.9523
 6362TIP3   OH219049   6.254   6.562   3.281 -0.0573 -0.3412  0.7626
 6362TIP3    H119050   6.258   6.467   3.288 -0.4576 -0.3002  1.7253
 6362TIP3    H219051   6.298   6.582   3.198  0.3823 -1.3334  0.7410
 6363TIP3   OH219052   4.915   3.803   4.743 -0.5131  0.5793 -0.4382
 6363TIP3    H119053   4.847   3.869   4.730 -0.4196  0.8762  0.4919
 6363TIP3    H219054   4.995   3.854   4.760  0.3498  0.2817 -3.1102
 6364TIP3   OH219055   1.607   4.220   0.561 -0.3888  0.4192 -0.1670
 6364TIP3    H119056   1.573   4.148   0.614 -2.1689  1.1459 -0.2518
 6364TIP3    H219057   1.667   4.178   0.499  1.5852 -0.4938  2.1660
 6365TIP3   OH219058   5.482   4.543   2.435  0.4046 -0.2056  0.5404
 6365TIP3    H119059   5.519   4.516   2.519 -1.6435 -1.6049  1.0728
 6365TIP3    H219060   5.553   4.530   2.372  1.1085 -2.0121  1.6214
 6366TIP3   OH219061   0.568   5.373   1.701  0.5808  0.1694 -0.5334
 6366TIP3    H119062   0.648   5.343   1.658  0.2497 -0.5193 -0.6774
 6366TIP3    H219063   0.570   5.468   1.691  0.2346  0.0064 -2.5995
 6367TIP3   OH219064   6.642   5.726   1.760  0.1345  0.1564 -0.3527
 6367TIP3    H119065   6.679   5.796   1.813 -1.5714  0.6082  0.3193
 6367TIP3    H219066   6.604   5.770   1.684  0.0343 -0.1771 -0.4984
 6368TIP3   OH219067   0.097   3.404   3.344  0.2218 -0.5658  0.1873
 6368TIP3    H119068   0.114   3.496   3.365 -1.1103 -0.3378  0.3868
 6368TIP3    H219069   0.049   3.371   3.420 -0.5231 -1.0283 -0.4675
 6369TIP3   OH219070   6.926   2.900   1.275  0.2084  0.4561 -0.2237
 6369TIP3    H119071   6.847   2.953   1.267  0.1739  0.2938 -1.0931
 6369TIP3    H219072   6.985   2.952   1.331 -0.6808  0.3547  0.8378
 6370TIP3   OH219073   1.107   0.096   5.736 -0.5543 -0.1423  0.3967
 6370TIP3    H119074   1.164   0.093   5.659 -0.0208 -0.0031  0.7859
 6370TIP3    H219075   1.062   0.012   5.735 -1.0869  0.1283 -0.4684
 6371TIP3   OH219076   6.114   4.323   5.512 -0.3725  0.1789  0.2372
 6371TIP3    H119077   6.021   4.312   5.529 -0.4294 -0.9334 -0.7213
 6371TIP3    H219078   6.157   4.283   5.587 -0.6557 -1.3312 -0.3789
 6372TIP3   OH219079   3.807   6.718   0.647 -0.2767  1.0413  0.5098
 6372TIP3    H119080   3.859   6.642   0.669  0.2552  0.3149 -2.7554
 6372TIP3    H219081   3.867   6.792   0.657  0.8495  0.4260 -1.2230
 6373TIP3   OH219082   3.688   6.580   4.240 -0.4827 -0.0326  0.2599
 6373TIP3    H119083   3.655   6.546   4.157 -0.2983  1.1287 -0.3022
 6373TIP3    H219084   3.765   6.526   4.258 -1.1816 -1.0562  0.2805
 6374TIP3   OH219085   3.232   0.608   2.289  0.0437  0.1262 -0.4926
 6374TIP3    H119086   3.155   0.594   2.343 -0.3193  1.4307 -0.6291
 6374TIP3    H219087   3.304   0.568   2.338 -0.3299  1.0070  0.8329
 6375TIP3   OH219088   0.122   3.558   5.783  0.3632 -0.2843  0.0528
 6375TIP3    H119089   0.167   3.635   5.816 -0.2742  0.5021 -0.8528
 6375TIP3    H219090   0.065   3.591   5.713 -0.0885 -1.5388 -0.2081
 6376TIP3   OH219091   3.770   3.720   2.936 -0.1617  0.0131 -0.2260
 6376TIP3    H119092   3.773   3.645   2.877 -0.5193 -1.0575  1.0820
 6376TIP3    H219093   3.810   3.791   2.886 -2.6783 -0.1623 -2.6951
 6377TIP3   OH219094   2.149   6.607   3.154 -0.3854 -0.5049 -0.0740
 6377TIP3    H119095   2.177   6.699   3.154 -1.6816 -0.0805 -0.0998
 6377TIP3    H219096   2.128   6.589   3.245  0.9522 -1.1518  0.1270
 6378TIP3   OH219097   5.839   1.372   3.856 -0.3666 -0.4651  0.0886
 6378TIP3    H119098   5.856   1.403   3.767 -1.7472 -3.3708 -1.3622
 6378TIP3    H219099   5.872   1.282   3.857 -1.7636 -1.0348  1.9955
 6379TIP3   OH219100   3.097   1.878   5.427 -0.1404  0.5111  0.0539
 6379TIP3    H119101   3.060   1.889   5.514  2.7583 -1.4334  1.6882
 6379TIP3    H219102   3.101   1.784   5.413 -0.5482  0.7639 -2.2445
 6380TIP3   OH219103   3.544   2.672   5.630 -0.4972 -0.3871 -0.1575
 6380TIP3    H119104   3.603   2.609   5.590  1.2117  0.8629  0.2677
 6380TIP3    H219105   3.557   2.752   5.578  0.7723  0.8851  1.9476
 6381TIP3   OH219106   5.603   1.000   4.438  0.2897  0.2509 -0.1159
 6381TIP3    H119107   5.639   0.956   4.360 -0.9216  0.6739 -0.9449
 6381TIP3    H219108   5.649   1.084   4.441 -0.1833  0.5500 -0.8337
 6382TIP3   OH219109   6.468   5.004   4.963 -0.1124  0.6147 -0.0275
 6382TIP3    H119110   6.411   5.026   5.037 -1.5431 -1.5352 -0.4055
 6382TIP3    H219111   6.516   4.926   4.992  2.9244  2.4463  0.3519
 6383TIP3   OH219112   4.270   2.679   3.215 -0.2426 -0.0100  0.1224
 6383TIP3    H119113   4.279   2.639   3.129  0.6335 -1.2052  0.7282
 6383TIP3    H219114   4.313   2.616   3.275  0.3966  1.4366  1.2420
 6384TIP3   OH219115   5.639   1.839   2.685  0.1188 -0.1856 -0.0305
 6384TIP3    H119116   5.682   1.893   2.751  0.1023 -1.6040  1.1986
 6384TIP3    H219117   5.699   1.766   2.670 -0.4227 -0.5115 -0.6997
 6385TIP3   OH219118   0.184   4.642   3.092  0.4841  0.0403 -0.1497
 6385TIP3    H119119   0.174   4.568   3.032  1.4724 -0.7813  0.6415
 6385TIP3    H219120   0.146   4.611   3.174  3.4859 -0.7715  1.0573
 6386TIP3   OH219121   5.595   0.260   1.481  0.4097 -0.0885 -0.5916
 6386TIP3    H119122   5.542   0.246   1.403 -0.5338 -1.8835  0.3242
 6386TIP3    H219123   5.591   0.354   1.496 -0.3341  0.1371 -2.0378
 6387TIP3   OH219124   6.624   3.572   4.716  0.5336 -0.5086  0.2570
 6387TIP3    H119125   6.542   3.524   4.708  0.7335 -0.9898  0.9604
 6387TIP3    H219126   6.648   3.562   4.808  0.6759  0.7949  0.3790
 6388TIP3   OH219127   0.921   0.290   5.548  0.1252  0.8226  0.6228
 6388TIP3    H119128   0.928   0.199   5.521  1.7622  0.4596  2.1638
 6388TIP3    H219129   0.985   0.336   5.494 -0.4960  1.0510  0.0542
 6389TIP3   OH219130   1.418   2.998   4.557  0.3791 -0.0220  0.1374
 6389TIP3    H119131   1.389   2.907   4.554 -0.2056  0.1888 -1.7442
 6389TIP3    H219132   1.379   3.032   4.638 -1.9962 -0.6420 -0.6703
 6390TIP3   OH219133   4.726   5.723   3.348  0.0081  0.3439 -0.6277
 6390TIP3    H119134   4.675   5.795   3.310  0.6603  0.7656 -0.7115
 6390TIP3    H219135   4.784   5.765   3.412 -0.7782 -0.3007  0.5664
 6391TIP3   OH219136   1.534   4.466   3.092 -0.0262 -0.0854 -0.3379
 6391TIP3    H119137   1.587   4.465   3.012  1.3478 -0.0955  0.5252
 6391TIP3    H219138   1.483   4.385   3.089  0.6789 -0.5260 -0.7880
 6392TIP3   OH219139   2.622   5.039   1.146  0.2889 -0.1433 -0.5638
 6392TIP3    H119140   2.705   5.005   1.179 -0.0275 -2.0219 -1.5870
 6392TIP3    H219141   2.643   5.127   1.114  1.6110 -0.1416  0.2370
 6393TIP3   OH219142   7.215   3.268   5.625 -0.2416 -0.2421  0.0356
 6393TIP3    H119143   7.185   3.301   5.710  0.4393 -0.1538  0.2446
 6393TIP3    H219144   7.192   3.337   5.562  0.0081  0.0630  0.2759
 6394TIP3   OH219145   1.097   5.509   0.580 -0.2020  0.0624  0.5292
 6394TIP3    H119146   1.187   5.502   0.613 -0.3865  1.6193  1.4698
 6394TIP3    H219147   1.067   5.595   0.611 -1.6599  0.0202 -0.6530
 6395TIP3   OH219148   0.562   0.635   4.178 -0.2053  0.7617 -0.2932
 6395TIP3    H119149   0.637   0.675   4.222  1.3923 -1.7515 -0.4900
 6395TIP3    H219150   0.600   0.590   4.102 -2.0188  0.0572 -0.8285
 6396TIP3   OH219151   4.983   3.700   3.712 -0.3687  0.1368  0.9788
 6396TIP3    H119152   4.896   3.727   3.683 -0.5936 -0.6244  0.9217
 6396TIP3    H219153   4.967   3.621   3.765  0.2700  0.0940  1.1167
 6397TIP3   OH219154   3.886   5.208   5.882 -0.0420 -0.2160  0.0528
 6397TIP3    H119155   3.897   5.294   5.842  0.1489 -1.0655 -1.8348
 6397TIP3    H219156   3.792   5.199   5.894  0.0178  0.7875  1.6117
 6398TIP3   OH219157   6.107   2.612   1.404 -0.1701 -0.4202 -0.2705
 6398TIP3    H119158   6.166   2.663   1.348  2.3045 -1.0017  1.6192
 6398TIP3    H219159   6.159   2.593   1.482 -2.6779 -1.6258  1.2269
 6399TIP3   OH219160   1.505   0.406   5.180  0.1099 -0.1578  0.1821
 6399TIP3    H119161   1.554   0.447   5.108 -0.3039  0.3970  0.2109
 6399TIP3    H219162   1.514   0.312   5.164 -0.1397 -0.0375 -0.7087
 6400TIP3   OH219163   6.898   4.459   0.136 -0.3667  0.2831 -0.0459
 6400TIP3    H119164   6.869   4.518   0.066 -2.2949 -0.4381  0.0631
 6400TIP3    H219165   6.840   4.480   0.210  0.4107 -0.2225  0.7182
 6401TIP3   OH219166   0.332   5.822   3.972 -0.0738  0.2058  0.3082
 6401TIP3    H119167   0.387   5.836   3.896  0.9480  0.6209  1.1023
 6401TIP3    H219168   0.276   5.748   3.948  0.0055  0.5306 -0.9448
 6402TIP3   OH219169   3.998   1.568   1.955 -0.6249  0.3273 -0.0413
 6402TIP3    H119170   3.969   1.513   2.027  0.3367 -0.6011 -0.3406
 6402TIP3    H219171   3.946   1.538   1.880 -1.1191  0.8125  0.0999
 6403TIP3   OH219172   6.352   4.265   3.218  0.2712  0.1714  0.1899
 6403TIP3    H119173   6.263   4.300   3.228 -1.0454 -2.6817 -0.4667
 6403TIP3    H219174   6.352   4.222   3.133  1.1533 -2.7384  1.5370
 6404TIP3   OH219175   3.775   1.543   5.630  0.0752 -0.3482  0.4108
 6404TIP3    H119176   3.720   1.468   5.654 -2.5318  0.3406 -2.6020
 6404TIP3    H219177   3.839   1.507   5.569 -0.7970 -0.2766 -0.5727
 6405TIP3   OH219178   1.691   5.901   0.351 -0.1682  0.1751  0.0553
 6405TIP3    H119179   1.681   5.816   0.308  0.6402  0.2002 -0.1900
 6405TIP3    H219180   1.785   5.916   0.354 -0.3278  1.5622 -0.8831
 6406TIP3   OH219181   4.544   1.083   2.958 -0.0672 -0.0593  0.2822
 6406TIP3    H119182   4.524   1.104   2.866  0.9293  0.5789  0.2024
 6406TIP3    H219183   4.467   1.114   3.006 -1.0874 -1.3748 -0.4209
 6407TIP3   OH219184   0.556   6.205   3.612  0.2903 -0.2256  0.1214
 6407TIP3    H119185   0.532   6.277   3.554  2.3683 -0.2762 -0.9173
 6407TIP3    H219186   0.634   6.236   3.658 -0.5116 -0.7278  1.9107
 6408TIP3   OH219187   5.304   6.743   5.686 -0.6314  0.1897  0.2219
 6408TIP3    H119188   5.239   6.810   5.706  0.1028  1.2014 -0.6606
 6408TIP3    H219189   5.373   6.790   5.640  0.3512 -1.0123  0.4271
 6409TIP3   OH219190   3.825   2.044   3.314 -0.1779 -0.4079 -0.4158
 6409TIP3    H119191   3.833   2.100   3.391 -0.0756 -0.7942 -0.1470
 6409TIP3    H219192   3.912   2.007   3.302 -0.0485  0.0810 -1.0501
 6410TIP3   OH219193   1.967   6.515   4.334  0.8458 -0.1938  0.6918
 6410TIP3    H119194   1.968   6.610   4.345 -1.8401  0.0250 -0.3433
 6410TIP3    H219195   1.957   6.502   4.240  0.3582 -1.4952  0.9070
 6411TIP3   OH219196   3.853   1.731   3.901 -0.5052  0.4730  0.2514
 6411TIP3    H119197   3.937   1.769   3.927 -0.3915  0.5989 -0.2771
 6411TIP3    H219198   3.855   1.642   3.937 -0.2127  0.5286  0.3762
 6412TIP3   OH219199   6.868   5.248   5.572  0.0733  0.1363  0.1413
 6412TIP3    H119200   6.807   5.201   5.629  0.9729  0.0517  1.0764
 6412TIP3    H219201   6.943   5.267   5.629  0.6664  0.7470 -0.8210
 6413TIP3   OH219202   1.001   4.539   0.632 -0.2604  0.1473 -0.4746
 6413TIP3    H119203   1.046   4.472   0.684 -0.8808 -1.0981 -1.4989
 6413TIP3    H219204   1.054   4.548   0.553  0.4695  1.7630  0.1385
 6414TIP3   OH219205   4.334   5.436   5.562  0.0685  0.1010 -0.2441
 6414TIP3    H119206   4.291   5.350   5.565  0.7952 -0.3734 -2.1679
 6414TIP3    H219207   4.403   5.430   5.628 -0.8680 -0.2074  0.7368
 6415TIP3   OH219208   5.955   6.519   5.020 -0.2813 -0.2119 -0.4464
 6415TIP3    H119209   5.980   6.495   5.109  0.5711 -0.5605 -0.7707
 6415TIP3    H219210   5.879   6.463   5.000 -2.4222  1.9303  1.0951
 6416TIP3   OH219211   3.068   3.276   3.036 -0.4032 -0.1382 -0.2804
 6416TIP3    H119212   3.106   3.360   3.011  1.0574 -0.2397  1.3698
 6416TIP3    H219213   2.995   3.299   3.093 -0.2652  0.0297 -0.1686
 6417TIP3   OH219214   6.205   3.460   2.410 -0.0562  0.0800  0.1065
 6417TIP3    H119215   6.283   3.513   2.394 -0.5892  0.5825 -0.9350
 6417TIP3    H219216   6.161   3.502   2.484  0.6266 -0.1898  0.6794
 6418TIP3   OH219217   3.503   5.655   4.739  0.4207  0.4690 -0.1986
 6418TIP3    H119218   3.504   5.583   4.677 -1.5090  0.1824  0.0453
 6418TIP3    H219219   3.474   5.616   4.822  1.6795  1.0907  0.5677
 6419TIP3   OH219220   1.199   0.272   4.138  0.0373  0.1101  0.2050
 6419TIP3    H119221   1.160   0.263   4.051 -0.4733  1.6864  0.2346
 6419TIP3    H219222   1.166   0.355   4.171  2.1321  0.7450  0.9173
 6420TIP3   OH219223   3.898   5.506   5.525 -0.4734  0.5738  0.1997
 6420TIP3    H119224   3.809   5.471   5.517 -0.1516 -0.2396  0.0832
 6420TIP3    H219225   3.886   5.594   5.560 -1.2459 -0.0420  1.5490
 6421TIP3   OH219226   5.077   6.186   1.125  0.1189 -0.5274 -0.6291
 6421TIP3    H119227   5.047   6.232   1.204  1.9736 -0.4070  0.0556
 6421TIP3    H219228   5.133   6.116   1.158  0.1961 -1.0430 -1.8206
 6422TIP3   OH219229   4.506   3.840   4.222 -0.2972 -0.1612 -0.3837
 6422TIP3    H119230   4.567   3.798   4.161  2.5423  1.5651  1.0372
 6422TIP3    H219231   4.424   3.845   4.175  1.3634 -0.2062 -3.5156
 6423TIP3   OH219232   5.264   5.803   4.194 -0.1855 -0.0858 -0.0790
 6423TIP3    H119233   5.330   5.830   4.130  0.4612 -1.0167  0.1748
 6423TIP3    H219234   5.313   5.750   4.258 -0.8670  0.5593  1.0213
 6424TIP3   OH219235   4.593   1.964   4.884  0.3717  0.1212  0.2996
 6424TIP3    H119236   4.567   2.046   4.841 -0.4398 -0.1464  0.2726
 6424TIP3    H219237   4.517   1.939   4.936 -1.1257 -2.8858 -2.9715
 6425TIP3   OH219238   5.691   2.439   0.361  0.3852 -0.0204  0.3593
 6425TIP3    H119239   5.738   2.388   0.427 -0.8184 -1.8960 -0.1565
 6425TIP3    H219240   5.713   2.396   0.278 -2.4369 -1.2381  0.1250
 6426TIP3   OH219241   6.013   0.371   5.753 -0.0311  0.0852 -0.4909
 6426TIP3    H119242   5.972   0.449   5.716 -0.6793 -0.8629 -1.8389
 6426TIP3    H219243   5.982   0.299   5.698  2.0943 -0.8949 -0.4994
 6427TIP3   OH219244   3.523   0.938   3.964 -0.4784  0.2851 -0.1406
 6427TIP3    H119245   3.494   1.029   3.974 -1.7928 -0.2432  1.2991
 6427TIP3    H219246   3.443   0.891   3.940  0.4765 -0.3005 -2.3888
 6428TIP3   OH219247   1.466   5.385   2.162 -0.4639 -0.2409  0.6288
 6428TIP3    H119248   1.444   5.293   2.148  1.1488 -0.6651  0.7350
 6428TIP3    H219249   1.542   5.383   2.220  0.9259  1.0718 -1.0701
 6429TIP3   OH219250   3.076   5.345   0.261  0.0127 -0.0131  0.2669
 6429TIP3    H119251   3.136   5.411   0.297 -0.7190  0.5465  0.4863
 6429TIP3    H219252   3.016   5.327   0.333 -1.0613  0.6164 -0.4385
 6430TIP3   OH219253   1.988   2.382   3.251  0.0537  0.2078 -0.4802
 6430TIP3    H119254   2.016   2.364   3.341  1.0172  1.3175 -0.5294
 6430TIP3    H219255   1.893   2.385   3.256  0.1193  3.0252  1.1267
 6431TIP3   OH219256   2.689   0.911   2.272  0.2420  0.4211  0.1525
 6431TIP3    H119257   2.781   0.887   2.286 -0.1813 -0.9555  0.6478
 6431TIP3    H219258   2.669   0.882   2.184  0.5118  1.5356 -0.2992
 6432TIP3   OH219259   2.933   2.146   2.106  0.5955  0.1116 -0.0817
 6432TIP3    H119260   2.921   2.102   2.190 -0.5655 -0.8371 -0.6887
 6432TIP3    H219261   2.853   2.125   2.057  1.1297  0.8378 -1.3258
 6433TIP3   OH219262   0.853   2.863   2.265  0.2232  0.0894  0.0645
 6433TIP3    H119263   0.860   2.851   2.359  1.0203 -0.5588 -0.0725
 6433TIP3    H219264   0.841   2.775   2.230  0.2598  0.2898 -0.4717
 6434TIP3   OH219265   6.963   6.511   3.062  0.2038  0.1191 -0.5490
 6434TIP3    H119266   7.015   6.431   3.059 -0.2363 -0.1462 -1.4846
 6434TIP3    H219267   6.874   6.481   3.083  0.3822  0.5585  0.9565
 6435TIP3   OH219268   5.556   6.700   1.320  0.4212  0.6090 -0.0915
 6435TIP3    H119269   5.507   6.778   1.346 -0.1731 -0.0415  0.8162
 6435TIP3    H219270   5.517   6.629   1.372  1.8947 -0.0448  0.1678
 6436TIP3   OH219271   5.247   2.017   1.535 -0.2923  0.0217 -0.4999
 6436TIP3    H119272   5.183   1.969   1.482 -0.4739  0.3893 -0.6136
 6436TIP3    H219273   5.325   2.020   1.480 -0.4262  0.2539 -0.6758
 6437TIP3   OH219274   0.589   2.632   2.537 -0.0613  0.1015  0.4729
 6437TIP3    H119275   0.499   2.600   2.530 -0.0093 -0.0635  0.5370
 6437TIP3    H219276   0.642   2.559   2.506  0.0743  0.0170  0.8868
 6438TIP3   OH219277   1.880   3.330   2.972 -0.1934  0.3741  0.4164
 6438TIP3    H119278   1.897   3.424   2.963 -0.8513  0.5543  1.0098
 6438TIP3    H219279   1.817   3.323   3.044 -1.8603 -0.3386 -1.0368
 6439TIP3   OH219280   6.758   6.584   3.698  0.2747 -0.0945 -0.2577
 6439TIP3    H119281   6.813   6.637   3.756 -2.0961  1.2135  0.9296
 6439TIP3    H219282   6.671   6.622   3.706 -1.1723 -2.9924 -0.8755
 6440TIP3   OH219283   5.420   1.211   1.251  0.1177  0.0003  0.2001
 6440TIP3    H119284   5.386   1.122   1.250 -0.0254  0.0398  0.8253
 6440TIP3    H219285   5.515   1.201   1.245  0.0119 -0.0673 -2.8758
 6441TIP3   OH219286   3.283   3.775   3.683 -0.0946 -0.0336  0.6635
 6441TIP3    H119287   3.188   3.772   3.673  0.0122 -0.7319 -0.3089
 6441TIP3    H219288   3.313   3.692   3.645  1.0848  1.2650 -1.4438
 6442TIP3   OH219289   3.050   5.207   2.688  0.4664 -0.1112  0.1388
 6442TIP3    H119290   3.094   5.269   2.746  1.6429 -0.0655 -0.7517
 6442TIP3    H219291   3.017   5.138   2.746  1.2440  0.1375  0.9018
 6443TIP3   OH219292   5.153   1.578   2.026 -0.0560  0.0684  0.7123
 6443TIP3    H119293   5.144   1.490   1.987  0.7104 -0.9086  2.6312
 6443TIP3    H219294   5.219   1.567   2.094  1.4351  2.5933 -0.2228
 6444TIP3   OH219295   0.431   1.469   4.002 -0.1082  0.0891  0.4831
 6444TIP3    H119296   0.498   1.520   3.956  0.9310 -0.7281  1.0503
 6444TIP3    H219297   0.400   1.527   4.071  0.1317  0.4181  0.3206
 6445TIP3   OH219298   2.230   5.260   0.483  0.1685  0.1689 -0.2363
 6445TIP3    H119299   2.321   5.289   0.487  2.0160 -4.0763 -3.2893
 6445TIP3    H219300   2.199   5.288   0.397 -0.8471  0.2000  0.1254
 6446TIP3   OH219301   1.170   4.129   1.131 -0.3541  0.3061  0.7336
 6446TIP3    H119302   1.139   4.080   1.054  0.6760 -1.1022  1.1692
 6446TIP3    H219303   1.265   4.131   1.122 -0.3214  1.3939  1.2420
 6447TIP3   OH219304   6.886   5.486   3.409  0.7739 -0.7963 -0.4524
 6447TIP3    H119305   6.865   5.401   3.371  0.6885 -0.5374 -0.9962
 6447TIP3    H219306   6.936   5.465   3.489 -0.8201 -1.3862  0.4265
 6448TIP3   OH219307   3.385   6.479   3.458 -0.4980  0.0098 -0.0938
 6448TIP3    H119308   3.438   6.429   3.521 -1.2459  0.4672  0.9258
 6448TIP3    H219309   3.382   6.423   3.380  1.6126  0.0290 -0.2663
 6449TIP3   OH219310   4.367   1.472   0.365 -0.1023  0.7413  0.0785
 6449TIP3    H119311   4.298   1.407   0.374  0.4359 -0.1356 -1.6661
 6449TIP3    H219312   4.338   1.546   0.419 -1.5061 -0.3060  0.8119
 6450TIP3   OH219313   5.574   5.083   2.752 -0.3236  0.4003  0.0068
 6450TIP3    H119314   5.581   5.049   2.841  0.7571 -1.0080 -0.5849
 6450TIP3    H219315   5.663   5.112   2.730 -0.2856 -0.4595 -1.0555
 6451TIP3   OH219316   3.626   1.547   3.349 -0.4098  0.1255  0.0587
 6451TIP3    H119317   3.563   1.616   3.371  0.0512  0.3388  0.7340
 6451TIP3    H219318   3.691   1.591   3.294 -0.1481  0.2111  0.4394
 6452TIP3   OH219319   3.152   2.155   5.847  0.0579  0.4914 -0.3744
 6452TIP3    H119320   3.242   2.133   5.870  0.2659  1.5431 -0.1234
 6452TIP3    H219321   3.150   2.251   5.846 -0.8651  0.4802 -1.1454
 6453TIP3   OH219322   6.274   4.366   3.748 -0.1506  0.7843 -0.4107
 6453TIP3    H119323   6.253   4.297   3.685 -0.3276 -0.8583  1.3703
 6453TIP3    H219324   6.367   4.352   3.768 -0.1610  1.1323 -0.1062
 6454TIP3   OH219325   4.873   5.719   5.088  0.1654  0.4259  0.1971
 6454TIP3    H119326   4.899   5.772   5.013 -0.8509  0.8495  0.1195
 6454TIP3    H219327   4.904   5.767   5.164 -0.6478  1.0909  0.1211
 6455TIP3   OH219328   5.375   1.733   2.729  0.3467 -0.2510 -0.3981
 6455TIP3    H119329   5.328   1.813   2.755  1.6595  0.0873  1.0726
 6455TIP3    H219330   5.445   1.764   2.672 -1.0726 -0.7504 -2.5380
 6456TIP3   OH219331   6.516   6.692   3.409 -0.0035 -0.7319 -0.4124
 6456TIP3    H119332   6.432   6.651   3.389  0.1596 -1.1372 -0.2908
 6456TIP3    H219333   6.581   6.629   3.377  0.2515 -0.1280 -1.0901
 6457TIP3   OH219334   5.087   2.834   1.388 -0.4632 -0.0315 -0.3456
 6457TIP3    H119335   5.176   2.828   1.354 -0.4085 -1.4861 -0.0354
 6457TIP3    H219336   5.075   2.926   1.410  1.4212 -0.0251  0.8505
 6458TIP3   OH219337   5.593   3.756   4.470  0.2435  0.4942  0.3955
 6458TIP3    H119338   5.660   3.732   4.405  1.3648  0.3364  1.5662
 6458TIP3    H219339   5.610   3.849   4.487 -1.4585  1.1422 -1.1031
 6459TIP3   OH219340   3.903   6.214   0.589  0.0233  0.4014  0.3038
 6459TIP3    H119341   3.962   6.211   0.513  0.8665 -0.6932  0.9797
 6459TIP3    H219342   3.906   6.306   0.616  0.8930  0.5102 -0.0917
 6460TIP3   OH219343   2.950   3.459   4.152  0.2908  0.4823  0.2298
 6460TIP3    H119344   2.937   3.489   4.062 -0.1580 -2.0065 -0.6192
 6460TIP3    H219345   3.018   3.393   4.145  0.4054  0.4142  1.7781
 6461TIP3   OH219346   1.644   1.024   0.703  0.6164 -0.2832 -0.5198
 6461TIP3    H119347   1.726   1.024   0.654  1.3644 -3.1229  0.5286
 6461TIP3    H219348   1.627   0.932   0.720 -2.1858  0.3100  0.3726
 6462TIP3   OH219349   2.165   0.380   1.181 -0.2081 -0.4243  0.0594
 6462TIP3    H119350   2.238   0.319   1.168 -0.8061 -1.1023 -0.1577
 6462TIP3    H219351   2.186   0.425   1.263  0.8264 -0.0737 -0.3790
 6463TIP3   OH219352   1.553   4.739   3.816  0.3061  0.0726  0.3813
 6463TIP3    H119353   1.482   4.750   3.752 -0.6254  1.2090  1.5601
 6463TIP3    H219354   1.589   4.652   3.797  0.8223  0.7672 -2.3980
 6464TIP3   OH219355   2.864   5.608   5.459 -0.7760 -0.3651  0.4399
 6464TIP3    H119356   2.911   5.560   5.391 -2.3924 -1.9360  0.3831
 6464TIP3    H219357   2.929   5.620   5.529  0.5002  0.0533 -0.7631
 6465TIP3   OH219358   3.617   0.053   0.596 -0.1509 -0.2364  0.6501
 6465TIP3    H119359   3.683   0.094   0.651 -0.3976  1.3320 -0.1487
 6465TIP3    H219360   3.537   0.057   0.648 -0.0488 -0.2472  0.8094
 6466TIP3   OH219361   1.598   2.998   1.075  0.5665 -0.0707  0.2761
 6466TIP3    H119362   1.615   3.084   1.036 -0.6768  0.3255  0.5583
 6466TIP3    H219363   1.631   3.006   1.165  0.2022  0.2139  0.3884
 6467TIP3   OH219364   4.615   5.058   4.829 -0.2528 -0.1791 -0.2625
 6467TIP3    H119365   4.658   5.019   4.905  0.5903  0.2190 -0.5159
 6467TIP3    H219366   4.554   5.121   4.865 -0.9423 -1.0494  0.1208
 6468TIP3   OH219367   2.846   1.159   1.163 -0.6577  0.2446  0.5252
 6468TIP3    H119368   2.851   1.145   1.257  0.9552  0.8498  0.5636
 6468TIP3    H219369   2.845   1.255   1.153 -0.6232  0.1875 -0.0760
 6469TIP3   OH219370   0.478   0.544   0.227 -0.1102  0.2569 -0.8273
 6469TIP3    H119371   0.471   0.584   0.313  1.5512 -1.7344  0.3309
 6469TIP3    H219372   0.397   0.494   0.217 -0.3214  0.5173 -0.4379
 6470TIP3   OH219373   4.962   5.436   2.651 -0.0230 -0.0812  0.3887
 6470TIP3    H119374   4.952   5.492   2.574 -0.4021 -2.0612 -1.0765
 6470TIP3    H219375   4.940   5.493   2.725 -1.5154  1.3984 -1.1112
 6471TIP3   OH219376   6.296   1.909   2.482 -0.1700  0.3574  0.1029
 6471TIP3    H119377   6.374   1.961   2.500  0.3028  0.4948 -2.0940
 6471TIP3    H219378   6.313   1.868   2.397 -1.4958 -1.5551  0.6823
 6472TIP3   OH219379   0.510   3.705   4.870  0.1707 -0.3299 -0.7995
 6472TIP3    H119380   0.471   3.776   4.921 -0.4550 -0.9800 -0.3555
 6472TIP3    H219381   0.539   3.747   4.789  0.4933  0.5724 -0.2326
 6473TIP3   OH219382   3.136   3.042   4.860  0.2536  0.3060  0.3156
 6473TIP3    H119383   3.114   3.127   4.899 -0.8186  0.4078 -0.4742
 6473TIP3    H219384   3.077   3.034   4.785  2.5676  0.3197 -1.6153
 6474TIP3   OH219385   3.761   0.435   2.216 -0.1571  0.0827 -0.0506
 6474TIP3    H119386   3.742   0.498   2.147  0.9801 -0.6153 -1.0449
 6474TIP3    H219387   3.679   0.390   2.232 -0.7727  1.2135  0.0752
 6475TIP3   OH219388   1.735   6.665   3.622 -0.4619 -0.3560 -0.3259
 6475TIP3    H119389   1.647   6.642   3.650  0.1564 -0.4168  1.7077
 6475TIP3    H219390   1.726   6.754   3.588 -1.4470 -0.6855 -0.9855
 6476TIP3   OH219391   1.334   2.188   1.545 -0.4869 -0.4338 -0.2810
 6476TIP3    H119392   1.346   2.247   1.619 -0.9949  1.3537 -1.5490
 6476TIP3    H219393   1.328   2.101   1.584 -1.9640  0.5504  1.8831
 6477TIP3   OH219394   5.665   5.605   4.868 -0.1395 -0.2979 -0.2183
 6477TIP3    H119395   5.735   5.588   4.931 -0.2435  0.0388 -0.0096
 6477TIP3    H219396   5.604   5.662   4.915 -0.5275 -0.5469 -0.4164
 6478TIP3   OH219397   4.417   2.465   4.319 -0.2454  0.2330 -0.8692
 6478TIP3    H119398   4.358   2.530   4.280 -0.9630 -0.9846 -1.8675
 6478TIP3    H219399   4.435   2.500   4.407 -2.1390  0.8474 -0.6767
 6479TIP3   OH219400   5.513   0.879   1.114  0.5587  0.0730  0.0252
 6479TIP3    H119401   5.552   0.831   1.041 -0.5961 -1.8967  0.6509
 6479TIP3    H219402   5.518   0.819   1.188 -1.5756  0.6049  0.6673
 6480TIP3   OH219403   6.933   4.461   1.343 -0.3329  0.3070  0.1558
 6480TIP3    H119404   6.964   4.441   1.255 -0.7569  0.0404  0.0659
 6480TIP3    H219405   6.845   4.495   1.330 -0.4129  0.2273  0.4817
 6481TIP3   OH219406   5.222   1.233   2.102 -0.2619 -0.0405  0.4917
 6481TIP3    H119407   5.131   1.223   2.129 -0.0925 -0.2353  0.9922
 6481TIP3    H219408   5.236   1.164   2.038 -1.4148  1.9691 -2.1314
 6482TIP3   OH219409   3.407   1.683   2.620  0.6037  0.2818 -0.0146
 6482TIP3    H119410   3.495   1.648   2.638 -0.2193 -1.0319  1.7357
 6482TIP3    H219411   3.385   1.734   2.697 -0.8338 -0.8159  0.3347
 6483TIP3   OH219412   6.509   5.867   3.508 -0.2743  0.1153  0.1169
 6483TIP3    H119413   6.491   5.961   3.512  0.3419  0.2477 -0.1608
 6483TIP3    H219414   6.553   5.854   3.424  0.9963 -0.1875  0.8076
 6484TIP3   OH219415   6.203   4.969   5.605  0.0039 -0.1979 -0.3564
 6484TIP3    H119416   6.194   4.940   5.514  1.5623 -0.5572 -0.4130
 6484TIP3    H219417   6.236   4.893   5.652  2.6892  0.9738 -0.2046
 6485TIP3   OH219418   0.355   5.235   5.792  0.5563  0.8762  0.4085
 6485TIP3    H119419   0.377   5.328   5.799  1.7969  0.7796 -1.4385
 6485TIP3    H219420   0.345   5.220   5.698  0.1843 -0.8244  0.6867
 6486TIP3   OH219421   5.578   3.410   2.918 -0.0316  0.4724 -0.0192
 6486TIP3    H119422   5.535   3.492   2.894 -0.5092 -0.0376 -0.9840
 6486TIP3    H219423   5.506   3.352   2.943  0.2312  0.0812 -0.1668
 6487TIP3   OH219424   5.153   1.264   1.285  0.3011 -0.2085 -0.0049
 6487TIP3    H119425   5.237   1.280   1.240  0.3425  1.5049  0.6122
 6487TIP3    H219426   5.099   1.221   1.219  2.0355 -2.4712 -0.0508
 6488TIP3   OH219427   2.034   5.707   1.879 -0.5293  0.2631 -0.1526
 6488TIP3    H119428   2.089   5.776   1.843 -0.9229 -0.0784 -1.4541
 6488TIP3    H219429   2.062   5.628   1.834 -0.6634 -0.2845  0.7056
 6489TIP3   OH219430   0.616   3.623   1.837  0.2095 -0.1006  0.3290
 6489TIP3    H119431   0.582   3.710   1.816 -0.9521 -0.5352  0.3345
 6489TIP3    H219432   0.581   3.566   1.768  4.0977  0.0075 -2.0346
 6490TIP3   OH219433   3.402   3.999   3.155  0.0914 -0.0443  0.4307
 6490TIP3    H119434   3.458   4.005   3.078  0.7668 -1.5936  0.7667
 6490TIP3    H219435   3.415   3.910   3.188 -4.1875 -1.3571 -0.7229
 6491TIP3   OH219436   0.526   2.217   3.575  0.4668  0.1920 -0.3742
 6491TIP3    H119437   0.537   2.311   3.563  0.7694  0.3116  0.7478
 6491TIP3    H219438   0.497   2.207   3.665  0.0825 -0.7743 -0.5863
 6492TIP3   OH219439   4.438   1.809   2.213 -0.6822 -0.3393  0.1533
 6492TIP3    H119440   4.521   1.846   2.243 -0.7139  1.8082 -2.0278
 6492TIP3    H219441   4.374   1.841   2.276  0.0884 -2.1630  1.9581
 6493TIP3   OH219442   5.662   1.552   0.047 -0.3343  0.0225  0.4926
 6493TIP3    H119443   5.567   1.558   0.034 -0.4878 -3.1050 -0.6572
 6493TIP3    H219444   5.688   1.471   0.002  2.8558  0.6030  1.0229
 6494TIP3   OH219445   3.295   1.436   3.071  0.3761  0.1759  0.3574
 6494TIP3    H119446   3.256   1.419   3.157 -0.2711 -1.2083 -0.1826
 6494TIP3    H219447   3.258   1.520   3.044  1.6287  1.3309  1.9864
 6495TIP3   OH219448   1.758   5.533   0.993 -0.1492  0.7624 -0.2065
 6495TIP3    H119449   1.677   5.496   1.028 -0.0399  1.1947  0.5290
 6495TIP3    H219450   1.790   5.591   1.062  0.4944  1.0319 -0.7138
 6496TIP3   OH219451   4.211   2.969   2.587 -0.1172  0.1565  0.2340
 6496TIP3    H119452   4.220   3.058   2.621  0.0554  0.7744 -1.3400
 6496TIP3    H219453   4.119   2.946   2.602 -0.3629  0.9207 -0.0728
 6497TIP3   OH219454   3.035   4.415   2.758 -0.3920 -0.4203  0.0654
 6497TIP3    H119455   3.110   4.445   2.706 -1.2323  0.3965 -0.7082
 6497TIP3    H219456   3.073   4.356   2.823  0.6618 -1.7875 -1.7060
 6498TIP3   OH219457   6.421   2.816   4.465  0.1198  0.2013  0.4792
 6498TIP3    H119458   6.458   2.731   4.491 -0.4039  0.1190  0.9872
 6498TIP3    H219459   6.486   2.880   4.493  0.6228 -0.0422 -0.1097
 6499TIP3   OH219460   6.355   4.971   1.581 -0.1249  0.1179 -0.2780
 6499TIP3    H119461   6.424   4.966   1.515  0.9602  0.3562  0.8004
 6499TIP3    H219462   6.400   4.995   1.662 -1.5546  0.7967  0.3559
 6500TIP3   OH219463   2.769   0.330   2.909 -0.2781 -0.2847 -0.0715
 6500TIP3    H119464   2.726   0.412   2.931 -1.5803 -0.9979  0.1555
 6500TIP3    H219465   2.819   0.349   2.830 -1.6225  0.3960 -0.7890
 6501TIP3   OH219466   0.905   5.901   0.803 -0.3265 -0.0565 -0.2451
 6501TIP3    H119467   0.863   5.926   0.721 -2.0624 -0.3014  0.5135
 6501TIP3    H219468   0.836   5.911   0.869  1.4437  1.6537  1.4689
 6502TIP3   OH219469   1.895   0.714   1.041 -0.3343 -0.3796 -0.4081
 6502TIP3    H119470   1.837   0.760   0.981 -1.4942 -0.7153  0.4301
 6502TIP3    H219471   1.913   0.777   1.111 -1.2800 -0.8983  0.3274
 6503TIP3   OH219472   5.065   0.359   5.218  0.2401  0.4457 -0.0320
 6503TIP3    H119473   5.066   0.433   5.279  1.8931  0.3779  0.0635
 6503TIP3    H219474   5.152   0.360   5.178 -0.4890 -0.0651 -1.7343
 6504TIP3   OH219475   6.807   3.964   0.793 -0.1754  0.5281 -0.5219
 6504TIP3    H119476   6.739   4.026   0.822 -1.0947 -0.6102 -0.1683
 6504TIP3    H219477   6.770   3.923   0.715  0.3617  0.3356 -0.6738
 6505TIP3   OH219478   0.219   5.012   2.558 -0.3644  0.0913 -0.1118
 6505TIP3    H119479   0.140   5.020   2.611 -1.4664 -0.5114 -1.5842
 6505TIP3    H219480   0.238   5.101   2.529 -1.2682  0.0828 -0.7739
 6506TIP3   OH219481   5.730   6.660   0.192  0.5581 -0.0684  0.6047
 6506TIP3    H119482   5.662   6.624   0.135  1.2991 -0.1214 -0.2696
 6506TIP3    H219483   5.684   6.724   0.246 -0.3004 -0.5457  0.4542
 6507TIP3   OH219484   6.155   6.275   0.485 -0.7982 -0.2856  0.0946
 6507TIP3    H119485   6.122   6.243   0.569  1.3166 -1.0711  0.6932
 6507TIP3    H219486   6.232   6.220   0.467  0.6790  1.9095 -0.7673
 6508TIP3   OH219487   5.940   6.513   1.899 -0.3905  0.1193 -0.5257
 6508TIP3    H119488   5.892   6.500   1.817  2.0530  0.2813 -2.0758
 6508TIP3    H219489   5.878   6.557   1.957 -1.9763  0.6230 -2.5161
 6509TIP3   OH219490   1.117   3.645   1.429 -0.0737 -0.2741  0.3599
 6509TIP3    H119491   1.126   3.550   1.416 -2.9594 -0.7957  1.6605
 6509TIP3    H219492   1.162   3.663   1.511  0.4113 -0.4984  0.1487
 6510TIP3   OH219493   3.893   0.817   2.795  0.2376 -0.2022  0.4302
 6510TIP3    H119494   3.875   0.793   2.704 -1.4853  2.0875  0.0762
 6510TIP3    H219495   3.819   0.781   2.844 -0.3931  1.0731  0.4448
 6511TIP3   OH219496   0.464   5.184   4.658 -0.6383 -0.2692 -0.2566
 6511TIP3    H119497   0.417   5.214   4.580 -1.5972 -0.2963  0.2880
 6511TIP3    H219498   0.449   5.253   4.723 -0.1204 -0.3979  0.0026
 6512TIP3   OH219499   4.215   0.039   5.491  0.4540  0.3709  0.3728
 6512TIP3    H119500   4.291   0.011   5.542  0.3847 -0.3550  0.0911
 6512TIP3    H219501   4.190  -0.039   5.441  1.2816  1.4094 -1.7427
 6513TIP3   OH219502   1.209   2.653   0.398  0.0044  0.4613  0.2372
 6513TIP3    H119503   1.220   2.597   0.474 -0.8616  0.2183  0.1926
 6513TIP3    H219504   1.167   2.597   0.333  1.7892  0.3000 -0.8700
 6514TIP3   OH219505   5.250   1.689   2.394  0.1628 -0.0710 -0.4043
 6514TIP3    H119506   5.253   1.605   2.348 -1.9797  0.2702 -1.2944
 6514TIP3    H219507   5.173   1.683   2.451 -0.9006  1.7425 -1.5378
 6515TIP3   OH219508   0.088   3.490   2.983 -0.2833  0.0225  0.3759
 6515TIP3    H119509   0.025   3.429   2.945 -2.9992  1.9319  1.4756
 6515TIP3    H219510   0.061   3.498   3.075  0.5865  2.0469  0.5085
 6516TIP3   OH219511   2.526   0.658   2.637 -0.4585 -0.2076  0.6247
 6516TIP3    H119512   2.473   0.714   2.580  1.0096 -0.0163 -0.6055
 6516TIP3    H219513   2.481   0.662   2.722 -2.0000  0.4977 -0.1837
 6517TIP3   OH219514   3.296   5.258   4.521  0.1025  0.3941 -0.3496
 6517TIP3    H119515   3.322   5.168   4.537  0.5028  0.4159 -0.8614
 6517TIP3    H219516   3.357   5.290   4.455 -0.4532  0.8338 -0.6677
 6518TIP3   OH219517   3.753   1.306   3.168 -0.5729  0.8486 -0.3341
 6518TIP3    H119518   3.721   1.395   3.151 -0.4832  0.4396 -3.1731
 6518TIP3    H219519   3.707   1.252   3.104 -0.5864 -1.1845  1.3028
 6519TIP3   OH219520   3.173   6.766   2.550 -0.5367 -0.1177  0.4486
 6519TIP3    H119521   3.091   6.793   2.592  0.6983  1.1588  2.1572
 6519TIP3    H219522   3.205   6.693   2.603 -0.0339  0.0791  0.4162
 6520TIP3   OH219523   0.135   5.490   4.935  1.2400  0.0060  0.1111
 6520TIP3    H119524   0.159   5.534   4.853 -0.3407 -0.2677 -0.5191
 6520TIP3    H219525   0.117   5.562   4.996  1.7873  0.2105  0.0390
 6521TIP3   OH219526   5.489   6.028   4.289  0.4334 -0.3582 -0.4218
 6521TIP3    H119527   5.456   6.095   4.229  0.4459  0.5635  0.5672
 6521TIP3    H219528   5.485   5.946   4.239 -1.2272  0.0918 -1.0813
 6522TIP3   OH219529   5.634   5.702   1.471 -0.1548  0.2789  0.0211
 6522TIP3    H119530   5.658   5.646   1.545 -0.3510  0.8565  0.5366
 6522TIP3    H219531   5.718   5.731   1.434 -0.0563 -0.2786 -0.1919
 6523TIP3   OH219532   5.802   2.591   0.973 -0.7051 -0.1996 -0.5423
 6523TIP3    H119533   5.731   2.610   1.035 -1.0682 -0.2345 -0.9396
 6523TIP3    H219534   5.877   2.568   1.028 -0.9262  0.0972 -0.1108
 6524TIP3   OH219535   1.747   0.141   4.675  0.0877 -0.0149  0.4808
 6524TIP3    H119536   1.779   0.058   4.639  0.9451  0.2063  0.7073
 6524TIP3    H219537   1.817   0.170   4.733 -0.4888  0.5489  0.9046
 6525TIP3   OH219538   2.100   1.688   1.672  0.0779  0.6285  0.5867
 6525TIP3    H119539   2.022   1.650   1.632  0.7002  1.0189 -1.0382
 6525TIP3    H219540   2.158   1.613   1.687  0.6546  0.6841 -1.1455
 6526TIP3   OH219541   6.533   5.117   5.682 -0.2156  0.0961  0.2295
 6526TIP3    H119542   6.618   5.093   5.718 -0.5504 -0.7324  0.4884
 6526TIP3    H219543   6.484   5.152   5.757 -0.3000  0.0416  0.1993
 6527TIP3   OH219544   3.573   1.517   0.287  0.1777  0.2313 -0.4352
 6527TIP3    H119545   3.492   1.485   0.248 -0.6008  1.7225 -0.1110
 6527TIP3    H219546   3.570   1.488   0.378  0.1103  0.1013 -0.4796
 6528TIP3   OH219547   2.854   3.749   2.027 -0.2901  0.7050 -0.3309
 6528TIP3    H119548   2.937   3.745   1.979  0.3782 -1.6095  0.8659
 6528TIP3    H219549   2.854   3.836   2.067  2.8344 -0.0280  1.6423
 6529TIP3   OH219550   6.563   5.583   1.111  0.0375 -0.4226  0.8568
 6529TIP3    H119551   6.486   5.632   1.141  0.0178  1.1665 -1.5189
 6529TIP3    H219552   6.635   5.617   1.164 -0.2314  1.1983  0.2417
 6530TIP3   OH219553   6.346   2.876   1.460 -0.3922 -0.2256  0.6256
 6530TIP3    H119554   6.298   2.854   1.381  0.4355 -1.4692  0.4547
 6530TIP3    H219555   6.336   2.799   1.517 -1.2886  0.7791  1.9162
 6531TIP3   OH219556   4.084   4.164   3.162 -0.8483 -0.0395  0.0497
 6531TIP3    H119557   4.016   4.114   3.207  0.6390 -2.6119 -0.3370
 6531TIP3    H219558   4.114   4.105   3.093  1.4438  1.1698 -0.0671
 6532TIP3   OH219559   6.085   1.317   5.126 -0.5082  0.0455 -0.0131
 6532TIP3    H119560   6.160   1.320   5.186  0.8184 -0.2738 -1.5862
 6532TIP3    H219561   6.070   1.223   5.112 -1.7589  0.0796  0.9074
 6533TIP3   OH219562   4.819   5.560   2.362  0.5602 -0.3754  0.3958
 6533TIP3    H119563   4.910   5.588   2.374  0.6591  0.7951 -2.2987
 6533TIP3    H219564   4.821   5.500   2.288 -0.7222 -1.4657  1.1874
 6534TIP3   OH219565   0.062   3.329   2.046  0.5073  0.5276 -0.4097
 6534TIP3    H119566  -0.018   3.364   2.084  0.1933 -1.5040  0.9951
 6534TIP3    H219567   0.130   3.350   2.110  0.6686  0.3292 -0.5135
 6535TIP3   OH219568   3.590   6.431   0.001  0.3296 -0.4784  0.2969
 6535TIP3    H119569   3.660   6.495  -0.005  0.2755 -0.4408  0.0809
 6535TIP3    H219570   3.547   6.450   0.085 -0.1144  0.2025 -0.0742
 6536TIP3   OH219571   0.115   0.591   5.850  0.1318 -0.2128 -0.5660
 6536TIP3    H119572   0.087   0.682   5.852  0.5403 -0.0735  1.5273
 6536TIP3    H219573   0.153   0.579   5.763 -0.2084  1.5197 -0.9891
 6537TIP3   OH219574   5.423   4.983   2.429  0.1534 -0.4212  0.1340
 6537TIP3    H119575   5.405   5.057   2.487  2.7337 -0.0233  0.5454
 6537TIP3    H219576   5.377   5.004   2.348 -1.0752  0.4647  1.0238
 6538TIP3   OH219577   0.019   5.573   1.395 -0.0811 -0.8035  0.0218
 6538TIP3    H119578   0.090   5.543   1.452 -0.4984  1.1847  1.6813
 6538TIP3    H219579   0.042   5.663   1.372 -1.5501 -0.4796 -0.2944
 6539TIP3   OH219580   0.314   4.141   4.269 -0.1138  0.0058  0.0015
 6539TIP3    H119581   0.304   4.072   4.335  2.0644  0.5892  1.0158
 6539TIP3    H219582   0.405   4.135   4.241  0.0963  2.3374 -0.0087
 6540TIP3   OH219583   5.242   4.250   5.679  0.0095  0.1778 -0.4994
 6540TIP3    H119584   5.202   4.317   5.735 -0.0814  0.3235 -0.7359
 6540TIP3    H219585   5.282   4.189   5.740 -0.3131  0.1958 -0.2684
 6541TIP3   OH219586   6.453   1.498   2.152  0.3396  0.6291  0.1753
 6541TIP3    H119587   6.489   1.532   2.070 -1.0628  0.5461 -0.5076
 6541TIP3    H219588   6.497   1.414   2.164  0.2361  0.4279 -0.7450
 6542TIP3   OH219589   0.976   3.250   3.044 -0.0538 -0.2196 -0.6937
 6542TIP3    H119590   1.050   3.233   3.102  0.4022  1.1117 -0.8387
 6542TIP3    H219591   1.015   3.295   2.969 -1.2730  3.0550  0.4518
 6543TIP3   OH219592   4.729   6.396   0.272  0.3629  0.7631  0.2314
 6543TIP3    H119593   4.637   6.372   0.277  0.3378  0.6057 -0.7599
 6543TIP3    H219594   4.751   6.426   0.360 -1.0361  2.2976  0.1038
 6544TIP3   OH219595   1.391   6.402   3.609 -0.1724  1.1289 -0.6497
 6544TIP3    H119596   1.340   6.470   3.654 -2.6368 -0.1930 -1.2450
 6544TIP3    H219597   1.351   6.320   3.637  1.8518 -0.0392 -1.0113
 6545TIP3   OH219598   1.097   1.835   1.621  0.1382 -0.2835  0.1359
 6545TIP3    H119599   1.027   1.853   1.685  0.2342 -0.4305  0.2823
 6545TIP3    H219600   1.103   1.740   1.619 -0.2446 -0.2958 -0.5072
 6546TIP3   OH219601   2.776   5.652   2.836 -0.6784  0.0989 -0.7537
 6546TIP3    H119602   2.688   5.618   2.827 -0.9653  0.2110  1.2030
 6546TIP3    H219603   2.829   5.577   2.865 -0.5222  0.4324 -0.1551
 6547TIP3   OH219604   3.799   0.031   3.182  0.2281  0.2322  0.1334
 6547TIP3    H119605   3.757  -0.040   3.230 -2.9339  1.4340 -0.5980
 6547TIP3    H219606   3.783   0.011   3.090 -0.2971  1.5908 -0.0990
 6548TIP3   OH219607   4.610   1.636   5.443  0.0367  0.3243  0.0473
 6548TIP3    H119608   4.595   1.656   5.536  0.5466  0.5204  0.0920
 6548TIP3    H219609   4.695   1.592   5.441  0.4854  1.1780 -0.4241
 6549TIP3   OH219610   2.094   1.176   3.826  0.5551  0.4308 -0.7386
 6549TIP3    H119611   2.098   1.272   3.832 -0.8478  0.4803 -0.0326
 6549TIP3    H219612   2.184   1.147   3.838  0.7966  1.6149  0.5259
 6550TIP3   OH219613   5.869   4.341   5.595 -0.1996  0.1063 -0.0432
 6550TIP3    H119614   5.796   4.390   5.556 -0.2374  0.3020  0.2739
 6550TIP3    H219615   5.857   4.352   5.689  0.4616  0.4639  0.0048
 6551TIP3   OH219616   1.988   2.120   5.389 -0.1759 -0.6198 -0.2194
 6551TIP3    H119617   2.020   2.194   5.336  0.2098  0.9008  2.0179
 6551TIP3    H219618   2.058   2.104   5.452 -0.5425 -2.5247 -0.2461
 6552TIP3   OH219619   4.416   0.160   5.706  0.0101  0.1636  0.3753
 6552TIP3    H119620   4.438   0.087   5.765  1.7657  0.6205  0.3444
 6552TIP3    H219621   4.381   0.228   5.764  2.9189  1.1007  1.1679
 6553TIP3   OH219622   1.557   0.423   0.117 -0.3052  0.0215 -0.2613
 6553TIP3    H119623   1.547   0.334   0.151 -0.8550  0.2782  0.2492
 6553TIP3    H219624   1.630   0.460   0.168  0.3551 -0.3433 -0.9174
 6554TIP3   OH219625   2.390   1.744   2.147  0.3512  0.4744 -0.0212
 6554TIP3    H119626   2.366   1.815   2.207  2.0295 -1.2762  2.9770
 6554TIP3    H219627   2.471   1.775   2.106 -0.0762  1.1268 -0.4058
 6555TIP3   OH219628   0.802   5.069   4.561 -0.3631  0.0488  0.3520
 6555TIP3    H119629   0.791   5.126   4.637  0.0122 -1.6849  1.7604
 6555TIP3    H219630   0.897   5.067   4.546 -0.5261  1.5800 -1.1619
 6556TIP3   OH219631   7.129   1.025   4.697 -0.7167  0.0562  0.1408
 6556TIP3    H119632   7.044   1.018   4.740 -1.4626  1.5936 -0.9792
 6556TIP3    H219633   7.109   1.062   4.611  1.0031 -0.3881 -0.4918
 6557TIP3   OH219634   3.632   2.917   5.509  0.1541 -0.5628 -0.2566
 6557TIP3    H119635   3.687   2.912   5.587 -1.1386 -1.1765  0.6530
 6557TIP3    H219636   3.676   2.980   5.452 -0.6247  2.7279  2.4298
 6558TIP3   OH219637   3.175   6.723   4.052 -0.5303 -0.5627  0.0635
 6558TIP3    H119638   3.180   6.628   4.048  0.2725 -0.5617  0.8415
 6558TIP3    H219639   3.093   6.741   4.099  0.2316 -0.9189  1.5734
 6559TIP3   OH219640   3.216   1.830   0.068  0.1841  0.0544  0.0895
 6559TIP3    H119641   3.138   1.840   0.123  0.3928 -0.3071  0.4576
 6559TIP3    H219642   3.256   1.917   0.066 -0.3230  0.2823 -0.2430
 6560TIP3   OH219643   5.586   0.915   3.169 -0.4450 -0.3965 -0.1103
 6560TIP3    H119644   5.594   0.829   3.127 -0.8813  0.5238 -2.2058
 6560TIP3    H219645   5.675   0.938   3.196 -0.3898 -1.6517  0.8727
 6561TIP3   OH219646   5.927   6.278   2.632 -0.3739  0.0153  0.1933
 6561TIP3    H119647   5.977   6.234   2.701  0.1907 -0.1585 -0.3226
 6561TIP3    H219648   5.944   6.371   2.645  1.7799 -0.1224 -1.2259
 6562TIP3   OH219649   7.232   1.687   3.871 -0.3408 -0.3454 -0.3949
 6562TIP3    H119650   7.173   1.705   3.945  0.9419  0.1310  0.5542
 6562TIP3    H219651   7.207   1.752   3.805 -1.4192 -0.6836 -0.3418
 6563TIP3   OH219652   2.678   2.427   1.306 -0.2225 -0.1857 -0.2845
 6563TIP3    H119653   2.623   2.504   1.319  0.3735  0.1164  0.5300
 6563TIP3    H219654   2.730   2.421   1.386 -0.3492 -1.5187 -0.2814
 6564TIP3   OH219655   5.697   2.106   0.790  0.5195 -0.0807  0.1760
 6564TIP3    H119656   5.640   2.152   0.729 -1.6616 -0.0964  2.0778
 6564TIP3    H219657   5.691   2.014   0.765  0.2658  0.0006 -0.0653
 6565TIP3   OH219658   3.411   1.414   2.726 -0.2983  0.1094 -0.6728
 6565TIP3    H119659   3.381   1.485   2.670 -1.4635  1.7797  1.9146
 6565TIP3    H219660   3.331   1.372   2.758  0.2708  0.0430  0.7479
 6566TIP3   OH219661   0.987   4.534   2.779 -0.5742  0.1790  0.8087
 6566TIP3    H119662   1.039   4.499   2.851  0.7759  1.2548  0.4074
 6566TIP3    H219663   1.034   4.508   2.700 -0.4541  1.4278  0.4467
 6567TIP3   OH219664   6.980   4.317   4.392 -0.1390  0.3829 -0.3378
 6567TIP3    H119665   7.063   4.317   4.343 -0.9406  0.6320 -1.7337
 6567TIP3    H219666   6.931   4.391   4.357 -0.5271  0.9165  1.2611
 6568TIP3   OH219667   2.830   6.386   2.998  0.4001 -0.3575  0.1501
 6568TIP3    H119668   2.765   6.340   3.051 -0.0266  0.3156  0.2277
 6568TIP3    H219669   2.779   6.432   2.931  1.0563 -2.9762 -2.3271
 6569TIP3   OH219670   0.023   4.920   3.893  0.0298  0.8065  0.2329
 6569TIP3    H119671   0.102   4.869   3.879 -0.1490  0.5787  0.0520
 6569TIP3    H219672   0.012   4.924   3.988  0.2555  0.8377  0.2570
 6570TIP3   OH219673   0.522   6.012   4.912  0.5082 -0.1777  0.1651
 6570TIP3    H119674   0.609   5.972   4.906  0.2470 -0.7477  0.1669
 6570TIP3    H219675   0.528   6.090   4.857  1.0746 -0.1157  0.3079
 6571TIP3   OH219676   2.011   6.649   2.508 -0.1029 -0.5184  0.0883
 6571TIP3    H119677   2.100   6.643   2.473 -0.3321  1.0489 -0.8730
 6571TIP3    H219678   2.021   6.701   2.588  0.1253 -2.2909  1.2604
 6572TIP3   OH219679   2.776   5.683   3.568 -0.3191  0.5108  0.0929
 6572TIP3    H119680   2.703   5.700   3.509  0.5118  0.2752 -1.0297
 6572TIP3    H219681   2.735   5.672   3.654 -1.4142  2.4091 -0.1296
 6573TIP3   OH219682   2.259   5.064   2.400 -0.2092  0.2230  0.6806
 6573TIP3    H119683   2.347   5.051   2.367 -0.2479  1.7790 -0.1293
 6573TIP3    H219684   2.265   5.044   2.493  0.7214 -0.8007  0.4148
 6574TIP3   OH219685   5.567   0.792   0.140  0.4233 -0.5181 -0.0959
 6574TIP3    H119686   5.505   0.863   0.121  2.2116  1.2377  0.1943
 6574TIP3    H219687   5.562   0.780   0.235 -1.2215 -2.1643 -0.3414
 6575TIP3   OH219688   4.732   4.573   5.208  0.6098 -0.0242  0.0420
 6575TIP3    H119689   4.810   4.586   5.261  0.6414 -2.1053  0.5864
 6575TIP3    H219690   4.749   4.624   5.128  3.2600 -1.6658 -0.5694
 6576TIP3   OH219691   3.737   5.256   4.883 -0.1015 -0.0579 -0.1836
 6576TIP3    H119692   3.747   5.169   4.845 -0.7735  0.3918 -1.4225
 6576TIP3    H219693   3.659   5.249   4.938 -1.9712  0.5051 -2.6251
 6577TIP3   OH219694   5.312   4.881   2.796 -0.4547 -0.2432 -0.4204
 6577TIP3    H119695   5.334   4.846   2.710  0.7535  2.9780 -1.5820
 6577TIP3    H219696   5.390   4.865   2.849 -0.0023  0.4333 -0.8680
 6578TIP3   OH219697   2.184   6.695   0.448 -0.3755 -0.3353  0.1509
 6578TIP3    H119698   2.151   6.606   0.446 -0.0811 -0.4434  0.0215
 6578TIP3    H219699   2.254   6.696   0.383  0.7660 -0.4623  1.3486
 6579TIP3   OH219700   4.608   3.440   5.150 -0.2541 -0.4043 -0.1335
 6579TIP3    H119701   4.587   3.434   5.243 -0.3189 -2.5303 -0.2493
 6579TIP3    H219702   4.523   3.445   5.107 -0.2225  0.7171 -0.1134
 6580TIP3   OH219703   2.101   2.662   2.291 -0.2471 -0.5987  0.2816
 6580TIP3    H119704   2.190   2.631   2.276 -0.2696 -0.2514 -0.6233
 6580TIP3    H219705   2.111   2.737   2.350  0.2656  0.6557 -1.3272
 6581TIP3   OH219706   2.735   1.974   3.665  0.3328 -0.9930 -0.7570
 6581TIP3    H119707   2.735   1.947   3.573 -1.2581  0.8182 -1.3596
 6581TIP3    H219708   2.756   2.068   3.662 -1.2104 -0.5663  0.5631
 6582TIP3   OH219709   0.769   5.725   4.110 -0.6017  1.0692  0.1655
 6582TIP3    H119710   0.762   5.703   4.017  0.1445  1.9426 -0.1114
 6582TIP3    H219711   0.785   5.641   4.153 -1.4708  0.5790 -0.4277
 6583TIP3   OH219712   0.223   1.188   3.785 -0.9564 -0.1248  0.1588
 6583TIP3    H119713   0.203   1.157   3.696  0.7625  1.4399 -0.8424
 6583TIP3    H219714   0.176   1.271   3.792 -2.0818 -0.8068  1.2314
 6584TIP3   OH219715   3.785   2.976   2.781 -0.0901 -0.6498 -0.1448
 6584TIP3    H119716   3.817   2.961   2.870  1.3423 -0.1160 -0.5420
 6584TIP3    H219717   3.849   2.934   2.724  0.1811  0.8280 -0.9965
 6585TIP3   OH219718   4.504   3.883   0.846 -0.5373  0.0941  0.1454
 6585TIP3    H119719   4.478   3.848   0.931  1.4720 -0.9775  0.3808
 6585TIP3    H219720   4.433   3.943   0.822 -2.5238 -1.6703  1.2608
 6586TIP3   OH219721   2.250   1.146   2.476  0.5125  0.6700  0.4102
 6586TIP3    H119722   2.345   1.142   2.481  0.4738  0.1496  0.7722
 6586TIP3    H219723   2.222   1.168   2.565  0.1639 -2.0090  1.0370
 6587TIP3   OH219724   3.398   4.565   3.754 -0.1497 -0.2032  0.3383
 6587TIP3    H119725   3.444   4.644   3.726  0.1792 -0.8519 -1.0244
 6587TIP3    H219726   3.329   4.597   3.813 -1.0283  1.2737 -1.4013
 6588TIP3   OH219727   1.262   1.809   0.776  0.7535 -0.1760  0.1757
 6588TIP3    H119728   1.228   1.852   0.698 -1.4778  0.1745  1.2689
 6588TIP3    H219729   1.250   1.716   0.760  1.7352 -0.2087 -0.4855
 6589TIP3   OH219730   1.567   0.482   0.810  0.3396 -0.3135 -0.1825
 6589TIP3    H119731   1.535   0.426   0.881 -0.0899  2.0055  1.5462
 6589TIP3    H219732   1.491   0.535   0.784  0.7055 -0.5371 -1.8574
 6590TIP3   OH219733   6.373   1.045   0.563 -0.0957 -0.4860 -0.0695
 6590TIP3    H119734   6.404   1.003   0.483 -1.0120  0.1311 -0.7732
 6590TIP3    H219735   6.385   0.979   0.631 -0.8225 -1.6431 -1.0109
 6591TIP3   OH219736   5.606   5.338   4.647 -0.4923 -0.3556  0.1121
 6591TIP3    H119737   5.685   5.374   4.686 -2.0415  1.8292  1.4897
 6591TIP3    H219738   5.560   5.298   4.721 -0.7058 -1.5788 -0.6629
 6592TIP3   OH219739   2.396   3.663   2.952  0.1666  0.0955  0.3126
 6592TIP3    H119740   2.463   3.727   2.930  0.6498 -0.8589 -1.1244
 6592TIP3    H219741   2.314   3.711   2.950  0.4294  0.5245 -1.5583
 6593TIP3   OH219742   0.591   1.513   5.453 -0.1645 -0.5482 -0.6180
 6593TIP3    H119743   0.506   1.469   5.452  0.0817 -1.4455  3.0498
 6593TIP3    H219744   0.586   1.574   5.527  2.2611 -0.4337 -0.4522
 6594TIP3   OH219745   6.478   4.477   2.381  0.2126  0.4130  0.1711
 6594TIP3    H119746   6.483   4.402   2.440 -1.8010 -0.1237 -0.2646
 6594TIP3    H219747   6.428   4.543   2.430 -0.2360  0.4974 -0.3838
 6595TIP3   OH219748   6.929   4.011   4.447 -0.3565 -0.0763  0.2021
 6595TIP3    H119749   6.970   3.942   4.394 -1.4025 -1.2330  0.8499
 6595TIP3    H219750   6.981   4.014   4.527 -0.8853 -0.8261  0.5886
 6596TIP3   OH219751   1.845   0.753   0.160 -0.0965 -0.1154  0.2543
 6596TIP3    H119752   1.868   0.838   0.123 -0.0302  0.6921  2.0360
 6596TIP3    H219753   1.755   0.763   0.190  0.5716  0.0968  2.4015
 6597TIP3   OH219754   4.474   4.981   5.181  0.0931 -0.0503 -0.5481
 6597TIP3    H119755   4.475   4.920   5.255  0.0715  0.9056  0.2695
 6597TIP3    H219756   4.412   4.943   5.119 -3.0447  1.0351  1.6399
 6598TIP3   OH219757   0.157   3.659   2.131 -0.3545 -0.1634  0.4971
 6598TIP3    H119758   0.078   3.676   2.080 -1.4579 -2.6671  1.2568
 6598TIP3    H219759   0.228   3.666   2.068 -1.2395  1.0385 -0.4265
 6599TIP3   OH219760   4.623   0.671   1.357  0.4665  0.8414 -0.1276
 6599TIP3    H119761   4.674   0.650   1.279 -1.1732  2.3593 -1.6943
 6599TIP3    H219762   4.633   0.766   1.368 -1.1158  1.0184  0.1176
 6600TIP3   OH219763   3.827   3.091   1.623 -0.2535 -0.2977  0.2769
 6600TIP3    H119764   3.797   3.179   1.644  0.6766  0.0299  0.2793
 6600TIP3    H219765   3.897   3.104   1.559  0.6193 -0.9596  1.0624
 6601TIP3   OH219766   1.768   0.832   4.116  0.3382 -0.1089  0.5238
 6601TIP3    H119767   1.808   0.749   4.091  0.4551 -1.0268  3.4296
 6601TIP3    H219768   1.838   0.897   4.103  0.7591 -0.6954 -0.2222
 6602TIP3   OH219769   4.806   2.126   2.311  0.0885  0.4105 -0.1680
 6602TIP3    H119770   4.876   2.166   2.363 -0.4523 -0.0654  0.9594
 6602TIP3    H219771   4.729   2.180   2.329 -0.1383  0.1548 -0.3644
 6603TIP3   OH219772   4.667   0.063   3.186  0.6392  0.0841  0.3352
 6603TIP3    H119773   4.729   0.131   3.162 -0.1573  1.4408  1.8885
 6603TIP3    H219774   4.656   0.072   3.280 -1.9311 -0.0439  0.1324
 6604TIP3   OH219775   1.965   1.632   0.268  0.0343 -0.0951 -0.4259
 6604TIP3    H119776   1.905   1.657   0.338  0.0427 -0.8664 -0.1359
 6604TIP3    H219777   1.909   1.622   0.191 -0.0743  0.0612 -0.3691
 6605TIP3   OH219778   1.987   3.528   4.005  0.0205  0.0647 -0.3382
 6605TIP3    H119779   1.988   3.486   4.092  0.6061  0.3713 -0.1900
 6605TIP3    H219780   2.065   3.494   3.962  0.4937  0.9891 -0.2218
 6606TIP3   OH219781   4.114   0.975   4.654 -0.3205  0.1461 -0.6213
 6606TIP3    H119782   4.126   1.047   4.716 -1.0201  0.2738 -0.6183
 6606TIP3    H219783   4.185   0.914   4.673 -0.0287  0.5873 -0.2712
 6607TIP3   OH219784   0.155   0.584   1.924 -0.5214 -0.0629 -0.4431
 6607TIP3    H119785   0.070   0.629   1.929 -1.2177 -1.2851 -0.7450
 6607TIP3    H219786   0.176   0.583   1.831 -0.4918 -0.3213 -0.4346
 6608TIP3   OH219787   0.802   3.786   3.659 -0.1808  0.4231 -0.0405
 6608TIP3    H119788   0.858   3.839   3.716  0.4569  1.3015 -1.4157
 6608TIP3    H219789   0.854   3.708   3.640 -0.2472  0.2990  0.2802
 6609TIP3   OH219790   4.937   4.141   3.868 -0.3109 -0.3809 -0.1530
 6609TIP3    H119791   4.883   4.212   3.903  0.4411  0.5905 -0.8829
 6609TIP3    H219792   4.915   4.138   3.775 -0.2478 -1.0329 -0.1522
 6610TIP3   OH219793   0.752   5.622   4.895 -0.1076 -0.2420  0.0117
 6610TIP3    H119794   0.783   5.669   4.972  1.3091  1.8427 -1.6970
 6610TIP3    H219795   0.791   5.535   4.902  1.3196  0.4336  0.8642
 6611TIP3   OH219796   0.629   4.061   3.931 -0.3654 -0.0215 -0.4040
 6611TIP3    H119797   0.547   4.013   3.943 -0.4197 -0.1669 -1.2895
 6611TIP3    H219798   0.602   4.149   3.905 -0.2801 -0.6277 -2.8188
 6612TIP3   OH219799   5.647   1.983   2.435 -0.4002  0.2926  0.6920
 6612TIP3    H119800   5.629   1.927   2.511  1.1194 -1.1616  0.0577
 6612TIP3    H219801   5.729   1.948   2.399 -1.4894  0.3720 -2.1164
 6613TIP3   OH219802   2.653   0.288   2.619 -0.8985 -0.2036 -0.1495
 6613TIP3    H119803   2.736   0.244   2.638 -0.5941  0.5946  0.4000
 6613TIP3    H219804   2.600   0.273   2.697 -1.6729 -1.5686 -0.8814
 6614TIP3   OH219805   4.137   5.851   0.668  0.3536 -0.1428  0.3720
 6614TIP3    H119806   4.064   5.887   0.719  1.4145  2.7680  0.0249
 6614TIP3    H219807   4.200   5.824   0.735 -0.6965 -2.0260  0.6565
 6615TIP3   OH219808   5.745   0.275   4.206  0.0963 -0.0093  0.1180
 6615TIP3    H119809   5.790   0.192   4.217 -3.6712 -2.1794  1.0199
 6615TIP3    H219810   5.742   0.289   4.111 -0.0323 -1.4490 -0.1045
 6616TIP3   OH219811   2.964   6.637   4.267  0.6603 -0.5166 -0.0094
 6616TIP3    H119812   2.928   6.563   4.220 -1.2505  1.1100 -1.2984
 6616TIP3    H219813   2.917   6.638   4.350  1.1647 -1.1150  0.2854
 6617TIP3   OH219814   5.350   6.614   5.370 -0.3010  0.5056 -0.3860
 6617TIP3    H119815   5.291   6.547   5.404 -0.7939  1.2318  0.2298
 6617TIP3    H219816   5.437   6.586   5.401 -0.3650 -0.3331 -0.9306
 6618TIP3   OH219817   4.578   6.081   0.476  0.6356 -0.6587  0.0745
 6618TIP3    H119818   4.513   6.027   0.521  1.1503 -0.4702  1.0650
 6618TIP3    H219819   4.612   6.139   0.544  0.6411  0.3915 -0.8012
 6619TIP3   OH219820   6.734   2.071   3.024  0.0973  0.3996  0.1326
 6619TIP3    H119821   6.780   2.053   3.106  0.4266 -0.5924 -0.2615
 6619TIP3    H219822   6.645   2.041   3.039  0.2230 -0.0206  0.0415
 6620TIP3   OH219823   5.168   0.468   4.820 -0.0973  0.0979 -0.0602
 6620TIP3    H119824   5.259   0.493   4.837  0.7891 -2.7605  0.0740
 6620TIP3    H219825   5.171   0.372   4.816 -2.8582 -0.0053 -1.6783
 6621TIP3   OH219826   2.673   2.759   5.524 -0.3683  0.1274 -0.1619
 6621TIP3    H119827   2.662   2.801   5.609 -0.3201  0.3947 -0.2878
 6621TIP3    H219828   2.627   2.676   5.532  0.0388 -0.0558  0.2791
 6622TIP3   OH219829   6.136   2.521   3.567 -0.5559  0.9269 -0.1257
 6622TIP3    H119830   6.086   2.602   3.580 -1.5281  0.0399  2.4212
 6622TIP3    H219831   6.121   2.472   3.648  0.8053 -1.3773 -1.1998
 6623TIP3   OH219832   1.741   5.398   3.680 -0.3371 -0.1524  0.1446
 6623TIP3    H119833   1.800   5.371   3.610  0.4342  1.3996  0.1495
 6623TIP3    H219834   1.668   5.337   3.675  1.1212 -1.9841 -0.0312
 6624TIP3   OH219835   3.291   6.299   3.301  0.3347  0.2550 -0.4481
 6624TIP3    H119836   3.197   6.317   3.302  0.1894 -0.2410 -1.9266
 6624TIP3    H219837   3.298   6.205   3.314  0.7196  0.4438  0.8644
 6625TIP3   OH219838   6.425   4.116   1.872 -0.2921  0.1640  0.3372
 6625TIP3    H119839   6.331   4.099   1.880 -0.8539  2.6167 -0.0320
 6625TIP3    H219840   6.432   4.211   1.886  1.8122  0.4496 -2.1561
 6626TIP3   OH219841   3.775   2.758   1.372 -0.6787 -0.0968  0.1626
 6626TIP3    H119842   3.860   2.714   1.370 -1.0780 -0.8621 -1.0805
 6626TIP3    H219843   3.766   2.789   1.463  1.7576  1.7142 -0.1063
 6627TIP3   OH219844   3.253   4.146   3.331 -0.3628  0.8120 -0.1464
 6627TIP3    H119845   3.311   4.210   3.372  0.7176  0.2972 -0.8270
 6627TIP3    H219846   3.308   4.103   3.265 -1.4703  0.1804 -0.6820
 6628TIP3   OH219847   5.111   4.388   5.446 -0.1671  0.0749  0.1342
 6628TIP3    H119848   5.128   4.479   5.470 -1.4149 -0.0211  1.5365
 6628TIP3    H219849   5.174   4.337   5.496 -2.0731 -0.0496  2.5882
 6629TIP3   OH219850   5.277   0.780   2.504 -0.5972  0.7128  0.1171
 6629TIP3    H119851   5.288   0.746   2.416  2.1588 -1.8507  1.2482
 6629TIP3    H219852   5.203   0.731   2.540 -1.0000  0.9352 -0.4033
 6630TIP3   OH219853   1.530   0.932   4.717 -0.0392  0.7845 -0.7135
 6630TIP3    H119854   1.529   0.847   4.674  0.4521  0.9054 -0.9630
 6630TIP3    H219855   1.507   0.913   4.808 -1.9879  0.6278 -1.1948
 6631TIP3   OH219856   2.516   6.811   0.538 -0.4966  0.3746  0.4525
 6631TIP3    H119857   2.468   6.782   0.615 -0.3737 -0.2652  0.2977
 6631TIP3    H219858   2.458   6.792   0.465  0.1366 -0.7810  0.2279
 6632TIP3   OH219859   1.324   0.605   4.797  0.1125 -0.4076  0.1909
 6632TIP3    H119860   1.319   0.532   4.859 -0.4806 -0.9713 -0.5039
 6632TIP3    H219861   1.406   0.591   4.750  0.9593  0.4524  1.3441
 6633TIP3   OH219862   2.110   6.746   3.404  0.1592  0.1197 -0.3264
 6633TIP3    H119863   2.027   6.704   3.427  2.5262 -2.8499  4.3529
 6633TIP3    H219864   2.093   6.840   3.416 -2.6057 -0.2837 -0.3109
 6634TIP3   OH219865   4.328   0.241   4.546  0.1988 -0.4088  0.5094
 6634TIP3    H119866   4.322   0.183   4.470  2.3362 -0.3872  0.2606
 6634TIP3    H219867   4.417   0.277   4.541 -0.3300  1.2083  1.8739
 6635TIP3   OH219868   4.746   6.149   3.865  0.0840  0.7045  1.0119
 6635TIP3    H119869   4.664   6.185   3.898 -0.3827  1.4660 -0.8609
 6635TIP3    H219870   4.812   6.214   3.889 -0.3107  1.4416  0.1698
 6636TIP3   OH219871   2.537   0.824   2.925 -0.0764  0.0419 -0.6424
 6636TIP3    H119872   2.555   0.902   2.976 -2.2744  0.0681  0.2046
 6636TIP3    H219873   2.441   0.817   2.923 -0.0083 -3.2617  0.3800
 6637TIP3   OH219874   5.027   3.202   2.217  0.8850  0.3611 -0.3130
 6637TIP3    H119875   4.941   3.228   2.249  0.7592  0.7286 -0.9347
 6637TIP3    H219876   5.031   3.236   2.127  1.3256 -0.4304 -0.6023
 6638TIP3   OH219877   4.391   0.644   2.511 -0.2531  0.4229 -0.3437
 6638TIP3    H119878   4.413   0.551   2.510  0.0204  0.4318  1.2110
 6638TIP3    H219879   4.314   0.652   2.455 -0.9208 -0.9302  0.3249
 6639TIP3   OH219880   4.705   1.772   1.764 -0.1580  0.1103  0.1360
 6639TIP3    H119881   4.717   1.678   1.776  0.8291 -0.0942 -1.9285
 6639TIP3    H219882   4.610   1.786   1.768 -0.5239 -1.4117 -2.0307
 6640TIP3   OH219883   0.483   2.009   2.317 -0.0723 -0.0140 -0.1796
 6640TIP3    H119884   0.531   2.068   2.260 -1.4428  1.5071  0.1758
 6640TIP3    H219885   0.535   2.005   2.397  0.2814  0.3198 -0.3901
 6641TIP3   OH219886   0.246   0.526   3.389 -0.4963 -0.4826  0.2447
 6641TIP3    H119887   0.323   0.576   3.414 -1.0579  1.1800 -1.1759
 6641TIP3    H219888   0.201   0.508   3.471  0.3506  0.2711  0.8915
 6642TIP3   OH219889   1.208   1.607   2.246  0.2725  0.3378 -0.0524
 6642TIP3    H119890   1.113   1.605   2.258  0.1155 -2.0892 -1.1490
 6642TIP3    H219891   1.223   1.681   2.187 -0.7423  1.6059  1.2141
 6643TIP3   OH219892   3.078   6.006   1.817 -0.9068  0.2179  0.3621
 6643TIP3    H119893   3.169   6.033   1.824 -1.1200  0.8474  0.7537
 6643TIP3    H219894   3.072   5.965   1.730 -0.3593  0.5855  0.1435
 6644TIP3   OH219895   2.545   1.962   5.483  0.4075 -0.0154 -0.3155
 6644TIP3    H119896   2.627   1.920   5.455  2.0128  1.9596  1.1146
 6644TIP3    H219897   2.543   2.045   5.434 -0.2007  0.4043  0.3925
 6645TIP3   OH219898   1.581   0.867   2.235  0.1454 -0.1165  0.7870
 6645TIP3    H119899   1.622   0.922   2.169  4.0509 -0.2642  2.8116
 6645TIP3    H219900   1.561   0.785   2.189  1.8397  0.1143 -0.4463
 6646TIP3   OH219901   0.521   1.235   1.012 -0.3367  0.1880 -0.5752
 6646TIP3    H119902   0.530   1.311   0.955  1.5660  0.2155 -0.3260
 6646TIP3    H219903   0.461   1.177   0.967  0.1655  0.7439 -2.0022
 6647TIP3   OH219904   1.010   2.557   1.656  0.2340  0.2651 -0.0322
 6647TIP3    H119905   1.049   2.495   1.594  0.4821 -0.4514  0.8322
 6647TIP3    H219906   1.073   2.628   1.662  0.0363  0.5221 -0.8829
 6648TIP3   OH219907   6.938   2.712   2.380  0.0860  0.3185  0.1858
 6648TIP3    H119908   6.924   2.649   2.451  0.1300 -1.2294 -1.1363
 6648TIP3    H219909   7.030   2.739   2.391  0.4623 -0.8348  0.0088
 6649TIP3   OH219910   2.249   3.148   0.201 -0.7185  0.1975  0.0721
 6649TIP3    H119911   2.187   3.205   0.247  0.2422  0.5902  0.9258
 6649TIP3    H219912   2.331   3.160   0.248 -0.2780 -1.2285 -0.2932
 6650TIP3   OH219913   5.942   1.140   5.695 -0.5340 -0.1133 -0.1350
 6650TIP3    H119914   5.923   1.062   5.644 -1.2202  1.1016 -1.8462
 6650TIP3    H219915   5.990   1.109   5.771  1.1409 -1.9642 -1.8426
 6651TIP3   OH219916   3.131   1.974   3.229  0.2292 -0.3262  0.0035
 6651TIP3    H119917   3.105   2.016   3.311  1.1883 -0.3117  0.3176
 6651TIP3    H219918   3.127   1.880   3.248  0.1630 -0.3273 -0.0184
 6652TIP3   OH219919   5.098   6.599   3.374 -0.6363  0.0481 -0.3706
 6652TIP3    H119920   5.160   6.594   3.446 -2.0477  0.7161  0.9401
 6652TIP3    H219921   5.044   6.521   3.384 -0.3755 -0.2479 -1.1811
 6653TIP3   OH219922   3.542   3.023   0.100  0.0812  0.1218  0.3595
 6653TIP3    H119923   3.624   3.047   0.145 -0.4575 -1.4378  2.3548
 6653TIP3    H219924   3.475   3.077   0.143 -0.4801 -1.5838  1.7513
 6654TIP3   OH219925   1.958   1.144   5.395 -0.1582  0.3558  0.2849
 6654TIP3    H119926   1.925   1.228   5.364  0.5042  0.3995 -0.3229
 6654TIP3    H219927   1.972   1.093   5.315 -1.5811 -0.7381  0.6727
 6655TIP3   OH219928   6.892   2.313   4.364  0.4127 -0.4525  0.5532
 6655TIP3    H119929   6.966   2.271   4.408 -1.3476 -2.7619  1.5389
 6655TIP3    H219930   6.891   2.275   4.277  2.0476  1.8202 -0.5722
 6656TIP3   OH219931   1.028   2.096   4.055  0.2660  0.6815  0.0051
 6656TIP3    H119932   1.111   2.143   4.047  0.9083 -0.4549 -0.3659
 6656TIP3    H219933   0.961   2.161   4.034  1.0698  1.5854  0.1743
 6657TIP3   OH219934   4.776   0.797   3.741 -0.4564  0.5704  0.2338
 6657TIP3    H119935   4.813   0.778   3.828  1.2677 -0.4409 -0.6556
 6657TIP3    H219936   4.685   0.770   3.748 -0.6625  1.5237  2.0287
 6658TIP3   OH219937   2.170   3.542   5.096  0.2052 -0.1351  0.1604
 6658TIP3    H119938   2.109   3.549   5.023 -1.8190 -1.8264  1.6013
 6658TIP3    H219939   2.142   3.609   5.158 -0.3279 -1.0138  0.8930
 6659TIP3   OH219940   4.890   3.683   1.895 -0.1175 -0.4733 -0.6363
 6659TIP3    H119941   4.837   3.756   1.928 -0.0888 -1.1507  1.0091
 6659TIP3    H219942   4.936   3.720   1.819 -0.3630  1.1262 -0.0557
 6660TIP3   OH219943   4.362   5.963   5.707 -0.2392  0.4247  0.2711
 6660TIP3    H119944   4.356   5.873   5.740 -0.9666 -0.0934 -1.1703
 6660TIP3    H219945   4.421   5.956   5.632 -0.6280  1.0670 -0.0996
 6661TIP3   OH219946   3.660   0.284   5.336 -0.3831  0.1764 -0.1184
 6661TIP3    H119947   3.615   0.206   5.367  0.3731 -0.0267  0.4861
 6661TIP3    H219948   3.604   0.357   5.362  0.6568  0.1010  2.6147
 6662TIP3   OH219949   5.700   3.261   2.140 -0.0008 -0.0738 -0.3504
 6662TIP3    H119950   5.725   3.175   2.107 -0.9178 -0.4602 -0.0687
 6662TIP3    H219951   5.733   3.322   2.074  0.6520 -0.6327 -0.5545
 6663TIP3   OH219952   4.807   3.387   4.529 -0.0963 -0.0788  0.0944
 6663TIP3    H119953   4.877   3.426   4.476 -0.5256  0.6234  0.0250
 6663TIP3    H219954   4.837   3.298   4.548 -0.4207 -0.7554 -2.2526
 6664TIP3   OH219955   4.236   1.352   1.790  0.4693  0.3745  0.0446
 6664TIP3    H119956   4.194   1.276   1.830  0.8410  0.4794  0.6520
 6664TIP3    H219957   4.209   1.350   1.699  0.6538 -0.6097  0.0043
 6665TIP3   OH219958   3.922   6.767   2.944 -0.0790 -0.2002  0.1557
 6665TIP3    H119959   3.998   6.716   2.915  0.2969  0.4634 -0.0456
 6665TIP3    H219960   3.960   6.842   2.989 -0.6326 -0.1658  0.5729
 6666TIP3   OH219961   6.187   0.055   4.867  0.2102  0.4400 -0.1982
 6666TIP3    H119962   6.167  -0.018   4.809  2.2922 -2.5558  2.4697
 6666TIP3    H219963   6.278   0.077   4.848  0.6596 -0.0327  1.2468
 6667TIP3   OH219964   4.747   1.137   0.480  0.1472  0.1665  0.7012
 6667TIP3    H119965   4.768   1.130   0.387  1.3530 -1.7506  1.0550
 6667TIP3    H219966   4.679   1.205   0.485  0.9350  1.1746 -1.4084
 6668TIP3   OH219967   3.852   5.872   4.456  0.5620 -0.7058 -0.0265
 6668TIP3    H119968   3.758   5.868   4.470  0.5942 -1.7365 -0.0090
 6668TIP3    H219969   3.862   5.899   4.365  0.3266  3.4297  1.0031
 6669TIP3   OH219970   0.349   6.388   2.670  0.3201  0.3509  0.2232
 6669TIP3    H119971   0.312   6.440   2.598 -0.2243  0.6406  0.7108
 6669TIP3    H219972   0.390   6.313   2.626 -1.0066 -0.0784 -0.3113
 6670TIP3   OH219973   0.835   5.591   2.503  0.2551  0.5191 -0.1969
 6670TIP3    H119974   0.920   5.587   2.459  1.5681  1.2887  2.0833
 6670TIP3    H219975   0.812   5.500   2.520  0.1987  0.2652 -1.5469
 6671TIP3   OH219976   3.144   6.386   4.556  0.2470 -0.4341 -0.1281
 6671TIP3    H119977   3.179   6.344   4.635  1.3298  0.9430  0.1662
 6671TIP3    H219978   3.205   6.457   4.537 -0.5955 -0.0482 -1.5876
 6672TIP3   OH219979   5.759   0.955   0.385 -0.1456  0.3035  0.1568
 6672TIP3    H119980   5.677   0.910   0.406  0.6197 -0.9142  0.5816
 6672TIP3    H219981   5.824   0.886   0.374  1.0145  1.2738  0.5953
 6673TIP3   OH219982   0.891   6.335   4.861 -0.2867  0.3641 -0.2536
 6673TIP3    H119983   0.826   6.310   4.797 -0.8924 -1.2563  0.9433
 6673TIP3    H219984   0.972   6.295   4.831 -0.3595  0.4127 -0.5107
 6674TIP3   OH219985   1.169   1.216   0.722  0.0081  0.5437  0.6394
 6674TIP3    H119986   1.265   1.220   0.714  0.0104 -0.2433  0.0935
 6674TIP3    H219987   1.142   1.307   0.733  0.8060  0.7963  0.6109
 6675TIP3   OH219988   4.548   3.433   1.981  0.0324 -0.0363 -0.9032
 6675TIP3    H119989   4.507   3.491   1.917 -0.4329 -2.5499 -3.1064
 6675TIP3    H219990   4.475   3.399   2.033  0.0366 -0.1657 -0.9811
 6676TIP3   OH219991   1.032   2.141   2.053  0.0680  0.0802  0.5348
 6676TIP3    H119992   1.063   2.063   2.098  1.4796  0.2645 -0.0535
 6676TIP3    H219993   1.097   2.157   1.984 -0.6599  1.2602  0.0764
 6677TIP3   OH219994   3.173   0.623   0.727  0.7994  0.3125  0.1749
 6677TIP3    H119995   3.159   0.656   0.638  1.6085  1.7525  0.5620
 6677TIP3    H219996   3.089   0.638   0.771  0.6877  0.4388 -0.0747
 6678TIP3   OH219997   1.682   0.315   2.927  0.0328  0.1574  0.0353
 6678TIP3    H119998   1.619   0.359   2.984  0.9340  1.4022  0.1227
 6678TIP3    H219999   1.647   0.327   2.839 -0.5979 -0.4405  0.2079
 6679TIP3   OH220000   3.639   6.527   3.083 -0.3021  0.1002  0.4491
 6679TIP3    H120001   3.550   6.555   3.059 -0.3893 -1.2272 -0.9058
 6679TIP3    H220002   3.626   6.467   3.156 -0.6405 -0.8184 -0.3383
 6680TIP3   OH220003   0.984   6.056   3.556  0.0546  0.5504 -0.2356
 6680TIP3    H120004   1.006   6.027   3.467  0.4765  1.8768 -0.5870
 6680TIP3    H220005   1.067   6.054   3.603  0.0309  0.8662 -0.1763
 6681TIP3   OH220006   0.794   3.409   1.808  0.6615  0.0081  0.2164
 6681TIP3    H120007   0.735   3.480   1.781  1.1819  0.1630 -0.5507
 6681TIP3    H220008   0.777   3.339   1.745  0.7030 -0.2585  0.5010
 6682TIP3   OH220009   0.555   0.272   5.083  0.4430  0.4966 -0.5435
 6682TIP3    H120010   0.510   0.293   5.001 -1.3344 -0.2013  0.2183
 6682TIP3    H220011   0.547   0.178   5.092  1.6016  0.4159 -0.0812
 6683TIP3   OH220012   6.118   0.747   0.829 -0.0311  0.7127  0.2396
 6683TIP3    H120013   6.162   0.744   0.744 -0.3943 -0.1916  0.0718
 6683TIP3    H220014   6.027   0.766   0.808  0.1949  2.2570  0.5622
 6684TIP3   OH220015   2.630   0.667   5.607  0.0092 -0.2978 -0.2355
 6684TIP3    H120016   2.639   0.584   5.561 -2.6726 -0.6503 -0.3106
 6684TIP3    H220017   2.536   0.685   5.604  0.2928  1.8070  1.4219
 6685TIP3   OH220018   6.655   1.969   4.190 -0.2360  0.2398 -0.4497
 6685TIP3    H120019   6.595   1.903   4.223 -0.2301  0.1275 -0.6623
 6685TIP3    H220020   6.701   1.926   4.119 -0.5048  0.5917 -0.8412
 6686TIP3   OH220021   3.079   5.699   5.208  0.1951 -0.1492 -0.1323
 6686TIP3    H120022   3.137   5.694   5.131 -0.9184  0.1781 -1.0226
 6686TIP3    H220023   3.046   5.610   5.219 -0.0875 -0.0780 -0.3925
 6687TIP3   OH220024   6.001   1.697   1.615 -0.7748 -0.3267 -0.4275
 6687TIP3    H120025   6.083   1.741   1.640 -0.6137 -0.3360 -0.9308
 6687TIP3    H220026   5.933   1.743   1.665 -0.5327  0.0818 -0.4665
 6688TIP3   OH220027   3.353   5.724   4.084  0.0853  0.2191  0.4132
 6688TIP3    H120028   3.420   5.783   4.117 -1.0939  1.2036  1.1197
 6688TIP3    H220029   3.277   5.780   4.067  0.1707 -0.4162 -2.7514
 6689TIP3   OH220030   1.652   2.834   2.593  0.1294 -0.1155 -0.1253
 6689TIP3    H120031   1.651   2.921   2.554 -0.5035 -0.4267 -0.8372
 6689TIP3    H220032   1.704   2.781   2.532 -1.0305 -0.6539 -0.6719
 6690TIP3   OH220033   6.816   1.456   4.427  0.4106  0.0789 -0.3236
 6690TIP3    H120034   6.768   1.539   4.429  0.3557  0.1015 -1.8902
 6690TIP3    H220035   6.903   1.479   4.395  0.1047 -0.5894 -1.6916
 6691TIP3   OH220036   6.295   6.524   2.613 -0.4482 -0.1192 -0.1105
 6691TIP3    H120037   6.223   6.557   2.559 -0.3438 -1.2791 -1.0005
 6691TIP3    H220038   6.369   6.516   2.553  0.1327  0.0358  0.5611
 6692TIP3   OH220039   2.846   4.389   0.227  0.2686 -0.2972 -0.0069
 6692TIP3    H120040   2.870   4.466   0.279 -0.8834 -1.1592  1.9155
 6692TIP3    H220041   2.857   4.417   0.136 -0.4999  2.2634  0.6095
 6693TIP3   OH220042   2.724   6.647   4.044  0.1287 -0.3894 -0.4620
 6693TIP3    H120043   2.741   6.694   4.126 -0.4288 -0.5382 -0.2599
 6693TIP3    H220044   2.805   6.658   3.994  1.2017 -1.8067  0.8378
 6694TIP3   OH220045   0.581   5.397   3.406  0.5752 -0.1075  0.5514
 6694TIP3    H120046   0.589   5.310   3.366  0.2936 -0.5955  1.5271
 6694TIP3    H220047   0.526   5.446   3.346 -0.7733 -1.1757  0.8674
 6695TIP3   OH220048   3.447   6.737   5.191  0.1689 -1.2241  0.3185
 6695TIP3    H120049   3.501   6.798   5.240  0.8803 -0.2198 -1.6282
 6695TIP3    H220050   3.379   6.791   5.151  0.6179 -1.7150 -1.1681
 6696TIP3   OH220051   6.293   3.773   4.408 -0.2994  0.7709  1.0863
 6696TIP3    H120052   6.324   3.777   4.499 -2.7962  0.8567  2.0173
 6696TIP3    H220053   6.208   3.816   4.411 -0.2620  1.1302 -1.4224
 6697TIP3   OH220054   1.246   3.118   1.544 -0.9232  0.0897  0.2659
 6697TIP3    H120055   1.330   3.152   1.574 -1.4981  1.1197  0.7438
 6697TIP3    H220056   1.259   3.098   1.451  0.1400 -0.7389  0.5811
 6698TIP3   OH220057   3.578   1.297   5.581 -0.3303 -0.3089  0.0389
 6698TIP3    H120058   3.655   1.240   5.568 -0.4937 -0.2115 -1.5890
 6698TIP3    H220059   3.554   1.284   5.672 -0.0582 -2.4939 -0.1408
 6699TIP3   OH220060   6.396   4.016   5.226 -0.5429  0.0015  0.1296
 6699TIP3    H120061   6.465   4.065   5.270 -0.2294  0.1972 -0.5675
 6699TIP3    H220062   6.319   4.073   5.233 -0.0490  0.8718 -1.1566
 6700TIP3   OH220063   5.572   1.525   1.869 -0.7274  0.2527 -0.2694
 6700TIP3    H120064   5.509   1.586   1.830 -0.3428  0.2663 -0.8916
 6700TIP3    H220065   5.622   1.578   1.931 -1.0768  0.3276 -0.0486
 6701TIP3   OH220066   7.214   5.557   5.730 -0.8099  0.3253  0.1709
 6701TIP3    H120067   7.230   5.564   5.636 -0.5244 -0.9605  0.1066
 6701TIP3    H220068   7.119   5.551   5.738 -0.7817 -0.8609 -0.1582
 6702TIP3   OH220069   4.233   5.316   0.067  0.1102 -0.3859  0.2424
 6702TIP3    H120070   4.200   5.240   0.020 -0.8185  1.7509 -2.8333
 6702TIP3    H220071   4.156   5.357   0.105  0.3660 -0.0461  0.4099
 6703TIP3   OH220072   1.976   3.751   3.862 -0.6010  0.1739  0.1834
 6703TIP3    H120073   2.016   3.737   3.776  0.0037 -0.2057  0.5183
 6703TIP3    H220074   1.991   3.670   3.909  2.1335  1.4832  1.8275
 6704TIP3   OH220075   2.588   1.169   1.588  0.2980  0.3098  0.4168
 6704TIP3    H120076   2.563   1.090   1.540 -0.7631  0.9658 -0.1698
 6704TIP3    H220077   2.670   1.197   1.547  1.1079 -0.8855  1.1485
 6705TIP3   OH220078   4.109   2.262   3.296  0.6443 -0.1075  0.2251
 6705TIP3    H120079   4.047   2.254   3.369  0.5758 -0.4035  0.1351
 6705TIP3    H220080   4.085   2.344   3.253 -0.3496 -0.7193 -0.4260
 6706TIP3   OH220081   6.533   3.662   1.221  0.4587  0.2736 -0.1465
 6706TIP3    H120082   6.440   3.639   1.227 -0.0279  2.4544  2.6932
 6706TIP3    H220083   6.539   3.720   1.146 -0.5273  0.3172 -0.2038
 6707TIP3   OH220084   4.858   3.928   2.896 -0.1867 -0.1644  0.1766
 6707TIP3    H120085   4.948   3.955   2.880 -0.1968 -1.1677 -1.9152
 6707TIP3    H220086   4.804   4.000   2.863 -0.1534  0.1352  0.7797
 6708TIP3   OH220087   2.418   4.276   1.652 -0.2791  0.3079  0.0256
 6708TIP3    H120088   2.447   4.335   1.583  0.9286  0.5491  0.7188
 6708TIP3    H220089   2.496   4.224   1.673 -1.2164 -1.3308 -0.3376
 6709TIP3   OH220090   1.564   0.981   3.430 -0.1068 -0.4577  0.0475
 6709TIP3    H120091   1.483   0.930   3.421 -1.9758  2.1211  0.9337
 6709TIP3    H220092   1.593   0.963   3.519  0.7946 -1.9767 -0.5161
 6710TIP3   OH220093   5.465   5.797   0.143  0.0525 -0.2158 -0.1134
 6710TIP3    H120094   5.464   5.885   0.182  2.1760 -0.7419  1.3085
 6710TIP3    H220095   5.544   5.796   0.089  0.0277 -1.2378 -0.1344
 6711TIP3   OH220096   1.696   1.493   0.605 -0.5111  0.1558 -0.1246
 6711TIP3    H120097   1.763   1.491   0.674  0.8852  0.0883 -1.4353
 6711TIP3    H220098   1.624   1.543   0.643  0.9710  1.7241  0.7439
 6712TIP3   OH220099   3.804   1.821   5.584  0.9189 -0.5173  0.1087
 6712TIP3    H120100   3.773   1.828   5.493  4.2658 -0.2979 -1.1482
 6712TIP3    H220101   3.820   1.728   5.597 -1.1260 -0.7754  1.1384
 6713TIP3   OH220102   4.877   1.691   2.361  0.8370  0.1198  0.5037
 6713TIP3    H120103   4.931   1.620   2.396  0.6195 -0.7071 -0.7873
 6713TIP3    H220104   4.917   1.771   2.396  0.5062 -0.6399  2.7907
 6714TIP3   OH220105   0.026   2.603   3.557  0.2252 -0.7185  0.3587
 6714TIP3    H120106   0.005   2.520   3.514  1.3759 -0.7692 -0.1463
 6714TIP3    H220107   0.093   2.643   3.501  2.2201 -1.0586  2.3607
 6715TIP3   OH220108   5.822   4.807   1.085  0.0914  0.0204  0.1850
 6715TIP3    H120109   5.909   4.848   1.088  1.1793 -2.0314 -0.7848
 6715TIP3    H220110   5.841   4.714   1.072 -2.2658 -0.6364  1.1439
 6716TIP3   OH220111   2.160   4.610   5.553  0.0227  0.1637  0.0153
 6716TIP3    H120112   2.227   4.668   5.589 -0.1636  0.3424  0.0695
 6716TIP3    H220113   2.182   4.605   5.460  0.5235 -0.3267  0.1519
 6717TIP3   OH220114   2.094   5.309   2.383 -0.6459  0.2171 -0.0600
 6717TIP3    H120115   2.069   5.357   2.462 -0.4332 -0.3369  0.3439
 6717TIP3    H220116   2.167   5.254   2.410  1.6112  2.3253 -1.3605
 6718TIP3   OH220117   3.951   5.516   4.368 -0.1563  0.4728 -0.3807
 6718TIP3    H120118   4.026   5.455   4.372 -0.5329  0.0315  0.2777
 6718TIP3    H220119   3.955   5.563   4.452 -1.4501 -0.5928  0.3185
 6719TIP3   OH220120   4.233   0.990   1.784  0.5384 -0.1592 -0.1990
 6719TIP3    H120121   4.248   0.961   1.694  1.2750 -0.3650 -0.0181
 6719TIP3    H220122   4.316   1.030   1.810 -0.5089  2.4628 -0.5429
 6720TIP3   OH220123   4.528   2.888   2.796 -0.4099 -0.1950  0.0007
 6720TIP3    H120124   4.440   2.918   2.774  0.2352  1.5351 -0.3792
 6720TIP3    H220125   4.539   2.914   2.888  0.3443  1.2700 -0.4825
 6721TIP3   OH220126   6.790   1.323   1.490  0.2744  0.4398 -0.3427
 6721TIP3    H120127   6.736   1.283   1.558  0.5306  0.1288 -0.3182
 6721TIP3    H220128   6.779   1.266   1.414 -0.4064  1.0658 -0.7197
 6722TIP3   OH220129   5.965   3.129   1.640 -1.2146  0.6292 -0.1239
 6722TIP3    H120130   5.894   3.175   1.684  1.1848  3.6313  0.9197
 6722TIP3    H220131   5.969   3.044   1.684 -2.6531  1.2719  1.3414
 6723TIP3   OH220132   2.914   0.307   1.618  0.1705 -0.1847  0.0995
 6723TIP3    H120133   2.952   0.224   1.649 -0.0590 -1.6277 -3.1030
 6723TIP3    H220134   2.839   0.322   1.676  2.0463 -0.3901  2.8088
 6724TIP3   OH220135   3.176   1.634   0.461  0.0002  0.1930  0.1110
 6724TIP3    H120136   3.149   1.691   0.533  0.1417  1.1135 -0.5467
 6724TIP3    H220137   3.094   1.598   0.427 -0.3704  2.1014 -1.1590
 6725TIP3   OH220138   4.696   5.049   1.093  0.1735  0.6328 -0.4789
 6725TIP3    H120139   4.675   4.982   1.027  0.8472 -0.7800  0.6858
 6725TIP3    H220140   4.623   5.111   1.087 -1.0560 -0.7771 -0.8786
 6726TIP3   OH220141   3.788   1.044   1.824 -0.1715 -0.0013 -0.2761
 6726TIP3    H120142   3.861   1.047   1.763 -1.0579  0.4365 -1.3513
 6726TIP3    H220143   3.827   1.061   1.909  1.0929 -0.5929 -0.7044
 6727TIP3   OH220144   7.070   3.742   1.082  0.5639 -0.0085  0.5663
 6727TIP3    H120145   7.081   3.685   1.158 -0.1974 -1.2758 -0.2338
 6727TIP3    H220146   7.122   3.700   1.013 -0.2459  0.0865 -0.1199
 6728TIP3   OH220147   1.951   0.268   2.861  0.0738  0.1177  0.3658
 6728TIP3    H120148   1.988   0.356   2.873  0.9046 -0.1516 -0.1408
 6728TIP3    H220149   1.860   0.276   2.891 -0.6969  1.8620 -2.1164
 6729TIP3   OH220150   4.943   1.866   5.394  0.3094 -0.2925  0.2745
 6729TIP3    H120151   4.906   1.856   5.482  0.8363 -0.5612  0.4697
 6729TIP3    H220152   4.987   1.951   5.396  0.4334 -0.3567  0.3164
 6730TIP3   OH220153   3.752   6.580   1.247  0.5877  0.2388  0.1295
 6730TIP3    H120154   3.683   6.539   1.194  0.1205  1.6663 -0.3996
 6730TIP3    H220155   3.721   6.669   1.264  2.7291  1.2922 -0.9901
 6731TIP3   OH220156   5.963   3.372   3.614  0.1517 -0.0726 -0.3114
 6731TIP3    H120157   5.892   3.315   3.644 -1.1549  0.0209 -2.9669
 6731TIP3    H220158   6.018   3.384   3.692 -2.2732 -0.8175  1.6587
 6732TIP3   OH220159   3.305   1.727   4.756 -0.4948 -0.3502  0.1229
 6732TIP3    H120160   3.224   1.679   4.773 -0.4747 -0.4671 -0.1030
 6732TIP3    H220161   3.341   1.746   4.843 -0.8842 -0.0866  0.2270
 6733TIP3   OH220162   1.623   2.519   3.617 -0.0686  0.3320 -0.2067
 6733TIP3    H120163   1.667   2.496   3.699  0.3903 -0.5790 -0.6904
 6733TIP3    H220164   1.582   2.437   3.588 -0.4956  0.7195 -0.7270
 6734TIP3   OH220165   2.352   2.565   4.613 -0.1068  0.4647  0.3338
 6734TIP3    H120166   2.392   2.577   4.699  0.0982 -0.6850  0.4247
 6734TIP3    H220167   2.260   2.544   4.632  0.2508 -1.1993  0.3793
 6735TIP3   OH220168   2.122   4.857   2.884 -0.3279 -0.6029  0.5888
 6735TIP3    H120169   2.042   4.809   2.867  0.6158 -2.1169  0.2693
 6735TIP3    H220170   2.104   4.906   2.965 -2.3211  0.8932 -0.6686
 6736TIP3   OH220171   5.663   6.167   2.705 -0.6037 -0.1783 -0.2666
 6736TIP3    H120172   5.652   6.079   2.668  0.8409 -0.0504 -1.0837
 6736TIP3    H220173   5.754   6.190   2.686 -1.2720  2.0021 -1.2473
 6737TIP3   OH220174   6.883   0.198   3.259  0.2372  0.0687 -0.3392
 6737TIP3    H120175   6.960   0.244   3.290  0.9054 -1.0855 -0.2162
 6737TIP3    H220176   6.838   0.260   3.202  2.1108  0.2354 -1.6966
 6738TIP3   OH220177   4.390   0.892   5.770 -0.0656  0.1838 -0.0761
 6738TIP3    H120178   4.399   0.898   5.866 -1.1995  0.5900  0.0103
 6738TIP3    H220179   4.310   0.842   5.756  1.1285 -1.6085 -0.8396
 6739TIP3   OH220180   2.109   4.543   4.569  0.7792 -0.0648  0.0986
 6739TIP3    H120181   2.077   4.538   4.479  2.9219  0.6753 -0.7750
 6739TIP3    H220182   2.171   4.470   4.576  1.9998  0.9636  0.3437
 6740TIP3   OH220183   6.055   1.939   0.557  0.1794  0.7172 -0.3737
 6740TIP3    H120184   6.073   1.919   0.649 -1.6713  2.0769  0.3371
 6740TIP3    H220185   5.966   1.909   0.542 -0.0881  1.8844 -1.2818
 6741TIP3   OH220186   1.270   3.096   2.279 -0.2632 -1.2413 -0.1564
 6741TIP3    H120187   1.204   3.073   2.214  1.5842 -1.8949 -1.9047
 6741TIP3    H220188   1.289   3.188   2.262 -0.7373 -1.0358  0.3889
 6742TIP3   OH220189   1.602   6.248   3.474 -0.1363 -0.1390 -0.2993
 6742TIP3    H120190   1.665   6.236   3.546 -1.1659 -0.7867  0.5299
 6742TIP3    H220191   1.540   6.312   3.508 -0.8247 -0.7029 -0.4715
 6743TIP3   OH220192   0.952   1.695   0.484  0.0217 -0.1334 -0.3189
 6743TIP3    H120193   1.023   1.727   0.427 -0.4007  1.0878 -0.1946
 6743TIP3    H220194   0.965   1.743   0.566 -1.6842  1.0766 -0.7151
 6744TIP3   OH220195   2.431   4.727   2.184 -0.4170  0.0309 -0.2002
 6744TIP3    H120196   2.378   4.744   2.262  0.4286  0.1594  0.3584
 6744TIP3    H220197   2.423   4.808   2.132 -0.3145  0.2653  0.1442
 6745TIP3   OH220198   7.238   0.304   3.849 -0.2010  0.1358 -0.0135
 6745TIP3    H120199   7.186   0.354   3.786 -0.4858 -0.6680 -0.4264
 6745TIP3    H220200   7.176   0.279   3.917 -0.3165 -0.6192 -0.3862
 6746TIP3   OH220201   6.487   3.987   3.780  0.2000  0.0979 -0.0722
 6746TIP3    H120202   6.535   4.049   3.835 -0.5386 -1.1079  2.0534
 6746TIP3    H220203   6.397   3.991   3.813 -0.6877  0.4882 -2.3187
 6747TIP3   OH220204   5.783   0.103   2.287 -0.6043 -0.9281  0.1329
 6747TIP3    H120205   5.823   0.029   2.242  1.1702  0.2578 -0.3851
 6747TIP3    H220206   5.808   0.091   2.379  2.7980  0.7050 -0.3910
 6748TIP3   OH220207   5.951   1.485   3.606  0.2946  0.1164 -0.1731
 6748TIP3    H120208   5.864   1.512   3.577 -0.0234  0.7589  1.2690
 6748TIP3    H220209   6.011   1.539   3.556 -0.2530  1.5662  0.6612
 6749TIP3   OH220210   6.216   2.559   4.987  0.9396  0.4907  0.4141
 6749TIP3    H120211   6.211   2.493   4.919  1.2997  0.2745  0.5972
 6749TIP3    H220212   6.186   2.640   4.944  1.0382  0.3294  0.0400
 6750TIP3   OH220213   6.310   2.782   0.967 -0.2470 -0.3069 -0.4869
 6750TIP3    H120214   6.271   2.780   0.880 -0.3999  0.6987 -0.4525
 6750TIP3    H220215   6.393   2.735   0.957  0.2024  0.6405 -1.4164
 6751TIP3   OH220216   6.061   1.741   2.154  0.5996 -0.3480  0.2410
 6751TIP3    H120217   6.147   1.773   2.182  0.2136  1.6207 -0.7195
 6751TIP3    H220218   6.068   1.733   2.059 -1.1355  2.8603 -0.3035
 6752TIP3   OH220219   6.398   6.470   1.370 -0.1951 -0.2417 -0.1324
 6752TIP3    H120220   6.446   6.397   1.408  1.2728  0.4898 -0.5267
 6752TIP3    H220221   6.461   6.515   1.315 -1.6111  0.1680 -1.5001
 6753TIP3   OH220222   1.401   2.135   5.120 -0.1233  0.2025 -0.1427
 6753TIP3    H120223   1.352   2.076   5.177  1.2451  0.6593  1.5931
 6753TIP3    H220224   1.337   2.164   5.055 -1.9360  0.1286  1.5048
 6754TIP3   OH220225   0.234   6.483   5.869 -0.2433  0.0985  0.3978
 6754TIP3    H120226   0.236   6.528   5.954  3.1235  1.4111 -0.2096
 6754TIP3    H220227   0.222   6.554   5.805  0.3170 -0.4681 -0.3525
 6755TIP3   OH220228   5.093   4.411   5.846 -0.3462 -0.6763 -0.0547
 6755TIP3    H120229   5.124   4.345   5.908  0.3885  0.6241  1.0094
 6755TIP3    H220230   5.012   4.374   5.811  1.5807 -3.6251 -1.9642
 6756TIP3   OH220231   5.634   4.435   1.100  0.4412 -0.1298 -0.0349
 6756TIP3    H120232   5.671   4.361   1.052  0.9818  0.2431 -0.2114
 6756TIP3    H220233   5.684   4.437   1.181  1.1095  0.6205 -0.4456
 6757TIP3   OH220234   4.985   5.798   3.844  0.0459  0.1420  1.0169
 6757TIP3    H120235   4.920   5.765   3.782  0.9750  0.0840  0.0430
 6757TIP3    H220236   5.001   5.888   3.817  0.6979  0.0142  0.9441
 6758TIP3   OH220237   2.712   1.455   2.809 -0.1419 -0.0436  0.1187
 6758TIP3    H120238   2.689   1.548   2.821 -0.7426  0.0634 -1.5371
 6758TIP3    H220239   2.659   1.409   2.874 -1.3375  0.6325 -0.3345
 6759TIP3   OH220240   4.086   0.774   3.256 -0.1467 -0.1020 -0.1320
 6759TIP3    H120241   4.069   0.713   3.184 -0.9867 -0.8787  0.6863
 6759TIP3    H220242   4.101   0.858   3.213 -1.3774 -0.3816 -1.2028
 6760TIP3   OH220243   1.585   3.160   4.957 -0.2602  0.2779  0.5562
 6760TIP3    H120244   1.561   3.135   4.868 -1.2477  1.1068  0.5725
 6760TIP3    H220245   1.507   3.203   4.992  0.7195  1.6731  1.1523
 6761TIP3   OH220246   5.900   5.862   5.289  0.1936 -0.3111 -0.2978
 6761TIP3    H120247   5.845   5.800   5.240 -1.8379  0.0724  1.3475
 6761TIP3    H220248   5.865   5.948   5.267  1.4011  0.1021 -0.6681
 6762TIP3   OH220249   1.732   2.362   1.578  0.2504 -0.2104 -0.6519
 6762TIP3    H120250   1.730   2.288   1.516 -2.5636  0.7125 -1.7984
 6762TIP3    H220251   1.694   2.326   1.658  1.1533 -0.6178 -0.3915
 6763TIP3   OH220252   2.675   5.324   1.969 -0.2631  0.3731  0.6124
 6763TIP3    H120253   2.725   5.390   1.922 -2.5724  1.4217 -0.5468
 6763TIP3    H220254   2.635   5.371   2.042  0.2280 -0.3790  1.3821
 6764TIP3   OH220255   4.245   1.359   4.395 -0.1608  0.5355  0.5719
 6764TIP3    H120256   4.311   1.336   4.329 -1.1385 -2.6676  0.5161
 6764TIP3    H220257   4.185   1.418   4.349 -1.0738 -1.9687 -1.7009
 6765TIP3   OH220258   1.615   2.221   4.166 -0.0017  0.4423  0.0408
 6765TIP3    H120259   1.550   2.285   4.139 -0.4912 -0.5998 -1.4236
 6765TIP3    H220260   1.657   2.194   4.084 -1.3250 -2.6589  0.2413
 6766TIP3   OH220261   5.960   2.646   4.547  0.6984 -0.2581  0.5569
 6766TIP3    H120262   5.942   2.719   4.607 -3.0063  0.8464 -1.5540
 6766TIP3    H220263   5.952   2.568   4.601 -0.3612  0.7558  1.9468
 6767TIP3   OH220264   2.805   5.881   1.154 -0.1432 -0.1965 -1.0874
 6767TIP3    H120265   2.900   5.884   1.164 -0.4009  2.4036  1.8889
 6767TIP3    H220266   2.780   5.798   1.193  0.8230 -0.6024 -1.2884
 6768TIP3   OH220267   4.221   6.072   5.167  0.0491 -0.3425 -0.5941
 6768TIP3    H120268   4.138   6.051   5.209  1.1239 -1.0015  1.3323
 6768TIP3    H220269   4.220   6.168   5.158 -0.9153 -0.3469 -0.6206
 6769TIP3   OH220270   1.340   2.904   0.701  0.1134  0.2484  0.6457
 6769TIP3    H120271   1.406   2.843   0.668 -0.0447  0.7643 -0.6552
 6769TIP3    H220272   1.259   2.853   0.702  0.6733 -0.7415  3.3278
 6770TIP3   OH220273   4.910   5.433   1.553 -0.1896 -0.6324 -0.2170
 6770TIP3    H120274   5.003   5.456   1.554 -0.1662 -0.7029  1.1927
 6770TIP3    H220275   4.887   5.432   1.460  1.3782 -1.2548 -0.6415
 6771TIP3   OH220276   5.450   3.285   2.160  0.1241  0.2646 -0.5077
 6771TIP3    H120277   5.445   3.368   2.113  1.7080 -0.2468 -1.6805
 6771TIP3    H220278   5.536   3.249   2.135 -0.6811 -1.9001 -0.3605
 6772TIP3   OH220279   1.676   2.673   5.301 -0.2046 -0.1736  0.0665
 6772TIP3    H120280   1.763   2.702   5.328 -0.1331 -1.0732  0.8326
 6772TIP3    H220281   1.618   2.746   5.324  0.0802 -0.3043  1.2659
 6773TIP3   OH220282   5.828   6.498   4.042  0.0000  0.2581  0.6935
 6773TIP3    H120283   5.908   6.464   4.000  0.2556  1.6295  0.0065
 6773TIP3    H220284   5.788   6.554   3.976 -1.2792 -0.0095  1.2153
 6774TIP3   OH220285   5.067   1.990   0.904  0.1629  0.1414 -0.1936
 6774TIP3    H120286   5.003   1.999   0.834 -0.5995  1.6028  0.6387
 6774TIP3    H220287   5.056   1.901   0.935  0.1733 -0.3677 -1.5933
 6775TIP3   OH220288   6.550   5.930   4.537 -0.1133  0.0288  0.2527
 6775TIP3    H120289   6.572   5.867   4.469 -1.2462 -0.1481  0.0432
 6775TIP3    H220290   6.487   5.885   4.593  0.5003  0.3097  1.2141
 6776TIP3   OH220291   1.986   0.665   1.478  0.2565  0.1434 -0.2631
 6776TIP3    H120292   2.003   0.589   1.534  1.8259 -1.3553 -2.5650
 6776TIP3    H220293   1.891   0.665   1.465  0.1639 -1.0531  0.2961
 6777TIP3   OH220294   1.512   0.122   2.360  0.0440 -0.0631 -0.1321
 6777TIP3    H120295   1.539   0.073   2.282 -1.7969  1.9807 -2.2157
 6777TIP3    H220296   1.593   0.157   2.396  0.8204  1.5136 -3.0387
 6778TIP3   OH220297   2.243   5.841   4.480 -0.0055 -0.0679  0.7448
 6778TIP3    H120298   2.252   5.934   4.503 -0.0425 -0.0289  0.6063
 6778TIP3    H220299   2.229   5.842   4.385 -0.7563 -0.1641  0.8472
 6779TIP3   OH220300   6.521   1.647   2.737 -0.3683  0.2552  0.0810
 6779TIP3    H120301   6.469   1.575   2.771  0.2924 -0.3591 -0.1812
 6779TIP3    H220302   6.532   1.628   2.644  3.6600 -1.8443  0.7580
 6780TIP3   OH220303   5.629   6.265   5.457  0.3680 -0.0768  0.8620
 6780TIP3    H120304   5.701   6.259   5.521  1.3238 -1.8199 -0.2778
 6780TIP3    H220305   5.570   6.194   5.482  0.5342 -0.4988  0.0857
 6781TIP3   OH220306   3.315   3.934   5.774 -0.1582  0.3695  0.1249
 6781TIP3    H120307   3.284   4.022   5.750 -0.6465  0.3165  0.5503
 6781TIP3    H220308   3.249   3.901   5.834  0.9431  0.4245  1.4152
 6782TIP3   OH220309   3.503   5.594   0.084 -0.2595  0.8480 -0.7730
 6782TIP3    H120310   3.475   5.670   0.033 -0.6422  1.0259 -0.3099
 6782TIP3    H220311   3.532   5.630   0.168  2.9352  0.8445 -1.7589
 6783TIP3   OH220312   2.355   6.640   4.984 -0.5143 -0.1516  0.1434
 6783TIP3    H120313   2.375   6.570   5.046  0.5776  0.2359  0.2486
 6783TIP3    H220314   2.430   6.699   4.989 -1.3867  1.0187  0.0331
 6784TIP3   OH220315   6.946   3.000   5.214  0.5174 -0.2057 -0.4693
 6784TIP3    H120316   6.990   3.068   5.164  1.0360 -0.8086 -0.8557
 6784TIP3    H220317   6.959   3.025   5.306 -3.1128  2.6059 -0.5224
 6785TIP3   OH220318   7.132   2.894   3.755  0.3286  0.3785 -0.3554
 6785TIP3    H120319   7.156   2.802   3.745  0.0806  0.5255 -3.6768
 6785TIP3    H220320   7.047   2.900   3.710  0.4177  2.2431 -0.3266
 6786TIP3   OH220321   5.707   4.560   1.976  0.3791  0.9198  0.1072
 6786TIP3    H120322   5.664   4.573   1.891 -0.2099  1.4613  0.4812
 6786TIP3    H220323   5.798   4.587   1.961  0.3642  0.6721 -0.4444
 6787TIP3   OH220324   4.390   0.762   3.230 -0.0640 -0.2372 -0.1872
 6787TIP3    H120325   4.416   0.703   3.160  0.3367  0.0606 -0.2951
 6787TIP3    H220326   4.303   0.733   3.255 -0.1183 -0.4854 -0.6588
 6788TIP3   OH220327   1.004   3.070   2.149 -0.6197  0.0763 -0.0645
 6788TIP3    H120328   0.934   3.098   2.090  0.1117 -1.3401 -1.6597
 6788TIP3    H220329   0.970   2.991   2.191 -0.0706 -0.5181 -0.7153
 6789TIP3   OH220330   1.178   1.552   5.623  0.2785 -0.1423 -0.3009
 6789TIP3    H120331   1.181   1.516   5.534  0.3425  0.6253 -0.6100
 6789TIP3    H220332   1.087   1.539   5.651 -0.0446  0.6858 -0.9296
 6790TIP3   OH220333   3.588   3.872   2.494 -0.0989  1.0842 -0.1486
 6790TIP3    H120334   3.521   3.901   2.556  0.3573  1.4724  0.1704
 6790TIP3    H220335   3.655   3.831   2.548 -0.5897 -0.3053 -0.5724
 6791TIP3   OH220336   4.578   4.065   5.460  0.4950 -0.7241 -0.0372
 6791TIP3    H120337   4.540   4.007   5.394 -0.0586  0.3372 -0.6860
 6791TIP3    H220338   4.667   4.031   5.473  0.5308 -1.1063 -1.1613
 6792TIP3   OH220339   0.120   3.140   2.435  0.0435  0.1609 -0.4243
 6792TIP3    H120340   0.045   3.182   2.395  0.3086  0.5177 -0.5506
 6792TIP3    H220341   0.190   3.149   2.370 -0.6442 -3.1551 -1.8599
 6793TIP3   OH220342   2.844   1.159   1.442  0.2717  0.1844 -0.2947
 6793TIP3    H120343   2.925   1.210   1.436  0.1069  0.5257  0.3422
 6793TIP3    H220344   2.864   1.088   1.503 -0.5797  1.6007  1.7207
 6794TIP3   OH220345   5.838   3.948   3.693 -0.1838  0.0775  0.5168
 6794TIP3    H120346   5.769   3.963   3.629  0.0888  0.9913  0.4263
 6794TIP3    H220347   5.904   3.897   3.646  0.4405  1.5238 -0.2357
 6795TIP3   OH220348   4.074   4.928   5.660  0.0566  0.0882  0.6197
 6795TIP3    H120349   4.128   4.856   5.626 -0.1709  0.5119 -0.7216
 6795TIP3    H220350   4.046   4.898   5.746  1.5019 -0.6271  0.8880
 6796TIP3   OH220351   0.960   0.797   0.724  0.3866 -0.0545 -0.4029
 6796TIP3    H120352   0.933   0.715   0.765 -0.3437  0.1495 -0.4667
 6796TIP3    H220353   0.925   0.865   0.782 -0.3049  0.2271 -1.1433
 6797TIP3   OH220354   6.027   1.330   4.853 -0.6679  0.7854  0.4000
 6797TIP3    H120355   6.111   1.302   4.817 -0.3660  0.4341  1.3377
 6797TIP3    H220356   6.043   1.339   4.947 -2.5735 -2.9572  1.2789
 6798TIP3   OH220357   1.276   6.480   4.304 -0.4279 -0.5811  0.1830
 6798TIP3    H120358   1.289   6.389   4.330  0.6129 -0.9747 -1.5133
 6798TIP3    H220359   1.365   6.515   4.294 -0.8045  0.3837  0.0778
 6799TIP3   OH220360   6.693   2.472   0.850  0.0012 -0.1786  0.1402
 6799TIP3    H120361   6.717   2.546   0.795  0.9702 -1.0167 -0.6088
 6799TIP3    H220362   6.695   2.506   0.940  1.2671  0.5051 -0.1194
 6800TIP3   OH220363   3.771   2.838   1.633  0.0958  0.6683 -0.4957
 6800TIP3    H120364   3.696   2.809   1.685 -0.6684  0.9235 -1.4332
 6800TIP3    H220365   3.767   2.934   1.635  1.1503  0.7131  0.4994
 6801TIP3   OH220366   4.435   3.343   1.700  0.2439 -0.2454  0.1885
 6801TIP3    H120367   4.353   3.386   1.675  1.2683  0.8349 -1.4537
 6801TIP3    H220368   4.440   3.354   1.795  0.0705  2.6013 -0.0670
 6802TIP3   OH220369   3.624   0.892   2.496  0.2080 -0.1702 -0.2423
 6802TIP3    H120370   3.645   0.820   2.556 -0.3611 -0.1267  0.0158
 6802TIP3    H220371   3.678   0.965   2.526 -0.4885  0.0270  0.5923
 6803TIP3   OH220372   7.087   0.754   3.872  0.2036  0.5778  0.2079
 6803TIP3    H120373   7.150   0.826   3.874 -0.4855  1.2247 -0.5177
 6803TIP3    H220374   7.086   0.721   3.962  2.0843  0.0780  0.0974
 6804TIP3   OH220375   0.658   3.282   0.696  0.0146 -0.4195  0.0834
 6804TIP3    H120376   0.721   3.312   0.631 -0.4967  0.4959 -0.0211
 6804TIP3    H220377   0.708   3.277   0.778  0.4250 -0.5770 -0.1763
 6805TIP3   OH220378   6.448   5.152   4.052  0.3758 -0.5583 -0.2843
 6805TIP3    H120379   6.499   5.123   3.976  1.3876  0.2412  0.0576
 6805TIP3    H220380   6.478   5.242   4.068 -0.2215 -0.5192  0.7213
 6806TIP3   OH220381   3.412   2.054   5.894  0.1683  0.0384 -0.5565
 6806TIP3    H120382   3.442   1.967   5.868 -1.5390 -0.8628  0.3076
 6806TIP3    H220383   3.458   2.114   5.835  2.2505 -1.3192 -0.4317
 6807TIP3   OH220384   1.792   6.156   2.859  0.1633 -0.1444  0.2071
 6807TIP3    H120385   1.830   6.235   2.899  0.7885 -0.8056  0.9351
 6807TIP3    H220386   1.704   6.184   2.831  0.7665  1.1055 -0.5454
 6808TIP3   OH220387   3.625   3.662   0.615 -0.2656  0.0213 -0.5495
 6808TIP3    H120388   3.562   3.593   0.636 -0.5616  0.0921 -1.1815
 6808TIP3    H220389   3.616   3.675   0.521 -1.8255  2.4927 -0.1464
 6809TIP3   OH220390   4.745   2.688   0.320 -0.2232  0.9616 -0.0775
 6809TIP3    H120391   4.651   2.677   0.339 -0.0283 -0.9058  0.0478
 6809TIP3    H220392   4.784   2.707   0.405 -0.0078 -2.4235  0.7179
 6810TIP3   OH220393   6.262   5.154   1.959  0.3120  0.0520  0.5149
 6810TIP3    H120394   6.246   5.090   2.028  1.6303  1.5933  2.3609
 6810TIP3    H220395   6.220   5.234   1.989 -3.3537 -0.3117 -2.8174
 6811TIP3   OH220396   2.016   1.437   1.520 -0.0111 -0.0577  0.1393
 6811TIP3    H120397   2.051   1.395   1.599  0.9960 -4.6054 -2.3594
 6811TIP3    H220398   1.922   1.417   1.522  0.3875 -2.3283 -0.8017
 6812TIP3   OH220399   3.306   3.897   0.981  0.4496  0.6160  0.1641
 6812TIP3    H120400   3.308   3.878   0.888  0.1160  0.9020  0.0983
 6812TIP3    H220401   3.333   3.988   0.988 -1.1482  1.1125  0.1986
 6813TIP3   OH220402   1.360   4.740   0.799 -0.1854 -0.0218  0.1177
 6813TIP3    H120403   1.376   4.768   0.709 -0.2641 -0.3395  0.0042
 6813TIP3    H220404   1.299   4.667   0.791 -1.7984  1.2364  0.5601
 6814TIP3   OH220405   4.901   1.193   4.906  0.2617 -0.1898  0.1250
 6814TIP3    H120406   4.945   1.268   4.947 -0.0023  0.3271 -0.5051
 6814TIP3    H220407   4.938   1.117   4.950  0.5562  0.3091  0.7688
 6815TIP3   OH220408   4.818   0.029   4.152 -0.4237  0.1525 -0.0837
 6815TIP3    H120409   4.770  -0.006   4.076 -1.6379  0.0162  0.7128
 6815TIP3    H220410   4.857   0.110   4.120  0.1709 -0.5397 -1.2025
 6816TIP3   OH220411   6.141   3.677   5.571  0.0468 -0.5512 -0.1048
 6816TIP3    H120412   6.083   3.611   5.535 -0.4054 -1.0472  1.4846
 6816TIP3    H220413   6.106   3.760   5.540  1.4672 -1.0221 -3.3624
 6817TIP3   OH220414   5.771   6.364   0.040 -0.0606  0.4255 -0.5451
 6817TIP3    H120415   5.759   6.276   0.004 -0.7185 -0.4108  1.5884
 6817TIP3    H220416   5.684   6.402   0.038 -0.3766 -0.1295  1.3102
 6818TIP3   OH220417   1.688   2.904   0.805  0.3836  0.2267  0.4003
 6818TIP3    H120418   1.641   2.946   0.733  0.3570 -1.6590 -0.7427
 6818TIP3    H220419   1.637   2.926   0.883 -0.3491  1.1792 -0.3258
 6819TIP3   OH220420   0.287   2.401   3.337 -0.1704  0.2827  0.3170
 6819TIP3    H120421   0.295   2.381   3.243 -0.9089  0.0565  0.2903
 6819TIP3    H220422   0.377   2.414   3.367  0.1149 -0.1839 -0.3070
 6820TIP3   OH220423   4.181   5.746   3.873 -0.0654  0.0921 -0.5023
 6820TIP3    H120424   4.091   5.778   3.874 -0.4387 -0.9261 -0.5120
 6820TIP3    H220425   4.215   5.765   3.960 -0.6265 -0.4553 -0.1644
 6821TIP3   OH220426   5.554   2.233   2.427  0.2579  0.1617 -0.5436
 6821TIP3    H120427   5.460   2.219   2.413  0.1285  0.7668 -0.3325
 6821TIP3    H220428   5.593   2.146   2.420 -0.6024 -0.4591  1.6688
 6822TIP3   OH220429   1.601   4.921   2.344  0.1498  0.4164 -0.4381
 6822TIP3    H120430   1.505   4.913   2.346  0.1274  0.8042  1.2363
 6822TIP3    H220431   1.631   4.871   2.420  1.4461 -1.2102 -1.9128
 6823TIP3   OH220432   4.782   6.216   0.083 -0.3865 -0.5848  0.1022
 6823TIP3    H120433   4.765   6.282   0.151  0.4297 -0.8135  0.5331
 6823TIP3    H220434   4.803   6.137   0.131  2.3274 -0.2209 -0.3603
 6824TIP3   OH220435   4.055   4.785   0.598 -0.0844  0.7157 -0.4430
 6824TIP3    H120436   4.078   4.793   0.691 -2.3691  3.0495  0.0689
 6824TIP3    H220437   4.002   4.706   0.593  3.0312 -1.5459 -0.6012
 6825TIP3   OH220438   4.476   5.569   3.366  0.5399 -0.4731 -0.3997
 6825TIP3    H120439   4.531   5.647   3.371 -0.1368 -0.0079 -0.0740
 6825TIP3    H220440   4.394   5.595   3.408  0.7714 -1.7838  0.9147
 6826TIP3   OH220441   6.931   3.968   2.417  0.7861 -0.2208 -0.0762
 6826TIP3    H120442   6.909   3.943   2.328  1.7737 -0.7150 -0.1999
 6826TIP3    H220443   6.971   4.054   2.409  1.1026 -0.3715 -0.1501
 6827TIP3   OH220444   5.122   5.547   5.010  0.4564 -0.2323  0.1503
 6827TIP3    H120445   5.053   5.614   5.012  0.8406  0.1641  0.3078
 6827TIP3    H220446   5.116   5.510   4.922  0.6940  0.5029 -0.1907
 6828TIP3   OH220447   2.726   1.935   3.392 -0.1267  0.2221 -0.0396
 6828TIP3    H120448   2.659   1.869   3.372 -0.0208  0.6114 -1.8523
 6828TIP3    H220449   2.676   2.017   3.403 -0.0236  0.3970 -0.7988
 6829TIP3   OH220450   2.468   0.526   0.077  0.0768 -0.4663 -0.0059
 6829TIP3    H120451   2.410   0.521   0.001  1.0117 -0.8170 -0.7211
 6829TIP3    H220452   2.430   0.465   0.140  1.0704 -2.7487 -1.4778
 6830TIP3   OH220453   5.891   4.491   2.775  0.2931 -0.5558  0.1203
 6830TIP3    H120454   5.927   4.445   2.699 -1.8708 -1.4436 -0.4289
 6830TIP3    H220455   5.857   4.422   2.832 -1.3165  0.2258  0.1715
 6831TIP3   OH220456   6.144   4.600   2.374  0.5224  0.5556  0.8145
 6831TIP3    H120457   6.125   4.676   2.319  0.3408  0.4257  0.6958
 6831TIP3    H220458   6.189   4.539   2.316 -0.9470 -0.1849  0.3948
 6832TIP3   OH220459   1.387   4.445   4.290  0.8262  0.2544  0.2121
 6832TIP3    H120460   1.415   4.502   4.361  0.4048 -0.0222  0.6019
 6832TIP3    H220461   1.378   4.504   4.215 -0.9191  0.9722  0.9351
 6833TIP3   OH220462   6.108   2.849   2.494 -0.2532  0.5741 -0.1993
 6833TIP3    H120463   6.203   2.858   2.508 -0.0756 -1.5097  0.2668
 6833TIP3    H220464   6.069   2.870   2.579 -0.3783  3.0495 -0.8147
 6834TIP3   OH220465   5.887   1.920   2.308  0.7325  0.1717 -0.5253
 6834TIP3    H120466   5.943   1.871   2.247 -2.5866 -0.3459 -3.5207
 6834TIP3    H220467   5.911   2.011   2.294  1.9493 -0.1127 -0.4336
 6835TIP3   OH220468   1.856   0.987   3.382  0.0607  0.0289 -0.7671
 6835TIP3    H120469   1.893   0.935   3.453  0.3394  0.0948 -0.8622
 6835TIP3    H220470   1.766   0.956   3.374 -0.3338  0.8188  0.3867
 6836TIP3   OH220471   6.599   2.258   3.589 -0.1392 -0.3908  0.1778
 6836TIP3    H120472   6.620   2.204   3.665 -2.3154 -1.1247  0.3056
 6836TIP3    H220473   6.600   2.198   3.515  1.3694  0.2084 -0.3232
 6837TIP3   OH220474   5.708   0.621   4.630  0.7614 -0.2405  0.3307
 6837TIP3    H120475   5.639   0.644   4.567  0.6398  0.2741  0.6500
 6837TIP3    H220476   5.771   0.693   4.623 -0.5546  1.2986  2.7408
 6838TIP3   OH220477   4.519   1.486   3.508 -0.2803 -0.0666 -0.0616
 6838TIP3    H120478   4.485   1.537   3.434  0.0326 -0.5707 -0.5648
 6838TIP3    H220479   4.600   1.447   3.474  0.9776  1.3324  1.1836
 6839TIP3   OH220480   4.065   1.956   3.312 -0.0401  0.6942  0.3975
 6839TIP3    H120481   4.101   2.043   3.296 -0.8310  0.9771  0.1049
 6839TIP3    H220482   4.140   1.904   3.344  0.1613  1.8035  1.7920
 6840TIP3   OH220483   1.859   5.840   3.582 -0.1040 -0.4656 -0.1967
 6840TIP3    H120484   1.816   5.796   3.656  0.4025  0.2642  0.5538
 6840TIP3    H220485   1.931   5.783   3.558  0.8478  0.1388  1.0881
 6841TIP3   OH220486   2.457   3.670   1.325 -0.4832  0.3668  0.1064
 6841TIP3    H120487   2.465   3.667   1.229 -0.3663  1.1213  0.0883
 6841TIP3    H220488   2.544   3.646   1.357 -0.5195  0.1227  0.0284
 6842TIP3   OH220489   3.784   4.571   1.990 -0.1693  0.7767  1.0233
 6842TIP3    H120490   3.826   4.591   1.907  0.1734  1.5051  1.3691
 6842TIP3    H220491   3.732   4.492   1.972  0.9114  0.1673  0.4512
 6843TIP3   OH220492   3.743   6.773   4.045 -0.3058  0.6613 -0.4389
 6843TIP3    H120493   3.733   6.707   4.115  2.4008 -0.4123 -0.9161
 6843TIP3    H220494   3.686   6.742   3.975 -0.3034 -0.2948 -0.0408
 6844TIP3   OH220495   4.778   6.593   2.912  0.1745  0.0817 -0.4431
 6844TIP3    H120496   4.744   6.679   2.887  1.4150  0.5930 -0.4383
 6844TIP3    H220497   4.788   6.546   2.830 -1.3017 -0.3919 -0.3837
 6845TIP3   OH220498   1.984   6.329   3.371  0.0479 -0.3193 -0.4479
 6845TIP3    H120499   1.929   6.407   3.385 -0.0323 -0.4860  0.1460
 6845TIP3    H220500   1.974   6.311   3.277  1.4091  1.3930 -0.9982
 6846TIP3   OH220501   3.936   4.319   0.477  0.2023  0.2958  0.0614
 6846TIP3    H120502   3.853   4.283   0.445  0.3870 -0.4060  0.3369
 6846TIP3    H220503   3.913   4.405   0.511 -0.2109  0.5554 -0.8443
 6847TIP3   OH220504   3.295   1.567   5.506 -0.0866  0.7028 -0.2460
 6847TIP3    H120505   3.207   1.581   5.471 -0.5121  0.3721  0.6810
 6847TIP3    H220506   3.284   1.501   5.574  0.9046  0.5585 -0.2085
 6848TIP3   OH220507   4.914   1.789   3.106  0.3565  0.0812 -0.4404
 6848TIP3    H120508   4.956   1.730   3.169 -0.0974 -0.7758 -0.9251
 6848TIP3    H220509   4.910   1.874   3.152  2.2310  0.0956 -0.2487
 6849TIP3   OH220510   3.723   2.119   1.566  0.2793 -0.1239  0.1772
 6849TIP3    H120511   3.790   2.065   1.523  2.1788  1.3447  1.1795
 6849TIP3    H220512   3.765   2.153   1.645 -0.9035  2.5731 -0.2314
 6850TIP3   OH220513   2.315   2.602   4.872  0.4232 -0.0785  0.8985
 6850TIP3    H120514   2.221   2.585   4.867  0.6452 -1.0079 -1.3199
 6850TIP3    H220515   2.354   2.519   4.900  0.7401 -0.4693 -0.6032
 6851TIP3   OH220516   1.448   5.007   1.912  0.3627 -0.7323  0.4560
 6851TIP3    H120517   1.367   5.043   1.875  0.8363 -1.1161 -1.0234
 6851TIP3    H220518   1.442   5.027   2.005 -0.1380  1.7046 -0.0292
 6852TIP3   OH220519   7.189   4.000   1.967 -0.1032  0.7978 -0.3741
 6852TIP3    H120520   7.218   4.064   1.902  0.9195  0.4954 -0.2376
 6852TIP3    H220521   7.114   4.042   2.009 -0.0411  1.5008 -0.9354
 6853TIP3   OH220522   5.687   6.652   0.590  0.7674  0.2302  0.0341
 6853TIP3    H120523   5.779   6.634   0.570  0.8864 -2.1608  2.1997
 6853TIP3    H220524   5.639   6.604   0.523  1.1065  0.1832 -0.1779
 6854TIP3   OH220525   5.475   0.841   4.988  0.4816  0.0519  0.1187
 6854TIP3    H120526   5.431   0.914   5.033  0.8843  0.2256  0.2295
 6854TIP3    H220527   5.508   0.786   5.059 -0.5695 -0.7057  0.0478
 6855TIP3   OH220528   0.609   6.313   3.176  0.0834  0.2693 -0.0305
 6855TIP3    H120529   0.604   6.301   3.082 -0.4710 -0.7119  0.1092
 6855TIP3    H220530   0.576   6.231   3.213  0.5020  0.5468  1.0176
 6856TIP3   OH220531   0.869   0.252   5.220  0.4655  0.4505  0.0838
 6856TIP3    H120532   0.792   0.292   5.261 -1.9966 -3.3968 -0.2061
 6856TIP3    H220533   0.870   0.288   5.131 -0.9280  0.7725  0.1649
 6857TIP3   OH220534   3.657   0.616   3.657  0.0619  0.5602 -0.2147
 6857TIP3    H120535   3.580   0.645   3.706 -0.9742 -1.5033 -0.5047
 6857TIP3    H220536   3.626   0.602   3.568  0.7076 -0.4798 -0.2969
 6858TIP3   OH220537   6.082   0.540   1.696 -0.5959  0.0497 -0.0530
 6858TIP3    H120538   6.147   0.475   1.667 -0.7670 -0.4912  0.7398
 6858TIP3    H220539   6.000   0.512   1.655 -0.3223  0.8087 -1.1620
 6859TIP3   OH220540   1.210   3.502   5.347 -0.4027  0.4462  0.0460
 6859TIP3    H120541   1.295   3.459   5.351 -0.4516  0.4347  1.0301
 6859TIP3    H220542   1.216   3.558   5.269 -0.6036 -1.8639 -1.7581
 6860TIP3   OH220543   3.073   3.156   4.369 -0.4049 -0.6638 -0.1554
 6860TIP3    H120544   3.014   3.089   4.332 -0.0090 -1.3086  0.3589
 6860TIP3    H220545   3.133   3.176   4.297 -1.1084 -0.1678 -0.6108
 6861TIP3   OH220546   2.983   3.888   2.438 -0.5031  0.3879 -0.6907
 6861TIP3    H120547   3.066   3.850   2.409  1.6148  2.5639  1.9720
 6861TIP3    H220548   2.965   3.845   2.521 -0.9728  1.3696 -0.2801
 6862TIP3   OH220549   0.436   6.827   4.490  0.4292  0.1934 -0.4194
 6862TIP3    H120550   0.452   6.744   4.534 -2.2030 -0.8902 -1.3138
 6862TIP3    H220551   0.421   6.804   4.398 -3.8049  1.0222 -0.1550
 6863TIP3   OH220552   5.355   0.191   3.864  0.6116 -0.1265  0.0636
 6863TIP3    H120553   5.401   0.168   3.784  1.9376 -1.3224  1.1204
 6863TIP3    H220554   5.277   0.239   3.834  0.5075 -1.4474 -1.9607
 6864TIP3   OH220555   2.949   5.735   3.901 -0.9891 -0.4667 -0.3593
 6864TIP3    H120556   2.997   5.759   3.821 -2.5382  1.2481 -0.8562
 6864TIP3    H220557   3.014   5.744   3.971  0.2278 -1.3639 -1.3165
 6865TIP3   OH220558   1.743   5.137   4.073 -0.7127 -0.8111  0.3274
 6865TIP3    H120559   1.762   5.142   3.980  0.2677 -0.2695  0.5513
 6865TIP3    H220560   1.799   5.203   4.114  0.6768 -2.6227  1.5661
 6866TIP3   OH220561   2.933   0.441   4.502  0.3323 -0.3729  0.1600
 6866TIP3    H120562   3.018   0.402   4.523  0.8769  1.9495  2.9129
 6866TIP3    H220563   2.947   0.485   4.418  0.9897 -2.1418 -0.7266
 6867TIP3   OH220564   4.945   5.422   0.185 -0.2322 -0.3775 -0.3951
 6867TIP3    H120565   4.880   5.352   0.189  0.4860 -1.2772 -2.7325
 6867TIP3    H220566   4.990   5.408   0.101  1.3527  1.6441  0.0430
 6868TIP3   OH220567   0.287   0.312   1.241 -0.8375  0.2538  0.2162
 6868TIP3    H120568   0.295   0.274   1.153 -2.4669 -0.1540  0.2193
 6868TIP3    H220569   0.295   0.237   1.300 -2.4004  0.1205  0.2881
 6869TIP3   OH220570   2.046   5.991   2.854  0.0771  0.3709 -0.3252
 6869TIP3    H120571   1.970   6.044   2.876  0.2118  1.0976 -1.5207
 6869TIP3    H220572   2.027   5.957   2.766  0.9480  0.2167 -0.4655
 6870TIP3   OH220573   5.726   3.369   4.583  0.1186 -0.5313  0.3169
 6870TIP3    H120574   5.752   3.321   4.661 -0.0867  0.4204  0.9867
 6870TIP3    H220575   5.671   3.440   4.616  1.1416  0.7033 -0.5425
 6871TIP3   OH220576   5.654   3.122   5.337  0.1815  0.3142 -0.8273
 6871TIP3    H120577   5.596   3.169   5.277  0.5556  0.2647 -1.2330
 6871TIP3    H220578   5.710   3.190   5.375 -0.0767  0.3501 -0.5037
 6872TIP3   OH220579   4.542   5.241   2.417 -0.0939  0.0134  0.3707
 6872TIP3    H120580   4.569   5.150   2.408  0.9509  0.2202  1.2212
 6872TIP3    H220581   4.623   5.290   2.428 -0.7299  0.6993  2.7766
 6873TIP3   OH220582   0.389   2.974   5.588  0.5447  0.5452 -0.0759
 6873TIP3    H120583   0.476   3.008   5.608  0.0413  1.3338  0.8582
 6873TIP3    H220584   0.338   3.051   5.562 -0.5774  0.5484  1.9370
 6874TIP3   OH220585   6.329   2.401   0.506  0.0585  0.0969 -0.0527
 6874TIP3    H120586   6.319   2.348   0.426 -0.0370  1.2577 -0.8346
 6874TIP3    H220587   6.408   2.366   0.547  1.1174  0.5962 -1.5680
 6875TIP3   OH220588   0.636   1.504   2.384 -0.2427  0.2243 -0.2935
 6875TIP3    H120589   0.689   1.495   2.463 -1.0135 -0.3532  0.1719
 6875TIP3    H220590   0.700   1.506   2.313  0.4282  0.0185  0.2896
 6876TIP3   OH220591   0.973   5.988   4.914  0.5571  0.2097 -0.7514
 6876TIP3    H120592   1.053   6.016   4.871  1.5368 -2.2263 -0.6729
 6876TIP3    H220593   1.001   5.917   4.973 -1.2646  1.0641  1.2622
 6877TIP3   OH220594   5.717   3.332   0.925  0.2719 -0.7779  0.5065
 6877TIP3    H120595   5.786   3.306   0.985  1.0937 -0.5145 -0.2995
 6877TIP3    H220596   5.761   3.344   0.841 -0.4472  0.9979  0.3237
 6878TIP3   OH220597   2.832   4.238   2.216 -0.1408  0.5440 -0.3130
 6878TIP3    H120598   2.903   4.239   2.280  0.6037 -1.6363 -1.0008
 6878TIP3    H220599   2.762   4.189   2.260  0.2644 -0.7029 -1.0073
 6879TIP3   OH220600   3.346   5.387   3.636  0.1097 -0.2152  0.0892
 6879TIP3    H120601   3.285   5.397   3.709  0.5122 -0.5513  0.4757
 6879TIP3    H220602   3.427   5.357   3.676  0.9131  1.3432 -0.2649
 6880TIP3   OH220603   4.413   2.020   1.025  0.5328  0.2352  0.5936
 6880TIP3    H120604   4.392   2.055   1.112 -1.1592  1.0416 -0.0743
 6880TIP3    H220605   4.507   2.033   1.015  0.9423 -0.7784  2.6622
 6881TIP3   OH220606   4.604   4.338   4.731  0.1976 -0.0466 -0.0706
 6881TIP3    H120607   4.523   4.388   4.740 -0.3696 -0.9808  0.1706
 6881TIP3    H220608   4.593   4.264   4.790  1.6382  0.3039  0.6938
 6882TIP3   OH220609   2.596   6.316   4.923  0.3986 -0.1772  0.1705
 6882TIP3    H120610   2.535   6.310   4.996  0.8752 -1.8788  0.4776
 6882TIP3    H220611   2.644   6.397   4.938 -1.0898  0.6646  0.4647
 6883TIP3   OH220612   5.241   0.060   5.619  0.2880 -0.1798 -0.0080
 6883TIP3    H120613   5.169   0.121   5.636  0.0557 -0.9529  2.0094
 6883TIP3    H220614   5.216   0.015   5.539 -2.2046 -1.3992  1.3613
 6884TIP3   OH220615   1.951   0.707   2.594 -0.6011  0.0665  0.1926
 6884TIP3    H120616   1.939   0.616   2.565  0.8126  0.5267 -2.0639
 6884TIP3    H220617   1.867   0.749   2.579 -0.9703 -0.6255  0.2889
 6885TIP3   OH220618   4.872   3.354   3.121  0.2137 -0.1154 -0.2469
 6885TIP3    H120619   4.827   3.437   3.108  0.3943 -0.1577 -1.2746
 6885TIP3    H220620   4.838   3.297   3.051  0.9071 -0.5473 -0.2457
 6886TIP3   OH220621   5.048   5.673   2.812 -0.2008  0.0574  0.0055
 6886TIP3    H120622   5.059   5.663   2.718  0.7180  1.8720 -0.1346
 6886TIP3    H220623   5.015   5.763   2.823 -0.3148 -0.1313  1.4064
 6887TIP3   OH220624   6.107   4.361   3.229  0.4288  0.0742  0.3059
 6887TIP3    H120625   6.017   4.331   3.244  0.3833 -1.1778 -1.9810
 6887TIP3    H220626   6.100   4.456   3.224 -0.8453 -0.0189 -0.1735
 6888TIP3   OH220627   3.208   2.364   3.552  0.0381 -0.6671 -0.6376
 6888TIP3    H120628   3.172   2.452   3.541 -0.9532 -0.8045  1.0824
 6888TIP3    H220629   3.255   2.368   3.635 -0.3896 -1.8549 -0.3172
 6889TIP3   OH220630   4.813   6.224   5.467 -0.0329 -0.2675 -0.3710
 6889TIP3    H120631   4.749   6.201   5.534 -1.8945 -2.8577 -2.7661
 6889TIP3    H220632   4.837   6.140   5.427  1.8012  1.0288 -2.2075
 6890TIP3   OH220633   3.803   5.750   0.577 -0.1530  0.0676 -0.4668
 6890TIP3    H120634   3.770   5.839   0.584  1.0105  0.5219 -0.4749
 6890TIP3    H220635   3.865   5.753   0.504 -0.3490 -0.8261 -0.6788
 6891TIP3   OH220636   2.012   3.386   4.237 -0.3361  0.3432  0.0135
 6891TIP3    H120637   2.049   3.300   4.220 -0.8601  0.1913 -0.3979
 6891TIP3    H220638   1.971   3.379   4.322 -3.5132 -0.9327 -1.4774
 6892TIP3   OH220639   1.505   2.687   4.984  0.4078 -0.2542 -0.1351
 6892TIP3    H120640   1.505   2.724   5.073 -1.4982 -0.3293 -0.0690
 6892TIP3    H220641   1.419   2.648   4.975  0.5388 -0.1584 -2.0762
 6893TIP3   OH220642   3.686   0.165   1.982  0.6580  0.2465  0.6705
 6893TIP3    H120643   3.622   0.235   1.970  0.8512  0.6613  1.8706
 6893TIP3    H220644   3.640   0.099   2.034  1.2573  0.6623  1.7633
 6894TIP3   OH220645   5.180   3.441   1.752  0.3146  0.5498 -0.5584
 6894TIP3    H120646   5.085   3.431   1.748  0.4904 -1.0283 -2.6981
 6894TIP3    H220647   5.213   3.352   1.747  1.9416  1.0410  0.6856
 6895TIP3   OH220648   5.712   3.274   1.489 -0.1585 -0.8199 -0.0255
 6895TIP3    H120649   5.633   3.228   1.518 -0.6522 -0.5733 -0.9550
 6895TIP3    H220650   5.781   3.207   1.493 -0.9731 -1.8610 -1.9056
 6896TIP3   OH220651   5.180   0.859   1.465  0.1010 -0.2081 -0.0722
 6896TIP3    H120652   5.153   0.803   1.537  0.3904 -0.5086 -0.1929
 6896TIP3    H220653   5.236   0.803   1.411  1.0673  0.4310  0.2347
 6897TIP3   OH220654   5.845   1.364   5.903  0.3719 -0.0585  0.4065
 6897TIP3    H120655   5.757   1.334   5.878 -0.2250  0.1043  2.1517
 6897TIP3    H220656   5.904   1.314   5.847 -0.8020 -0.7989 -0.2201
 6898TIP3   OH220657   6.314   5.942   1.919  0.1423 -0.1147 -0.9535
 6898TIP3    H120658   6.233   5.990   1.929  0.8135  1.1947 -1.5636
 6898TIP3    H220659   6.378   6.007   1.889  1.3954 -1.1189 -0.5851
 6899TIP3   OH220660   5.188   0.983   1.172  0.2169  0.1949 -0.5966
 6899TIP3    H120661   5.100   1.005   1.202  1.0085 -0.0491  2.2022
 6899TIP3    H220662   5.196   0.889   1.188  0.8131  0.1134 -1.3277
 6900TIP3   OH220663   3.566   4.700   2.695 -0.0449  0.3458  0.8061
 6900TIP3    H120664   3.567   4.676   2.602  2.0578  1.0706  0.5961
 6900TIP3    H220665   3.650   4.670   2.729 -1.0934 -0.6215  2.7182
 6901TIP3   OH220666   0.444   2.642   0.049  0.2174  0.0252 -0.1811
 6901TIP3    H120667   0.461   2.550   0.069  0.5407  0.3038  0.9393
 6901TIP3    H220668   0.349   2.649   0.041  0.0583 -0.1577  1.2185
 6902TIP3   OH220669   3.919   1.995   1.080 -0.2977 -0.2838  0.0487
 6902TIP3    H120670   3.882   1.907   1.065  0.3400 -0.8947  1.7758
 6902TIP3    H220671   4.001   1.995   1.032 -0.4508 -0.5246 -0.2178
 6903TIP3   OH220672   0.787   2.620   1.147 -0.6007  0.0052  0.4497
 6903TIP3    H120673   0.832   2.629   1.231 -0.7765 -1.8427  0.8007
 6903TIP3    H220674   0.731   2.543   1.159  0.1710 -0.9714 -1.6742
 6904TIP3   OH220675   5.993   5.576   3.725 -0.8112 -0.5940  0.0752
 6904TIP3    H120676   6.003   5.498   3.671 -0.2334  0.4501 -1.3792
 6904TIP3    H220677   5.912   5.616   3.693 -0.6162 -0.1100  0.1888
 6905TIP3   OH220678   3.227   3.464   4.468 -0.5430  0.1006  0.4340
 6905TIP3    H120679   3.242   3.472   4.374 -0.6703 -1.7420  0.2113
 6905TIP3    H220680   3.145   3.511   4.484 -0.3000  0.7837 -0.2878
 6906TIP3   OH220681   3.861   6.629   5.213 -0.6213  0.3417 -0.4935
 6906TIP3    H120682   3.936   6.659   5.161 -0.0864 -0.8911 -0.4704
 6906TIP3    H220683   3.863   6.685   5.291  1.2696 -0.6928  0.2754
 6907TIP3   OH220684   5.782   4.117   2.391  0.0393 -0.0219 -0.1716
 6907TIP3    H120685   5.706   4.114   2.333  0.4962 -1.4524 -0.7380
 6907TIP3    H220686   5.847   4.170   2.343  0.1832 -0.6612 -0.7042
 6908TIP3   OH220687   6.387   4.590   2.941  0.2476 -0.2705  0.0384
 6908TIP3    H120688   6.404   4.540   2.861  0.4918 -1.0577  0.5654
 6908TIP3    H220689   6.437   4.671   2.929  1.6343 -1.0807  0.0821
 6909TIP3   OH220690   4.942   4.346   1.024 -0.1866 -0.4744  0.2749
 6909TIP3    H120691   4.980   4.414   0.968  1.2879  0.2093  1.9943
 6909TIP3    H220692   4.908   4.281   0.963  0.6261  0.6032 -1.4080
 6910TIP3   OH220693   4.626   0.466   2.666  0.8044 -0.1094 -0.2173
 6910TIP3    H120694   4.549   0.409   2.661 -0.7148  1.9160 -1.2871
 6910TIP3    H220695   4.657   0.455   2.756 -1.2687 -0.3622  0.5352
 6911TIP3   OH220696   3.248   2.889   5.553 -0.6232  0.4305 -0.0316
 6911TIP3    H120697   3.207   2.815   5.508  4.2031 -2.9093  0.2982
 6911TIP3    H220698   3.245   2.865   5.646  2.1754 -0.2988 -0.0235
 6912TIP3   OH220699   2.787   0.323   3.909  0.0612  0.3810  0.2792
 6912TIP3    H120700   2.847   0.397   3.900 -1.3606  1.6053  0.4857
 6912TIP3    H220701   2.749   0.333   3.996  0.1674 -0.8721  0.4930
 6913TIP3   OH220702   3.512   5.111   3.562 -0.0672  0.1719  0.2486
 6913TIP3    H120703   3.552   5.190   3.601  1.1181 -0.2707 -0.0465
 6913TIP3    H220704   3.496   5.053   3.637  1.3257 -0.2881  0.2079
 6914TIP3   OH220705   5.532   0.292   5.554  0.4679  0.5674 -0.3166
 6914TIP3    H120706   5.610   0.237   5.548  0.5824  0.7463 -0.5001
 6914TIP3    H220707   5.498   0.277   5.642  0.2335 -0.1564 -0.5265
 6915TIP3   OH220708   3.424   4.268   0.169 -0.3108 -0.6987  0.1848
 6915TIP3    H120709   3.482   4.304   0.236  1.4731  0.2982 -1.7497
 6915TIP3    H220710   3.440   4.173   0.171  0.6340 -0.5462  0.3882
 6916TIP3   OH220711   5.904   1.225   3.325  0.5171  0.3563  0.4491
 6916TIP3    H120712   5.886   1.318   3.316 -0.1028  0.1570 -0.4576
 6916TIP3    H220713   5.969   1.220   3.396  0.4237  1.4499  0.6276
 6917TIP3   OH220714   5.152   1.512   4.525  0.1252  0.1433  0.2091
 6917TIP3    H120715   5.208   1.554   4.591  0.5081 -0.7525  0.4711
 6917TIP3    H220716   5.063   1.530   4.555  0.2927 -0.7749  1.3426
 6918TIP3   OH220717   6.999   5.290   0.132  0.0847 -0.4327  0.7210
 6918TIP3    H120718   7.058   5.216   0.120  0.4286  0.0663 -1.0420
 6918TIP3    H220719   7.040   5.342   0.202 -0.1729 -1.8798  1.9771
 6919TIP3   OH220720   6.019   2.116   3.335  0.2754 -0.5287  0.4340
 6919TIP3    H120721   6.107   2.082   3.352  0.9968  1.5063  1.0055
 6919TIP3    H220722   6.032   2.191   3.278 -0.7661  1.4382  2.5948
 6920TIP3   OH220723   5.807   4.640   3.241 -0.1139  0.4453  0.0244
 6920TIP3    H120724   5.725   4.684   3.263 -0.5410  0.9937 -2.3922
 6920TIP3    H220725   5.846   4.618   3.326 -2.4593  0.6885  1.2496
 6921TIP3   OH220726   0.983   5.811   3.006  0.1922 -0.0496 -0.2859
 6921TIP3    H120727   1.039   5.808   3.084  0.5721  0.7260 -0.5202
 6921TIP3    H220728   1.014   5.738   2.952  2.1995  1.3941 -1.2021
 6922TIP3   OH220729   5.341   0.238   5.156 -0.2600 -0.0799  0.4604
 6922TIP3    H120730   5.407   0.238   5.086 -0.0370 -0.0106  0.6691
 6922TIP3    H220731   5.371   0.304   5.218  0.8079 -1.7104  1.7849
 6923TIP3   OH220732   6.900   0.583  -0.015  0.0549 -0.0473  0.2595
 6923TIP3    H120733   6.895   0.581   0.081 -0.2478  1.0387  0.2756
 6923TIP3    H220734   6.844   0.510  -0.043  0.5383 -0.6846  0.9107
 6924TIP3   OH220735   0.148   1.296   4.523 -0.2621  0.0527  0.4474
 6924TIP3    H120736   0.242   1.308   4.538  0.0895 -1.0716 -0.6360
 6924TIP3    H220737   0.110   1.291   4.611  0.8758 -0.6689  0.9329
 6925TIP3   OH220738   2.552   6.176   2.483  0.3696 -0.1033 -0.3893
 6925TIP3    H120739   2.604   6.160   2.404  1.9741  1.1258  0.3566
 6925TIP3    H220740   2.589   6.256   2.520 -0.2885 -0.6820  1.6441
 6926TIP3   OH220741   0.183   0.844   0.830  0.1273 -0.2107  0.3363
 6926TIP3    H120742   0.188   0.766   0.775  0.7873  1.1027 -1.5703
 6926TIP3    H220743   0.091   0.869   0.828 -0.1492 -1.1204  1.2488
 6927TIP3   OH220744   3.000   6.011   0.379 -0.0879 -0.0197 -0.0470
 6927TIP3    H120745   2.989   5.976   0.291 -1.5153  0.4635 -0.0734
 6927TIP3    H220746   3.092   5.992   0.400  0.1175 -0.6625 -1.3936
 6928TIP3   OH220747   6.888   3.896   3.410 -0.0147  0.4601  0.0643
 6928TIP3    H120748   6.898   3.904   3.315 -2.0581 -2.0049 -0.4779
 6928TIP3    H220749   6.973   3.863   3.440  0.7109  1.4079 -0.8744
 6929TIP3   OH220750   4.463   4.747   5.317  0.1808 -0.0844 -0.8103
 6929TIP3    H120751   4.376   4.719   5.289 -0.3161  0.9512 -0.3443
 6929TIP3    H220752   4.493   4.677   5.375 -0.9601  0.2296  0.1944
 6930TIP3   OH220753   4.816   6.232   4.310 -0.1770 -0.5666 -0.0402
 6930TIP3    H120754   4.889   6.171   4.313  0.9490  0.7705  0.6625
 6930TIP3    H220755   4.809   6.266   4.399  2.1807  3.6122 -1.1684
 6931TIP3   OH220756   5.000   2.114   0.625 -0.2216  0.5693 -0.3630
 6931TIP3    H120757   5.080   2.088   0.580  0.5397  0.7930  0.8101
 6931TIP3    H220758   5.029   2.175   0.693 -1.6196  2.2034 -1.1562
 6932TIP3   OH220759   2.669   2.583   2.333 -0.1632  0.6296 -0.2840
 6932TIP3    H120760   2.726   2.637   2.388 -2.3235  1.2525  1.5220
 6932TIP3    H220761   2.721   2.506   2.313  1.2449  1.0592  1.4545
 6933TIP3   OH220762   6.478   2.259   2.654  0.0451 -0.0344  0.0334
 6933TIP3    H120763   6.475   2.326   2.722  0.0703 -0.7977  0.8030
 6933TIP3    H220764   6.444   2.180   2.696  0.7730 -0.7096 -0.6083
 6934TIP3   OH220765   4.264   0.443   4.136  0.1668  0.4380 -0.3218
 6934TIP3    H120766   4.243   0.437   4.043  1.2982 -1.1673 -0.5119
 6934TIP3    H220767   4.359   0.454   4.139  0.0759  1.1132  0.6429
 6935TIP3   OH220768   2.023   5.312   3.067 -0.1375  0.0406 -0.6471
 6935TIP3    H120769   2.100   5.264   3.099 -1.4442 -1.8753 -0.2354
 6935TIP3    H220770   1.950   5.252   3.079 -1.5664  1.4019 -2.0358
 6936TIP3   OH220771   5.060   6.608   2.034  0.6053  0.3036 -0.5745
 6936TIP3    H120772   5.021   6.634   1.951  1.8545  0.6503 -1.0757
 6936TIP3    H220773   5.077   6.515   2.025 -1.2519 -0.1526  0.1462
 6937TIP3   OH220774   1.751   1.049   2.737  0.2679 -0.0059 -0.3566
 6937TIP3    H120775   1.775   0.975   2.682 -1.6674 -0.9421 -0.0353
 6937TIP3    H220776   1.759   1.015   2.827  1.7402  0.9706 -0.0891
 6938TIP3   OH220777   5.172   1.361   2.818 -0.3593  0.2045  0.0513
 6938TIP3    H120778   5.091   1.374   2.868 -1.2216 -1.2332 -0.8867
 6938TIP3    H220779   5.194   1.269   2.832  1.5003  0.7311  0.8024
 6939TIP3   OH220780   6.038   0.577   0.070  0.5438  0.0543 -0.3309
 6939TIP3    H120781   6.092   0.636   0.122 -1.3947  2.6064 -1.0092
 6939TIP3    H220782   6.037   0.495   0.120  3.1459  0.6021  0.7841
 6940TIP3   OH220783   4.091   0.664   0.776 -0.1461 -0.4086 -0.0475
 6940TIP3    H120784   4.083   0.740   0.833  1.3902 -0.2471 -0.0021
 6940TIP3    H220785   4.166   0.615   0.811  0.0175 -0.9873 -1.1475
 6941TIP3   OH220786   3.107   4.362   0.409  0.0762 -0.0604 -0.2557
 6941TIP3    H120787   3.052   4.368   0.487 -1.2422  0.2690 -1.1607
 6941TIP3    H220788   3.067   4.424   0.347  0.4152 -1.1000 -1.5653
 6942TIP3   OH220789   6.211   1.180   2.339  0.0699 -0.4794  0.4908
 6942TIP3    H120790   6.182   1.126   2.265  0.4509  0.0737 -0.0758
 6942TIP3    H220791   6.221   1.268   2.302  1.0760 -0.3631  0.9981
 6943TIP3   OH220792   0.231   1.707   4.080  0.3644  0.1601  0.3678
 6943TIP3    H120793   0.183   1.726   4.160 -0.5593  0.6658 -0.2835
 6943TIP3    H220794   0.167   1.663   4.024  0.8719  0.1900 -0.2423
 6944TIP3   OH220795   5.451   6.514   1.876  0.1850 -0.9066  0.0566
 6944TIP3    H120796   5.366   6.542   1.842 -0.5810 -1.9882  1.0261
 6944TIP3    H220797   5.510   6.520   1.801 -0.9915 -1.2271 -0.9224
 6945TIP3   OH220798   3.972   4.204   3.476 -0.3689  0.1653  0.0268
 6945TIP3    H120799   3.955   4.121   3.433 -2.8774 -0.0965  1.2926
 6945TIP3    H220800   3.928   4.269   3.421  0.1377  0.4298 -0.0726
 6946TIP3   OH220801   5.961   4.831   5.871  0.3627  0.2080 -0.0427
 6946TIP3    H120802   6.051   4.845   5.899  0.4614  0.3088 -0.4069
 6946TIP3    H220803   5.917   4.914   5.888 -0.0581 -0.3041  1.5980
 6947TIP3   OH220804   4.021   4.429   4.561  0.6948 -0.4481  0.5186
 6947TIP3    H120805   4.032   4.522   4.579  2.1637 -0.5313  0.2138
 6947TIP3    H220806   4.012   4.389   4.647  1.0373 -0.1220  0.7108
 6948TIP3   OH220807   1.668   6.101   3.773 -0.2295  0.1711  0.0669
 6948TIP3    H120808   1.669   6.181   3.827 -1.0528 -0.4555  1.0537
 6948TIP3    H220809   1.744   6.110   3.716  0.2756  1.2009  0.8565
 6949TIP3   OH220810   7.074   3.049   1.430  0.3013 -0.1947  0.4298
 6949TIP3    H120811   7.134   3.105   1.381 -0.4755 -0.8629 -1.3480
 6949TIP3    H220812   7.086   3.076   1.521  0.6417  2.2166 -0.2471
 6950TIP3   OH220813   1.208   6.758   2.951  0.8828  0.0849 -0.5573
 6950TIP3    H120814   1.184   6.845   2.920  0.8466  0.0773 -0.5512
 6950TIP3    H220815   1.261   6.721   2.881  0.5697 -0.0374 -0.7337
 6951TIP3   OH220816   6.474   5.133   2.631 -0.3168 -0.1790 -0.4217
 6951TIP3    H120817   6.458   5.180   2.550  0.4320 -1.5046 -1.3834
 6951TIP3    H220818   6.569   5.126   2.636 -0.2161  1.5859  1.6225
 6952TIP3   OH220819   6.857   5.925   2.846  0.0588  0.4481  0.4545
 6952TIP3    H120820   6.815   5.842   2.824 -1.4780  1.5446 -1.0260
 6952TIP3    H220821   6.944   5.919   2.807 -0.6273  0.1395 -1.1303
 6953TIP3   OH220822   2.344   4.620   3.501 -0.0970  0.7398 -0.1095
 6953TIP3    H120823   2.350   4.600   3.594 -3.4830 -1.7075 -0.2147
 6953TIP3    H220824   2.430   4.597   3.465  0.1580 -1.8573  1.9069
 6954TIP3   OH220825   6.368   3.068   4.972  0.1580  0.2596  0.0317
 6954TIP3    H120826   6.291   3.059   5.029  0.7219 -0.4638  0.7033
 6954TIP3    H220827   6.349   3.145   4.918 -2.0196 -1.0822 -1.3278
 6955TIP3   OH220828   6.076   1.123   0.488  0.0078 -0.0734 -0.0228
 6955TIP3    H120829   6.042   1.136   0.577  0.3321  0.9857 -0.0397
 6955TIP3    H220830   6.148   1.061   0.500 -0.4674 -0.5771  0.3272
 6956TIP3   OH220831   1.781   2.980   5.809 -0.1777  0.8092  0.1755
 6956TIP3    H120832   1.876   2.986   5.796 -0.3152 -1.2574 -2.4809
 6956TIP3    H220833   1.745   2.964   5.722 -2.6018 -1.9743  1.5026
 6957TIP3   OH220834   1.405   0.151   0.806  0.5342 -0.4057 -0.1781
 6957TIP3    H120835   1.438   0.073   0.760  0.6194  0.1195 -1.0220
 6957TIP3    H220836   1.417   0.130   0.898  2.2759 -0.6692 -0.4250
 6958TIP3   OH220837   5.535   3.355   1.748 -0.0542  0.4850 -0.1965
 6958TIP3    H120838   5.471   3.426   1.756 -0.1345  0.5053 -1.0010
 6958TIP3    H220839   5.481   3.276   1.742  0.0385  0.2815  1.1681
 6959TIP3   OH220840   2.509   3.905   2.185 -0.1293 -0.7829  0.1026
 6959TIP3    H120841   2.448   3.928   2.255 -1.0014  0.4049 -1.0218
 6959TIP3    H220842   2.587   3.874   2.232 -0.2548  1.0458  1.6399
 6960TIP3   OH220843   4.548   6.203   0.727 -0.2602 -0.3341  0.1067
 6960TIP3    H120844   4.548   6.296   0.705 -0.9731 -0.8612 -2.3389
 6960TIP3    H220845   4.465   6.190   0.773  0.0510  0.2888  0.8787
 6961TIP3   OH220846   2.466   0.520   4.863  0.2256  0.3596 -0.3557
 6961TIP3    H120847   2.528   0.537   4.934 -0.3908 -0.0948  0.3178
 6961TIP3    H220848   2.465   0.424   4.854  0.0382  0.3943 -0.7395
 6962TIP3   OH220849   2.682   0.778   0.092  0.2057  0.1033  0.0546
 6962TIP3    H120850   2.644   0.809   0.174  0.2870 -1.5463  0.7437
 6962TIP3    H220851   2.640   0.694   0.076  0.0210  0.5092 -1.7425
 6963TIP3   OH220852   5.155   2.104   3.805 -0.3693  0.8783 -0.0191
 6963TIP3    H120853   5.062   2.122   3.819 -0.7677 -1.5033  1.0221
 6963TIP3    H220854   5.199   2.140   3.882 -1.0647 -1.6622  1.7116
 6964TIP3   OH220855   4.019   6.555   1.122  0.0238 -0.8884 -0.3246
 6964TIP3    H120856   4.069   6.627   1.161  1.0786 -0.7119 -1.9132
 6964TIP3    H220857   3.927   6.579   1.135  0.3587  0.0451  0.4071
 6965TIP3   OH220858   1.102   4.078   3.365 -0.0732  0.9597 -0.1634
 6965TIP3    H120859   1.118   4.090   3.459  0.9301 -0.1047 -0.1831
 6965TIP3    H220860   1.189   4.066   3.327 -0.5420  0.3963 -1.0832
 6966TIP3   OH220861   5.563   6.766   5.008 -0.0806  0.2554 -0.1413
 6966TIP3    H120862   5.480   6.773   4.959 -0.6499 -0.1318  0.7432
 6966TIP3    H220863   5.571   6.673   5.026  0.2398  0.3733  0.3161
 6967TIP3   OH220864   1.806   4.601   5.791  0.1812 -0.0379 -0.1597
 6967TIP3    H120865   1.844   4.605   5.879  0.8068 -3.0155 -0.1980
 6967TIP3    H220866   1.857   4.666   5.741  2.3987 -0.9074  0.8128
 6968TIP3   OH220867   5.277   0.594   1.987  0.3758 -0.0239  0.1795
 6968TIP3    H120868   5.265   0.606   2.082  0.1488 -0.3249  0.1905
 6968TIP3    H220869   5.247   0.504   1.971  1.7925 -0.4945  0.0647
 6969TIP3   OH220870   5.689   3.628   5.610 -0.1094 -0.3555  0.0032
 6969TIP3    H120871   5.691   3.555   5.549  2.9437  0.5222 -1.1218
 6969TIP3    H220872   5.670   3.705   5.556  3.5318  0.5697 -0.1866
 6970TIP3   OH220873   0.883   4.242   0.569 -0.0338  0.2454 -0.0748
 6970TIP3    H120874   0.958   4.275   0.520 -0.6052  0.6892 -0.6736
 6970TIP3    H220875   0.909   4.248   0.661  0.4322  0.9644 -0.2474
 6971TIP3   OH220876   4.937   1.937   5.708  0.0213  0.2214  0.3144
 6971TIP3    H120877   5.029   1.951   5.685 -0.7103  4.0170 -1.1801
 6971TIP3    H220878   4.934   1.943   5.803  1.1221  2.5975  0.2695
 6972TIP3   OH220879   2.061   1.379   2.480 -0.5210 -0.3221  0.6290
 6972TIP3    H120880   2.047   1.439   2.554  1.3646 -0.7500  1.3960
 6972TIP3    H220881   2.077   1.294   2.521  1.3371 -0.4238 -0.1872
 6973TIP3   OH220882   6.193   2.532   3.019  0.1017 -0.0388 -0.4681
 6973TIP3    H120883   6.189   2.598   2.950 -1.1174  2.0683  1.4975
 6973TIP3    H220884   6.139   2.460   2.987  1.0843  0.0473 -2.4599
 6974TIP3   OH220885   7.080   6.097   0.307  0.3738 -0.3905  0.0577
 6974TIP3    H120886   7.138   6.033   0.348 -0.3146  0.6084  2.7876
 6974TIP3    H220887   7.134   6.175   0.296  0.5571 -0.6484 -1.0907
 6975TIP3   OH220888   1.789   4.846   3.734 -0.1844  0.9715  0.5035
 6975TIP3    H120889   1.719   4.787   3.761 -0.6258  0.9425 -0.6334
 6975TIP3    H220890   1.753   4.934   3.748 -0.0847  0.9647  0.8098
 6976TIP3   OH220891   0.914   2.349   2.636  0.1584 -0.1542 -0.1630
 6976TIP3    H120892   0.821   2.332   2.648  0.3319 -1.3723 -0.4091
 6976TIP3    H220893   0.919   2.404   2.559 -0.6063  3.3589  2.0567
 6977TIP3   OH220894   2.238   1.670   5.840 -0.3348 -0.1248 -0.3098
 6977TIP3    H120895   2.186   1.725   5.898  2.2419  1.9723  0.2386
 6977TIP3    H220896   2.286   1.611   5.898  0.8931  0.7516 -0.3889
 6978TIP3   OH220897   0.060   4.012   0.709  0.6323  0.5936  0.0070
 6978TIP3    H120898   0.031   4.099   0.683  0.3568  0.8460  1.1066
 6978TIP3    H220899  -0.007   3.953   0.676 -0.1891  0.9946  0.8956
 6979TIP3   OH220900   6.283   0.385   5.480 -0.0962 -0.4443  0.3907
 6979TIP3    H120901   6.355   0.412   5.423  0.6751 -0.4424  1.3280
 6979TIP3    H220902   6.322   0.385   5.568 -1.2613 -0.4140  0.9151
 6980TIP3   OH220903   0.604   3.469   4.942  0.2508  0.3377  0.2381
 6980TIP3    H120904   0.554   3.547   4.919 -0.8650 -0.6675 -0.8643
 6980TIP3    H220905   0.650   3.445   4.861 -0.7999 -1.1240  0.0355
 6981TIP3   OH220906   2.007   0.945   2.218  0.2585  0.0117  0.7394
 6981TIP3    H120907   1.964   0.861   2.206 -0.9119  0.7817 -0.8094
 6981TIP3    H220908   2.092   0.935   2.176  0.2116 -0.4393  0.7439
 6982TIP3   OH220909   7.183   4.260   0.582  0.6271 -0.1876 -0.1990
 6982TIP3    H120910   7.137   4.214   0.652  0.5037 -0.6172 -0.5592
 6982TIP3    H220911   7.191   4.350   0.614  2.8809 -0.9097  1.5188
 6983TIP3   OH220912   6.545   1.587   3.134 -0.1619  0.4847  0.0968
 6983TIP3    H120913   6.505   1.662   3.091  0.6210  0.0259 -1.5429
 6983TIP3    H220914   6.499   1.511   3.098  1.6024 -0.0054 -1.2639
 6984TIP3   OH220915   4.655   2.594   3.581 -0.8464  0.4705  0.2856
 6984TIP3    H120916   4.610   2.667   3.624 -1.2008  0.8469 -0.7043
 6984TIP3    H220917   4.732   2.633   3.541 -1.2885  0.4017 -0.6530
 6985TIP3   OH220918   1.910   1.875   2.035 -0.3947  0.1333  0.1695
 6985TIP3    H120919   1.827   1.831   2.053 -0.8670  0.4755 -1.0744
 6985TIP3    H220920   1.976   1.818   2.075 -1.2001 -0.2711  0.9664
 6986TIP3   OH220921   0.935   3.627   2.622 -0.1635 -0.2894 -0.3639
 6986TIP3    H120922   0.867   3.669   2.675 -0.2687  0.2055 -0.8743
 6986TIP3    H220923   0.952   3.690   2.551  1.9151  0.3117  0.5813
 6987TIP3   OH220924   4.903   0.736   0.387  0.1415 -0.1339 -0.2166
 6987TIP3    H120925   4.962   0.809   0.404 -0.8292  0.2777  1.6588
 6987TIP3    H220926   4.884   0.741   0.293  0.7374  1.5252 -0.2685
 6988TIP3   OH220927   5.071   4.882   2.541  0.1723  0.1108 -0.7527
 6988TIP3    H120928   5.072   4.971   2.574 -0.7309 -1.1208  3.1783
 6988TIP3    H220929   5.162   4.852   2.549  0.6989  0.9027 -3.1078
 6989TIP3   OH220930   4.570   5.446   0.295  0.0573  0.5399 -0.0541
 6989TIP3    H120931   4.590   5.445   0.389  0.9248  1.0807 -0.2215
 6989TIP3    H220932   4.593   5.359   0.264  1.2405  0.8382 -0.0489
 6990TIP3   OH220933   0.020   5.066   2.943  0.3520  0.8434 -0.0860
 6990TIP3    H120934  -0.018   5.039   2.860 -2.3184  2.0242  0.6628
 6990TIP3    H220935   0.087   5.131   2.920 -0.7462  1.5712 -1.2913
 6991TIP3   OH220936   2.211   1.793   4.569  0.4785  0.0608 -0.4822
 6991TIP3    H120937   2.228   1.703   4.542  0.8901  0.0223 -0.1119
 6991TIP3    H220938   2.180   1.837   4.489  1.5582 -0.0735 -0.9931
 6992TIP3   OH220939   0.167   4.791   1.249  0.6091  0.0213 -0.1289
 6992TIP3    H120940   0.260   4.781   1.269  0.1608  1.1043  3.1643
 6992TIP3    H220941   0.139   4.702   1.225  2.2199 -0.5976  0.1201
 6993TIP3   OH220942   3.471   2.744   0.106 -0.4439  0.1284  0.2628
 6993TIP3    H120943   3.476   2.770   0.198  1.1944 -0.1755  0.2910
 6993TIP3    H220944   3.523   2.810   0.060 -1.0290  0.1257 -0.4165
 6994TIP3   OH220945   3.288   3.064   3.824 -0.6391  0.5400  0.4112
 6994TIP3    H120946   3.277   3.112   3.742  1.4089  1.6369  0.7381
 6994TIP3    H220947   3.199   3.056   3.858 -1.4809  0.5145 -1.6312
 6995TIP3   OH220948   3.486   3.192   3.212 -0.3499  0.0481 -0.7689
 6995TIP3    H120949   3.535   3.227   3.138 -1.5708 -0.8335 -2.0499
 6995TIP3    H220950   3.401   3.168   3.175 -1.0231 -0.3373  0.9462
 6996TIP3   OH220951   2.149   0.241   1.804 -0.4452  0.1953 -0.0693
 6996TIP3    H120952   2.118   0.331   1.819  0.5083  0.6127 -0.5073
 6996TIP3    H220953   2.072   0.187   1.821 -0.5711  0.9252  2.1128
 6997TIP3   OH220954   6.861   6.737   5.122 -0.4778 -0.2419 -0.0883
 6997TIP3    H120955   6.912   6.793   5.180  1.6734 -0.1866 -1.9004
 6997TIP3    H220956   6.799   6.693   5.180  1.6730 -0.3769  2.2734
 6998TIP3   OH220957   4.089   3.226   4.004 -0.2352 -0.4573 -0.1959
 6998TIP3    H120958   4.033   3.278   3.947 -1.3784 -2.1740 -0.7161
 6998TIP3    H220959   4.052   3.237   4.092  0.4732  0.8030 -0.0383
 6999TIP3   OH220960   0.605   0.730   1.690  0.5782 -0.1295 -0.3211
 6999TIP3    H120961   0.511   0.728   1.672  0.4251  1.2761  0.1833
 6999TIP3    H220962   0.612   0.781   1.771  1.7873 -0.0148 -0.4825
 7000TIP3   OH220963   4.498   2.030   3.578 -0.4141 -0.3438 -0.4614
 7000TIP3    H120964   4.528   2.067   3.661 -0.5663  0.2777 -0.6825
 7000TIP3    H220965   4.551   1.951   3.566 -0.2208 -0.3000  0.1016
 7001TIP3   OH220966   3.761   3.824   1.516  0.3904 -0.1009  0.0704
 7001TIP3    H120967   3.754   3.900   1.574  1.4203  0.2976 -0.2978
 7001TIP3    H220968   3.671   3.806   1.489  0.0710  0.6445  0.5944
 7002TIP3   OH220969   3.305   1.054   5.042 -0.2299  0.2949  0.5430
 7002TIP3    H120970   3.300   1.150   5.047  0.5892  0.3295  0.8011
 7002TIP3    H220971   3.235   1.023   5.100 -2.0919  0.7154 -1.3483
 7003TIP3   OH220972   0.602   2.468   0.215  0.2558  0.2166  0.0317
 7003TIP3    H120973   0.635   2.557   0.229 -1.4567  0.8700  0.1194
 7003TIP3    H220974   0.639   2.417   0.287  1.1834  0.8734  0.0272
 7004TIP3   OH220975   6.858   1.917   5.767  0.1881  0.7783  0.2074
 7004TIP3    H120976   6.845   1.983   5.698 -0.6744 -1.7409 -2.2307
 7004TIP3    H220977   6.791   1.937   5.832 -0.3313  2.0408 -0.6691
 7005TIP3   OH220978   3.341   1.358   5.054  0.3906  0.6761 -0.3377
 7005TIP3    H120979   3.413   1.323   5.107  1.3974 -0.3725 -2.2784
 7005TIP3    H220980   3.384   1.402   4.981 -0.8275 -1.1763 -2.3275
 7006TIP3   OH220981   1.638   4.732   2.596  0.0764  0.0773 -0.6744
 7006TIP3    H120982   1.616   4.670   2.527  0.4087  1.5271 -2.1388
 7006TIP3    H220983   1.556   4.778   2.614 -0.2965 -1.0743  0.7801
 7007TIP3   OH220984   5.653   1.412   1.636  0.6504  0.0462 -0.1256
 7007TIP3    H120985   5.592   1.457   1.578  0.9364  1.1361  0.3905
 7007TIP3    H220986   5.626   1.438   1.724 -0.4969 -2.4850  0.3438
 7008TIP3   OH220987   2.666   2.905   4.902  0.4924  0.4937  0.4142
 7008TIP3    H120988   2.575   2.885   4.882  0.4521  0.6971  0.3891
 7008TIP3    H220989   2.696   2.832   4.956  0.0594  0.8600  1.1570
 7009TIP3   OH220990   0.814   6.497   0.323 -0.4417 -0.1902 -0.2973
 7009TIP3    H120991   0.816   6.576   0.269 -0.2248 -0.3913 -0.5843
 7009TIP3    H220992   0.892   6.503   0.378 -0.5931 -0.0500 -0.0954
 7010TIP3   OH220993   0.867   5.021   1.587 -0.2324 -0.3232 -0.3028
 7010TIP3    H120994   0.948   5.065   1.560  0.3953 -0.0639  1.7876
 7010TIP3    H220995   0.895   4.931   1.607 -0.5403 -0.3478  0.0226
 7011TIP3   OH220996   2.344   3.091   0.558  0.4039 -0.0334 -0.1091
 7011TIP3    H120997   2.393   3.011   0.574 -0.7898 -1.1278 -1.6853
 7011TIP3    H220998   2.253   3.068   0.572 -0.0882  0.6452 -1.9558
 7012TIP3   OH220999   4.671   4.843   2.662  0.7681  0.6776 -0.4364
 7012TIP3    H121000   4.703   4.848   2.572  1.6695  1.6752 -0.0741
 7012TIP3    H221001   4.750   4.849   2.716  0.2030  0.4725  0.4281
 7013TIP3   OH221002   2.530   2.675   3.885 -0.6045 -0.2099 -0.5120
 7013TIP3    H121003   2.599   2.668   3.818 -0.9879 -0.6927 -0.8588
 7013TIP3    H221004   2.479   2.595   3.876  0.6454 -1.3877  1.8564
 7014TIP3   OH221005   0.898   3.903   4.949 -0.2125  0.1103 -0.0296
 7014TIP3    H121006   0.990   3.895   4.973  0.0406  0.7753 -0.7294
 7014TIP3    H221007   0.886   3.841   4.877 -0.8928 -1.6465  1.5034
 7015TIP3   OH221008   1.587   6.087   4.431 -0.3653  0.4363 -0.0818
 7015TIP3    H121009   1.537   6.018   4.387  0.0796  1.1879 -1.8362
 7015TIP3    H221010   1.600   6.154   4.364  0.9372  1.3429  1.0259
 7016TIP3   OH221011   0.233   2.981   1.467  0.0032 -0.0209 -0.4599
 7016TIP3    H121012   0.164   2.961   1.404  0.5680 -1.0437 -0.7869
 7016TIP3    H221013   0.193   2.966   1.552 -0.8773  1.7346 -0.5289
 7017TIP3   OH221014   2.897   0.545   3.816  0.2765  0.4186 -0.0981
 7017TIP3    H121015   2.909   0.619   3.875  0.2652 -0.3749  0.9351
 7017TIP3    H221016   2.964   0.556   3.749  1.3452  0.5108  0.9461
 7018TIP3   OH221017   0.758   5.822   5.895  0.9689 -0.1146  0.4117
 7018TIP3    H121018   0.830   5.881   5.871  1.3993 -0.9176 -0.2941
 7018TIP3    H221019   0.798   5.735   5.896 -0.2617 -0.7418 -1.2806
 7019TIP3   OH221020   7.156   3.458   4.970  0.1085  0.1336  0.1441
 7019TIP3    H121021   7.158   3.394   4.900  0.9942  0.3017 -0.0059
 7019TIP3    H221022   7.210   3.531   4.938 -0.6269  0.8236  0.4295
 7020TIP3   OH221023   0.419   4.628   1.331  0.2338 -0.3301 -0.5884
 7020TIP3    H121024   0.472   4.595   1.403  1.3163 -0.1317 -1.2687
 7020TIP3    H221025   0.417   4.557   1.268  1.5078  0.3822 -1.4944
 7021TIP3   OH221026   6.967   3.938   4.101  0.3143 -0.2468 -0.3600
 7021TIP3    H121027   6.902   4.001   4.072 -0.1145 -0.8227 -0.6647
 7021TIP3    H221028   7.020   3.986   4.165 -1.9273 -0.4322  1.7940
 7022TIP3   OH221029   1.322   6.613   1.270  0.2006 -0.2430 -0.5140
 7022TIP3    H121030   1.245   6.560   1.286  0.5266 -0.6624 -0.3022
 7022TIP3    H221031   1.302   6.698   1.310 -0.1876 -0.3138 -0.5548
 7023TIP3   OH221032   0.072   2.729   4.528 -0.0139  0.2549 -0.6968
 7023TIP3    H121033   0.119   2.728   4.612 -2.2364 -2.1038  0.6682
 7023TIP3    H221034   0.037   2.818   4.522  0.5047  0.5812  0.6787
 7024TIP3   OH221035   0.885   6.552   1.190  0.0307  0.1123  0.0571
 7024TIP3    H121036   0.923   6.637   1.213 -0.7343 -0.1078  2.4117
 7024TIP3    H221037   0.822   6.534   1.259  0.3937 -2.5335 -0.1690
 7025TIP3   OH221038   0.356   1.968   5.703 -0.0738  0.2604 -0.0729
 7025TIP3    H121039   0.266   1.971   5.671  0.2819  2.4247 -1.0660
 7025TIP3    H221040   0.404   1.921   5.635 -0.3675 -0.6226  0.3108
 7026TIP3   OH221041   0.143   4.632   1.777 -0.0136 -0.3023 -0.3047
 7026TIP3    H121042   0.163   4.622   1.684 -2.8068 -1.7635 -0.8541
 7026TIP3    H221043   0.192   4.562   1.821 -1.1883 -1.6928 -1.1402
 7027TIP3   OH221044   4.520   4.801   4.490 -0.4143  0.1532 -0.1657
 7027TIP3    H121045   4.488   4.890   4.477 -2.0831 -0.7191 -2.8569
 7027TIP3    H221046   4.463   4.765   4.559 -0.5566  0.7775  0.0469
 7028TIP3   OH221047   1.197   6.551   3.760 -0.4375  0.2400 -0.2509
 7028TIP3    H121048   1.185   6.520   3.849 -1.3580  0.6467 -0.2234
 7028TIP3    H221049   1.164   6.641   3.761 -1.7377 -0.1955 -1.3071
 7029TIP3   OH221050   5.731   6.641   4.779  0.0306 -0.0048 -0.2268
 7029TIP3    H121051   5.813   6.685   4.754  0.2274  0.5959  1.3653
 7029TIP3    H221052   5.758   6.572   4.839 -0.5832 -0.1839 -0.1505
 7030TIP3   OH221053   4.267   5.957   2.889 -0.2112 -0.5663  0.2040
 7030TIP3    H121054   4.332   5.949   2.959  1.7584 -1.8390 -1.6146
 7030TIP3    H221055   4.246   5.866   2.866 -0.9127 -0.1811 -0.7349
 7031TIP3   OH221056   2.101   3.335   2.017  0.3023 -0.0760  0.2667
 7031TIP3    H121057   2.115   3.245   1.990 -0.9088 -0.5991  1.3022
 7031TIP3    H221058   2.188   3.366   2.042  0.4900 -1.5647  1.6476
 7032TIP3   OH221059   4.482   2.324   1.050  0.3357  0.7047  0.3098
 7032TIP3    H121060   4.541   2.293   0.982 -0.7445 -1.7579  0.3984
 7032TIP3    H221061   4.516   2.284   1.131 -0.6319  0.3720  0.5667
 7033TIP3   OH221062   4.676   5.434   0.546 -0.0770  0.0268  0.2216
 7033TIP3    H121063   4.706   5.383   0.621 -1.0003 -0.2851  0.3885
 7033TIP3    H221064   4.757   5.466   0.504  0.4415  0.9958  1.8749
 7034TIP3   OH221065   2.685   1.676   5.111  0.8022 -0.2752 -0.3689
 7034TIP3    H121066   2.731   1.599   5.078  1.0056 -1.1831  1.8671
 7034TIP3    H221067   2.755   1.738   5.134  0.8780 -0.8992  1.2220
 7035TIP3   OH221068   6.745   4.150   3.770  0.1085 -0.0895 -0.5073
 7035TIP3    H121069   6.826   4.185   3.809 -1.2035 -0.4174  2.9268
 7035TIP3    H221070   6.759   4.055   3.768 -0.5248 -0.2597  1.2143
 7036TIP3   OH221071   5.030   6.765   5.579 -0.0545 -0.2511 -0.1193
 7036TIP3    H121072   5.099   6.819   5.540  0.0325  0.8112  1.4217
 7036TIP3    H221073   5.078   6.695   5.625 -0.1167 -0.8586 -0.9527
 7037TIP3   OH221074   1.698   4.250   4.549 -0.1905  0.0559 -0.1421
 7037TIP3    H121075   1.687   4.321   4.612  1.4547 -0.5314  0.8829
 7037TIP3    H221076   1.610   4.215   4.535 -0.7909  1.2103  0.6057
 7038TIP3   OH221077   5.386   5.510   5.134  0.5012  0.4106  0.8174
 7038TIP3    H121078   5.305   5.515   5.084 -0.6481  1.9722  2.6722
 7038TIP3    H221079   5.406   5.417   5.139 -1.4787 -0.0649  0.7391
 7039TIP3   OH221080   4.189   6.587   1.443  0.6035 -0.5746 -0.1942
 7039TIP3    H121081   4.149   6.674   1.434 -0.2972 -0.9900 -0.3518
 7039TIP3    H221082   4.278   6.604   1.473 -0.0642  0.3614  1.4110
 7040TIP3   OH221083   1.109   1.540   1.745  0.2500 -0.4896  0.4405
 7040TIP3    H121084   1.148   1.559   1.660  1.8346  0.2292  1.2799
 7040TIP3    H221085   1.087   1.446   1.741 -0.2415 -0.3340 -0.9383
 7041TIP3   OH221086   4.380  -0.001   4.285  0.5023  0.1742 -0.6032
 7041TIP3    H121087   4.376   0.027   4.194 -0.9671  1.3981 -0.2151
 7041TIP3    H221088   4.288  -0.003   4.313  0.8907 -0.6862  0.7034
 7042TIP3   OH221089   2.508   6.322   2.085 -0.7242 -0.2281 -0.3267
 7042TIP3    H121090   2.543   6.247   2.133 -1.4746  0.8077  1.9591
 7042TIP3    H221091   2.529   6.397   2.140 -2.4894  0.9251 -1.1605
 7043TIP3   OH221092   6.322   1.977   1.206 -0.2993  0.4082 -0.2780
 7043TIP3    H121093   6.242   2.026   1.190  0.5914  2.1916  0.3531
 7043TIP3    H221094   6.327   1.970   1.302 -0.1210 -0.4437 -0.3396
 7044TIP3   OH221095   3.258   4.508   0.898 -0.4288  0.1486 -0.0614
 7044TIP3    H121096   3.269   4.417   0.868  1.3935 -0.0513  1.0315
 7044TIP3    H221097   3.334   4.554   0.863 -0.3681  0.8078  0.8904
 7045TIP3   OH221098   3.732   5.804   3.410  0.0975  0.8370 -0.3816
 7045TIP3    H121099   3.819   5.843   3.410  0.8916 -0.7847  1.4763
 7045TIP3    H221100   3.679   5.864   3.463  0.1412  1.6507 -1.2329
 7046TIP3   OH221101   6.191   3.607   4.950  0.3779 -0.0666 -0.1114
 7046TIP3    H121102   6.173   3.595   5.043 -0.1818 -0.0874 -0.2191
 7046TIP3    H221103   6.206   3.701   4.941 -1.0209  0.1635 -0.2358
 7047TIP3   OH221104   2.041   2.520   0.497  0.0536 -0.5109 -0.1896
 7047TIP3    H121105   1.993   2.484   0.573 -1.1392 -0.8942 -1.0950
 7047TIP3    H221106   2.132   2.500   0.516 -0.3928 -2.3330  0.2674
 7048TIP3   OH221107   2.315   4.508   5.026 -0.4155  0.1977  0.4900
 7048TIP3    H121108   2.251   4.537   4.962 -0.5962  1.5739  1.2392
 7048TIP3    H221109   2.399   4.541   4.993  0.0665 -2.2046 -0.8510
 7049TIP3   OH221110   6.733   2.806   2.075  0.0504 -0.6011  0.1822
 7049TIP3    H121111   6.728   2.842   2.163  0.0124  1.4427 -0.6072
 7049TIP3    H221112   6.644   2.817   2.040 -0.1249 -2.0603  0.1005
 7050TIP3   OH221113   2.881   1.943   3.093 -0.8063  0.5529 -0.0969
 7050TIP3    H121114   2.796   1.985   3.088 -0.0752  2.0357 -0.7033
 7050TIP3    H221115   2.935   2.003   3.144 -0.3691 -0.8448  1.1504
 7051TIP3   OH221116   1.289   2.791   4.018 -0.0484 -0.1262  0.3489
 7051TIP3    H121117   1.382   2.767   4.027  0.4473  2.2434  3.0407
 7051TIP3    H221118   1.283   2.830   3.931  1.5520 -0.0344  0.2471
 7052TIP3   OH221119   4.920   5.240   2.161 -0.3730  0.5065  0.5028
 7052TIP3    H121120   4.920   5.147   2.137 -0.0156  0.8878 -1.0762
 7052TIP3    H221121   4.843   5.275   2.116 -0.5879  0.9486  1.2149
 7053TIP3   OH221122   4.901   1.069   1.244 -0.1208 -0.1918 -0.2707
 7053TIP3    H121123   4.905   1.095   1.336  0.8488  0.5933 -0.5174
 7053TIP3    H221124   4.891   1.151   1.197 -0.1588 -0.5523 -0.8966
 7054TIP3   OH221125   3.920   0.562   1.599  0.1731  0.1078  0.4881
 7054TIP3    H121126   3.935   0.581   1.691 -1.9581  0.4480  0.8125
 7054TIP3    H221127   3.826   0.571   1.587  0.3800  0.0153 -1.7253
 7055TIP3   OH221128   5.982   1.063   0.794  0.4367 -0.1453  0.2556
 7055TIP3    H121129   5.931   1.143   0.808 -1.9022 -1.7212  1.4220
 7055TIP3    H221130   6.009   1.037   0.882 -1.2553 -2.0797  0.2605
 7056TIP3   OH221131   5.457   2.146   0.184 -0.9401 -0.2104 -0.9589
 7056TIP3    H121132   5.451   2.213   0.252  1.3941 -0.2073 -0.6679
 7056TIP3    H221133   5.398   2.077   0.213 -0.8476  0.2852  0.4593
 7057TIP3   OH221134   0.125   6.481   3.000 -0.1807  0.3747  0.3206
 7057TIP3    H121135   0.147   6.535   2.925 -1.4250 -0.3719 -0.6294
 7057TIP3    H221136   0.194   6.499   3.064 -0.1562  2.4941 -0.2292
 7058TIP3   OH221137   3.664   1.708   4.185  0.0593  0.2326  0.3917
 7058TIP3    H121138   3.705   1.682   4.102 -0.4616  1.5603 -0.3067
 7058TIP3    H221139   3.699   1.646   4.249  0.7470 -0.6018 -0.7519
 7059TIP3   OH221140   6.833   4.742   0.302  0.2539 -0.0706 -0.6061
 7059TIP3    H121141   6.786   4.663   0.326  0.4923 -0.5270 -1.5883
 7059TIP3    H221142   6.778   4.784   0.236  0.2565  0.4396 -0.2844
 7060TIP3   OH221143   4.040   0.325   0.244 -0.1640  0.1469  0.3517
 7060TIP3    H121144   3.985   0.271   0.301 -0.5344 -0.6450 -0.7162
 7060TIP3    H221145   4.036   0.281   0.159  0.5630  1.1665 -0.2286
 7061TIP3   OH221146   1.380   4.410   4.817 -0.4253  0.2070 -0.4526
 7061TIP3    H121147   1.450   4.440   4.759 -1.1155  0.1487 -1.3455
 7061TIP3    H221148   1.301   4.416   4.763 -0.7073 -2.6316 -0.4708
 7062TIP3   OH221149   5.314   5.707   4.732  0.4182  0.0105  0.1308
 7062TIP3    H121150   5.232   5.700   4.781  0.6603  0.6195  0.6405
 7062TIP3    H221151   5.382   5.683   4.795  0.6852  0.2045 -0.0800
 7063TIP3   OH221152   2.753   5.369   3.337 -0.5090 -0.2054 -0.9517
 7063TIP3    H121153   2.802   5.292   3.365  0.4313  0.4516 -0.7628
 7063TIP3    H221154   2.700   5.393   3.413 -0.1388 -0.1419 -0.7130
 7064TIP3   OH221155   4.282   2.471   2.174  0.0982  0.3414 -0.2747
 7064TIP3    H121156   4.288   2.561   2.207 -1.4830  0.1352  0.6717
 7064TIP3    H221157   4.359   2.461   2.118  0.0044  2.4526 -0.8507
 7065TIP3   OH221158   1.206   1.019   4.110  0.3616 -0.0364  0.0650
 7065TIP3    H121159   1.193   1.067   4.192  0.3188 -0.0262  0.0521
 7065TIP3    H221160   1.301   1.021   4.096  0.3241  0.4322 -0.1655
 7066TIP3   OH221161   6.717   6.139   2.652  0.0096  0.1140  0.2886
 7066TIP3    H121162   6.752   6.213   2.700 -0.5833  1.3174 -1.0395
 7066TIP3    H221163   6.760   6.062   2.689 -0.0480  1.0194  2.3346
 7067TIP3   OH221164   6.658   5.945   0.904 -0.1137 -0.4243  0.1363
 7067TIP3    H121165   6.682   5.863   0.860 -0.0864 -0.7121  0.6783
 7067TIP3    H221166   6.621   5.917   0.988  2.9364  0.2044  1.8398
 7068TIP3   OH221167   2.341   4.004   0.932 -0.3830 -0.3127  0.0555
 7068TIP3    H121168   2.432   3.981   0.948  0.0501  1.0081 -0.3739
 7068TIP3    H221169   2.300   4.000   1.019  0.3661  0.2186  0.4434
 7069TIP3   OH221170   4.393   0.560   1.191 -0.6570  0.4491  0.0163
 7069TIP3    H121171   4.481   0.591   1.168 -0.3672  0.6677  1.3529
 7069TIP3    H221172   4.397   0.465   1.176 -0.0617  0.3997  0.4234
 7070TIP3   OH221173   3.419   1.780   3.135  0.4868  0.3300  0.2666
 7070TIP3    H121174   3.502   1.758   3.176  0.2574 -0.5676  0.2678
 7070TIP3    H221175   3.355   1.774   3.206 -0.0839 -2.2871 -0.3587
 7071TIP3   OH221176   6.844   3.192   1.886 -0.3705  0.0510 -0.4539
 7071TIP3    H121177   6.936   3.171   1.904  0.5015  1.1847 -3.0931
 7071TIP3    H221178   6.807   3.213   1.972  1.5237 -1.4235  0.8258
 7072TIP3   OH221179   7.053   6.121   1.049  0.2710 -0.1165 -0.1864
 7072TIP3    H121180   7.090   6.140   1.135 -0.5412  0.1238  0.1141
 7072TIP3    H221181   7.051   6.206   1.004 -2.5831  0.4600  0.8559
 7073TIP3   OH221182   5.062   5.895   0.936  0.4071  0.2419  0.0001
 7073TIP3    H121183   5.117   5.954   0.884  0.0780 -0.1961 -0.8795
 7073TIP3    H221184   4.997   5.952   0.976  0.3850  0.5390 -0.4486
 7074TIP3   OH221185   6.636   1.795   2.182  0.2779  0.1673  0.5634
 7074TIP3    H121186   6.732   1.795   2.184  0.2746  0.1307  0.9550
 7074TIP3    H221187   6.613   1.703   2.168  0.3025  0.2021  0.3008
 7075TIP3   OH221188   3.731   0.539   5.044  0.4377 -0.2512  0.0111
 7075TIP3    H121189   3.655   0.584   5.007 -0.5125 -0.3486  1.7347
 7075TIP3    H221190   3.804   0.599   5.031 -0.0292  0.0855 -1.1645
 7076TIP3   OH221191   6.640   1.739   5.629 -0.1131  0.5427 -0.5130
 7076TIP3    H121192   6.693   1.666   5.659 -0.5097  0.1435 -0.7616
 7076TIP3    H221193   6.656   1.809   5.693  2.6639  1.3533 -1.9287
 7077TIP3   OH221194   3.469   3.293   1.088  0.6190 -0.0599 -0.3293
 7077TIP3    H121195   3.504   3.327   1.170  0.6341 -0.0387 -0.3442
 7077TIP3    H221196   3.413   3.220   1.113  1.4539 -0.7311 -0.3793
 7078TIP3   OH221197   1.725   1.029   4.544  0.1500 -0.3068  0.2154
 7078TIP3    H121198   1.671   0.997   4.471 -0.8121 -0.6386  1.0480
 7078TIP3    H221199   1.693   0.981   4.620  1.6755 -0.5513  0.7386
 7079TIP3   OH221200   4.027   6.216   0.312 -0.2783 -0.2104 -0.2112
 7079TIP3    H121201   4.097   6.171   0.359 -1.9388  0.4871  3.2008
 7079TIP3    H221202   4.062   6.303   0.293 -0.1411  0.1176  1.4351
 7080TIP3   OH221203   3.938   1.252   5.779  0.0870  0.2807 -0.3520
 7080TIP3    H121204   3.984   1.289   5.704 -4.3440  3.4894 -1.8919
 7080TIP3    H221205   3.883   1.183   5.742  1.5571 -1.7205  0.9862
 7081TIP3   OH221206   2.364   4.309   2.681 -0.7963 -0.2541 -0.6338
 7081TIP3    H121207   2.453   4.274   2.675 -1.0634 -0.9053 -0.9478
 7081TIP3    H221208   2.341   4.300   2.773 -0.6730 -0.4392 -0.6199
 7082TIP3   OH221209   1.003   3.159   4.005 -0.1242 -0.6355 -0.1778
 7082TIP3    H121210   1.020   3.114   4.087 -1.1052 -1.1145 -0.2200
 7082TIP3    H221211   1.048   3.107   3.939  1.3213  0.1798  0.1187
 7083TIP3   OH221212   5.776   3.453   5.855  0.4011  0.4323  0.0287
 7083TIP3    H121213   5.797   3.476   5.765 -0.5544 -1.2832 -0.6987
 7083TIP3    H221214   5.794   3.532   5.906  2.4313  0.9619 -1.4147
 7084TIP3   OH221215   2.348   4.579   4.066  0.3841  0.3118 -0.0858
 7084TIP3    H121216   2.418   4.622   4.114  0.0495  1.1297 -0.3058
 7084TIP3    H221217   2.370   4.486   4.068  1.3783  0.5436 -0.0114
 7085TIP3   OH221218   0.798   0.335   4.170  0.1363  0.0778  0.3387
 7085TIP3    H121219   0.863   0.405   4.177 -0.3049  0.4609  0.6809
 7085TIP3    H221220   0.766   0.322   4.260  1.1297 -1.4616  0.5030
 7086TIP3   OH221221   2.653   6.761   3.714  0.1107 -0.4028 -0.1421
 7086TIP3    H121222   2.669   6.850   3.683  1.9718 -0.3247  0.8845
 7086TIP3    H221223   2.730   6.740   3.767 -1.8931 -1.2914  2.6431
 7087TIP3   OH221224   6.051   0.562   3.723 -0.4560 -0.2335 -0.2183
 7087TIP3    H121225   6.108   0.612   3.783 -1.0748 -1.8037  1.8087
 7087TIP3    H221226   6.082   0.586   3.636  2.8790 -0.4536  0.7535
 7088TIP3   OH221227   1.239   2.172   4.901  0.0384  0.0206  0.3234
 7088TIP3    H121228   1.166   2.233   4.893 -0.8479 -0.9107  1.0747
 7088TIP3    H221229   1.307   2.208   4.843 -2.0769 -0.7391 -2.8587
 7089TIP3   OH221230   6.018   3.497   2.182 -0.3505  0.1908  0.2223
 7089TIP3    H121231   6.017   3.592   2.174  0.6717  0.1443 -0.9162
 7089TIP3    H221232   6.089   3.479   2.243  1.7638  0.1145 -2.0773
 7090TIP3   OH221233   2.865   3.370   5.509  0.3695  0.5863 -0.3107
 7090TIP3    H121234   2.821   3.332   5.433 -0.5200 -2.9370  1.7367
 7090TIP3    H221235   2.917   3.442   5.474 -0.6854 -0.3050 -4.0750
 7091TIP3   OH221236   0.928   6.087   3.949  0.5323  0.5130 -0.1211
 7091TIP3    H121237   0.850   6.063   3.900  1.2546  0.2447 -1.1702
 7091TIP3    H221238   1.000   6.044   3.903  1.4257  1.6060  0.2055
 7092TIP3   OH221239   1.554   5.874   3.883  0.1383 -0.2200  0.1252
 7092TIP3    H121240   1.478   5.881   3.941 -0.2181 -1.5747 -0.1390
 7092TIP3    H221241   1.579   5.965   3.866 -1.0798  0.2476  0.6621
 7093TIP3   OH221242   1.402   0.301   5.466  0.5744  0.2450 -0.2512
 7093TIP3    H121243   1.365   0.317   5.379  0.2270  0.1039 -0.1324
 7093TIP3    H221244   1.416   0.388   5.503 -1.4265  0.3326  0.4472
 7094TIP3   OH221245   2.176   0.391   4.445  0.1604  0.2846  0.0261
 7094TIP3    H121246   2.225   0.312   4.423 -2.1988 -1.7563  1.5171
 7094TIP3    H221247   2.235   0.440   4.502  1.7078 -0.3269 -0.9642
 7095TIP3   OH221248   1.254   1.536   0.717  0.0934 -0.3473 -0.3876
 7095TIP3    H121249   1.251   1.502   0.627 -0.1066 -0.6137 -0.2828
 7095TIP3    H221250   1.342   1.514   0.748  0.2216 -0.1004 -0.5780
 7096TIP3   OH221251   3.966   1.799   0.032  0.2238 -0.0710  0.1132
 7096TIP3    H121252   4.009   1.807   0.117 -0.5684 -0.4440  0.5642
 7096TIP3    H221253   3.916   1.718   0.038  1.5103 -1.0173 -1.3463
 7097TIP3   OH221254   2.586   3.361   4.303  0.0051  0.0302  0.3596
 7097TIP3    H121255   2.616   3.275   4.333  0.9600  0.5876  1.0709
 7097TIP3    H221256   2.503   3.344   4.258 -0.3942 -1.1202  1.4780
 7098TIP3   OH221257   5.454   4.587   0.782  0.2063 -0.7606 -0.8288
 7098TIP3    H121258   5.510   4.639   0.840 -1.2564 -1.1149  1.0221
 7098TIP3    H221259   5.427   4.649   0.713  1.5996 -0.1864 -0.8856
 7099TIP3   OH221260   5.797   2.057   2.856 -0.1102 -0.4143  0.0001
 7099TIP3    H121261   5.765   2.115   2.925  3.3626  0.6310  0.9203
 7099TIP3    H221262   5.762   2.094   2.775 -1.4333  0.3905  0.9046
 7100TIP3   OH221263   5.438   6.333   2.345 -0.6424  0.3170  0.1396
 7100TIP3    H121264   5.524   6.327   2.303 -1.0126 -0.5837 -0.5162
 7100TIP3    H221265   5.388   6.260   2.309 -1.7008  0.8349  0.4988
 7101TIP3   OH221266   1.958   2.742   5.288 -0.1632  0.0288  0.9227
 7101TIP3    H121267   1.986   2.651   5.278  0.5034  0.3682 -0.7630
 7101TIP3    H221268   2.020   2.781   5.349  0.3143 -0.3499  0.6787
 7102TIP3   OH221269   4.147   0.237   2.490  0.2945  0.6145 -0.2525
 7102TIP3    H121270   4.055   0.248   2.469 -0.0348  0.3790  0.9736
 7102TIP3    H221271   4.186   0.198   2.412 -0.6170  0.7973 -0.8080
 7103TIP3   OH221272   7.133   3.857   3.512  0.1795 -0.4717  0.0408
 7103TIP3    H121273   7.213   3.898   3.544 -0.2864  0.5607 -0.0856
 7103TIP3    H221274   7.162   3.774   3.474  1.0120 -0.7424  1.2151
 7104TIP3   OH221275   5.810   4.865   3.562  0.1090 -0.0646  0.0315
 7104TIP3    H121276   5.719   4.845   3.580  0.5143 -1.8184  0.3684
 7104TIP3    H221277   5.809   4.952   3.522 -1.7249 -0.2328 -0.3454
 7105TIP3   OH221278   2.077   4.465   2.833  0.2911  0.0885  0.4508
 7105TIP3    H121279   2.105   4.422   2.914  1.1215  1.3557  0.8634
 7105TIP3    H221280   2.147   4.527   2.813 -0.4984  0.6968 -0.5429
 7106TIP3   OH221281   2.914   6.357   0.996 -0.2305 -0.1393 -0.7254
 7106TIP3    H121282   2.945   6.391   0.912 -1.1469  0.2434 -0.9149
 7106TIP3    H221283   2.829   6.398   1.009 -0.3007 -0.5453  0.1824
 7107TIP3   OH221284   2.571   5.830   5.557 -0.0493 -0.0903  0.2238
 7107TIP3    H121285   2.612   5.770   5.619 -0.0683 -1.3910 -0.9903
 7107TIP3    H221286   2.507   5.878   5.610 -0.4791 -1.5753  1.1106
 7108TIP3   OH221287   5.829   5.078   1.699 -0.3367 -0.1296 -0.6272
 7108TIP3    H121288   5.820   5.109   1.609 -0.7193  0.6384 -0.3378
 7108TIP3    H221289   5.922   5.064   1.711  0.0848  2.4452 -0.3148
 7109TIP3   OH221290   5.282   0.588   2.269  0.2006 -0.4131 -0.3742
 7109TIP3    H121291   5.369   0.628   2.273 -0.1038  0.1918  0.5215
 7109TIP3    H221292   5.296   0.499   2.299  0.2866  0.1161  1.2805
 7110TIP3   OH221293   3.055   5.069   4.017 -0.0509  0.2574 -0.2660
 7110TIP3    H121294   3.066   5.043   4.109  1.3966 -0.8992 -0.7112
 7110TIP3    H221295   2.991   5.007   3.982  0.8312 -0.5820 -0.4695
 7111TIP3   OH221296   0.948   1.903   3.842 -0.2317 -0.8591  0.2796
 7111TIP3    H121297   0.892   1.844   3.892 -3.2221 -0.1543 -1.9503
 7111TIP3    H221298   0.953   1.983   3.894  0.2576 -1.5585  1.3313
 7112TIP3   OH221299   5.752   2.948   1.038 -0.3243  0.5834  0.0176
 7112TIP3    H121300   5.774   2.908   0.954 -1.8598  1.9663 -1.0881
 7112TIP3    H221301   5.811   2.905   1.101  1.2037 -0.1346 -1.8145
 7113TIP3   OH221302   4.313   0.391   2.925  0.1776  0.3861 -0.1357
 7113TIP3    H121303   4.259   0.327   2.972  1.4168 -0.1474  0.6392
 7113TIP3    H221304   4.291   0.475   2.965 -0.4046  0.2449 -0.1471
 7114TIP3   OH221305   0.975   1.700   2.336 -0.2026 -0.1489 -0.6252
 7114TIP3    H121306   0.887   1.720   2.303 -0.9086 -0.6088  0.8689
 7114TIP3    H221307   0.971   1.727   2.428  1.9703  2.0253 -1.0634
 7115TIP3   OH221308   5.054   1.013   4.241  0.6743 -0.4756 -0.0036
 7115TIP3    H121309   5.128   0.980   4.293  1.0869  1.5866  0.8185
 7115TIP3    H221310   5.043   1.103   4.270 -0.0461  0.3078 -2.5037
 7116TIP3   OH221311   6.325   6.480   0.546  0.4742 -0.3307 -0.5744
 7116TIP3    H121312   6.255   6.419   0.523 -1.8966  0.6428  3.2097
 7116TIP3    H221313   6.281   6.551   0.592  3.7498  1.5938 -0.0729
 7117TIP3   OH221314   0.431   6.622   0.730 -0.0002  0.1816 -0.4938
 7117TIP3    H121315   0.429   6.634   0.635 -3.0704  0.0256 -0.5330
 7117TIP3    H221316   0.436   6.711   0.766 -1.4197  0.4115 -0.8275
 7118TIP3   OH221317   4.829   6.216   1.808  0.0877  0.3578  0.0598
 7118TIP3    H121318   4.858   6.130   1.776  0.1489  0.5545 -0.4193
 7118TIP3    H221319   4.842   6.212   1.902 -1.2443 -0.6804  0.2319
 7119TIP3   OH221320   5.425   6.096   0.174 -0.7191 -0.3213 -0.0187
 7119TIP3    H121321   5.359   6.165   0.183 -2.8723 -2.3320  0.5490
 7119TIP3    H221322   5.449   6.073   0.263  0.6001  0.1821 -0.2145
 7120TIP3   OH221323   6.522   3.801   5.754  0.2898 -0.2972 -0.1004
 7120TIP3    H121324   6.582   3.835   5.821 -0.4047 -3.0467  2.1267
 7120TIP3    H221325   6.437   3.838   5.776 -0.0712 -1.7087  1.0857
 7121TIP3   OH221326   2.494   4.965   5.213  0.2820 -0.2604 -0.0838
 7121TIP3    H121327   2.559   5.034   5.229  0.7276 -0.7088  0.0845
 7121TIP3    H221328   2.472   4.973   5.121  0.0074  0.3859  0.0364
 7122TIP3   OH221329   2.930   2.716   4.121  0.6519 -0.3063  0.0874
 7122TIP3    H121330   2.979   2.713   4.203 -0.6315 -0.0284  0.9019
 7122TIP3    H221331   2.886   2.631   4.116 -0.9897  0.4696  0.8172
 7123TIP3   OH221332   0.993   5.338   4.507  0.2469 -0.1553  0.6013
 7123TIP3    H121333   0.977   5.333   4.413 -0.5748 -0.1495  0.7306
 7123TIP3    H221334   1.075   5.290   4.520  0.7657  0.4687 -0.2049
 7124TIP3   OH221335   0.178   2.733   0.028 -0.0156  0.1523  0.5330
 7124TIP3    H121336   0.213   2.809   0.075  0.7739 -0.7420  1.4255
 7124TIP3    H221337   0.083   2.742   0.037  0.0138  1.5811 -0.2783
 7125TIP3   OH221338   2.616   4.767   5.479 -0.5594  0.5078  0.1350
 7125TIP3    H121339   2.697   4.810   5.452  0.3344 -0.7115  0.7730
 7125TIP3    H221340   2.621   4.680   5.440 -1.2156  0.1730  0.7801
 7126TIP3   OH221341   0.472   2.427   4.392  0.5121  0.4063  0.1424
 7126TIP3    H121342   0.502   2.348   4.437  0.6698  0.2067 -0.3094
 7126TIP3    H221343   0.416   2.472   4.457 -0.1995 -0.4528  0.1439
 7127TIP3   OH221344   1.432   0.441   4.484 -0.4897  0.2119 -0.2969
 7127TIP3    H121345   1.503   0.402   4.434 -2.4542 -1.0859 -2.2578
 7127TIP3    H221346   1.394   0.367   4.533 -0.4214  0.9205  0.8756
 7128TIP3   OH221347   2.931   3.117   2.203  0.3450  0.2330 -0.2792
 7128TIP3    H121348   2.926   3.139   2.296  1.2662 -0.3077 -0.0923
 7128TIP3    H221349   2.874   3.182   2.161 -0.4151  0.2304  0.6914
 7129TIP3   OH221350   5.367   2.233   5.597 -0.2633 -0.0548  0.1083
 7129TIP3    H121351   5.367   2.140   5.576 -1.7357 -0.0756  0.0692
 7129TIP3    H221352   5.294   2.244   5.658 -0.4688  1.1624 -0.3205
 7130TIP3   OH221353   2.097   6.409   1.795 -0.3536  0.0831  0.1048
 7130TIP3    H121354   2.008   6.395   1.827 -0.4793 -2.5111 -1.1093
 7130TIP3    H221355   2.087   6.474   1.725 -1.1336  0.4759  0.5691
 7131TIP3   OH221356   1.936   3.648   1.034 -0.5677 -0.3980 -0.1475
 7131TIP3    H121357   1.984   3.567   1.016  0.4608  0.2394 -0.3848
 7131TIP3    H221358   1.845   3.626   1.018 -0.5131 -1.9783  1.4525
 7132TIP3   OH221359   5.785   0.419   0.769  0.0274 -0.6619  0.7148
 7132TIP3    H121360   5.862   0.372   0.801  0.6690  0.2872  0.5940
 7132TIP3    H221361   5.776   0.494   0.828  0.5571  0.4903 -0.6194
 7133TIP3   OH221362   5.826   3.338   4.845 -0.0289 -0.3212  0.5406
 7133TIP3    H121363   5.898   3.373   4.792 -0.9471  0.9501  0.0786
 7133TIP3    H221364   5.829   3.389   4.926 -0.2405 -0.4522  0.6322
 7134TIP3   OH221365   4.018   3.989   2.558 -0.2984 -0.1246 -0.1717
 7134TIP3    H121366   4.025   4.069   2.609  1.5951  1.6533 -2.8998
 7134TIP3    H221367   4.041   4.016   2.469  0.1255 -3.6558 -1.2876
 7135TIP3   OH221368   1.667   2.240   5.106 -0.4701  0.0001 -0.4267
 7135TIP3    H121369   1.662   2.318   5.161  1.8055  0.5594 -0.8939
 7135TIP3    H221370   1.579   2.204   5.107 -1.8161  2.9690 -0.7746
 7136TIP3   OH221371   7.134   0.480   1.085  0.4064  0.1893  0.2486
 7136TIP3    H121372   7.182   0.500   1.004 -0.0389 -0.8580 -0.2960
 7136TIP3    H221373   7.077   0.555   1.098  0.9143  0.6404 -0.0799
 7137TIP3   OH221374   6.720   2.497   0.334  0.0613 -0.1650  0.1140
 7137TIP3    H121375   6.665   2.481   0.411  0.4130  1.3885  0.7274
 7137TIP3    H221376   6.689   2.579   0.298  3.2856  2.0347  1.8041
 7138TIP3   OH221377   1.108   5.774   0.717 -0.1231  0.1422 -0.2471
 7138TIP3    H121378   1.030   5.829   0.723 -0.1601 -0.0035  0.6012
 7138TIP3    H221379   1.180   5.837   0.712 -0.1895  0.2737  0.4083
 7139TIP3   OH221380   2.775   2.009   1.247  0.1568 -0.5888  0.1794
 7139TIP3    H121381   2.713   2.047   1.309 -0.8578 -1.7714 -0.0946
 7139TIP3    H221382   2.855   2.061   1.259 -0.2372 -0.3540  1.9680
 7140TIP3   OH221383   4.084   0.503   0.541 -0.2784 -0.2535  0.2045
 7140TIP3    H121384   4.070   0.566   0.611  2.5538 -0.4559  1.0620
 7140TIP3    H221385   4.097   0.420   0.585  1.6750 -0.3661 -0.4834
 7141TIP3   OH221386   6.898   4.614   5.780 -0.3627 -0.1375  0.5662
 7141TIP3    H121387   6.841   4.643   5.709 -0.3791  1.3258  1.1464
 7141TIP3    H221388   6.868   4.664   5.856  0.9693 -0.1669  1.1315
 7142TIP3   OH221389   6.780   0.987   3.161  0.3597  0.3597 -0.1062
 7142TIP3    H121390   6.795   1.061   3.103  0.2435 -0.0095 -0.6152
 7142TIP3    H221391   6.691   1.000   3.193  0.3983  0.5285 -0.0669
 7143TIP3   OH221392   2.227   2.834   2.022 -0.3250  0.0817  0.1812
 7143TIP3    H121393   2.156   2.862   2.080  0.6049  1.3722  0.7293
 7143TIP3    H221394   2.188   2.764   1.969 -1.1233 -1.4108  2.5617
 7144TIP3   OH221395   4.873   0.309   3.739 -0.2232  0.0459  0.5102
 7144TIP3    H121396   4.814   0.333   3.810 -2.1042  0.5002 -1.1267
 7144TIP3    H221397   4.931   0.385   3.728 -1.3527  0.8859  0.1693
 7145TIP3   OH221398   6.231   6.159   4.867 -0.1000  0.3566  0.1212
 7145TIP3    H121399   6.298   6.227   4.880  2.0677 -1.7874  0.8633
 7145TIP3    H221400   6.239   6.102   4.943 -1.1379 -1.2973 -0.9416
 7146TIP3   OH221401   4.078   5.489   2.485 -0.1739 -0.1122 -0.5070
 7146TIP3    H121402   4.084   5.488   2.389  1.9611  1.1602 -0.4615
 7146TIP3    H221403   4.142   5.424   2.514 -1.4746 -1.1695  0.0934
 7147TIP3   OH221404   2.926   2.423   0.569  0.2573 -0.7364 -0.3995
 7147TIP3    H121405   3.003   2.381   0.531 -0.1226 -0.6888 -1.2611
 7147TIP3    H221406   2.882   2.464   0.494 -0.8131 -1.0882  0.0105
 7148TIP3   OH221407   6.433   4.409   0.140 -0.1084  0.3647 -0.3561
 7148TIP3    H121408   6.388   4.414   0.056  2.0351 -0.0240 -1.6110
 7148TIP3    H221409   6.436   4.500   0.171 -0.0368  0.6596 -1.2118
 7149TIP3   OH221410   7.154   3.214   3.216  0.2143 -0.5810 -0.0842
 7149TIP3    H121411   7.220   3.269   3.259  0.2801 -0.7523  0.0377
 7149TIP3    H221412   7.177   3.216   3.124  0.7980 -1.1896  0.0444
 7150TIP3   OH221413   3.431   3.487   0.650  0.1284  0.4189  0.3360
 7150TIP3    H121414   3.431   3.479   0.555  2.9332 -1.0074  0.3560
 7150TIP3    H221415   3.422   3.398   0.682  0.3158  0.7530  1.3670
 7151TIP3   OH221416   5.154   4.464   0.788 -0.2334 -0.2452 -0.1309
 7151TIP3    H121417   5.161   4.445   0.694  0.1121  3.9944 -1.2026
 7151TIP3    H221418   5.243   4.490   0.814 -0.3468 -1.2789  1.3837
 7152TIP3   OH221419   5.435   1.527   4.310  0.2941 -0.1995 -0.8870
 7152TIP3    H121420   5.391   1.448   4.340  0.9086 -0.2528 -0.0904
 7152TIP3    H221421   5.387   1.553   4.231 -1.4579  0.0241  0.2048
 7153TIP3   OH221422   5.666   2.965   2.793  0.0200 -0.7648 -0.6171
 7153TIP3    H121423   5.687   3.055   2.768 -0.4517 -0.5111 -0.1278
 7153TIP3    H221424   5.571   2.966   2.808  0.1367 -1.1539  0.1666
 7154TIP3   OH221425   5.726   6.673   3.861  0.6779 -0.2519 -0.2043
 7154TIP3    H121426   5.689   6.645   3.777  0.8169 -0.2142 -0.2779
 7154TIP3    H221427   5.735   6.768   3.853  1.2008 -0.3104 -0.3501
 7155TIP3   OH221428   4.133   6.693   4.239  0.6115 -0.1418  0.1515
 7155TIP3    H121429   4.087   6.750   4.300 -0.5397 -0.1579 -0.6597
 7155TIP3    H221430   4.203   6.747   4.204 -1.2925  1.3275 -1.6499
 7156TIP3   OH221431   2.674   1.459   1.441  0.3576 -0.3686  0.1515
 7156TIP3    H121432   2.637   1.500   1.519 -1.4264 -1.4698 -0.0604
 7156TIP3    H221433   2.602   1.407   1.405  2.0140 -2.2905 -0.5502
 7157TIP3   OH221434   0.449   1.170   1.644  0.0133  0.2413 -1.0267
 7157TIP3    H121435   0.400   1.244   1.606  2.1382  1.5802 -1.3168
 7157TIP3    H221436   0.473   1.116   1.569 -2.1296 -1.2300 -0.7551
 7158TIP3   OH221437   5.811   3.450   1.277 -0.1361  0.1554 -0.5786
 7158TIP3    H121438   5.733   3.474   1.226 -0.1162  0.4813 -0.4517
 7158TIP3    H221439   5.778   3.386   1.340 -0.1360 -0.3581 -1.0853
 7159TIP3   OH221440   6.909   2.855   3.987  0.0227  0.2341  0.3573
 7159TIP3    H121441   6.863   2.816   4.061 -0.3691 -0.3435 -0.1737
 7159TIP3    H221442   6.914   2.784   3.922 -2.8883  1.6408 -1.6414
 7160TIP3   OH221443   2.687   2.565   1.034 -0.3424 -0.0632 -0.7408
 7160TIP3    H121444   2.596   2.572   1.007 -0.2642  0.3097 -0.9152
 7160TIP3    H221445   2.683   2.526   1.121 -0.6753  0.0640 -0.6962
 7161TIP3   OH221446   3.400   0.643   0.849  0.1749 -0.1053 -0.0983
 7161TIP3    H121447   3.386   0.630   0.943  2.7483 -0.9215  0.2484
 7161TIP3    H221448   3.320   0.609   0.808 -0.2485 -1.4367  1.7135
 7162TIP3   OH221449   7.176   2.468   3.966  0.2924  0.4460 -0.1305
 7162TIP3    H121450   7.246   2.436   4.023 -0.8442 -1.0462  0.4901
 7162TIP3    H221451   7.135   2.539   4.015 -0.7779 -0.9262  1.0393
 7163TIP3   OH221452   0.828   3.771   1.999  0.2135  0.2780 -0.0702
 7163TIP3    H121453   0.832   3.760   1.904 -0.1282  0.6283 -0.1261
 7163TIP3    H221454   0.758   3.712   2.027 -1.0219  1.5829 -0.2702
 7164TIP3   OH221455   3.476   5.316   4.326  0.1617 -0.1647 -0.2004
 7164TIP3    H121456   3.569   5.321   4.304  0.2319  1.7875  0.3435
 7164TIP3    H221457   3.433   5.291   4.244  1.1142 -0.6292 -0.5736
 7165TIP3   OH221458   5.920   2.331   5.209  0.0919  0.6215 -0.4776
 7165TIP3    H121459   5.939   2.274   5.284  0.3879 -0.8869 -1.6519
 7165TIP3    H221460   5.851   2.390   5.241  0.9253  0.7219  1.2829
 7166TIP3   OH221461   7.073   4.349   5.476 -0.0786  0.2919 -0.0419
 7166TIP3    H121462   7.130   4.293   5.423 -1.7794 -1.2113 -0.3955
 7166TIP3    H221463   7.132   4.393   5.537  1.2885 -3.2274  1.4700
 7167TIP3   OH221464   1.747   3.919   1.441  0.2332  0.0027  0.0577
 7167TIP3    H121465   1.712   3.834   1.466 -0.9299  0.6237  0.5974
 7167TIP3    H221466   1.823   3.899   1.387  0.6070 -1.3774  1.0474
 7168TIP3   OH221467   1.536   1.410   5.813  0.1706  0.2996 -0.0923
 7168TIP3    H121468   1.534   1.479   5.880  1.0481  0.7670 -0.5357
 7168TIP3    H221469   1.624   1.374   5.818 -0.8179 -2.1512  1.4512
 7169TIP3   OH221470   6.507   5.840   1.561  0.0963 -0.7798  0.3199
 7169TIP3    H121471   6.419   5.802   1.563  0.1247 -0.8762 -0.2537
 7169TIP3    H221472   6.493   5.933   1.575 -0.1655 -0.6823 -0.5433
 7170TIP3   OH221473   3.481   2.478   2.782  0.4716  0.5282 -0.7262
 7170TIP3    H121474   3.498   2.415   2.712  0.9144  0.6747 -0.7530
 7170TIP3    H221475   3.395   2.454   2.816  0.1967  0.5332 -1.4074
 7171TIP3   OH221476   5.559   5.243   3.472 -0.1182  0.2946 -0.1534
 7171TIP3    H121477   5.503   5.322   3.474  1.1502  1.2242 -0.1055
 7171TIP3    H221478   5.538   5.197   3.553  0.5047  1.6109  0.8003
 7172TIP3   OH221479   3.135   6.761   1.458 -0.2622 -0.4592  0.1897
 7172TIP3    H121480   3.126   6.842   1.508 -1.9754 -1.2606  1.3055
 7172TIP3    H221481   3.208   6.715   1.499 -0.3559 -0.1961  0.6654
 7173TIP3   OH221482   0.485   1.581   1.849 -0.6955  0.0440 -0.4758
 7173TIP3    H121483   0.570   1.551   1.815 -0.3125 -0.0126  0.4779
 7173TIP3    H221484   0.490   1.561   1.943 -1.5870  0.4702 -0.3358
 7174TIP3   OH221485   0.632   0.422   1.010  0.0398  0.1053 -0.0077
 7174TIP3    H121486   0.669   0.508   0.991 -0.5892 -0.1234 -2.5902
 7174TIP3    H221487   0.659   0.367   0.937 -1.6617 -1.2470  0.3146
 7175TIP3   OH221488   3.198   3.532   3.865  0.1938  0.0770  0.0833
 7175TIP3    H121489   3.159   3.576   3.790 -0.3907  1.7175  1.2935
 7175TIP3    H221490   3.292   3.535   3.848 -0.0047 -2.3288 -2.0000
 7176TIP3   OH221491   1.563   6.677   5.093 -0.1269  0.0546  0.7933
 7176TIP3    H121492   1.537   6.737   5.023 -1.8209  0.1031  1.4102
 7176TIP3    H221493   1.640   6.632   5.060  0.3229  1.5370 -0.2726
 7177TIP3   OH221494   1.259   0.442   5.021  0.1216  0.4562  0.0060
 7177TIP3    H121495   1.314   0.364   5.017 -1.9125 -1.0029 -0.9582
 7177TIP3    H221496   1.240   0.452   5.115  1.5979  0.7285  0.3042
 7178TIP3   OH221497   6.704   2.446   2.577 -0.5438  0.1600 -0.4130
 7178TIP3    H121498   6.704   2.366   2.525  0.0354 -0.5698  0.6672
 7178TIP3    H221499   6.796   2.471   2.584 -0.7379  1.0632 -0.9391
 7179TIP3   OH221500   0.603   1.950   1.110 -0.2604 -0.2837 -0.4541
 7179TIP3    H121501   0.670   2.000   1.064  0.0977  0.7575  1.1006
 7179TIP3    H221502   0.521   1.973   1.066  0.0395  0.8557 -0.4377
 7180TIP3   OH221503   2.451   1.489   2.532 -0.4202  0.0009  0.0209
 7180TIP3    H121504   2.383   1.555   2.525 -0.7289 -0.4561 -1.6432
 7180TIP3    H221505   2.448   1.462   2.624 -0.8789  1.6422  0.5179
 7181TIP3   OH221506   2.133   0.929   2.682 -0.1867 -0.2662  0.0787
 7181TIP3    H121507   2.069   0.903   2.616  1.1028 -2.0082 -0.5580
 7181TIP3    H221508   2.120   1.023   2.692 -0.2007  0.1283 -2.9045
 7182TIP3   OH221509   0.444   0.824   1.212 -0.9152 -0.0923 -0.5719
 7182TIP3    H121510   0.387   0.747   1.219  0.2139 -0.9716 -0.7228
 7182TIP3    H221511   0.480   0.820   1.123 -1.9799  1.4669 -1.1215
 7183TIP3   OH221512   1.364   0.632   5.624  0.2123 -0.1487  0.0785
 7183TIP3    H121513   1.412   0.599   5.547  0.0533 -1.7043  0.6318
 7183TIP3    H221514   1.332   0.718   5.596  2.6365  0.6187 -0.5936
 7184TIP3   OH221515   1.044   6.597   4.958  0.4605 -0.0971  0.0995
 7184TIP3    H121516   1.061   6.621   4.867  0.9994 -2.2084 -0.4150
 7184TIP3    H221517   1.103   6.524   4.975  0.7113  0.5653  2.3239
 7185TIP3   OH221518   2.176   1.859   4.815 -0.6342  0.2123  0.3116
 7185TIP3    H121519   2.170   1.844   4.721  0.7688 -0.7617  0.3434
 7185TIP3    H221520   2.238   1.792   4.846  1.5065  2.5635  1.4124
 7186TIP3   OH221521   6.201   4.975   2.142  0.4067  0.3910  0.6698
 7186TIP3    H121522   6.122   4.943   2.185  1.2278 -1.4061  0.9203
 7186TIP3    H221523   6.257   4.898   2.133  1.4758  1.3033 -0.9719
 7187TIP3   OH221524   4.605   3.337   4.859  0.3658 -0.3793 -0.0614
 7187TIP3    H121525   4.680   3.395   4.865  0.6258 -0.3934 -2.2443
 7187TIP3    H221526   4.587   3.332   4.765 -2.3056 -0.4617  0.3902
 7188TIP3   OH221527   6.106   0.111   5.106  0.0806  0.1088  0.2626
 7188TIP3    H121528   6.118   0.110   5.011  0.3933  0.1453  0.3012
 7188TIP3    H221529   6.171   0.050   5.139  0.9224  1.1230  0.5562
 7189TIP3   OH221530   6.720   4.025   4.679 -0.8618 -0.0163  0.2824
 7189TIP3    H121531   6.764   4.104   4.649 -1.2366  1.2671  2.7898
 7189TIP3    H221532   6.780   3.988   4.744 -1.0464 -1.3689 -0.2902
 7190TIP3   OH221533   5.269   0.469   4.468  0.3630 -0.1677 -0.0613
 7190TIP3    H121534   5.343   0.472   4.529  1.0655 -0.2806 -0.8843
 7190TIP3    H221535   5.273   0.381   4.430 -0.1576 -0.1505 -0.1529
 7191TIP3   OH221536   0.068   1.418   3.810  0.1387 -0.3432  0.0251
 7191TIP3    H121537   0.039   1.423   3.719  0.0479 -0.7945  0.0289
 7191TIP3    H221538   0.072   1.510   3.838  0.9581 -0.1533 -0.6787
 7192TIP3   OH221539   2.957   6.572   1.440 -0.0432  0.2655  0.2628
 7192TIP3    H121540   2.923   6.602   1.356  2.6601  0.8839 -0.7156
 7192TIP3    H221541   3.030   6.631   1.459  0.7956 -1.2214  1.9603
 7193TIP3   OH221542   2.511   2.224   0.810 -0.0450  0.0590  0.1406
 7193TIP3    H121543   2.430   2.271   0.790  0.0419 -0.8685 -2.9408
 7193TIP3    H221544   2.576   2.293   0.822 -0.6570  0.8017 -0.6268
 7194TIP3   OH221545   4.265   1.637   5.421 -0.3455 -0.4818 -0.1160
 7194TIP3    H121546   4.314   1.598   5.493 -1.0580 -1.0770  0.0698
 7194TIP3    H221547   4.282   1.731   5.427  0.5158 -0.6470  0.1195
 7195TIP3   OH221548   0.300   3.691   0.568 -0.0219 -0.3112  0.4344
 7195TIP3    H121549   0.345   3.614   0.603  0.3112  0.7105  2.4052
 7195TIP3    H221550   0.311   3.758   0.636 -0.7726  1.3155 -0.9707
 7196TIP3   OH221551   0.621   6.349   1.315 -0.2749  0.4009 -0.1826
 7196TIP3    H121552   0.616   6.306   1.229 -0.4981  1.2467 -0.6065
 7196TIP3    H221553   0.541   6.324   1.359 -0.4324  0.4243 -0.4526
 7197TIP3   OH221554   7.113   3.942   0.336  0.2437 -0.0993 -0.0067
 7197TIP3    H121555   7.092   3.947   0.243 -1.4602 -0.7704  0.3095
 7197TIP3    H221556   7.195   3.894   0.340  1.2693  1.4548 -1.2412
 7198TIP3   OH221557   2.368   3.736   3.256 -0.0125 -0.5551  0.7285
 7198TIP3    H121558   2.325   3.758   3.173  2.0653 -2.5854 -1.0127
 7198TIP3    H221559   2.428   3.808   3.272  1.2885 -1.1933 -0.8921
 7199TIP3   OH221560   3.239   0.655   1.739 -0.2075 -0.4290 -0.0859
 7199TIP3    H121561   3.192   0.738   1.746 -0.9771 -0.7973 -0.7618
 7199TIP3    H221562   3.224   0.612   1.823 -1.1589 -0.5708 -0.3169
 7200TIP3   OH221563   1.694   6.389   3.771 -0.1455  0.0776 -0.3912
 7200TIP3    H121564   1.781   6.421   3.747 -0.0791 -1.3095 -2.2308
 7200TIP3    H221565   1.634   6.442   3.719 -0.3411  0.2341 -0.0125
 7201TIP3   OH221566   5.755   2.960   2.302  0.1264 -0.0504 -0.0952
 7201TIP3    H121567   5.822   3.028   2.311  0.4978 -0.3229 -0.7284
 7201TIP3    H221568   5.720   2.972   2.213 -1.2693  0.6230  0.5095
 7202TIP3   OH221569   5.475   0.690   3.768 -0.5861  0.1063 -0.1249
 7202TIP3    H121570   5.559   0.648   3.750  0.1670  1.0650  1.0229
 7202TIP3    H221571   5.485   0.779   3.732 -0.5856  0.6660  1.2081
 7203TIP3   OH221572   0.425   1.855   2.637 -0.4451 -0.1422 -0.0525
 7203TIP3    H121573   0.389   1.768   2.656 -1.0744  0.4722  1.8245
 7203TIP3    H221574   0.483   1.873   2.711 -0.8287  1.2837 -0.0756
 7204TIP3   OH221575   7.061   6.300   4.437  0.1683  0.4282 -0.3037
 7204TIP3    H121576   7.135   6.241   4.421  0.9222  1.1828  0.3045
 7204TIP3    H221577   7.044   6.291   4.531  0.1479  1.0101 -0.2495
 7205TIP3   OH221578   4.388   4.425   2.595 -0.6092 -0.2428 -0.5630
 7205TIP3    H121579   4.407   4.392   2.507 -1.2882 -1.4105 -0.2879
 7205TIP3    H221580   4.380   4.520   2.584 -0.6028 -0.3641 -1.7419
 7206TIP3   OH221581   2.056   2.681   1.490  0.0867  0.3184 -0.4874
 7206TIP3    H121582   2.141   2.725   1.499 -0.2869  0.7611  1.1469
 7206TIP3    H221583   1.993   2.751   1.475 -0.3903  0.3305  1.3016
 7207TIP3   OH221584   4.402   2.150   0.106 -0.1342 -0.0090  0.5074
 7207TIP3    H121585   4.326   2.101   0.136 -0.5016  0.4614  0.3685
 7207TIP3    H221586   4.475   2.113   0.154 -0.6487  0.4349  1.6634
 7208TIP3   OH221587   1.310   3.583   2.617  0.2206  0.2798 -0.1243
 7208TIP3    H121588   1.285   3.658   2.672  0.3853  0.8239 -0.7693
 7208TIP3    H221589   1.400   3.601   2.592  0.8625 -1.0215  1.1192
 7209TIP3   OH221590   6.789   1.927   0.146 -0.0551 -0.4668 -0.3762
 7209TIP3    H121591   6.728   1.967   0.207  1.4209  1.2848  0.0460
 7209TIP3    H221592   6.734   1.873   0.089 -1.7636 -0.2137  0.9433
 7210TIP3   OH221593   7.072   4.432   3.671  0.2347  0.2304 -0.3542
 7210TIP3    H121594   7.150   4.485   3.692  0.1514  0.6108 -0.9682
 7210TIP3    H221595   7.000   4.481   3.710  0.2639  0.0672 -0.0962
 7211TIP3   OH221596   1.147   0.856   1.057  0.4890  0.2168  0.5273
 7211TIP3    H121597   1.127   0.781   1.001  2.8068  0.5812 -0.9210
 7211TIP3    H221598   1.130   0.933   1.002  1.3700  0.6336  0.8151
 7212TIP3   OH221599   6.281   4.403   2.186  0.2867  0.1862  0.1146
 7212TIP3    H121600   6.327   4.416   2.104  1.5889 -2.6322  0.2734
 7212TIP3    H221601   6.350   4.397   2.252 -0.4960 -0.8432  0.8873
 7213TIP3   OH221602   2.436   6.444   0.227 -0.1394 -0.5137 -0.3043
 7213TIP3    H121603   2.395   6.452   0.141  0.8921 -1.0237 -0.8565
 7213TIP3    H221604   2.382   6.379   0.273 -2.0720  1.4028  0.3104
 7214TIP3   OH221605   4.360   6.718   0.975 -0.0947 -0.2219  0.5012
 7214TIP3    H121606   4.283   6.716   0.919  0.4555 -1.0334 -0.2522
 7214TIP3    H221607   4.350   6.642   1.032 -0.5304  0.4624  1.3774
 7215TIP3   OH221608   3.760   5.316   4.549 -0.0657 -0.5906  0.0872
 7215TIP3    H121609   3.841   5.347   4.590  1.3681 -3.4248 -0.3383
 7215TIP3    H221610   3.769   5.221   4.548 -4.9827 -1.4176  3.1187
 7216TIP3   OH221611   6.501   0.472   2.441  0.0752  0.2554  0.6609
 7216TIP3    H121612   6.488   0.396   2.384 -1.2607  0.8679  0.1234
 7216TIP3    H221613   6.454   0.450   2.521 -0.0842  0.4109  0.6082
 7217TIP3   OH221614   5.414   4.877   5.464  0.3371 -0.4032 -0.2828
 7217TIP3    H121615   5.509   4.869   5.470  0.2928 -1.1350 -0.4267
 7217TIP3    H221616   5.395   4.966   5.494  1.0824 -0.1861 -0.4421
 7218TIP3   OH221617   4.142   0.992   3.102 -0.7112  0.3778 -0.3108
 7218TIP3    H121618   4.186   0.954   3.026 -1.9726 -2.0301  0.0497
 7218TIP3    H221619   4.084   1.059   3.066  0.3877  0.9050 -1.1735
 7219TIP3   OH221620   3.566   4.300   3.368  0.2059 -0.1534  0.1427
 7219TIP3    H121621   3.566   4.381   3.316 -1.0663 -0.6531 -0.6969
 7219TIP3    H221622   3.544   4.328   3.456 -0.0957  0.4483 -0.1144
 7220TIP3   OH221623   2.275   0.134   4.397 -0.1821  0.6007  0.0168
 7220TIP3    H121624   2.236   0.062   4.446 -2.3977  0.9468 -1.1084
 7220TIP3    H221625   2.355   0.097   4.360  1.8274  0.4313  4.0237
 7221TIP3   OH221626   3.149   1.337   4.271 -0.5583 -0.0221 -0.8431
 7221TIP3    H121627   3.188   1.409   4.221  0.3102 -0.6995 -1.1572
 7221TIP3    H221628   3.079   1.304   4.215  1.1134 -1.4863 -2.1368
 7222TIP3   OH221629   3.788   6.524   5.763 -0.0214  0.1974 -0.3172
 7222TIP3    H121630   3.874   6.483   5.755  0.5443  0.8335  1.7830
 7222TIP3    H221631   3.734   6.458   5.806 -0.4037  0.0522 -1.0075
 7223TIP3   OH221632   1.484   5.210   5.662  0.1803 -0.2153 -0.0817
 7223TIP3    H121633   1.488   5.114   5.656 -0.8366 -0.2461 -0.3270
 7223TIP3    H221634   1.552   5.239   5.600  2.1209 -0.7717  1.6596
 7224TIP3   OH221635   0.387   6.255   3.824 -0.4080  0.1370 -0.3734
 7224TIP3    H121636   0.301   6.275   3.788  0.0022  3.7276  0.1933
 7224TIP3    H221637   0.443   6.242   3.747 -0.6449  2.3419 -1.0087
 7225TIP3   OH221638   6.147   4.112   0.790 -0.4292 -1.6731  0.3918
 7225TIP3    H121639   6.153   4.090   0.698  0.7541 -2.6006  0.6604
 7225TIP3    H221640   6.058   4.089   0.815 -0.5469 -2.0568 -0.3584
 7226TIP3   OH221641   0.130   0.555   3.147  0.0264 -0.0695  0.6776
 7226TIP3    H121642   0.063   0.623   3.151  0.6203  0.5047  1.1512
 7226TIP3    H221643   0.165   0.550   3.236  0.0450 -0.9453  0.6296
 7227TIP3   OH221644   3.067   3.888   1.318 -0.1362 -0.5519 -0.0209
 7227TIP3    H121645   3.093   3.851   1.402  3.8376 -0.7585 -1.1231
 7227TIP3    H221646   3.098   3.979   1.321  0.0077 -0.5443 -1.2244
 7228TIP3   OH221647   6.687   1.267   0.153 -0.4363  0.0966 -0.6852
 7228TIP3    H121648   6.675   1.231   0.241 -0.7467  1.0207 -0.3313
 7228TIP3    H221649   6.761   1.327   0.161 -1.4557  1.4008 -0.6412
 7229TIP3   OH221650   3.590   2.359   1.493  0.5040  0.3716 -0.4109
 7229TIP3    H121651   3.575   2.359   1.399 -0.9042  0.6527 -0.2021
 7229TIP3    H221652   3.651   2.286   1.507  0.3877  0.0485 -1.4809
 7230TIP3   OH221653   2.265   3.017   1.359 -0.5371 -0.2440 -0.1942
 7230TIP3    H121654   2.296   3.104   1.332  1.3625 -0.5722  0.6926
 7230TIP3    H221655   2.170   3.023   1.356 -0.4836  2.0915  0.4606
 7231TIP3   OH221656   5.433   5.677   4.372 -0.4886  0.4108 -0.1064
 7231TIP3    H121657   5.495   5.641   4.308 -0.2190 -2.0771  1.4243
 7231TIP3    H221658   5.480   5.674   4.455 -1.2812  2.3922  0.4676
 7232TIP3   OH221659   5.723   5.769   0.012  0.6416 -0.3405  0.7410
 7232TIP3    H121660   5.789   5.833  -0.015 -0.1025  0.7206  1.3656
 7232TIP3    H221661   5.744   5.750   0.103  0.7186 -0.8124  0.6251
 7233TIP3   OH221662   3.395   1.133   5.484  0.1089 -0.3080  0.5409
 7233TIP3    H121663   3.434   1.204   5.535 -1.6234  0.7593  0.4639
 7233TIP3    H221664   3.312   1.115   5.527  0.6650 -2.5907  0.7631
 7234TIP3   OH221665   3.742   0.761   5.266 -0.3363  0.7118  0.6000
 7234TIP3    H121666   3.757   0.766   5.171 -1.1515 -0.1945  0.4133
 7234TIP3    H221667   3.829   0.745   5.303 -0.2294 -0.4980 -0.1327
 7235TIP3   OH221668   6.727   4.817   2.653 -0.0811  0.1077  0.1761
 7235TIP3    H121669   6.666   4.823   2.580  1.1216 -1.8211 -1.0815
 7235TIP3    H221670   6.720   4.726   2.683  2.0256 -0.1516  0.0423
 7236TIP3   OH221671   1.387   3.891   2.311  0.2752  0.4655 -0.0858
 7236TIP3    H121672   1.428   3.920   2.230  2.3760  0.8662  1.0438
 7236TIP3    H221673   1.304   3.939   2.315  0.8932  1.6774 -1.2046
 7237TIP3   OH221674   0.321   6.375   0.755 -0.5512  0.2073  0.0406
 7237TIP3    H121675   0.357   6.380   0.844  0.1448 -0.2991 -0.1992
 7237TIP3    H221676   0.357   6.452   0.711 -2.4151  1.5223  0.7018
 7238TIP3   OH221677   0.811   6.154   5.111  0.4220  0.4233 -0.3198
 7238TIP3    H121678   0.837   6.243   5.135  3.7025 -0.8955  1.7178
 7238TIP3    H221679   0.830   6.148   5.017  1.1348  1.5983 -0.2728
 7239TIP3   OH221680   2.588   6.431   2.581  0.3563  0.1024 -1.0896
 7239TIP3    H121681   2.532   6.457   2.654 -0.8393 -1.5903 -1.3325
 7239TIP3    H221682   2.675   6.465   2.604 -0.7518  3.0641 -0.8404
 7240TIP3   OH221683   6.487   4.237   2.498  0.2285  0.1318 -0.9548
 7240TIP3    H121684   6.538   4.193   2.566 -0.4600  0.7595 -0.0115
 7240TIP3    H221685   6.496   4.180   2.421 -0.8154 -1.7988  0.2589
 7241TIP3   OH221686   0.995   5.783   5.758  0.9170  0.4313 -0.5992
 7241TIP3    H121687   1.013   5.720   5.828 -2.0886 -0.0609 -0.1497
 7241TIP3    H221688   1.019   5.867   5.795 -3.6159  0.6508  2.5109
 7242TIP3   OH221689   3.044   3.597   5.432 -0.2181  0.3693  0.4717
 7242TIP3    H121690   3.118   3.641   5.475  0.4008 -1.0002  0.8722
 7242TIP3    H221691   3.081   3.563   5.351 -1.0027  1.6172 -0.4417
 7243TIP3   OH221692   2.389   3.113   2.833  0.2929 -0.3308  0.0235
 7243TIP3    H121693   2.437   3.097   2.752  0.5426  1.8367 -0.3087
 7243TIP3    H221694   2.357   3.202   2.825 -1.1504 -0.6511  1.6004
 7244TIP3   OH221695   4.643   0.648   3.957  0.3752 -0.2045  0.2775
 7244TIP3    H121696   4.627   0.583   3.888  2.1399 -1.7239  1.2213
 7244TIP3    H221697   4.558   0.660   3.999 -0.2640 -0.8977 -0.7789
 7245TIP3   OH221698   3.719   0.135   1.694  0.1196  0.3370 -0.1955
 7245TIP3    H121699   3.699   0.042   1.684  0.5133  0.3210 -0.8723
 7245TIP3    H221700   3.679   0.159   1.777 -1.1584 -0.1146 -0.6634
 7246TIP3   OH221701   2.571   6.244   3.073 -0.0447  0.5593 -0.0446
 7246TIP3    H121702   2.504   6.312   3.076 -0.5746  0.0005  1.2771
 7246TIP3    H221703   2.532   6.169   3.117  1.0451 -0.1411 -0.2286
 7247TIP3   OH221704   2.719   0.415   0.823  0.1559  0.7855  0.4129
 7247TIP3    H121705   2.689   0.342   0.877  0.2408  0.7617  0.4280
 7247TIP3    H221706   2.802   0.441   0.862 -0.4479  1.6666  1.1331
 7248TIP3   OH221707   4.014   1.207   4.077 -0.5645  0.0642 -0.1831
 7248TIP3    H121708   4.057   1.134   4.034  0.4954 -0.0264  0.9537
 7248TIP3    H221709   4.012   1.276   4.011 -0.7386 -0.6742 -0.9732
 7249TIP3   OH221710   4.749   5.680   3.718 -0.0758  0.1736 -0.1454
 7249TIP3    H121711   4.689   5.607   3.698  1.4747 -0.6429 -2.2314
 7249TIP3    H221712   4.703   5.757   3.684  0.9820 -0.7648 -4.3857
 7250TIP3   OH221713   4.888   0.423   1.137  0.4894 -0.5441 -0.5074
 7250TIP3    H121714   4.797   0.398   1.118  0.5044 -0.4383 -0.7202
 7250TIP3    H221715   4.941   0.354   1.098  0.5096 -0.4663 -0.6200
 7251TIP3   OH221716   1.015   0.387   2.925 -0.3911 -0.1199 -0.3759
 7251TIP3    H121717   0.939   0.444   2.928  0.3085  0.8304 -0.1560
 7251TIP3    H221718   0.979   0.300   2.912 -1.6176  0.0984  1.1811
 7252TIP3   OH221719   5.676   1.700   5.239  0.1510  0.5874 -0.4690
 7252TIP3    H121720   5.735   1.694   5.164  0.7215 -0.6208  0.0536
 7252TIP3    H221721   5.591   1.722   5.202  0.5762  0.6858 -1.3980
 7253TIP3   OH221722   1.589   4.482   4.649 -0.0405 -0.1532  0.1280
 7253TIP3    H121723   1.562   4.536   4.575  1.9379  0.4944 -0.1811
 7253TIP3    H221724   1.670   4.522   4.680  1.1255 -2.5085  0.3519
 7254TIP3   OH221725   3.078   0.810   5.806  0.4597 -0.3341  0.4249
 7254TIP3    H121726   3.008   0.764   5.758 -0.6428 -1.3501  2.8245
 7254TIP3    H221727   3.032   0.853   5.878  2.1626  0.1335  1.2639
 7255TIP3   OH221728   4.836   0.079   1.977 -0.1532  0.2620 -0.0825
 7255TIP3    H121729   4.811   0.001   2.026 -1.3728  1.0827  0.6617
 7255TIP3    H221730   4.917   0.108   2.017  0.5391 -0.8294 -0.6390
 7256TIP3   OH221731   2.649   0.408   5.432 -0.1457 -0.0988  0.4687
 7256TIP3    H121732   2.643   0.317   5.463  0.3834 -0.0689  0.6649
 7256TIP3    H221733   2.737   0.436   5.457 -0.3781  0.5344  0.5777
 7257TIP3   OH221734   1.490   3.773   5.413  0.3793 -0.7250  0.3828
 7257TIP3    H121735   1.539   3.706   5.462  1.5161 -0.4635 -0.3659
 7257TIP3    H221736   1.518   3.762   5.323 -1.3793 -0.9177 -0.1734
 7258TIP3   OH221737   4.530   2.942   3.082  0.6960  0.4559  0.4375
 7258TIP3    H121738   4.505   2.897   3.163  1.3725  1.1757  1.0608
 7258TIP3    H221739   4.625   2.930   3.076  0.7258  0.8577  0.0305
 7259TIP3   OH221740   6.999   2.240   1.082  0.2757  0.2022 -0.0047
 7259TIP3    H121741   7.020   2.148   1.067  0.8616  0.2916  0.2652
 7259TIP3    H221742   6.908   2.248   1.052  0.3047 -0.3999 -0.2793
 7260TIP3   OH221743   6.129   6.059   2.395 -0.0962 -0.6911 -0.2991
 7260TIP3    H121744   6.171   6.013   2.322  3.4775  1.8008 -0.0689
 7260TIP3    H221745   6.104   6.144   2.358 -2.0677 -0.9173  0.4354
 7261TIP3   OH221746   2.412   3.525   2.416 -0.0148 -0.3437  0.0550
 7261TIP3    H121747   2.438   3.614   2.439  0.8236 -0.7617  0.7345
 7261TIP3    H221748   2.494   3.477   2.405 -0.3297 -0.3864 -3.1253
 7262TIP3   OH221749   1.398   0.866   5.383 -0.2520  0.0522 -0.4491
 7262TIP3    H121750   1.333   0.878   5.453 -0.5467 -1.5777 -0.4016
 7262TIP3    H221751   1.347   0.874   5.302 -0.2390  0.1834 -0.4452
 7263TIP3   OH221752   6.189   6.599   0.723 -0.4858 -0.0179  0.3999
 7263TIP3    H121753   6.143   6.574   0.804  0.9934 -0.6139  1.0860
 7263TIP3    H221754   6.261   6.654   0.752  0.4919 -0.8347 -0.4324
 7264TIP3   OH221755   1.032   1.109   4.531 -0.0107 -0.2936 -0.1380
 7264TIP3    H121756   0.988   1.183   4.572  1.0116  0.0319  0.4110
 7264TIP3    H221757   1.104   1.089   4.590 -0.0491 -1.4887 -0.4785
 7265TIP3   OH221758   6.815   3.372   1.684  0.1502 -0.4147  0.1641
 7265TIP3    H121759   6.818   3.298   1.744 -1.3049 -1.9125 -1.4969
 7265TIP3    H221760   6.723   3.379   1.658 -0.2568  3.4031  1.8370
 7266TIP3   OH221761   5.875   5.054   0.144  0.0014  0.1093  0.2635
 7266TIP3    H121762   5.884   5.088   0.055 -2.1558 -0.8200 -0.3879
 7266TIP3    H221763   5.951   5.088   0.191  1.3161  0.4587 -1.9760
 7267TIP3   OH221764   4.937   1.795   0.305 -0.0577 -0.0423 -0.6362
 7267TIP3    H121765   4.940   1.882   0.264 -0.5655 -0.2186 -1.0574
 7267TIP3    H221766   4.992   1.804   0.383  1.0806  0.2595 -1.4367
 7268TIP3   OH221767   5.289   3.466   3.067 -0.0835 -0.5464 -0.0384
 7268TIP3    H121768   5.245   3.381   3.069 -0.6622 -0.2478  0.5262
 7268TIP3    H221769   5.301   3.488   3.159 -1.2695  0.6470 -0.1464
 7269TIP3   OH221770   1.010   2.344   3.600  0.0650  1.0012 -0.0640
 7269TIP3    H121771   0.957   2.424   3.604 -0.2703  0.7639  0.3607
 7269TIP3    H221772   1.100   2.375   3.590 -0.1847  1.4024 -1.2505
 7270TIP3   OH221773   2.282   3.374   4.670 -0.4297  0.1118 -0.1054
 7270TIP3    H121774   2.318   3.292   4.704 -0.9859  0.9810  2.9072
 7270TIP3    H221775   2.356   3.435   4.672 -0.5420  0.2524 -0.2247
 7271TIP3   OH221776   5.404   3.887   2.378  0.0247  0.9222 -0.5036
 7271TIP3    H121777   5.406   3.824   2.450 -1.1888 -0.8405 -1.9330
 7271TIP3    H221778   5.347   3.958   2.410 -2.0020 -0.6940 -0.3513
 7272TIP3   OH221779   4.328   5.028   3.865  0.3746  0.3788  0.1018
 7272TIP3    H121780   4.357   4.957   3.808 -0.4600 -0.1738  0.3508
 7272TIP3    H221781   4.388   5.023   3.940 -0.0767 -0.4991  0.4274
 7273TIP3   OH221782   4.309   5.855   0.922  0.1626 -0.1681 -0.2764
 7273TIP3    H121783   4.285   5.763   0.931  0.9207 -0.2552  1.1247
 7273TIP3    H221784   4.395   5.862   0.964 -0.8093  1.5930  1.6130
 7274TIP3   OH221785   7.118   4.856   0.319  0.2984  0.2599  0.3203
 7274TIP3    H121786   7.022   4.855   0.314  0.2914 -2.7968 -1.2235
 7274TIP3    H221787   7.137   4.885   0.409 -2.0975 -0.1361  1.0264
 7275TIP3   OH221788   4.465   6.805   1.569 -0.2172  0.2371  0.3686
 7275TIP3    H121789   4.473   6.711   1.554 -0.3613  0.3220 -0.2714
 7275TIP3    H221790   4.523   6.823   1.643 -0.6797 -0.4532  0.8998
 7276TIP3   OH221791   6.861   5.759   3.448 -0.5484  0.6523  0.5969
 7276TIP3    H121792   6.852   5.672   3.411  0.5620  0.8293 -0.1420
 7276TIP3    H221793   6.791   5.810   3.407 -1.6151 -0.0344  1.5310
 7277TIP3   OH221794   3.690   1.659   1.548 -0.3453  0.2664 -0.3552
 7277TIP3    H121795   3.716   1.573   1.581 -2.2858 -0.0098  0.5887
 7277TIP3    H221796   3.708   1.719   1.619  0.4710  0.5573 -0.8025
 7278TIP3   OH221797   3.856   4.837   1.707  0.7063  0.3440 -0.4391
 7278TIP3    H121798   3.856   4.742   1.693 -1.7272 -0.0035  1.2440
 7278TIP3    H221799   3.908   4.849   1.786 -0.8572  0.0588  0.6934
 7279TIP3   OH221800   4.136   3.289   2.064  0.1843  0.2506  0.2549
 7279TIP3    H121801   4.112   3.375   2.097 -0.6960 -0.0280  0.3776
 7279TIP3    H221802   4.231   3.292   2.054  0.1352  1.3054  0.0406
 7280TIP3   OH221803   2.114   0.743   3.431  0.1676 -0.0416  0.2636
 7280TIP3    H121804   2.081   0.674   3.374  0.3629  2.8022 -3.6937
 7280TIP3    H221805   2.035   0.784   3.467 -0.1321 -0.0333 -0.3845
 7281TIP3   OH221806   0.225   1.067   1.986  0.1266  0.1755  0.2100
 7281TIP3    H121807   0.243   1.153   2.023 -2.9900  0.6922  0.7843
 7281TIP3    H221808   0.195   1.015   2.061 -1.3522 -0.3257 -0.6971
 7282TIP3   OH221809   6.199   5.034   4.398  0.3688  0.1266 -0.1930
 7282TIP3    H121810   6.220   5.010   4.489 -1.5571 -0.9042  0.0464
 7282TIP3    H221811   6.253   4.977   4.345  0.4504 -0.3055  0.3394
 7283TIP3   OH221812   6.409   1.503   1.380  0.4602  0.7712 -0.0008
 7283TIP3    H121813   6.317   1.517   1.360  0.3077 -2.6333 -2.5024
 7283TIP3    H221814   6.409   1.483   1.474 -1.5292 -0.1627 -0.1374
 7284TIP3   OH221815   5.093   5.706   0.612 -0.5888  0.3449  0.4981
 7284TIP3    H121816   5.144   5.685   0.534  0.8927 -1.4507  1.8620
 7284TIP3    H221817   5.005   5.675   0.592 -0.1529 -0.3810 -0.3403
 7285TIP3   OH221818   4.823   1.529   0.323 -0.1192 -0.3058  0.1774
 7285TIP3    H121819   4.875   1.609   0.313 -0.3694  0.0280  1.3080
 7285TIP3    H221820   4.883   1.458   0.301 -0.2127  0.2203 -1.9481
 7286TIP3   OH221821   4.251   4.349   1.653  0.3759 -0.9529 -0.7497
 7286TIP3    H121822   4.193   4.403   1.707  1.0552 -0.7389 -0.2297
 7286TIP3    H221823   4.220   4.260   1.667  1.8100 -1.1730  1.6721
 7287TIP3   OH221824   4.585   5.870   4.574  0.2299  0.2281 -0.2112
 7287TIP3    H121825   4.504   5.921   4.574  0.9383  1.4411 -1.5314
 7287TIP3    H221826   4.602   5.853   4.481  1.6939  0.3402  0.0169
 7288TIP3   OH221827   6.611   1.544   0.276 -0.7517  0.2850  0.1021
 7288TIP3    H121828   6.546   1.524   0.209 -1.1312  1.1216  0.2043
 7288TIP3    H221829   6.685   1.582   0.228 -0.0834 -1.1542 -0.0773
 7289TIP3   OH221830   0.717   3.287   5.392 -0.0450 -0.2564 -0.0819
 7289TIP3    H121831   0.759   3.283   5.478 -1.8283  0.3565  0.8647
 7289TIP3    H221832   0.699   3.196   5.369  0.5649 -0.4309  0.1006
 7290TIP3   OH221833   4.067   0.459   2.710 -0.5264  0.2299  0.6089
 7290TIP3    H121834   4.149   0.409   2.700 -0.4888 -0.0584  2.1207
 7290TIP3    H221835   4.045   0.487   2.621 -0.3206 -2.1196 -0.2568
 7291TIP3   OH221836   4.444   3.191   3.356 -0.0291  0.5377 -0.4846
 7291TIP3    H121837   4.384   3.167   3.426  1.3889  0.8882  0.9288
 7291TIP3    H221838   4.423   3.131   3.284  0.6057 -2.1497  1.4158
 7292TIP3   OH221839   5.101   1.281   1.709 -0.2764  0.0630 -0.5777
 7292TIP3    H121840   5.138   1.249   1.627  0.5852  0.5772 -0.4048
 7292TIP3    H221841   5.086   1.374   1.694 -0.9092 -0.0120 -0.4271
 7293TIP3   OH221842   2.902   2.956   1.889  0.3450 -0.2735 -0.2042
 7293TIP3    H121843   2.971   2.997   1.941  0.6414  1.1041 -1.6028
 7293TIP3    H221844   2.825   2.958   1.945  1.0719 -0.4894  0.8375
 7294TIP3   OH221845   4.467   6.656   0.167 -0.3071  0.6847  0.1710
 7294TIP3    H121846   4.453   6.626   0.257  0.1942 -0.5954 -0.1582
 7294TIP3    H221847   4.380   6.664   0.130 -0.4601 -0.9838  0.0960
 7295TIP3   OH221848   5.431   5.283   0.707  0.3032  0.5127 -0.2819
 7295TIP3    H121849   5.353   5.253   0.660  0.6217 -1.2567  0.2392
 7295TIP3    H221850   5.484   5.327   0.641 -0.9926  1.4896 -0.7077
 7296TIP3   OH221851   0.855   6.540   3.631 -0.0518 -0.8753  0.2663
 7296TIP3    H121852   0.792   6.560   3.562 -0.6124  0.0639  1.0208
 7296TIP3    H221853   0.802   6.511   3.705  0.4809 -1.1389  0.5502
 7297TIP3   OH221854   0.200   3.080   5.766 -0.6507 -0.0549 -0.5633
 7297TIP3    H121855   0.150   3.137   5.707 -1.2808  0.7890  0.7342
 7297TIP3    H221856   0.276   3.132   5.790  0.1501 -0.8015 -1.4306
 7298TIP3   OH221857   6.422   5.438   2.741  0.4149 -0.2508  0.0707
 7298TIP3    H121858   6.364   5.378   2.789 -2.1125  2.4231  0.6472
 7298TIP3    H221859   6.386   5.441   2.653 -0.3028  1.3072  0.3876
 7299TIP3   OH221860   5.299   1.226   5.602 -0.5811 -0.2522 -0.0120
 7299TIP3    H121861   5.337   1.284   5.535  3.2599 -2.0136  0.3362
 7299TIP3    H221862   5.317   1.138   5.569 -1.3384 -1.1882  1.9447
 7300TIP3   OH221863   4.446   1.017   3.335 -0.1209 -0.1695  0.6748
 7300TIP3    H121864   4.449   0.929   3.299  0.1898  0.5153 -1.0664
 7300TIP3    H221865   4.363   1.021   3.382 -1.4952 -0.5535 -1.5685
 7301TIP3   OH221866   6.792   2.837   0.488  0.0759  0.0391  0.2165
 7301TIP3    H121867   6.737   2.915   0.480 -1.0229 -0.8368 -1.3631
 7301TIP3    H221868   6.869   2.856   0.434 -0.7780 -0.3976 -1.2274
 7302TIP3   OH221869   2.390   4.632   0.073  0.3264 -0.2303 -0.3711
 7302TIP3    H121870   2.403   4.725   0.092 -2.3989  0.6981 -2.4191
 7302TIP3    H221871   2.311   4.608   0.121  1.1757 -1.6117  0.3805
 7303TIP3   OH221872   5.188   6.258   3.950  0.8188 -0.2149  0.1088
 7303TIP3    H121873   5.125   6.329   3.960 -0.1003 -1.0091  0.1412
 7303TIP3    H221874   5.201   6.226   4.039  1.7583  0.3461  0.1794
 7304TIP3   OH221875   1.507   4.970   0.313 -0.3101 -0.2243  0.4865
 7304TIP3    H121876   1.487   5.054   0.352 -1.6211 -0.8373  1.2127
 7304TIP3    H221877   1.527   4.990   0.221 -0.0203  0.9219  0.7905
 7305TIP3   OH221878   0.852   1.933   2.929 -0.0652  0.3173  0.3268
 7305TIP3    H121879   0.882   1.968   3.012  0.5603 -0.6089  0.5197
 7305TIP3    H221880   0.933   1.907   2.884 -0.4468 -0.0297 -0.1737
 7306TIP3   OH221881   1.509   3.672   1.989  0.5625  0.0455  0.6354
 7306TIP3    H121882   1.467   3.743   2.037  0.8919  0.8245 -0.2120
 7306TIP3    H221883   1.574   3.715   1.933  0.3495 -0.8589 -0.3440
 7307TIP3   OH221884   0.560   0.935   4.259  0.0337  0.1411 -0.0570
 7307TIP3    H121885   0.617   0.886   4.318  1.3574  1.0961 -0.4970
 7307TIP3    H221886   0.516   0.868   4.208 -0.9525 -0.6951  1.8095
 7308TIP3   OH221887   0.672   0.385   2.408 -0.7188  0.2098  0.3673
 7308TIP3    H121888   0.606   0.445   2.374 -1.9378 -0.7322  0.9801
 7308TIP3    H221889   0.723   0.437   2.470 -1.9118  0.5595  1.0755
 7309TIP3   OH221890   0.922   4.104   0.269 -0.3056  0.0214 -0.1087
 7309TIP3    H121891   0.982   4.172   0.239  0.1477  0.0956  0.9333
 7309TIP3    H221892   0.857   4.097   0.199  0.9092 -0.0582 -1.2615
 7310TIP3   OH221893   6.519   0.010   2.373  0.2593 -0.5769  0.8505
 7310TIP3    H121894   6.481   0.097   2.363  0.0893 -0.7021  0.3878
 7310TIP3    H221895   6.463  -0.033   2.438  0.2588 -0.3966  0.9735
 7311TIP3   OH221896   4.303   3.671   5.781  0.2613 -0.1699  0.3920
 7311TIP3    H121897   4.318   3.735   5.711 -1.8029 -2.0755 -1.9489
 7311TIP3    H221898   4.209   3.656   5.780  0.3727 -1.4602  2.5780
 7312TIP3   OH221899   4.286   4.475   0.795  0.7585  0.0656  0.1166
 7312TIP3    H121900   4.217   4.425   0.839  1.1690  0.4850  1.2859
 7312TIP3    H221901   4.253   4.565   0.794  1.9856  0.6332  2.3532
 7313TIP3   OH221902   1.199   0.910   5.189  0.2747  0.0474 -0.4848
 7313TIP3    H121903   1.173   1.002   5.181  0.3936  0.3122  1.5558
 7313TIP3    H221904   1.124   0.867   5.230  0.3365 -0.7272 -1.1441
 7314TIP3   OH221905   2.875   6.229   0.235 -0.3764 -0.1424 -0.3472
 7314TIP3    H121906   2.934   6.189   0.299  0.9489  2.4941  0.2360
 7314TIP3    H221907   2.808   6.272   0.288  1.3993  3.0932 -0.4549
 7315TIP3   OH221908   3.025   5.826   2.932  0.6177  0.0910  0.1728
 7315TIP3    H121909   3.019   5.731   2.942  0.3838  0.2040  1.1320
 7315TIP3    H221910   2.965   5.845   2.859  0.3429 -0.4429  0.2498
 7316TIP3   OH221911   1.733   2.835   0.144 -0.3026  0.1693  0.0048
 7316TIP3    H121912   1.814   2.797   0.111 -0.4396 -0.2206  0.1159
 7316TIP3    H221913   1.706   2.778   0.216 -0.2849  0.7208  0.4587
 7317TIP3   OH221914   3.423   2.744   4.922 -0.6776  0.0652 -0.2431
 7317TIP3    H121915   3.421   2.829   4.967 -0.8698  0.2414 -0.5884
 7317TIP3    H221916   3.466   2.686   4.985 -0.5277  0.4205 -0.0114
 7318TIP3   OH221917   7.025   1.520   1.304 -0.1854 -0.1924 -0.5233
 7318TIP3    H121918   7.015   1.452   1.238 -1.8796  0.3068 -0.8459
 7318TIP3    H221919   7.043   1.473   1.385 -0.1093 -0.9401 -0.9672
 7319TIP3   OH221920   2.765   1.126   2.480 -0.3510 -0.2180 -0.3200
 7319TIP3    H121921   2.711   1.204   2.490  0.0861  0.2657 -1.5087
 7319TIP3    H221922   2.731   1.064   2.545 -0.8684  0.8605  0.4608
 7320TIP3   OH221923   5.433   2.587   3.405  0.5799 -0.2166  0.1128
 7320TIP3    H121924   5.446   2.581   3.500  0.4306 -1.7229  0.0634
 7320TIP3    H221925   5.477   2.668   3.380  2.2521 -0.7311  1.2054
 7321TIP3   OH221926   1.521   5.861   0.893  0.0003  0.3097 -0.1026
 7321TIP3    H121927   1.472   5.939   0.917 -0.6587 -0.2858  0.5526
 7321TIP3    H221928   1.565   5.883   0.811 -3.2234  0.1240 -2.0282
 7322TIP3   OH221929   5.945   6.342   1.271  0.5890 -0.8340  0.0899
 7322TIP3    H121930   5.880   6.287   1.228  1.4853 -0.9742 -1.1495
 7322TIP3    H221931   5.962   6.299   1.354 -1.2920 -0.4832  0.7093
 7323TIP3   OH221932   0.307   5.496   2.140  0.6337  0.4019 -0.2009
 7323TIP3    H121933   0.279   5.478   2.051  2.8241 -1.4441 -0.6186
 7323TIP3    H221934   0.306   5.411   2.183 -1.0610  1.3497  1.8258
 7324TIP3   OH221935   3.123   5.845   4.088  0.4999 -0.0197 -0.4812
 7324TIP3    H121936   3.095   5.933   4.063  1.6138  0.7475  0.8665
 7324TIP3    H221937   3.143   5.851   4.181  0.9597 -1.6154 -0.4427
 7325TIP3   OH221938   0.969   0.749   5.763  0.2054  0.0459 -0.0538
 7325TIP3    H121939   0.950   0.806   5.838 -0.5871 -0.2127 -0.0426
 7325TIP3    H221940   1.047   0.700   5.789  1.4151  1.6988 -0.4035
 7326TIP3   OH221941   5.583   5.201   0.392  0.1124  0.1805  0.3182
 7326TIP3    H121942   5.580   5.216   0.298 -1.5017  1.3755  0.5194
 7326TIP3    H221943   5.560   5.108   0.403 -0.5612  0.2499 -0.4281
 7327TIP3   OH221944   1.680   2.648   0.365 -0.3832 -0.1256  0.5013
 7327TIP3    H121945   1.600   2.595   0.375 -0.5032 -0.0018  0.2136
 7327TIP3    H221946   1.751   2.586   0.379 -0.5295 -0.2529  0.6920
 7328TIP3   OH221947   6.050   6.511   3.759 -0.1446  0.0070 -0.6519
 7328TIP3    H121948   5.986   6.441   3.744 -1.9451  1.5964 -0.7514
 7328TIP3    H221949   6.009   6.590   3.723  1.3976  1.3158  0.2942
 7329TIP3   OH221950   2.568   2.501   0.467  0.0820 -0.2446 -0.0088
 7329TIP3    H121951   2.596   2.413   0.441  1.7997  0.1457  0.3629
 7329TIP3    H221952   2.504   2.487   0.536 -1.7786 -1.2285 -1.8130
 7330TIP3   OH221953   0.828   1.780   4.876 -0.1541 -0.2547  0.2527
 7330TIP3    H121954   0.797   1.772   4.966 -0.0454 -2.3326  0.1588
 7330TIP3    H221955   0.908   1.832   4.883 -1.7902  2.3395  0.9021
 7331TIP3   OH221956   1.013   1.033   1.475  0.2962 -0.0296  0.1071
 7331TIP3    H121957   1.041   1.095   1.408  0.3451 -0.3872 -0.2062
 7331TIP3    H221958   0.918   1.042   1.478  0.2741 -0.1665 -0.1621
 7332TIP3   OH221959   4.038   3.240   0.381 -0.1161  0.0296  0.7752
 7332TIP3    H121960   4.052   3.258   0.288  0.2486  1.2304  1.0425
 7332TIP3    H221961   4.118   3.272   0.423  0.1157 -1.3317  1.4239
 7333TIP3   OH221962   4.610   1.918   1.291  0.0018  0.4514 -0.4394
 7333TIP3    H121963   4.539   1.855   1.300  0.7317 -0.5189 -1.3268
 7333TIP3    H221964   4.614   1.962   1.376 -1.1885  0.0355 -0.1540
 7334TIP3   OH221965   0.971   3.344   1.310  0.4093 -0.1944 -0.5106
 7334TIP3    H121966   0.973   3.254   1.277  1.1633  0.1258 -1.3742
 7334TIP3    H221967   0.992   3.335   1.403 -0.1419 -0.9617 -0.4512
 7335TIP3   OH221968   2.497   2.200   5.322  0.5671 -0.2236  0.3838
 7335TIP3    H121969   2.414   2.207   5.368 -0.3541  1.8678 -1.4482
 7335TIP3    H221970   2.554   2.265   5.364 -0.6403  2.5427 -1.9423
 7336TIP3   OH221971   1.195   1.395   3.577  0.6565  0.3655  0.1485
 7336TIP3    H121972   1.195   1.466   3.513  1.8115  0.1017 -0.1619
 7336TIP3    H221973   1.116   1.410   3.629  0.6389  1.6104 -0.2036
 7337TIP3   OH221974   6.137   6.274   1.724 -0.1162 -0.2057  0.3415
 7337TIP3    H121975   6.227   6.304   1.739  0.1967 -1.5851  1.3960
 7337TIP3    H221976   6.122   6.208   1.792 -1.5776 -0.7361 -0.4604
 7338TIP3   OH221977   0.325   3.695   1.228 -0.2164  0.1951  0.2647
 7338TIP3    H121978   0.371   3.725   1.307 -2.5172  1.2634  1.2754
 7338TIP3    H221979   0.282   3.614   1.254 -2.0224  1.2052  0.5530
 7339TIP3   OH221980   7.123   6.211   3.474 -0.1554  0.1119 -0.3302
 7339TIP3    H121981   7.066   6.154   3.423 -2.8045  2.7145 -0.5463
 7339TIP3    H221982   7.105   6.299   3.441  2.5007  1.3205  1.0812
 7340TIP3   OH221983   1.792   3.945   5.450  0.2632 -0.1323  0.0722
 7340TIP3    H121984   1.797   3.870   5.390  0.7047  1.3594 -1.8324
 7340TIP3    H221985   1.822   4.019   5.398  1.8378  1.0641  2.5369
 7341TIP3   OH221986   1.415   3.934   1.138 -0.1293  0.1468 -0.1202
 7341TIP3    H121987   1.413   4.024   1.107  0.3850  0.5255  0.8964
 7341TIP3    H221988   1.498   3.899   1.106 -0.5860 -0.1611 -1.0019
 7342TIP3   OH221989   7.066   1.113   0.903 -0.0390  0.1116  0.5163
 7342TIP3    H121990   7.119   1.154   0.834 -2.9717  0.6574 -1.6503
 7342TIP3    H221991   7.013   1.048   0.856 -2.0900  0.4330  2.2347
 7343TIP3   OH221992   6.173   2.910   2.974  0.5376  0.5686 -0.1982
 7343TIP3    H121993   6.100   2.909   3.036  2.0321  0.9606  1.6200
 7343TIP3    H221994   6.159   2.830   2.921 -1.7034  1.1199 -0.5759
 7344TIP3   OH221995   3.948   2.602   4.981  0.1201 -0.1979  0.1340
 7344TIP3    H121996   3.991   2.583   5.065  0.5770 -1.2548 -0.3249
 7344TIP3    H221997   4.008   2.664   4.938 -1.0797  1.9615  1.3792
 7345TIP3   OH221998   5.312   0.024   2.618  0.2191 -0.0920  0.6795
 7345TIP3    H121999   5.262   0.082   2.675  0.8418  1.4501 -0.3050
 7345TIP3    H222000   5.248  -0.012   2.558 -0.0482  0.1995  0.7891
 7346TIP3   OH222001   5.838   0.947   3.259  1.2124 -0.3137  0.2479
 7346TIP3    H122002   5.878   0.968   3.174  0.2771 -0.3406 -0.2050
 7346TIP3    H222003   5.824   1.032   3.300  0.0042 -0.1860 -0.3997
 7347TIP3   OH222004   6.786   1.384   4.719 -0.3868  0.8331 -0.1836
 7347TIP3    H122005   6.752   1.436   4.791 -0.6461  3.2248 -1.9409
 7347TIP3    H222006   6.805   1.447   4.649  0.8977 -1.2316 -1.8393
 7348TIP3   OH222007   6.256   5.597   5.450 -0.0560  0.4295  0.0927
 7348TIP3    H122008   6.238   5.509   5.415  1.6837 -0.3844  1.0838
 7348TIP3    H222009   6.251   5.655   5.374  0.6862 -0.8415 -0.9805
 7349TIP3   OH222010   3.374   1.113   2.831  0.5326 -0.6303 -0.3560
 7349TIP3    H122011   3.382   1.114   2.735  0.9041 -0.2562 -0.3248
 7349TIP3    H222012   3.300   1.171   2.849  1.3290  0.4223 -0.3517
 7350TIP3   OH222013   1.202   5.396   2.555 -0.2054 -0.0062 -0.6949
 7350TIP3    H122014   1.263   5.333   2.516 -1.1809 -0.6627 -1.1966
 7350TIP3    H222015   1.151   5.344   2.618  1.2813  1.0049  1.4945
 7351TIP3   OH222016   3.904   0.490   0.028 -0.0977 -0.6706 -0.3248
 7351TIP3    H122017   3.944   0.544   0.096  0.0562  0.1303 -1.0342
 7351TIP3    H222018   3.903   0.402   0.065  0.4650 -0.3421  0.5056
 7352TIP3   OH222019   4.598   2.471   0.708 -0.0090  0.1705  0.1930
 7352TIP3    H122020   4.620   2.386   0.746 -0.3946  0.6174  1.4605
 7352TIP3    H222021   4.506   2.462   0.681 -0.3702  0.4969  1.2752
 7353TIP3   OH222022   1.855   5.809   5.432  0.1639  0.0878 -0.4936
 7353TIP3    H122023   1.931   5.819   5.490  1.1144 -0.2076 -1.6442
 7353TIP3    H222024   1.865   5.721   5.395 -1.1509 -0.2459 -0.1264
 7354TIP3   OH222025   5.556   0.583   2.378 -0.2161 -0.1233 -0.6719
 7354TIP3    H122026   5.512   0.534   2.447 -0.3270  0.0719 -0.6039
 7354TIP3    H222027   5.649   0.561   2.389 -0.3678 -1.2003 -1.3427
 7355TIP3   OH222028   5.030   5.295   1.287 -0.0714 -0.1261 -0.8708
 7355TIP3    H122029   4.934   5.303   1.287 -0.1792 -1.3761 -0.5443
 7355TIP3    H222030   5.050   5.260   1.200 -0.1843 -2.7190  0.0813
 7356TIP3   OH222031   5.232   3.324   4.207 -0.0550  0.1948  0.4205
 7356TIP3    H122032   5.317   3.369   4.201 -0.1901  0.5090  0.7642
 7356TIP3    H222033   5.192   3.360   4.286 -0.1875 -0.5112  0.6835
 7357TIP3   OH222034   6.696   4.957   4.054 -0.5497 -0.4267 -0.4406
 7357TIP3    H122035   6.647   5.023   4.103 -0.4409 -0.0668 -0.7997
 7357TIP3    H222036   6.750   4.913   4.119  1.2253  1.5074 -0.4948
 7358TIP3   OH222037   1.322   4.936   4.811 -0.1095  0.2044 -0.1795
 7358TIP3    H122038   1.415   4.944   4.792 -0.2626 -0.9338 -1.5669
 7358TIP3    H222039   1.284   5.020   4.785  0.3190  0.1582 -0.9663
 7359TIP3   OH222040   6.830   3.354   3.375 -0.8187  0.2335  0.1502
 7359TIP3    H122041   6.889   3.403   3.433  1.3545 -0.5447 -1.2913
 7359TIP3    H222042   6.832   3.265   3.409 -0.1754 -0.0506 -0.6037
 7360TIP3   OH222043   7.085   6.288   5.874  0.0923  0.1874  0.0063
 7360TIP3    H122044   7.056   6.271   5.784 -0.9492  0.0646  0.3501
 7360TIP3    H222045   7.177   6.260   5.875  0.6669  1.8836 -1.4790
 7361TIP3   OH222046   6.229   6.036   1.355 -0.0269  0.3059  0.1695
 7361TIP3    H122047   6.275   6.045   1.272 -1.4188  0.6067 -0.6050
 7361TIP3    H222048   6.221   5.942   1.368 -1.1805  0.2295 -0.8747
 7362TIP3   OH222049   4.404   3.217  -0.005  0.0736 -0.0564 -0.1523
 7362TIP3    H122050   4.493   3.186   0.004  0.0788  0.5090  2.3346
 7362TIP3    H222051   4.350   3.145   0.028 -0.3139  0.0788 -0.4851
 7363TIP3   OH222052   4.980   1.153   2.289 -0.4292  0.0559 -0.1631
 7363TIP3    H122053   4.942   1.133   2.374  0.1945 -1.0922 -0.1361
 7363TIP3    H222054   4.998   1.068   2.250  0.9997  0.5647 -0.6719
 7364TIP3   OH222055   0.963   5.168   2.458 -0.1598 -0.1692  0.8074
 7364TIP3    H122056   1.024   5.188   2.387 -0.9821  0.5895  0.3058
 7364TIP3    H222057   0.893   5.118   2.417 -1.3039  1.3829  0.8004
 7365TIP3   OH222058   6.416   6.675   4.997 -0.0679 -0.2491  0.1108
 7365TIP3    H122059   6.455   6.759   4.973  2.0020 -0.7654  1.3830
 7365TIP3    H222060   6.485   6.611   4.978 -0.4825 -1.2910  1.9662
 7366TIP3   OH222061   1.745   3.824   3.773 -0.8826  0.1654 -0.3247
 7366TIP3    H122062   1.835   3.801   3.794 -0.9649 -1.0161 -1.1502
 7366TIP3    H222063   1.749   3.858   3.683 -1.4600 -1.6650 -1.1101
 7367TIP3   OH222064   7.013   2.368   5.866 -0.0851  0.0911 -0.2169
 7367TIP3    H122065   7.091   2.414   5.835  0.3459  0.1339  0.8685
 7367TIP3    H222066   6.953   2.369   5.792  1.0725 -0.2334 -1.1902
 7368TIP3   OH222067   5.254   6.346   4.657  0.3584  0.1629 -0.4520
 7368TIP3    H122068   5.253   6.325   4.564 -1.1470 -1.1066 -0.1810
 7368TIP3    H222069   5.344   6.329   4.684  0.4891 -0.7350 -1.4055
 7369TIP3   OH222070   0.464   3.562   1.634 -0.2233  0.5953 -0.5539
 7369TIP3    H122071   0.514   3.523   1.561  0.1881  1.9360 -1.0154
 7369TIP3    H222072   0.395   3.613   1.592 -0.6726  0.4859  0.0358
 7370TIP3   OH222073   5.036   1.652   0.086 -0.2004 -0.4005  0.3042
 7370TIP3    H122074   5.020   1.700   0.168 -1.6249  2.1008 -1.3071
 7370TIP3    H222075   5.094   1.708   0.036  0.0135 -1.5228 -0.7466
 7371TIP3   OH222076   1.319   1.345   1.578  0.1813 -0.1007  0.7511
 7371TIP3    H122077   1.402   1.327   1.624  1.1796 -1.1728 -1.3221
 7371TIP3    H222078   1.323   1.438   1.557  0.0547  0.2364  2.1053
 7372TIP3   OH222079   5.321   0.368   2.451  0.0270  0.2110  0.3149
 7372TIP3    H122080   5.360   0.357   2.537 -2.0613  0.4369  1.3429
 7372TIP3    H222081   5.379   0.320   2.392  0.9158 -0.8525  1.9860
 7373TIP3   OH222082   2.186   6.369   0.879 -0.4432  0.1647  0.1736
 7373TIP3    H122083   2.214   6.460   0.875  0.9255 -0.1364  1.6521
 7373TIP3    H222084   2.142   6.361   0.964 -1.0507 -0.4241 -0.1863
 7374TIP3   OH222085   3.283   5.871   2.215 -0.5775  0.1159 -0.5117
 7374TIP3    H122086   3.359   5.910   2.171  1.0114 -0.5700  1.4365
 7374TIP3    H222087   3.279   5.917   2.299 -1.8686 -0.4047 -0.2677
 7375TIP3   OH222088   5.560   4.246   5.813 -0.0456  0.0744  0.3204
 7375TIP3    H122089   5.577   4.226   5.721  0.1650 -1.1091  0.5936
 7375TIP3    H222090   5.494   4.182   5.839  0.3673 -0.0193  1.1625
 7376TIP3   OH222091   4.566   5.565   0.972  0.2994  0.2143 -0.3003
 7376TIP3    H122092   4.608   5.482   0.994  0.0017  0.3752  0.8985
 7376TIP3    H222093   4.537   5.553   0.881 -2.6631 -2.2614  0.7807
 7377TIP3   OH222094   0.282   0.823   4.121  0.4089 -0.3200 -0.4863
 7377TIP3    H122095   0.314   0.862   4.040 -0.3065  1.7658  0.1703
 7377TIP3    H222096   0.242   0.741   4.094 -0.6670  0.7740 -2.4052
 7378TIP3   OH222097   1.682   4.881   4.186 -0.1218 -0.0677 -0.5729
 7378TIP3    H122098   1.704   4.952   4.125 -0.6203 -0.0951 -0.7902
 7378TIP3    H222099   1.590   4.894   4.206  0.2554  0.4860  0.9172
 7379TIP3   OH222100   6.810   1.145   1.280 -0.1365 -0.0130  0.1967
 7379TIP3    H122101   6.775   1.057   1.298  1.2080 -0.7907 -0.8382
 7379TIP3    H222102   6.904   1.136   1.295  0.2415  0.8166 -1.5237
 7380TIP3   OH222103   5.625   1.065   0.890 -0.0455  0.0285 -0.0745
 7380TIP3    H122104   5.658   1.151   0.864  0.6410  0.1309  1.0541
 7380TIP3    H222105   5.696   1.027   0.941 -0.9387 -0.5529  0.7729
 7381TIP3   OH222106   4.728   2.588   3.250  0.0031 -0.2809 -0.2039
 7381TIP3    H122107   4.800   2.574   3.311  0.3639 -0.9476 -0.7650
 7381TIP3    H222108   4.672   2.652   3.293  1.2368  0.7006 -0.0142
 7382TIP3   OH222109   0.162   6.032   3.243 -0.2780 -0.3013 -0.1867
 7382TIP3    H122110   0.079   6.051   3.287  0.6184 -1.6767  2.2791
 7382TIP3    H222111   0.173   5.938   3.252  1.5894 -0.1443 -0.3960
 7383TIP3   OH222112   5.167   0.374   3.058  0.3318 -0.1487  0.2211
 7383TIP3    H122113   5.258   0.346   3.056  1.0165  1.9225  0.3267
 7383TIP3    H222114   5.152   0.400   3.149 -0.6213 -1.1290  0.3774
 7384TIP3   OH222115   1.065   1.009   2.391  0.0277 -0.7617  0.1419
 7384TIP3    H122116   1.032   0.946   2.327 -0.6055 -0.7424  0.4451
 7384TIP3    H222117   1.157   1.020   2.368  0.1609 -1.8117  0.0906
 7385TIP3   OH222118   2.472   5.248   3.740  0.2852 -0.0785  0.3194
 7385TIP3    H122119   2.424   5.185   3.794  0.3208 -0.4996 -0.1347
 7385TIP3    H222120   2.516   5.195   3.674  0.2553  0.4292 -0.1205
 7386TIP3   OH222121   4.260   0.777   1.305 -0.1807  0.2670  0.2019
 7386TIP3    H122122   4.332   0.722   1.273  0.1003  0.8652 -0.2079
 7386TIP3    H222123   4.198   0.715   1.344  0.5142 -0.2627  0.4887
 7387TIP3   OH222124   3.949   2.274   4.483 -0.2281 -0.3444  0.2266
 7387TIP3    H122125   3.908   2.193   4.514 -0.7463  0.4211  1.5781
 7387TIP3    H222126   3.911   2.343   4.536  2.4542  0.4771  1.2434
 7388TIP3   OH222127   5.898   2.925   0.535 -0.2048 -0.8953  0.4820
 7388TIP3    H122128   5.953   2.847   0.540 -0.6094 -1.1617  0.9114
 7388TIP3    H222129   5.867   2.939   0.625 -0.1027 -0.2135  0.4195
 7389TIP3   OH222130   4.882   2.107   3.837 -0.2198  0.1848  0.0631
 7389TIP3    H122131   4.788   2.122   3.826 -0.6478 -0.9338  1.8100
 7389TIP3    H222132   4.889   2.016   3.862  1.1633  0.7229  1.8264
 7390TIP3   OH222133   4.398   0.257   4.870  0.2736  0.0702 -0.1506
 7390TIP3    H122134   4.385   0.256   4.775  1.8698  0.7288 -0.4090
 7390TIP3    H222135   4.477   0.204   4.883  0.0180 -0.0853  0.8243
 7391TIP3   OH222136   3.960   4.280   3.807  0.3973 -0.3459 -0.0396
 7391TIP3    H122137   3.911   4.336   3.867 -2.7630 -2.7602 -0.1017
 7391TIP3    H222138   4.040   4.258   3.855 -0.5998  0.2453  2.0207
 7392TIP3   OH222139   6.539   5.486   0.561  0.5093  0.2974  0.3525
 7392TIP3    H122140   6.612   5.448   0.610 -0.1039  1.3293  2.1574
 7392TIP3    H222141   6.576   5.566   0.523  0.5826  0.3037  0.4354
 7393TIP3   OH222142   0.126   3.806   0.385  0.2909 -0.0766 -0.2605
 7393TIP3    H122143   0.181   3.848   0.319  1.9640 -1.3398  0.2453
 7393TIP3    H222144   0.187   3.754   0.437 -1.4333 -1.7820  0.1820
 7394TIP3   OH222145   6.799   6.212   1.105  0.4952 -0.2022  0.0468
 7394TIP3    H122146   6.755   6.128   1.119  0.6032 -0.3323 -0.3942
 7394TIP3    H222147   6.891   6.190   1.092  0.8038  0.1125  1.5033
 7395TIP3   OH222148   1.705   5.861   5.694  0.0040 -0.0415  0.5118
 7395TIP3    H122149   1.649   5.834   5.622  0.8960  0.0257 -0.2291
 7395TIP3    H222150   1.675   5.810   5.769 -1.5700  0.6053  0.3404
 7396TIP3   OH222151   4.850   1.927   1.611  0.6261 -0.7003  0.5483
 7396TIP3    H122152   4.919   1.951   1.673 -0.7735  1.7993  1.2933
 7396TIP3    H222153   4.780   1.891   1.666 -1.8796  4.2517  1.1776
 7397TIP3   OH222154   4.460   6.142   3.358  0.2560 -0.2600 -0.2600
 7397TIP3    H122155   4.403   6.184   3.294 -0.6996 -2.4637 -0.9308
 7397TIP3    H222156   4.455   6.199   3.435 -0.8006  0.9382 -1.1769
 7398TIP3   OH222157   0.414   4.229   2.564  1.3265  0.2448  0.4758
 7398TIP3    H122158   0.373   4.308   2.529 -0.8021 -0.9910 -0.0323
 7398TIP3    H222159   0.385   4.225   2.655  1.0853 -0.1581  0.3835
 7399TIP3   OH222160   2.303   6.169   5.841 -0.0245 -0.2501 -0.6222
 7399TIP3    H122161   2.248   6.121   5.779 -2.1175 -0.6916  1.3831
 7399TIP3    H222162   2.243   6.191   5.913  2.4068 -0.6725  1.7077
 7400TIP3   OH222163   2.739   4.748   2.806 -0.4703 -0.2905 -0.3065
 7400TIP3    H122164   2.758   4.681   2.741  0.3265 -0.2724 -0.0935
 7400TIP3    H222165   2.757   4.706   2.890  0.8435  0.4322 -0.1988
 7401TIP3   OH222166   6.856   5.551   1.883  0.3374 -0.1631  0.3595
 7401TIP3    H122167   6.920   5.515   1.822 -0.0062  2.2264 -1.5227
 7401TIP3    H222168   6.893   5.634   1.911 -1.4380  0.7974 -0.0019
 7402TIP3   OH222169   0.532   2.606   0.717 -0.2001  0.1188  0.5515
 7402TIP3    H122170   0.461   2.562   0.670  0.9212  0.2013 -1.3593
 7402TIP3    H222171   0.592   2.633   0.648  2.1874 -0.8165  2.1453
 7403TIP3   OH222172   3.656   5.435   0.680  0.1924 -0.0731 -0.0468
 7403TIP3    H122173   3.734   5.483   0.651  1.2966 -0.6611  1.7992
 7403TIP3    H222174   3.634   5.379   0.605  0.6753  1.1149 -1.1203
 7404TIP3   OH222175   5.505   1.289   4.635 -0.4447  0.0060 -0.2778
 7404TIP3    H122176   5.558   1.284   4.715  0.5538  2.5039 -0.7024
 7404TIP3    H222177   5.415   1.291   4.667 -0.1790 -1.0993  0.6302
 7405TIP3   OH222178   4.736   0.876   5.382 -0.1756  0.2546 -0.1028
 7405TIP3    H122179   4.776   0.963   5.382 -0.0923  0.2160  0.2041
 7405TIP3    H222180   4.777   0.832   5.308 -0.7014  0.6962 -0.6641
 7406TIP3   OH222181   4.076   6.635   0.872  0.0119 -0.1912  1.0521
 7406TIP3    H122182   4.021   6.570   0.828  0.6138 -0.9581  1.3996
 7406TIP3    H222183   4.058   6.623   0.965 -0.9191  1.1214  1.0640
 7407TIP3   OH222184   1.076   1.542   2.880 -0.0700 -0.1857 -0.2341
 7407TIP3    H122185   1.091   1.526   2.786  0.8237 -0.0121 -0.1315
 7407TIP3    H222186   1.033   1.462   2.910  0.1062 -0.4656 -0.6957
 7408TIP3   OH222187   0.784   5.875   3.285  0.1596  0.2813  0.0662
 7408TIP3    H122188   0.752   5.881   3.195 -1.1164  0.7938  0.5233
 7408TIP3    H222189   0.783   5.965   3.317 -1.2831 -0.0935  1.1881
 7409TIP3   OH222190   6.405   3.192   2.170  0.1780 -0.5961 -0.0347
 7409TIP3    H122191   6.350   3.188   2.249 -0.0197 -1.5510 -0.2133
 7409TIP3    H222192   6.357   3.250   2.111  0.4715  0.3727  0.6437
 7410TIP3   OH222193   3.071   1.926   0.454  0.5111  0.7286  0.0784
 7410TIP3    H122194   3.029   1.901   0.372  0.7752  0.4334  0.0301
 7410TIP3    H222195   3.111   2.011   0.436 -0.3020  1.1484  0.2088
 7411TIP3   OH222196   4.650   2.927   5.659 -0.6236 -0.4962 -0.0670
 7411TIP3    H122197   4.567   2.957   5.695 -0.5443 -0.4221  0.0568
 7411TIP3    H222198   4.662   2.978   5.579 -0.2404  0.1868  0.4134
 7412TIP3   OH222199   6.509   0.515   1.939  0.9121  0.2875  0.1285
 7412TIP3    H122200   6.594   0.552   1.962  0.2827  1.5247  0.5645
 7412TIP3    H222201   6.496   0.537   1.847  2.7655 -3.3648 -1.2001
 7413TIP3   OH222202   0.447   1.441   0.224 -0.7811 -0.3840  0.1287
 7413TIP3    H122203   0.359   1.448   0.261 -0.7338  1.8294 -0.0267
 7413TIP3    H222204   0.502   1.412   0.297 -1.2981  0.3889  0.8493
 7414TIP3   OH222205   3.466   2.558   5.105 -0.5252 -0.0274  0.5651
 7414TIP3    H122206   3.435   2.589   5.191 -1.5840 -0.1384  0.2313
 7414TIP3    H222207   3.551   2.517   5.124 -1.2178 -0.9950  1.7358
 7415TIP3   OH222208   6.276   2.361   4.455  0.0551 -0.1437 -0.0585
 7415TIP3    H122209   6.268   2.268   4.433 -1.1213  0.0205 -0.4130
 7415TIP3    H222210   6.253   2.406   4.373 -2.3508  0.4712  0.8630
 7416TIP3   OH222211   5.270   1.022   3.492 -0.0214  1.1225  0.1339
 7416TIP3    H122212   5.341   0.964   3.464  0.0460  1.6984 -0.9339
 7416TIP3    H222213   5.240   0.985   3.575 -0.4167 -0.8270 -0.8272
 7417TIP3   OH222214   6.853   5.922   0.302 -0.4478 -0.4521 -0.1196
 7417TIP3    H122215   6.803   5.964   0.373  0.5737 -0.2062  0.4737
 7417TIP3    H222216   6.938   5.965   0.304  0.2934 -1.8452 -0.1522
 7418TIP3   OH222217   1.245   0.704   4.113  0.1786 -0.9346 -0.1475
 7418TIP3    H122218   1.267   0.638   4.047 -1.1982  1.7414 -3.6337
 7418TIP3    H222219   1.306   0.776   4.096 -0.3265 -0.0880  1.4397
 7419TIP3   OH222220   1.635   4.627   1.296 -0.2670  0.1146 -0.2397
 7419TIP3    H122221   1.712   4.652   1.347 -0.7228  1.9415 -0.3711
 7419TIP3    H222222   1.567   4.609   1.361 -0.2008  0.1759 -0.1547
 7420TIP3   OH222223   1.653   6.557   3.192  0.0618  0.4437  0.5293
 7420TIP3    H122224   1.674   6.596   3.107  0.2100  0.2992  0.4993
 7420TIP3    H222225   1.583   6.495   3.174  1.7592 -1.4406  0.0664
 7421TIP3   OH222226   6.605   4.728   3.496 -0.3940 -0.5480 -0.6339
 7421TIP3    H122227   6.513   4.743   3.519 -0.3582 -2.0831  0.6990
 7421TIP3    H222228   6.609   4.742   3.402 -1.3820  2.3253 -0.3473
 7422TIP3   OH222229   2.721   2.222   2.868  0.2937  0.7671  0.0864
 7422TIP3    H122230   2.682   2.137   2.849 -1.5901  1.7849 -0.8905
 7422TIP3    H222231   2.710   2.234   2.962 -1.3112  0.7696 -0.0709
 7423TIP3   OH222232   5.672   1.959   1.767  0.4757  0.1630 -0.1222
 7423TIP3    H122233   5.733   1.886   1.759  1.7881  1.3591 -1.5633
 7423TIP3    H222234   5.684   1.991   1.857  0.4480 -0.8696  0.2649
 7424TIP3   OH222235   7.171   3.531   0.284 -0.1439  0.1589  0.2847
 7424TIP3    H122236   7.219   3.453   0.256 -2.0228 -0.5866 -1.0870
 7424TIP3    H222237   7.166   3.585   0.205  2.0101  2.2523  1.4475
 7425TIP3   OH222238   5.678   4.512   2.246 -0.0866  0.0090  0.0260
 7425TIP3    H122239   5.739   4.438   2.244  0.9406  0.8514 -1.0439
 7425TIP3    H222240   5.689   4.554   2.161  0.1012  1.9799  0.9765
 7426TIP3   OH222241   6.339   5.684   1.210 -0.1508  0.2374  0.4156
 7426TIP3    H122242   6.261   5.644   1.172  0.8689 -0.0569 -1.5528
 7426TIP3    H222243   6.357   5.633   1.289 -0.6886 -1.1682 -0.3312
 7427TIP3   OH222244   3.605   5.024   4.358 -0.4565 -0.0352 -0.1352
 7427TIP3    H122245   3.700   5.012   4.362  0.0901  3.1283 -1.0598
 7427TIP3    H222246   3.574   4.994   4.443  1.2102 -1.9351 -0.1090
 7428TIP3   OH222247   5.400   3.203   2.916  0.4535  0.0428 -0.7222
 7428TIP3    H122248   5.394   3.167   3.004 -1.2079  0.4756 -0.6295
 7428TIP3    H222249   5.380   3.129   2.859  0.0076  0.1183 -0.6646
 7429TIP3   OH222250   2.855   5.257   4.159 -0.2127  0.2636 -0.2117
 7429TIP3    H122251   2.934   5.217   4.196 -1.3579 -1.0135  0.9965
 7429TIP3    H222252   2.872   5.261   4.065  1.2187 -0.1410  0.0074
 7430TIP3   OH222253   2.981   3.498   0.096 -0.0902 -0.0828 -0.0411
 7430TIP3    H122254   3.056   3.442   0.078  0.5710  0.8435 -0.2413
 7430TIP3    H222255   2.961   3.539   0.012  0.1704  0.8513  0.3408
 7431TIP3   OH222256   3.334   4.475   5.779 -0.4277 -0.7781  0.1533
 7431TIP3    H122257   3.343   4.392   5.826 -2.4212 -0.4232  1.2957
 7431TIP3    H222258   3.305   4.537   5.846  1.8681  1.1171 -0.4903
 7432TIP3   OH222259   4.183   4.022   5.814  0.2004 -0.3531 -0.2622
 7432TIP3    H122260   4.217   4.063   5.894 -0.2147 -0.6554  0.0682
 7432TIP3    H222261   4.259   3.976   5.778  0.3104 -0.4843  0.1280
 7433TIP3   OH222262   4.163   0.896   3.509  0.2439  0.6083  0.5658
 7433TIP3    H122263   4.167   0.827   3.575 -0.2855  0.7376  0.7414
 7433TIP3    H222264   4.109   0.860   3.439 -0.8871  1.1902  1.1048
 7434TIP3   OH222265   6.189   2.903   5.394 -1.2121 -0.7183 -0.7296
 7434TIP3    H122266   6.121   2.838   5.408  0.1453 -1.9050  0.7445
 7434TIP3    H222267   6.226   2.919   5.481 -0.8958  1.3658 -1.1922
 7435TIP3   OH222268   2.789   6.748   2.302  0.1901  0.6074  1.0104
 7435TIP3    H122269   2.781   6.657   2.332 -1.2994  0.4310  0.2030
 7435TIP3    H222270   2.756   6.800   2.376 -0.3717  0.3885  0.9183
 7436TIP3   OH222271   2.233   1.323   2.198  0.0066 -0.2856 -0.1987
 7436TIP3    H122272   2.176   1.399   2.197 -0.4414 -0.6190 -1.2356
 7436TIP3    H222273   2.226   1.289   2.288 -0.9008  0.0611 -0.1318
 7437TIP3   OH222274   1.663   5.711   4.527 -0.3007  0.1003 -0.1979
 7437TIP3    H122275   1.588   5.720   4.586 -0.9983  1.6096 -1.2641
 7437TIP3    H222276   1.715   5.641   4.566 -3.0810 -2.2388 -0.3220
 7438TIP3   OH222277   0.477   5.326   2.521  0.7085 -0.0234  0.0202
 7438TIP3    H122278   0.563   5.362   2.545  1.5947 -1.8064 -0.3507
 7438TIP3    H222279   0.488   5.297   2.431 -0.1995 -0.5722  0.0783
 7439TIP3   OH222280   3.525   1.148   1.793 -0.0300  0.3093  0.3632
 7439TIP3    H122281   3.506   1.185   1.879  0.3117 -0.0125  0.5820
 7439TIP3    H222282   3.612   1.110   1.801 -0.1453 -0.0572 -0.0111
 7440TIP3   OH222283   1.175   2.691   1.193  0.0550 -0.2914  0.0273
 7440TIP3    H122284   1.151   2.711   1.283  0.1685 -1.0099  0.2212
 7440TIP3    H222285   1.253   2.745   1.176 -0.0006 -0.1140  0.3354
 7441TIP3   OH222286   5.981   4.927   1.427  0.6743 -0.3105 -0.4177
 7441TIP3    H122287   5.998   4.833   1.439  0.9473 -0.3115 -0.8048
 7441TIP3    H222288   5.892   4.930   1.391  0.9938 -0.4747 -1.2361
 7442TIP3   OH222289   4.620   2.692   4.274 -0.5474  0.5754 -0.7835
 7442TIP3    H122290   4.598   2.717   4.363 -2.3999  0.1317 -1.0891
 7442TIP3    H222291   4.685   2.622   4.285 -0.2024  1.0250  0.1846
 7443TIP3   OH222292   4.247   0.517   0.928 -0.3465 -0.7401 -0.4492
 7443TIP3    H122293   4.206   0.432   0.946 -2.3676  0.3742  0.4750
 7443TIP3    H222294   4.255   0.559   1.014 -2.8856  1.4916 -1.1756
 7444TIP3   OH222295   1.716   6.691   1.502 -0.1118  0.0117 -0.3232
 7444TIP3    H122296   1.730   6.760   1.567 -0.2359 -0.6568  0.4382
 7444TIP3    H222297   1.728   6.734   1.418 -1.1998  1.2085  0.0939
 7445TIP3   OH222298   4.449   4.563   3.086  0.1593  0.5719 -0.5087
 7445TIP3    H122299   4.507   4.562   3.009  1.3334  0.1150  0.3452
 7445TIP3    H222300   4.405   4.478   3.083  1.7457 -0.3374  0.4040
 7446TIP3   OH222301   2.194   4.560   1.046 -0.4422 -0.6361 -0.2477
 7446TIP3    H122302   2.204   4.648   1.084  1.8078 -1.7071  1.9217
 7446TIP3    H222303   2.118   4.523   1.091 -0.5759 -0.2625 -0.1630
 7447TIP3   OH222304   6.115   0.837   3.857  0.0602 -0.1970  0.1808
 7447TIP3    H122305   6.019   0.839   3.860  0.0563  0.3519 -0.2433
 7447TIP3    H222306   6.141   0.810   3.945 -0.5032 -1.4137  0.0061
 7448TIP3   OH222307   4.533   4.228   2.765  0.0623 -0.5051 -0.4470
 7448TIP3    H122308   4.470   4.282   2.717 -0.1337 -0.6255 -0.3291
 7448TIP3    H222309   4.479   4.178   2.827  0.3874  0.2203  0.4492
 7449TIP3   OH222310   5.227   1.126   1.514  0.6669 -0.2622  0.0928
 7449TIP3    H122311   5.195   1.177   1.440 -1.2180  2.0197  2.3141
 7449TIP3    H222312   5.193   1.038   1.499 -1.3385  0.6084 -0.8066
 7450TIP3   OH222313   5.638   4.671   4.571  0.1553  0.4599  0.6907
 7450TIP3    H122314   5.613   4.734   4.503 -0.2393 -0.4811 -0.0607
 7450TIP3    H222315   5.671   4.596   4.523  0.3974 -0.0085  1.5683
 7451TIP3   OH222316   1.623   1.164   4.861  0.5320 -0.1944  0.2693
 7451TIP3    H122317   1.598   1.087   4.811  1.5835 -0.7414  0.5643
 7451TIP3    H222318   1.555   1.172   4.929 -2.7644  2.3537 -2.9154
 7452TIP3   OH222319   1.384   1.940   0.398 -0.0782 -0.2195  0.0171
 7452TIP3    H122320   1.460   1.938   0.455  0.5401  0.0436 -0.7887
 7452TIP3    H222321   1.398   2.015   0.341 -0.6411 -0.5301 -0.5487
 7453TIP3   OH222322   5.580   2.716   5.545  0.5594 -0.5895  0.0657
 7453TIP3    H122323   5.604   2.676   5.630  2.2509 -0.4281 -0.2957
 7453TIP3    H222324   5.565   2.808   5.565  0.5425 -0.6332  0.2578
 7454TIP3   OH222325   5.345   2.966   1.952  0.5021 -0.8227 -0.1150
 7454TIP3    H122326   5.361   3.005   2.038 -0.3721  1.9851 -1.1303
 7454TIP3    H222327   5.265   2.915   1.962  0.1979 -0.2010  0.6625
 7455TIP3   OH222328   5.124   4.423   3.225  0.0911 -0.5516 -0.3166
 7455TIP3    H122329   5.204   4.428   3.174  0.2883 -0.0777  0.0246
 7455TIP3    H222330   5.073   4.500   3.198  0.0939 -0.4275  0.0252
 7456TIP3   OH222331   4.390   4.866   1.524  0.1049 -0.0175 -0.0807
 7456TIP3    H122332   4.479   4.860   1.558  1.2735  0.4106 -2.7953
 7456TIP3    H222333   4.391   4.943   1.467 -2.2032  0.3627  0.2754
 7457TIP3   OH222334   0.881   0.140   5.862  0.5983 -0.2904 -0.3167
 7457TIP3    H122335   0.949   0.150   5.796  0.5593 -0.1470 -0.3360
 7457TIP3    H222336   0.821   0.213   5.846  1.2580  0.5083  0.6806
 7458TIP3   OH222337   0.597   3.588   2.103  0.7416  0.1122  0.2828
 7458TIP3    H122338   0.510   3.627   2.112  1.7154  2.6330 -0.2972
 7458TIP3    H222339   0.613   3.586   2.008  0.7762 -1.6959  0.2954
 7459TIP3   OH222340   3.686   6.234   5.597 -0.4394  0.4164 -0.3827
 7459TIP3    H122341   3.685   6.237   5.693  0.0621 -1.1093 -0.2982
 7459TIP3    H222342   3.595   6.216   5.572 -0.4275 -0.0115 -0.1347
 7460TIP3   OH222343   7.068   1.201   3.345 -0.2086 -0.1320 -0.0868
 7460TIP3    H122344   7.155   1.190   3.306 -0.1507 -0.4104  0.1177
 7460TIP3    H222345   7.032   1.278   3.302  1.0624  1.4057  1.4376
 7461TIP3   OH222346   0.733   3.231   1.594  0.2248  0.2476 -0.2293
 7461TIP3    H122347   0.643   3.200   1.603  0.7242 -1.7714 -1.3454
 7461TIP3    H222348   0.763   3.192   1.512  2.1321  0.8537  0.1227
 7462TIP3   OH222349   1.403   1.690   5.385  0.7557  0.5824  0.2921
 7462TIP3    H122350   1.364   1.719   5.302 -0.3338  0.0387  0.5947
 7462TIP3    H222351   1.405   1.594   5.378  2.1993  0.5949  0.2315
 7463TIP3   OH222352   5.969   6.615   0.525  0.0028  0.1417 -0.1389
 7463TIP3    H122353   6.006   6.639   0.609 -3.1707  2.5885  0.7559
 7463TIP3    H222354   5.946   6.522   0.534 -1.5148  0.6788  2.2758
 7464TIP3   OH222355   6.704   1.032   4.621 -0.0177 -0.6437  0.5750
 7464TIP3    H122356   6.692   1.103   4.557 -0.4295  0.6132  1.9801
 7464TIP3    H222357   6.621   0.984   4.619 -0.4096  0.0124  0.8760
 7465TIP3   OH222358   4.219   4.365   5.875  1.1288  0.0681  0.5336
 7465TIP3    H122359   4.236   4.318   5.794  0.8653 -0.8515  0.9946
 7465TIP3    H222360   4.137   4.411   5.860  1.2506  0.1634  0.1626
 7466TIP3   OH222361   4.701   0.556   4.355 -0.1791  0.4968 -0.2523
 7466TIP3    H122362   4.736   0.601   4.432 -1.9251  1.3775  0.0898
 7466TIP3    H222363   4.685   0.627   4.292  1.0765 -0.1948 -1.3970
 7467TIP3   OH222364   6.084   4.828   2.600  0.1406  0.1427  0.5061
 7467TIP3    H122365   6.085   4.910   2.550  3.3510  0.1010  0.2997
 7467TIP3    H222366   6.059   4.762   2.536 -1.0221  0.7509  0.3058
 7468TIP3   OH222367   2.188   0.379   0.565  0.5803  0.1464  0.1671
 7468TIP3    H122368   2.112   0.410   0.517  2.3493  1.0884 -2.2578
 7468TIP3    H222369   2.209   0.449   0.627 -0.7821 -0.3708  1.2628
 7469TIP3   OH222370   6.861   2.386   3.512  0.2488 -0.0522 -0.1531
 7469TIP3    H122371   6.777   2.344   3.530 -0.6751  0.9438 -1.8172
 7469TIP3    H222372   6.909   2.322   3.459 -0.4162  0.2158 -1.1215
 7470TIP3   OH222373   6.490   2.346   5.421  0.4677 -0.2773 -0.2852
 7470TIP3    H122374   6.532   2.418   5.468 -0.4310  0.8273 -1.1017
 7470TIP3    H222375   6.438   2.389   5.353 -0.4771 -1.6828 -0.4991
 7471TIP3   OH222376   0.793   1.733  -0.028 -0.1116 -0.2912 -0.1776
 7471TIP3    H122377   0.809   1.798   0.041 -0.6384 -1.8672  1.4902
 7471TIP3    H222378   0.739   1.666   0.014 -2.0139 -0.4573 -2.6262
 7472TIP3   OH222379   3.972   6.527   2.283 -0.0840  0.9986  0.7505
 7472TIP3    H122380   4.045   6.565   2.235  0.5288 -1.0878 -0.0724
 7472TIP3    H222381   3.901   6.590   2.272  0.7737  1.7546 -0.8027
 7473TIP3   OH222382   3.822   1.856   5.282 -0.3838 -0.0702  0.7106
 7473TIP3    H122383   3.866   1.940   5.293 -0.5332 -0.1176  1.8320
 7473TIP3    H222384   3.893   1.794   5.267 -0.3319  0.3724 -1.1101
 7474TIP3   OH222385   3.563   0.221   2.900 -0.4679  0.0069 -0.2328
 7474TIP3    H122386   3.548   0.283   2.971  0.4966  0.1269 -0.1282
 7474TIP3    H222387   3.480   0.220   2.852 -0.7096  0.8794  0.1463
 7475TIP3   OH222388   6.216   2.727   4.030 -0.4502  0.0990  0.1747
 7475TIP3    H122389   6.289   2.675   3.996  1.0489  1.8565  0.5518
 7475TIP3    H222390   6.160   2.741   3.954  0.3933 -0.0263 -0.4907
 7476TIP3   OH222391   0.610   4.823   3.739  0.1397  0.2771  0.0605
 7476TIP3    H122392   0.530   4.867   3.709 -0.9104 -1.5333  0.0835
 7476TIP3    H222393   0.591   4.795   3.828  1.1966  0.6882  0.4416
 7477TIP3   OH222394   0.826   2.223   1.461  0.8647 -0.5612  0.3359
 7477TIP3    H122395   0.760   2.163   1.428  1.2945 -1.9295  1.8490
 7477TIP3    H222396   0.844   2.193   1.550  1.0390  1.8719  1.2058
 7478TIP3   OH222397   0.163   5.603   3.877  0.2062 -0.2156 -0.1632
 7478TIP3    H122398   0.165   5.564   3.790  0.3280  0.0972 -0.3011
 7478TIP3    H222399   0.086   5.661   3.875  0.3277 -0.0533 -0.1291
 7479TIP3   OH222400   0.742   1.711   2.184 -0.8661  0.2999  0.1770
 7479TIP3    H122401   0.654   1.751   2.182 -1.9144 -1.7968  1.0471
 7479TIP3    H222402   0.788   1.751   2.110 -3.9450 -1.4697 -3.0419
 7480TIP3   OH222403   5.451   6.239   1.912  0.1803 -0.4046  0.2843
 7480TIP3    H122404   5.433   6.331   1.889  1.0010 -0.7229 -1.8618
 7480TIP3    H222405   5.391   6.189   1.857 -1.2394 -1.1735  2.4440
 7481TIP3   OH222406   4.860   2.542   2.285  0.0712  0.4571  0.0967
 7481TIP3    H122407   4.880   2.632   2.257 -0.9833  0.4349 -0.8059
 7481TIP3    H222408   4.888   2.539   2.377  3.3826  0.6294 -0.7640
 7482TIP3   OH222409   3.738   2.615   3.954 -0.1551  0.0009  0.1184
 7482TIP3    H122410   3.806   2.550   3.935  0.4899 -0.5285  3.5613
 7482TIP3    H222411   3.673   2.567   4.006 -1.0776  1.4786  0.3867
 7483TIP3   OH222412   3.669   2.336   3.193 -0.0581  0.5172  0.6566
 7483TIP3    H122413   3.593   2.316   3.248 -0.6405  0.2914 -0.2097
 7483TIP3    H222414   3.660   2.276   3.119  0.2789  1.3802 -0.0849
 7484TIP3   OH222415   3.925   4.445   3.330 -0.2007 -0.1792  0.2203
 7484TIP3    H122416   3.972   4.500   3.267 -0.0105 -1.2948 -0.6304
 7484TIP3    H222417   3.836   4.439   3.295 -0.1426 -0.6646  0.1563
 7485TIP3   OH222418   0.779   0.053   4.650  0.0613  0.5043  0.4060
 7485TIP3    H122419   0.844   0.063   4.580 -0.3157  0.2446  0.0118
 7485TIP3    H222420   0.812  -0.021   4.702 -1.5249 -1.8006 -1.6631
 7486TIP3   OH222421   0.775   4.374   3.641 -0.0468  0.0955  0.7270
 7486TIP3    H122422   0.849   4.364   3.581  1.4447 -0.4264  2.5282
 7486TIP3    H222423   0.733   4.455   3.615  1.0072  0.2737 -0.5266
 7487TIP3   OH222424   5.953   0.909   3.576  0.1531 -0.5040  0.2770
 7487TIP3    H122425   6.000   0.983   3.538 -2.1422  1.0546  0.2525
 7487TIP3    H222426   5.963   0.921   3.671  0.5029 -0.6592  0.2594
 7488TIP3   OH222427   6.763   6.062   0.531  0.3073  0.3685  0.2680
 7488TIP3    H122428   6.669   6.048   0.530  0.4855 -0.9779  0.5345
 7488TIP3    H222429   6.779   6.114   0.610 -0.0940 -0.4245  0.8862
 7489TIP3   OH222430   2.432   3.185   4.778 -0.3165  0.4670  0.3481
 7489TIP3    H122431   2.427   3.171   4.872  1.4826  1.1066  0.5765
 7489TIP3    H222432   2.518   3.225   4.764 -0.8206  0.9987 -1.4895
 7490TIP3   OH222433   6.069   0.636   1.352  0.1171  0.9058 -0.0065
 7490TIP3    H122434   6.091   0.720   1.392  1.0259  0.8725 -0.3993
 7490TIP3    H222435   5.980   0.647   1.320  0.1593  1.6593  0.1152
 7491TIP3   OH222436   1.196   6.664   1.666  0.3527 -0.4404 -0.1498
 7491TIP3    H122437   1.158   6.584   1.631  0.9098 -0.3804 -0.9256
 7491TIP3    H222438   1.130   6.732   1.649  0.0111 -0.6811  0.2274
 7492TIP3   OH222439   1.303   2.748   4.472 -0.2724 -0.0762 -0.2581
 7492TIP3    H122440   1.264   2.671   4.514 -0.9451  0.6507  0.4991
 7492TIP3    H222441   1.245   2.767   4.398  0.3616 -0.7707 -0.9569
 7493TIP3   OH222442   5.607   1.390   4.912 -0.2364  0.0871 -0.1313
 7493TIP3    H122443   5.530   1.360   4.961 -1.0166 -0.7527 -1.8048
 7493TIP3    H222444   5.677   1.331   4.940  0.4076  2.0002  2.8286
 7494TIP3   OH222445   4.645   6.780   3.125  0.1205  0.1400  0.2260
 7494TIP3    H122446   4.649   6.830   3.043  0.3066  1.2948  0.9219
 7494TIP3    H222447   4.552   6.755   3.133  0.2532 -0.7460 -0.7606
 7495TIP3   OH222448   5.541   5.279   0.114 -0.4627  0.3422  0.1353
 7495TIP3    H122449   5.574   5.230   0.038 -0.4059  0.1487  0.2823
 7495TIP3    H222450   5.584   5.364   0.109  1.5019 -0.5038  1.3250
 7496TIP3   OH222451   6.395   0.279   3.822 -0.2284 -0.2836  0.3592
 7496TIP3    H122452   6.329   0.279   3.752 -1.2922  3.1997  1.1902
 7496TIP3    H222453   6.465   0.334   3.788  0.6595 -1.0401  0.9181
 7497TIP3   OH222454   4.862   0.330   4.435  0.1656  0.3764 -0.1290
 7497TIP3    H122455   4.950   0.319   4.399  0.0977  2.3118 -1.0080
 7497TIP3    H222456   4.810   0.360   4.360 -1.5538 -1.8069  0.0834
 7498TIP3   OH222457   5.628   2.591   4.829  0.0789 -0.1249 -0.0348
 7498TIP3    H122458   5.681   2.520   4.865  1.4323  1.8295  2.1307
 7498TIP3    H222459   5.546   2.586   4.878 -0.1012 -0.6198 -0.3872
 7499TIP3   OH222460   3.481   4.430   0.695 -0.8219  0.5624 -0.3553
 7499TIP3    H122461   3.511   4.341   0.717 -0.1976  1.2664  1.9302
 7499TIP3    H222462   3.432   4.419   0.613  0.8304 -1.5678 -1.1687
 7500TIP3   OH222463   4.351   2.992   4.168  0.4346  0.5583 -0.2250
 7500TIP3    H122464   4.406   3.054   4.216  1.2778 -1.1142  1.1066
 7500TIP3    H222465   4.261   3.016   4.191  0.7918  0.4673  1.3789
 7501TIP3   OH222466   7.110   0.455   4.194 -0.0854  0.8467  0.5503
 7501TIP3    H122467   7.068   0.418   4.272 -0.6555  0.1178 -0.0893
 7501TIP3    H222468   7.070   0.408   4.121 -0.0484  1.9956 -0.2308
 7502TIP3   OH222469   5.123   1.333   5.774 -0.0078 -0.2361 -0.2706
 7502TIP3    H122470   5.153   1.349   5.863  0.8326  2.7184 -0.9531
 7502TIP3    H222471   5.193   1.280   5.734 -1.0255 -2.7558  1.0953
 7503TIP3   OH222472   2.785   2.263   5.552 -0.0196 -0.0326 -0.0264
 7503TIP3    H122473   2.861   2.315   5.578  1.6835 -2.4937  0.2416
 7503TIP3    H222474   2.782   2.191   5.615 -1.6590 -0.8485 -0.9611
 7504TIP3   OH222475   1.093   3.909   1.796  0.1125  0.2238 -0.5801
 7504TIP3    H122476   1.084   3.914   1.892  0.7618  1.0341 -0.5488
 7504TIP3    H222477   1.026   3.846   1.769 -0.1220  0.0307  0.4028
 7505TIP3   OH222478   4.065   3.816   0.087  0.6376 -0.6654 -0.3928
 7505TIP3    H122479   4.083   3.784   0.175 -1.3247  3.8649  1.9567
 7505TIP3    H222480   4.124   3.891   0.076 -2.7075  2.2312 -0.4612
 7506TIP3   OH222481   6.241   1.256   0.711  0.0901 -0.8328  0.6515
 7506TIP3    H122482   6.270   1.198   0.642 -0.0329  0.3399 -0.4161
 7506TIP3    H222483   6.225   1.340   0.668 -0.3694 -0.1725  2.0240
 7507TIP3   OH222484   2.584   1.751   2.795 -0.1387  0.2603 -0.0833
 7507TIP3    H122485   2.569   1.844   2.814  1.0221  0.0129  2.4014
 7507TIP3    H222486   2.509   1.706   2.835 -0.2984  0.0569 -0.6013
 7508TIP3   OH222487   0.116   0.384   2.711  0.1579  0.0293 -0.2944
 7508TIP3    H122488   0.062   0.305   2.710 -0.3792  0.2989  1.6840
 7508TIP3    H222489   0.061   0.451   2.669 -0.7335  0.0859  0.8992
 7509TIP3   OH222490   2.555   6.494   2.295  0.1720  0.8858  0.1642
 7509TIP3    H122491   2.642   6.489   2.335  1.3843 -0.6399 -2.4514
 7509TIP3    H222492   2.502   6.433   2.345  1.8510 -1.5777 -0.8841
 7510TIP3   OH222493   3.153   4.632   3.871  0.3705 -0.2047 -0.3677
 7510TIP3    H122494   3.071   4.583   3.857 -0.0065  0.4581 -0.5392
 7510TIP3    H222495   3.193   4.591   3.947  0.1316 -0.8686 -0.5884
 7511TIP3   OH222496   4.248   3.731   4.711  0.1182 -0.1323 -0.0320
 7511TIP3    H122497   4.326   3.739   4.765  1.4980 -0.1099 -1.9176
 7511TIP3    H222498   4.195   3.808   4.732  0.1090 -0.6345  1.9573
 7512TIP3   OH222499   3.921   1.378   1.439  0.6007 -0.0387  0.1408
 7512TIP3    H122500   3.970   1.423   1.370 -0.4601  1.6245  0.4161
 7512TIP3    H222501   3.850   1.334   1.392  0.7501 -0.1585  0.0248
 7513TIP3   OH222502   0.970   2.827   0.065 -0.4799  0.5084  0.2792
 7513TIP3    H122503   0.923   2.911   0.059 -1.8130 -0.0994  1.5182
 7513TIP3    H222504   0.901   2.762   0.079  0.6086 -0.6769  0.2956
 7514TIP3   OH222505   7.125   3.391   5.845 -0.2899  0.3185 -0.4097
 7514TIP3    H122506   7.194   3.456   5.833  2.0408 -2.2417 -2.1194
 7514TIP3    H222507   7.063   3.433   5.905  1.6287  3.5779 -0.4400
 7515TIP3   OH222508   3.392   5.336   0.210  0.5197  0.3873  0.0226
 7515TIP3    H122509   3.398   5.431   0.199  0.4953  0.3874  0.0082
 7515TIP3    H222510   3.458   5.314   0.275  1.7259  0.1989 -1.2160
 7516TIP3   OH222511   6.619   2.580   0.568  0.0544 -0.0470 -0.4310
 7516TIP3    H122512   6.535   2.622   0.585 -0.0186  0.2209 -1.4194
 7516TIP3    H222513   6.663   2.638   0.506  1.8115  0.8441  1.5121
 7517TIP3   OH222514   0.520   1.199   5.875  0.0938  0.6919 -0.2970
 7517TIP3    H122515   0.579   1.273   5.858 -1.3385  1.5531 -1.8167
 7517TIP3    H222516   0.496   1.167   5.788 -1.1676 -0.0539  0.2905
 7518TIP3   OH222517   1.448   4.408   0.468 -0.2397  0.9322  0.1011
 7518TIP3    H122518   1.505   4.355   0.524 -0.8889  0.4984  0.3680
 7518TIP3    H222519   1.498   4.420   0.387 -0.3857 -0.7801 -0.2770
 7519TIP3   OH222520   2.094   5.522   1.683 -0.0730 -0.1602  0.5547
 7519TIP3    H122521   2.168   5.473   1.647  0.4337 -1.3990  3.0637
 7519TIP3    H222522   2.062   5.574   1.609  2.7614 -0.1882 -0.8468
 7520TIP3   OH222523   2.120   0.626   5.488 -0.5979  0.2611 -0.6815
 7520TIP3    H122524   2.214   0.608   5.487 -0.5086  0.7156 -0.9783
 7520TIP3    H222525   2.080   0.550   5.446 -0.5809 -1.0438  1.4860
 7521TIP3   OH222526   0.443   0.914   0.690  0.5585  0.0231 -0.5246
 7521TIP3    H122527   0.418   0.917   0.598 -0.3392 -2.6446 -0.4712
 7521TIP3    H222528   0.361   0.899   0.737  1.0353  1.0364  0.6917
 7522TIP3   OH222529   6.816   3.539   2.772  0.7259  0.5569 -0.4856
 7522TIP3    H122530   6.730   3.512   2.739 -0.3532  2.7850  0.3252
 7522TIP3    H222531   6.869   3.554   2.694  0.3509 -0.6351 -0.9988
 7523TIP3   OH222532   3.045   1.824   4.606  0.2237  0.1681 -0.7263
 7523TIP3    H122533   3.093   1.754   4.561  0.8206 -1.8263  2.6383
 7523TIP3    H222534   2.963   1.782   4.634 -0.3578  1.4748 -0.4076
 7524TIP3   OH222535   5.035   3.862   1.708  0.3031  0.2804  0.5001
 7524TIP3    H122536   5.047   3.944   1.754  1.3235 -0.2723  1.2585
 7524TIP3    H222537   5.000   3.887   1.622  1.9769  1.6141  0.1542
 7525TIP3   OH222538   6.685   3.577   0.101  0.6162  0.0507 -0.2897
 7525TIP3    H122539   6.740   3.547   0.174 -0.0011 -1.9257 -0.5857
 7525TIP3    H222540   6.596   3.571   0.133  0.3907  0.1155 -0.8844
 7526TIP3   OH222541   6.923   0.513   4.690  0.1879 -0.1007  0.0859
 7526TIP3    H122542   6.914   0.454   4.765  2.5529  0.3552  0.8390
 7526TIP3    H222543   6.926   0.601   4.729  1.1976  0.1601 -0.5182
 7527TIP3   OH222544   3.619   3.839   5.194  0.0679 -0.6816  0.4870
 7527TIP3    H122545   3.533   3.824   5.154 -0.3543 -0.4367  1.2892
 7527TIP3    H222546   3.636   3.761   5.246  1.0287 -1.4030 -0.8329
 7528TIP3   OH222547   5.063   0.592   4.345 -0.1687 -0.9105 -0.4875
 7528TIP3    H122548   4.977   0.609   4.384 -0.5545 -0.2245 -1.5881
 7528TIP3    H222549   5.113   0.548   4.415 -1.5329 -1.7026  0.0350
 7529TIP3   OH222550   1.962   2.770   0.885  0.1048  0.1658  0.6072
 7529TIP3    H122551   1.891   2.823   0.849  0.1803 -0.9098 -1.2274
 7529TIP3    H222552   2.041   2.820   0.866 -0.0316  0.7280  1.4584
 7530TIP3   OH222553   5.488   1.259   0.605  0.0116 -0.2227  0.5072
 7530TIP3    H122554   5.423   1.309   0.655 -0.7162 -0.6086 -0.0236
 7530TIP3    H222555   5.568   1.309   0.613 -0.5512  0.6987  0.5127
 7531TIP3   OH222556   5.846   0.511   0.506 -0.6317 -0.0391 -0.6072
 7531TIP3    H122557   5.867   0.599   0.475  3.8457 -0.9741 -0.9166
 7531TIP3    H222558   5.819   0.523   0.597  0.7534  1.6555 -0.3618
 7532TIP3   OH222559   6.571   6.112   2.010 -0.1279  0.2073  0.3213
 7532TIP3    H122560   6.642   6.169   1.980 -0.5201  0.4095 -0.2425
 7532TIP3    H222561   6.580   6.110   2.105  0.3827  0.5628  0.2827
 7533TIP3   OH222562   4.900   1.419   4.656 -0.0604  0.0962 -0.4622
 7533TIP3    H122563   4.893   1.490   4.592 -0.4681  0.4252 -0.0638
 7533TIP3    H222564   4.823   1.364   4.639 -0.7125  0.7217  0.3687
 7534TIP3   OH222565   5.595   5.605   4.596  0.2991  0.0107  0.4554
 7534TIP3    H122566   5.577   5.513   4.577  1.6200 -0.0580 -0.6227
 7534TIP3    H222567   5.608   5.609   4.690 -0.0104 -0.8601  0.5401
 7535TIP3   OH222568   4.312   6.601   4.751  0.1017  0.1125 -0.0590
 7535TIP3    H122569   4.224   6.581   4.782  0.4981  0.8768  1.6445
 7535TIP3    H222570   4.370   6.550   4.808  0.8414  1.1886  0.1713
 7536TIP3   OH222571   2.944   1.078   5.096 -0.2248 -0.0705 -0.1484
 7536TIP3    H122572   2.859   1.048   5.127  1.1189 -2.1337  1.8084
 7536TIP3    H222573   2.979   1.130   5.168  2.5874 -4.2498  1.9080
 7537TIP3   OH222574   1.941   5.168   5.431 -0.2483 -0.3789 -0.0043
 7537TIP3    H122575   1.993   5.090   5.451  0.1960 -0.3900 -1.1691
 7537TIP3    H222576   2.002   5.228   5.389 -1.4505 -0.9860 -2.8225
 7538TIP3   OH222577   0.411   4.996   2.009  0.1832  0.0952  0.0654
 7538TIP3    H122578   0.449   5.064   2.065 -1.3827 -0.7869  2.3588
 7538TIP3    H222579   0.320   5.023   1.998 -0.0415 -0.8057 -0.3500
 7539TIP3   OH222580   5.536   1.635   4.824 -0.2366 -0.1606 -0.1116
 7539TIP3    H122581   5.534   1.621   4.729 -1.5238 -2.7100  0.2132
 7539TIP3    H222582   5.591   1.564   4.858 -0.3687  0.2943  1.1083
 7540TIP3   OH222583   6.780   4.241   4.556  0.2131  1.0077 -0.2189
 7540TIP3    H122584   6.702   4.235   4.501 -0.7824  1.1713  1.1495
 7540TIP3    H222585   6.853   4.221   4.496 -0.8994  0.3877 -1.4067
 7541TIP3   OH222586   0.276   1.304   2.130 -0.2236  0.8100 -0.0450
 7541TIP3    H122587   0.280   1.326   2.223  3.3290  0.1345  0.1054
 7541TIP3    H222588   0.334   1.366   2.088  0.1635 -0.4315 -1.4250
 7542TIP3   OH222589   0.309   4.489   2.467  0.1980 -0.0170  0.0032
 7542TIP3    H122590   0.334   4.508   2.377  0.5306 -0.3682  0.0184
 7542TIP3    H222591   0.384   4.517   2.519  0.6094 -1.1389  0.0432
 7543TIP3   OH222592   0.854   1.824   0.273 -0.1008  0.0370  0.1765
 7543TIP3    H122593   0.877   1.731   0.269 -1.8490 -0.4291  0.0743
 7543TIP3    H222594   0.845   1.842   0.366 -0.3015 -0.0494  0.1749
 7544TIP3   OH222595   1.292   1.284   2.584 -0.1188  0.3618 -0.3426
 7544TIP3    H122596   1.354   1.227   2.629  1.4133  1.4269 -1.0059
 7544TIP3    H222597   1.212   1.278   2.635  0.2744 -1.6527  0.1112
 7545TIP3   OH222598   2.401   5.507   0.903  0.6044 -0.4345  0.3773
 7545TIP3    H122599   2.490   5.543   0.909  0.1359  0.9772 -0.5416
 7545TIP3    H222600   2.352   5.554   0.971  0.4789 -0.9448  0.6401
 7546TIP3   OH222601   3.185   3.835   0.142  0.7060  0.5846 -0.0699
 7546TIP3    H122602   3.094   3.816   0.167  0.6415  0.2884 -0.5186
 7546TIP3    H222603   3.177   3.885   0.061  0.9549  0.2025 -0.3296
 7547TIP3   OH222604   1.428   5.534   5.607 -0.2276 -0.0055  0.2078
 7547TIP3    H122605   1.419   5.441   5.588  3.3776 -0.0517 -2.2820
 7547TIP3    H222606   1.370   5.578   5.544  1.8065 -0.5610 -2.2042
 7548TIP3   OH222607   0.671   4.128   2.610 -0.4515  0.2731 -0.0935
 7548TIP3    H122608   0.734   4.196   2.634  0.1486 -1.1471  2.7194
 7548TIP3    H222609   0.585   4.171   2.616 -0.1062  0.7736  1.9488
 7549TIP3   OH222610   1.658   4.441   0.751  0.1459 -0.1813 -0.0469
 7549TIP3    H122611   1.633   4.371   0.691  0.5076 -2.0068  1.8370
 7549TIP3    H222612   1.742   4.414   0.786  0.7894  1.7327 -0.0034
 7550TIP3   OH222613   0.710   5.998   2.274  0.5691 -0.5593 -0.3365
 7550TIP3    H122614   0.705   5.920   2.330  1.8990 -0.1949  0.3078
 7550TIP3    H222615   0.794   5.990   2.230  1.4486  1.3010  0.9230
 7551TIP3   OH222616   1.707   6.166   5.569  0.7252  0.6156 -0.9565
 7551TIP3    H122617   1.655   6.244   5.549 -0.5878 -0.5335 -2.2799
 7551TIP3    H222618   1.660   6.124   5.641  0.1852 -0.0406 -1.6691
 7552TIP3   OH222619   1.430   5.013   4.201 -0.3705  0.4521  0.0193
 7552TIP3    H122620   1.431   5.001   4.106 -2.6815  0.4553 -0.0813
 7552TIP3    H222621   1.366   4.949   4.232  1.0901 -0.2679  1.7324
 7553TIP3   OH222622   0.615   1.412   0.492 -0.8083  0.0681 -0.5083
 7553TIP3    H122623   0.653   1.446   0.573  2.3360  0.7296 -2.1076
 7553TIP3    H222624   0.545   1.353   0.521  1.8986 -1.8347  2.8169
 7554TIP3   OH222625   5.791   2.168   3.139 -0.5176  0.3141 -0.2546
 7554TIP3    H122626   5.793   2.253   3.184 -0.6182  0.9851 -1.4558
 7554TIP3    H222627   5.830   2.107   3.201  0.7747  1.4853  0.1589
 7555TIP3   OH222628   4.606   4.137   1.094  0.3374  0.7926 -0.1065
 7555TIP3    H122629   4.525   4.103   1.054  0.9154 -0.2722 -0.4145
 7555TIP3    H222630   4.609   4.096   1.180 -0.3403  2.2274  0.6317
 7556TIP3   OH222631   5.402   2.895   2.840  0.3048 -0.1725  0.5495
 7556TIP3    H122632   5.324   2.914   2.892  0.4631  2.2532  0.0043
 7556TIP3    H222633   5.436   2.814   2.877 -1.0510  0.0760  2.4891
 7557TIP3   OH222634   6.399   3.204   4.280 -0.2326 -0.1678 -0.9136
 7557TIP3    H122635   6.487   3.169   4.291 -0.5037 -0.1793  2.4016
 7557TIP3    H222636   6.343   3.145   4.330 -1.8187  0.9437 -1.2753
 7558TIP3   OH222637   0.505   5.846   0.559  0.7662 -0.0380 -0.1024
 7558TIP3    H122638   0.422   5.893   0.569  0.6617 -0.0417 -0.8846
 7558TIP3    H222639   0.510   5.825   0.465  1.4610 -0.3887  0.0035
 7559TIP3   OH222640   1.795   4.391   3.744 -0.2030 -0.1054 -0.6586
 7559TIP3    H122641   1.848   4.344   3.680 -1.2083  1.5786 -2.8643
 7559TIP3    H222642   1.859   4.434   3.800  0.7136 -1.3936 -0.6665
 7560TIP3   OH222643   4.948   3.449   3.837  0.0334  0.0202  0.7341
 7560TIP3    H122644   4.863   3.431   3.798  0.4385  0.8078 -0.6077
 7560TIP3    H222645   4.990   3.363   3.844  0.6447 -0.0388 -2.3609
 7561TIP3   OH222646   3.745   3.206   3.459  0.4069 -0.1807  0.5326
 7561TIP3    H122647   3.675   3.261   3.494  0.0267  0.3688 -1.0180
 7561TIP3    H222648   3.706   3.119   3.454 -0.4843  0.2797 -1.1052
 7562TIP3   OH222649   3.296   5.928   2.736 -0.3199  0.7972 -0.3532
 7562TIP3    H122650   3.251   5.864   2.681 -0.5767  1.4420 -0.9178
 7562TIP3    H222651   3.280   6.012   2.692 -0.8442  1.3836  0.9225
 7563TIP3   OH222652   3.019   3.580   2.379  0.2364  0.3191  0.4008
 7563TIP3    H122653   2.967   3.613   2.452  1.1029  0.9248  0.7537
 7563TIP3    H222654   3.108   3.610   2.396  0.7992 -1.0325  0.0174
 7564TIP3   OH222655   5.573   6.099   3.825 -0.2419 -0.2698  0.9642
 7564TIP3    H122656   5.583   6.175   3.882 -0.7452  0.2695  0.3506
 7564TIP3    H222657   5.663   6.067   3.811  0.1839  1.2712 -0.1738
 7565TIP3   OH222658   2.060   3.352   1.508  0.5357 -0.5372 -0.0709
 7565TIP3    H122659   2.099   3.313   1.586 -2.1397 -0.6130  1.3477
 7565TIP3    H222660   2.060   3.446   1.526  0.6326 -0.4837 -0.3462
 7566TIP3   OH222661   0.716   3.888   0.217 -0.6233  0.4569 -0.1369
 7566TIP3    H122662   0.645   3.858   0.274 -0.6057 -1.7337 -1.1438
 7566TIP3    H222663   0.738   3.811   0.164  1.2282  1.6199 -1.1727
 7567TIP3   OH222664   0.415   0.496   1.439  0.2815  1.0878 -0.6787
 7567TIP3    H122665   0.410   0.408   1.401 -0.5365  0.0259  1.6944
 7567TIP3    H222666   0.494   0.534   1.400  2.3575 -1.7965  0.3384
 7568TIP3   OH222667   4.881   2.365   0.949 -0.0065 -0.3403 -0.2975
 7568TIP3    H122668   4.962   2.361   0.899  1.1220 -0.9653  1.4956
 7568TIP3    H222669   4.826   2.296   0.912  1.0159 -1.1486 -0.3513
 7569TIP3   OH222670   1.563   6.259   0.742 -0.6187 -0.0653  0.1031
 7569TIP3    H122671   1.566   6.164   0.729  0.3895 -0.2115  1.2715
 7569TIP3    H222672   1.481   6.286   0.701 -1.3402 -1.5611  0.5047
 7570TIP3   OH222673   0.266   1.954   1.924 -0.2432 -0.1996 -0.2185
 7570TIP3    H122674   0.224   1.878   1.965  1.7903 -0.8845  0.7128
 7570TIP3    H222675   0.268   2.021   1.992 -2.6002  0.9934 -1.2266
 7571TIP3   OH222676   0.321   0.825   3.317  0.2539 -0.2442 -0.3796
 7571TIP3    H122677   0.328   0.910   3.274 -2.5072 -0.1241 -0.7899
 7571TIP3    H222678   0.360   0.763   3.254  0.9690  0.5300 -0.7105
 7572TIP3   OH222679   2.992   5.047   3.096 -0.0932 -0.0813 -0.1984
 7572TIP3    H122680   3.030   5.110   3.034 -0.1259 -0.8284 -1.0008
 7572TIP3    H222681   2.898   5.053   3.081 -0.1097 -0.1547 -0.1204
 7573TIP3   OH222682   5.557   3.250   4.882 -0.2162  0.5132  0.0609
 7573TIP3    H122683   5.646   3.281   4.865 -0.0752  0.0292 -0.0730
 7573TIP3    H222684   5.553   3.241   4.977  0.1062 -0.1570  0.0111
 7574TIP3   OH222685   4.741   6.032   4.989  0.0493 -0.4915 -0.5214
 7574TIP3    H122686   4.670   6.077   5.034  0.1025 -1.4787  0.5908
 7574TIP3    H222687   4.816   6.091   4.997 -0.4397  0.2187 -1.0577
 7575TIP3   OH222688   0.775   4.369   5.594 -0.3179  0.0408 -0.0496
 7575TIP3    H122689   0.766   4.273   5.594  1.8254 -0.2305  1.1689
 7575TIP3    H222690   0.801   4.390   5.504  1.1678 -0.8031  0.1434
 7576TIP3   OH222691   1.559   3.476   2.810 -0.0501  0.2786 -0.0622
 7576TIP3    H122692   1.501   3.552   2.815 -0.2821  0.0807  0.3230
 7576TIP3    H222693   1.581   3.457   2.901 -0.1094 -0.2031 -0.1474
 7577TIP3   OH222694   4.458   6.314   0.326  0.4413 -0.3797 -0.5473
 7577TIP3    H122695   4.375   6.299   0.281  0.9012 -0.4355 -1.3835
 7577TIP3    H222696   4.480   6.229   0.364 -0.5584 -0.0547  0.8756
 7578TIP3   OH222697   2.601   3.095   4.151  0.7306 -0.3167 -0.1499
 7578TIP3    H122698   2.560   3.047   4.078  0.0732  1.8378 -1.2732
 7578TIP3    H222699   2.634   3.175   4.111 -0.3874  1.3451  2.0649
 7579TIP3   OH222700   5.919   1.582   1.386 -0.0278 -0.0443 -0.1059
 7579TIP3    H122701   5.968   1.609   1.464  1.6199 -0.8845 -0.7840
 7579TIP3    H222702   5.892   1.664   1.345  0.8904  0.4615  0.2695
 7580TIP3   OH222703   2.489   6.683   5.556 -0.0658 -0.0980  0.2127
 7580TIP3    H122704   2.432   6.730   5.496 -0.5876 -1.5064 -0.4214
 7580TIP3    H222705   2.433   6.659   5.630 -0.0989 -0.7564 -0.0225
 7581TIP3   OH222706   5.899   4.928   0.487  0.0997 -0.4845  0.0220
 7581TIP3    H122707   5.864   4.883   0.410 -0.2168 -0.5326  0.1892
 7581TIP3    H222708   5.860   5.015   0.483 -0.8397 -0.8469  0.7346
 7582TIP3   OH222709   1.376   5.214   3.205 -0.2984  0.0262  0.7182
 7582TIP3    H122710   1.391   5.227   3.112 -1.9066  3.8297  0.8239
 7582TIP3    H222711   1.319   5.137   3.210  2.2112 -2.1463 -1.0415
 7583TIP3   OH222712   5.138   3.201   4.985 -0.0087 -0.4063 -0.2902
 7583TIP3    H122713   5.098   3.240   4.908  0.2953 -0.2267 -0.3562
 7583TIP3    H222714   5.126   3.265   5.055 -2.7275 -1.6724  0.5310
 7584TIP3   OH222715   0.194   1.819   5.243 -0.7573 -0.0607  0.3921
 7584TIP3    H122716   0.121   1.765   5.275 -0.2896 -0.1463  1.3753
 7584TIP3    H222717   0.160   1.908   5.244 -1.9056 -0.3908 -2.3063
 7585TIP3   OH222718   6.995   1.917   1.989 -0.1180  0.1840 -0.2952
 7585TIP3    H122719   7.062   1.977   1.958  0.2725 -0.0523  0.0752
 7585TIP3    H222720   6.916   1.970   1.998  0.2230  0.6408  0.0253
 7586TIP3   OH222721   6.722   5.352   0.738  0.1336 -0.7806 -0.4844
 7586TIP3    H122722   6.793   5.321   0.681 -0.8981 -1.5793 -1.3722
 7586TIP3    H222723   6.715   5.286   0.806 -0.6091 -1.3955 -1.1396
 7587TIP3   OH222724   3.619   1.542   2.015  0.8359 -0.0343 -0.2346
 7587TIP3    H122725   3.658   1.620   1.976  0.9970  0.4256  0.8254
 7587TIP3    H222726   3.637   1.550   2.109 -1.0402 -0.2340  0.1943
 7588TIP3   OH222727   3.855   2.582   5.719  0.5229  0.1790 -0.3023
 7588TIP3    H122728   3.911   2.629   5.780 -0.6600  0.9517  0.2070
 7588TIP3    H222729   3.821   2.649   5.661 -1.2730  0.0030  0.5029
 7589TIP3   OH222730   6.990   1.747   2.534  0.7979  0.0382  0.3458
 7589TIP3    H122731   6.986   1.748   2.630  0.4260  1.0313  0.3255
 7589TIP3    H222732   7.080   1.720   2.514  1.6408  2.1300  1.0154
 7590TIP3   OH222733   7.155   5.335   5.276  0.5332 -0.4156  0.0620
 7590TIP3    H122734   7.225   5.310   5.337  1.1320  0.5777 -0.2035
 7590TIP3    H222735   7.123   5.251   5.242 -0.8022 -1.1157  2.7671
 7591TIP3   OH222736   5.632   1.216   3.219  0.1970 -0.2104 -0.1634
 7591TIP3    H122737   5.605   1.211   3.310 -1.3042  1.2272 -0.4741
 7591TIP3    H222738   5.720   1.252   3.221 -0.4058  1.2920  0.6890
 7592TIP3   OH222739   4.681   3.680   2.811  0.6155 -0.3874 -0.2188
 7592TIP3    H122740   4.710   3.766   2.780  0.2527  0.4969  1.7312
 7592TIP3    H222741   4.630   3.644   2.739  1.3309  0.7309 -1.3295
 7593TIP3   OH222742   2.730   5.570   5.209  0.6525 -0.3659 -0.2625
 7593TIP3    H122743   2.664   5.603   5.149  1.8910  1.9794 -0.4370
 7593TIP3    H222744   2.703   5.601   5.296  1.3566  0.4149 -0.3046
 7594TIP3   OH222745   5.102   5.609   2.138 -0.1457 -0.0899  0.1739
 7594TIP3    H122746   5.136   5.525   2.170  1.4556  0.8094  0.9437
 7594TIP3    H222747   5.017   5.587   2.101  0.5761 -2.1946 -0.4017
 7595TIP3   OH222748   4.862   5.607   4.029 -0.3298  0.0553 -0.6056
 7595TIP3    H122749   4.840   5.519   3.999 -0.2239 -0.3164  0.3535
 7595TIP3    H222750   4.920   5.642   3.962  0.1168 -0.8463 -0.7075
 7596TIP3   OH222751   3.028   2.260   4.184 -0.2969  0.6331 -0.5780
 7596TIP3    H122752   2.946   2.275   4.138 -0.1723 -0.4598 -1.1856
 7596TIP3    H222753   3.025   2.319   4.259 -0.7734  2.0207 -1.6449
 7597TIP3   OH222754   0.481   3.747   5.311  0.1207 -0.1052  0.5430
 7597TIP3    H122755   0.450   3.657   5.299 -0.0360 -0.1784  1.3804
 7597TIP3    H222756   0.518   3.772   5.227  0.6141 -1.1267  0.4426
 7598TIP3   OH222757   1.866   4.088   4.756  0.4760 -0.5592 -0.1160
 7598TIP3    H122758   1.899   4.058   4.672 -0.6045  3.0558 -2.0703
 7598TIP3    H222759   1.906   4.174   4.768 -1.8700  0.4204  1.4306
 7599TIP3   OH222760   3.167   6.637   3.264 -1.0726 -0.1685  0.6518
 7599TIP3    H122761   3.197   6.552   3.296  0.5409  0.2718  0.3924
 7599TIP3    H222762   3.231   6.699   3.298  0.1581  0.4647 -2.4722
 7600TIP3   OH222763   4.343   2.668   0.765 -0.6605  0.4615  0.2367
 7600TIP3    H122764   4.371   2.629   0.847  0.4601  1.6473  0.4608
 7600TIP3    H222765   4.322   2.594   0.709 -0.3189 -0.3987  1.2087
 7601TIP3   OH222766   6.473   0.598   0.151  0.3099 -0.2155  0.2800
 7601TIP3    H122767   6.516   0.518   0.121  0.6956  0.3504 -0.7292
 7601TIP3    H222768   6.465   0.652   0.072  0.8378  1.1050  1.0988
 7602TIP3   OH222769   5.372   3.937   5.631 -0.0889  0.3723  0.2350
 7602TIP3    H122770   5.345   3.845   5.631 -0.7112  0.5170 -1.7209
 7602TIP3    H222771   5.454   3.938   5.680 -0.5930 -1.0436  1.1769
 7603TIP3   OH222772   4.061   2.926   5.219  0.2001  0.1897  0.1540
 7603TIP3    H122773   4.132   2.981   5.252  0.4517 -0.2280  0.3226
 7603TIP3    H222774   4.103   2.869   5.155 -0.3447  1.2167 -1.1599
 7604TIP3   OH222775   2.287   2.426   0.570 -0.8824 -0.3136  0.0620
 7604TIP3    H122776   2.270   2.338   0.537  1.6532 -0.5377 -0.9011
 7604TIP3    H222777   2.289   2.416   0.665 -2.5424 -0.8520  0.0697
 7605TIP3   OH222778   1.510   1.563   0.134  0.0442  0.0411 -0.1534
 7605TIP3    H122779   1.504   1.646   0.088 -1.7459  0.0931  0.0898
 7605TIP3    H222780   1.500   1.586   0.227 -0.5872 -0.4336 -0.0955
 7606TIP3   OH222781   2.714   4.489   0.525  0.0005 -0.2362 -0.5782
 7606TIP3    H122782   2.664   4.538   0.460  0.2219  1.9109  0.7557
 7606TIP3    H222783   2.648   4.445   0.578 -0.4078  1.0419  0.0057
 7607TIP3   OH222784   2.871   3.782   5.377 -0.1775  0.0027 -0.0499
 7607TIP3    H122785   2.947   3.725   5.391  0.0966  0.3848  0.0268
 7607TIP3    H222786   2.820   3.738   5.309  0.6480  0.2666 -0.8625
 7608TIP3   OH222787   6.072   6.317   4.686  0.4960 -0.2624 -0.4806
 7608TIP3    H122788   6.088   6.404   4.722 -1.8835  1.0776 -2.3386
 7608TIP3    H222789   6.128   6.259   4.737  0.7090  2.0730  2.1897
 7609TIP3   OH222790   1.505   5.821   4.889  0.3842 -0.1545 -0.0618
 7609TIP3    H122791   1.563   5.881   4.844 -0.3233  0.8270  0.3041
 7609TIP3    H222792   1.477   5.759   4.822 -0.0913  0.8524 -0.8156
 7610TIP3   OH222793   2.120   3.341   0.832  0.2911  0.0323  0.0350
 7610TIP3    H122794   2.210   3.365   0.813 -0.6484  3.4476 -0.9050
 7610TIP3    H222795   2.123   3.307   0.922  2.6548 -1.4336 -0.5227
 7611TIP3   OH222796   6.686   5.919   3.314 -0.6131 -0.1922 -0.4839
 7611TIP3    H122797   6.708   6.011   3.330 -0.2810 -0.4474  0.5771
 7611TIP3    H222798   6.736   5.896   3.236  1.4528 -0.2296  0.8015
 7612TIP3   OH222799   3.784   4.612   4.732 -0.1337 -0.2314  0.2974
 7612TIP3    H122800   3.740   4.533   4.700 -0.3526 -0.5081  1.2410
 7612TIP3    H222801   3.756   4.620   4.823 -2.7132  2.7019 -0.5531
 7613TIP3   OH222802   0.935   3.982   2.853  0.5438  0.1314  0.4678
 7613TIP3    H122803   0.857   3.926   2.845  1.5952 -1.5787  1.6440
 7613TIP3    H222804   0.904   4.069   2.827 -1.3453 -0.8097 -0.6914
 7614TIP3   OH222805   5.081   5.601   2.468  0.4431 -0.0858  0.1471
 7614TIP3    H122806   5.151   5.548   2.428  1.5283 -0.8537  2.8690
 7614TIP3    H222807   5.122   5.686   2.484  0.2622 -0.0313  0.3149
 7615TIP3   OH222808   4.593   4.209   2.180 -0.2603  0.9240  0.2109
 7615TIP3    H122809   4.675   4.244   2.215  0.0014  0.6317 -0.0931
 7615TIP3    H222810   4.620   4.157   2.104 -0.5546 -0.4412  0.9987
 7616TIP3   OH222811   5.818   3.965   3.995 -0.5921 -0.3709 -0.0576
 7616TIP3    H122812   5.832   4.060   4.007  0.6543 -0.6533  0.9775
 7616TIP3    H222813   5.812   3.954   3.900  0.9888  0.5591 -0.3227
 7617TIP3   OH222814   2.402   1.966   4.654  0.0889 -0.5486 -0.5796
 7617TIP3    H122815   2.332   1.910   4.622  0.6263 -0.6358 -1.6362
 7617TIP3    H222816   2.477   1.907   4.666  0.0199 -0.4421  0.4555
 7618TIP3   OH222817   6.061   2.528   0.753  0.0185 -0.2167 -0.4167
 7618TIP3    H122818   6.155   2.536   0.738  0.1436 -0.6504  0.0848
 7618TIP3    H222819   6.048   2.558   0.843 -0.1548 -1.1971 -0.1021
 7619TIP3   OH222820   6.824   3.857   1.382 -0.1935  0.0766 -0.0236
 7619TIP3    H122821   6.827   3.819   1.294 -0.7159  0.0239 -0.0251
 7619TIP3    H222822   6.837   3.782   1.441 -0.5012  0.0031 -0.0444
 7620TIP3   OH222823   5.689   6.389   5.786 -0.3319 -0.3260 -0.1246
 7620TIP3    H122824   5.598   6.416   5.774 -0.2315  0.2158  0.3035
 7620TIP3    H222825   5.686   6.323   5.856 -0.0942  1.7830  2.0103
 7621TIP3   OH222826   2.525   3.186   1.882  0.0284  0.2023 -0.1343
 7621TIP3    H122827   2.537   3.241   1.960  0.3407  0.6356 -0.4796
 7621TIP3    H222828   2.510   3.249   1.811 -3.4602 -0.2422  0.0599
 7622TIP3   OH222829   0.830   3.952   1.243 -0.3421 -0.2662  0.3609
 7622TIP3    H122830   0.805   3.964   1.335 -0.0000  0.8732  0.3218
 7622TIP3    H222831   0.918   3.916   1.246 -0.5513 -0.7730  0.4794
 7623TIP3   OH222832   0.293   0.587   1.160 -0.9070  0.2186 -0.0767
 7623TIP3    H122833   0.291   0.566   1.067  0.2574 -1.0315  0.1423
 7623TIP3    H222834   0.317   0.504   1.203 -0.6660  0.9494  1.2643
 7624TIP3   OH222835   3.543   5.913   1.260  0.2129  0.6224 -0.7442
 7624TIP3    H122836   3.631   5.913   1.297  0.6824  1.0086 -1.8144
 7624TIP3    H222837   3.518   5.820   1.259  0.2090  0.5927  0.4267
 7625TIP3   OH222838   4.466   6.012   0.231 -0.2867 -0.0989  0.3233
 7625TIP3    H122839   4.488   5.921   0.212  0.0012  0.0779 -0.1936
 7625TIP3    H222840   4.539   6.043   0.285  0.1553  0.1365 -0.3965
 7626TIP3   OH222841   4.086   1.930   2.898 -0.0014 -0.6905 -0.3900
 7626TIP3    H122842   4.126   1.953   2.814  0.7118 -0.3367  0.0320
 7626TIP3    H222843   4.129   1.988   2.961 -1.4555 -0.0270  0.0455
 7627TIP3   OH222844   4.870   1.257   3.059 -0.3781 -0.3578 -0.1159
 7627TIP3    H122845   4.947   1.206   3.038 -0.8951 -0.4578 -1.9167
 7627TIP3    H222846   4.809   1.194   3.097 -0.3197 -0.6913 -0.5758
 7628TIP3   OH222847   2.148   5.583   0.665 -0.3837 -0.2596  0.0849
 7628TIP3    H122848   2.082   5.628   0.613  0.2198  1.0426  0.4069
 7628TIP3    H222849   2.150   5.494   0.630 -2.7276 -0.5400  0.4548
 7629TIP3   OH222850   5.102   2.204   1.907  0.3368  0.0899  0.5347
 7629TIP3    H122851   5.196   2.201   1.923  0.5127  1.5397 -0.0014
 7629TIP3    H222852   5.095   2.223   1.813 -0.4600  0.6363  0.6896
 7630TIP3   OH222853   1.768   4.865   0.801  0.1325 -0.0388 -0.2693
 7630TIP3    H122854   1.842   4.922   0.818 -0.7059  1.3430 -1.0368
 7630TIP3    H222855   1.732   4.844   0.887  1.6148 -1.0564  0.1349
 7631TIP3   OH222856   5.401   0.998   3.833  0.7655  0.1173  0.6702
 7631TIP3    H122857   5.316   0.961   3.809  1.2977 -1.8079  1.6020
 7631TIP3    H222858   5.403   0.993   3.929  1.9125  0.1901  0.6599
 7632TIP3   OH222859   6.575   3.698   3.762 -0.1516 -0.1958  0.3875
 7632TIP3    H122860   6.530   3.779   3.788 -0.2815 -0.9196  2.6589
 7632TIP3    H222861   6.537   3.676   3.677 -0.1601  2.0624 -0.2766
 7633TIP3   OH222862   4.000   6.524   0.453 -0.8948 -1.3157  0.4121
 7633TIP3    H122863   3.919   6.500   0.409 -0.6415 -0.7072 -0.4237
 7633TIP3    H222864   4.045   6.582   0.391  0.1042 -1.5147  0.9172
 7634TIP3   OH222865   5.089   5.490   4.732 -0.0047  0.3172  0.6316
 7634TIP3    H122866   5.013   5.446   4.694  1.0849 -1.4175  0.3545
 7634TIP3    H222867   5.164   5.448   4.691  1.1382  0.8961  2.0385
 7635TIP3   OH222868   5.453   2.244   0.747  0.2883 -0.3179  0.8119
 7635TIP3    H122869   5.410   2.315   0.698  0.7118 -0.2834  0.4874
 7635TIP3    H222870   5.497   2.288   0.819  2.2516  0.0247 -0.5167
 7636TIP3   OH222871   0.487   4.768   0.094  0.2014  1.0323 -0.1137
 7636TIP3    H122872   0.518   4.844   0.142  1.1404 -0.2756  1.4659
 7636TIP3    H222873   0.483   4.698   0.159 -0.4920 -0.3101 -1.5258
 7637TIP3   OH222874   2.208   6.176   0.667 -0.1128  0.0577  0.5066
 7637TIP3    H122875   2.134   6.116   0.675 -1.1220  1.3474  1.4326
 7637TIP3    H222876   2.197   6.237   0.740  1.0033  1.2057 -0.2378
 7638TIP3   OH222877   4.394   0.999   0.201  0.0632 -0.2739  0.0897
 7638TIP3    H122878   4.302   1.012   0.227  1.1200  1.3656  3.7246
 7638TIP3    H222879   4.432   0.947   0.272  2.4611  1.1412 -0.0467
 7639TIP3   OH222880   2.207   4.969   0.328  0.1780 -0.1325  0.4443
 7639TIP3    H122881   2.154   4.918   0.390  2.4050 -1.1215  1.6642
 7639TIP3    H222882   2.224   5.052   0.374 -0.0707  0.0694  0.1740
 7640TIP3   OH222883   0.218   2.400   0.936 -0.4313 -0.1771  0.0048
 7640TIP3    H122884   0.300   2.450   0.941 -1.5140  1.7867 -0.6410
 7640TIP3    H222885   0.205   2.365   1.024  2.1520 -2.4067 -0.3756
 7641TIP3   OH222886   6.689   1.969   2.519  0.0144  0.0736 -0.5935
 7641TIP3    H122887   6.707   1.888   2.472 -1.9066 -0.7232 -0.0608
 7641TIP3    H222888   6.602   1.995   2.489 -0.7047  0.2534  1.4764
 7642TIP3   OH222889   5.260   1.571   3.195  0.0560 -0.2542  0.4597
 7642TIP3    H122890   5.303   1.559   3.110  0.7132 -0.6537  0.8374
 7642TIP3    H222891   5.318   1.527   3.257 -0.4884 -0.0811  1.0987
 7643TIP3   OH222892   6.183   0.046   2.733 -0.2317 -0.5700  0.5773
 7643TIP3    H122893   6.241   0.027   2.659 -1.2447 -1.0494 -0.1224
 7643TIP3    H222894   6.236   0.027   2.811  1.2192  0.9563  0.0339
 7644TIP3   OH222895   3.445   3.802   4.283  0.4350  0.6285  0.1360
 7644TIP3    H122896   3.423   3.751   4.361  0.2099 -0.8616 -0.8678
 7644TIP3    H222897   3.378   3.870   4.279 -0.2722 -0.0292  0.5814
 7645TIP3   OH222898   7.043   0.525   3.712 -0.0835 -0.0176  0.4378
 7645TIP3    H122899   7.102   0.556   3.644 -1.8680  1.4856 -0.4932
 7645TIP3    H222900   7.018   0.603   3.761 -1.5193 -0.5609  0.6236
 7646TIP3   OH222901   1.100   4.028   2.608  0.1857  0.2459  0.3632
 7646TIP3    H122902   1.047   4.095   2.651 -1.8275 -1.2140  0.2941
 7646TIP3    H222903   1.038   3.982   2.551  1.3301 -2.0555  0.8688
 7647TIP3   OH222904   5.617   5.562   3.639  0.0990  0.3107 -0.0884
 7647TIP3    H122905   5.686   5.500   3.617  1.1156  0.9863  1.0882
 7647TIP3    H222906   5.537   5.521   3.606  0.6461 -1.8534  1.0745
 7648TIP3   OH222907   4.962   6.512   4.528 -0.1682 -0.8805  0.5214
 7648TIP3    H122908   4.902   6.573   4.572  0.0038 -0.5607  0.3200
 7648TIP3    H222909   5.049   6.546   4.549  0.0319 -2.2513  2.1683
 7649TIP3   OH222910   4.241   1.725   2.502 -0.3003 -0.3841 -0.2366
 7649TIP3    H122911   4.237   1.810   2.458 -0.7784  0.3511  1.1552
 7649TIP3    H222912   4.330   1.720   2.536 -0.4874 -0.0823  0.3188
 7650TIP3   OH222913   5.838   1.310   1.449 -0.1462 -0.2248  0.0521
 7650TIP3    H122914   5.780   1.337   1.520  0.2803  0.2990  0.2075
 7650TIP3    H222915   5.860   1.391   1.403 -0.8786 -0.6275 -1.0515
 7651TIP3   OH222916   2.947   3.032   5.454  0.1540  0.3651 -0.0098
 7651TIP3    H122917   3.042   3.034   5.462 -0.0060  3.0074  3.2710
 7651TIP3    H222918   2.924   3.118   5.418 -1.0283 -0.8447 -2.4152
 7652TIP3   OH222919   3.145   1.107   3.983 -0.1560 -0.3013  0.5195
 7652TIP3    H122920   3.095   1.151   4.052  0.2399  0.1536  0.5286
 7652TIP3    H222921   3.236   1.113   4.013 -0.0367 -0.5769  0.2145
 7653TIP3   OH222922   1.129   4.889   3.523  0.2818 -0.2104 -0.2144
 7653TIP3    H122923   1.035   4.875   3.534  0.3519 -1.3234 -0.8069
 7653TIP3    H222924   1.138   4.918   3.432  0.3182  2.1879  0.5071
 7654TIP3   OH222925   1.513   4.896   5.710 -0.2747  0.0961 -0.0137
 7654TIP3    H122926   1.546   4.810   5.683 -1.1071  0.1476 -1.2624
 7654TIP3    H222927   1.420   4.881   5.728 -0.4104  0.7217 -0.1771
 7655TIP3   OH222928   2.912   2.790   1.665  1.1506 -0.1623 -0.0590
 7655TIP3    H122929   2.993   2.746   1.688  1.7220  1.0120  0.2749
 7655TIP3    H222930   2.889   2.841   1.743 -0.7232 -1.5927  0.3927
 7656TIP3   OH222931   6.945   2.304   4.884 -0.5853 -0.2881  0.6894
 7656TIP3    H122932   7.012   2.372   4.882 -0.4436 -0.3489  2.0448
 7656TIP3    H222933   6.875   2.336   4.827 -0.8781  1.3821  1.9154
 7657TIP3   OH222934   0.709   3.808   2.798 -0.0688 -0.2775  0.4103
 7657TIP3    H122935   0.683   3.764   2.879 -0.8785 -0.3941  0.0982
 7657TIP3    H222936   0.658   3.764   2.729  0.6484 -0.2204 -0.1720
 7658TIP3   OH222937   2.284   1.751   0.575 -0.0127  0.1742 -0.5621
 7658TIP3    H122938   2.227   1.679   0.603  0.0443  0.1943 -0.3936
 7658TIP3    H222939   2.363   1.741   0.628  1.2856 -1.4845 -2.6427
 7659TIP3   OH222940   5.080   2.529   4.420  0.6281  0.1252 -0.4987
 7659TIP3    H122941   5.101   2.566   4.334  1.5929  0.9705  0.0691
 7659TIP3    H222942   5.094   2.601   4.481 -0.0409 -0.4645  0.3698
 7660TIP3   OH222943   4.463   5.061   1.347 -0.0330 -0.0932  0.2148
 7660TIP3    H122944   4.444   5.150   1.315 -1.8499 -0.5553 -0.1485
 7660TIP3    H222945   4.464   5.007   1.268  0.8072 -0.4409  0.4557
 7661TIP3   OH222946   0.766   5.224   4.811 -0.2699 -0.3112  0.4411
 7661TIP3    H122947   0.806   5.284   4.874 -1.3218  1.0035 -0.1089
 7661TIP3    H222948   0.679   5.206   4.847 -1.0308  0.7654 -0.8107
 7662TIP3   OH222949   6.953   5.799   3.703  0.0359 -0.3968  0.5235
 7662TIP3    H122950   6.909   5.786   3.619  2.3763 -2.3214 -0.5399
 7662TIP3    H222951   6.992   5.887   3.696 -2.1620  0.6641  0.8542
 7663TIP3   OH222952   7.159   5.789   3.093 -0.2379 -0.2874 -0.2046
 7663TIP3    H122953   7.079   5.824   3.133  0.6200  1.0702  0.3647
 7663TIP3    H222954   7.129   5.710   3.047 -1.7632 -0.2826  0.6829
 7664TIP3   OH222955   0.905   6.709   1.494  0.0313 -0.6675  0.1584
 7664TIP3    H122956   0.821   6.671   1.467 -0.0807 -0.4457  0.1912
 7664TIP3    H222957   0.902   6.709   1.589  0.5100 -1.6339  0.1857
 7665TIP3   OH222958   6.398   4.389   2.707 -0.2809 -0.6377  0.0382
 7665TIP3    H122959   6.365   4.466   2.661  0.6350 -1.1475 -1.5725
 7665TIP3    H222960   6.373   4.315   2.651  1.3274 -1.2367  0.0546
 7666TIP3   OH222961   0.913   0.652   2.264 -0.6667  0.2823 -0.5102
 7666TIP3    H122962   1.006   0.676   2.256  0.8217 -3.6380  1.7480
 7666TIP3    H222963   0.880   0.705   2.336  1.0313 -0.7695  1.1519
 7667TIP3   OH222964   5.646   0.520   1.795 -0.0436 -0.5400 -0.2302
 7667TIP3    H122965   5.628   0.439   1.748  0.0630  0.0416 -1.2920
 7667TIP3    H222966   5.736   0.509   1.827  0.9103  0.1137 -2.4853
 7668TIP3   OH222967   2.241   0.613   5.863  0.4513  0.4956 -0.2220
 7668TIP3    H122968   2.164   0.607   5.807  0.1026 -1.0337  0.3618
 7668TIP3    H222969   2.209   0.652   5.945  0.6039  1.1528 -0.4697
 7669TIP3   OH222970   2.410   4.932   1.982  0.0475  0.0634 -0.0427
 7669TIP3    H122971   2.319   4.961   1.992  0.7923  2.2388  0.9386
 7669TIP3    H222972   2.410   4.882   1.900 -1.7702  1.0607 -0.7141
 7670TIP3   OH222973   5.436   0.992   5.213  0.3230 -0.1647  0.3546
 7670TIP3    H122974   5.382   0.993   5.292 -0.8787 -0.5437 -0.4363
 7670TIP3    H222975   5.522   0.962   5.243 -0.5710 -2.0096  1.2296
 7671TIP3   OH222976   6.204   6.256   2.696 -0.2479 -0.5986 -0.3957
 7671TIP3    H122977   6.207   6.226   2.606 -0.3918  0.0106 -0.6089
 7671TIP3    H222978   6.289   6.230   2.733 -0.4521 -1.4453 -0.5003
 7672TIP3   OH222979   5.987   4.240   0.083 -0.2592 -0.3782  0.1771
 7672TIP3    H122980   5.975   4.323   0.127  1.2225  0.2359 -0.5251
 7672TIP3    H222981   5.999   4.176   0.153  2.3468  0.6175  0.7442
 7673TIP3   OH222982   4.921   5.026   5.415 -0.1930  0.2064  0.2006
 7673TIP3    H122983   4.992   5.026   5.351  1.4952  0.3878  1.9493
 7673TIP3    H222984   4.914   5.117   5.443  0.8370 -0.2138  1.9949
 7674TIP3   OH222985   4.412   0.362   1.946  0.3697 -0.3742  0.0216
 7674TIP3    H122986   4.396   0.351   2.039  0.1700  2.5144  0.4170
 7674TIP3    H222987   4.325   0.358   1.906  0.2533  0.2434  0.2084
 7675TIP3   OH222988   1.696   6.282   4.225 -0.7373  0.0783 -0.1605
 7675TIP3    H122989   1.687   6.369   4.263 -0.7904  0.0382 -0.0817
 7675TIP3    H222990   1.786   6.278   4.192 -0.7228  0.1480 -0.1285
 7676TIP3   OH222991   0.584   6.710   2.346 -0.3238  0.2854 -0.1373
 7676TIP3    H122992   0.627   6.711   2.261 -0.7922 -0.0932 -0.3850
 7676TIP3    H222993   0.655   6.723   2.409  0.0984  0.0624 -0.5582
 7677TIP3   OH222994   0.461   1.359   1.249  0.8144  0.7984 -0.1366
 7677TIP3    H122995   0.371   1.338   1.226  0.4572  2.5037 -0.3782
 7677TIP3    H222996   0.514   1.307   1.188  0.0031  0.1932 -0.3474
 7678TIP3   OH222997   6.678   4.507   0.319 -0.1383 -0.4847  0.1136
 7678TIP3    H122998   6.631   4.447   0.377 -1.9361 -0.5781 -1.3444
 7678TIP3    H222999   6.611   4.569   0.289  1.3946  1.4663  0.5215
 7679TIP3   OH223000   5.788   2.512   2.911  0.0458  0.5555  0.7467
 7679TIP3    H123001   5.860   2.453   2.935  0.4474  1.1040  0.9057
 7679TIP3    H223002   5.821   2.599   2.932 -0.4806  0.8520  0.3422
 7680TIP3   OH223003   3.544   2.275   2.623  0.2015 -0.0991  1.1071
 7680TIP3    H123004   3.626   2.226   2.623  0.0077 -0.4407  1.7984
 7680TIP3    H223005   3.478   2.213   2.594  0.0505 -0.0729  1.3924
 7681TIP3   OH223006   5.708   2.104   4.690 -0.4739  0.2750 -0.3277
 7681TIP3    H123007   5.649   2.101   4.615  0.4537 -1.0480 -1.0478
 7681TIP3    H223008   5.675   2.037   4.749  0.1190 -0.2636 -0.5998
 7682TIP3   OH223009   6.764   4.305   2.680  0.3265  0.1296  0.3627
 7682TIP3    H123010   6.857   4.291   2.699  0.4895  0.1499 -0.3865
 7682TIP3    H223011   6.756   4.400   2.670  0.2369  0.1222  0.3614
 7683TIP3   OH223012   5.862   1.574   4.075 -0.1111 -0.3209 -0.1113
 7683TIP3    H123013   5.822   1.564   3.989  1.8338 -1.9722 -0.9141
 7683TIP3    H223014   5.946   1.616   4.058  0.5508 -1.1745  0.8858
 7684TIP3   OH223015   6.196   2.892   1.230  0.0301  0.1296 -0.0647
 7684TIP3    H123016   6.240   2.851   1.155  1.8557  0.8085  0.5879
 7684TIP3    H223017   6.204   2.986   1.214 -0.0399  0.2786  0.7246
 7685TIP3   OH223018   6.162   5.979   5.331 -0.2190 -0.2150  0.4774
 7685TIP3    H123019   6.078   5.936   5.344 -1.2845  2.1895  2.3359
 7685TIP3    H223020   6.148   6.070   5.359  2.5824  0.7024 -0.6560
 7686TIP3   OH223021   6.886   2.212   4.106 -0.2754 -0.0668 -0.1705
 7686TIP3    H123022   6.881   2.153   4.032 -0.8915 -0.2672  0.0244
 7686TIP3    H223023   6.975   2.246   4.104  0.2862 -1.4773  0.0859
 7687TIP3   OH223024   0.351   2.755   4.263  0.2045 -0.2908 -0.2116
 7687TIP3    H123025   0.329   2.669   4.300  0.9326 -0.8792 -1.0730
 7687TIP3    H223026   0.317   2.751   4.173  1.9934 -0.4884 -0.9283
 7688TIP3   OH223027   5.340   4.772   3.438  0.5341  0.2849  0.2930
 7688TIP3    H123028   5.251   4.741   3.451  0.2360 -0.1134 -2.2397
 7688TIP3    H223029   5.342   4.858   3.481 -1.1547  0.4407  0.1054
 7689TIP3   OH223030   0.123   2.584   1.515  0.0369 -0.0720  0.0722
 7689TIP3    H123031   0.142   2.512   1.575  1.1688 -0.2265 -0.4501
 7689TIP3    H223032   0.208   2.610   1.481 -0.5321  0.3689 -1.0550
 7690TIP3   OH223033   3.650   2.693   2.181  0.0423 -0.0064  0.1305
 7690TIP3    H123034   3.728   2.683   2.126  2.8403  0.9938  3.5035
 7690TIP3    H223035   3.634   2.605   2.215  0.6153  0.0199  0.4838
 7691TIP3   OH223036   1.005   5.087   0.533 -0.1600 -0.3699  0.0578
 7691TIP3    H123037   0.961   5.006   0.560  0.3460 -0.9637 -0.8455
 7691TIP3    H223038   1.097   5.063   0.523 -0.5386 -0.8652 -4.2924
 7692TIP3   OH223039   5.541   1.503   0.726  0.8678  0.1636  0.0482
 7692TIP3    H123040   5.492   1.455   0.794 -0.5617 -0.4614 -1.3637
 7692TIP3    H223041   5.500   1.590   0.724  0.3512 -0.0838 -0.5471
 7693TIP3   OH223042   6.135   2.913   0.153 -0.3476  0.2117 -0.3984
 7693TIP3    H123043   6.117   2.980   0.218 -1.0229  2.3016 -2.5845
 7693TIP3    H223044   6.063   2.851   0.163  1.5350 -1.7009  3.2432
 7694TIP3   OH223045   6.013   6.192   1.498 -0.0672  0.0259  0.0199
 7694TIP3    H123046   6.069   6.235   1.562 -0.6029  3.6943 -1.7268
 7694TIP3    H223047   6.068   6.123   1.460  0.2164 -2.4166  4.2430
 7695TIP3   OH223048   6.351   4.629   4.390 -0.1499 -0.1245 -0.2859
 7695TIP3    H123049   6.398   4.546   4.402 -1.5088 -1.0442 -0.9997
 7695TIP3    H223050   6.281   4.626   4.454  1.5004  1.8950  1.7734
 7696TIP3   OH223051   7.125   1.646   5.754 -0.2364  0.5786  0.2344
 7696TIP3    H123052   7.166   1.654   5.840 -0.2399 -0.2113  0.3093
 7696TIP3    H223053   7.137   1.732   5.714  1.2625  0.4400  0.3551
 7697TIP3   OH223054   6.313   6.647   4.210  0.3283 -0.5844 -0.1013
 7697TIP3    H123055   6.264   6.570   4.180  0.8525 -1.0229  0.1514
 7697TIP3    H223056   6.269   6.721   4.167  0.3748 -1.1002 -1.0714
 7698TIP3   OH223057   1.824   3.100  -0.008  0.0696  0.2488  0.1660
 7698TIP3    H123058   1.842   3.052   0.073  1.7317  0.2705 -0.1480
 7698TIP3    H223059   1.866   3.185   0.005 -1.0161  0.8378 -0.1170
 7699TIP3   OH223060   5.050   0.282   1.743 -0.2264 -0.1232 -0.3010
 7699TIP3    H123061   5.097   0.337   1.680  0.3336 -0.6672 -0.3688
 7699TIP3    H223062   5.107   0.281   1.820 -0.0442 -0.9151 -0.4368
 7700TIP3   OH223063   1.486   2.749   2.179  0.0183  0.2373 -0.4301
 7700TIP3    H123064   1.472   2.824   2.237 -0.1424 -0.5531  0.5566
 7700TIP3    H223065   1.487   2.673   2.236 -0.0392 -0.5525 -1.4491
 7701TIP3   OH223066   6.997   5.216   5.831  0.1273  0.1218  0.4101
 7701TIP3    H123067   6.999   5.209   5.926  1.6596 -0.8986  0.3417
 7701TIP3    H223068   6.929   5.155   5.803  0.7271 -0.7277  0.7853
 7702TIP3   OH223069   6.665   4.628   5.494 -0.2154  0.5160  0.0359
 7702TIP3    H123070   6.685   4.720   5.506 -0.1348  0.8828 -2.3942
 7702TIP3    H223071   6.641   4.620   5.401  1.6413 -2.2046 -0.3290
 7703TIP3   OH223072   4.570   4.911   5.531 -0.0854  0.2022  0.0565
 7703TIP3    H123073   4.639   4.864   5.577 -0.2766  0.6264  0.7925
 7703TIP3    H223074   4.556   4.861   5.451 -0.5095 -1.1728  0.9554
 7704TIP3   OH223075   5.618   6.709   3.170 -0.1808  0.2026  0.2995
 7704TIP3    H123076   5.646   6.630   3.216 -0.0753  0.4631  0.6820
 7704TIP3    H223077   5.546   6.744   3.222 -0.3011  0.2982  0.0708
 7705TIP3   OH223078   6.575   2.279   4.259  0.0505 -0.0388 -0.0909
 7705TIP3    H123079   6.556   2.272   4.353  0.4312 -0.3722 -0.0374
 7705TIP3    H223080   6.575   2.188   4.229 -4.2499  0.0978 -1.2601
 7706TIP3   OH223081   5.485   5.388   2.397 -0.5808 -0.6826  0.0558
 7706TIP3    H123082   5.443   5.330   2.461  1.0132 -1.4148  0.5194
 7706TIP3    H223083   5.505   5.468   2.447 -0.5705 -0.7151  0.1043
 7707TIP3   OH223084   5.600   6.052   5.070 -0.0978 -0.6790 -0.5913
 7707TIP3    H123085   5.624   5.999   4.994  2.1651  1.1829 -1.3429
 7707TIP3    H223086   5.681   6.057   5.122 -0.1355  1.9505 -0.6122
 7708TIP3   OH223087   4.228   4.388   2.840 -0.3935 -0.1490  0.8129
 7708TIP3    H123088   4.253   4.479   2.851  1.6231 -0.9039  3.2426
 7708TIP3    H223089   4.254   4.367   2.750 -0.6632  1.5467  0.2951
 7709TIP3   OH223090   3.755   1.631   4.868 -0.3178 -0.1506 -0.2616
 7709TIP3    H123091   3.815   1.705   4.875 -0.3382 -0.1916  0.3921
 7709TIP3    H223092   3.744   1.618   4.774 -1.7074  1.8297 -0.4535
 7710TIP3   OH223093   3.235   6.579   4.932  0.2213 -0.5733  0.2078
 7710TIP3    H123094   3.265   6.669   4.947 -0.8358 -0.1422 -0.2091
 7710TIP3    H223095   3.316   6.531   4.910  0.7226  0.3964 -0.1403
 7711TIP3   OH223096   0.363   3.931   1.649  0.5202  0.1228 -0.2619
 7711TIP3    H123097   0.308   3.857   1.625  0.5211  0.1872 -0.4607
 7711TIP3    H223098   0.382   3.975   1.567 -0.7146  1.2129  0.0110
 7712TIP3   OH223099   6.537   0.570   1.664  0.0567 -0.2459 -0.5980
 7712TIP3    H123100   6.554   0.478   1.646 -0.2365 -0.3789 -0.2184
 7712TIP3    H223101   6.577   0.617   1.591  2.1799 -0.5192  0.3188
 7713TIP3   OH223102   4.686   1.197   3.507  0.4720 -0.6339 -0.0916
 7713TIP3    H123103   4.714   1.244   3.429  1.7146 -0.8668  0.1809
 7713TIP3    H223104   4.608   1.148   3.481  0.0557  0.3867 -0.7859
 7714TIP3   OH223105   6.487   5.954   4.905  0.3000 -0.3203  0.1797
 7714TIP3    H123106   6.409   5.955   4.961  1.3973 -0.1952  1.7686
 7714TIP3    H223107   6.470   5.884   4.843 -1.2807  0.0148  0.1790
 7715TIP3   OH223108   0.539   5.273   2.009 -0.5668  0.2170  0.0744
 7715TIP3    H123109   0.596   5.307   1.941 -0.0655 -1.6681 -0.5084
 7715TIP3    H223110   0.450   5.287   1.975 -0.4383  1.8178  0.3299
 7716TIP3   OH223111   1.881   2.043   0.066 -0.6889 -0.0329 -0.1034
 7716TIP3    H123112   1.967   2.043   0.108  0.4548  0.2332 -2.2937
 7716TIP3    H223113   1.870   1.953   0.036  0.2597  0.5467 -2.4254
 7717TIP3   OH223114   0.864   5.648   0.201 -0.2803 -0.4842  0.6203
 7717TIP3    H123115   0.894   5.601   0.278 -1.8341 -1.3028  0.7508
 7717TIP3    H223116   0.828   5.730   0.235  0.8073  0.0331  0.5593
 7718TIP3   OH223117   4.748   4.996   4.396  0.4528 -0.1427  0.6448
 7718TIP3    H123118   4.690   5.041   4.458  0.0544 -0.9805  0.9039
 7718TIP3    H223119   4.792   5.066   4.348 -2.0463  0.5941 -0.7792
 7719TIP3   OH223120   1.497   6.521   1.494  0.5193 -0.2652  0.6133
 7719TIP3    H123121   1.431   6.569   1.445  0.6741 -0.4580  0.2012
 7719TIP3    H223122   1.576   6.575   1.489  0.4737 -0.1771  0.8457
 7720TIP3   OH223123   5.301   2.808   5.429 -0.2501  0.0554 -0.0923
 7720TIP3    H123124   5.355   2.743   5.385  0.1988 -2.8891  4.2278
 7720TIP3    H223125   5.361   2.853   5.489 -1.4861  1.0425  0.4609
 7721TIP3   OH223126   4.492   0.747   3.659  0.0637 -0.1340  0.6190
 7721TIP3    H123127   4.397   0.741   3.666  0.2584 -3.2811  2.5921
 7721TIP3    H223128   4.514   0.694   3.583  0.2436  1.6904 -0.6618
 7722TIP3   OH223129   5.439   1.257   5.086 -0.0321  0.2767  0.5272
 7722TIP3    H123130   5.514   1.287   5.138  0.5647  0.3282 -0.3540
 7722TIP3    H223131   5.430   1.165   5.109  0.6590  0.1241  0.2153
 7723TIP3   OH223132   2.912   1.849   5.099 -0.3340  0.0865  0.3669
 7723TIP3    H123133   2.932   1.905   5.173  0.4420  1.4140 -0.7868
 7723TIP3    H223134   2.994   1.803   5.080 -0.5411 -0.2833  0.3420
 7724TIP3   OH223135   5.785   6.313   4.942 -0.3794 -0.3736  0.4502
 7724TIP3    H123136   5.726   6.315   4.866  1.0415 -0.3210 -0.6997
 7724TIP3    H223137   5.782   6.222   4.972 -0.3749 -0.5834 -0.1581
 7725TIP3   OH223138   2.187   1.714   3.447  0.0780 -0.5994 -0.1540
 7725TIP3    H123139   2.271   1.723   3.401 -0.5896  1.3453 -1.1255
 7725TIP3    H223140   2.174   1.620   3.456  2.0851 -0.9521 -0.4882
 7726TIP3   OH223141   2.388   0.141   2.321  0.0873  0.2578  0.1519
 7726TIP3    H123142   2.352   0.211   2.375  0.6296  0.0328  0.8142
 7726TIP3    H223143   2.344   0.151   2.237 -1.3593  0.1349  0.8617
 7727TIP3   OH223144   4.694   5.204   1.925 -0.0310  0.0196  0.3708
 7727TIP3    H123145   4.749   5.275   1.891 -0.9896  1.7564  2.1837
 7727TIP3    H223146   4.738   5.124   1.898  0.9784  1.2649 -2.0068
 7728TIP3   OH223147   3.612   4.606   1.411  0.4517  0.0110  0.1053
 7728TIP3    H123148   3.686   4.560   1.370 -0.1136  1.8204 -3.3531
 7728TIP3    H223149   3.554   4.535   1.439  1.6305 -1.4228 -0.8566
 7729TIP3   OH223150   3.050   0.284   1.285  0.1359  1.3424  0.1880
 7729TIP3    H123151   3.000   0.205   1.307  0.6501  1.2045  0.8833
 7729TIP3    H223152   3.141   0.261   1.305  0.6783  1.1969 -2.1027
 7730TIP3   OH223153   5.128   3.888   5.346 -0.3407  0.0472 -0.3916
 7730TIP3    H123154   5.085   3.849   5.270  2.0172 -0.2552 -1.6846
 7730TIP3    H223155   5.086   3.973   5.357 -0.2701  0.4131 -2.5293
 7731TIP3   OH223156   1.106   4.514   4.098  0.2521  0.4310  0.5066
 7731TIP3    H123157   1.025   4.464   4.089  0.6318 -0.1388  0.1519
 7731TIP3    H223158   1.175   4.449   4.088  0.7740  1.1103 -0.5426
 7732TIP3   OH223159   0.898   0.479   2.601  0.2386  0.2221  0.5258
 7732TIP3    H123160   0.830   0.505   2.662 -0.5592  2.2598 -1.1069
 7732TIP3    H223161   0.958   0.554   2.598  1.0891 -0.4536 -0.0720
 7733TIP3   OH223162   2.354   6.345   5.417 -0.1209  0.2647 -0.0013
 7733TIP3    H123163   2.414   6.325   5.488 -0.3142  0.6492  0.2748
 7733TIP3    H223164   2.288   6.275   5.420 -0.1820  0.3329  0.2576
 7734TIP3   OH223165   0.461   5.678   3.371 -0.1793 -0.3304  0.1119
 7734TIP3    H123166   0.511   5.757   3.391 -1.5003  0.9112 -1.2150
 7734TIP3    H223167   0.454   5.632   3.454 -0.3104  1.5395  1.1952
 7735TIP3   OH223168   6.510   6.723   3.702 -0.2149  0.8949  0.7182
 7735TIP3    H123169   6.477   6.722   3.612  1.3768 -0.7843  0.0874
 7735TIP3    H223170   6.435   6.696   3.755 -0.7368  0.2457 -0.3079
 7736TIP3   OH223171   1.637   0.420   1.334 -0.1964  0.2144 -0.0209
 7736TIP3    H123172   1.688   0.490   1.377 -1.0816 -0.2449  1.8950
 7736TIP3    H223173   1.550   0.458   1.322 -0.1098  0.1387 -0.9471
 7737TIP3   OH223174   6.953   2.899   4.855 -0.2425 -0.6377 -0.5675
 7737TIP3    H123175   7.026   2.929   4.910 -1.0844 -1.2382  0.9273
 7737TIP3    H223176   6.878   2.952   4.884 -1.0305 -1.9745 -0.0901
 7738TIP3   OH223177   2.795   1.569   3.236  0.1892  0.2338  0.1706
 7738TIP3    H123178   2.800   1.607   3.148  0.6727 -0.3698 -0.0666
 7738TIP3    H223179   2.882   1.583   3.274  1.9783 -4.3626 -1.5127
 7739TIP3   OH223180   4.942   4.926   1.289 -0.1231  0.2330 -0.3146
 7739TIP3    H123181   4.878   4.959   1.353  0.0389  2.2059 -1.0804
 7739TIP3    H223182   5.025   4.926   1.336 -0.3140 -0.1376  0.0236
 7740TIP3   OH223183   6.340   2.816   0.299 -0.1424  0.3678 -0.3430
 7740TIP3    H123184   6.305   2.754   0.362 -0.6382  3.2439  2.4540
 7740TIP3    H223185   6.268   2.832   0.238 -1.0064  0.3645  0.6536
 7741TIP3   OH223186   0.832   1.496   4.447 -0.0296  0.1873 -0.8624
 7741TIP3    H123187   0.882   1.461   4.373  0.6831  0.4369 -0.5109
 7741TIP3    H223188   0.767   1.428   4.467  0.6216 -0.4599 -0.8897
 7742TIP3   OH223189   1.355   5.677   1.230 -0.1819  0.3414  0.3363
 7742TIP3    H123190   1.314   5.686   1.144  1.0409  1.2297 -0.1762
 7742TIP3    H223191   1.393   5.763   1.249  0.2803 -0.0671  1.3947
 7743TIP3   OH223192   0.941   4.513   1.521  0.3623  0.6831 -0.4285
 7743TIP3    H123193   0.929   4.438   1.462  2.2913 -0.7852  0.9042
 7743TIP3    H223194   0.943   4.589   1.463 -1.9470 -0.1878 -1.8086
 7744TIP3   OH223195   4.951   0.480   1.920 -0.3335  0.2082  0.0288
 7744TIP3    H123196   4.979   0.429   1.843 -0.6296  2.7371 -1.8947
 7744TIP3    H223197   4.856   0.481   1.915 -0.3612  0.2487  0.5382
 7745TIP3   OH223198   4.332   6.481   2.892  0.0212  0.5511 -0.0176
 7745TIP3    H123199   4.242   6.507   2.872  0.5347  0.8670 -2.1054
 7745TIP3    H223200   4.345   6.399   2.845  1.1765  1.1092 -0.7064
 7746TIP3   OH223201   6.761   3.570   1.380  0.2046 -0.1259 -0.2843
 7746TIP3    H123202   6.692   3.585   1.315 -1.2015 -3.5636  0.1883
 7746TIP3    H223203   6.798   3.485   1.357  0.5005 -0.9088  2.6493
 7747TIP3   OH223204   1.215   3.042   3.840 -0.0201 -0.7635  0.2474
 7747TIP3    H123205   1.310   3.030   3.847  0.3002  1.7686  0.9054
 7747TIP3    H223206   1.203   3.083   3.754 -0.0047  2.7406  1.7928
 7748TIP3   OH223207   0.106   3.956   1.388 -0.2924  0.1443 -0.6908
 7748TIP3    H123208   0.108   3.981   1.295  0.7330  0.0031 -0.7131
 7748TIP3    H223209   0.133   4.036   1.434 -2.2741  0.6893 -0.3867
 7749TIP3   OH223210   0.456   1.798   5.510  0.2559  0.1605  0.3627
 7749TIP3    H123211   0.393   1.734   5.477  0.7830 -1.3666  2.1572
 7749TIP3    H223212   0.466   1.860   5.438  1.2100 -2.8410 -2.3335
 7750TIP3   OH223213   2.337   6.775   2.551 -0.0120  0.3059 -0.2323
 7750TIP3    H123214   2.283   6.831   2.495  2.7155  2.8028 -0.6452
 7750TIP3    H223215   2.335   6.690   2.508  1.4577  1.9390 -3.9896
 7751TIP3   OH223216   4.202   4.068   0.109  0.2500  0.1298  0.6858
 7751TIP3    H123217   4.167   4.140   0.162 -0.9740  0.6384 -0.7487
 7751TIP3    H223218   4.209   4.104   0.021 -0.6229 -1.5520 -0.1201
 7752TIP3   OH223219   0.442   0.960   2.232 -1.0305  0.1134 -0.1700
 7752TIP3    H123220   0.528   0.917   2.228 -0.9593  0.3028 -0.7033
 7752TIP3    H223221   0.429   0.976   2.326 -0.0860  0.8609 -0.1447
 7753TIP3   OH223222   5.570   2.331   2.104 -0.3581  0.0740  0.0258
 7753TIP3    H123223   5.581   2.423   2.080 -0.9151  0.6204  1.7661
 7753TIP3    H223224   5.604   2.325   2.193  0.6603 -1.6506 -0.4267
 7754TIP3   OH223225   3.771   3.765   5.777 -0.0416 -0.0198 -0.8334
 7754TIP3    H123226   3.810   3.828   5.717 -0.2191  0.2002 -0.7195
 7754TIP3    H223227   3.839   3.748   5.842 -0.6976  1.6637  0.3474
 7755TIP3   OH223228   5.257   1.126   0.835 -0.1482  0.0444 -0.0008
 7755TIP3    H123229   5.230   1.141   0.744  0.0602  1.4393  0.1333
 7755TIP3    H223230   5.296   1.210   0.862  0.2450 -0.5060  1.2178
 7756TIP3   OH223231   1.250   6.477   0.185 -0.2923 -0.1945  0.0457
 7756TIP3    H123232   1.232   6.570   0.166 -1.5976 -0.6504 -1.1956
 7756TIP3    H223233   1.219   6.465   0.275 -0.1222  0.5723  0.2161
 7757TIP3   OH223234   6.719   4.109   1.922 -0.3727  0.4524 -0.4920
 7757TIP3    H123235   6.679   4.141   1.841 -0.0258  0.9426 -0.4703
 7757TIP3    H223236   6.665   4.145   1.992  0.2671  1.3554 -0.4521
 7758TIP3   OH223237   6.415   6.802   2.631 -0.8077 -0.0859 -0.2852
 7758TIP3    H123238   6.373   6.718   2.613 -0.6787 -0.0072 -0.9981
 7758TIP3    H223239   6.342   6.860   2.656 -0.8725 -0.4534  0.3983
 7759TIP3   OH223240   1.465   5.878   4.300 -0.1990 -0.8224 -0.0645
 7759TIP3    H123241   1.381   5.833   4.291 -1.6145  1.2113  1.7892
 7759TIP3    H223242   1.480   5.917   4.214 -1.8708 -0.1266 -0.0804
 7760TIP3   OH223243   3.432   5.051   1.794 -0.3275  0.1218  0.0698
 7760TIP3    H123244   3.434   4.976   1.854  0.0727  0.8561  1.0028
 7760TIP3    H223245   3.342   5.083   1.798 -0.1202  0.6331  0.8900
 7761TIP3   OH223246   5.228   1.575   1.459 -0.0891  0.2130  0.3511
 7761TIP3    H123247   5.217   1.654   1.407  2.0018 -1.2987 -2.6845
 7761TIP3    H223248   5.145   1.528   1.450  0.3431 -0.2141 -2.1728
 7762TIP3   OH223249   5.073   0.123   2.111 -0.4851  0.1815 -0.3386
 7762TIP3    H123250   5.063   0.142   2.204 -0.9486 -0.3246 -0.2787
 7762TIP3    H223251   5.124   0.041   2.110 -1.4980 -0.4560 -0.4959
 7763TIP3   OH223252   6.577   5.371   3.859 -0.7548  0.4390 -0.4855
 7763TIP3    H123253   6.567   5.342   3.768  1.0117  1.2145 -0.9572
 7763TIP3    H223254   6.640   5.442   3.855 -0.9174  0.7281  1.3268
 7764TIP3   OH223255   6.855   0.878   0.543 -0.1363  0.5102  0.0834
 7764TIP3    H123256   6.862   0.959   0.594 -0.4160  0.6648 -0.1180
 7764TIP3    H223257   6.886   0.809   0.602 -0.6831  0.6531  0.5429
 7765TIP3   OH223258   4.237   4.267   2.053  0.0067 -0.0596  0.3356
 7765TIP3    H123259   4.201   4.353   2.031  0.1621  0.2958  1.4051
 7765TIP3    H223260   4.161   4.208   2.049 -0.4387  0.4336  1.2171
 7766TIP3   OH223261   0.684   1.717   0.825 -0.2206  0.8009 -0.2938
 7766TIP3    H123262   0.680   1.704   0.731 -0.7022  0.7736 -0.2710
 7766TIP3    H223263   0.595   1.700   0.856  0.0982  0.0707  0.2590
 7767TIP3   OH223264   6.030   2.477   3.976  0.3917  0.0745  0.1722
 7767TIP3    H123265   5.935   2.466   3.971  0.4667 -0.6856  0.3081
 7767TIP3    H223266   6.042   2.566   4.008 -0.3202 -0.6262  2.5602
 7768TIP3   OH223267   4.957   0.782   3.542 -0.5827 -0.1363 -0.5509
 7768TIP3    H123268   4.880   0.772   3.599 -0.5639  0.2112 -0.4605
 7768TIP3    H223269   4.993   0.868   3.566 -0.6755  0.0933 -1.2103
 7769TIP3   OH223270   4.293   1.064   5.053 -0.8469 -0.2732 -0.3271
 7769TIP3    H123271   4.309   1.124   5.125  1.2444 -0.4689 -0.5728
 7769TIP3    H223272   4.217   1.100   5.007 -2.1057 -0.0508  1.8273
 7770TIP3   OH223273   6.145   3.267   2.621 -0.4393 -0.4521  0.6758
 7770TIP3    H123274   6.209   3.271   2.691  0.6571 -3.5392 -0.0121
 7770TIP3    H223275   6.191   3.302   2.544 -0.5228 -0.1733  0.7493
 7771TIP3   OH223276   3.259   2.387   4.853 -0.2751 -0.0344 -0.6305
 7771TIP3    H123277   3.353   2.406   4.857 -0.2239  0.2950 -2.4657
 7771TIP3    H223278   3.218   2.473   4.855 -0.5199 -0.1638 -0.1529
 7772TIP3   OH223279   1.327   4.534   1.395 -0.0399  0.0274  0.5396
 7772TIP3    H123280   1.257   4.599   1.401 -0.5761 -0.5722  0.9960
 7772TIP3    H223281   1.312   4.476   1.470 -1.3580 -2.3529 -1.4237
 7773TIP3   OH223282   6.915   4.572   1.595 -0.7216  0.4150  0.1152
 7773TIP3    H123283   6.894   4.662   1.569 -0.4125  0.4136 -0.1516
 7773TIP3    H223284   6.930   4.526   1.512 -0.3020  0.2627  0.2714
 7774TIP3   OH223285   2.113   1.717   2.070  0.1839 -0.2450 -0.3053
 7774TIP3    H123286   2.093   1.683   2.158  0.1354 -0.0887 -0.2557
 7774TIP3    H223287   2.207   1.706   2.061  0.0350 -1.3790 -0.7041
 7775TIP3   OH223288   7.140   4.657   5.070  0.1540  0.0976  0.4505
 7775TIP3    H123289   7.178   4.593   5.010  0.5699  1.0491 -0.3306
 7775TIP3    H223290   7.126   4.735   5.016  1.7123  1.4138  1.8283
 7776TIP3   OH223291   6.058   2.688   0.976  0.4434 -0.7869  0.2422
 7776TIP3    H123292   6.026   2.748   0.909 -0.1607 -0.6525  0.6426
 7776TIP3    H223293   6.147   2.718   0.994  0.0271  0.2350  0.6989
 7777TIP3   OH223294   5.985   1.651   0.069 -0.0863 -0.4176 -0.3743
 7777TIP3    H123295   6.022   1.719   0.013 -0.0705  0.2204  0.3846
 7777TIP3    H223296   6.020   1.569   0.034 -0.0779 -0.0351 -1.2800
 7778TIP3   OH223297   3.615   6.367   5.317 -0.4601 -0.3310 -0.1505
 7778TIP3    H123298   3.572   6.376   5.232  0.6802 -1.8797 -0.9353
 7778TIP3    H223299   3.636   6.274   5.324  2.5470  0.2679  0.2428
 7779TIP3   OH223300   4.190   4.907   4.643 -0.5329  0.2644  0.0750
 7779TIP3    H123301   4.129   4.835   4.658 -0.8698  0.8572  1.7262
 7779TIP3    H223302   4.272   4.877   4.681  0.0735 -0.2569 -1.5450
 7780TIP3   OH223303   2.253   5.742   4.763  0.0217 -0.6984  0.0300
 7780TIP3    H123304   2.261   5.753   4.668 -0.2119 -0.2815  0.0533
 7780TIP3    H223305   2.273   5.650   4.779  0.6618 -0.6355 -0.3571
 7781TIP3   OH223306   1.747   2.160   1.408  0.1268 -0.1234  0.2959
 7781TIP3    H123307   1.666   2.171   1.358 -0.7223  0.7313  1.7901
 7781TIP3    H223308   1.765   2.066   1.404 -1.0083 -0.3463  0.0412
 7782TIP3   OH223309   4.397   2.189   2.451  0.7547  0.2016 -0.1086
 7782TIP3    H123310   4.327   2.250   2.428  0.3319  0.4359  1.6335
 7782TIP3    H223311   4.466   2.244   2.487  0.9636 -0.2121  0.1383
 7783TIP3   OH223312   2.420   1.205   4.715 -0.2049 -0.1199  0.3269
 7783TIP3    H123313   2.377   1.127   4.750  0.4427 -0.5841  0.0986
 7783TIP3    H223314   2.507   1.205   4.754 -0.3021  0.6592  0.5623
 7784TIP3   OH223315   1.040   4.770   4.782 -0.2120 -0.7748  0.4199
 7784TIP3    H123316   0.948   4.793   4.787  0.1527  0.9377 -0.1154
 7784TIP3    H223317   1.057   4.720   4.862 -1.3689 -0.2224  1.0252
 7785TIP3   OH223318   0.745   6.587   4.811  0.0803  0.6153 -0.5601
 7785TIP3    H123319   0.688   6.521   4.851 -0.3735  0.9295 -0.6922
 7785TIP3    H223320   0.834   6.554   4.827 -0.1582 -0.3842 -1.2448
 7786TIP3   OH223321   6.762   4.530   4.315  1.2636 -0.4630 -0.3288
 7786TIP3    H123322   6.737   4.620   4.296  2.3928 -0.1852 -0.6253
 7786TIP3    H223323   6.680   4.482   4.320  0.4471  1.0324  2.3113
 7787TIP3   OH223324   2.428   3.047   4.374  0.0767  0.4224  0.4330
 7787TIP3    H123325   2.472   3.103   4.439  1.5244  0.4031 -0.4757
 7787TIP3    H223326   2.498   3.021   4.315 -0.7645 -1.4920  0.2132
 7788TIP3   OH223327   2.411   2.603   0.272  0.8947 -0.0417 -0.6039
 7788TIP3    H123328   2.458   2.571   0.350 -0.2380  0.0578  0.1428
 7788TIP3    H223329   2.416   2.698   0.278 -0.8697  0.0331  0.4584
 7789TIP3   OH223330   1.822   6.555   4.566  0.1477  0.3743  0.0052
 7789TIP3    H123331   1.878   6.582   4.638 -0.7453  0.9997  0.4922
 7789TIP3    H223332   1.877   6.561   4.488  1.1761 -0.4720  0.6369
 7790TIP3   OH223333   6.657   4.733   2.218  0.5807  0.0190  0.2813
 7790TIP3    H123334   6.742   4.732   2.262  0.2876 -2.1706  0.9226
 7790TIP3    H223335   6.663   4.662   2.154 -1.3229 -1.3657  1.5388
 7791TIP3   OH223336   1.774   5.470   4.648 -0.4854 -0.2292  0.0474
 7791TIP3    H123337   1.762   5.470   4.743 -1.0746 -2.4473  0.0326
 7791TIP3    H223338   1.833   5.397   4.632 -0.0573  0.3832 -1.2788
 7792TIP3   OH223339   1.543   1.748   0.644 -0.6176 -0.2874  0.1039
 7792TIP3    H123340   1.493   1.739   0.725 -2.4579  2.3675 -0.5879
 7792TIP3    H223341   1.607   1.817   0.664 -0.9947  0.2888 -0.6031
 7793TIP3   OH223342   2.092   0.342   2.333 -0.2837  0.3370  0.8662
 7793TIP3    H123343   2.141   0.424   2.337  1.1862 -0.1647 -2.8606
 7793TIP3    H223344   2.153   0.275   2.365 -0.7778  0.3991  1.9952
 7794TIP3   OH223345   4.125   3.008   0.109 -0.5262 -0.0130  0.3247
 7794TIP3    H123346   4.067   3.065   0.058 -2.0011 -1.0268  0.7996
 7794TIP3    H223347   4.076   2.927   0.119  1.2198 -1.1336  0.2937
 7795TIP3   OH223348   4.787   6.601   3.921  0.3361  0.0579 -0.6245
 7795TIP3    H123349   4.738   6.539   3.867  1.6319  0.3150 -2.1722
 7795TIP3    H223350   4.854   6.636   3.862 -0.3715  2.9767  0.1700
 7796TIP3   OH223351   5.035   2.935   1.653 -0.3713 -0.2850 -0.0008
 7796TIP3    H123352   4.967   2.960   1.715  0.1244 -0.2121  0.5257
 7796TIP3    H223353   5.072   3.019   1.624  0.1627 -0.3437  0.4840
 7797TIP3   OH223354   0.204   2.601   4.861 -0.4120 -0.0088  0.7502
 7797TIP3    H123355   0.232   2.691   4.880 -0.1833  0.9014 -3.0587
 7797TIP3    H223356   0.108   2.605   4.864 -0.3966  0.2231  1.0278
 7798TIP3   OH223357   1.637   3.220   0.378 -0.2062  0.1389 -0.0857
 7798TIP3    H123358   1.582   3.227   0.301  0.0056 -1.8624 -0.4702
 7798TIP3    H223359   1.659   3.310   0.401  0.2203  0.7651 -2.7147
 7799TIP3   OH223360   5.682   5.018   2.213 -0.1496 -0.7282  0.2326
 7799TIP3    H123361   5.635   5.027   2.130  0.3995 -1.0534 -0.1160
 7799TIP3    H223362   5.618   4.976   2.272 -0.9341  0.5470  0.3286
 7800TIP3   OH223363   3.892   4.867   4.396 -0.0306 -0.3868  0.2208
 7800TIP3    H123364   3.901   4.917   4.315  0.1907 -0.7151  0.0386
 7800TIP3    H223365   3.972   4.816   4.402 -0.8550 -1.8338 -0.3854
 7801TIP3   OH223366   2.843   3.183   1.163  0.2052 -0.0625 -0.2753
 7801TIP3    H123367   2.814   3.255   1.108 -0.6206 -0.9313 -1.0039
 7801TIP3    H223368   2.772   3.171   1.226  0.0479 -0.6246 -0.5492
 7802TIP3   OH223369   7.230   6.104   1.472  0.2351  0.2384 -0.6280
 7802TIP3    H123370   7.199   6.129   1.384  0.3290  1.5766 -0.3055
 7802TIP3    H223371   7.172   6.034   1.499 -0.1660  0.2068 -1.5314
 7803TIP3   OH223372   5.594   6.270   4.707 -0.2549  0.2922  0.6475
 7803TIP3    H123373   5.633   6.226   4.631  0.4879  2.0352 -0.0220
 7803TIP3    H223374   5.521   6.213   4.733 -1.4861  0.3656 -2.2928
 7804TIP3   OH223375   4.004   3.882   4.764  0.2367 -0.0923 -0.2102
 7804TIP3    H123376   3.953   3.923   4.694 -0.1726 -0.5607 -0.1942
 7804TIP3    H223377   4.005   3.948   4.834  0.7626  0.4322 -0.6939
 7805TIP3   OH223378   4.519   5.568   5.314 -0.3307  0.0124 -0.0932
 7805TIP3    H123379   4.444   5.626   5.321 -0.7189 -0.4547 -0.2657
 7805TIP3    H223380   4.509   5.526   5.228  0.0942 -0.0912 -0.0935
 7806TIP3   OH223381   2.997   0.322   2.359  0.7807 -0.3028  0.2640
 7806TIP3    H123382   3.006   0.403   2.410  0.1762 -0.1215  0.0918
 7806TIP3    H223383   3.054   0.260   2.404  0.9776  0.1165  0.6112
 7807TIP3   OH223384   7.195   1.161   5.707  0.3879 -0.1345  0.7895
 7807TIP3    H123385   7.127   1.216   5.669 -0.3372 -1.6363 -0.2111
 7807TIP3    H223386   7.217   1.204   5.790  0.4225  2.0282 -0.2731
 7808TIP3   OH223387   3.092   4.980   2.007 -0.2079 -0.4723 -0.0506
 7808TIP3    H123388   3.007   4.955   2.043 -0.2640  0.1530  0.2679
 7808TIP3    H223389   3.133   4.897   1.981 -1.2708 -0.7218 -1.0134
 7809TIP3   OH223390   0.928   2.672   3.397  0.4778  0.9116  0.2521
 7809TIP3    H123391   1.000   2.704   3.451  0.7747  0.7476 -0.0466
 7809TIP3    H223392   0.857   2.735   3.412  0.4593  0.7091  1.0559
 7810TIP3   OH223393   1.283   3.434   0.121 -0.0012 -0.5042  0.2034
 7810TIP3    H123394   1.325   3.433   0.035 -0.6472 -1.2840 -0.1147
 7810TIP3    H223395   1.329   3.366   0.171 -0.4178 -0.8757  0.0823
 7811TIP3   OH223396   3.230   1.171   0.567  0.7259  0.0013  0.3582
 7811TIP3    H123397   3.251   1.264   0.578  0.6113  0.1246 -0.3865
 7811TIP3    H223398   3.135   1.167   0.564  0.7236 -0.1714  0.6328
 7812TIP3   OH223399   1.109   6.545   3.510 -0.8060 -0.5801 -0.0098
 7812TIP3    H123400   1.014   6.550   3.520 -0.6331  1.1597  0.9947
 7812TIP3    H223401   1.143   6.547   3.599  0.3042  2.9675 -0.3929
 7813TIP3   OH223402   4.103   5.741   5.673 -0.0144 -0.2139 -0.2810
 7813TIP3    H123403   4.031   5.804   5.681 -0.0443 -0.3815  0.9892
 7813TIP3    H223404   4.134   5.729   5.763  0.1368 -1.8390 -0.5309
 7814TIP3   OH223405   2.384   3.415   0.832  0.0856 -0.6763 -0.4309
 7814TIP3    H123406   2.370   3.510   0.822 -1.4070 -0.6944  1.0215
 7814TIP3    H223407   2.367   3.398   0.925  0.2253 -2.3966 -0.6912
 7815TIP3   OH223408   1.152   0.749   4.596  0.3504 -0.3888 -0.3447
 7815TIP3    H123409   1.179   0.727   4.507 -0.0434  0.3840 -0.6596
 7815TIP3    H223410   1.196   0.684   4.651  0.0891 -1.2692 -1.1501
 7816TIP3   OH223411   3.080   3.052   1.583  0.8637 -0.1775  0.1974
 7816TIP3    H123412   3.137   3.038   1.659  0.6752 -0.6431  0.2554
 7816TIP3    H223413   2.993   3.067   1.620  0.7356 -0.5984  0.0653
 7817TIP3   OH223414   5.336   5.582   5.396 -0.0734  0.3309  0.3163
 7817TIP3    H123415   5.308   5.673   5.389  0.0940  0.3361 -0.3737
 7817TIP3    H223416   5.360   5.557   5.307 -0.3207 -0.4571  0.4627
 7818TIP3   OH223417   4.677   1.049   2.022  0.0312  0.3426 -0.1083
 7818TIP3    H123418   4.676   1.096   2.105 -1.4339  1.7883 -0.8907
 7818TIP3    H223419   4.688   0.957   2.047 -0.6775  0.7024  1.7043
 7819TIP3   OH223420   0.699   2.443   2.380  0.2443  0.3363  0.0721
 7819TIP3    H123421   0.723   2.351   2.385  0.3528  0.3810  0.3730
 7819TIP3    H223422   0.735   2.472   2.296 -0.5666 -0.1142 -0.4420
 7820TIP3   OH223423   2.652   0.987   5.587  0.3382  0.7669 -0.3650
 7820TIP3    H123424   2.628   1.076   5.611 -4.5705 -0.6477  1.1003
 7820TIP3    H223425   2.583   0.958   5.526 -0.1575 -2.9050  1.6321
 7821TIP3   OH223426   3.030   4.756   4.979 -0.3311  0.1759 -0.0879
 7821TIP3    H123427   3.089   4.739   5.053 -0.4178  1.7885  0.3919
 7821TIP3    H223428   3.018   4.670   4.938  4.2875  0.0711 -1.7428
 7822TIP3   OH223429   3.470   1.922   5.306  0.6417 -0.4182 -0.4393
 7822TIP3    H123430   3.482   2.013   5.336  0.4455 -0.1996 -1.0184
 7822TIP3    H223431   3.394   1.926   5.248  1.4284 -0.7060 -1.5165
 7823TIP3   OH223432   2.513   3.073   5.323  0.4713 -0.2826  0.3135
 7823TIP3    H123433   2.602   3.101   5.304  0.5360  0.3156  1.4021
 7823TIP3    H223434   2.493   3.112   5.408 -1.2005  0.4685 -0.3606
 7824TIP3   OH223435   3.260   4.339   5.470  0.0445 -0.0827  0.0755
 7824TIP3    H123436   3.213   4.256   5.479  1.0186 -0.7832 -1.1083
 7824TIP3    H223437   3.192   4.405   5.483 -0.9979 -1.0662 -0.1630
 7825TIP3   OH223438   1.933   5.538   5.419  0.0009  0.5164 -0.1374
 7825TIP3    H123439   1.857   5.536   5.476  0.6116  2.0047  0.8028
 7825TIP3    H223440   1.996   5.478   5.460  0.5221  1.7475  0.9457
 7826TIP3   OH223441   3.927   6.657   3.723  0.0289  0.2210  0.2595
 7826TIP3    H123442   4.016   6.686   3.701  0.1802 -0.6007 -0.2805
 7826TIP3    H223443   3.870   6.727   3.691  0.3353 -0.2930 -1.5429
 7827TIP3   OH223444   7.006   5.693   0.988  0.7056 -0.2456  0.0521
 7827TIP3    H123445   7.022   5.736   0.905  1.5911 -0.1860  0.2503
 7827TIP3    H223446   6.965   5.610   0.964  0.6873 -0.1018 -0.4236
 7828TIP3   OH223447   0.054   3.374   5.218 -0.0430  0.4135 -0.4133
 7828TIP3    H123448   0.036   3.420   5.136  1.7979  0.0009 -1.0915
 7828TIP3    H223449   0.083   3.287   5.191 -0.9578 -0.2832  0.7592
 7829TIP3   OH223450   2.619   2.493   3.137  0.1120 -0.1395  0.4747
 7829TIP3    H123451   2.525   2.477   3.126  0.2210 -0.0302 -0.7012
 7829TIP3    H223452   2.624   2.571   3.192 -0.4516 -1.3351  2.3462
 7830TIP3   OH223453   0.953   2.503   5.140  0.0555  0.2848  0.6563
 7830TIP3    H123454   1.005   2.423   5.149 -1.8305 -1.1893 -0.6092
 7830TIP3    H223455   0.881   2.491   5.202 -2.7628 -1.2854 -2.5624
 7831TIP3   OH223456   6.084   2.227   0.540  0.1375 -0.1431  0.5726
 7831TIP3    H123457   6.141   2.205   0.466 -0.9562 -1.2145  0.0043
 7831TIP3    H223458   6.041   2.144   0.562 -0.9743  0.5761  1.1821
 7832TIP3   OH223459   4.938   2.730   1.178  0.5834 -0.5087 -0.0033
 7832TIP3    H123460   5.006   2.744   1.245  1.7411  0.1445 -1.2639
 7832TIP3    H223461   4.983   2.683   1.108  0.5062  2.1585 -1.9904
 7833TIP3   OH223462   6.860   0.967   1.672  0.2325  0.2877 -0.4312
 7833TIP3    H123463   6.882   1.036   1.735 -0.7570 -0.2215  0.5226
 7833TIP3    H223464   6.942   0.947   1.628  1.1602  0.1011  1.2981
 7834TIP3   OH223465   3.275   4.715   0.298 -0.4326 -0.3361  0.0940
 7834TIP3    H123466   3.349   4.759   0.257  0.0838 -1.5773 -0.3596
 7834TIP3    H223467   3.232   4.783   0.349  1.0382  0.4156  0.3984
 7835TIP3   OH223468   2.626   5.500   5.508 -0.3216  0.0118  0.4982
 7835TIP3    H123469   2.718   5.523   5.512 -0.5125  1.8621 -2.6790
 7835TIP3    H223470   2.585   5.552   5.577  0.3437  3.7236 -1.6659
 7836TIP3   OH223471   6.305   3.073   2.396 -0.3838  0.6420  0.1857
 7836TIP3    H123472   6.302   2.978   2.410 -0.4690  0.4811 -0.8007
 7836TIP3    H223473   6.282   3.111   2.480 -1.9557 -0.2285  0.1816
 7837TIP3   OH223474   7.055   0.052   1.801  0.6969  0.2359  0.6189
 7837TIP3    H123475   7.128   0.074   1.744  0.2202 -1.8262 -0.9106
 7837TIP3    H223476   7.040   0.131   1.854  3.4513  0.9824  0.4131
 7838TIP3   OH223477   0.188   2.815   5.322 -0.0584  0.0164 -0.0396
 7838TIP3    H123478   0.155   2.848   5.405 -1.5314  0.7399 -0.8637
 7838TIP3    H223479   0.109   2.785   5.275  0.9781 -2.8886 -0.1504
 7839TIP3   OH223480   0.058   4.376   3.948 -0.2341 -0.0190  0.1521
 7839TIP3    H123481   0.011   4.305   3.904  2.0239 -2.3487  1.1998
 7839TIP3    H223482   0.045   4.452   3.892 -1.7318 -1.5630 -1.7487
 7840TIP3   OH223483   2.839   4.426   5.186 -0.0571 -0.0222 -0.0357
 7840TIP3    H123484   2.875   4.499   5.236  2.9543  0.4737 -2.5627
 7840TIP3    H223485   2.906   4.358   5.191 -0.1735 -0.3926 -2.2264
 7841TIP3   OH223486   5.417   2.338   0.384 -0.4988  0.0788  0.2530
 7841TIP3    H123487   5.507   2.370   0.376 -0.0489 -1.0620  0.6133
 7841TIP3    H223488   5.363   2.416   0.371  0.5225  0.6825 -0.5315
 7842TIP3   OH223489   4.870   3.093   4.620 -0.1835 -0.0536  0.1118
 7842TIP3    H123490   4.947   3.049   4.584  0.6730  0.5893  1.0884
 7842TIP3    H223491   4.886   3.094   4.715 -1.3224  0.2436  0.3113
 7843TIP3   OH223492   6.478   0.769   5.154  0.0724 -0.4144  0.1060
 7843TIP3    H123493   6.431   0.779   5.071 -1.7371  2.2066  1.3173
 7843TIP3    H223494   6.410   0.744   5.217  0.1394  3.1886  1.8571
 7844TIP3   OH223495   5.588   4.068   5.293 -0.5297 -0.3777 -0.2735
 7844TIP3    H123496   5.511   4.124   5.302 -0.3944 -0.1966 -0.2389
 7844TIP3    H223497   5.647   4.097   5.362  1.1288  1.9934 -2.5117
 7845TIP3   OH223498   2.525   4.457   1.494  0.5205  0.3238  0.2711
 7845TIP3    H123499   2.604   4.415   1.461 -0.8663 -1.4335 -1.0315
 7845TIP3    H223500   2.525   4.543   1.453  1.9111  0.4909  0.5645
 7846TIP3   OH223501   6.536   6.259   4.815 -0.2907 -0.0618 -0.4358
 7846TIP3    H123502   6.536   6.173   4.857  2.2682 -0.0663 -0.2851
 7846TIP3    H223503   6.569   6.241   4.726 -3.5643  0.2575 -1.8590
 7847TIP3   OH223504   2.758   2.745   3.754 -0.5615 -0.0858 -0.2452
 7847TIP3    H123505   2.772   2.838   3.769  1.0518  0.1655 -2.6045
 7847TIP3    H223506   2.840   2.703   3.782 -0.8778 -0.6470 -0.1458
 7848TIP3   OH223507   6.151   4.031   5.738  0.4115  0.3599 -0.1992
 7848TIP3    H123508   6.207   3.991   5.804 -1.2006 -1.9294 -0.0912
 7848TIP3    H223509   6.081   4.072   5.789  1.8880  3.2763 -0.3254
 7849TIP3   OH223510   2.438   1.336   1.336 -0.0007 -0.1290  0.0112
 7849TIP3    H123511   2.439   1.268   1.269 -0.7559 -0.7104  0.5726
 7849TIP3    H223512   2.373   1.306   1.400  1.9907 -0.5658  1.9897
 7850TIP3   OH223513   2.664   1.406   3.435 -0.1177  0.4197  0.4066
 7850TIP3    H123514   2.681   1.476   3.373 -1.4050  0.7780  0.4330
 7850TIP3    H223515   2.730   1.340   3.415  1.4228  1.8160  0.6996
 7851TIP3   OH223516   0.687   6.602   1.384  0.0696  0.0843  0.0998
 7851TIP3    H123517   0.667   6.512   1.357 -0.4739  0.2382 -0.0175
 7851TIP3    H223518   0.605   6.636   1.419  0.3036  0.4967  0.2577
 7852TIP3   OH223519   4.201   3.955   1.925  0.3072 -0.8990  0.2604
 7852TIP3    H123520   4.212   4.009   1.847  0.3854 -1.7493 -0.3402
 7852TIP3    H223521   4.108   3.936   1.929  0.4522 -1.8301 -0.3275
 7853TIP3   OH223522   4.561   3.630   4.591  0.1814 -0.7576 -1.2759
 7853TIP3    H123523   4.589   3.610   4.502  2.8515 -0.4292 -0.5968
 7853TIP3    H223524   4.640   3.619   4.644 -0.6011  1.7742  0.6283
 7854TIP3   OH223525   3.635   6.185   4.000 -0.5467  0.2338 -0.4135
 7854TIP3    H123526   3.562   6.246   4.004 -0.7051  0.1211 -1.3613
 7854TIP3    H223527   3.711   6.237   4.027 -1.3259 -0.4003  3.7650
 7855TIP3   OH223528   1.392   1.591   1.440 -0.1445 -0.2227  0.1539
 7855TIP3    H123529   1.305   1.626   1.423 -0.7890 -2.2302 -0.9512
 7855TIP3    H223530   1.450   1.667   1.433 -1.6586  0.9339 -0.2963
 7856TIP3   OH223531   2.791   3.149   4.953 -0.2040  0.3480  0.1653
 7856TIP3    H123532   2.761   3.062   4.925 -0.1547  0.1881  0.6063
 7856TIP3    H223533   2.882   3.136   4.978 -0.1996  0.5276  0.2403
 7857TIP3   OH223534   6.227   0.010   0.165  0.6208  0.5792  0.1248
 7857TIP3    H123535   6.190  -0.007   0.251 -0.0718  1.1951 -0.0372
 7857TIP3    H223536   6.284   0.086   0.177  0.5332  0.6581  0.0540
 7858TIP3   OH223537   6.714   6.495   4.372  0.1702  0.3803 -0.6810
 7858TIP3    H123538   6.739   6.501   4.280 -0.6963 -1.2454 -1.0544
 7858TIP3    H223539   6.630   6.450   4.371  0.7779 -0.8929  0.9792
 7859TIP3   OH223540   3.770   6.440   5.027 -0.1533 -0.2553  0.3663
 7859TIP3    H123541   3.675   6.440   5.031 -0.4410  0.6469 -3.0253
 7859TIP3    H223542   3.796   6.526   5.058 -0.4614 -0.3316  0.8430
 7860TIP3   OH223543   3.915   5.665   2.818  0.7097 -0.1254  0.3205
 7860TIP3    H123544   3.948   5.673   2.908 -1.2530  0.3911  1.0463
 7860TIP3    H223545   3.926   5.753   2.781  3.2092 -0.7572 -0.6368
 7861TIP3   OH223546   2.279   2.074   2.984 -0.1673  0.0110 -0.3372
 7861TIP3    H123547   2.244   2.163   2.990 -2.7416 -0.9922  1.4376
 7861TIP3    H223548   2.337   2.066   3.060  1.3561  0.6063 -1.3885
 7862TIP3   OH223549   1.950   0.111   3.746  0.2659 -0.0857  0.5841
 7862TIP3    H123550   1.929   0.166   3.821  1.1615  1.6549 -0.3653
 7862TIP3    H223551   1.874   0.053   3.737 -0.6095  0.8091  1.8064
 7863TIP3   OH223552   5.056   2.748   0.860  0.4737 -0.5689  0.2599
 7863TIP3    H123553   5.046   2.835   0.821  1.0341  0.4548  2.2580
 7863TIP3    H223554   4.980   2.699   0.831 -1.7975  1.7350  1.8758
 7864TIP3   OH223555   4.507   1.028   4.169 -0.1422 -0.2471  0.0876
 7864TIP3    H123556   4.574   1.073   4.220 -0.4587 -0.1114  0.3924
 7864TIP3    H223557   4.463   1.097   4.120 -0.9686 -0.1306  0.9460
 7865TIP3   OH223558   3.522   5.179   2.014  0.1506  0.5516  0.3732
 7865TIP3    H123559   3.540   5.267   1.980 -2.7836  1.6544  1.3481
 7865TIP3    H223560   3.520   5.123   1.936  1.6287  1.3764 -0.3111
 7866TIP3   OH223561   3.600   6.565   2.062  0.0185  0.2662  0.1868
 7866TIP3    H123562   3.671   6.624   2.087  0.0105  0.3827 -0.0594
 7866TIP3    H223563   3.581   6.515   2.141  1.9001 -1.3623 -0.3147
 7867TIP3   OH223564   5.070   0.986   5.411  0.2459  0.4640  0.5827
 7867TIP3    H123565   5.007   1.058   5.403 -1.6205 -1.0786  0.6557
 7867TIP3    H223566   5.064   0.960   5.503  0.3437 -0.2578  0.3901
 7868TIP3   OH223567   3.776   0.564   0.739 -0.0754 -0.1697  0.0134
 7868TIP3    H123568   3.763   0.646   0.788  0.1076  0.3646 -0.8182
 7868TIP3    H223569   3.868   0.543   0.753 -0.4201 -0.9375  1.2800
 7869TIP3   OH223570   0.640   2.733   0.310 -0.7315  0.2043  0.4370
 7869TIP3    H123571   0.562   2.789   0.316 -0.1004  0.9754  1.9382
 7869TIP3    H223572   0.671   2.726   0.400  0.7233 -0.4181 -0.0817
 7870TIP3   OH223573   3.278   1.168   3.125  0.5485  0.7163 -0.3775
 7870TIP3    H123574   3.185   1.182   3.143  0.3384 -1.1544  0.0996
 7870TIP3    H223575   3.303   1.244   3.072 -1.4771  0.7913 -1.3205
 7871TIP3   OH223576   3.396   5.271   4.060 -0.0680  0.2837  0.4057
 7871TIP3    H123577   3.490   5.266   4.043 -0.1983  1.7498 -0.8853
 7871TIP3    H223578   3.358   5.203   4.005  0.0836  0.8433 -0.3931
 7872TIP3   OH223579   7.099   2.912   2.173  0.6816  0.3894  0.2340
 7872TIP3    H123580   7.125   2.885   2.261 -1.5857  0.3456  0.9563
 7872TIP3    H223581   7.043   2.841   2.142  0.4525  0.9849 -0.7536
 7873TIP3   OH223582   6.657   2.494   4.100 -0.3569  0.3382  0.3192
 7873TIP3    H123583   6.644   2.417   4.157 -1.0483 -1.8223 -2.5180
 7873TIP3    H223584   6.707   2.555   4.154  1.1388 -2.5099  2.4737
 7874TIP3   OH223585   3.122   2.621   1.722 -0.1173  0.2643  0.0335
 7874TIP3    H123586   3.091   2.541   1.764 -1.3444  1.6005  1.7740
 7874TIP3    H223587   3.210   2.635   1.758 -0.3914  0.3577  0.6634
 7875TIP3   OH223588   6.049   5.473   1.431  0.1511  0.0700 -0.3499
 7875TIP3    H123589   6.013   5.388   1.405 -2.5066  1.3164 -1.0935
 7875TIP3    H223590   6.075   5.461   1.522 -2.7224 -0.8930  0.4627
 7876TIP3   OH223591   4.358   6.622   3.135  0.6556 -0.6802 -0.4356
 7876TIP3    H123592   4.319   6.570   3.064  0.4342  0.4539 -1.1685
 7876TIP3    H223593   4.309   6.597   3.213 -1.7892  0.8767 -1.3496
 7877TIP3   OH223594   6.539   3.492   1.938 -0.4694 -0.5163  0.4671
 7877TIP3    H123595   6.563   3.503   1.847 -1.4224 -0.5830  0.1944
 7877TIP3    H223596   6.444   3.501   1.939 -0.6636 -2.2694  1.1805
 7878TIP3   OH223597   2.387   2.786   5.695 -0.0256  0.1490  0.5944
 7878TIP3    H123598   2.442   2.712   5.673 -1.2527 -0.6895  0.2408
 7878TIP3    H223599   2.399   2.798   5.789 -0.7935 -1.3665  0.9187
 7879TIP3   OH223600   2.503   6.665   1.502 -0.4927  0.2703 -0.1139
 7879TIP3    H123601   2.568   6.600   1.530 -0.3863 -0.3843 -1.8130
 7879TIP3    H223602   2.492   6.721   1.579  0.7209 -0.6976  0.8156
 7880TIP3   OH223603   7.088   2.101   5.283  0.3649  0.0911 -0.0070
 7880TIP3    H123604   7.093   2.090   5.378  1.9666 -0.8121 -0.1570
 7880TIP3    H223605   7.052   2.018   5.251 -0.6899  0.5963 -0.1646
 7881TIP3   OH223606   5.697   6.218   1.733 -0.6576 -0.2479 -0.0738
 7881TIP3    H123607   5.612   6.241   1.770 -0.5160  1.0441 -0.5034
 7881TIP3    H223608   5.716   6.131   1.769 -2.7226 -1.1409 -0.9584
 7882TIP3   OH223609   3.992   3.671   1.218 -0.0376 -0.4875 -0.5349
 7882TIP3    H123610   3.992   3.626   1.134  2.5564 -1.8545  0.0673
 7882TIP3    H223611   3.933   3.620   1.273 -0.1866 -0.7912 -0.9763
 7883TIP3   OH223612   4.600   3.385   3.464 -0.4311 -0.3069 -0.5874
 7883TIP3    H123613   4.575   3.300   3.428 -0.0504 -0.2432 -1.0137
 7883TIP3    H223614   4.682   3.407   3.420 -0.4241  0.1947 -0.3407
 7884TIP3   OH223615   2.871   6.535   4.503 -0.2469  0.3698  0.6927
 7884TIP3    H123616   2.830   6.457   4.463 -1.0924 -0.3456  2.8324
 7884TIP3    H223617   2.959   6.507   4.525 -0.0336  0.5232  0.0514
 7885TIP3   OH223618   3.217   4.417   1.731 -0.4507 -0.4044 -0.0064
 7885TIP3    H123619   3.184   4.506   1.717 -1.1647 -0.7875 -0.8641
 7885TIP3    H223620   3.182   4.391   1.816  0.5044  0.4439  0.6759
 7886TIP3   OH223621   5.574   2.864   1.840 -0.0921  0.5437 -0.0350
 7886TIP3    H123622   5.536   2.792   1.789 -0.6552 -1.3720  2.8937
 7886TIP3    H223623   5.498   2.907   1.880  0.4618 -0.2156  1.9217
 7887TIP3   OH223624   6.112   0.095   1.063  0.1797 -1.1507 -0.4691
 7887TIP3    H123625   6.089   0.089   1.156  0.0785  1.6416 -0.2107
 7887TIP3    H223626   6.207   0.084   1.061  0.1386 -1.5787 -0.0699
 7888TIP3   OH223627   6.302   4.774   4.924  0.0004 -1.0935  0.6353
 7888TIP3    H123628   6.349   4.727   4.856  2.0556 -0.6971  1.6970
 7888TIP3    H223629   6.330   4.865   4.914 -0.4772 -0.8577  1.3580
 7889TIP3   OH223630   2.350   1.750   5.413  0.3005  0.2074 -0.4587
 7889TIP3    H123631   2.409   1.825   5.425 -1.1937  1.5654 -1.3087
 7889TIP3    H223632   2.286   1.758   5.483  0.8825 -1.0979  0.2743
 7890TIP3   OH223633   6.412   2.536   5.199  0.3034  0.1785  0.1097
 7890TIP3    H123634   6.476   2.492   5.144  1.2153  1.0476  0.4403
 7890TIP3    H223635   6.334   2.545   5.144  0.5273 -0.7055 -0.3652
 7891TIP3   OH223636   3.553   2.508   5.860  0.1283  0.1034  0.0766
 7891TIP3    H123637   3.609   2.543   5.791  2.0247 -0.3605  1.2724
 7891TIP3    H223638   3.526   2.585   5.910 -2.1081  0.5571 -1.6791
 7892TIP3   OH223639   0.760   0.679   1.011 -0.1627 -0.4575 -0.3256
 7892TIP3    H123640   0.853   0.661   1.005 -0.2903 -0.8421 -1.3652
 7892TIP3    H223641   0.752   0.741   1.083  0.6693 -1.9665  1.1532
 7893TIP3   OH223642   5.903   3.077   0.766 -0.0814  0.0778  0.1921
 7893TIP3    H123643   5.945   3.120   0.840  1.2659 -1.3910  0.3401
 7893TIP3    H223644   5.825   3.036   0.802 -0.2504  0.6271  0.4654
 7894TIP3   OH223645   1.820   3.374   4.990  0.4673 -0.1411  0.2274
 7894TIP3    H123646   1.779   3.321   4.922 -0.0606  0.1216  0.3351
 7894TIP3    H223647   1.914   3.362   4.976  0.4459  1.2740 -1.6958
 7895TIP3   OH223648   5.036   1.288   4.265 -0.0750 -0.1364  0.6111
 7895TIP3    H123649   5.046   1.287   4.170  3.6374 -2.7927  0.8057
 7895TIP3    H223650   5.071   1.373   4.292 -1.0967  0.6136 -0.3320
 7896TIP3   OH223651   5.412   3.615   2.501 -0.5722 -0.1831  0.3637
 7896TIP3    H123652   5.358   3.644   2.574  0.0060 -1.4693  1.3387
 7896TIP3    H223653   5.483   3.567   2.541  0.7633  0.6006 -0.9617
 7897TIP3   OH223654   1.645   3.632   5.738  0.2497  0.3238 -0.1646
 7897TIP3    H123655   1.635   3.613   5.644  1.5037  0.1682 -0.2874
 7897TIP3    H223656   1.557   3.657   5.767  0.0234  1.3174 -1.5926
 7898TIP3   OH223657   1.952   1.682   4.095  0.3440 -0.1138 -0.0244
 7898TIP3    H123658   1.970   1.616   4.162  2.1082  1.2808  0.9413
 7898TIP3    H223659   1.922   1.758   4.144  0.2501  0.4566 -0.9488
 7899TIP3   OH223660   5.959   4.918   2.244  0.2170  0.1458 -0.4534
 7899TIP3    H123661   5.904   4.841   2.260  1.2161  0.0519  3.3700
 7899TIP3    H223662   5.898   4.992   2.246 -0.2207 -0.2259  0.0977
 7900TIP3   OH223663   3.685   4.681   4.471  0.1224 -0.1711  0.4450
 7900TIP3    H123664   3.713   4.661   4.561 -1.7009  0.7223  1.2650
 7900TIP3    H223665   3.748   4.746   4.440  0.1438  0.3389  1.5095
 7901TIP3   OH223666   0.166   5.474   4.497 -0.0983  0.0444  0.0486
 7901TIP3    H123667   0.186   5.522   4.578 -0.6500 -0.9058  0.7608
 7901TIP3    H223668   0.106   5.532   4.450 -2.5156 -0.7877  1.8921
 7902TIP3   OH223669   3.928   6.204   5.485  0.4486 -0.1860 -0.7181
 7902TIP3    H123670   3.994   6.197   5.554 -0.3857 -2.7263 -0.0716
 7902TIP3    H223671   3.845   6.201   5.532 -0.1516  0.0869 -1.7255
 7903TIP3   OH223672   4.270   5.725   4.533  0.9439 -0.4741 -0.0279
 7903TIP3    H123673   4.295   5.804   4.582 -0.5649  0.9393 -1.4010
 7903TIP3    H223674   4.178   5.712   4.554  0.7521 -0.8947 -1.0856
 7904TIP3   OH223675   1.995   4.520   5.153  0.5628  0.4461 -0.3974
 7904TIP3    H123676   2.029   4.431   5.143 -1.5507 -0.3662 -0.8649
 7904TIP3    H223677   1.952   4.539   5.070  0.7119  1.8068 -0.1843
 7905TIP3   OH223678   3.876   1.042   0.296  0.0672  0.0817  0.1768
 7905TIP3    H123679   3.868   1.024   0.389 -0.4651 -0.0893  0.1006
 7905TIP3    H223680   3.798   1.093   0.274  1.1280  1.8110  0.2209
 7906TIP3   OH223681   3.884   1.086   0.585  0.0515 -0.2048 -0.1708
 7906TIP3    H123682   3.971   1.099   0.621  0.9653  0.9162 -2.5454
 7906TIP3    H223683   3.833   1.160   0.617  0.3246 -0.2151  0.2834
 7907TIP3   OH223684   3.811   1.548   2.232  0.5701  0.4029  0.2414
 7907TIP3    H123685   3.885   1.560   2.292  1.1906  0.7239 -0.5723
 7907TIP3    H223686   3.837   1.476   2.175 -0.2497 -0.2677  0.6875
 7908TIP3   OH223687   6.677   1.453   4.084  0.3761  0.0925 -0.4600
 7908TIP3    H123688   6.741   1.515   4.119  0.4069  0.2207 -0.7488
 7908TIP3    H223689   6.604   1.456   4.147  1.0156 -0.6923  0.3494
 7909TIP3   OH223690   7.030   4.738   5.479  0.2604  0.0378 -0.8834
 7909TIP3    H123691   7.079   4.817   5.500 -1.0184  0.5790  0.2349
 7909TIP3    H223692   7.088   4.687   5.422  1.5789  1.2104 -0.6230
 7910TIP3   OH223693   4.672   2.999   0.367 -0.5139  0.0759 -0.5566
 7910TIP3    H123694   4.640   3.007   0.457 -0.3147 -2.9460 -0.0951
 7910TIP3    H223695   4.597   2.964   0.319 -0.1438  0.1145 -1.1654
 7911TIP3   OH223696   4.169   6.538   1.841 -0.2143  0.1205  0.4364
 7911TIP3    H123697   4.111   6.492   1.901 -0.4816 -1.6076 -1.0733
 7911TIP3    H223698   4.116   6.611   1.808 -1.2406 -0.9112 -0.2551
 7912TIP3   OH223699   2.745   4.704   3.179  0.4242  1.2705  0.2551
 7912TIP3    H123700   2.654   4.687   3.156  0.4196  1.8320 -0.1331
 7912TIP3    H223701   2.795   4.641   3.127  0.2669  0.9935  0.4342
 7913TIP3   OH223702   6.434   1.273   2.459  0.1280 -0.2580  0.0780
 7913TIP3    H123703   6.452   1.194   2.508  1.6575 -0.3379 -0.5485
 7913TIP3    H223704   6.343   1.264   2.429  0.3097 -1.7977 -0.0463
 7914TIP3   OH223705   0.577   1.476   3.608  0.4335  0.2118  0.0908
 7914TIP3    H123706   0.622   1.409   3.659 -0.1565  0.1158  0.4947
 7914TIP3    H223707   0.640   1.501   3.540  0.2757 -1.5076 -0.7286
 7915TIP3   OH223708   5.045   4.204   4.111 -0.0500  0.4460  0.2468
 7915TIP3    H123709   5.117   4.144   4.130  0.2644  0.8926  0.4612
 7915TIP3    H223710   5.024   4.187   4.019  0.5560  0.5563  0.0844
 7916TIP3   OH223711   6.111   3.581   5.232  0.1728  0.2932  0.5646
 7916TIP3    H123712   6.071   3.539   5.308  0.4889  0.1030  0.6267
 7916TIP3    H223713   6.174   3.643   5.269 -0.4560  1.0052  0.4816
 7917TIP3   OH223714   3.868   3.598   0.112  0.1184 -0.1034  0.2464
 7917TIP3    H123715   3.936   3.566   0.052 -1.0892 -1.5899 -0.3661
 7917TIP3    H223716   3.911   3.670   0.160  1.6778 -0.0807 -1.0989
 7918TIP3   OH223717   3.394   1.570   1.717 -0.3973 -0.5230  0.4984
 7918TIP3    H123718   3.382   1.662   1.694  1.7522 -0.1944  0.5127
 7918TIP3    H223719   3.444   1.571   1.798  2.5170 -1.6047 -1.1216
 7919TIP3   OH223720   4.068   0.635   2.956  0.1172 -0.1704  0.3974
 7919TIP3    H123721   4.072   0.568   2.888  0.8821  1.6265 -1.4175
 7919TIP3    H223722   4.062   0.717   2.908  1.7616  1.2625  2.4681
 7920TIP3   OH223723   2.326   4.730   2.436  0.3685 -0.3558  0.5362
 7920TIP3    H123724   2.416   4.729   2.468 -0.5363  1.0200  3.4510
 7920TIP3    H223725   2.277   4.682   2.503 -1.2559 -0.0852 -0.4161
 7921TIP3   OH223726   4.284   5.848   1.561 -1.3006 -0.0075  0.2077
 7921TIP3    H123727   4.344   5.856   1.636 -2.2402 -0.5538  1.0476
 7921TIP3    H223728   4.245   5.936   1.554  1.2289  1.0717 -1.8354
 7922TIP3   OH223729   6.761   4.606   3.666 -0.1904 -0.1541  0.7424
 7922TIP3    H123730   6.699   4.649   3.607  0.2658 -1.1383 -0.5058
 7922TIP3    H223731   6.774   4.520   3.628  0.8951 -0.4605  1.7484
 7923TIP3   OH223732   0.736   0.287   3.148  0.2908 -0.0467 -0.2032
 7923TIP3    H123733   0.655   0.277   3.097  0.4576  2.3592 -1.0995
 7923TIP3    H223734   0.733   0.216   3.212 -3.4575  0.8878  0.9600
 7924TIP3   OH223735   0.515   2.545   3.430 -0.1479 -0.4952  0.0033
 7924TIP3    H123736   0.593   2.490   3.434  0.8253  0.8888  1.7288
 7924TIP3    H223737   0.534   2.609   3.361  0.8010  0.5465  1.1815
 7925TIP3   OH223738   2.219   4.812   4.454  0.5100  0.1419 -0.3186
 7925TIP3    H123739   2.309   4.781   4.441  0.3740  0.3285 -1.8166
 7925TIP3    H223740   2.180   4.748   4.514  0.7630 -1.6325 -1.9664
 7926TIP3   OH223741   3.745   6.796   4.442 -0.2655 -0.3148  0.5389
 7926TIP3    H123742   3.758   6.724   4.380 -1.4340 -1.0223  1.0679
 7926TIP3    H223743   3.719   6.752   4.523 -0.2524  0.6737  1.0852
 7927TIP3   OH223744   1.880   1.869   2.407 -0.6355  0.3779 -0.0168
 7927TIP3    H123745   1.844   1.942   2.357 -0.3850 -0.5485 -1.6017
 7927TIP3    H223746   1.818   1.797   2.392 -0.2252 -0.0907  0.5048
 7928TIP3   OH223747   2.938   0.707   0.831 -0.2280 -0.0287  0.2864
 7928TIP3    H123748   2.859   0.741   0.789 -1.4315 -0.2562  2.2224
 7928TIP3    H223749   2.948   0.761   0.910 -0.0572 -1.7684  1.5033
 7929TIP3   OH223750   5.919   1.513   5.229 -0.3337 -0.0783 -0.5333
 7929TIP3    H123751   5.965   1.445   5.180  0.9249 -0.3169  0.9407
 7929TIP3    H223752   5.985   1.553   5.284 -1.5066  0.8951  0.2277
 7930TIP3   OH223753   5.477   6.453   3.011  0.0970 -0.2504  0.6721
 7930TIP3    H123754   5.530   6.472   2.934 -1.4178 -1.3941 -0.7332
 7930TIP3    H223755   5.442   6.538   3.038  0.9593  0.2154  0.3414
 7931TIP3   OH223756   2.463   2.759   1.897 -0.1362  0.3866 -0.7519
 7931TIP3    H123757   2.493   2.668   1.908  0.7599  0.5615 -1.5316
 7931TIP3    H223758   2.390   2.768   1.958  1.4773 -0.0427  1.3484
 7932TIP3   OH223759   3.365   3.495   2.967 -0.3361 -0.0303  0.2146
 7932TIP3    H123760   3.420   3.429   3.008  2.0645  0.4106 -2.0536
 7932TIP3    H223761   3.404   3.578   2.992 -1.1174  0.3918  0.0687
 7933TIP3   OH223762   4.727   3.560   5.511  0.3097  0.2444  0.0768
 7933TIP3    H123763   4.722   3.564   5.607  1.7592 -0.8525  0.2277
 7933TIP3    H223764   4.710   3.468   5.490 -1.2860  0.7123 -0.8417
 7934TIP3   OH223765   0.150   2.076   1.712  0.0183  0.2109 -0.3838
 7934TIP3    H123766   0.220   2.024   1.753 -0.1230  1.0719  1.0232
 7934TIP3    H223767   0.070   2.044   1.752 -0.0148  1.9548  1.1052
 7935TIP3   OH223768   5.765   3.271   3.287  0.2386 -0.1815 -0.4387
 7935TIP3    H123769   5.736   3.247   3.199  0.4810  1.1396 -0.9071
 7935TIP3    H223770   5.730   3.359   3.300 -0.5898 -0.7224  1.1702
 7936TIP3   OH223771   5.523   6.553   2.524 -0.1222  0.0173 -0.0138
 7936TIP3    H123772   5.505   6.471   2.477 -0.6151 -0.1143  0.4006
 7936TIP3    H223773   5.445   6.568   2.576 -0.9851  1.9090 -1.7212
 7937TIP3   OH223774   1.971   2.481   1.658  0.5602  0.7574 -0.0452
 7937TIP3    H123775   1.886   2.452   1.625  0.6143  0.4350  0.0952
 7937TIP3    H223776   2.007   2.535   1.588  0.3752  0.6419 -0.2307
 7938TIP3   OH223777   4.576   6.308   1.707 -0.5099 -0.9464  0.1161
 7938TIP3    H123778   4.648   6.251   1.734  0.8200 -1.1606 -3.3788
 7938TIP3    H223779   4.540   6.266   1.628 -2.7311  0.5476  0.2439
 7939TIP3   OH223780   1.456   1.872   3.593 -0.1373  0.2927  0.0193
 7939TIP3    H123781   1.513   1.942   3.622  0.9116 -1.0957  1.4876
 7939TIP3    H223782   1.402   1.851   3.669  0.5230 -1.3685  0.0744
 7940TIP3   OH223783   4.701   3.419   3.733 -0.2305 -0.4136  0.2469
 7940TIP3    H123784   4.727   3.327   3.746 -0.2711 -0.7920 -1.9343
 7940TIP3    H223785   4.669   3.422   3.643  1.7059  2.1750 -0.4794
 7941TIP3   OH223786   7.174   6.575   1.230  0.0389 -0.1339 -0.0921
 7941TIP3    H123787   7.094   6.619   1.201  1.0273  1.1024 -1.0831
 7941TIP3    H223788   7.162   6.563   1.324 -1.4815 -0.3883 -0.2848
 7942TIP3   OH223789   5.666   1.774   3.864 -0.1299  0.0501  0.1209
 7942TIP3    H123790   5.609   1.811   3.796  0.9592  0.0490 -0.8240
 7942TIP3    H223791   5.618   1.696   3.894 -1.6328  1.2276  0.9258
 7943TIP3   OH223792   4.549   3.122   1.604 -0.7366 -0.3442 -0.0401
 7943TIP3    H123793   4.485   3.053   1.621  0.1444 -1.3896 -0.8372
 7943TIP3    H223794   4.508   3.201   1.639 -1.9120 -1.1996  0.6084
 7944TIP3   OH223795   4.585   0.930  -0.010 -0.1739  0.0420  0.3226
 7944TIP3    H123796   4.551   0.946   0.078  0.4911  0.6486  0.4791
 7944TIP3    H223797   4.595   1.017  -0.048 -0.4019 -0.2127 -0.3368
 7945TIP3   OH223798   4.668   2.359   5.420  0.1035  0.6225 -0.7361
 7945TIP3    H123799   4.735   2.399   5.476  0.1097 -1.2949  0.7245
 7945TIP3    H223800   4.587   2.369   5.470 -0.1997  0.4223 -1.1904
 7946TIP3   OH223801   1.958   6.501   3.764 -0.8051 -0.1840 -0.2364
 7946TIP3    H123802   1.924   6.581   3.724 -1.2951 -0.9504 -1.4016
 7946TIP3    H223803   2.049   6.496   3.735 -0.9638 -0.3831 -0.7126
 7947TIP3   OH223804   2.431   4.486   5.773 -0.2237 -0.2072  0.2804
 7947TIP3    H123805   2.430   4.413   5.835 -1.2420  0.0987  0.6419
 7947TIP3    H223806   2.520   4.520   5.778 -0.2532 -0.2601  1.5101
 7948TIP3   OH223807   3.174   5.405   4.709  0.8281 -0.1401  1.1485
 7948TIP3    H123808   3.246   5.414   4.772  1.0272 -1.4754  1.1464
 7948TIP3    H223809   3.211   5.350   4.639 -0.1830 -0.7972  1.1188
 7949TIP3   OH223810   4.992   4.205   2.091  0.1408  0.1610 -0.2182
 7949TIP3    H123811   5.077   4.162   2.103 -0.2795 -0.5995  0.0963
 7949TIP3    H223812   4.956   4.211   2.180 -0.4788 -0.2384 -0.4397
 7950TIP3   OH223813   4.987   2.725   2.701 -0.3917  0.2166  0.5232
 7950TIP3    H123814   5.037   2.696   2.777 -0.6533  0.2162  0.6982
 7950TIP3    H223815   5.052   2.753   2.637 -0.1224 -0.7578  0.3471
 7951TIP3   OH223816   1.165   5.826   4.672  1.0132 -0.3801  0.3836
 7951TIP3    H123817   1.139   5.901   4.619  3.7243 -0.6846 -1.5863
 7951TIP3    H223818   1.116   5.752   4.636  1.1717 -0.1974 -0.2082
 7952TIP3   OH223819   3.331   6.238   3.834  0.1720  0.2480  1.1855
 7952TIP3    H123820   3.409   6.255   3.780 -1.2227  1.9093 -0.4566
 7952TIP3    H223821   3.278   6.178   3.782 -0.7437  1.0908  1.1025
 7953TIP3   OH223822   3.523   3.599   3.528  0.2404 -0.1397  0.7593
 7953TIP3    H123823   3.444   3.553   3.498  0.9422  0.1676 -1.8664
 7953TIP3    H223824   3.547   3.557   3.610 -1.1340 -2.0675  0.2220
 7954TIP3   OH223825   5.383   5.435   3.557  0.0005  0.3847  0.4903
 7954TIP3    H123826   5.360   5.524   3.532 -0.8616  0.1283  0.3318
 7954TIP3    H223827   5.299   5.392   3.574  0.4138 -0.3269  0.8124
 7955TIP3   OH223828   3.913   3.509   4.056 -0.4056  0.5153  0.0153
 7955TIP3    H123829   3.865   3.427   4.070 -0.2336  0.4385  0.1621
 7955TIP3    H223830   3.913   3.551   4.142 -1.8629  1.4259 -0.3887
 7956TIP3   OH223831   5.497   0.388   0.025 -0.4660 -0.1340  0.2864
 7956TIP3    H123832   5.532   0.364  -0.061  1.8762  1.2016  0.7766
 7956TIP3    H223833   5.572   0.384   0.084 -1.7544  0.1777  2.0494
 7957TIP3   OH223834   3.735   2.537   1.679 -0.4606 -0.1253  0.1809
 7957TIP3    H123835   3.686   2.473   1.627 -1.3360  0.9613 -0.3874
 7957TIP3    H223836   3.825   2.527   1.651 -0.4352 -1.6686  0.7093
 7958TIP3   OH223837   5.831   0.855   3.847  0.1493 -0.0684 -0.5545
 7958TIP3    H123838   5.791   0.791   3.788 -1.6602 -0.2289  0.7671
 7958TIP3    H223839   5.765   0.924   3.856 -0.0278 -0.4783  1.9376
 7959TIP3   OH223840   2.342   4.502   0.452 -0.1527  0.1666  0.2591
 7959TIP3    H123841   2.423   4.456   0.475 -0.6668 -1.5193 -1.0815
 7959TIP3    H223842   2.276   4.466   0.511 -0.2616  0.3654  0.2616
 7960TIP3   OH223843   2.872   4.260   2.596  0.2597  0.2559  0.2264
 7960TIP3    H123844   2.940   4.225   2.539 -0.4692 -1.4237  0.3153
 7960TIP3    H223845   2.916   4.327   2.648  0.9780  1.8135 -2.2007
 7961TIP3   OH223846   1.050   1.248   1.687 -0.2050  0.3056  0.2739
 7961TIP3    H123847   1.142   1.259   1.664  0.0319 -2.0288 -0.2173
 7961TIP3    H223848   1.021   1.173   1.634 -2.5146  1.2115  0.1227
 7962TIP3   OH223849   5.312   0.981   2.258 -0.3744  0.2065 -0.2956
 7962TIP3    H123850   5.227   0.937   2.250 -0.0756 -0.3627 -0.4643
 7962TIP3    H223851   5.309   1.024   2.343 -0.4716 -0.6102  0.1259
 7963TIP3   OH223852   2.182   1.222   1.066 -0.0451 -0.4806 -0.4281
 7963TIP3    H123853   2.187   1.308   1.025  2.0837 -0.9733 -1.3450
 7963TIP3    H223854   2.274   1.197   1.082 -0.4927 -3.1586 -1.4805
 7964TIP3   OH223855   4.895   2.591   3.469 -0.3402 -0.0925 -0.2769
 7964TIP3    H123856   4.936   2.505   3.475  0.5155  0.1929 -1.4646
 7964TIP3    H223857   4.968   2.650   3.450 -0.7823  1.0415  1.3018
 7965TIP3   OH223858   7.191   5.839   2.367 -0.2217  0.2648 -0.2155
 7965TIP3    H123859   7.146   5.762   2.332  0.3614  0.0239 -0.4663
 7965TIP3    H223860   7.122   5.903   2.382 -0.6230 -0.0282 -0.7681
 7966TIP3   OH223861   5.191   6.378   2.782  0.6413 -0.1544  0.0592
 7966TIP3    H123862   5.179   6.391   2.876  1.1635 -2.4506  0.4840
 7966TIP3    H223863   5.257   6.310   2.775 -1.2066 -1.8830 -1.8932
 7967TIP3   OH223864   3.733   0.073   5.687 -0.2203 -0.6835  0.4751
 7967TIP3    H123865   3.782   0.030   5.756  0.7822  1.2790  1.0498
 7967TIP3    H223866   3.797   0.088   5.618 -0.7038 -0.6524  0.0243
 7968TIP3   OH223867   0.707   3.093   3.002 -0.6470 -0.2097  0.0869
 7968TIP3    H123868   0.798   3.063   3.008 -0.6776 -0.3561 -0.1610
 7968TIP3    H223869   0.655   3.021   3.038 -0.6253  0.1270  0.8130
 7969TIP3   OH223870   5.523   5.487   0.507  0.1750 -1.0369  0.3890
 7969TIP3    H123871   5.565   5.573   0.509 -1.5518 -0.1423  1.2784
 7969TIP3    H223872   5.583   5.431   0.457  1.9770  0.3287  0.9290
 7970TIP3   OH223873   5.759   0.446   3.079 -0.4983 -0.3799 -0.3272
 7970TIP3    H123874   5.824   0.467   3.012  1.3374 -0.6417  1.2944
 7970TIP3    H223875   5.752   0.526   3.132  0.0171 -0.9974  0.6977
 7971TIP3   OH223876   4.703   6.293   1.345 -0.4569 -0.7090  0.0826
 7971TIP3    H123877   4.628   6.324   1.295 -0.6747  0.3284  0.9995
 7971TIP3    H223878   4.758   6.371   1.356 -0.1971 -1.0078  1.0246
 7972TIP3   OH223879   5.613   1.850   0.702  0.9090  0.5278  0.0097
 7972TIP3    H123880   5.610   1.818   0.792 -1.9341  0.7591  0.0844
 7972TIP3    H223881   5.537   1.909   0.695  1.0850  0.5647 -2.5142
 7973TIP3   OH223882   1.414   6.327   4.858 -0.6232 -0.2032  0.2937
 7973TIP3    H123883   1.465   6.393   4.810  0.5538  0.0486  1.8172
 7973TIP3    H223884   1.436   6.244   4.815 -0.2908  0.1134 -0.1669
 7974TIP3   OH223885   6.729   0.337   0.509  1.0253 -0.2751  0.3641
 7974TIP3    H123886   6.667   0.302   0.573 -0.6085 -0.0205 -1.0093
 7974TIP3    H223887   6.797   0.378   0.563 -1.2421  1.6324  2.0049
 7975TIP3   OH223888   0.603   3.263   2.817  0.1879  0.2620  0.2820
 7975TIP3    H123889   0.616   3.225   2.730  1.7091  1.0568  0.1178
 7975TIP3    H223890   0.631   3.195   2.878  0.4808  0.2075  0.0881
 7976TIP3   OH223891   6.870   5.263   4.131 -0.0145 -0.2323 -0.4413
 7976TIP3    H123892   6.830   5.344   4.099  1.0503  0.0989 -0.9840
 7976TIP3    H223893   6.899   5.218   4.051  0.3803 -0.6313 -0.0758
 7977TIP3   OH223894   1.749   5.493   0.732 -0.0835  0.5869 -0.8109
 7977TIP3    H123895   1.722   5.481   0.823  0.1203  0.6552 -0.7413
 7977TIP3    H223896   1.713   5.417   0.686  0.9873 -0.1774 -0.4146
 7978TIP3   OH223897   2.578   2.032   1.024 -0.3628  0.7139 -0.0499
 7978TIP3    H123898   2.628   2.019   1.105 -2.0408  0.3279  0.9628
 7978TIP3    H223899   2.532   2.115   1.037 -1.5864  0.0594 -0.0718
 7979TIP3   OH223900   4.864   3.926   3.241  0.5912 -0.9403  0.2306
 7979TIP3    H123901   4.846   3.969   3.325 -1.0994 -2.1812  0.5545
 7979TIP3    H223902   4.874   3.998   3.179  1.6265  0.0005  1.4116
 7980TIP3   OH223903   2.150   5.387   2.672  0.3908  0.0468 -0.4023
 7980TIP3    H123904   2.117   5.298   2.684 -0.1715  0.0465 -1.7443
 7980TIP3    H223905   2.072   5.439   2.651  1.0169  0.3207 -2.2456
 7981TIP3   OH223906   4.210   6.171   4.296 -1.1227 -0.0419  0.5194
 7981TIP3    H123907   4.150   6.157   4.370  0.2391  0.5527  1.7779
 7981TIP3    H223908   4.248   6.257   4.311  0.9749 -0.9006  0.4555
 7982TIP3   OH223909   0.084   1.916   5.669  0.3554 -0.1035  0.0742
 7982TIP3    H123910   0.059   1.944   5.757  0.7680  1.0594 -0.1599
 7982TIP3    H223911   0.128   1.832   5.683  0.5219  0.1184  0.9940
 7983TIP3   OH223912   3.971   2.169   4.873  0.1680 -0.5499  0.0848
 7983TIP3    H123913   3.890   2.210   4.845  0.2353 -0.9418 -0.6957
 7983TIP3    H223914   3.965   2.166   4.969  0.6249  2.2564  0.2773
 7984TIP3   OH223915   3.749   1.116   2.580  0.2947 -0.5680 -0.1181
 7984TIP3    H123916   3.827   1.156   2.541 -0.4202 -0.0241 -1.0336
 7984TIP3    H223917   3.712   1.185   2.635  1.8601 -1.6457  2.4587
 7985TIP3   OH223918   3.247   6.104   3.065  0.0191  0.1590 -0.3583
 7985TIP3    H123919   3.285   6.016   3.059  0.3103  0.4022 -2.6950
 7985TIP3    H223920   3.322   6.163   3.060 -0.3323  0.5681 -0.8855
 7986TIP3   OH223921   1.844   3.117   2.767  0.0835  1.0114 -0.0115
 7986TIP3    H123922   1.833   3.174   2.843 -0.6617  1.0099 -0.1097
 7986TIP3    H223923   1.793   3.160   2.698 -1.3988 -0.3174  0.2089
 7987TIP3   OH223924   1.596   5.866   1.495 -0.4897 -0.1987 -0.6526
 7987TIP3    H123925   1.652   5.938   1.523  0.0492 -0.9426  0.2508
 7987TIP3    H223926   1.572   5.888   1.405 -0.1337  0.9704 -0.4821
 7988TIP3   OH223927   4.744   5.076   1.380 -0.2351  0.2866 -0.2646
 7988TIP3    H123928   4.658   5.096   1.417 -0.1542 -1.5497  1.0366
 7988TIP3    H223929   4.725   5.046   1.291 -0.6650  2.2132 -0.8832
 7989TIP3   OH223930   6.519   1.038   3.897  0.0248 -0.4158 -0.1421
 7989TIP3    H123931   6.581   1.030   3.824  1.6906  3.0629  0.6365
 7989TIP3    H223932   6.573   1.032   3.975 -0.6196  1.9737  0.5818
 7990TIP3   OH223933   7.098   0.232   1.388  0.0000 -0.0179  0.4737
 7990TIP3    H123934   7.160   0.305   1.382 -0.0237 -0.0626 -0.5271
 7990TIP3    H223935   7.092   0.198   1.298 -0.3531 -0.9482  0.8337
 7991TIP3   OH223936   6.787   4.164   3.338  0.3755  0.1507 -0.6508
 7991TIP3    H123937   6.824   4.077   3.328 -0.6769 -0.1756 -2.0271
 7991TIP3    H223938   6.787   4.200   3.249 -0.2279  1.1142 -0.2744
 7992TIP3   OH223939   0.957   0.612   5.529  0.8280  0.0374  0.2950
 7992TIP3    H123940   0.878   0.559   5.546 -0.9361  2.3159 -0.3120
 7992TIP3    H223941   0.957   0.677   5.599  2.1947  0.1024  0.2510
 7993TIP3   OH223942   5.909   6.396   3.379  0.5110 -0.2024  0.0004
 7993TIP3    H123943   5.896   6.313   3.424 -1.5683 -0.3611 -0.7589
 7993TIP3    H223944   5.954   6.372   3.298  0.4872 -0.5040  0.0749
 7994TIP3   OH223945   2.305   4.856   0.713  0.5175  0.2631  0.1106
 7994TIP3    H123946   2.317   4.776   0.764 -1.0877  0.4670  0.8506
 7994TIP3    H223947   2.394   4.882   0.688  1.1896 -0.8325  1.2580
 7995TIP3   OH223948   6.735   5.114   2.562 -0.5079  0.1785  0.0965
 7995TIP3    H123949   6.774   5.141   2.479 -0.5318 -0.5989 -0.1735
 7995TIP3    H223950   6.764   5.024   2.574 -1.6164 -0.1715  0.2452
 7996TIP3   OH223951   3.036   2.248   2.424 -0.1506 -0.5126 -0.4233
 7996TIP3    H123952   3.087   2.170   2.445  0.7485  0.1696 -0.0261
 7996TIP3    H223953   2.984   2.265   2.503  1.7541  0.9011  0.5876
 7997TIP3   OH223954   3.048   2.649   0.708  0.0819 -0.0471  0.6435
 7997TIP3    H123955   2.966   2.694   0.727  0.6097  1.8436 -1.2459
 7997TIP3    H223956   3.025   2.582   0.644 -0.1021 -0.0923  0.7567
 7998TIP3   OH223957   0.639   5.217   5.879  0.5503  0.0408  0.2635
 7998TIP3    H123958   0.609   5.134   5.918 -2.7531  0.7278 -0.5079
 7998TIP3    H223959   0.564   5.248   5.829  1.7739  3.4128  0.2915
 7999TIP3   OH223960   4.320   6.122   0.888  0.0960  0.0730  0.6182
 7999TIP3    H123961   4.240   6.175   0.899  0.7149  0.9367  1.0759
 7999TIP3    H223962   4.293   6.034   0.914 -0.8786  0.2112  0.1397
 8000TIP3   OH223963   5.901   4.440   4.283  0.9634 -0.6003  0.3392
 8000TIP3    H123964   5.871   4.447   4.373  1.0743  1.3569  0.2732
 8000TIP3    H223965   5.977   4.382   4.287 -0.4311 -2.4609  1.0996
 8001TIP3   OH223966   3.088   2.863   2.343 -0.5434  0.0664  0.1623
 8001TIP3    H123967   3.047   2.781   2.314 -0.5948 -0.0320  0.5099
 8001TIP3    H223968   3.166   2.834   2.392 -1.0502  0.1969  1.0555
 8002TIP3   OH223969   3.413   2.821   0.886 -0.4633 -0.3250 -0.6388
 8002TIP3    H123970   3.419   2.726   0.879 -1.1084 -0.4679  0.4684
 8002TIP3    H223971   3.436   2.839   0.977  1.1296  0.7352 -1.2096
 8003TIP3   OH223972   0.900   1.099   4.054 -0.0929 -0.1267 -0.1530
 8003TIP3    H123973   0.959   1.175   4.062 -1.2606  0.6342  1.9335
 8003TIP3    H223974   0.956   1.023   4.070  0.2125  0.6352  2.9060
 8004TIP3   OH223975   2.498   4.733   4.434 -0.3630 -0.0668 -0.2214
 8004TIP3    H123976   2.534   4.672   4.369  1.2962  0.8848 -0.2490
 8004TIP3    H223977   2.575   4.773   4.474 -1.3844  0.3375  1.4149
 8005TIP3   OH223978   3.607   3.705   0.348 -0.5945  0.2882  0.2309
 8005TIP3    H123979   3.536   3.679   0.289 -0.2163 -0.4213  0.0710
 8005TIP3    H223980   3.665   3.757   0.294 -1.4166  1.6321  0.5819
 8006TIP3   OH223981   5.811   4.256   4.058  0.3138 -0.2244 -0.2318
 8006TIP3    H123982   5.884   4.273   4.000  1.3075 -2.2359  0.3217
 8006TIP3    H223983   5.842   4.283   4.145  0.4993 -1.2261  0.0303
 8007TIP3   OH223984   2.901   2.286   2.662 -0.1578 -0.7484 -0.2445
 8007TIP3    H123985   2.856   2.220   2.715  0.0937 -2.0537 -1.5968
 8007TIP3    H223986   2.835   2.354   2.648 -1.1099 -1.6990 -0.5524
 8008TIP3   OH223987   5.035   2.309   3.060 -0.2039 -0.0148  0.4800
 8008TIP3    H123988   5.119   2.337   3.096  0.6593 -1.8663  0.0249
 8008TIP3    H223989   4.978   2.385   3.071  2.0309  2.0211 -0.9391
 8009TIP3   OH223990   1.944   4.911   1.844 -0.5435 -0.1637 -0.4177
 8009TIP3    H123991   1.853   4.880   1.839 -1.2083  0.0376  4.8428
 8009TIP3    H223992   1.994   4.833   1.870  1.1666 -0.4466 -3.9012
 8010TIP3   OH223993   2.507   5.249   5.397  0.1963  0.5111  0.4251
 8010TIP3    H123994   2.547   5.328   5.435 -1.0626  0.3303  2.2919
 8010TIP3    H223995   2.581   5.193   5.375  1.0722  1.6586  0.3367
 8011TIP3   OH223996   4.148   1.188   2.108  0.4571  0.9057  0.1795
 8011TIP3    H123997   4.216   1.256   2.102  4.3943 -2.5815  0.8283
 8011TIP3    H223998   4.140   1.171   2.202  0.3008 -0.1865 -0.0204
 8012TIP3   OH223999   5.087   6.538   0.172 -0.1554  0.0806 -0.0723
 8012TIP3    H124000   5.047   6.558   0.257  0.6564  1.1024  0.0855
 8012TIP3    H224001   5.014   6.536   0.111 -0.7057 -0.2704  0.5747
 8013TIP3   OH224002   0.228   1.425   1.799 -0.3917 -0.7282 -0.0402
 8013TIP3    H124003   0.316   1.461   1.815 -1.6063  2.6053 -0.0055
 8013TIP3    H224004   0.240   1.367   1.724  1.8312 -0.1828 -0.2006
 8014TIP3   OH224005   0.838   5.558   1.364  0.8752 -0.0826 -0.1617
 8014TIP3    H124006   0.880   5.474   1.343  0.2352 -0.9512  1.8084
 8014TIP3    H224007   0.885   5.589   1.441 -0.8666 -0.1614  0.9671
 8015TIP3   OH224008   3.539   0.972   3.390  0.2376 -0.9989  0.8049
 8015TIP3    H124009   3.532   1.067   3.388  1.4532 -0.8934 -0.0146
 8015TIP3    H224010   3.613   0.954   3.448  0.8471 -1.3579 -0.0612
 8016TIP3   OH224011   5.742   5.328   1.053 -0.1465 -0.1112  0.6146
 8016TIP3    H124012   5.748   5.264   1.124 -0.7752 -1.1457 -0.2298
 8016TIP3    H224013   5.648   5.349   1.049 -0.3590 -1.2080 -0.8563
 8017TIP3   OH224014   2.120   4.107   0.593 -0.4058  0.2633  0.7483
 8017TIP3    H124015   2.167   4.152   0.523 -1.6939 -0.4434 -0.6390
 8017TIP3    H224016   2.188   4.075   0.651  0.9953 -1.6759 -1.7508
 8018TIP3   OH224017   7.004   0.155   5.562  0.2890 -0.2041  0.0511
 8018TIP3    H124018   6.929   0.194   5.516  1.2598  0.4758 -1.0171
 8018TIP3    H224019   6.967   0.120   5.643 -1.2295 -0.1230 -0.5730
 8019TIP3   OH224020   1.859   3.194   1.450  0.5781 -0.4724  0.1826
 8019TIP3    H124021   1.853   3.185   1.546 -0.0963  0.1528  0.2118
 8019TIP3    H224022   1.930   3.255   1.436  0.0540  0.1843  0.3368
 8020TIP3   OH224023   4.121   1.739   0.304 -0.1114  0.3102  0.0911
 8020TIP3    H124024   4.058   1.672   0.331 -0.9985  1.8812  2.1549
 8020TIP3    H224025   4.138   1.790   0.383  0.4389  2.5966 -1.4093
 8021TIP3   OH224026   3.995   4.792   0.986 -0.4187  0.1755  0.3728
 8021TIP3    H124027   4.044   4.768   1.065  2.0063  0.8471 -0.8541
 8021TIP3    H224028   4.007   4.887   0.978 -1.4703  0.2739 -0.3149
 8022TIP3   OH224029   1.487   5.315   0.918  0.4853  0.2354  0.2502
 8022TIP3    H124030   1.416   5.273   0.870 -0.9402 -0.1403  2.5785
 8022TIP3    H224031   1.464   5.408   0.918  1.2328  0.4511 -0.9155
 8023TIP3   OH224032   2.537   2.844   0.484  0.5452  0.0798  0.3902
 8023TIP3    H124033   2.483   2.860   0.407 -0.3569 -3.1047  0.2201
 8023TIP3    H224034   2.613   2.797   0.451 -0.1516 -1.8805  1.4196
 8024TIP3   OH224035   5.232   3.623   0.156 -0.0363  0.1609  0.3861
 8024TIP3    H124036   5.202   3.545   0.111 -0.3562  1.2986 -1.4763
 8024TIP3    H224037   5.183   3.695   0.116  1.7304  1.5571  0.5751
 8025TIP3   OH224038   0.332   6.153   5.308 -0.7120 -0.1548 -0.3448
 8025TIP3    H124039   0.305   6.081   5.365 -0.8123  0.3691  0.2868
 8025TIP3    H224040   0.414   6.123   5.268 -0.9163 -0.7383 -0.3357
 8026TIP3   OH224041   6.580   1.833   0.688 -0.0150 -0.0679  0.0622
 8026TIP3    H124042   6.504   1.853   0.742  0.7063 -1.4749  1.7078
 8026TIP3    H224043   6.655   1.861   0.740  0.7140 -1.5269 -0.1497
 8027TIP3   OH224044   2.870   3.463   5.235 -0.1209  0.0465 -0.8387
 8027TIP3    H124045   2.820   3.528   5.186  0.2594 -0.3107 -1.7187
 8027TIP3    H224046   2.836   3.378   5.206 -1.7350 -0.1980  1.4749
 8028TIP3   OH224047   0.305   5.954   2.733 -0.0597 -0.1339  0.2296
 8028TIP3    H124048   0.389   5.959   2.689 -0.1369 -1.8146 -0.1508
 8028TIP3    H224049   0.324   5.980   2.823  0.8640 -0.4873  0.1471
 8029TIP3   OH224050   6.491   5.480   3.090 -0.2468  0.2048  0.0899
 8029TIP3    H124051   6.411   5.440   3.055 -0.4031  0.1500  0.4932
 8029TIP3    H224052   6.552   5.407   3.099  0.1262  0.3815 -0.9745
 8030TIP3   OH224053   5.562   2.329   1.433  0.3790  0.3858 -0.1609
 8030TIP3    H124054   5.551   2.273   1.509  0.9058 -0.0800 -0.4184
 8030TIP3    H224055   5.641   2.380   1.452 -0.0975  1.0394  0.0715
 8031TIP3   OH224056   0.687   5.619  -0.007 -0.3428 -0.4474  0.5537
 8031TIP3    H124057   0.638   5.701  -0.011  0.5763  0.0944  0.1106
 8031TIP3    H224058   0.758   5.636   0.055  1.1298 -0.1736 -1.1147
 8032TIP3   OH224059   2.681   5.513   1.724  0.1378 -0.6447 -0.1374
 8032TIP3    H124060   2.596   5.512   1.768 -0.1848  0.7780 -0.6615
 8032TIP3    H224061   2.697   5.422   1.701 -0.8183 -1.0675  0.7620
 8033TIP3   OH224062   0.780   1.207   4.461 -0.4369 -0.2894 -0.0964
 8033TIP3    H124063   0.729   1.210   4.542 -1.4995  0.7088 -0.7584
 8033TIP3    H224064   0.789   1.113   4.442 -0.2485 -0.5302  1.1151
 8034TIP3   OH224065   3.102   0.644   2.774  0.2659  0.0069  0.3723
 8034TIP3    H124066   3.191   0.668   2.747 -0.0088 -2.0748 -2.8498
 8034TIP3    H224067   3.107   0.551   2.796 -0.3342  0.7667  4.7544
 8035TIP3   OH224068   2.697   6.644   3.485  0.7206  0.1914 -0.7770
 8035TIP3    H124069   2.792   6.634   3.478  1.1315  2.5570  0.6066
 8035TIP3    H224070   2.682   6.669   3.576 -1.5476 -2.6235 -0.2608
 8036TIP3   OH224071   2.221   1.935   1.340 -0.2465  0.2324 -0.4213
 8036TIP3    H124072   2.138   1.931   1.388  0.3363 -1.7231  0.5365
 8036TIP3    H224073   2.276   1.992   1.394 -0.5106  0.3846 -0.3056
 8037TIP3   OH224074   6.423   0.158   5.162  0.0630 -0.0791 -0.0964
 8037TIP3    H124075   6.360   0.140   5.232 -0.2814  1.0311 -0.0995
 8037TIP3    H224076   6.506   0.122   5.194 -0.5817 -1.6718 -0.1510
 8038TIP3   OH224077   1.978   4.820   5.719 -0.1509  0.3398  0.1128
 8038TIP3    H124078   1.968   4.890   5.655  2.3130  0.9265  0.2916
 8038TIP3    H224079   2.043   4.761   5.681 -0.9031 -0.9524  0.7506
 8039TIP3   OH224080   6.797   2.927   1.830  0.4669  0.2329  0.3505
 8039TIP3    H124081   6.784   2.875   1.909 -1.6772 -0.7572 -0.5507
 8039TIP3    H224082   6.802   3.017   1.860  1.6270 -0.2685  1.7517
 8040TIP3   OH224083   1.099   5.050   5.374 -0.6705 -0.3891  0.1232
 8040TIP3    H124084   1.028   5.072   5.434 -1.7651  1.5402 -1.7645
 8040TIP3    H224085   1.055   5.026   5.292  0.8166 -0.8571 -0.5749
 8041TIP3   OH224086   4.116   0.084   2.227 -0.2961  0.0865 -0.1429
 8041TIP3    H124087   4.063   0.074   2.148 -0.5052 -1.3861  0.1475
 8041TIP3    H224088   4.157  -0.002   2.239  1.2743  0.8593  0.2704
 8042TIP3   OH224089   3.159   2.215   3.086 -0.0290 -0.2607 -0.2734
 8042TIP3    H124090   3.151   2.126   3.118 -3.3370  0.2018  0.6129
 8042TIP3    H224091   3.222   2.257   3.145  2.0605 -2.0564 -1.1006
 8043TIP3   OH224092   3.259   5.901   0.411 -0.1771  0.2409  0.1922
 8043TIP3    H124093   3.339   5.894   0.463  0.3408  1.4702 -0.4018
 8043TIP3    H224094   3.240   5.811   0.384  2.7947  0.1886 -2.2681
 8044TIP3   OH224095   3.946   3.896   3.627 -0.8070  0.0667  0.4518
 8044TIP3    H124096   4.011   3.915   3.695 -1.6037 -0.4384  1.3714
 8044TIP3    H224097   3.964   3.805   3.602  0.9582  0.8956 -1.6964
 8045TIP3   OH224098   0.664   3.503   3.292  0.0657 -0.3326  0.5194
 8045TIP3    H124099   0.577   3.517   3.256  0.7843 -0.0239 -1.1807
 8045TIP3    H224100   0.710   3.586   3.278  0.4677 -0.2890  1.9462
 8046TIP3   OH224101   7.146   4.634   4.640 -0.3167  0.1246 -0.6209
 8046TIP3    H124102   7.064   4.675   4.614 -0.4487 -0.3982 -1.0579
 8046TIP3    H224103   7.168   4.674   4.724 -1.1234  0.1243 -0.4049
 8047TIP3   OH224104   5.354   4.385   3.094  0.3147 -0.4696  0.2602
 8047TIP3    H124105   5.426   4.446   3.111 -0.2841  0.4191 -0.2923
 8047TIP3    H224106   5.397   4.306   3.061  1.0156  0.2264 -0.5427
 8048TIP3   OH224107   0.568   0.563   3.363 -0.0175  0.4206 -0.2557
 8048TIP3    H124108   0.662   0.549   3.353  0.1295  0.3135  1.1459
 8048TIP3    H224109   0.542   0.610   3.283  1.6383  2.4107  0.2944
 8049TIP3   OH224110   3.423   4.043   4.885  0.7955 -0.0339 -0.0273
 8049TIP3    H124111   3.459   4.040   4.974 -0.6952  1.3669  0.6758
 8049TIP3    H224112   3.334   4.007   4.894  1.0946 -1.1674 -1.2527
 8050TIP3   OH224113   6.841   6.764   0.544  0.5110  0.1856  0.1975
 8050TIP3    H124114   6.923   6.808   0.568  1.4172 -1.3452  0.0284
 8050TIP3    H224115   6.814   6.719   0.624  0.8517 -0.8344 -0.2482
 8051TIP3   OH224116   7.063   4.854   1.221 -0.2271 -0.2457 -0.3133
 8051TIP3    H124117   7.144   4.823   1.180  0.0046  0.0950 -0.1258
 8051TIP3    H224118   7.021   4.907   1.153  0.8148  1.4341  0.2754
 8052TIP3   OH224119   2.127   6.172   1.692  0.1832  0.6593  0.3604
 8052TIP3    H124120   2.126   6.260   1.731  0.5308  1.0672 -0.5409
 8052TIP3    H224121   2.037   6.158   1.662  0.0937  0.6459  0.6291
 8053TIP3   OH224122   2.025   0.624   4.691  0.3714 -0.2121  0.2541
 8053TIP3    H124123   2.088   0.692   4.667  2.3886 -1.8967  0.4228
 8053TIP3    H224124   1.981   0.602   4.609  1.7361 -0.6173 -0.4116
 8054TIP3   OH224125   0.666   0.424   3.944 -0.1576  0.3562 -0.0604
 8054TIP3    H124126   0.715   0.386   4.018  0.9337 -1.2168 -1.5093
 8054TIP3    H224127   0.577   0.390   3.954 -1.0518  3.0376  2.4618
 8055TIP3   OH224128   0.051   6.030   4.825 -0.0885 -0.2476  0.0901
 8055TIP3    H124129   0.118   5.976   4.866  1.9380  1.1359 -1.1826
 8055TIP3    H224130   0.001   5.969   4.770  0.7012 -1.1870  0.3879
 8056TIP3   OH224131   5.488   2.639   2.895  0.0367 -0.2374  0.5754
 8056TIP3    H124132   5.519   2.579   2.827  1.3432  0.1156  0.8292
 8056TIP3    H224133   5.438   2.583   2.955  0.3075 -0.8671  0.2211
 8057TIP3   OH224134   5.392   1.254   4.380 -0.1148 -0.5948  0.1586
 8057TIP3    H124135   5.455   1.239   4.450  0.9858 -0.5291 -0.7931
 8057TIP3    H224136   5.319   1.195   4.400  0.8307 -1.6580  0.5568
 8058TIP3   OH224137   1.711   0.241   2.067  0.1183 -0.3093 -0.1126
 8058TIP3    H124138   1.635   0.292   2.093 -0.3393  0.5679 -2.8114
 8058TIP3    H224139   1.679   0.152   2.059 -0.3453 -0.1487 -0.0742
 8059TIP3   OH224140   2.197   1.483   3.051 -0.2933 -0.3395  0.1689
 8059TIP3    H124141   2.160   1.396   3.039  0.0246 -0.2927 -1.2829
 8059TIP3    H224142   2.128   1.531   3.098 -0.1887 -1.5374  1.6313
 8060TIP3   OH224143   1.429   0.189   1.508  0.4074  0.1891 -0.2368
 8060TIP3    H124144   1.381   0.201   1.426  0.6819  0.5296 -0.3529
 8060TIP3    H224145   1.432   0.094   1.521  0.0069  0.1549 -0.4080
 8061TIP3   OH224146   5.426   2.567   5.026 -0.5620 -0.0194 -0.1669
 8061TIP3    H124147   5.442   2.612   5.109 -0.8778  0.0613 -0.1499
 8061TIP3    H224148   5.336   2.589   5.004 -0.9800 -1.2500  0.2208
 8062TIP3   OH224149   2.899   5.400   0.789  0.2129 -0.0118  0.5159
 8062TIP3    H124150   2.871   5.490   0.805  0.1376  0.0720 -0.0534
 8062TIP3    H224151   2.989   5.397   0.819 -0.1911 -0.1054  1.7635
 8063TIP3   OH224152   0.587   0.959   2.852  0.6161  0.7621  0.3664
 8063TIP3    H124153   0.536   0.878   2.850  1.7447  0.0408 -1.7655
 8063TIP3    H224154   0.521   1.028   2.867 -1.1771 -0.0774 -2.7641
 8064TIP3   OH224155   6.624   1.671   1.003 -0.2352 -0.1161  0.1366
 8064TIP3    H124156   6.594   1.716   1.082  0.0478 -0.6821  0.5728
 8064TIP3    H224157   6.544   1.636   0.963 -0.2013 -1.5370  1.2432
 8065TIP3   OH224158   3.735   2.331   0.072  0.6114 -0.3405 -0.4079
 8065TIP3    H124159   3.723   2.285  -0.011  0.1722  1.3215 -1.3206
 8065TIP3    H224160   3.780   2.412   0.048 -1.9916  1.4950  0.4925
 8066TIP3   OH224161   0.278   5.046   1.110 -0.0853 -0.2098 -0.5420
 8066TIP3    H124162   0.207   4.998   1.068 -0.1561 -0.5359 -0.0527
 8066TIP3    H224163   0.299   4.995   1.188  0.8115 -0.2240 -0.7756
 8067TIP3   OH224164   5.762   2.519   3.913  0.2165  0.2714  0.1543
 8067TIP3    H124165   5.723   2.606   3.923 -2.0968 -0.5760 -0.7454
 8067TIP3    H224166   5.709   2.463   3.969  1.5300 -0.6386  0.5290
 8068TIP3   OH224167   3.437   5.394   1.484 -0.1535 -0.2266  0.1254
 8068TIP3    H124168   3.357   5.355   1.520  0.3272  1.5477  3.5739
 8068TIP3    H224169   3.506   5.332   1.509 -0.2054 -0.8613 -1.2377
 8069TIP3   OH224170   3.514   5.541   3.380 -0.2944  0.0417 -0.2366
 8069TIP3    H124171   3.492   5.478   3.448 -1.0566 -0.1170 -0.6168
 8069TIP3    H224172   3.607   5.557   3.391 -0.1409 -0.9713  0.0150
 8070TIP3   OH224173   3.377   5.129   3.326 -0.0524  0.6264  0.1354
 8070TIP3    H124174   3.426   5.108   3.406 -2.4250 -1.5972  1.1199
 8070TIP3    H224175   3.430   5.093   3.255  0.8489  0.3091  0.9493
 8071TIP3   OH224176   1.771   6.798   0.352 -0.4635 -0.2632  0.4039
 8071TIP3    H124177   1.808   6.720   0.312 -0.6835 -1.2031  1.9523
 8071TIP3    H224178   1.846   6.842   0.392 -0.3003  0.4757 -0.6791
 8072TIP3   OH224179   3.348   5.768   3.783 -0.4254  0.1120  0.5133
 8072TIP3    H124180   3.411   5.801   3.846  0.7804 -0.4833 -0.3425
 8072TIP3    H224181   3.324   5.681   3.817  0.1121 -0.1469  0.2471
 8073TIP3   OH224182   4.955   2.767   0.534  0.1990  0.1057 -0.0776
 8073TIP3    H124183   5.012   2.691   0.526  0.3831  0.3553 -1.5708
 8073TIP3    H224184   4.883   2.739   0.590  0.2850 -1.1587 -0.5739
 8074TIP3   OH224185   3.261   0.697   1.330 -0.1937  0.4243 -0.5719
 8074TIP3    H124186   3.236   0.681   1.239 -0.8260  0.2293 -0.3734
 8074TIP3    H224187   3.180   0.683   1.379  0.2297  0.1695  0.0610
 8075TIP3   OH224188   0.154   5.719   5.874  0.3640 -0.2109 -0.0391
 8075TIP3    H124189   0.115   5.796   5.915  2.2144  0.9974 -0.4453
 8075TIP3    H224190   0.079   5.672   5.836 -1.0460  0.2044  2.0449
 8076TIP3   OH224191   4.777   1.144   0.766  0.1146 -0.3587  0.2214
 8076TIP3    H124192   4.835   1.087   0.818 -1.0654 -1.4335  0.4272
 8076TIP3    H224193   4.781   1.108   0.678 -0.1711 -0.3858  0.2192
 8077TIP3   OH224194   2.861   2.703   2.469 -0.1386  0.2864  0.7475
 8077TIP3    H124195   2.953   2.684   2.450  0.0965  2.5941 -0.9345
 8077TIP3    H224196   2.851   2.680   2.561  1.5845 -1.7564  0.5141
 8078TIP3   OH224197   1.716   0.656   1.400 -0.2792 -0.5289 -0.6150
 8078TIP3    H124198   1.696   0.691   1.314  1.0818 -0.6725 -1.0204
 8078TIP3    H224199   1.679   0.720   1.461  0.3843  0.5812 -1.3264
 8079TIP3   OH224200   3.558   5.565   2.304 -0.1982  0.1796 -0.0353
 8079TIP3    H124201   3.614   5.544   2.378 -0.3002 -0.4280 -0.1306
 8079TIP3    H224202   3.473   5.586   2.343 -0.0425  0.6214  0.0726
 8080TIP3   OH224203   4.103   6.355   4.564  0.2087 -0.0448 -0.4876
 8080TIP3    H124204   4.083   6.299   4.640 -1.3664  0.5962 -0.3915
 8080TIP3    H224205   4.196   6.375   4.573  0.0740 -0.0240  1.2615
 8081TIP3   OH224206   5.099   2.345   5.128  0.0881  0.5313 -0.2106
 8081TIP3    H124207   5.131   2.392   5.205 -1.9055 -0.2728  1.1898
 8081TIP3    H224208   5.024   2.296   5.160 -0.5023 -0.2263 -2.5932
 8082TIP3   OH224209   5.687   2.439   5.269 -0.1280 -0.9005  0.1208
 8082TIP3    H124210   5.634   2.408   5.343 -0.7861 -1.4550 -0.5706
 8082TIP3    H224211   5.648   2.523   5.246 -0.3725 -1.0576 -0.0439
 8083TIP3   OH224212   3.304   6.202   5.254  0.7909  0.2215 -0.4713
 8083TIP3    H124213   3.296   6.289   5.215  0.4201  0.9910  1.2190
 8083TIP3    H224214   3.215   6.182   5.285  1.0035 -0.4942 -0.3128
 8084TIP3   OH224215   1.140   2.181   2.603 -0.5411 -0.0799 -0.1432
 8084TIP3    H124216   1.112   2.090   2.601 -1.1340  0.0983 -1.8069
 8084TIP3    H224217   1.059   2.231   2.614 -0.0152  0.2658  3.7922
 8085TIP3   OH224218   0.202   3.489   4.065  0.1753  0.4732 -0.1542
 8085TIP3    H124219   0.243   3.533   3.990 -1.1027  1.7838 -0.1209
 8085TIP3    H224220   0.274   3.444   4.108  1.2151  1.0063 -1.2665
 8086TIP3   OH224221   0.607   5.352   5.625 -0.0744  0.1992  0.0728
 8086TIP3    H124222   0.643   5.336   5.537  0.8069  0.6737  0.3362
 8086TIP3    H224223   0.669   5.310   5.684  1.8059  3.5113  0.7285
 8087TIP3   OH224224   2.268   5.050   4.687  0.5436 -0.4178 -0.2205
 8087TIP3    H124225   2.230   4.987   4.748  0.0095 -0.2935 -0.4182
 8087TIP3    H224226   2.286   5.127   4.741  0.1088 -0.3224 -0.2065
 8088TIP3   OH224227   4.956   2.269   1.397  0.1137 -0.7400 -0.3008
 8088TIP3    H124228   4.941   2.356   1.360 -0.3371 -1.1474 -1.1235
 8088TIP3    H224229   5.003   2.222   1.328  2.8564 -0.3576  1.1674
 8089TIP3   OH224230   4.453   2.748   4.090 -0.2351 -0.0951  0.2741
 8089TIP3    H124231   4.403   2.824   4.118  0.0386 -0.1862  1.0510
 8089TIP3    H224232   4.518   2.736   4.159 -1.7838 -2.4537  1.4711
 8090TIP3   OH224233   6.021   3.769   3.613  0.4291 -0.0440  1.0760
 8090TIP3    H124234   5.986   3.729   3.533  0.6156  2.9325 -0.6067
 8090TIP3    H224235   6.116   3.767   3.601  0.4324  1.1018  0.8267
 8091TIP3   OH224236   6.861   3.567   2.499  0.0443 -0.2512 -0.1480
 8091TIP3    H124237   6.787   3.608   2.455 -1.5212 -1.7158  0.9853
 8091TIP3    H224238   6.885   3.493   2.443 -1.6755 -1.8601  1.0974
 8092TIP3   OH224239   1.089   5.180   2.705  0.2925 -0.1341  0.1938
 8092TIP3    H124240   1.124   5.095   2.732  1.1811  0.4723  0.9898
 8092TIP3    H224241   1.032   5.159   2.631  1.8547 -1.2327 -0.7590
 8093TIP3   OH224242   6.267   3.763   5.319 -0.3477  0.9602  0.3456
 8093TIP3    H124243   6.250   3.810   5.401 -0.5429  0.9363  0.3212
 8093TIP3    H224244   6.319   3.824   5.267  0.1412  0.8090  0.6525
 8094TIP3   OH224245   6.292   2.857   3.681  0.5120  0.4976 -0.6220
 8094TIP3    H124246   6.330   2.938   3.647  1.1218  0.3486 -0.3040
 8094TIP3    H224247   6.198   2.874   3.683  0.6523  1.2859 -0.3561
 8095TIP3   OH224248   6.136   0.639   5.540 -0.2737 -0.0708  0.3108
 8095TIP3    H124249   6.208   0.576   5.536 -1.9037 -2.0839  0.8451
 8095TIP3    H224250   6.133   0.677   5.452  1.1761 -0.2222  0.1701
 8096TIP3   OH224251   4.128   6.026   0.000 -0.1305 -0.2663  0.5539
 8096TIP3    H124252   4.098   6.008   0.089  0.5861 -0.0018  0.8512
 8096TIP3    H224253   4.082   6.107  -0.024 -0.8706 -0.7213  0.4124
 8097TIP3   OH224254   1.065   3.139   5.586 -0.2472  0.1417  0.0162
 8097TIP3    H124255   1.111   3.177   5.661  1.0076 -1.0619 -0.1061
 8097TIP3    H224256   0.986   3.100   5.623 -0.7359  1.4086  0.3717
 8098TIP3   OH224257   1.726   3.657   1.457  0.0715  0.1599 -0.8902
 8098TIP3    H124258   1.639   3.618   1.446  0.0334 -0.0424  0.0456
 8098TIP3    H224259   1.761   3.617   1.537  0.5591  1.0794 -0.6185
 8099TIP3   OH224260   0.085   5.097   3.247  0.3023 -0.1669 -0.0224
 8099TIP3    H124261   0.062   5.020   3.195 -0.9214 -0.8437  1.4332
 8099TIP3    H224262   0.006   5.116   3.298  1.1729  0.9531  0.9772
 8100TIP3   OH224263   6.434   3.043   0.414  0.3700 -0.7781  0.5771
 8100TIP3    H124264   6.530   3.042   0.413  0.6009  1.7413 -3.8244
 8100TIP3    H224265   6.409   2.955   0.385  1.4929 -0.8550 -0.2176
 8101TIP3   OH224266   5.491   1.060   1.877 -0.1509  0.1728 -0.1522
 8101TIP3    H124267   5.411   1.029   1.920 -0.5931  0.9586 -0.3881
 8101TIP3    H224268   5.464   1.081   1.788  0.6098 -0.7891 -0.6254
 8102TIP3   OH224269   0.937   1.432   0.047 -0.2227 -0.0747 -0.1115
 8102TIP3    H124270   0.956   1.339   0.061 -2.6441 -0.6252  0.0689
 8102TIP3    H224271   0.873   1.453   0.115 -0.3515  1.5185 -0.6821
 8103TIP3   OH224272   0.637   0.570   4.871  0.5690  0.3154 -0.4517
 8103TIP3    H124273   0.600   0.482   4.874  0.9052  0.1248 -1.4093
 8103TIP3    H224274   0.695   0.569   4.795  2.3686  0.6828  0.8626
 8104TIP3   OH224275   1.958   5.956   0.355  0.6729  0.2230 -0.2556
 8104TIP3    H124276   1.966   5.880   0.412 -0.4994  0.1351 -0.1978
 8104TIP3    H224277   2.047   5.970   0.322  0.7011 -1.9780 -1.3164
 8105TIP3   OH224278   6.427   4.706   1.345 -0.0010  0.2984 -0.5910
 8105TIP3    H124279   6.396   4.687   1.257  0.6405  0.2804 -0.8229
 8105TIP3    H224280   6.465   4.794   1.339  2.0395 -0.5315 -0.9092
 8106TIP3   OH224281   2.098   6.431   0.466  0.2043  0.4888  1.3681
 8106TIP3    H124282   2.094   6.369   0.393  0.1879  1.9067  0.0900
 8106TIP3    H224283   2.046   6.391   0.535  0.8726 -1.2759  0.8989
 8107TIP3   OH224284   3.867   2.173   0.265 -0.2891 -0.2178 -0.1935
 8107TIP3    H124285   3.833   2.224   0.192  0.0371 -0.1958 -0.3363
 8107TIP3    H224286   3.821   2.090   0.260 -1.4471  0.3564  0.5543
 8108TIP3   OH224287   6.503   6.165   5.156 -0.3913 -0.3768  0.3477
 8108TIP3    H124288   6.492   6.087   5.211  0.8675 -2.9653 -2.7649
 8108TIP3    H224289   6.597   6.167   5.137 -0.6116  1.1163 -0.7091
 8109TIP3   OH224290   2.952   1.187   1.949 -0.2084  0.4130  0.1127
 8109TIP3    H124291   2.893   1.263   1.946 -1.0315 -0.1772  0.8223
 8109TIP3    H224292   2.914   1.129   2.015 -0.2172 -1.1367 -1.1795
 8110TIP3   OH224293   4.371   4.427   5.119  0.0237  0.2053 -0.2053
 8110TIP3    H124294   4.446   4.418   5.178  0.6931  1.3326 -0.8372
 8110TIP3    H224295   4.319   4.498   5.157 -1.0152 -0.8970  0.4972
 8111TIP3   OH224296   5.169   1.196   3.058 -0.0892 -0.1210  0.1795
 8111TIP3    H124297   5.202   1.177   3.146  2.9197  0.7402 -0.6539
 8111TIP3    H224298   5.182   1.115   3.009  0.0400 -0.0313  0.0635
 8112TIP3   OH224299   6.526   3.517   2.227 -0.3149 -0.1831 -0.1872
 8112TIP3    H124300   6.493   3.429   2.213  0.8813 -0.5554 -0.8376
 8112TIP3    H224301   6.532   3.526   2.322  0.1240 -1.0386 -0.1221
 8113TIP3   OH224302   1.543   1.279   1.732 -0.0474 -0.2347 -0.5365
 8113TIP3    H124303   1.578   1.327   1.807 -1.5126  1.1825 -0.6989
 8113TIP3    H224304   1.615   1.223   1.703  1.7160  1.7488 -0.2282
 8114TIP3   OH224305   1.488   0.436   1.915 -0.0910  0.2552 -0.4758
 8114TIP3    H124306   1.397   0.433   1.885  0.0508 -0.0288 -0.8946
 8114TIP3    H224307   1.534   0.374   1.858 -0.1518 -1.7524  1.5093
 8115TIP3   OH224308   6.970   5.957   1.356  0.1195  0.8987  0.0052
 8115TIP3    H124309   6.969   5.887   1.422 -0.1942  1.8475  1.0388
 8115TIP3    H224310   7.021   5.921   1.283  1.2332  0.1500  1.1184
 8116TIP3   OH224311   0.850   6.015   1.860 -0.0548 -0.1505  0.2586
 8116TIP3    H124312   0.866   6.061   1.778 -0.3114  0.3803  0.5003
 8116TIP3    H224313   0.904   6.061   1.925 -0.8626  0.2856  0.6456
 8117TIP3   OH224314   0.297   1.473   3.533  0.1694  0.3895  0.4432
 8117TIP3    H124315   0.304   1.489   3.439 -0.9574  0.1634  0.3134
 8117TIP3    H224316   0.388   1.458   3.561  0.8254  2.8769 -0.1331
 8118TIP3   OH224317   0.656   3.088   3.532  0.5223 -0.1391 -0.0399
 8118TIP3    H124318   0.576   3.137   3.514  0.7612 -0.1731 -1.2613
 8118TIP3    H224319   0.719   3.156   3.559  0.5884  0.1338 -0.8401
 8119TIP3   OH224320   1.990   3.652   1.365  0.2948  0.4477 -0.3410
 8119TIP3    H124321   1.988   3.747   1.352 -1.0610  0.7756  1.6531
 8119TIP3    H224322   1.899   3.625   1.359  0.7448 -0.9059 -1.6986
 8120TIP3   OH224323   5.765   5.214   4.237  0.0064  0.4726 -0.0903
 8120TIP3    H124324   5.778   5.123   4.210 -3.4988 -0.4983  0.8754
 8120TIP3    H224325   5.848   5.240   4.277  1.5073 -1.8442 -1.4889
 8121TIP3   OH224326   2.792   1.030   2.983  0.1207  0.0765 -0.1017
 8121TIP3    H124327   2.869   0.997   2.937 -0.8487 -1.1122 -0.9311
 8121TIP3    H224328   2.729   1.048   2.913 -1.3423 -1.6343  0.7158
 8122TIP3   OH224329   2.577   3.862   1.918  0.0348 -0.5989 -0.5142
 8122TIP3    H124330   2.557   3.922   1.990 -0.7596  0.3728 -1.5017
 8122TIP3    H224331   2.644   3.803   1.953  1.9522  1.7568  0.0695
 8123TIP3   OH224332   3.171   2.796   5.822 -0.2979  0.7900  0.1148
 8123TIP3    H124333   3.153   2.723   5.882  1.9599 -0.6862 -0.8653
 8123TIP3    H224334   3.085   2.834   5.804 -2.0108 -3.2397 -1.3116
 8124TIP3   OH224335   4.228   1.954   2.361  0.3886 -0.4305 -0.3436
 8124TIP3    H124336   4.150   2.008   2.343 -0.0078 -1.5118 -2.0954
 8124TIP3    H224337   4.294   2.017   2.391 -1.2995  0.4526  1.9022
 8125TIP3   OH224338   4.315   3.057   0.281  0.5090  1.0021  0.0624
 8125TIP3    H124339   4.368   2.992   0.235  0.7922  1.0216  0.3642
 8125TIP3    H224340   4.228   3.049   0.240 -0.4422 -1.9138  2.2753
 8126TIP3   OH224341   2.353   2.926   0.897 -0.1703 -0.3160  0.3301
 8126TIP3    H124342   2.361   2.872   0.818  2.2516  1.4437 -0.7489
 8126TIP3    H224343   2.269   2.971   0.887 -1.6190 -2.7756  0.6202
 8127TIP3   OH224344   0.349   1.970   4.004  0.7165  0.0305  0.3026
 8127TIP3    H124345   0.386   1.975   4.093 -0.6946 -0.8747  0.9849
 8127TIP3    H224346   0.281   1.903   4.011  0.9532 -0.4574 -1.6240
 8128TIP3   OH224347   3.609   5.740   2.549 -0.1634 -0.2233  0.2058
 8128TIP3    H124348   3.611   5.671   2.615 -1.5828  0.4519  1.0082
 8128TIP3    H224349   3.653   5.702   2.473 -0.1215 -1.6848  0.9279
 8129TIP3   OH224350   4.300   5.657   3.029  0.3606 -0.0096  1.0263
 8129TIP3    H124351   4.242   5.616   2.965  1.6382 -0.6650  0.2687
 8129TIP3    H224352   4.382   5.609   3.022  2.3378  3.2814 -0.7103
 8130TIP3   OH224353   1.475   4.203   4.998 -0.3111  0.2017  0.1826
 8130TIP3    H124354   1.456   4.241   4.912  0.9425  1.1782  0.3054
 8130TIP3    H224355   1.562   4.165   4.989 -0.3636 -0.1062  0.8931
 8131TIP3   OH224356   1.107   0.064   3.301 -0.1023  0.6933  0.3612
 8131TIP3    H124357   1.168   0.022   3.362 -1.2265  0.1192  1.1521
 8131TIP3    H224358   1.107   0.008   3.224 -0.5969 -0.0570  0.8868
 8132TIP3   OH224359   0.477   5.161   0.886  0.0256 -0.2532  0.0756
 8132TIP3    H124360   0.434   5.235   0.844 -1.0547 -0.9240 -0.0204
 8132TIP3    H224361   0.409   5.120   0.939  0.7738 -0.8049  0.6382
 8133TIP3   OH224362   7.064   3.902   2.654  0.3139  0.3119 -0.2792
 8133TIP3    H124363   6.993   3.859   2.701 -0.7688  1.8200 -0.4390
 8133TIP3    H224364   7.034   3.905   2.563 -0.2441  2.4126 -0.0904
 8134TIP3   OH224365   5.139   5.940   0.345 -0.2222 -0.4914  0.1868
 8134TIP3    H124366   5.216   5.958   0.400 -0.4918 -1.3025  0.8422
 8134TIP3    H224367   5.065   5.947   0.404 -0.5501 -1.0115 -0.1592
 8135TIP3   OH224368   6.761   0.499   2.322  0.5882 -0.1928 -0.1318
 8135TIP3    H124369   6.741   0.426   2.262  2.9662  0.4092 -1.8351
 8135TIP3    H224370   6.711   0.480   2.401 -0.0699 -2.8626 -1.0830
 8136TIP3   OH224371   4.786   5.185   0.213 -0.1339  0.3775  0.1998
 8136TIP3    H124372   4.850   5.117   0.190  0.0017  0.9552 -1.1871
 8136TIP3    H224373   4.726   5.140   0.272  0.2877 -0.7980 -0.2152
 8137TIP3   OH224374   5.764   6.581   0.892  0.0471 -0.5376  0.3630
 8137TIP3    H124375   5.756   6.598   0.986  0.0170 -1.2962  0.5018
 8137TIP3    H224376   5.676   6.560   0.863  0.3098 -1.9663  0.5115
 8138TIP3   OH224377   3.120   3.416   0.733 -0.1167  0.7404 -0.2287
 8138TIP3    H124378   3.197   3.395   0.786 -0.7600  0.5724  0.6595
 8138TIP3    H224379   3.090   3.331   0.700  0.7143  0.9143 -1.5081
 8139TIP3   OH224380   0.927   5.457   5.219 -0.3342  0.3687  0.1838
 8139TIP3    H124381   0.993   5.418   5.277 -1.4501 -0.1671  1.1484
 8139TIP3    H224382   0.962   5.543   5.197  0.7640  0.0275  0.5265
 8140TIP3   OH224383   5.387   5.020   4.143 -0.0065  0.2380  0.2476
 8140TIP3    H124384   5.355   5.074   4.071  0.1598 -1.1330 -0.8974
 8140TIP3    H224385   5.474   5.053   4.162  0.1550  0.2781 -0.5464
 8141TIP3   OH224386   6.503   3.495   2.490 -0.3452  0.5441  0.1864
 8141TIP3    H124387   6.530   3.417   2.537 -0.2724  0.0990 -0.5709
 8141TIP3    H224388   6.454   3.547   2.554  0.3393  0.2879  0.9293
 8142TIP3   OH224389   3.755   3.521   2.734 -0.1559  0.3204  0.7949
 8142TIP3    H124390   3.776   3.573   2.656 -0.6212  2.3888  1.9775
 8142TIP3    H224391   3.668   3.486   2.716 -0.7680  1.7663  0.8390
 8143TIP3   OH224392   2.889   1.752   1.194 -0.1592 -0.5197  0.5097
 8143TIP3    H124393   2.882   1.720   1.284 -2.4172 -1.8591 -0.0347
 8143TIP3    H224394   2.862   1.843   1.198 -0.5129 -0.6488  1.1616
 8144TIP3   OH224395   2.898   4.910   3.304 -0.3622  0.5671 -0.6587
 8144TIP3    H124396   2.951   4.933   3.227  0.0006 -0.3449 -0.6964
 8144TIP3    H224397   2.839   4.841   3.273  0.0711 -0.1006 -0.0270
 8145TIP3   OH224398   2.839   2.349   4.677 -0.1653  0.0665 -0.6816
 8145TIP3    H124399   2.745   2.340   4.694 -0.1558  0.5331 -0.3368
 8145TIP3    H224400   2.881   2.297   4.745 -0.1442  1.2919  0.2725
 8146TIP3   OH224401   5.823   4.061   0.440 -0.4944  0.3287  0.1528
 8146TIP3    H124402   5.818   4.156   0.445 -1.3929  0.2272  2.9577
 8146TIP3    H224403   5.736   4.033   0.413 -0.4764  0.2662  0.1573
 8147TIP3   OH224404   4.245   3.684   0.871 -0.4638  0.0121  0.6696
 8147TIP3    H124405   4.325   3.655   0.914  1.3798  0.4004 -2.1687
 8147TIP3    H224406   4.201   3.603   0.845  0.5731 -0.2892 -0.2687
 8148TIP3   OH224407   2.307   4.316   0.253  0.2743 -0.3095  0.0009
 8148TIP3    H124408   2.357   4.350   0.179  0.7808 -0.4319  0.2806
 8148TIP3    H224409   2.299   4.390   0.314 -0.6992 -0.0266 -0.4551
 8149TIP3   OH224410   0.156   0.853   3.524 -0.3241 -0.0482 -0.1814
 8149TIP3    H124411   0.208   0.805   3.590  0.2893  0.7968 -0.0329
 8149TIP3    H224412   0.196   0.829   3.440  1.4040  1.8392  0.0331
 8150TIP3   OH224413   1.695   2.335   3.310 -1.0838  0.3789  0.3083
 8150TIP3    H124414   1.695   2.323   3.405 -0.6954 -1.3099  0.1255
 8150TIP3    H224415   1.615   2.292   3.281 -1.8513  1.9618 -0.0532
 8151TIP3   OH224416   3.466   2.192   5.354 -0.3811 -0.5166 -0.0240
 8151TIP3    H124417   3.438   2.205   5.263  1.8410 -0.3425 -0.7386
 8151TIP3    H224418   3.407   2.247   5.405 -2.3343 -1.3875 -1.2103
 8152TIP3   OH224419   5.731   0.059   4.967 -0.1354  0.2344  0.4775
 8152TIP3    H124420   5.809   0.099   4.929  0.1485 -0.1862  0.6177
 8152TIP3    H224421   5.695   0.129   5.023  0.5542  0.1958  0.9953
 8153TIP3   OH224422   6.331   0.024   1.996  0.3077  0.5203  0.1729
 8153TIP3    H124423   6.368   0.111   2.013 -1.6080  1.4288 -0.0716
 8153TIP3    H224424   6.326   0.019   1.900  1.0974 -0.1966  0.1529
 8154TIP3   OH224425   1.246   0.578   4.360 -0.0700 -0.3269  0.0897
 8154TIP3    H124426   1.321   0.538   4.404 -0.0857 -0.4275  0.0262
 8154TIP3    H224427   1.284   0.631   4.290 -0.0585 -0.3945  0.0442
 8155TIP3   OH224428   0.775   3.512   1.214 -0.4315  0.3154 -1.0546
 8155TIP3    H124429   0.789   3.518   1.120  0.3116 -0.5718 -1.0114
 8155TIP3    H224430   0.839   3.447   1.244 -0.0221  1.2520  0.1962
 8156TIP3   OH224431   0.161   5.515   0.582 -0.6294  0.1592  0.1895
 8156TIP3    H124432   0.190   5.560   0.503 -0.5517 -0.7982 -0.3362
 8156TIP3    H224433   0.084   5.564   0.610 -0.7123  0.4558 -0.5283
 8157TIP3   OH224434   1.392   4.836  -0.022  0.1344  0.2166  0.6380
 8157TIP3    H124435   1.448   4.906   0.013 -0.3412  1.6793 -1.3509
 8157TIP3    H224436   1.402   4.764   0.040  1.1137  1.8326  2.4585
 8158TIP3   OH224437   1.177   1.144   5.008 -0.5480  0.1682  0.5287
 8158TIP3    H124438   1.130   1.101   4.936 -0.1895 -0.1661  0.4863
 8158TIP3    H224439   1.127   1.223   5.026  0.0499  0.9463 -0.9700
 8159TIP3   OH224440   5.626   5.848   3.369  0.3885  0.1719  0.0926
 8159TIP3    H124441   5.580   5.807   3.296 -0.0795  2.2986 -0.8744
 8159TIP3    H224442   5.719   5.834   3.350  0.2900  1.1085 -1.1924
 8160TIP3   OH224443   1.906   2.651   2.524 -0.0831 -0.5354 -0.2221
 8160TIP3    H124444   1.986   2.702   2.537 -0.8296  0.3762  1.0061
 8160TIP3    H224445   1.867   2.688   2.444  0.1157 -0.1396 -0.1408
 8161TIP3   OH224446   6.407   3.700   0.954 -0.1587  0.1113 -0.1256
 8161TIP3    H124447   6.458   3.690   0.873 -1.8802 -1.1683 -1.1248
 8161TIP3    H224448   6.364   3.785   0.945 -0.8414 -0.3001 -0.8909
 8162TIP3   OH224449   2.009   2.262   1.841 -0.4593  0.2463  0.3503
 8162TIP3    H124450   1.989   2.351   1.811 -2.2579 -1.1755 -3.2575
 8162TIP3    H224451   2.101   2.248   1.817 -0.2271  1.0507  0.7572
 8163TIP3   OH224452   6.972   4.847   4.590  0.5137 -0.1269  0.2519
 8163TIP3    H124453   6.940   4.836   4.501  0.7058 -2.4956  0.4071
 8163TIP3    H224454   6.988   4.941   4.599  0.9741  0.1040 -2.3712
 8164TIP3   OH224455   0.318   4.440   4.032 -0.3977  0.0112  0.0696
 8164TIP3    H124456   0.234   4.396   4.024 -0.2700 -0.2684  0.2456
 8164TIP3    H224457   0.313   4.488   4.115 -0.3281 -0.1286  0.1550
 8165TIP3   OH224458   0.621   1.185   2.072 -0.3773 -0.6280  0.0709
 8165TIP3    H124459   0.693   1.123   2.060 -0.1792 -0.6662  1.3551
 8165TIP3    H224460   0.557   1.138   2.125 -0.4066  0.1005  0.7058
 8166TIP3   OH224461   6.786   5.311   1.744  0.2046 -0.3447  1.0654
 8166TIP3    H124462   6.850   5.316   1.815  0.8214  1.6291  0.4503
 8166TIP3    H224463   6.838   5.310   1.664 -0.3417 -5.3875  0.4947
 8167TIP3   OH224464   5.074   5.424   2.952  0.2916 -0.6577  0.2307
 8167TIP3    H124465   5.038   5.492   2.895  1.4864 -0.6039 -0.4890
 8167TIP3    H224466   5.036   5.443   3.038  0.4029  0.7780 -0.0093
 8168TIP3   OH224467   4.667   5.373   4.870 -0.4951  0.2857  0.3663
 8168TIP3    H124468   4.600   5.349   4.934 -0.2999  1.8467  1.2091
 8168TIP3    H224469   4.618   5.409   4.796 -0.7779 -2.3015 -0.8220
 8169TIP3   OH224470   4.841   4.779   4.726 -0.0632  0.4404 -0.2291
 8169TIP3    H124471   4.890   4.750   4.649 -1.1698 -0.0525 -0.7730
 8169TIP3    H224472   4.797   4.859   4.697  0.7271  1.1165  0.3860
 8170TIP3   OH224473   3.778   2.546   1.951 -0.3879 -0.3562  0.2054
 8170TIP3    H124474   3.873   2.553   1.950 -0.2740 -1.4783 -1.7109
 8170TIP3    H224475   3.753   2.552   1.859 -2.6000  4.1922  0.8043
 8171TIP3   OH224476   5.912   1.310   4.163  0.7249 -0.2807 -0.1875
 8171TIP3    H124477   5.909   1.346   4.251 -1.1555 -1.0878  0.1205
 8171TIP3    H224478   5.874   1.377   4.107  0.0905 -0.5421 -0.0770
 8172TIP3   OH224479   3.166   3.969   2.937 -0.0605  0.4206  0.4630
 8172TIP3    H124480   3.195   3.955   3.027  1.0765 -0.6247 -0.0389
 8172TIP3    H224481   3.137   3.883   2.907  1.9474  0.1616 -0.9431
 8173TIP3   OH224482   2.158   2.922   4.840 -0.0141 -0.3907  0.4874
 8173TIP3    H124483   2.103   2.999   4.855  1.4784  0.7469  0.3042
 8173TIP3    H224484   2.095   2.851   4.826 -1.4343  0.7422  0.8300
 8174TIP3   OH224485   2.070   3.326   0.324  0.3685 -0.1964  0.2278
 8174TIP3    H124486   2.155   3.336   0.368 -0.1945 -0.2886  1.3699
 8174TIP3    H224487   2.007   3.320   0.396 -0.6138 -0.0725 -0.6129
 8175TIP3   OH224488   6.882   1.862   4.583 -0.0203 -0.0955 -0.4674
 8175TIP3    H124489   6.976   1.875   4.567  0.0138  2.5494  1.3251
 8175TIP3    H224490   6.840   1.941   4.551 -1.6257 -0.9861 -0.6955
 8176TIP3   OH224491   6.355   5.279   1.650 -0.0957  0.7870  0.6362
 8176TIP3    H124492   6.316   5.227   1.719  1.4351 -1.3756 -0.0198
 8176TIP3    H224493   6.410   5.343   1.696 -0.6179  0.6720  1.4355
 8177TIP3   OH224494   6.914   0.061   2.466 -0.0409 -0.4108  0.1019
 8177TIP3    H124495   6.878  -0.002   2.529 -0.9546  1.0012  1.0631
 8177TIP3    H224496   6.977   0.011   2.415  1.2504 -1.4899  2.5837
 8178TIP3   OH224497   4.543   1.609   0.988 -0.0437 -0.2592 -0.5500
 8178TIP3    H124498   4.575   1.566   0.909 -0.3659 -0.3295 -0.6414
 8178TIP3    H224499   4.599   1.686   0.998  0.3630 -0.5541 -0.5325
 8179TIP3   OH224500   6.666   6.253   5.704 -0.0635 -0.1701 -0.0146
 8179TIP3    H124501   6.644   6.267   5.796  0.4157  1.1292 -0.0885
 8179TIP3    H224502   6.749   6.206   5.706  0.7264  1.1903  0.2278
 8180TIP3   OH224503   1.875   6.294   5.805  0.3229 -0.0262  0.0780
 8180TIP3    H124504   1.807   6.227   5.819  0.6506  0.0768  2.7696
 8180TIP3    H224505   1.844   6.344   5.729 -1.1238 -1.7577 -0.5650
 8181TIP3   OH224506   3.270   2.012   4.465  0.3488  0.0242  0.3686
 8181TIP3    H124507   3.271   2.086   4.525  0.9938  0.9517 -0.7561
 8181TIP3    H224508   3.217   1.945   4.510  0.2053  0.9551  1.6233
 8182TIP3   OH224509   4.010   6.350   5.775 -0.2136  0.2905 -0.2678
 8182TIP3    H124510   4.046   6.261   5.770 -0.0105  0.4419 -2.5111
 8182TIP3    H224511   4.085   6.405   5.796  0.2645  0.2191 -1.6599
 8183TIP3   OH224512   1.899   3.064   4.223  0.0491 -0.2206  0.0310
 8183TIP3    H124513   1.849   2.986   4.246 -0.9301  0.3786 -0.0378
 8183TIP3    H224514   1.989   3.032   4.215 -0.0854 -1.0726  1.4418
 8184TIP3   OH224515   2.351   0.662   3.918 -0.7723 -0.1942 -0.3529
 8184TIP3    H124516   2.441   0.681   3.942 -0.9741  0.5295 -0.1287
 8184TIP3    H224517   2.299   0.695   3.991 -1.3346  1.2369 -1.3352
 8185TIP3   OH224518   5.495   0.280   1.243 -0.1223 -0.6237 -0.5828
 8185TIP3    H124519   5.440   0.245   1.173 -2.3624 -0.0789  0.7641
 8185TIP3    H224520   5.522   0.366   1.212 -2.1035  0.1302 -0.3770
 8186TIP3   OH224521   7.113   3.117   1.977  0.9085 -0.1297 -0.1359
 8186TIP3    H124522   7.114   3.071   2.061 -1.4636  2.6326  1.6586
 8186TIP3    H224523   7.181   3.183   1.985 -0.3103  1.1261  0.3596
 8187TIP3   OH224524   4.701   2.177   5.061 -0.1519  0.6879 -0.4061
 8187TIP3    H124525   4.670   2.229   4.987  3.5087  0.2912 -2.4401
 8187TIP3    H224526   4.727   2.093   5.022  1.3849  0.2694  1.3849
 8188TIP3   OH224527   7.121   6.083   2.718  0.5837 -0.3000  0.1313
 8188TIP3    H124528   7.193   6.036   2.676  0.2157  0.1940 -1.1131
 8188TIP3    H224529   7.159   6.117   2.799  1.2850 -1.3955  0.2892
 8189TIP3   OH224530   4.318   6.521   1.178  0.1283 -0.1092  0.0103
 8189TIP3    H124531   4.342   6.438   1.135 -1.2404  0.5033 -2.0980
 8189TIP3    H224532   4.254   6.496   1.244 -0.1523 -0.7602 -0.4930
 8190TIP3   OH224533   6.542   5.462   1.735 -0.4514 -0.2099 -0.1449
 8190TIP3    H124534   6.610   5.395   1.737 -0.4776 -0.2276  1.4752
 8190TIP3    H224535   6.589   5.545   1.749 -0.6555 -0.1229  0.0361
 8191TIP3   OH224536   2.158   1.825   2.918 -0.2504 -0.3099 -0.1935
 8191TIP3    H124537   2.092   1.805   2.852 -1.5500  0.9012  0.6932
 8191TIP3    H224538   2.179   1.918   2.904 -0.4046 -0.0861  0.9541
 8192TIP3   OH224539   1.121   2.843   4.809  0.3550 -0.6291  0.4949
 8192TIP3    H124540   1.048   2.806   4.860  0.1629  1.3980  1.7970
 8192TIP3    H224541   1.113   2.802   4.723 -0.4156 -2.8152  1.5354
 8193TIP3   OH224542   6.063   4.343   2.593  0.0761 -0.2966 -0.0364
 8193TIP3    H124543   6.051   4.353   2.499  2.9822  0.2237 -0.4387
 8193TIP3    H224544   6.130   4.275   2.602  0.6314  0.4115  1.5961
 8194TIP3   OH224545   4.993   5.248   3.252 -0.2535  0.3271 -0.2016
 8194TIP3    H124546   4.954   5.316   3.307 -0.3604  0.2003 -0.1208
 8194TIP3    H224547   4.920   5.216   3.198 -0.5894 -0.8777  0.9198
 8195TIP3   OH224548   6.763   0.907   3.912  0.0487  0.1862  0.1236
 8195TIP3    H124549   6.823   0.909   3.838  1.4341  0.6592  1.2305
 8195TIP3    H224550   6.819   0.915   3.989 -1.3024 -0.8279  1.2617
 8196TIP3   OH224551   5.136   5.724   1.319 -0.5436  0.1414 -0.0110
 8196TIP3    H124552   5.089   5.681   1.247 -0.7238  3.1529 -1.8572
 8196TIP3    H224553   5.211   5.765   1.277  1.1021 -0.5069  2.1142
 8197TIP3   OH224554   1.372   0.369   3.504 -0.0410 -0.2667 -0.4220
 8197TIP3    H124555   1.459   0.352   3.468  0.0228  0.0457 -0.4191
 8197TIP3    H224556   1.320   0.292   3.480  0.3882 -0.7162  0.0689
 8198TIP3   OH224557   3.124   1.221   0.954 -0.1366  0.0031 -0.0900
 8198TIP3    H124558   3.040   1.197   0.914  0.0802  0.6237 -0.9353
 8198TIP3    H224559   3.183   1.150   0.929  0.1786  0.7349 -1.4974
 8199TIP3   OH224560   4.029   3.182   1.081 -0.0759 -0.3289  0.1271
 8199TIP3    H124561   4.034   3.108   1.142 -0.0040 -0.4753 -0.0579
 8199TIP3    H224562   4.047   3.144   0.995 -0.8748 -0.2400 -0.0830
 8200TIP3   OH224563   5.743   3.971   5.088  0.3367 -0.2581 -0.3782
 8200TIP3    H124564   5.829   3.988   5.125  0.3221 -0.9575 -0.0005
 8200TIP3    H224565   5.682   3.988   5.160  0.2157 -0.4069 -0.4440
 8201TIP3   OH224566   7.152   6.686   1.873 -0.3033 -0.3055  0.1823
 8201TIP3    H124567   7.235   6.655   1.908  0.5987 -1.0766 -2.4227
 8201TIP3    H224568   7.092   6.612   1.882  0.0204 -0.6170 -0.2245
 8202TIP3   OH224569   5.118   3.423   0.408  0.1214 -0.1683  0.0232
 8202TIP3    H124570   5.172   3.491   0.368  0.1061 -0.4901 -0.5642
 8202TIP3    H224571   5.143   3.422   0.500  0.4338  0.3318 -0.0560
 8203TIP3   OH224572   2.596   1.949   5.788 -0.2617 -0.3576 -0.4987
 8203TIP3    H124573   2.635   2.035   5.800  1.2096 -1.1659  0.7462
 8203TIP3    H224574   2.572   1.947   5.695  0.0541  1.2308 -0.6391
 8204TIP3   OH224575   2.830   3.049   2.814 -0.4152 -0.0502 -0.1675
 8204TIP3    H124576   2.816   3.133   2.857 -1.5348  0.1111 -0.8028
 8204TIP3    H224577   2.837   2.986   2.886 -0.3096  0.4809  0.2918
 8205TIP3   OH224578   2.721   4.831   4.544  0.7930 -0.0202 -0.4864
 8205TIP3    H124579   2.801   4.790   4.575 -0.4028 -2.6877 -0.6600
 8205TIP3    H224580   2.670   4.847   4.623  0.8957  0.3318 -0.4901
 8206TIP3   OH224581   6.193   1.060   4.603 -0.0964 -0.1096  0.2042
 8206TIP3    H124582   6.112   1.095   4.567  0.3504 -0.5304 -1.2919
 8206TIP3    H224583   6.184   0.965   4.595  1.7700 -0.1636 -3.0657
 8207TIP3   OH224584   3.278   6.464   0.672 -0.0609  0.3517 -0.6108
 8207TIP3    H124585   3.322   6.506   0.746  0.6014 -0.2506 -0.6441
 8207TIP3    H224586   3.334   6.483   0.596 -0.0134 -0.1505 -0.7094
 8208TIP3   OH224587   0.041   5.875   1.778 -1.1927 -0.2377 -0.6017
 8208TIP3    H124588   0.132   5.848   1.769 -1.3954 -0.4528 -2.2223
 8208TIP3    H224589   0.042   5.970   1.765 -1.1447 -0.1529 -0.0304
 8209TIP3   OH224590   1.643   3.325   3.134  0.1545  0.2019 -0.2449
 8209TIP3    H124591   1.632   3.420   3.148 -0.1752  0.2236 -0.6204
 8209TIP3    H224592   1.620   3.286   3.218 -0.6458  0.4010 -0.3585
 8210TIP3   OH224593   1.255   0.039   5.510  0.4440 -0.5998 -0.4604
 8210TIP3    H124594   1.291  -0.002   5.431 -0.4716 -0.7850 -0.8007
 8210TIP3    H224595   1.286   0.129   5.507  0.1036 -0.4982 -1.2541
 8211TIP3   OH224596   5.982   5.219   1.003 -0.7069  0.5358 -0.0884
 8211TIP3    H124597   6.054   5.267   0.961  0.0845  1.2984  2.0099
 8211TIP3    H224598   5.905   5.273   0.987 -0.8581 -0.2052 -2.2205
 8212TIP3   OH224599   0.448   3.999   3.356  0.1575 -0.0945 -0.8322
 8212TIP3    H124600   0.426   3.908   3.339 -0.6132 -0.1369  0.3060
 8212TIP3    H224601   0.472   4.001   3.449  1.1275  0.6847 -1.0859
 8213TIP3   OH224602   3.887   4.388   1.076 -0.4450  0.1906  0.3409
 8213TIP3    H124603   3.837   4.416   1.152 -0.3851  0.1009  0.4139
 8213TIP3    H224604   3.836   4.316   1.039 -0.1825 -0.1434  0.6292
 8214TIP3   OH224605   5.349   6.491   1.574 -0.1927  0.3368 -0.5199
 8214TIP3    H124606   5.432   6.536   1.589  0.0022  0.8634 -2.8139
 8214TIP3    H224607   5.374   6.403   1.546 -0.4776 -0.0683  0.4598
 8215TIP3   OH224608   4.928   2.834   0.051 -0.7097  0.0972 -0.3594
 8215TIP3    H124609   4.928   2.828   0.147 -1.8590  1.3206 -0.2572
 8215TIP3    H224610   4.992   2.902   0.031 -2.0753  1.4387 -0.3011
 8216TIP3   OH224611   3.431   6.679   3.007 -0.4309 -0.0414 -0.3875
 8216TIP3    H124612   3.474   6.754   2.966 -3.4807  3.0674  1.5748
 8216TIP3    H224613   3.346   6.674   2.963 -1.1643 -0.8705  1.0576
 8217TIP3   OH224614   1.428   3.091   2.727 -0.1335  0.4173  0.3836
 8217TIP3    H124615   1.360   3.059   2.787 -0.0323 -0.0486  0.2486
 8217TIP3    H224616   1.482   3.015   2.709  0.5313  0.8253  0.6211
 8218TIP3   OH224617   1.160   0.364   5.291  0.2190  0.0904 -0.2879
 8218TIP3    H124618   1.147   0.442   5.344  0.8336 -0.4158  0.6334
 8218TIP3    H224619   1.075   0.348   5.249 -0.2569  0.5289  0.5019
 8219TIP3   OH224620   2.135   1.990   2.453 -0.7219 -0.2255  0.6004
 8219TIP3    H124621   2.103   2.079   2.438  0.2342  0.1148  0.4729
 8219TIP3    H224622   2.066   1.933   2.420 -0.2104  0.4791 -1.8918
 8220TIP3   OH224623   3.292   2.129   2.554  0.2286  0.2959  0.1059
 8220TIP3    H124624   3.269   2.138   2.647  0.6299  1.1035  0.1325
 8220TIP3    H224625   3.315   2.036   2.545 -1.7359 -0.2566  0.3588
 8221TIP3   OH224626   5.538   3.658   0.566  0.1352 -0.0254 -0.1520
 8221TIP3    H124627   5.631   3.639   0.553  0.6097 -1.0868  3.5079
 8221TIP3    H224628   5.496   3.572   0.568 -0.2026  0.1239  1.9428
 8222TIP3   OH224629   1.997   3.226   3.257  0.2391  0.7252 -0.3680
 8222TIP3    H124630   2.060   3.210   3.328 -1.0246 -0.4441  0.5352
 8222TIP3    H224631   1.957   3.310   3.279  1.0502  1.2066 -0.6541
 8223TIP3   OH224632   0.721   6.004   0.596  0.0939 -0.5799 -0.0286
 8223TIP3    H124633   0.672   6.083   0.618  3.4114  1.3321  1.1974
 8223TIP3    H224634   0.657   5.933   0.605 -2.2769  1.6210  2.0878
 8224TIP3   OH224635   0.514   2.351   5.820  0.2007  0.0189 -0.1882
 8224TIP3    H124636   0.570   2.312   5.753  0.0698 -0.8039  0.1631
 8224TIP3    H224637   0.454   2.408   5.772  0.1920 -0.4636 -0.7590
 8225TIP3   OH224638   2.037   0.534   3.767 -0.4150  0.3039  0.0136
 8225TIP3    H124639   2.095   0.581   3.827 -0.3693 -0.2422  0.4122
 8225TIP3    H224640   2.089   0.459   3.738 -1.3250 -0.8873  1.3442
 8226TIP3   OH224641   6.788   5.659   2.775  0.4198  0.1370  0.6289
 8226TIP3    H124642   6.723   5.593   2.800 -0.7256  0.7345 -0.6365
 8226TIP3    H224643   6.872   5.618   2.793 -0.2749 -0.4242  2.9550
 8227TIP3   OH224644   6.794   4.332   3.583  0.2382  0.2723  0.7629
 8227TIP3    H124645   6.828   4.298   3.500 -1.7796  1.0581 -0.4574
 8227TIP3    H224646   6.769   4.254   3.632 -0.9073 -0.1657 -0.4594
 8228TIP3   OH224647   4.436   1.254   4.729 -0.3947 -0.2227 -0.0238
 8228TIP3    H124648   4.393   1.340   4.725 -2.0535 -0.9659  0.8833
 8228TIP3    H224649   4.392   1.202   4.662 -0.6462 -0.8757  0.6326
 8229TIP3   OH224650   6.441   3.680   3.495 -0.7857 -0.3262 -0.2264
 8229TIP3    H124651   6.493   3.601   3.478 -0.6591 -0.5093  0.8999
 8229TIP3    H224652   6.504   3.752   3.488  0.1678 -0.6773  2.9766
 8230TIP3   OH224653   5.902   2.737   0.198 -0.1960  0.1708  0.0695
 8230TIP3    H124654   5.918   2.648   0.228 -0.7281  0.4269  1.1725
 8230TIP3    H224655   5.822   2.764   0.244  0.0046  1.2422 -0.1854
 8231TIP3   OH224656   5.752   3.002   1.421  0.1472  0.1969 -0.3807
 8231TIP3    H124657   5.690   2.930   1.404  0.1529  0.6526 -2.6446
 8231TIP3    H224658   5.808   2.969   1.491 -1.2617 -1.1045  0.1938
 8232TIP3   OH224659   0.518   6.191   1.116  0.4129 -0.4467  0.4990
 8232TIP3    H124660   0.508   6.109   1.165 -0.4266  0.0380  1.1741
 8232TIP3    H224661   0.429   6.215   1.091  0.2008  1.7629  2.8808
 8233TIP3   OH224662   3.660   6.323   2.478  0.3978  0.0572 -0.3420
 8233TIP3    H124663   3.722   6.352   2.545  0.2391  0.6437 -0.4448
 8233TIP3    H224664   3.658   6.228   2.487 -0.6455  0.2028  1.4213
 8234TIP3   OH224665   5.335   5.711   3.505  0.1581  0.2773 -0.0289
 8234TIP3    H124666   5.399   5.775   3.537  0.9655 -0.9979  0.9922
 8234TIP3    H224667   5.363   5.691   3.415  0.1790  0.9734 -0.1836
 8235TIP3   OH224668   6.874   6.500   0.865  0.2071 -0.0412  0.3145
 8235TIP3    H124669   6.945   6.542   0.816  1.1408  0.2028  1.8052
 8235TIP3    H224670   6.918   6.458   0.940 -1.3088  1.0366  1.8804
 8236TIP3   OH224671   0.426   1.270   5.213 -0.1958  0.0726 -0.0526
 8236TIP3    H124672   0.375   1.200   5.171  0.6124  0.4753 -1.7955
 8236TIP3    H224673   0.429   1.245   5.305 -1.5167 -1.1988 -0.3158
 8237TIP3   OH224674   3.739   1.951   0.717 -0.5933 -0.2483  0.2432
 8237TIP3    H124675   3.666   1.990   0.669  2.4196  3.3446 -1.9886
 8237TIP3    H224676   3.744   2.002   0.798 -0.7257 -0.7221  0.5537
 8238TIP3   OH224677   1.878   0.021   4.325  0.0866 -0.3069  0.2600
 8238TIP3    H124678   1.835   0.052   4.245  1.5405 -1.6910 -1.1486
 8238TIP3    H224679   1.818  -0.044   4.361 -0.8108  0.6867  0.5872
 8239TIP3   OH224680   3.915   5.425   4.749  0.1206  0.7710 -0.5440
 8239TIP3    H124681   3.906   5.519   4.762 -1.6249  0.7385 -1.2248
 8239TIP3    H224682   3.848   5.386   4.806  0.2706 -0.0082 -0.8856
 8240TIP3   OH224683   1.811   3.028   5.452  0.1863 -0.4245 -0.0123
 8240TIP3    H124684   1.847   3.006   5.366 -1.1584 -0.7472 -0.5157
 8240TIP3    H224685   1.823   2.948   5.504 -0.6844 -0.8929 -0.4951
 8241TIP3   OH224686   2.492   1.182   5.883 -0.1791  0.3849  0.4139
 8241TIP3    H124687   2.455   1.249   5.825  1.1638  1.0431  0.2665
 8241TIP3    H224688   2.457   1.099   5.850 -2.0120  1.0028  0.7000
 8242TIP3   OH224689   2.851   3.942   4.665  0.3776 -0.0481 -0.1724
 8242TIP3    H124690   2.814   4.029   4.675 -0.6002 -0.4706  0.0070
 8242TIP3    H224691   2.801   3.887   4.726  0.2783 -0.9244 -1.0137
 8243TIP3   OH224692   4.124   4.288   0.252 -0.1238 -0.5143  0.4347
 8243TIP3    H124693   4.055   4.302   0.188 -0.2431 -1.4942  0.3280
 8243TIP3    H224694   4.078   4.268   0.333 -0.0166  2.4217  1.3261
 8244TIP3   OH224695   0.511   4.387   4.524  0.0845 -0.1336 -0.6606
 8244TIP3    H124696   0.580   4.452   4.515 -0.7449  0.9251  0.3180
 8244TIP3    H224697   0.557   4.303   4.529  1.2835  0.5307 -0.2361
 8245TIP3   OH224698   1.260   4.618   3.138 -0.0037  0.8870 -0.2064
 8245TIP3    H124699   1.185   4.639   3.194  1.3061  0.4807  1.8086
 8245TIP3    H224700   1.234   4.539   3.090 -0.5099  0.1375  1.2529
 8246TIP3   OH224701   3.436   3.990   0.152  0.0888 -0.2756 -0.3553
 8246TIP3    H124702   3.364   3.928   0.140  0.1892 -0.6888  1.0002
 8246TIP3    H224703   3.495   3.973   0.079 -0.1594 -1.4012 -0.3153
 8247TIP3   OH224704   6.321   5.914   0.643  0.0033  0.1815 -0.2436
 8247TIP3    H124705   6.301   5.931   0.735 -0.8151  2.3899 -0.7655
 8247TIP3    H224706   6.257   5.847   0.618 -1.0374  0.9135  0.3462
 8248TIP3   OH224707   0.179   5.782   1.255  0.2341 -0.2127  0.5952
 8248TIP3    H124708   0.237   5.754   1.184 -1.0624  0.1072 -0.6249
 8248TIP3    H224709   0.095   5.798   1.213 -1.1354 -1.8685  2.4823
 8249TIP3   OH224710   0.483   6.197   0.591  0.3667 -0.3427 -0.1274
 8249TIP3    H124711   0.536   6.277   0.585  0.3331 -0.2487  0.6514
 8249TIP3    H224712   0.393   6.228   0.596  0.4677 -0.1555  3.5173
 8250TIP3   OH224713   4.153   1.295   1.542 -0.3005  0.5260 -0.5057
 8250TIP3    H124714   4.208   1.274   1.466  0.7162  0.9864  0.0754
 8250TIP3    H224715   4.066   1.309   1.505 -0.0286 -0.1863 -1.4653
 8251TIP3   OH224716   2.325   0.867   1.749 -0.6927 -0.9500  0.9410
 8251TIP3    H124717   2.253   0.929   1.765  1.1425  1.5355  0.1518
 8251TIP3    H224718   2.310   0.836   1.660  1.2569  2.8100 -0.9400
 8252TIP3   OH224719   0.231   1.263   4.072 -0.2035 -0.4494  0.3837
 8252TIP3    H124720   0.264   1.353   4.070 -0.4791 -0.2614  2.2894
 8252TIP3    H224721   0.203   1.246   3.982 -2.2993  2.2248  0.3655
 8253TIP3   OH224722   5.046   5.614   5.598  0.0264  0.4453  0.3151
 8253TIP3    H124723   5.027   5.523   5.623  0.3058  0.6301  1.2483
 8253TIP3    H224724   4.965   5.661   5.613 -0.7102  0.0305 -1.9741
 8254TIP3   OH224725   2.934   4.131   1.842 -0.0652  0.5745  0.1442
 8254TIP3    H124726   2.952   4.083   1.923  0.1517  1.6173  0.7357
 8254TIP3    H224727   2.841   4.114   1.825 -0.4644  1.3943  1.3581
 8255TIP3   OH224728   6.431   5.655   4.456  0.7744 -0.1269 -0.2396
 8255TIP3    H124729   6.344   5.668   4.418  0.6308 -1.4743 -0.4245
 8255TIP3    H224730   6.488   5.641   4.380  0.8838 -0.7039 -0.0499
 8256TIP3   OH224731   2.264   5.961   0.250 -0.0979 -0.2796 -0.1333
 8256TIP3    H124732   2.322   6.036   0.233 -0.3936 -0.1156 -0.4245
 8256TIP3    H224733   2.256   5.917   0.166  0.6655 -1.0708  0.1958
 8257TIP3   OH224734   5.824   1.255   0.383 -0.8203 -0.3353 -0.1419
 8257TIP3    H124735   5.729   1.260   0.388 -0.8115 -0.8483  2.6045
 8257TIP3    H224736   5.842   1.161   0.386 -0.2805 -0.2458  2.4785
 8258TIP3   OH224737   3.045   0.330   2.087  0.2250  0.7296 -0.8150
 8258TIP3    H124738   3.129   0.287   2.072 -0.0001  0.4878 -1.4114
 8258TIP3    H224739   3.032   0.324   2.182  1.6266  2.1871 -0.4834
 8259TIP3   OH224740   1.785   4.894   2.134 -0.0275  1.0700  0.5846
 8259TIP3    H124741   1.861   4.851   2.172 -0.8500 -1.3116 -0.2359
 8259TIP3    H224742   1.715   4.880   2.198 -1.4677 -3.1167 -1.4775
 8260TIP3   OH224743   1.906   3.628   2.974  0.1095  0.3660  0.5726
 8260TIP3    H124744   1.884   3.584   3.055 -0.7069  0.1850  0.2577
 8260TIP3    H224745   1.904   3.722   2.996  1.0046  0.2857  1.0290
 8261TIP3   OH224746   3.343   2.303   3.809  0.1573  0.1986  0.4296
 8261TIP3    H124747   3.296   2.361   3.870 -2.9952 -0.5046 -1.1101
 8261TIP3    H224748   3.320   2.215   3.837  0.1544 -0.1609 -0.6482
 8262TIP3   OH224749   5.345   5.556   0.156  0.6756 -0.6010 -0.1776
 8262TIP3    H124750   5.387   5.507   0.085  0.1130 -0.8884 -0.3208
 8262TIP3    H224751   5.382   5.644   0.150 -0.2155 -0.2915 -1.5764
 8263TIP3   OH224752   3.029   2.161   5.490 -0.1494 -0.1372  0.6977
 8263TIP3    H124753   3.016   2.244   5.536  1.3702  0.6033 -0.1564
 8263TIP3    H224754   3.031   2.095   5.560 -1.4843  0.4957  1.3784
 8264TIP3   OH224755   2.968   6.205   4.917 -0.2620  0.6348  0.3974
 8264TIP3    H124756   2.915   6.178   4.842  0.5802  0.8171 -0.2821
 8264TIP3    H224757   2.941   6.147   4.988 -0.7438  0.1493 -0.1767
 8265TIP3   OH224758   1.125   2.443   4.117 -0.1628 -0.1798 -0.2124
 8265TIP3    H124759   1.070   2.401   4.051 -1.1703 -1.6825  1.4794
 8265TIP3    H224760   1.062   2.481   4.180  0.5338 -3.0624  2.4748
 8266TIP3   OH224761   6.163   5.032   3.292 -0.0394 -0.0969 -0.3387
 8266TIP3    H124762   6.093   5.000   3.236  0.2874  0.5923 -1.1597
 8266TIP3    H224763   6.138   5.004   3.380 -0.8955 -0.6155 -0.7354
 8267TIP3   OH224764   0.642   2.641   5.715  0.3764  0.1956  0.0907
 8267TIP3    H124765   0.709   2.581   5.680  0.6633 -0.6508  1.9748
 8267TIP3    H224766   0.560   2.604   5.683  0.7039  0.9064 -1.7496
 8268TIP3   OH224767   5.746   3.587   0.317  0.0229  0.3281 -0.3331
 8268TIP3    H124768   5.778   3.540   0.395  0.7640  1.8999  0.3694
 8268TIP3    H224769   5.661   3.548   0.299  0.4097 -0.9772  0.4620
 8269TIP3   OH224770   3.704   5.373   3.252  0.2255 -0.3090 -0.1606
 8269TIP3    H124771   3.628   5.431   3.246  0.4672 -0.0690 -1.3757
 8269TIP3    H224772   3.728   5.373   3.344 -1.6431 -0.9210  0.3456
 8270TIP3   OH224773   5.460   0.330   2.119 -0.3721  0.1582 -0.2537
 8270TIP3    H124774   5.545   0.352   2.081 -0.1282 -0.1659  0.1033
 8270TIP3    H224775   5.479   0.263   2.185 -1.1316 -1.4279 -1.5554
 8271TIP3   OH224776   6.983   1.857   2.792 -0.2617 -0.5210 -0.3035
 8271TIP3    H124777   6.979   1.952   2.803  2.3291 -0.0943 -2.1004
 8271TIP3    H224778   6.893   1.827   2.806 -1.0199  2.0800  1.0157
 8272TIP3   OH224779   5.591   1.729   5.776 -0.1538  0.0417 -0.3672
 8272TIP3    H124780   5.660   1.777   5.822 -0.7120  0.3809  0.1422
 8272TIP3    H224781   5.622   1.639   5.772 -0.7816 -0.3531  2.1392
 8273TIP3   OH224782   2.811   3.974   0.065  0.0126  0.0421 -0.5866
 8273TIP3    H124783   2.724   3.989   0.101  0.1534 -0.4880 -0.0091
 8273TIP3    H224784   2.866   4.040   0.107  0.2828 -0.9144  0.6037
 8274TIP3   OH224785   7.044   3.807   4.351 -0.4963  0.0216  0.8108
 8274TIP3    H124786   7.056   3.799   4.257  0.4796  0.5158  0.8801
 8274TIP3    H224787   7.071   3.721   4.386 -1.1617 -0.2699  0.6265
 8275TIP3   OH224788   1.896   5.116   0.861 -0.4220 -0.3342 -0.0712
 8275TIP3    H124789   1.928   5.155   0.943 -0.0339 -1.3073  0.2572
 8275TIP3    H224790   1.975   5.105   0.808 -0.6001 -0.1806 -0.3658
 8276TIP3   OH224791   2.436   6.477   2.840  0.3249  0.6868  0.2608
 8276TIP3    H124792   2.358   6.449   2.793 -0.5267 -0.6696  2.3618
 8276TIP3    H224793   2.419   6.569   2.863 -0.1253  0.7496 -0.3140
 8277TIP3   OH224794   1.675   0.925   5.342 -0.1580  0.6095 -0.4701
 8277TIP3    H124795   1.584   0.915   5.369  0.0634  2.0493  0.9605
 8277TIP3    H224796   1.670   0.939   5.247 -1.3918  0.2738 -0.4674
 8278TIP3   OH224797   4.439   4.360   3.629  0.0900 -0.1544 -1.1415
 8278TIP3    H124798   4.498   4.289   3.655  1.8955  1.6663  0.0380
 8278TIP3    H224799   4.351   4.323   3.640  0.9486 -2.1068 -0.2811
 8279TIP3   OH224800   1.541   2.020   3.326  0.6652 -0.2102  0.0166
 8279TIP3    H124801   1.631   2.013   3.296  0.4214  1.1928 -1.1872
 8279TIP3    H224802   1.543   2.090   3.392 -0.0020  2.3750 -2.4970
 8280TIP3   OH224803   4.186   0.994   5.388  0.0948 -0.2048  0.6035
 8280TIP3    H124804   4.269   0.962   5.352  0.5884 -0.4728  1.9580
 8280TIP3    H224805   4.146   0.918   5.430 -0.1386  0.2671  1.2536
 8281TIP3   OH224806   2.606   0.033   4.952  0.5454 -0.0082  0.4908
 8281TIP3    H124807   2.583  -0.010   5.035  0.4653 -0.3888  0.2761
 8281TIP3    H224808   2.701   0.021   4.944  0.4915 -0.3548  0.3219
 8282TIP3   OH224809   2.938   0.409   4.202  0.1785 -0.1149 -0.1933
 8282TIP3    H124810   2.852   0.400   4.159  0.2940  1.0806 -0.7177
 8282TIP3    H224811   2.966   0.319   4.217 -0.2259 -0.5859 -1.9513
 8283TIP3   OH224812   5.897   2.859   4.158 -0.1927 -0.1989  0.4229
 8283TIP3    H124813   5.819   2.912   4.145  0.4598  0.6913  0.0527
 8283TIP3    H224814   5.922   2.831   4.070  0.0938 -0.2088  0.5066
 8284TIP3   OH224815   6.656   4.104   0.390 -0.3200 -0.3091  0.0328
 8284TIP3    H124816   6.750   4.087   0.402 -0.7432 -2.2645  0.9546
 8284TIP3    H224817   6.649   4.134   0.299  1.0388 -1.6265 -0.5618
 8285TIP3   OH224818   4.034   6.184   2.085  0.6450 -0.0345 -0.7800
 8285TIP3    H124819   3.978   6.203   2.161 -0.2713  1.1616 -1.7105
 8285TIP3    H224820   4.112   6.238   2.100  0.6664 -0.1495 -0.4647
 8286TIP3   OH224821   0.942   3.096   1.247  0.2182 -0.5718  0.0934
 8286TIP3    H124822   0.923   3.025   1.309 -2.1330  0.0754  0.2051
 8286TIP3    H224823   0.959   3.050   1.164  1.0896 -1.3521  0.6906
 8287TIP3   OH224824   1.160   4.264   4.904 -0.0520  0.7593 -0.0252
 8287TIP3    H124825   1.124   4.316   4.832  1.7025 -0.6598 -2.1108
 8287TIP3    H224826   1.254   4.282   4.901  0.4055 -1.3225  0.1214
 8288TIP3   OH224827   6.168   0.499   0.917 -0.1481  0.0500  0.1117
 8288TIP3    H124828   6.159   0.591   0.892 -1.5947  0.1009  0.7215
 8288TIP3    H224829   6.080   0.464   0.910  0.3930 -1.3060 -0.1236
 8289TIP3   OH224830   1.375   4.761   0.484  0.6585 -0.1842 -0.4861
 8289TIP3    H124831   1.334   4.694   0.430 -0.7717  1.3211 -1.3524
 8289TIP3    H224832   1.449   4.716   0.526  0.0209 -2.1580 -1.3609
 8290TIP3   OH224833   0.249   3.561   4.752  0.4323 -0.2583 -0.0371
 8290TIP3    H124834   0.312   3.616   4.705  0.2286  0.7142  0.7983
 8290TIP3    H224835   0.165   3.606   4.742  0.1607 -0.6952  0.2224
 8291TIP3   OH224836   5.293   6.640   2.667 -0.0213 -0.6112 -0.5174
 8291TIP3    H124837   5.213   6.590   2.684 -0.1561 -0.8339 -1.6904
 8291TIP3    H224838   5.312   6.685   2.750 -1.6378 -0.1610 -0.3585
 8292TIP3   OH224839   0.281   4.383   1.872  0.7705  0.0017 -0.0719
 8292TIP3    H124840   0.319   4.446   1.934 -0.1147 -0.3049  0.8054
 8292TIP3    H224841   0.322   4.300   1.896 -0.9736 -0.4950  1.4277
 8293TIP3   OH224842   2.259   4.025   1.195 -0.1272 -0.1970  0.9361
 8293TIP3    H124843   2.254   3.995   1.286 -1.3207 -0.6674  0.7325
 8293TIP3    H224844   2.196   4.096   1.190 -0.5393 -0.5942  0.3327
 8294TIP3   OH224845   3.760   3.462   3.686  0.6059  0.1688  0.0091
 8294TIP3    H124846   3.769   3.545   3.732  2.2706 -0.8263  1.6116
 8294TIP3    H224847   3.808   3.475   3.604 -1.2393  1.5134 -0.9533
 8295TIP3   OH224848   4.824   3.809   5.391  0.2589  0.0171 -0.4892
 8295TIP3    H124849   4.851   3.779   5.304  0.7831 -1.0284  0.0103
 8295TIP3    H224850   4.784   3.732   5.432 -0.3108  0.5959  0.0717
 8296TIP3   OH224851   2.441   1.146   1.103 -0.0390  0.1712 -0.3347
 8296TIP3    H124852   2.479   1.058   1.096 -2.5228 -1.0220  0.0107
 8296TIP3    H224853   2.492   1.200   1.043  1.2185 -1.6328 -0.9526
 8297TIP3   OH224854   0.188   1.289   1.210  0.1284  0.2657  0.6127
 8297TIP3    H124855   0.110   1.327   1.250 -1.0240  1.0802 -2.2153
 8297TIP3    H224856   0.155   1.217   1.157  1.4609 -0.1173  0.2643
 8298TIP3   OH224857   3.032   5.491   1.511 -0.6231 -0.0197  0.2982
 8298TIP3    H124858   3.001   5.549   1.581 -2.7447 -0.2248 -0.4214
 8298TIP3    H224859   3.083   5.424   1.557  0.1382  1.2258  1.3547
 8299TIP3   OH224860   3.699   2.187   0.509 -0.3692 -0.3300 -0.3999
 8299TIP3    H124861   3.773   2.181   0.569 -0.0246 -0.3758 -0.8343
 8299TIP3    H224862   3.726   2.250   0.443 -0.4921 -0.7877 -0.8884
 8300TIP3   OH224863   7.124   3.394   0.795 -0.6605 -0.9305 -0.6476
 8300TIP3    H124864   7.135   3.475   0.845  0.1259 -1.7027  0.4673
 8300TIP3    H224865   7.157   3.415   0.708 -0.0172 -0.1906 -0.2371
 8301TIP3   OH224866   4.869   3.198   2.585 -0.5428  0.4347  0.3244
 8301TIP3    H124867   4.849   3.106   2.567 -3.5878  0.7841  1.2569
 8301TIP3    H224868   4.786   3.234   2.615  0.4633  3.6115 -0.3903
 8302TIP3   OH224869   2.755   4.643   3.719 -0.2872 -0.3066 -0.1677
 8302TIP3    H124870   2.807   4.583   3.772 -1.3217 -0.3638  0.8234
 8302TIP3    H224871   2.759   4.606   3.631 -1.7482 -2.4799  0.5850
 8303TIP3   OH224872   6.786   2.470   5.750  0.2396 -0.4754  0.2901
 8303TIP3    H124873   6.802   2.409   5.678 -0.4323 -0.4488  0.1103
 8303TIP3    H224874   6.691   2.481   5.752  0.3760  1.1080 -0.1534
 8304TIP3   OH224875   1.517   4.638   5.532  0.2924 -0.1894  0.3993
 8304TIP3    H124876   1.464   4.570   5.490 -0.1324 -0.1089  0.7937
 8304TIP3    H224877   1.605   4.626   5.496 -0.4252  1.0696 -1.9593
 8305TIP3   OH224878   0.490   0.232   1.620 -0.4796  0.3674 -0.1238
 8305TIP3    H124879   0.538   0.315   1.624 -1.2899  0.8611 -0.4893
 8305TIP3    H224880   0.431   0.235   1.695  0.1432 -0.3025  0.4060
 8306TIP3   OH224881   1.501   2.463   5.222 -0.5220 -0.1776 -0.3661
 8306TIP3    H124882   1.541   2.535   5.271  1.1433 -3.7886  4.4033
 8306TIP3    H224883   1.409   2.464   5.249 -1.6130  2.2926 -3.5772
 8307TIP3   OH224884   2.928   6.398   5.625  0.3408 -0.2722 -0.1665
 8307TIP3    H124885   2.969   6.461   5.564 -0.3760  0.2840 -0.0867
 8307TIP3    H224886   2.834   6.414   5.616  0.2452  1.0270  2.3194
 8308TIP3   OH224887   5.808   4.502   0.770  0.3860 -0.1251  0.3107
 8308TIP3    H124888   5.808   4.576   0.831  0.6152  1.2426 -1.2793
 8308TIP3    H224889   5.749   4.438   0.810  0.1690  0.9054  1.7268
 8309TIP3   OH224890   5.087   4.487   3.505 -0.1934 -0.0774  0.0702
 8309TIP3    H124891   4.996   4.500   3.530  0.4029 -1.2109  3.3802
 8309TIP3    H224892   5.085   4.473   3.411 -3.4771 -0.4370  0.1019
 8310TIP3   OH224893   2.642   4.366   0.998  0.0874  0.5024  0.1109
 8310TIP3    H124894   2.621   4.308   0.925  2.6381 -0.4686  0.0457
 8310TIP3    H224895   2.681   4.443   0.957 -0.3011  0.8302  0.3559
 8311TIP3   OH224896   2.725   5.881   5.258 -0.0391  0.2202  0.3535
 8311TIP3    H124897   2.645   5.829   5.250 -0.7306  1.2487  0.4929
 8311TIP3    H224898   2.777   5.835   5.324 -0.4440 -0.5287  0.1613
 8312TIP3   OH224899   2.792   0.319   5.119  0.3847  0.4018  0.6806
 8312TIP3    H124900   2.768   0.401   5.075  1.2952  0.4064  0.1677
 8312TIP3    H224901   2.858   0.280   5.062 -2.2624 -2.3139 -0.8110
 8313TIP3   OH224902   4.235   2.223   5.367  0.1272  0.1430  0.5152
 8313TIP3    H124903   4.312   2.258   5.322 -1.0820  0.2911 -1.6121
 8313TIP3    H224904   4.199   2.299   5.414  0.5877  0.3745  0.5031
 8314TIP3   OH224905   6.551   0.317   0.756 -0.1151 -0.0100 -0.0433
 8314TIP3    H124906   6.577   0.380   0.823 -1.6023  0.7778 -0.1810
 8314TIP3    H224907   6.462   0.341   0.732  1.0174  1.1721 -3.9220
 8315TIP3   OH224908   1.779   0.302   5.448 -0.2134 -0.0980 -0.2188
 8315TIP3    H124909   1.768   0.351   5.529 -1.2541  0.1436 -0.4892
 8315TIP3    H224910   1.872   0.309   5.428 -0.6167  4.0755 -1.6579
 8316TIP3   OH224911   2.441   4.870   0.224  0.5337 -0.4971  0.0128
 8316TIP3    H124912   2.479   4.945   0.178  1.6344 -1.7516 -1.2390
 8316TIP3    H224913   2.355   4.900   0.253  0.9535  1.2393 -0.4507
 8317TIP3   OH224914   0.983   3.722   4.287 -0.2857 -0.3481 -0.6367
 8317TIP3    H124915   1.013   3.808   4.260  0.4592  0.6627  2.8905
 8317TIP3    H224916   1.040   3.661   4.241  0.5861  1.1440 -1.5956
 8318TIP3   OH224917  -0.000   3.673   0.853 -0.3231 -0.3202 -0.1356
 8318TIP3    H124918   0.094   3.671   0.869 -0.2193  4.1847  1.2811
 8318TIP3    H224919  -0.009   3.719   0.770 -1.2895 -1.0693 -0.4605
 8319TIP3   OH224920   5.847   2.906   5.416 -0.8769  0.6909  0.2475
 8319TIP3    H124921   5.801   2.970   5.362 -2.6662 -0.7434 -0.0353
 8319TIP3    H224922   5.860   2.949   5.500 -1.2607  1.7044 -0.2041
 8320TIP3   OH224923   2.828   6.641   1.222  0.0667 -0.1779  0.5307
 8320TIP3    H124924   2.776   6.570   1.185  0.8531 -0.7600  0.5340
 8320TIP3    H224925   2.772   6.718   1.214 -0.9586 -0.8656  0.9053
 8321TIP3   OH224926   1.117   2.499   0.200  0.3113  0.2227  0.0888
 8321TIP3    H124927   1.090   2.430   0.259  1.8823 -0.0237  0.5790
 8321TIP3    H224928   1.041   2.514   0.143 -0.6261 -0.7212  1.0509
 8322TIP3   OH224929   6.977   6.744   1.059  0.5289  0.3824  0.1583
 8322TIP3    H124930   6.887   6.777   1.056 -0.0506 -1.0754  0.1353
 8322TIP3    H224931   6.995   6.717   0.968 -0.7589 -3.4887  0.8628
 8323TIP3   OH224932   2.324   0.472   1.669 -0.0055 -0.7915 -0.2703
 8323TIP3    H124933   2.242   0.507   1.704  0.8051  0.9361  0.0214
 8323TIP3    H224934   2.381   0.464   1.745  0.5808 -0.4949 -0.6654
 8324TIP3   OH224935   5.120   5.319   3.579  0.0232 -1.1315 -0.1958
 8324TIP3    H124936   5.119   5.392   3.517  0.3466 -0.2314  0.8116
 8324TIP3    H224937   5.100   5.360   3.664  1.5461 -1.9806  0.6169
 8325TIP3   OH224938   2.772   1.138   2.151  0.0820  0.4667  0.1823
 8325TIP3    H124939   2.696   1.097   2.190  2.1915 -1.4496  2.6306
 8325TIP3    H224940   2.823   1.171   2.225  2.6093 -0.1659 -1.1400
 8326TIP3   OH224941   6.178   0.700   2.635 -0.0985 -0.3345  0.0817
 8326TIP3    H124942   6.115   0.719   2.705 -1.2409 -0.5751 -0.8628
 8326TIP3    H224943   6.148   0.752   2.560  0.5526 -0.8207 -0.5299
 8327TIP3   OH224944   3.885   6.420   2.984  1.1012  0.0652 -0.4301
 8327TIP3    H124945   3.868   6.337   3.029 -1.2437 -0.9207 -2.8823
 8327TIP3    H224946   3.798   6.455   2.965  1.9719  1.1124 -2.8553
 8328TIP3   OH224947   5.414   1.012   4.629  0.2671 -0.3253  0.0717
 8328TIP3    H124948   5.454   1.095   4.655 -1.6451  1.2125 -1.5691
 8328TIP3    H224949   5.470   0.980   4.559 -0.0341  0.6085 -0.6151
 8329TIP3   OH224950   2.989   5.315   2.397  0.0713  0.2051  0.0989
 8329TIP3    H124951   2.980   5.302   2.303  0.0835  2.3835 -0.2719
 8329TIP3    H224952   2.929   5.388   2.417 -0.7687 -0.9217  1.9910
 8330TIP3   OH224953   6.408   2.171   0.770  0.2153  0.7216 -0.3549
 8330TIP3    H124954   6.460   2.217   0.704 -0.2796  0.8774 -0.6368
 8330TIP3    H224955   6.419   2.224   0.849  2.9561 -0.8403  0.4670
 8331TIP3   OH224956   6.985   3.615   0.474  0.1807  0.7230  0.5091
 8331TIP3    H124957   6.923   3.543   0.470 -1.2653  1.9692 -1.2246
 8331TIP3    H224958   7.055   3.591   0.413 -0.3139  0.7892 -0.0916
 8332TIP3   OH224959   6.772   5.344   3.141 -0.4610  0.5210 -0.1541
 8332TIP3    H124960   6.862   5.346   3.107 -0.8624  1.2754 -1.1849
 8332TIP3    H224961   6.753   5.250   3.152  0.9745  0.3532  1.5643
 8333TIP3   OH224962   6.398   3.161   5.695 -0.1707 -0.1925  0.4306
 8333TIP3    H124963   6.442   3.245   5.678 -0.2049 -0.2866 -0.1345
 8333TIP3    H224964   6.413   3.145   5.789  1.6110 -0.5600  0.1243
 8334TIP3   OH224965   5.593   2.622   2.105 -0.2941  0.1902 -0.3659
 8334TIP3    H124966   5.582   2.589   2.194 -0.5591 -1.5936 -1.0126
 8334TIP3    H224967   5.540   2.702   2.102 -1.3223 -0.4129  0.7133
 8335TIP3   OH224968   5.018   6.395   4.820 -0.1194 -0.4936 -0.0196
 8335TIP3    H124969   5.057   6.381   4.734  0.5466  0.6811  0.0765
 8335TIP3    H224970   5.087   6.436   4.872  0.0710 -2.7050  1.6327
 8336TIP3   OH224971   1.726   1.433   1.471 -0.0278 -0.2770  0.5402
 8336TIP3    H124972   1.688   1.406   1.387  0.4961 -0.3684  0.3243
 8336TIP3    H224973   1.678   1.383   1.536 -0.2487 -0.4210  0.2712
 8337TIP3   OH224974   6.609   3.986   5.538  0.0456 -0.1272  0.1865
 8337TIP3    H124975   6.545   4.056   5.548 -1.5834 -1.6650  0.8737
 8337TIP3    H224976   6.614   3.945   5.625 -0.0013 -1.6674 -0.5161
 8338TIP3   OH224977   1.025   0.105   1.361  0.0190 -0.4166  0.7750
 8338TIP3    H124978   1.085   0.103   1.435  0.4486 -0.1283  0.4398
 8338TIP3    H224979   0.938   0.107   1.401  0.2307 -0.8242  1.2618
 8339TIP3   OH224980   7.121   5.593   0.126 -0.2291  0.5285  0.4360
 8339TIP3    H124981   7.182   5.520   0.118  0.2417  1.0251 -0.7646
 8339TIP3    H224982   7.111   5.626   0.037 -0.0709  2.2137  1.0096
 8340TIP3   OH224983   1.569   0.099   1.212 -0.2054  0.0970  0.2772
 8340TIP3    H124984   1.642   0.117   1.152  0.1945 -1.0328  0.3910
 8340TIP3    H224985   1.606   0.112   1.299 -0.4997  0.7346  0.3121
 8341TIP3   OH224986   1.655   1.483   4.163  0.3973  0.3284 -0.1272
 8341TIP3    H124987   1.641   1.566   4.208 -0.6067 -0.0802  0.3607
 8341TIP3    H224988   1.688   1.424   4.230 -1.8728 -0.5090  0.3644
 8342TIP3   OH224989   0.392   3.281   4.161  0.2615 -0.0394 -0.4586
 8342TIP3    H124990   0.435   3.215   4.216 -0.0384 -0.9181 -1.2547
 8342TIP3    H224991   0.359   3.232   4.086  0.2490  1.0646 -1.1967
 8343TIP3   OH224992   0.788   0.789   2.662 -0.2086  0.7003  0.5699
 8343TIP3    H124993   0.851   0.860   2.647  0.2815  0.2926  0.6881
 8343TIP3    H224994   0.766   0.796   2.755  2.4481 -1.3839  1.4834
 8344TIP3   OH224995   3.289   1.920   1.212 -0.2764 -0.5484 -0.3260
 8344TIP3    H124996   3.312   1.828   1.196 -0.2849 -0.3933 -1.2950
 8344TIP3    H224997   3.232   1.943   1.139  0.3469  0.4475 -0.5190
 8345TIP3   OH224998   6.559   3.245   4.691 -0.3547  0.5985 -0.6617
 8345TIP3    H124999   6.468   3.275   4.685 -0.8272 -0.7792 -0.9398
 8345TIP3    H225000   6.576   3.239   4.785 -0.4628  1.0995 -0.6076
 8346TIP3   OH225001   4.296   0.362   0.340  0.0836  0.3549  0.0290
 8346TIP3    H125002   4.320   0.272   0.362  0.3221  0.8494  1.9295
 8346TIP3    H225003   4.210   0.354   0.298  0.6981 -0.8549 -1.0724
 8347TIP3   OH225004   2.213   5.655   1.350  0.0890  0.1991 -0.5101
 8347TIP3    H125005   2.247   5.590   1.288 -0.4434 -1.0316  0.4391
 8347TIP3    H225006   2.279   5.661   1.418  0.3983  1.1050 -0.8740
 8348TIP3   OH225007   6.802   0.028   0.433  0.1708 -0.1486 -0.3798
 8348TIP3    H125008   6.769   0.063   0.515  0.5342 -2.1638  0.6773
 8348TIP3    H225009   6.792  -0.066   0.441  2.5178 -0.5785 -1.6343
 8349TIP3   OH225010   3.729   2.670   0.242 -0.2302 -0.0027  0.0608
 8349TIP3    H125011   3.651   2.657   0.189 -1.2571  1.7807  1.0321
 8349TIP3    H225012   3.745   2.585   0.283 -0.6796 -0.8209 -1.3996
 8350TIP3   OH225013   5.962   2.018   4.682  0.3062  0.0463  0.0859
 8350TIP3    H125014   5.880   2.066   4.675  0.9650  1.1287 -0.5758
 8350TIP3    H225015   6.011   2.064   4.751  0.1284 -0.9610  0.9014
 8351TIP3   OH225016   1.869   5.971   5.887 -0.2841 -0.0882 -0.3560
 8351TIP3    H125017   1.849   5.971   5.794  0.9514  0.9898 -0.6635
 8351TIP3    H225018   1.839   5.886   5.919 -4.6743  1.0274 -0.8028
 8352TIP3   OH225019   2.866   3.604   3.916  0.0193  0.0614 -0.0479
 8352TIP3    H125020   2.839   3.694   3.937  0.2520 -0.2116  1.4970
 8352TIP3    H225021   2.885   3.607   3.822  2.0522  2.1730  0.3363
 8353TIP3   OH225022   3.907   0.869   5.515 -0.1691 -0.1785  0.2035
 8353TIP3    H125023   3.973   0.800   5.527  0.1810  0.2463  0.8270
 8353TIP3    H225024   3.928   0.933   5.584 -1.1566  0.0289  0.3186
 8354TIP3   OH225025   6.603   3.686   0.741  0.1883  0.1920 -0.0014
 8354TIP3    H125026   6.631   3.764   0.692  1.4410 -0.4890 -0.4304
 8354TIP3    H225027   6.679   3.664   0.795 -0.0325 -0.8876 -0.1080
 8355TIP3   OH225028   6.823   4.250   1.518 -0.4470 -0.6330 -0.3250
 8355TIP3    H125029   6.803   4.296   1.600 -0.3463 -1.2097  0.0307
 8355TIP3    H225030   6.895   4.299   1.480  0.5456 -1.2241  0.6991
 8356TIP3   OH225031   7.072   5.731   4.888 -0.4735  0.0568  0.3755
 8356TIP3    H125032   7.037   5.642   4.882  0.4440 -0.2836 -0.0511
 8356TIP3    H225033   7.136   5.727   4.960 -0.7428  0.4814  0.6419
 8357TIP3   OH225034   2.075   6.537   4.957 -0.3426 -0.5487  0.7687
 8357TIP3    H125035   2.049   6.479   5.029 -0.7214 -1.4859 -0.1044
 8357TIP3    H225036   2.152   6.583   4.991 -1.7228  0.5920  2.5469
 8358TIP3   OH225037   5.590   0.516   1.515 -0.0637 -0.1784 -0.0300
 8358TIP3    H125038   5.566   0.568   1.438 -0.0556  0.4311  0.3765
 8358TIP3    H225039   5.627   0.579   1.577  0.1334 -0.6978  0.3953
 8359TIP3   OH225040   0.844   3.527   0.951  0.3874  0.0551  0.4936
 8359TIP3    H125041   0.901   3.598   0.923 -0.4195  0.5456  0.0396
 8359TIP3    H225042   0.901   3.450   0.954  0.8099  0.2605 -1.2211
 8360TIP3   OH225043   6.007   2.902   3.664  0.1243  0.0062  0.2517
 8360TIP3    H125044   6.014   2.976   3.605  0.3328  0.1969  0.5126
 8360TIP3    H225045   5.967   2.833   3.612 -0.9528  0.5931  0.2602
 8361TIP3   OH225046   1.259   5.854   5.560  0.2823  0.6617 -0.0140
 8361TIP3    H125047   1.183   5.898   5.523  0.2818  0.8763  0.2347
 8361TIP3    H225048   1.329   5.869   5.496 -0.0854 -0.2463 -0.6474
 8362TIP3   OH225049   6.716   3.647   3.418  0.1314  0.3259  0.5030
 8362TIP3    H125050   6.726   3.742   3.418 -0.4857  0.4047  1.5660
 8362TIP3    H225051   6.795   3.614   3.461  0.5722  0.3275 -0.3049
 8363TIP3   OH225052   4.551   2.178   3.831  0.8254 -0.6652  0.4444
 8363TIP3    H125053   4.493   2.225   3.891  0.2666  0.7443 -1.1251
 8363TIP3    H225054   4.616   2.244   3.805  0.4124 -0.9174 -1.3091
 8364TIP3   OH225055   2.817   6.521   2.713 -0.1894  0.1295 -0.0712
 8364TIP3    H125056   2.910   6.500   2.705 -0.1593 -0.8837  2.1026
 8364TIP3    H225057   2.813   6.617   2.707  1.1490  0.2603  0.7755
 8365TIP3   OH225058   1.438   5.130   1.379 -0.8577 -0.7000  0.2485
 8365TIP3    H125059   1.445   5.065   1.449  2.1349  0.2883  1.0210
 8365TIP3    H225060   1.510   5.190   1.396 -1.1685  0.6280 -2.6652
 8366TIP3   OH225061   0.832   3.672   4.804  0.4879  0.2894  0.1097
 8366TIP3    H125062   0.816   3.583   4.773  1.3966  0.2645 -0.2963
 8366TIP3    H225063   0.888   3.661   4.881 -0.8968  0.4173  1.1882
 8367TIP3   OH225064   6.101   1.450   0.563 -0.2908  0.2708 -0.4707
 8367TIP3    H125065   6.038   1.461   0.635  1.1105  0.4773  0.7681
 8367TIP3    H225066   6.133   1.538   0.545 -1.0070  0.2940 -1.7380
 8368TIP3   OH225067   4.798   2.294   2.005  0.3604 -0.2231 -0.1106
 8368TIP3    H125068   4.850   2.374   2.013  0.9065 -0.3511 -1.9051
 8368TIP3    H225069   4.726   2.306   2.066 -0.2660  2.2054 -1.2022
 8369TIP3   OH225070   1.769   3.277   4.648  0.3284 -0.1559 -0.2866
 8369TIP3    H125071   1.681   3.301   4.619 -0.1405 -2.0107 -0.5268
 8369TIP3    H225072   1.821   3.271   4.568  0.0222 -1.4450 -0.4166
 8370TIP3   OH225073   7.188   4.778   1.474  0.1326 -0.0562  0.1726
 8370TIP3    H125074   7.159   4.824   1.396 -0.7794 -0.1070  0.4681
 8370TIP3    H225075   7.201   4.687   1.446 -1.2259 -0.3038  0.3029
 8371TIP3   OH225076   2.812   0.547   2.214  0.0442 -0.1212 -0.2625
 8371TIP3    H125077   2.759   0.525   2.291  1.2327  0.4538  0.7524
 8371TIP3    H225078   2.851   0.463   2.188 -1.2550 -0.5399 -0.9822
 8372TIP3   OH225079   1.080   4.116   3.644  0.6482  0.3728 -0.2089
 8372TIP3    H125080   1.087   4.203   3.685  0.1812 -0.0394  0.7669
 8372TIP3    H225081   0.998   4.080   3.676  1.7807 -1.2492  1.0327
 8373TIP3   OH225082   6.647   4.848   0.932 -0.1394 -0.0897 -0.4312
 8373TIP3    H125083   6.625   4.788   1.003  1.1031  1.4077  1.3048
 8373TIP3    H225084   6.563   4.867   0.890 -0.9263 -0.8982  0.7299
 8374TIP3   OH225085   0.526   1.219   3.885  0.2986  0.0523  0.0789
 8374TIP3    H125086   0.496   1.289   3.941  1.9432  1.4656 -0.6977
 8374TIP3    H225087   0.448   1.189   3.839 -0.3697  1.6942  0.1001
 8375TIP3   OH225088   3.754   5.035   0.947 -0.0545  0.1024  0.2473
 8375TIP3    H125089   3.845   5.038   0.919  0.6904 -0.3489  2.3933
 8375TIP3    H225090   3.754   4.976   1.023 -1.9565  0.8816  0.9195
 8376TIP3   OH225091   6.586   4.214   5.310 -0.1670  0.0119 -0.3074
 8376TIP3    H125092   6.626   4.156   5.375  0.9095  0.9347 -0.1182
 8376TIP3    H225093   6.593   4.302   5.348 -0.0919  0.4939 -1.3962
 8377TIP3   OH225094   6.289   2.095   4.272 -0.4593 -0.4254  0.3516
 8377TIP3    H125095   6.254   2.143   4.196 -0.0871  0.8229  0.9329
 8377TIP3    H225096   6.232   2.019   4.280 -0.4176 -0.6793 -1.2666
 8378TIP3   OH225097   4.534   3.328   5.393 -0.2508  0.0791 -0.0564
 8378TIP3    H125098   4.551   3.309   5.486  1.5387  1.8685  0.0442
 8378TIP3    H225099   4.557   3.247   5.348  2.0722  0.1660  0.8041
 8379TIP3   OH225100   5.947   5.240   3.886 -0.3768  0.1077 -0.0401
 8379TIP3    H125101   5.921   5.331   3.897 -0.9260 -0.1896  1.2174
 8379TIP3    H225102   6.033   5.245   3.842 -1.3177  1.1503 -1.9083
 8380TIP3   OH225103   6.046   6.212   2.910 -0.0665  0.6787 -0.3634
 8380TIP3    H125104   6.046   6.116   2.909 -0.7522  0.6384  1.2259
 8380TIP3    H225105   6.092   6.237   2.829 -0.6341 -0.9674 -1.2331
 8381TIP3   OH225106   0.196   3.140   5.034 -0.5413 -0.2383 -0.2130
 8381TIP3    H125107   0.217   3.135   5.127 -0.1936  0.3815 -0.2552
 8381TIP3    H225108   0.262   3.198   4.997 -1.0907  0.0809 -0.7192
 8382TIP3   OH225109   6.233   3.216   1.729 -0.5052  0.3542  0.2424
 8382TIP3    H125110   6.166   3.162   1.687  1.0103  0.1837 -2.2228
 8382TIP3    H225111   6.311   3.202   1.675  0.7823  2.6291  1.3648
 8383TIP3   OH225112   2.055   0.051   4.060  0.9359 -0.3901 -0.5633
 8383TIP3    H125113   2.100   0.060   3.976  1.5079 -0.5673 -0.2826
 8383TIP3    H225114   2.115  -0.001   4.113  0.4939 -0.4347 -0.1052
 8384TIP3   OH225115   1.156   3.594   4.542  0.1737 -0.2506 -0.4843
 8384TIP3    H125116   1.227   3.560   4.487  0.4730  0.2941 -0.4360
 8384TIP3    H225117   1.080   3.540   4.518  0.9137 -1.7898  0.4600
 8385TIP3   OH225118   0.823   3.230   2.044  0.1383 -0.3921  0.0546
 8385TIP3    H125119   0.817   3.307   2.101 -1.2945 -1.0399  0.8372
 8385TIP3    H225120   0.774   3.256   1.965  1.8406  0.3853 -0.7925
 8386TIP3   OH225121   1.818   1.965   0.403  0.0619 -0.2913  0.2798
 8386TIP3    H125122   1.879   2.022   0.450  1.5030 -0.6722 -1.0931
 8386TIP3    H225123   1.836   1.878   0.437  0.4416 -0.4347 -0.2860
 8387TIP3   OH225124   0.825   5.560   3.878  0.0714  0.2063 -0.6708
 8387TIP3    H125125   0.884   5.485   3.878  0.9289  0.8182 -2.3395
 8387TIP3    H225126   0.791   5.563   3.788 -0.5045  1.3782 -0.4345
 8388TIP3   OH225127   7.180   2.763   0.613 -0.0394 -0.2759  0.1682
 8388TIP3    H125128   7.238   2.708   0.666 -0.5059  0.2383  1.2420
 8388TIP3    H225129   7.093   2.727   0.629 -0.2775  0.4015  0.4043
 8389TIP3   OH225130   3.188   6.442   3.945  0.1046  0.5584 -0.3093
 8389TIP3    H125131   3.127   6.375   3.977  0.1138 -0.9006 -3.0345
 8389TIP3    H225132   3.263   6.393   3.912  1.7250  2.1920  0.7446
 8390TIP3   OH225133   4.798   2.490   4.332  0.3845 -1.0318 -0.2213
 8390TIP3    H125134   4.873   2.480   4.390  0.8737 -0.6035 -0.7716
 8390TIP3    H225135   4.812   2.423   4.264  0.9571 -0.1104 -1.0376
 8391TIP3   OH225136   1.325   5.834   5.848 -0.3337 -0.4308  0.3866
 8391TIP3    H125137   1.314   5.929   5.835 -2.4749 -0.7874 -0.8581
 8391TIP3    H225138   1.332   5.799   5.759  0.1981 -1.4737  0.8292
 8392TIP3   OH225139   4.772   4.183   0.831 -0.6162  0.1562  0.1804
 8392TIP3    H125140   4.684   4.176   0.794  0.6777  0.7550 -3.3545
 8392TIP3    H225141   4.812   4.098   0.816  0.9522  1.3024 -2.9875
 8393TIP3   OH225142   1.781   1.547   0.083  0.1066  0.3775  0.7586
 8393TIP3    H125143   1.707   1.511   0.132  0.5374  0.0658  1.1795
 8393TIP3    H225144   1.744   1.622   0.036 -0.8319 -0.6738 -0.2346
 8394TIP3   OH225145   3.224   4.884   0.861  0.0339 -0.2274 -0.2816
 8394TIP3    H125146   3.288   4.835   0.809 -0.6055 -0.6276 -0.7159
 8394TIP3    H225147   3.214   4.967   0.815 -1.6145 -1.1266 -1.7146
 8395TIP3   OH225148   3.718   2.763   5.164  0.2551 -0.5506  0.5335
 8395TIP3    H125149   3.711   2.672   5.193 -2.1719 -1.0551 -1.3254
 8395TIP3    H225150   3.765   2.758   5.081  1.7625  0.1607  1.3083
 8396TIP3   OH225151   5.360   3.760   4.801  0.3444  0.4732 -0.3471
 8396TIP3    H125152   5.292   3.826   4.786  0.2125  0.5532  0.5288
 8396TIP3    H225153   5.436   3.811   4.832  0.5682  0.3123 -0.6292
 8397TIP3   OH225154   7.021   6.108   3.249  0.4361 -0.0973 -0.8146
 8397TIP3    H125155   6.955   6.070   3.191  0.1445  0.4992 -0.8817
 8397TIP3    H225156   7.053   6.185   3.202  2.3110 -1.2265 -1.4930
 8398TIP3   OH225157   1.468   1.144   3.938  0.0827  0.0160 -0.6431
 8398TIP3    H125158   1.447   1.215   3.998 -0.4275  0.0574 -0.8580
 8398TIP3    H225159   1.542   1.176   3.887 -0.7036  0.7715 -1.3510
 8399TIP3   OH225160   5.195   6.234   1.783  0.0222 -0.6370 -0.1202
 8399TIP3    H125161   5.215   6.143   1.804  2.0997  0.1906  1.8454
 8399TIP3    H225162   5.136   6.229   1.707 -0.6061 -3.6044  0.4537
 8400TIP3   OH225163   2.420   4.268   4.935  0.4684  0.4154 -0.4005
 8400TIP3    H125164   2.367   4.347   4.951 -0.5843 -0.4705  0.6270
 8400TIP3    H225165   2.359   4.205   4.897 -0.0564 -1.5888  3.3125
 8401TIP3   OH225166   4.855   3.459   0.316  0.4277  0.0350  0.4805
 8401TIP3    H125167   4.792   3.387   0.314 -0.6375  0.9412 -0.8199
 8401TIP3    H225168   4.939   3.419   0.296 -0.3304 -0.7169 -1.4193
 8402TIP3   OH225169   3.478   3.423   0.318 -0.0435  0.1594 -0.3695
 8402TIP3    H125170   3.429   3.501   0.292 -1.0354  0.2678  1.6262
 8402TIP3    H225171   3.560   3.429   0.269  0.3635  3.0254  0.5061
 8403TIP3   OH225172   1.941   1.226   4.448  0.6988 -0.5105  0.6297
 8403TIP3    H125173   1.901   1.171   4.381 -1.2605 -0.4227  1.6418
 8403TIP3    H225174   2.028   1.189   4.462 -0.0967 -2.5925  0.3879
 8404TIP3   OH225175   2.986   4.371   3.330 -0.0094  0.4284 -0.0267
 8404TIP3    H125176   3.005   4.336   3.417  2.8106 -0.0641 -0.7411
 8404TIP3    H225177   2.927   4.307   3.291  1.1321 -0.9853  0.4714
 8405TIP3   OH225178   2.377   4.382   2.215  0.5266  0.2031 -0.0330
 8405TIP3    H125179   2.333   4.303   2.182 -0.1843  0.6369 -0.1537
 8405TIP3    H225180   2.306   4.434   2.253  1.1394  0.3111  1.0078
 8406TIP3   OH225181   3.860   5.569   0.120  0.7299  0.2210 -0.4348
 8406TIP3    H125182   3.846   5.519   0.040 -0.4734 -0.3441  0.1163
 8406TIP3    H225183   3.875   5.659   0.089 -2.2918  0.5428 -1.2257
 8407TIP3   OH225184   0.654   4.083   3.198 -0.4641 -0.6775 -1.0068
 8407TIP3    H125185   0.641   4.063   3.106 -0.9883 -1.3462 -0.7921
 8407TIP3    H225186   0.592   4.026   3.244 -1.0403  0.4711 -0.3111
 8408TIP3   OH225187   2.556   2.086   4.857  0.9198 -0.4117 -0.1196
 8408TIP3    H125188   2.564   2.017   4.922  1.2712  0.6354  0.9752
 8408TIP3    H225189   2.484   2.058   4.801  0.3063 -1.1215  0.9972
 8409TIP3   OH225190   1.649   4.395   1.917  0.1662 -0.1611 -0.9131
 8409TIP3    H125191   1.743   4.384   1.927  0.3623  0.1393 -2.2695
 8409TIP3    H225192   1.633   4.382   1.823 -1.1718 -0.4203 -0.6758
 8410TIP3   OH225193   3.058   6.350   2.159  0.0958 -0.3290 -0.4831
 8410TIP3    H125194   3.009   6.269   2.143 -0.3086 -0.3113  0.5902
 8410TIP3    H225195   2.998   6.419   2.132 -0.9061 -0.2634  1.6748
 8411TIP3   OH225196   1.023   4.682   0.391  0.0506  0.1607  0.8028
 8411TIP3    H125197   1.005   4.617   0.323 -0.0434  0.4117  0.5858
 8411TIP3    H225198   1.091   4.738   0.353 -0.3473  0.5936  0.7216
 8412TIP3   OH225199   3.976   6.040   0.802 -0.1905 -0.3209 -0.3239
 8412TIP3    H125200   3.941   6.095   0.731 -3.1710 -1.2989  0.2584
 8412TIP3    H225201   3.998   6.102   0.871 -0.6727  0.3774 -0.7755
 8413TIP3   OH225202   5.145   3.798   3.530 -0.5478  0.1069 -0.0585
 8413TIP3    H125203   5.078   3.751   3.578  0.2530  0.7889  1.7985
 8413TIP3    H225204   5.151   3.883   3.573  1.5319  0.0545 -0.1247
 8414TIP3   OH225205   5.464   2.971   5.565  0.1938 -0.4753  0.0479
 8414TIP3    H125206   5.411   3.021   5.503  0.5790 -0.3168 -0.1587
 8414TIP3    H225207   5.514   3.036   5.613  0.8374 -0.6648 -0.3519
 8415TIP3   OH225208   1.061   3.806   1.229  0.5585 -0.1655  0.3940
 8415TIP3    H125209   1.096   3.757   1.154  1.9820 -0.8994  1.5048
 8415TIP3    H225210   1.056   3.742   1.300 -1.9486  0.2092  0.6481
 8416TIP3   OH225211   0.011   2.029   0.661 -0.5183  0.1434  0.6979
 8416TIP3    H125212  -0.024   2.021   0.573 -0.4331 -0.5705  0.7182
 8416TIP3    H225213   0.042   2.119   0.667 -0.3381  0.1374 -0.0682
 8417TIP3   OH225214   3.995   5.376   0.561  0.3931 -0.1130 -0.0671
 8417TIP3    H125215   3.958   5.289   0.571 -0.6216  0.4043  0.8570
 8417TIP3    H225216   3.934   5.422   0.504  0.5549  0.2100  0.0165
 8418TIP3   OH225217   6.339   4.186   0.270  0.2878  0.1230  0.2123
 8418TIP3    H125218   6.252   4.225   0.269  0.7627  1.2377  0.3300
 8418TIP3    H225219   6.397   4.256   0.239  1.4404  0.2095  2.3102
 8419TIP3   OH225220   6.778   0.833   0.028 -0.1662 -0.4290 -0.2265
 8419TIP3    H125221   6.848   0.895   0.010  0.9039 -1.8317 -1.0560
 8419TIP3    H225222   6.818   0.747   0.016 -1.2704 -1.3542  2.0865
 8420TIP3   OH225223   0.061   4.664   5.313 -0.3354  0.0914 -0.2538
 8420TIP3    H125224   0.011   4.671   5.232 -1.3581 -2.8718  0.0011
 8420TIP3    H225225   0.143   4.711   5.295 -0.0559 -1.3865 -3.4135
 8421TIP3   OH225226   0.636   0.895   5.784 -0.5378 -0.2828 -0.5343
 8421TIP3    H125227   0.671   0.928   5.701 -1.5601  0.7761 -0.5673
 8421TIP3    H225228   0.658   0.963   5.847 -1.7021 -0.0304 -0.3831
 8422TIP3   OH225229   6.614   3.089   0.707  0.5807  0.2717  0.5415
 8422TIP3    H125230   6.677   3.155   0.736  2.1427 -1.4919  1.3889
 8422TIP3    H225231   6.559   3.134   0.643  2.1941  2.1087  0.3642
 8423TIP3   OH225232   1.074   6.066   2.049  0.3564 -0.0473  0.1733
 8423TIP3    H125233   1.079   6.035   2.139 -2.0124 -0.7687  0.1358
 8423TIP3    H225234   1.111   5.994   1.996 -0.8654 -0.8894  0.4132
 8424TIP3   OH225235   4.705   1.850   3.549  0.6026  0.1513  0.3498
 8424TIP3    H125236   4.730   1.852   3.457  0.1771  0.3951  0.2393
 8424TIP3    H225237   4.729   1.762   3.578 -1.4679 -0.8036 -0.6266
 8425TIP3   OH225238   1.129   0.858   3.898 -0.1003 -0.2627  0.0159
 8425TIP3    H125239   1.103   0.933   3.845  1.2994  0.2456  0.0109
 8425TIP3    H225240   1.175   0.896   3.973  2.1595 -1.1187 -0.8534
 8426TIP3   OH225241   5.329   5.418   3.968  0.6915  0.1266  0.1284
 8426TIP3    H125242   5.294   5.480   4.032  1.9428  0.5511  0.4262
 8426TIP3    H225243   5.418   5.400   3.998  0.5316 -1.4238 -0.2450
 8427TIP3   OH225244   0.216   5.566   1.728  0.4196 -0.5973 -0.1058
 8427TIP3    H125245   0.270   5.539   1.654  0.4649  0.9310 -0.6784
 8427TIP3    H225246   0.253   5.650   1.756 -0.6883 -0.2748  0.4889
 8428TIP3   OH225247   5.517   6.818   0.349  0.2511 -0.1195  0.2076
 8428TIP3    H125248   5.507   6.773   0.433 -0.5790 -1.7087 -0.6954
 8428TIP3    H225249   5.445   6.785   0.295  1.4528 -0.0557 -1.5249
 8429TIP3   OH225250   6.927   1.634   0.373  0.1159 -0.2253 -0.1338
 8429TIP3    H125251   6.942   1.541   0.384 -1.8493 -0.4760  0.7805
 8429TIP3    H225252   6.956   1.653   0.283  0.1158 -1.7932 -0.4851
 8430TIP3   OH225253   2.692   3.569   1.418 -0.2387 -0.0325 -0.2189
 8430TIP3    H125254   2.715   3.661   1.410  0.4210 -0.0103  1.4356
 8430TIP3    H225255   2.776   3.523   1.420 -0.5439 -0.6159 -0.4228
 8431TIP3   OH225256   0.485   0.648   5.097 -0.0949 -0.2459 -0.4762
 8431TIP3    H125257   0.529   0.628   5.015  2.4525  0.7789  0.5232
 8431TIP3    H225258   0.411   0.704   5.072  0.5470 -0.0612 -2.0791
 8432TIP3   OH225259   2.969   4.699   4.642 -0.1960 -0.8136  0.5417
 8432TIP3    H125260   2.990   4.773   4.700 -0.3456 -0.7971  0.5757
 8432TIP3    H225261   3.035   4.633   4.663  0.5301 -0.3324 -0.1556
 8433TIP3   OH225262   5.633   2.474   2.693  0.4403 -0.5063 -1.0915
 8433TIP3    H125263   5.638   2.379   2.683  1.2235 -0.3935 -1.9386
 8433TIP3    H225264   5.700   2.494   2.759 -0.4821 -0.6378 -0.0917
 8434TIP3   OH225265   3.916   4.260   5.096 -0.4306 -0.5988  0.4098
 8434TIP3    H125266   4.007   4.263   5.123 -0.6541 -1.7103  1.3383
 8434TIP3    H225267   3.900   4.169   5.072 -0.8524 -0.0926 -1.4094
 8435TIP3   OH225268   2.555   0.862   0.299 -0.1412  0.0114 -0.0784
 8435TIP3    H125269   2.487   0.809   0.341  0.6620  2.1006  4.4582
 8435TIP3    H225270   2.509   0.937   0.262 -0.5646  0.2520  0.9080
 8436TIP3   OH225271   4.138   4.099   1.677 -0.1504 -0.5394  0.6515
 8436TIP3    H125272   4.081   4.147   1.617  0.6954 -1.6088 -1.0964
 8436TIP3    H225273   4.129   4.008   1.650  0.5435 -1.0161  1.9535
 8437TIP3   OH225274   1.395   3.515   3.606  0.1904  0.0926  0.1247
 8437TIP3    H125275   1.302   3.495   3.599  0.5121 -1.0571 -1.3308
 8437TIP3    H225276   1.400   3.587   3.668 -1.6420 -0.0061  0.4231
 8438TIP3   OH225277   5.733   4.267   0.914  0.2432  0.5504  0.3728
 8438TIP3    H125278   5.779   4.222   0.984  1.4889  1.8094  0.4063
 8438TIP3    H225279   5.656   4.212   0.896 -0.1208  0.2011  2.7020
 8439TIP3   OH225280   1.974   2.520   4.301 -0.2178  0.0427 -0.2884
 8439TIP3    H125281   1.901   2.510   4.239 -0.3094 -0.4997 -0.1057
 8439TIP3    H225282   2.010   2.606   4.282 -1.2076  0.5210 -0.0659
 8440TIP3   OH225283   4.013   6.779   1.716 -0.6039  0.3698  0.9830
 8440TIP3    H125284   4.050   6.841   1.653 -1.0366  1.1461  1.4687
 8440TIP3    H225285   3.930   6.751   1.677  0.0182 -0.6408  0.3340
 8441TIP3   OH225286   6.714   3.099   1.176  0.5500 -0.6100  0.1624
 8441TIP3    H125287   6.683   3.055   1.255 -0.7496  0.3800  0.2492
 8441TIP3    H225288   6.652   3.074   1.108 -0.2806  1.0994  0.2390
 8442TIP3   OH225289   3.853   5.881   2.330 -0.4998 -0.4949 -0.8184
 8442TIP3    H125290   3.897   5.805   2.292  2.6091  1.1940 -0.9520
 8442TIP3    H225291   3.807   5.921   2.257 -2.0263 -2.0677 -0.7791
 8443TIP3   OH225292   3.342   1.580   3.655  0.1340 -0.1907 -0.2369
 8443TIP3    H125293   3.331   1.669   3.622 -0.6971  0.5880  1.9393
 8443TIP3    H225294   3.423   1.583   3.706  1.9241 -1.6168 -2.7897
 8444TIP3   OH225295   2.670   6.593   1.929 -0.5707  0.1918 -0.4484
 8444TIP3    H125296   2.678   6.535   1.854  0.1663 -0.0329 -0.2047
 8444TIP3    H225297   2.668   6.681   1.892 -0.6617  0.0634 -0.7517
 8445TIP3   OH225298   0.869   2.192   1.714 -0.0973 -0.3106 -0.4134
 8445TIP3    H125299   0.940   2.140   1.751  1.1765  2.3133  1.1642
 8445TIP3    H225300   0.846   2.254   1.784 -1.6616  1.0774 -2.0534
 8446TIP3   OH225301   3.961   5.623   3.109  0.6625  0.1738  0.2746
 8446TIP3    H125302   4.008   5.675   3.174 -1.6169  0.3050  1.9491
 8446TIP3    H225303   3.969   5.533   3.140 -0.3311  0.2247  0.7175
 8447TIP3   OH225304   3.691   0.800   0.855  0.2641  0.3577  0.0877
 8447TIP3    H125305   3.700   0.858   0.931  0.9613 -0.3804  0.5837
 8447TIP3    H225306   3.628   0.734   0.883  0.7133 -0.0620  0.1282
 8448TIP3   OH225307   4.828   3.051   5.310  0.3100 -0.1425 -0.2938
 8448TIP3    H125308   4.891   2.993   5.354 -0.5349 -0.9366 -0.0931
 8448TIP3    H225309   4.742   3.016   5.335 -0.2075 -0.0795 -1.8692
 8449TIP3   OH225310   1.868   3.462   2.049  0.6095  0.2090  0.0416
 8449TIP3    H125311   1.870   3.540   1.994 -0.1722 -1.6034 -2.7739
 8449TIP3    H225312   1.940   3.408   2.015 -0.6557 -1.4796 -0.1018
 8450TIP3   OH225313   4.795   1.361   1.312  0.1764 -0.5102 -0.0920
 8450TIP3    H125314   4.736   1.433   1.336 -0.3195 -0.7961 -0.4676
 8450TIP3    H225315   4.796   1.304   1.389  0.1274 -0.3993 -0.0095
 8451TIP3   OH225316   1.579   2.397   0.821  0.1358  0.1911  0.2605
 8451TIP3    H125317   1.647   2.359   0.765 -0.8811  0.2039 -1.0183
 8451TIP3    H225318   1.608   2.378   0.910  1.3281 -0.6401 -0.2795
 8452TIP3   OH225319   0.528   6.385   5.361 -0.4671  0.9223 -0.0383
 8452TIP3    H125320   0.595   6.411   5.423 -1.0014  2.2190  0.0259
 8452TIP3    H225321   0.479   6.315   5.406  0.8441 -0.0888 -0.1223
 8453TIP3   OH225322   5.405   2.329   5.344  0.4061  0.0724  0.0900
 8453TIP3    H125323   5.478   2.274   5.317 -0.2427 -0.6996 -0.1135
 8453TIP3    H225324   5.385   2.301   5.433  0.0400 -0.0684 -0.0331
 8454TIP3   OH225325   1.728   6.074   1.881 -1.1801  0.1696  0.3903
 8454TIP3    H125326   1.744   6.083   1.787 -0.9238 -0.8966  0.3203
 8454TIP3    H225327   1.673   5.997   1.889 -0.8365 -0.0024  1.1486
 8455TIP3   OH225328   4.471   0.961   0.903  0.2316 -0.9803  0.2542
 8455TIP3    H125329   4.448   0.907   0.828 -0.5719 -1.9391  1.1668
 8455TIP3    H225330   4.469   1.051   0.869 -2.1842 -1.2174 -0.3976
 8456TIP3   OH225331   6.937   0.419   4.433  0.3121 -0.4199 -0.1625
 8456TIP3    H125332   6.874   0.353   4.461 -1.1223  0.9300 -0.1282
 8456TIP3    H225333   6.964   0.463   4.513 -1.0261  1.0025 -0.4457
 8457TIP3   OH225334   5.244   6.346   5.468 -0.2558 -0.2083 -0.0207
 8457TIP3    H125335   5.230   6.259   5.432 -0.3801 -0.0147 -0.4492
 8457TIP3    H225336   5.156   6.385   5.473 -0.1459  0.0984 -0.3759
 8458TIP3   OH225337   1.649   1.504   5.067 -0.4304 -0.4338  0.4225
 8458TIP3    H125338   1.656   1.600   5.073  0.6483 -0.4028 -0.8141
 8458TIP3    H225339   1.730   1.471   5.103 -0.3749 -0.8287 -0.0463
 8459TIP3   OH225340   4.537   2.236   1.297 -0.1759 -0.1761 -0.3642
 8459TIP3    H125341   4.597   2.165   1.320  0.0517 -0.9575 -3.0491
 8459TIP3    H225342   4.466   2.228   1.362  0.6590 -1.7697  0.4285
 8460TIP3   OH225343   1.538   0.870   3.695  0.3314  0.2942  0.4666
 8460TIP3    H125344   1.497   0.800   3.745 -0.1941  1.3176  1.4948
 8460TIP3    H225345   1.609   0.902   3.751  0.8295  0.3305 -0.1691
 8461TIP3   OH225346   6.019   2.039   1.685  0.5512 -0.4396 -0.1877
 8461TIP3    H125347   5.947   2.002   1.634  0.9490  0.1187 -1.1748
 8461TIP3    H225348   5.982   2.050   1.773 -0.5913 -0.1495 -0.6794
 8462TIP3   OH225349   5.865   0.492   2.344 -0.1450  0.4077  0.9139
 8462TIP3    H125350   5.808   0.420   2.315  0.5348 -0.2439  1.1682
 8462TIP3    H225351   5.886   0.540   2.264 -0.5685  0.2999  0.7361
 8463TIP3   OH225352   4.217   3.772   4.171 -0.0950  0.2260 -0.0759
 8463TIP3    H125353   4.158   3.847   4.174 -2.1464 -1.2548 -1.1659
 8463TIP3    H225354   4.218   3.746   4.079  0.2200 -1.3512  0.3403
 8464TIP3   OH225355   6.619   3.635   3.153  0.0164  0.5368 -0.2680
 8464TIP3    H125356   6.623   3.540   3.141 -1.7390  0.6412 -2.4897
 8464TIP3    H225357   6.651   3.650   3.242  2.7219 -1.8538 -0.7122
 8465TIP3   OH225358   4.198   5.752   2.526 -0.0346  0.7053 -0.2604
 8465TIP3    H125359   4.181   5.658   2.514  0.7323  0.6169 -0.6969
 8465TIP3    H225360   4.111   5.790   2.539 -0.4376  0.0643 -0.9880
 8466TIP3   OH225361   5.090   0.513   2.501 -0.2996 -0.6782  0.2479
 8466TIP3    H125362   5.181   0.484   2.499 -0.4063 -1.0308 -1.5042
 8466TIP3    H225363   5.050   0.465   2.574  0.8203 -0.8028  0.7925
 8467TIP3   OH225364   0.915   1.978   5.746 -0.2657  0.0163 -0.3819
 8467TIP3    H125365   0.851   1.920   5.786  1.4622 -1.1916  0.7400
 8467TIP3    H225366   0.995   1.967   5.798  0.2326  3.2850 -0.1828
 8468TIP3   OH225367   3.932   4.377   3.036 -0.0830  0.4645 -0.4616
 8468TIP3    H125368   3.996   4.350   3.102  1.5280  2.2728 -1.1709
 8468TIP3    H225369   3.906   4.296   2.992 -0.8660 -0.7348  2.0394
 8469TIP3   OH225370   5.051   0.428   2.800 -0.2514  0.0764 -0.1413
 8469TIP3    H125371   4.988   0.498   2.813  1.4307  1.4557  1.0134
 8469TIP3    H225372   5.087   0.411   2.887 -0.3613 -2.0319 -0.4390
 8470TIP3   OH225373   4.428   1.866   4.033  0.4391 -0.6012  0.0253
 8470TIP3    H125374   4.352   1.913   3.998  0.4815  1.4068  2.3303
 8470TIP3    H225375   4.478   1.933   4.079  1.7600 -2.5248  1.5639
 8471TIP3   OH225376   5.722   3.572   1.559 -0.4003  0.5771  0.0670
 8471TIP3    H125377   5.722   3.477   1.554 -1.2251  0.4785  1.4268
 8471TIP3    H225378   5.629   3.597   1.554 -0.3990  1.1256  2.0788
 8472TIP3   OH225379   2.273   2.046   4.323 -0.7562  0.2729  0.4188
 8472TIP3    H125380   2.341   2.114   4.324  1.1687 -1.5545  0.7499
 8472TIP3    H225381   2.198   2.087   4.279  0.9243  2.0384 -0.9509
 8473TIP3   OH225382   2.886   1.650   2.517  0.5214  0.2149 -0.2957
 8473TIP3    H125383   2.824   1.641   2.445 -0.7836  1.1212  0.6763
 8473TIP3    H225384   2.868   1.736   2.554 -1.2900 -1.4819  3.2970
 8474TIP3   OH225385   3.853   0.253   1.473 -0.0656  0.3932  0.0311
 8474TIP3    H125386   3.800   0.239   1.551 -0.0375 -0.2760 -0.0676
 8474TIP3    H225387   3.876   0.346   1.476  0.1221  0.3258  0.9324
 8475TIP3   OH225388   6.966   3.078   5.482 -0.0177 -0.1108 -0.0375
 8475TIP3    H125389   6.882   3.123   5.484  0.3818  0.6826  2.5012
 8475TIP3    H225390   7.024   3.139   5.436 -0.6512 -0.4603 -1.3774
 8476TIP3   OH225391   6.119   4.627   4.543 -0.3490  0.1879  0.5136
 8476TIP3    H125392   6.049   4.669   4.493 -0.5630 -0.6068  0.1303
 8476TIP3    H225393   6.085   4.541   4.565  0.4382 -0.1464  0.4697
 8477TIP3   OH225394   2.777   2.784   3.483  0.1926 -0.0321 -0.1920
 8477TIP3    H125395   2.873   2.792   3.483  0.4445 -2.0756 -1.7938
 8477TIP3    H225396   2.755   2.758   3.573  1.0442  1.0820  0.3624
 8478TIP3   OH225397   5.780   2.422   3.663 -0.1650 -0.1711 -0.0087
 8478TIP3    H125398   5.777   2.449   3.755  0.1580 -0.8141  0.1953
 8478TIP3    H225399   5.822   2.336   3.664 -2.2849 -1.2682 -0.5114
 8479TIP3   OH225400   1.333   3.336   2.184 -0.3272  0.2816 -0.6422
 8479TIP3    H125401   1.247   3.380   2.185 -0.2722  0.3921  0.3067
 8479TIP3    H225402   1.371   3.360   2.100 -1.2474  0.2013 -1.0924
 8480TIP3   OH225403   2.014   0.824   0.395  0.4745  0.7940 -0.0975
 8480TIP3    H125404   1.923   0.795   0.403  1.1471 -1.5607 -0.3191
 8480TIP3    H225405   2.034   0.817   0.302  1.1264  0.4275  0.0620
 8481TIP3   OH225406   0.397   0.655   2.152 -0.8658  0.5321 -0.7681
 8481TIP3    H125407   0.349   0.731   2.117 -2.0042  0.1360 -0.1196
 8481TIP3    H225408   0.414   0.600   2.076  1.0759  1.9656 -1.4745
 8482TIP3   OH225409   4.436   6.185   1.491 -0.3178  0.0207  0.3019
 8482TIP3    H125410   4.355   6.175   1.540 -0.1618 -1.2788  0.3116
 8482TIP3    H225411   4.413   6.166   1.400 -0.7304  2.9792 -0.3240
 8483TIP3   OH225412   6.608   4.848   5.121 -0.2152 -0.3020 -0.3389
 8483TIP3    H125413   6.687   4.810   5.082 -0.5735  0.8096 -2.2615
 8483TIP3    H225414   6.548   4.775   5.131 -0.1678 -0.6030 -2.0666
 8484TIP3   OH225415   5.189   0.233   3.356 -0.3298  0.4478 -0.3022
 8484TIP3    H125416   5.179   0.327   3.341  0.4184  0.5845 -0.0124
 8484TIP3    H225417   5.271   0.210   3.311 -0.2008  0.0577  0.1190
 8485TIP3   OH225418   2.057   0.962   4.324 -0.4238 -0.8987 -0.1544
 8485TIP3    H125419   1.978   0.953   4.272 -0.6208  0.4311 -0.1150
 8485TIP3    H225420   2.115   1.016   4.271 -0.8898  1.0881  1.2064
 8486TIP3   OH225421   0.182   6.534   2.049  0.1346  0.2544  0.0764
 8486TIP3    H125422   0.201   6.624   2.077 -2.3123  0.7275  0.4506
 8486TIP3    H225423   0.177   6.484   2.131  2.3261 -0.4973 -0.1645
 8487TIP3   OH225424   0.999   2.563   2.012  0.4663 -0.1889  0.1121
 8487TIP3    H125425   1.031   2.653   2.015 -0.2544  0.2423 -2.4458
 8487TIP3    H225426   1.078   2.510   2.010  0.9042  0.3424  1.6960
 8488TIP3   OH225427   2.906   3.418   2.648  0.2606  0.3949 -0.6797
 8488TIP3    H125428   2.963   3.397   2.721 -1.9961 -2.1143  0.5292
 8488TIP3    H225429   2.915   3.513   2.637 -1.1006  1.4535  4.5386
 8489TIP3   OH225430   1.662   2.243   1.803 -0.6776  0.2980 -0.1525
 8489TIP3    H125431   1.726   2.173   1.793  0.1911  1.1939 -1.1454
 8489TIP3    H225432   1.691   2.292   1.880  1.0607  1.8587 -1.6864
 8490TIP3   OH225433   1.796   2.408   0.362  0.2332 -0.1328  0.4139
 8490TIP3    H125434   1.781   2.404   0.267  0.4697  1.2883  0.2918
 8490TIP3    H225435   1.891   2.412   0.371  0.2067 -0.1256  0.6922
 8491TIP3   OH225436   3.087   3.026   3.330  0.3394 -0.3054 -0.0526
 8491TIP3    H125437   3.111   2.948   3.281  0.5759  0.5900 -1.4004
 8491TIP3    H225438   3.010   3.060   3.286  0.3337  0.3194  0.4149
 8492TIP3   OH225439   1.994   1.474   1.241  0.3701 -0.7828 -0.1382
 8492TIP3    H125440   2.061   1.536   1.213  0.1589  0.0013  1.0215
 8492TIP3    H225441   2.019   1.449   1.330 -0.9547 -0.3423  0.3806
 8493TIP3   OH225442   4.878   4.515   5.578 -0.1898 -0.1533  0.1154
 8493TIP3    H125443   4.931   4.502   5.500  0.6937  1.9340  0.3122
 8493TIP3    H225444   4.880   4.430   5.623  1.5189 -0.6188 -0.7787
 8494TIP3   OH225445   0.882   4.813   1.092  0.0847  0.2449 -0.0587
 8494TIP3    H125446   0.846   4.749   1.030  0.4621  1.1426 -1.2417
 8494TIP3    H225447   0.808   4.833   1.150 -0.8451  0.7477 -1.3656
 8495TIP3   OH225448   1.415   6.089   5.419  0.1441 -0.1578  0.2035
 8495TIP3    H125449   1.485   6.026   5.405  2.5773  2.6373 -1.2037
 8495TIP3    H225450   1.460   6.170   5.444 -2.6377  1.6498 -0.2146
 8496TIP3   OH225451   4.587   0.645   0.664  0.1794  0.3340  0.6455
 8496TIP3    H125452   4.580   0.739   0.645  0.9879  0.4173  0.6891
 8496TIP3    H225453   4.662   0.616   0.612  0.8890  0.0469  1.7900
 8497TIP3   OH225454   1.746   2.290   0.616 -0.6035  0.1721  0.4394
 8497TIP3    H125455   1.833   2.281   0.654 -0.4870  0.8362  0.3416
 8497TIP3    H225456   1.757   2.353   0.545 -1.4164  1.3084  1.2957
 8498TIP3   OH225457   5.288   3.751   4.443 -0.4959 -0.1351  0.0605
 8498TIP3    H125458   5.269   3.834   4.486 -1.9661 -1.8749  3.1418
 8498TIP3    H225459   5.378   3.730   4.469 -0.1903  0.3687 -0.5671
 8499TIP3   OH225460   6.349   4.565   1.113 -0.0507 -0.1520 -0.2637
 8499TIP3    H125461   6.292   4.489   1.100  0.5125 -0.3944 -1.4315
 8499TIP3    H225462   6.437   4.529   1.110  0.2026  0.4036  0.3180
 8500TIP3   OH225463   0.869   2.672   2.803  0.0492 -0.3054  0.5223
 8500TIP3    H125464   0.955   2.635   2.820  0.5660  0.9363  0.7550
 8500TIP3    H225465   0.850   2.725   2.881 -0.8129 -0.3811  0.3727
 8501TIP3   OH225466   0.014   5.614   5.462 -0.3003  0.0196 -0.0558
 8501TIP3    H125467  -0.069   5.606   5.415 -0.3421  1.1454 -0.2024
 8501TIP3    H225468   0.065   5.538   5.433 -1.4361 -0.9496  0.4029
 8502TIP3   OH225469   3.152   0.386   2.841  0.2183  0.8325 -0.1177
 8502TIP3    H125470   3.229   0.335   2.816 -0.3471 -0.8591  1.4250
 8502TIP3    H225471   3.174   0.422   2.926  0.0959  2.1402 -0.6154
 8503TIP3   OH225472   2.953   6.105   2.469  0.1729  0.4321  0.2468
 8503TIP3    H125473   2.913   6.040   2.527  0.6148  0.6939  0.8558
 8503TIP3    H225474   3.046   6.081   2.466 -0.1134 -0.5640 -1.6845
 8504TIP3   OH225475   4.595   3.480   0.591 -0.0768  0.2413 -0.4783
 8504TIP3    H125476   4.690   3.496   0.584  0.3219 -1.6783  0.0547
 8504TIP3    H225477   4.575   3.495   0.683 -0.0033 -0.6488 -0.3053
 8505TIP3   OH225478   3.819   2.085   2.134  0.2712  0.1962  0.1579
 8505TIP3    H125479   3.830   1.990   2.130 -1.6373 -0.1966  1.9933
 8505TIP3    H225480   3.894   2.115   2.185  0.4450 -0.4466  0.2959
 8506TIP3   OH225481   1.272   2.389   3.534 -0.7985  0.5476 -0.7252
 8506TIP3    H125482   1.313   2.463   3.489  0.3310  1.3943  1.5091
 8506TIP3    H225483   1.340   2.357   3.594 -2.1356 -0.6397  0.2292
 8507TIP3   OH225484   1.079   5.491   0.086  0.3634  0.5410 -0.0968
 8507TIP3    H125485   1.009   5.464   0.026  0.7437  0.3172 -0.4425
 8507TIP3    H225486   1.088   5.585   0.072 -0.6531  0.7880  0.7792
 8508TIP3   OH225487   6.476   6.131   0.912 -0.0104 -0.7534 -0.0977
 8508TIP3    H125488   6.422   6.080   0.973  0.6591  0.2623  1.3769
 8508TIP3    H225489   6.556   6.080   0.902  0.1325 -0.6280  0.3744
 8509TIP3   OH225490   3.116   2.119   3.464 -0.2313 -0.0239 -0.3630
 8509TIP3    H125491   3.145   2.206   3.492 -1.2874  0.1445  0.2454
 8509TIP3    H225492   3.162   2.058   3.521 -0.9656  0.2342  0.5216
 8510TIP3   OH225493   5.259   1.377   2.529 -0.1260  0.9527  0.9891
 8510TIP3    H125494   5.232   1.419   2.611  0.9121  0.4543  1.6045
 8510TIP3    H225495   5.295   1.293   2.556 -0.0694  0.6406 -0.0234
 8511TIP3   OH225496   0.741   5.106   2.286 -0.5432 -0.4666 -0.1066
 8511TIP3    H125497   0.744   5.186   2.234 -0.9190  0.1702  0.8235
 8511TIP3    H225498   0.705   5.040   2.227  1.3715 -0.4069 -1.4312
 8512TIP3   OH225499   0.654   2.692   3.995 -0.0094 -0.0769  0.2656
 8512TIP3    H125500   0.615   2.611   3.962  2.2275 -1.9496  1.8961
 8512TIP3    H225501   0.708   2.723   3.923  0.0347 -0.6913  0.0266
 8513TIP3   OH225502   3.603   6.487   0.725 -0.0022  0.5034 -0.1992
 8513TIP3    H125503   3.532   6.531   0.770  0.6677  2.3964 -0.8846
 8513TIP3    H225504   3.560   6.440   0.653 -0.8660 -1.0727  1.2855
 8514TIP3   OH225505   5.234   5.976   2.817  0.0860 -0.1672  0.1723
 8514TIP3    H125506   5.294   6.051   2.813 -0.3192  0.1751  0.4581
 8514TIP3    H225507   5.251   5.938   2.903 -0.7940  0.5180  0.6692
 8515TIP3   OH225508   4.060   2.606   3.576  0.0319  0.3179  0.0451
 8515TIP3    H125509   4.035   2.516   3.559 -2.2438  0.6112  1.3460
 8515TIP3    H225510   4.128   2.600   3.643 -0.9751 -0.4344  1.0354
 8516TIP3   OH225511   1.105   4.216   5.767 -0.5884 -0.1124  0.2966
 8516TIP3    H125512   1.076   4.211   5.676  0.0379 -0.7710  0.1277
 8516TIP3    H225513   1.056   4.290   5.803 -0.3519  0.5771 -0.7503
 8517TIP3   OH225514   0.420   6.670   3.977  0.2371  0.2637  0.0850
 8517TIP3    H125515   0.482   6.605   3.943 -0.7636 -0.7269  0.0933
 8517TIP3    H225516   0.338   6.622   3.987 -0.4891  1.4991  0.2642
 8518TIP3   OH225517   1.909   6.411   2.622  0.0685 -0.1342 -0.4634
 8518TIP3    H125518   1.855   6.348   2.574 -2.1131  0.8163  0.6203
 8518TIP3    H225519   1.923   6.483   2.561 -1.3698  0.3721 -0.2207
 8519TIP3   OH225520   4.742   4.717   4.374 -0.5333 -0.8129  0.1949
 8519TIP3    H125521   4.655   4.741   4.405 -0.1426  0.9362  0.0145
 8519TIP3    H225522   4.790   4.799   4.369  0.3947 -1.3924 -2.0043
 8520TIP3   OH225523   5.301   2.465   0.680  0.5286 -0.4538 -0.0317
 8520TIP3    H125524   5.215   2.468   0.640  0.5694  0.9184 -0.0421
 8520TIP3    H225525   5.351   2.534   0.636  1.2394 -0.3974  0.8382
 8521TIP3   OH225526   0.536   5.887   5.771 -0.0769 -0.4615  0.1688
 8521TIP3    H125527   0.544   5.982   5.776 -1.1936 -0.2928 -0.8388
 8521TIP3    H225528   0.624   5.854   5.790  0.9403  0.8656 -1.9069
 8522TIP3   OH225529   3.018   2.328   1.824 -0.1718  0.0468  0.7769
 8522TIP3    H125530   2.937   2.336   1.875 -1.0015 -0.9294 -0.3157
 8522TIP3    H225531   2.989   2.298   1.738  1.2547  0.9408 -0.0579
 8523TIP3   OH225532   3.268   4.880   5.622 -0.0876 -0.3116  0.0550
 8523TIP3    H125533   3.296   4.790   5.603 -0.2050 -0.6156  1.2793
 8523TIP3    H225534   3.257   4.882   5.717 -0.5651  0.8664 -0.0180
 8524TIP3   OH225535   5.722   6.234   1.471  0.4749 -0.7332  0.0729
 8524TIP3    H125536   5.716   6.240   1.566  0.8418 -0.9893  0.1131
 8524TIP3    H225537   5.798   6.179   1.455  0.7046 -0.2942 -0.3793
 8525TIP3   OH225538   4.639   4.722   1.496  0.5173 -0.3611  0.4150
 8525TIP3    H125539   4.694   4.643   1.494  0.4309 -0.4234  0.5198
 8525TIP3    H225540   4.550   4.689   1.502  0.4082 -0.2813 -0.5564
 8526TIP3   OH225541   4.689   1.455   3.890  0.0639  0.1807  0.6767
 8526TIP3    H125542   4.762   1.399   3.865  0.3785  1.0806 -0.5328
 8526TIP3    H225543   4.659   1.420   3.974  1.9744 -0.0998  1.2801
 8527TIP3   OH225544   5.634   6.449   3.277  0.7901 -0.4539 -0.1048
 8527TIP3    H125545   5.721   6.417   3.302  0.1202 -1.5638  0.9404
 8527TIP3    H225546   5.624   6.423   3.185  1.7016  0.0298 -0.3519
 8528TIP3   OH225547   3.562   1.344   1.055  0.0283 -0.0975 -0.8095
 8528TIP3    H125548   3.466   1.340   1.054 -0.0136 -0.4663  1.0858
 8528TIP3    H225549   3.581   1.433   1.085  0.3373  0.3387 -2.1964
 8529TIP3   OH225550   6.589   2.959   4.636  0.2182 -0.0368 -0.4378
 8529TIP3    H125551   6.572   3.050   4.659  1.5919  0.5683 -1.7081
 8529TIP3    H225552   6.558   2.909   4.712 -2.0992  1.3227 -0.3928
 8530TIP3   OH225553   1.898   2.278   0.916 -0.0698  0.0016  0.5374
 8530TIP3    H125554   1.895   2.373   0.908 -1.5585 -0.0663  0.0169
 8530TIP3    H225555   1.916   2.247   0.828 -2.5755 -0.2718  0.0713
 8531TIP3   OH225556   1.197   2.409   1.050 -0.0988 -0.2241  0.0568
 8531TIP3    H125557   1.110   2.430   1.084  0.7239  1.1405  1.4220
 8531TIP3    H225558   1.238   2.356   1.118  1.5092  2.4174  1.3159
 8532TIP3   OH225559   2.901   4.053   5.342 -0.2461 -0.1935  0.0908
 8532TIP3    H125560   2.898   3.959   5.358  2.7216 -0.7022 -1.6152
 8532TIP3    H225561   2.839   4.067   5.270 -0.9063 -0.7761  0.5340
 8533TIP3   OH225562   6.445   6.114   2.725  0.1964  0.4633  0.3150
 8533TIP3    H125563   6.524   6.113   2.671 -0.2120 -2.1786 -0.3441
 8533TIP3    H225564   6.472   6.076   2.808  0.0073  1.2409  0.7414
 8534TIP3   OH225565   0.531   0.957   5.280  0.4104  0.1917 -0.2688
 8534TIP3    H125566   0.587   0.976   5.355  0.2429  0.8388 -0.3032
 8534TIP3    H225567   0.584   0.982   5.204  0.5236 -0.3217 -0.3604
 8535TIP3   OH225568   2.286   0.295   4.057 -0.5270  0.3149  0.1997
 8535TIP3    H125569   2.278   0.313   3.963  0.7916  1.7091  0.3170
 8535TIP3    H225570   2.328   0.209   4.062 -0.5812  0.2456 -0.4782
 8536TIP3   OH225571   2.392   2.044   2.562 -0.3647 -0.0434 -0.2158
 8536TIP3    H125572   2.433   1.971   2.516 -2.8214 -1.2405 -0.6615
 8536TIP3    H225573   2.298   2.031   2.549 -0.9142  3.3219 -0.4827
 8537TIP3   OH225574   6.099   2.234   1.503  0.4196 -0.4258  0.7690
 8537TIP3    H125575   6.160   2.291   1.549 -1.5366  1.3421  1.3060
 8537TIP3    H225576   6.046   2.194   1.572 -1.4955  1.0322  0.2265
 8538TIP3   OH225577   3.631   6.198   1.954 -0.2113  0.6397  0.4574
 8538TIP3    H125578   3.592   6.255   2.020 -0.7939  0.4760  0.2562
 8538TIP3    H225579   3.685   6.137   2.004 -0.2858  0.8085  0.7445
 8539TIP3   OH225580   2.844   5.537   2.436  0.7126  0.2951  0.1489
 8539TIP3    H125581   2.835   5.608   2.373  0.4484  0.8003  0.7569
 8539TIP3    H225582   2.828   5.577   2.521  0.4176 -0.5183  0.4882
 8540TIP3   OH225583   0.241   2.115   3.801 -0.0895  0.4134 -0.6688
 8540TIP3    H125584   0.286   2.052   3.857 -0.9224 -0.3453 -0.8457
 8540TIP3    H225585   0.148   2.104   3.821 -0.2258  2.1385 -0.1125
 8541TIP3   OH225586   4.682   3.263   0.275 -0.2191  0.6168  0.0107
 8541TIP3    H125587   4.685   3.216   0.191 -2.7206  0.1087  0.1208
 8541TIP3    H225588   4.693   3.195   0.341  3.2805  1.1900  0.2204
 8542TIP3   OH225589   6.583   3.807   5.176 -0.2125 -0.3091 -0.2065
 8542TIP3    H125590   6.670   3.841   5.156  0.1678 -0.6162  0.8894
 8542TIP3    H225591   6.527   3.885   5.179  0.0106 -0.1100 -0.9111
 8543TIP3   OH225592   6.185   4.207   5.265 -0.2811 -0.1581  0.1487
 8543TIP3    H125593   6.149   4.228   5.352  0.2506  0.2903  0.2719
 8543TIP3    H225594   6.166   4.285   5.213  1.1634  0.4136  0.4315
 8544TIP3   OH225595   4.070   2.211   0.449 -0.3237 -0.2698 -0.6038
 8544TIP3    H125596   4.039   2.193   0.537 -0.3581 -1.3300 -0.8133
 8544TIP3    H225597   3.992   2.205   0.394 -0.3219  0.4882 -0.7018
 8545TIP3   OH225598   1.045   5.044   5.718  0.0276  0.1045 -0.3790
 8545TIP3    H125599   1.072   5.056   5.809 -0.3049  0.9703 -0.3873
 8545TIP3    H225600   0.963   4.994   5.724 -0.6825  1.2658 -0.1246
 8546TIP3   OH225601   4.856   3.974   0.164 -0.4729 -0.6971 -0.3560
 8546TIP3    H125602   4.804   4.000   0.087 -0.3201  0.5948 -0.0571
 8546TIP3    H225603   4.798   3.916   0.213 -1.1967 -0.2480 -0.6449
 8547TIP3   OH225604   2.247   5.790   0.874 -0.0522  0.1547 -0.0574
 8547TIP3    H125605   2.229   5.723   0.808  1.8790 -0.4858 -0.0005
 8547TIP3    H225606   2.301   5.855   0.827  1.2234 -0.2392  0.8171
 8548TIP3   OH225607   6.093   6.681   5.819 -0.2740  0.5277 -0.0693
 8548TIP3    H125608   6.011   6.633   5.828 -0.1538  0.4252  0.5799
 8548TIP3    H225609   6.077   6.744   5.749 -0.8619  0.4261 -0.0300
 8549TIP3   OH225610   1.418   3.423   1.942 -0.1748  0.1505 -0.0689
 8549TIP3    H125611   1.462   3.505   1.965 -1.0456  1.1087 -1.7016
 8549TIP3    H225612   1.444   3.405   1.852 -1.4806 -0.3597 -0.3670
 8550TIP3   OH225613   3.587   5.183   1.576 -0.2784 -0.6715  0.3383
 8550TIP3    H125614   3.669   5.133   1.572 -0.6961 -1.3336 -2.1072
 8550TIP3    H225615   3.526   5.126   1.622  0.5014 -0.3390  1.8295
 8551TIP3   OH225616   0.547   2.384   1.911 -0.2145 -0.4402  0.1325
 8551TIP3    H125617   0.634   2.424   1.907 -0.2050 -0.5099 -0.4045
 8551TIP3    H225618   0.542   2.329   1.833 -1.5002  1.1486 -0.9747
 8552TIP3   OH225619   4.360   1.052   1.149  0.4637  0.0195 -0.0709
 8552TIP3    H125620   4.391   1.023   1.063  0.4152  1.0736 -0.4546
 8552TIP3    H225621   4.282   0.999   1.165  0.6429 -0.3938 -0.5465
 8553TIP3   OH225622   2.925   2.194   4.880 -0.1218 -0.1015  0.0946
 8553TIP3    H125623   2.893   2.201   4.970  1.1271  0.9649  0.4811
 8553TIP3    H225624   3.011   2.152   4.887  0.2640  0.5581 -0.5311
 8554TIP3   OH225625   0.767   6.109   3.387  0.0556  0.2059 -0.5196
 8554TIP3    H125626   0.719   6.192   3.394 -0.8222 -0.3283  0.0532
 8554TIP3    H225627   0.818   6.105   3.468 -0.2299 -0.0045 -0.3481
 8555TIP3   OH225628   5.854   3.317   0.630  0.3122 -0.0791 -0.2002
 8555TIP3    H125629   5.879   3.226   0.639 -1.1396 -0.4927 -0.0587
 8555TIP3    H225630   5.796   3.320   0.554  0.3268  0.7182 -0.1976
 8556TIP3   OH225631   0.337   0.045   2.121 -0.4212 -0.4143  0.1672
 8556TIP3    H125632   0.306  -0.043   2.098  2.9544 -1.8489  0.5657
 8556TIP3    H225633   0.407   0.030   2.184 -1.5285  2.7820  2.4310
 8557TIP3   OH225634   3.213   0.050   4.640 -0.2730 -0.5802 -0.1218
 8557TIP3    H125635   3.272   0.084   4.707 -0.1520  0.5832 -0.7789
 8557TIP3    H225636   3.187  -0.036   4.671  0.5521 -0.4622  0.9317
 8558TIP3   OH225637   2.907   2.845   3.015 -0.0934  0.2943  0.2624
 8558TIP3    H125638   2.902   2.752   2.996 -2.1117  0.6670 -1.4427
 8558TIP3    H225639   2.995   2.871   2.987  0.1304 -0.9128 -0.1952
 8559TIP3   OH225640   3.661   5.333   3.644 -0.3185  0.6148  0.1668
 8559TIP3    H125641   3.722   5.313   3.716 -1.0759 -1.4934  0.3027
 8559TIP3    H225642   3.692   5.416   3.609  1.4213  0.6012  1.5103
 8560TIP3   OH225643   0.881   5.728   1.836 -0.3571  0.0483 -0.1460
 8560TIP3    H125644   0.912   5.818   1.845  0.8915 -0.4599  0.9608
 8560TIP3    H225645   0.930   5.693   1.761 -0.5563  0.1776 -0.3356
 8561TIP3   OH225646   0.470   4.168   0.142 -0.5279 -0.3437 -0.1860
 8561TIP3    H125647   0.561   4.142   0.131 -1.0513 -1.6606 -1.7871
 8561TIP3    H225648   0.443   4.198   0.055 -1.6103  0.1082  0.2833
 8562TIP3   OH225649   5.569   4.546   0.449  0.5227  0.2410 -0.3115
 8562TIP3    H125650   5.489   4.583   0.486 -0.3482 -1.0747 -0.7992
 8562TIP3    H225651   5.564   4.565   0.356  1.2276  0.9174 -0.2227
 8563TIP3   OH225652   1.778   0.580   3.683  0.4075  0.2016 -0.3882
 8563TIP3    H125653   1.756   0.512   3.620 -0.2864  0.1606 -0.1102
 8563TIP3    H225654   1.864   0.554   3.716  0.4410 -0.1850 -0.7647
 8564TIP3   OH225655   6.415   3.372   5.484 -0.0465 -0.0479 -0.0264
 8564TIP3    H125656   6.336   3.352   5.534 -0.4011 -1.8794 -1.2218
 8564TIP3    H225657   6.435   3.463   5.506 -3.1307  0.8787 -0.5425
 8565TIP3   OH225658   5.259   5.032   3.587  0.0621 -0.3066  0.5181
 8565TIP3    H125659   5.187   5.011   3.646  0.2594 -1.2046  0.4499
 8565TIP3    H225660   5.248   5.125   3.567 -1.3762 -0.5523  0.0972
 8566TIP3   OH225661   0.110   2.808   0.897  0.1551  0.3247 -0.0553
 8566TIP3    H125662   0.158   2.774   0.822 -0.2015  0.6840 -0.4483
 8566TIP3    H225663   0.136   2.900   0.903 -0.0924  0.3894  0.0367
 8567TIP3   OH225664   0.057   4.162   0.295 -0.2392  0.1188 -0.5513
 8567TIP3    H125665   0.005   4.123   0.366  1.0895 -1.2734 -0.2817
 8567TIP3    H225666   0.123   4.095   0.275  0.4958  1.2132 -1.9075
 8568TIP3   OH225667   0.321   2.654   4.009 -0.4143  0.0484 -0.4462
 8568TIP3    H125668   0.252   2.661   3.943  0.5127 -0.6379 -1.5248
 8568TIP3    H225669   0.402   2.664   3.960  0.3289 -1.2545  0.4515
 8569TIP3   OH225670   4.273   4.583   2.316 -0.0462 -0.0569  0.2722
 8569TIP3    H125671   4.252   4.491   2.332 -0.3877 -0.2360 -1.1046
 8569TIP3    H225672   4.296   4.618   2.403 -1.7914 -0.9362  1.1303
 8570TIP3   OH225673   2.343   5.488   4.708  0.3492  0.0199  0.1619
 8570TIP3    H125674   2.431   5.482   4.747  0.2166 -0.2456  0.4229
 8570TIP3    H225675   2.350   5.443   4.624  0.0474 -1.4878  0.9096
 8571TIP3   OH225676   5.473   6.455   0.094 -0.5381  0.1753  0.6331
 8571TIP3    H125677   5.409   6.384   0.082 -1.0656  0.6285  0.7424
 8571TIP3    H225678   5.443   6.524   0.035  0.2823  0.1143  0.1190
 8572TIP3   OH225679   4.257   6.082   2.339 -0.2003  0.4555 -0.0254
 8572TIP3    H125680   4.241   6.031   2.260 -0.4913  0.7315 -0.1458
 8572TIP3    H225681   4.249   6.173   2.311 -0.4497  0.5515  0.3491
 8573TIP3   OH225682   2.349   5.151   2.868  0.5981  0.3469 -0.1456
 8573TIP3    H125683   2.374   5.225   2.812 -0.7208  1.2694  0.4380
 8573TIP3    H225684   2.414   5.083   2.849  1.1131  1.2134 -1.6078
 8574TIP3   OH225685   2.643   2.429   2.693 -0.5497 -0.2004  0.4065
 8574TIP3    H125686   2.559   2.413   2.650 -1.7604  1.7098  1.8927
 8574TIP3    H225687   2.653   2.358   2.756 -0.3026 -1.2414 -0.7746
 8575TIP3   OH225688   6.173   3.555   0.894 -0.2663  0.4680 -0.0013
 8575TIP3    H125689   6.231   3.517   0.827 -1.5453 -1.0650 -0.3175
 8575TIP3    H225690   6.232   3.596   0.957  1.0571  0.5289 -1.2305
 8576TIP3   OH225691   2.492   6.252   5.655  0.3561  0.1099 -0.3717
 8576TIP3    H125692   2.413   6.232   5.705  1.0320  2.5117  1.8891
 8576TIP3    H225693   2.560   6.195   5.691  0.3403  0.2360 -0.1441
 8577TIP3   OH225694   1.770   6.264   2.442 -0.4588  0.3051  0.0107
 8577TIP3    H125695   1.834   6.267   2.370  0.1914 -0.9334  0.5113
 8577TIP3    H225696   1.726   6.349   2.438  0.9883  1.0682 -0.5653
 8578TIP3   OH225697   5.413   6.615   4.028 -0.0819 -0.1503 -0.0771
 8578TIP3    H125698   5.411   6.600   4.123 -0.3234 -1.5339 -0.2881
 8578TIP3    H225699   5.460   6.698   4.019  0.7406 -0.4401  1.2017
 8579TIP3   OH225700   4.615   3.512   0.847 -0.0296  0.1452  0.4756
 8579TIP3    H125701   4.560   3.568   0.902  0.2111 -0.4172  1.3050
 8579TIP3    H225702   4.675   3.470   0.908  0.4716 -0.2351 -0.2644
 8580TIP3   OH225703   2.565   4.245   5.587 -0.0417  0.2853 -0.1772
 8580TIP3    H125704   2.539   4.326   5.542 -0.0657  0.3288 -0.0856
 8580TIP3    H225705   2.611   4.276   5.665 -0.2268  0.2107 -0.0386
 8581TIP3   OH225706   6.010   3.588   1.440  0.1935 -0.9215  0.4775
 8581TIP3    H125707   5.923   3.601   1.402  0.8406  3.6077 -0.0349
 8581TIP3    H225708   6.000   3.513   1.498 -4.1819 -0.3432  0.8099
 8582TIP3   OH225709   2.388   1.570   5.210 -0.3339  0.4730  0.3150
 8582TIP3    H125710   2.383   1.626   5.287  2.0784  0.7622  0.3570
 8582TIP3    H225711   2.479   1.580   5.180 -1.3469  0.9086 -2.9666
 8583TIP3   OH225712   1.311   3.821   3.258 -0.2537 -0.0033  0.2178
 8583TIP3    H125713   1.239   3.790   3.203  1.0197 -0.0203 -1.5144
 8583TIP3    H225714   1.350   3.742   3.295 -0.0440 -0.1143 -0.2430
 8584TIP3   OH225715   2.252   5.046   5.725  0.2482  0.0049 -0.2160
 8584TIP3    H125716   2.314   5.009   5.661 -0.5091  0.5004 -1.2576
 8584TIP3    H225717   2.178   4.986   5.724 -0.4651  0.8813 -1.0188
 8585TIP3   OH225718   1.126   2.896   0.326  0.4841 -0.4820 -0.2489
 8585TIP3    H125719   1.156   2.807   0.345 -0.3835 -0.8322 -0.4762
 8585TIP3    H225720   1.042   2.884   0.282  0.0249  0.4659  0.3367
 8586TIP3   OH225721   1.730   3.975   0.966  0.6187  0.1686 -0.1177
 8586TIP3    H125722   1.798   3.981   0.899  1.0979  1.1968  0.4414
 8586TIP3    H225723   1.694   3.887   0.955  1.9533 -0.3556 -0.5100
 8587TIP3   OH225724   5.468   6.019   5.494  0.0315 -0.1510  0.4194
 8587TIP3    H125725   5.529   5.966   5.443  1.1427 -0.0586  1.6046
 8587TIP3    H225726   5.452   5.968   5.574  0.0805  0.6980  0.9865
 8588TIP3   OH225727   1.751   1.987   3.923 -0.6804 -0.0690  0.9332
 8588TIP3    H125728   1.704   1.945   3.851  1.5329 -0.0820 -0.5815
 8588TIP3    H225729   1.813   2.046   3.881  2.8557 -2.2576  2.5569
 8589TIP3   OH225730   0.157   4.761   3.476 -0.3158 -0.2890 -0.2060
 8589TIP3    H125731   0.199   4.681   3.507  0.7106 -0.0645 -0.9267
 8589TIP3    H225732   0.225   4.803   3.423 -0.3650  1.7384  1.2460
 8590TIP3   OH225733   4.337   3.385   3.971  0.3522 -0.5040  0.5161
 8590TIP3    H125734   4.258   3.336   3.947  0.2863 -0.5266  0.7833
 8590TIP3    H225735   4.355   3.360   4.061  0.6174 -0.4338  0.4819
 8591TIP3   OH225736   0.900   6.223   0.571  0.3711 -0.0572  0.3255
 8591TIP3    H125737   0.853   6.141   0.588  1.2001 -0.7464 -0.6072
 8591TIP3    H225738   0.925   6.218   0.479  0.4167  1.2634  0.2467
 8592TIP3   OH225739   0.737   2.680   0.546  0.2885  0.2342 -0.5685
 8592TIP3    H125740   0.777   2.766   0.556 -1.5080  0.9450  1.1084
 8592TIP3    H225741   0.810   2.618   0.552  1.4621  1.5756 -0.6687
 8593TIP3   OH225742   0.577   5.641   1.652  0.9010  0.1788  0.1462
 8593TIP3    H125743   0.624   5.708   1.602 -0.7289  2.2612  1.2342
 8593TIP3    H225744   0.570   5.679   1.740  1.8082 -2.4140  1.4341
 8594TIP3   OH225745   0.319   1.478   4.742 -0.2843  0.2625  0.0871
 8594TIP3    H125746   0.357   1.552   4.789  0.0989  0.4602 -0.5308
 8594TIP3    H225747   0.288   1.419   4.812  1.0440  0.1516  0.6074
 8595TIP3   OH225748   2.470   0.235   4.784  0.3836  0.4751  0.0446
 8595TIP3    H125749   2.518   0.269   4.708  1.0899 -0.3526  0.0952
 8595TIP3    H225750   2.521   0.158   4.811  0.6969  1.3176  1.9697
 8596TIP3   OH225751   2.402   2.396   4.175  0.1143 -0.4152 -0.1058
 8596TIP3    H125752   2.413   2.491   4.188 -1.0595 -0.1630 -0.8351
 8596TIP3    H225753   2.424   2.382   4.083 -0.5396 -0.7079 -0.2212
 8597TIP3   OH225754   0.471   4.364   2.199 -0.3733  0.1438 -0.3333
 8597TIP3    H125755   0.400   4.301   2.190 -0.8145  0.7424 -1.1950
 8597TIP3    H225756   0.549   4.317   2.170  0.0474 -1.2323  2.6418
 8598TIP3   OH225757   5.984   4.173   3.821  0.0610 -0.6040 -0.1121
 8598TIP3    H125758   5.952   4.094   3.778 -1.8773  0.1534 -0.1700
 8598TIP3    H225759   5.939   4.245   3.775  0.5786  0.4304  0.9532
 8599TIP3   OH225760   2.779   5.930   4.020  0.5423 -0.3851  0.8488
 8599TIP3    H125761   2.829   5.876   3.959 -1.4365 -1.3015 -0.0506
 8599TIP3    H225762   2.773   5.878   4.100 -0.7342 -1.2346  0.2323
 8600TIP3   OH225763   2.118   4.238   1.065  0.6149  0.3914 -0.1953
 8600TIP3    H125764   2.028   4.205   1.072  1.6817 -2.5343  2.5339
 8600TIP3    H225765   2.115   4.324   1.107 -0.9586  0.4575 -0.3740
 8601TIP3   OH225766   1.937   4.146   5.318 -0.0070 -0.1862 -0.1910
 8601TIP3    H125767   1.923   4.236   5.349 -0.2311 -0.3838  0.2801
 8601TIP3    H225768   2.032   4.134   5.322  0.0111 -0.0263 -0.1146
 8602TIP3   OH225769   0.509   5.670   2.103  0.0420  0.5035 -0.1452
 8602TIP3    H125770   0.452   5.594   2.117  0.1857  0.8198  2.7968
 8602TIP3    H225771   0.513   5.713   2.188  1.7600  2.5842 -1.1804
 8603TIP3   OH225772   6.774   0.843   5.456  0.4931 -0.0827 -0.3658
 8603TIP3    H125773   6.846   0.880   5.508 -0.4756 -0.4824  1.3588
 8603TIP3    H225774   6.782   0.749   5.468 -0.6743 -0.1061  0.4250
 8604TIP3   OH225775   0.129   6.018   2.534 -0.1319 -0.2334 -0.6378
 8604TIP3    H125776   0.094   5.937   2.497 -0.6557 -0.0871 -0.4748
 8604TIP3    H225777   0.197   5.989   2.595  0.3549 -0.4972 -1.3049
 8605TIP3   OH225778   6.035   6.198   0.707  0.1195 -0.1734  0.1290
 8605TIP3    H125779   6.031   6.267   0.773 -0.5862 -0.9347  0.9154
 8605TIP3    H225780   6.046   6.118   0.757  2.1154 -0.5452 -0.8341
 8606TIP3   OH225781   3.964   2.203   5.172  0.0820  0.2773 -0.0621
 8606TIP3    H125782   3.971   2.296   5.151  0.6908  0.7828  2.1094
 8606TIP3    H225783   3.890   2.197   5.233  0.5077 -0.5255  0.3962
 8607TIP3   OH225784   3.745   4.174   0.951  0.0994 -0.1057  0.3741
 8607TIP3    H125785   3.669   4.229   0.968 -0.1482 -0.3377  0.0376
 8607TIP3    H225786   3.723   4.128   0.870  0.2051 -0.8844  0.7818
 8608TIP3   OH225787   7.163   0.589   1.525 -0.6552 -0.4741  0.0516
 8608TIP3    H125788   7.194   0.549   1.444 -1.0485 -0.0599 -0.3081
 8608TIP3    H225789   7.100   0.527   1.560 -0.0081 -0.9589  0.3857
 8609TIP3   OH225790   4.083   0.076   1.285 -0.4702 -0.4648  0.2866
 8609TIP3    H125791   4.022   0.141   1.319  1.1501  1.7332 -0.7937
 8609TIP3    H225792   4.100   0.103   1.195  0.9127 -1.9133  0.0566
 8610TIP3   OH225793   1.383   2.485   1.397  0.1621 -0.7840  0.7765
 8610TIP3    H125794   1.297   2.451   1.373  0.5828 -1.3570  0.0248
 8610TIP3    H225795   1.445   2.431   1.347  0.9387 -0.1688  1.0516
 8611TIP3   OH225796   1.155   0.326   3.873 -0.0016  0.5530 -0.0444
 8611TIP3    H125797   1.191   0.392   3.813 -0.6331  1.3577  0.4410
 8611TIP3    H225798   1.202   0.246   3.851  0.3884  1.0335 -1.0289
 8612TIP3   OH225799   4.233   0.485   3.460  0.1538 -0.1161  0.2785
 8612TIP3    H125800   4.276   0.400   3.459 -1.6474 -1.0803 -0.3948
 8612TIP3    H225801   4.218   0.505   3.368  2.6869  2.1496  0.2357
 8613TIP3   OH225802   2.156   4.858   4.861  0.3536  0.4867 -0.4481
 8613TIP3    H125803   2.171   4.912   4.939  1.2012  1.0144 -0.9639
 8613TIP3    H225804   2.134   4.772   4.897 -1.3690  1.2243  0.3885
 8614TIP3   OH225805   2.020   5.995   0.774 -0.6103  0.6994 -0.2607
 8614TIP3    H125806   1.963   5.918   0.779 -0.5583  0.7377  3.1062
 8614TIP3    H225807   2.087   5.979   0.841  0.1343  3.1054 -0.3553
 8615TIP3   OH225808   2.302   3.653   3.875  0.1741  0.6568 -0.3337
 8615TIP3    H125809   2.298   3.733   3.928 -0.6245  0.7357 -0.4993
 8615TIP3    H225810   2.242   3.670   3.802 -0.2367 -0.2124 -0.2090
 8616TIP3   OH225811   6.474   5.587   5.616  0.6402  0.3285  0.0195
 8616TIP3    H125812   6.402   5.610   5.558  0.5013  0.7774  0.3631
 8616TIP3    H225813   6.434   5.531   5.683  0.7802 -0.1096 -0.2653
 8617TIP3   OH225814   5.937   1.410   5.588  0.2732 -0.2313  0.4971
 8617TIP3    H125815   5.878   1.470   5.543  1.8592  1.0863  0.0459
 8617TIP3    H225816   5.909   1.323   5.561 -1.8495  0.2848  0.8469
 8618TIP3   OH225817   5.666   1.374   5.220  0.3578 -0.2063  0.0575
 8618TIP3    H125818   5.692   1.465   5.238  0.0850 -0.3296  1.1710
 8618TIP3    H225819   5.744   1.333   5.183  0.9397  0.1217  0.8727
 8619TIP3   OH225820   3.449   1.674   0.040  0.3005 -0.3578 -0.1233
 8619TIP3    H125821   3.515   1.726   0.085 -0.0423 -0.0240  0.0044
 8619TIP3    H225822   3.366   1.710   0.070  0.0592 -0.1264 -1.0111
 8620TIP3   OH225823   7.207   4.474   0.756 -0.5924 -0.2129  0.5159
 8620TIP3    H125824   7.141   4.493   0.823 -1.4318  1.2321 -0.6514
 8620TIP3    H225825   7.235   4.561   0.725  0.8149 -0.8274 -0.0324
 8621TIP3   OH225826   6.667   6.164   3.450 -0.3174 -0.0583 -0.3272
 8621TIP3    H125827   6.703   6.211   3.525 -1.3281  0.0065  0.1288
 8621TIP3    H225828   6.576   6.192   3.445 -0.1164  0.4265 -1.9688
 8622TIP3   OH225829   2.377   4.250   0.827  0.5451 -0.2909 -0.1771
 8622TIP3    H125830   2.336   4.169   0.856  0.6094 -0.6004 -0.9474
 8622TIP3    H225831   2.467   4.225   0.805 -0.1560 -0.6202 -3.0549
 8623TIP3   OH225832   4.951   2.813   4.191  0.1407  0.3737  0.7980
 8623TIP3    H125833   4.959   2.907   4.175  0.0037  0.5623  1.7488
 8623TIP3    H225834   4.856   2.798   4.197  0.1816  0.3330  1.4458
 8624TIP3   OH225835   4.486   5.189   1.024  0.6981 -0.1979  0.0093
 8624TIP3    H125836   4.440   5.218   0.945  1.3643  0.2343 -0.2296
 8624TIP3    H225837   4.441   5.234   1.095 -0.2846 -1.0476 -0.0540
 8625TIP3   OH225838   3.941   0.027   4.601  0.4976 -0.1828 -0.2237
 8625TIP3    H125839   3.952  -0.068   4.599 -0.2450 -0.2701 -1.1765
 8625TIP3    H225840   3.885   0.046   4.526  1.3372  1.1146 -0.5468
 8626TIP3   OH225841   5.820   5.086   5.368 -0.2158  0.4409 -0.3288
 8626TIP3    H125842   5.780   5.120   5.288 -0.3749  0.3443 -0.2899
 8626TIP3    H225843   5.912   5.072   5.345 -0.3773 -0.1145 -0.6603
 8627TIP3   OH225844   5.583   2.195   4.304  0.4020  0.1492  0.5303
 8627TIP3    H125845   5.600   2.150   4.221  1.0337  0.0928  0.6841
 8627TIP3    H225846   5.595   2.287   4.285  0.1264  0.1723  0.4612
 8628TIP3   OH225847   2.419   2.781   2.598  0.7024  0.0523 -0.4218
 8628TIP3    H125848   2.484   2.844   2.629  0.9674  0.3190 -1.4792
 8628TIP3    H225849   2.397   2.811   2.510  1.3075 -1.6788 -1.2058
 8629TIP3   OH225850   5.803   1.658   4.554  0.0224 -0.9563 -0.0921
 8629TIP3    H125851   5.853   1.679   4.633  1.1850  0.5847 -1.1750
 8629TIP3    H225852   5.713   1.647   4.584 -0.6641  4.5410  0.9664
 8630TIP3   OH225853   5.115   5.909   3.364 -0.4323 -0.6448 -0.1706
 8630TIP3    H125854   5.144   5.867   3.283 -0.4916 -0.9952 -0.0157
 8630TIP3    H225855   5.072   5.989   3.336 -1.6850 -1.4299 -0.5935
 8631TIP3   OH225856   4.086   1.321   0.494  0.0223  0.1885  0.1467
 8631TIP3    H125857   4.127   1.236   0.476 -0.5854  0.1448 -1.1128
 8631TIP3    H225858   4.087   1.328   0.589  1.1476 -0.7011  0.2263
 8632TIP3   OH225859   5.893   6.465   1.612 -0.2955 -0.5971  0.3735
 8632TIP3    H125860   5.956   6.394   1.623  0.5741 -0.0089 -0.6029
 8632TIP3    H225861   5.928   6.516   1.539 -2.4529 -0.8477 -0.9224
 8633TIP3   OH225862   4.566   3.026   2.121  0.2248 -0.4578 -0.2116
 8633TIP3    H125863   4.655   3.014   2.090  0.5157  0.0813  0.4056
 8633TIP3    H225864   4.550   2.950   2.177 -0.3083 -1.4443 -1.6275
 8634TIP3   OH225865   0.776   1.432   3.095 -0.8734  0.4573 -0.1169
 8634TIP3    H125866   0.839   1.385   3.149  0.0795 -0.7208 -2.1557
 8634TIP3    H225867   0.794   1.524   3.113  0.0205  0.1195  0.8668
 8635TIP3   OH225868   4.707   6.767   4.112 -0.0207 -0.3028  0.2424
 8635TIP3    H125869   4.699   6.720   4.195 -0.8073  0.3449  0.5459
 8635TIP3    H225870   4.742   6.702   4.051 -1.7641 -1.5262  0.4671
 8636TIP3   OH225871   2.035   3.716   4.247 -0.4492 -0.1132 -0.0138
 8636TIP3    H125872   2.101   3.652   4.273 -2.3868 -3.5955 -2.7742
 8636TIP3    H225873   2.028   3.707   4.152 -0.6849  4.6043 -0.6864
 8637TIP3   OH225874   4.127   1.881   2.028 -0.1003 -0.6362  0.1716
 8637TIP3    H125875   4.098   1.924   1.948 -1.9801  2.0757  2.0850
 8637TIP3    H225876   4.185   1.945   2.070  0.1722 -1.6156  1.3723
 8638TIP3   OH225877   6.791   3.818   5.433  0.4484 -0.2940 -0.3277
 8638TIP3    H125878   6.724   3.875   5.471  0.9931 -0.1836  0.4866
 8638TIP3    H225879   6.741   3.754   5.381 -0.1188  1.4546 -2.0330
 8639TIP3   OH225880   1.885   5.973   2.077 -0.4312 -0.4457  0.1207
 8639TIP3    H125881   1.910   5.902   2.018  0.4337  1.6839 -2.2412
 8639TIP3    H225882   1.797   5.997   2.049 -0.5788 -0.3356  0.6673
 8640TIP3   OH225883   6.959   0.447   2.529 -0.1662 -0.6307 -0.4492
 8640TIP3    H125884   6.910   0.463   2.449 -0.8653  0.2125  0.1192
 8640TIP3    H225885   7.020   0.521   2.535  0.7225 -1.3280 -0.8159
 8641TIP3   OH225886   4.516   0.544   5.677  0.2601 -0.1075 -0.3556
 8641TIP3    H125887   4.527   0.638   5.689 -0.3131  0.2470 -2.2262
 8641TIP3    H225888   4.422   0.532   5.661  0.1701 -1.1309  0.7805
 8642TIP3   OH225889   1.084   2.780   0.681  0.1955 -0.2299 -0.0328
 8642TIP3    H125890   1.013   2.837   0.651  0.8016 -0.0020 -1.0702
 8642TIP3    H225891   1.040   2.702   0.715 -0.5317 -0.4759 -1.4639
 8643TIP3   OH225892   5.168   5.517   3.264 -0.2496  0.5591  0.2205
 8643TIP3    H125893   5.154   5.423   3.274 -0.1137  0.3490 -1.2799
 8643TIP3    H225894   5.081   5.552   3.242  0.2807  0.1526 -3.0697
 8644TIP3   OH225895   6.998   4.092   1.737 -0.2534 -0.5408 -0.3198
 8644TIP3    H125896   7.086   4.128   1.728 -1.0048  0.9821 -2.4662
 8644TIP3    H225897   6.941   4.169   1.747 -1.5095 -1.3617 -0.7932
 8645TIP3   OH225898   6.006   3.458   5.474 -0.8132 -0.0498  0.1645
 8645TIP3    H125899   5.931   3.401   5.454 -0.3504 -0.0065 -1.9743
 8645TIP3    H225900   6.075   3.398   5.500 -1.1485 -0.2234  0.6618
 8646TIP3   OH225901   6.166   2.931   4.527 -0.2875  0.1094 -0.1402
 8646TIP3    H125902   6.230   2.863   4.547 -0.9904 -0.2455  0.9713
 8646TIP3    H225903   6.180   2.997   4.595 -1.0935  0.0264  0.1145
 8647TIP3   OH225904   6.124   5.335   0.785  0.2211 -0.3239  0.3224
 8647TIP3    H125905   6.120   5.411   0.843 -1.8043 -0.9463  1.0844
 8647TIP3    H225906   6.157   5.369   0.702  0.7031  1.0961  1.0823
 8648TIP3   OH225907   0.784   6.564   3.375  0.0247 -0.6846 -0.3970
 8648TIP3    H125908   0.727   6.635   3.345  0.1297 -0.2795  0.3321
 8648TIP3    H225909   0.818   6.525   3.295  1.0198  0.9369 -0.8083
 8649TIP3   OH225910   3.037   1.380   4.620  0.3197  0.0035 -0.0960
 8649TIP3    H125911   3.052   1.298   4.573 -1.1438 -1.5486  1.9559
 8649TIP3    H225912   2.942   1.388   4.625  0.4284  1.9974 -0.4729
 8650TIP3   OH225913   3.472   6.491   4.799  0.5798 -0.1865 -0.4065
 8650TIP3    H125914   3.413   6.518   4.728 -2.6063 -3.0065  0.9162
 8650TIP3    H225915   3.504   6.406   4.771 -0.9848 -1.4930  1.5264
 8651TIP3   OH225916   2.533   6.063   4.088 -0.2008  0.2183 -0.2487
 8651TIP3    H125917   2.622   6.041   4.060 -0.1193  1.1087 -0.7409
 8651TIP3    H225918   2.543   6.088   4.180  0.2622  1.3495 -0.5851
 8652TIP3   OH225919   5.034   6.450   3.030  0.3696 -0.0530 -0.0669
 8652TIP3    H125920   4.953   6.412   3.065  0.1592 -0.3220 -0.8284
 8652TIP3    H225921   5.009   6.538   3.003  0.5150  0.1291  0.3800
 8653TIP3   OH225922   0.561   2.199   4.528 -0.1366 -0.1583 -0.2513
 8653TIP3    H125923   0.625   2.129   4.512 -0.8675 -0.8887 -0.0380
 8653TIP3    H225924   0.509   2.167   4.602  0.1207  1.0360  0.4766
 8654TIP3   OH225925   4.218   0.844   2.289 -0.1031 -0.0752  0.0078
 8654TIP3    H125926   4.291   0.865   2.230 -0.1516  0.7298  0.2251
 8654TIP3    H225927   4.208   0.922   2.344  0.1968 -0.9647  1.3578
 8655TIP3   OH225928   4.351   4.654   4.256 -0.1131 -0.4278  0.6410
 8655TIP3    H125929   4.351   4.626   4.164  0.0556 -1.9895  1.0897
 8655TIP3    H225930   4.412   4.595   4.299  0.7454  1.0764  1.5650
 8656TIP3   OH225931   3.655   5.065   5.344 -0.3944 -0.6757  0.2016
 8656TIP3    H125932   3.698   5.138   5.301 -0.3210 -0.3081  0.8883
 8656TIP3    H225933   3.572   5.054   5.297 -1.5028  1.3711  1.5386
 8657TIP3   OH225934   1.557   4.997   0.654 -0.4425  0.0619 -0.2443
 8657TIP3    H125935   1.620   4.947   0.705 -0.5915  1.5304  1.4834
 8657TIP3    H225936   1.580   4.979   0.563 -1.0501 -3.7949  0.2071
 8658TIP3   OH225937   2.041   1.504   5.513 -0.0933  0.4869  0.6221
 8658TIP3    H125938   2.072   1.594   5.508  0.8443  0.2480  1.7426
 8658TIP3    H225939   2.117   1.451   5.490 -0.6485 -0.0415 -0.0693
 8659TIP3   OH225940   5.656   6.773   4.286  0.3187  0.2749 -0.1632
 8659TIP3    H125941   5.640   6.802   4.196 -0.1317 -0.4929 -0.3375
 8659TIP3    H225942   5.648   6.678   4.282  1.8673  0.0915  0.3787
 8660TIP3   OH225943   4.339   1.456   0.798  0.3292 -0.0355 -0.4242
 8660TIP3    H125944   4.296   1.477   0.881 -0.8488 -1.4348 -0.6542
 8660TIP3    H225945   4.400   1.386   0.820 -1.1575 -1.5675 -0.9899
 8661TIP3   OH225946   2.408   3.109   5.053 -0.1409  0.1928 -0.3612
 8661TIP3    H125947   2.453   3.107   5.137  1.3187 -0.3652 -1.1084
 8661TIP3    H225948   2.405   3.017   5.026 -0.6219  0.3611 -0.8899
 8662TIP3   OH225949   1.044   1.217   2.713  0.5243  0.0510  0.2169
 8662TIP3    H125950   0.986   1.277   2.668  1.2969  0.3397 -0.4253
 8662TIP3    H225951   1.024   1.228   2.806 -0.7001 -0.1446 -0.0105
 8663TIP3   OH225952   6.301   2.214   5.716  0.5461 -0.1307  0.5115
 8663TIP3    H125953   6.283   2.233   5.624  3.1666 -1.4847 -0.3766
 8663TIP3    H225954   6.260   2.286   5.764 -0.6340  0.7610 -1.7099
 8664TIP3   OH225955   4.911   6.635   4.936  0.2741 -0.0125 -0.1697
 8664TIP3    H125956   4.996   6.648   4.978 -0.0258 -0.9629  0.8007
 8664TIP3    H225957   4.911   6.543   4.911 -0.1390  0.1933 -0.9422
 8665TIP3   OH225958   1.352   2.159   0.081 -0.0209  0.5363 -0.1530
 8665TIP3    H125959   1.423   2.101   0.054 -1.2958 -1.5345  0.6788
 8665TIP3    H225960   1.286   2.149   0.012 -0.6676  0.1613  0.5069
 8666TIP3   OH225961   4.687   6.810   5.028  0.1711  0.2047 -0.0321
 8666TIP3    H125962   4.759   6.748   5.016 -0.2062 -0.6098  1.6426
 8666TIP3    H225963   4.653   6.824   4.940  1.0851 -0.9661 -0.6034
 8667TIP3   OH225964   0.753   0.382   3.684  0.7790 -0.1713  0.3393
 8667TIP3    H125965   0.805   0.461   3.675  0.4989 -0.1535 -1.3706
 8667TIP3    H225966   0.737   0.375   3.778  2.7169  0.5468  0.7754
 8668TIP3   OH225967   3.527   2.502   0.395 -0.1714 -0.5144  0.5224
 8668TIP3    H125968   3.485   2.466   0.473 -1.3621  0.3394  0.3088
 8668TIP3    H225969   3.507   2.596   0.399 -2.1172 -0.7356 -1.8788
 8669TIP3   OH225970   5.371   5.590   1.118  0.1799  0.0110  0.0915
 8669TIP3    H125971   5.334   5.600   1.030  1.0126  0.3914 -0.2220
 8669TIP3    H225972   5.367   5.495   1.134  0.2448 -0.0882 -0.4531
 8670TIP3   OH225973   5.402   5.891   0.503 -0.6547 -0.2886  0.4432
 8670TIP3    H125974   5.443   5.978   0.511  1.3210 -0.9052 -1.8697
 8670TIP3    H225975   5.476   5.830   0.498 -1.9263 -1.8074 -0.6692
 8671TIP3   OH225976   3.952   6.291   5.165  0.2117 -0.3520 -0.5937
 8671TIP3    H125977   4.039   6.326   5.143 -0.1941  0.6576 -0.6192
 8671TIP3    H225978   3.892   6.338   5.107 -0.3723 -0.9315 -0.4653
 8672TIP3   OH225979   7.025   0.939   3.380 -0.6460  0.1214  0.1291
 8672TIP3    H125980   7.034   1.034   3.371 -1.5340  0.5574  2.8976
 8672TIP3    H225981   7.002   0.909   3.292 -2.4423  2.7568 -0.4257
 8673TIP3   OH225982   0.671   3.015   5.345 -0.5029  0.1114 -0.6608
 8673TIP3    H125983   0.745   2.964   5.377  0.3103  1.2991 -0.5856
 8673TIP3    H225984   0.611   2.950   5.309  0.2664 -0.9307 -0.1186
 8674TIP3   OH225985   6.130   1.635   5.340  0.3497 -0.3165  0.7685
 8674TIP3    H125986   6.151   1.690   5.415  0.7302 -0.5350  0.8257
 8674TIP3    H225987   6.208   1.639   5.285  0.2220 -0.4698  0.5739
 8675TIP3   OH225988   5.539   2.836   2.424 -0.1965  0.0107 -0.6483
 8675TIP3    H125989   5.570   2.783   2.498 -1.5593 -0.7750 -0.6063
 8675TIP3    H225990   5.613   2.893   2.403  0.1365  0.4536  1.5078
 8676TIP3   OH225991   6.175   4.800   3.883  0.1392 -0.4537  0.0454
 8676TIP3    H125992   6.201   4.884   3.845 -2.2399 -0.2387 -1.2512
 8676TIP3    H225993   6.227   4.735   3.836  0.4652  0.1363 -0.4201
 8677TIP3   OH225994   1.310   2.180   1.928  0.1615  1.1146 -0.1416
 8677TIP3    H125995   1.384   2.148   1.979 -0.4909  1.7419  1.2538
 8677TIP3    H225996   1.316   2.134   1.844  0.4964 -0.9853  0.9795
 8678TIP3   OH225997   5.079   4.207   3.410  0.2574 -0.2801  0.0909
 8678TIP3    H125998   5.088   4.273   3.341  0.0545  0.6859  0.9518
 8678TIP3    H225999   5.168   4.179   3.429  0.6879  1.9311  1.7264
 8679TIP3   OH226000   1.289   3.362   3.372 -0.0955  0.3647  0.4923
 8679TIP3    H126001   1.255   3.449   3.352 -0.5554  0.4349  1.5343
 8679TIP3    H226002   1.367   3.379   3.425 -0.2905  0.1398  0.8523
 8680TIP3   OH226003   2.754   3.220   5.231  0.2120  0.6734 -0.6805
 8680TIP3    H126004   2.676   3.273   5.247 -2.0059 -2.3863 -0.4623
 8680TIP3    H226005   2.766   3.223   5.136  0.5577  2.0614 -0.6095
 8681TIP3   OH226006   2.018   1.114   5.660 -0.4465  0.4037  0.6814
 8681TIP3    H126007   1.957   1.184   5.685 -1.0014 -0.1198  0.8185
 8681TIP3    H226008   2.009   1.108   5.565 -1.4886 -0.4532  0.8157
 8682TIP3   OH226009   6.074   4.479   0.603  0.5295 -0.7049  0.6497
 8682TIP3    H126010   6.107   4.518   0.684 -1.1244 -1.0477  1.5323
 8682TIP3    H226011   5.987   4.517   0.591  0.0847 -1.8892 -0.0742
 8683TIP3   OH226012   5.449   5.202   1.425  0.3243 -0.4549  0.9516
 8683TIP3    H126013   5.543   5.211   1.442 -0.0478  1.7136  2.2229
 8683TIP3    H226014   5.444   5.174   1.333  2.2103  1.0021  0.3496
 8684TIP3   OH226015   3.355   4.958   1.107  0.4649  0.3976 -0.3024
 8684TIP3    H126016   3.418   4.886   1.114  0.1744  0.1921  0.2754
 8684TIP3    H226017   3.331   4.959   1.014 -0.4053 -1.0166 -0.1292
 8685TIP3   OH226018   3.472   0.631   4.970  0.1877 -0.3671 -0.0185
 8685TIP3    H126019   3.390   0.611   5.016  0.3979 -0.4557  0.3281
 8685TIP3    H226020   3.462   0.720   4.939  0.7675  0.4109  1.8585
 8686TIP3   OH226021   0.550   2.107   0.413 -0.1480 -0.0169  0.2849
 8686TIP3    H126022   0.612   2.180   0.419 -0.3421  0.2177 -0.4708
 8686TIP3    H226023   0.468   2.142   0.448 -0.1119 -0.0167  0.3682
 8687TIP3   OH226024   6.927   4.359   1.064  0.5797 -0.3271 -0.5179
 8687TIP3    H126025   6.845   4.313   1.046  1.1479 -0.9303 -1.7089
 8687TIP3    H226026   6.987   4.290   1.094  0.1911  0.3802  2.1176
 8688TIP3   OH226027   4.282   1.937   4.730  0.2128 -0.4467 -0.2685
 8688TIP3    H126028   4.234   1.865   4.771  2.3521 -0.7739  1.9022
 8688TIP3    H226029   4.322   1.899   4.653 -1.2589 -0.6871 -0.9484
 8689TIP3   OH226030   5.989   5.997   4.920 -0.0777  0.0666  0.1062
 8689TIP3    H126031   6.051   5.946   4.973 -0.4237 -1.2662 -0.7357
 8689TIP3    H226032   6.001   6.087   4.951  1.4994 -0.3072  0.7206
 8690TIP3   OH226033   2.879   5.840   5.729 -0.3563 -0.4141  0.2188
 8690TIP3    H126034   2.823   5.799   5.795 -0.2786  0.0294  0.5680
 8690TIP3    H226035   2.942   5.772   5.705 -0.1231 -0.4553  0.9127
 8691TIP3   OH226036   5.830   2.234   3.967  0.1455  0.4272 -0.8812
 8691TIP3    H126037   5.880   2.283   4.032 -0.7834  1.4066 -0.8838
 8691TIP3    H226038   5.892   2.167   3.935  0.6629 -0.0015  0.8924
 8692TIP3   OH226039   2.926   1.942   2.310  0.0854 -0.7274 -0.4864
 8692TIP3    H126040   2.912   1.860   2.263 -1.2619 -0.2444 -0.9646
 8692TIP3    H226041   2.877   1.932   2.392 -0.7855 -0.0938 -0.9175
 8693TIP3   OH226042   4.575   0.160   2.036  0.3398 -0.0387  0.1674
 8693TIP3    H126043   4.527   0.222   1.981 -0.4599 -2.4814 -2.0976
 8693TIP3    H226044   4.658   0.148   1.991  0.6073 -0.3789  0.7418
 8694TIP3   OH226045   0.211   4.388   0.446  0.0869 -0.2510  0.3986
 8694TIP3    H126046   0.299   4.353   0.433  0.3172  0.0333  1.1529
 8694TIP3    H226047   0.153   4.318   0.418  0.4971 -1.9498  3.4408
 8695TIP3   OH226048   2.840   2.986   2.432  0.5222  0.4613 -0.0599
 8695TIP3    H126049   2.801   2.913   2.480  0.0173 -0.2029 -1.4508
 8695TIP3    H226050   2.923   2.952   2.399  0.4112  0.5939 -0.4834
 8696TIP3   OH226051   1.600   4.681   0.624  0.4034  0.5621 -0.1413
 8696TIP3    H126052   1.668   4.734   0.665  0.3367  0.2399  0.3999
 8696TIP3    H226053   1.596   4.601   0.678 -0.9547  0.9145  0.3297
 8697TIP3   OH226054   4.336   4.703   5.855  0.3128 -0.5202 -0.9154
 8697TIP3    H126055   4.311   4.786   5.896  2.1983  0.0400 -0.8260
 8697TIP3    H226056   4.418   4.679   5.897  0.9701 -1.2644 -2.5496
 8698TIP3   OH226057   7.117   1.109   5.433  0.0752 -0.0885 -0.6884
 8698TIP3    H126058   7.052   1.070   5.492  0.1978 -1.5501 -1.4751
 8698TIP3    H226059   7.199   1.105   5.482  0.2415 -1.5983 -1.0240
 8699TIP3   OH226060   6.202   3.081   3.529  0.5283 -0.2791 -0.1399
 8699TIP3    H126061   6.246   3.135   3.594 -0.3130  0.5340 -0.2241
 8699TIP3    H226062   6.200   3.135   3.450  0.6165 -0.8542 -0.5437
 8700TIP3   OH226063   1.186   0.348   0.970  0.1925 -0.2343 -0.5214
 8700TIP3    H126064   1.276   0.380   0.959  0.1049 -0.6385 -2.7734
 8700TIP3    H226065   1.194   0.253   0.967  0.0433 -0.4845  2.8733
 8701TIP3   OH226066   3.767   2.165   0.916  0.4654  0.1163 -0.3822
 8701TIP3    H126067   3.831   2.116   0.968  1.8509  1.3528 -0.8391
 8701TIP3    H226068   3.749   2.244   0.968 -0.9411 -0.3481 -0.1272
 8702TIP3   OH226069   6.631   4.301   5.060 -0.1247  0.1117 -0.2504
 8702TIP3    H126070   6.723   4.275   5.050  0.3275  1.2948  0.5380
 8702TIP3    H226071   6.597   4.242   5.127 -0.1326 -0.7453 -0.9888
 8703TIP3   OH226072   0.013   3.388   1.364  0.2648 -0.0932 -0.2145
 8703TIP3    H126073   0.026   3.317   1.301  1.1694 -1.0422  0.9979
 8703TIP3    H226074   0.093   3.389   1.417 -0.4720  0.6664  0.9408
 8704TIP3   OH226075   6.472   0.901   4.647  0.0528 -0.1308  0.3002
 8704TIP3    H126076   6.430   0.853   4.576 -0.5066 -0.0877  0.5980
 8704TIP3    H226077   6.422   0.983   4.653  2.9418  2.1197 -2.4345
 8705TIP3   OH226078   4.157   4.533   1.854  0.5875 -0.3429  0.0661
 8705TIP3    H126079   4.180   4.584   1.776 -1.6603  2.1384  0.9046
 8705TIP3    H226080   4.222   4.559   1.920  0.6363 -0.0634 -0.0895
 8706TIP3   OH226081   5.223   1.935   0.234  0.1796  0.3994  0.1833
 8706TIP3    H126082   5.233   1.937   0.138 -1.2116 -0.4150 -0.0066
 8706TIP3    H226083   5.212   1.842   0.254  0.1321  0.6022  1.1062
 8707TIP3   OH226084   3.874   4.802   4.989 -0.0146 -0.4724 -0.4317
 8707TIP3    H126085   3.925   4.758   5.056  0.5275 -0.5170 -0.8668
 8707TIP3    H226086   3.934   4.867   4.952 -0.2780 -0.5087 -0.9330
 8708TIP3   OH226087   6.214   2.078   2.073  0.2591  0.2303  0.2367
 8708TIP3    H126088   6.202   2.165   2.110  1.2486 -0.2472  1.8129
 8708TIP3    H226089   6.299   2.049   2.108  0.4544 -0.9379 -1.1169
 8709TIP3   OH226090   3.954   5.883   1.830 -0.0788 -0.0840  0.1552
 8709TIP3    H126091   4.020   5.842   1.887  0.6000 -0.0960 -0.6230
 8709TIP3    H226092   3.904   5.809   1.796 -1.0422 -0.0321  1.3611
 8710TIP3   OH226093   6.160   0.034   3.583 -0.2513  0.0093 -0.7311
 8710TIP3    H126094   6.066   0.025   3.601 -0.3788  1.5100 -0.4685
 8710TIP3    H226095   6.172  -0.007   3.498 -1.6524  1.9247 -1.9311
 8711TIP3   OH226096   3.269   0.490   5.583  0.6387 -0.3696  0.1476
 8711TIP3    H126097   3.349   0.483   5.635  1.4284 -1.5756 -1.1484
 8711TIP3    H226098   3.207   0.430   5.625  0.6927 -0.0484  0.6822
 8712TIP3   OH226099   3.057   3.500   4.937 -0.3521  0.9958  0.5197
 8712TIP3    H126100   3.042   3.444   4.861 -2.1674  1.2486  0.6433
 8712TIP3    H226101   3.057   3.589   4.902  1.8488  1.0226  0.4233
 8713TIP3   OH226102   6.180   0.785   4.522 -0.1143  0.3796  0.3966
 8713TIP3    H126103   6.203   0.806   4.432 -0.0362  1.1117  0.5789
 8713TIP3    H226104   6.260   0.746   4.559 -0.2590 -0.2601  0.0578
 8714TIP3   OH226105   0.853   2.190   3.429 -0.1258  0.0938 -0.5252
 8714TIP3    H126106   0.918   2.196   3.499 -1.1861  0.4832  0.4745
 8714TIP3    H226107   0.865   2.270   3.378  0.3740  0.0155 -0.5341
 8715TIP3   OH226108   2.195   6.398   2.738 -0.7286 -0.2297 -0.5018
 8715TIP3    H126109   2.157   6.468   2.791 -0.2454  1.5781 -2.4119
 8715TIP3    H226110   2.120   6.354   2.698 -1.1167 -1.7943  1.7526
 8716TIP3   OH226111   1.675   0.632   3.186  0.4651 -0.3565  0.0739
 8716TIP3    H126112   1.611   0.681   3.238  1.2213  2.0768 -1.1110
 8716TIP3    H226113   1.642   0.638   3.096  2.6813  1.7080 -0.6957
 8717TIP3   OH226114   4.827   5.182   2.427  0.2710 -0.5923 -0.3453
 8717TIP3    H126115   4.857   5.221   2.345  0.4610  0.8273  0.3638
 8717TIP3    H226116   4.898   5.198   2.488  0.0729 -1.5113  0.1376
 8718TIP3   OH226117   0.801   6.543   2.938 -0.1430  0.1421 -0.1978
 8718TIP3    H126118   0.822   6.501   3.021  0.5258  0.3866 -0.2419
 8718TIP3    H226119   0.717   6.587   2.954 -1.4791 -2.1233 -0.4818
 8719TIP3   OH226120   0.922   6.431   5.146 -0.2819 -0.1120 -0.1306
 8719TIP3    H126121   0.899   6.405   5.057  0.5497 -1.6986  0.0852
 8719TIP3    H226122   1.009   6.471   5.137 -1.3871  2.4748 -0.4042
 8720TIP3   OH226123   3.630   0.037   4.925 -0.2059  0.2743  0.3407
 8720TIP3    H126124   3.719   0.070   4.912 -0.1328  0.6082  1.5786
 8720TIP3    H226125   3.582   0.110   4.962 -0.3590 -0.5929  1.9607
 8721TIP3   OH226126   6.291   4.936   4.637 -0.2525  0.1227  0.5670
 8721TIP3    H126127   6.367   4.885   4.662  0.0713 -0.1219 -0.7950
 8721TIP3    H226128   6.284   5.005   4.702  1.8623  0.8716  0.0604
 8722TIP3   OH226129   4.552   4.453   1.945  0.2089 -0.0687  0.9788
 8722TIP3    H126130   4.609   4.438   2.020 -0.5868 -1.1429  1.3853
 8722TIP3    H226131   4.482   4.508   1.978 -0.1714 -0.5874  1.0347
 8723TIP3   OH226132   0.671   4.883   2.159  0.2148  0.3710  0.0327
 8723TIP3    H126133   0.666   4.812   2.095 -0.5378  0.8237 -0.4341
 8723TIP3    H226134   0.583   4.886   2.198  0.5337  0.3974  0.7618
 8724TIP3   OH226135   1.612   5.512   4.281  0.2358 -0.3617  0.0242
 8724TIP3    H126136   1.673   5.573   4.240 -0.9322 -0.1908 -1.5724
 8724TIP3    H226137   1.586   5.555   4.363 -0.1708  1.0588 -0.8208
 8725TIP3   OH226138   3.534   0.641   5.779  0.3183  0.3797 -0.1153
 8725TIP3    H126139   3.544   0.701   5.852  0.4236 -1.0597  1.0943
 8725TIP3    H226140   3.578   0.684   5.706  1.4013  1.2411  1.0149
 8726TIP3   OH226141   0.314   0.787   4.431  0.1982 -0.0728 -0.1105
 8726TIP3    H126142   0.232   0.836   4.429  0.1202  0.0429  2.4663
 8726TIP3    H226143   0.314   0.737   4.350 -1.9323  0.6711 -0.6448
 8727TIP3   OH226144   0.110   5.150   3.772  0.2518 -0.4146  0.7377
 8727TIP3    H126145   0.112   5.062   3.809 -1.9137 -0.9078 -0.1482
 8727TIP3    H226146   0.069   5.140   3.687 -1.6962  1.6256  1.3082
 8728TIP3   OH226147   2.753   1.100   3.883  0.6028  0.9752 -0.3308
 8728TIP3    H126148   2.776   1.108   3.791  0.6746 -0.0320 -0.4139
 8728TIP3    H226149   2.689   1.170   3.898 -1.6608 -0.6016 -1.9107
 8729TIP3   OH226150   1.308   2.030   1.142 -1.0652 -0.2784 -0.3711
 8729TIP3    H126151   1.229   2.084   1.139 -0.5721  0.4229 -2.6206
 8729TIP3    H226152   1.365   2.068   1.076  1.1193 -0.8767  1.0737
 8730TIP3   OH226153   6.331   3.710   2.580 -0.7403 -0.2751  0.8399
 8730TIP3    H126154   6.354   3.782   2.639 -1.1788  0.6883 -0.1339
 8730TIP3    H226155   6.236   3.703   2.587 -0.7513 -0.4233  0.5650
 8731TIP3   OH226156   6.835   0.734   2.204  0.2620 -0.0045 -0.3542
 8731TIP3    H126157   6.819   0.658   2.261  2.0085 -1.0909 -1.2409
 8731TIP3    H226158   6.905   0.783   2.248 -1.1205  1.3905  0.4203
 8732TIP3   OH226159   1.437   1.438   1.219 -0.1640 -0.5550 -0.0153
 8732TIP3    H126160   1.422   1.504   1.286  1.2549 -0.1856 -0.0376
 8732TIP3    H226161   1.349   1.418   1.185 -0.8254 -0.2498  1.4496
 8733TIP3   OH226162   0.758   5.670   1.084 -0.0593  0.7108 -0.1861
 8733TIP3    H126163   0.680   5.711   1.122 -0.0923 -0.6347  1.3034
 8733TIP3    H226164   0.788   5.609   1.152  1.7825  0.5583 -1.0901
 8734TIP3   OH226165   4.649   4.024   3.468 -0.1813 -0.0996  0.3595
 8734TIP3    H126166   4.628   4.089   3.536 -0.4179  1.6731 -1.3009
 8734TIP3    H226167   4.603   4.057   3.390  3.4141  0.3200 -1.7747
 8735TIP3   OH226168   2.022   0.143   1.339 -0.1613 -0.2049  0.0339
 8735TIP3    H126169   2.091   0.136   1.405  0.0449  0.1674 -0.1396
 8735TIP3    H226170   2.063   0.191   1.267 -0.1910 -1.1612 -0.6346
 8736TIP3   OH226171   1.406   1.410   5.168 -0.3359  0.0802  0.2504
 8736TIP3    H126172   1.496   1.436   5.146 -0.8659  3.0286  1.0694
 8736TIP3    H226173   1.416   1.331   5.222  1.5673 -1.0395 -1.5911
 8737TIP3   OH226174   1.444   2.302   3.207  0.7189 -0.2745  0.0678
 8737TIP3    H126175   1.356   2.278   3.239  1.7295 -1.9383  1.8368
 8737TIP3    H226176   1.428   2.341   3.121 -1.7390 -0.7866  0.2035
 8738TIP3   OH226177   4.588   3.337   4.229  0.6698 -0.2391  0.3723
 8738TIP3    H126178   4.632   3.254   4.249 -0.6442 -0.5666  2.1350
 8738TIP3    H226179   4.495   3.316   4.232  0.3163  1.2256  0.4860
 8739TIP3   OH226180   3.172   3.305   0.054 -0.1877 -0.2167 -0.2517
 8739TIP3    H126181   3.229   3.259   0.115 -0.8669 -0.0139  0.5626
 8739TIP3    H226182   3.225   3.377   0.020  1.0947 -1.8721 -2.0007
 8740TIP3   OH226183   6.346   6.707   1.535  0.0637 -0.5540 -0.6093
 8740TIP3    H126184   6.362   6.656   1.455 -1.9179  0.5915 -1.8184
 8740TIP3    H226185   6.285   6.654   1.585  0.5773 -0.8434 -0.2794
 8741TIP3   OH226186   3.333   2.339   5.534 -0.6288 -0.0712 -0.2489
 8741TIP3    H126187   3.293   2.409   5.586  0.7637  0.4810  0.1040
 8741TIP3    H226188   3.373   2.281   5.599  1.0899  0.6006 -0.6525
 8742TIP3   OH226189   3.454   6.542   2.638 -0.6598  0.0987 -0.1825
 8742TIP3    H126190   3.435   6.469   2.696  0.7181 -1.7275 -1.9014
 8742TIP3    H226191   3.459   6.504   2.551 -2.3192  2.6749 -1.5378
 8743TIP3   OH226192   5.891   5.992   5.738 -0.4437  0.4400  0.0253
 8743TIP3    H126193   5.879   5.897   5.733 -2.1320  0.6492 -0.3750
 8743TIP3    H226194   5.865   6.015   5.827  1.2487  0.4037  0.5763
 8744TIP3   OH226195   3.778   6.605   5.494 -0.1729  0.2980  0.2458
 8744TIP3    H126196   3.685   6.628   5.498 -0.2360  0.1173 -0.1292
 8744TIP3    H226197   3.804   6.593   5.585 -1.0782 -1.8083  0.2929
 8745TIP3   OH226198   3.821   0.366   4.448  0.1644 -0.2439  0.5201
 8745TIP3    H126199   3.916   0.360   4.454  0.0208 -1.1578  2.9828
 8745TIP3    H226200   3.802   0.459   4.454  0.8819 -0.0221 -0.3863
 8746TIP3   OH226201   6.336   3.118   0.076 -0.3014 -0.2709 -0.4390
 8746TIP3    H126202   6.427   3.142   0.060 -0.3745 -0.2224 -0.7829
 8746TIP3    H226203   6.334   3.092   0.168  0.1074 -0.4922 -0.4897
 8747TIP3   OH226204   0.404   2.154   0.805 -0.1863 -0.6435 -0.0926
 8747TIP3    H126205   0.479   2.101   0.778  0.2601 -0.2142  0.2830
 8747TIP3    H226206   0.442   2.231   0.846 -0.8389 -0.7679  0.7816
 8748TIP3   OH226207   6.772   5.618   3.800 -0.2263  0.1436 -0.0117
 8748TIP3    H126208   6.725   5.642   3.720 -0.8734  0.6169  0.5001
 8748TIP3    H226209   6.862   5.643   3.783  0.3176 -2.5607 -1.7727
 8749TIP3   OH226210   3.257   5.317   3.178  0.1872 -0.4839 -0.3795
 8749TIP3    H126211   3.318   5.292   3.108  0.3377 -0.2245 -0.3406
 8749TIP3    H226212   3.274   5.253   3.247 -1.7848 -2.4354 -1.5473
 8750TIP3   OH226213   1.400   0.336   3.020  0.1654  0.5443 -0.0596
 8750TIP3    H126214   1.328   0.398   3.026  0.9555  1.4571  0.2098
 8750TIP3    H226215   1.383   0.287   2.939 -0.6969  0.8115 -0.0486
 8751TIP3   OH226216   7.156   6.643   2.219  0.3397  0.3710 -0.1394
 8751TIP3    H126217   7.187   6.712   2.279  0.3912  0.3486 -0.1396
 8751TIP3    H226218   7.187   6.562   2.259 -1.7500  0.1261  1.1607
 8752TIP3   OH226219   3.398   2.488   0.635 -0.2548  0.5767  0.5647
 8752TIP3    H126220   3.335   2.428   0.675 -1.2069 -0.1011 -1.7595
 8752TIP3    H226221   3.474   2.486   0.693 -0.9527 -1.4930  1.4889
 8753TIP3   OH226222   6.244   5.507   0.594 -0.1158  0.4181  0.3225
 8753TIP3    H126223   6.207   5.594   0.609  0.2588  0.7933 -0.8279
 8753TIP3    H226224   6.337   5.523   0.578 -0.3376  0.0076 -1.5489
 8754TIP3   OH226225   3.196   4.116   0.389 -0.6613  0.5779  0.0229
 8754TIP3    H126226   3.165   4.206   0.378  0.0878  0.6996 -1.2731
 8754TIP3    H226227   3.147   4.066   0.324  0.5177  0.4564 -0.7977
 8755TIP3   OH226228   2.810   6.214   4.007 -0.2920  0.2369  0.2083
 8755TIP3    H126229   2.730   6.253   3.972 -0.4547  0.5279  0.8981
 8755TIP3    H226230   2.805   6.122   3.981  0.8227  0.9085 -2.7726
 8756TIP3   OH226231   6.065   3.741   0.259 -0.1510 -0.2899 -0.1788
 8756TIP3    H126232   6.041   3.652   0.236 -4.3079  0.4177  0.5490
 8756TIP3    H226233   6.042   3.749   0.352 -3.5593  2.3972 -1.0477
 8757TIP3   OH226234   4.999   0.269   0.498 -0.5891 -0.6497  0.4347
 8757TIP3    H126235   4.987   0.175   0.506 -1.0451 -0.7309 -0.9617
 8757TIP3    H226236   5.087   0.280   0.464 -0.9203 -0.6535 -0.4675
 8758TIP3   OH226237   4.431   4.682   0.974 -0.0824  0.3425  0.3298
 8758TIP3    H126238   4.417   4.601   0.925  1.6242  0.7885 -0.9758
 8758TIP3    H226239   4.458   4.653   1.061 -1.6400 -0.4561  0.5825
 8759TIP3   OH226240   5.585   3.889   4.870  0.3435 -0.5133 -0.1534
 8759TIP3    H126241   5.640   3.915   4.945  0.8335 -1.3718 -0.1992
 8759TIP3    H226242   5.580   3.968   4.816  0.2631  0.0209  0.6096
 8760TIP3   OH226243   0.365   0.385   0.896  0.0755  0.3665 -0.1316
 8760TIP3    H126244   0.448   0.432   0.901  0.7900 -0.5501 -2.3041
 8760TIP3    H226245   0.385   0.297   0.928 -0.8796  0.9719  2.3801
 8761TIP3   OH226246   2.130   0.285   3.610  0.4661 -0.2291 -0.0197
 8761TIP3    H126247   2.194   0.306   3.678  1.0188 -0.0306 -0.5878
 8761TIP3    H226248   2.063   0.233   3.655  1.4732 -1.2071  0.4161
 8762TIP3   OH226249   5.252   0.344   0.401  0.7327 -0.5653 -0.5329
 8762TIP3    H126250   5.257   0.260   0.355  1.6330 -0.8411  0.0292
 8762TIP3    H226251   5.278   0.408   0.335 -0.6437 -0.6282 -1.1677
 8763TIP3   OH226252   2.465   5.880   1.155 -0.0417 -0.1592 -0.0214
 8763TIP3    H126253   2.523   5.906   1.083  0.2484 -3.4479 -1.1911
 8763TIP3    H226254   2.385   5.850   1.111 -0.4475 -0.8227  1.1242
 8764TIP3   OH226255   5.275   1.449   2.246 -0.6564  0.2484  0.2904
 8764TIP3    H126256   5.284   1.388   2.172  0.5339  0.5112  0.2012
 8764TIP3    H226257   5.267   1.391   2.322 -2.2851 -0.0290 -0.0583
 8765TIP3   OH226258   6.506   5.968   5.547 -0.0977  0.1151 -0.3932
 8765TIP3    H126259   6.449   6.024   5.599 -1.1696  0.6436 -2.0468
 8765TIP3    H226260   6.594   5.996   5.570 -0.5581  0.9642  0.4289
 8766TIP3   OH226261   3.758   4.795   3.173 -0.5651  0.2407 -0.1029
 8766TIP3    H126262   3.844   4.807   3.212 -1.1403  1.5526  0.8283
 8766TIP3    H226263   3.697   4.796   3.247 -1.6551  2.5219 -0.9222
 8767TIP3   OH226264   6.252   2.521   2.630 -0.0328 -0.1307  0.3923
 8767TIP3    H126265   6.316   2.468   2.583 -0.5291  0.7203 -1.3329
 8767TIP3    H226266   6.190   2.458   2.666  0.5734 -0.8277  0.2427
 8768TIP3   OH226267   0.758   0.486   0.435  0.1719 -0.7016 -0.0060
 8768TIP3    H126268   0.798   0.399   0.434  0.5938 -0.5068 -0.2073
 8768TIP3    H226269   0.727   0.499   0.346  0.3609 -0.5282 -0.0458
 8769TIP3   OH226270   1.928   2.888   5.034  0.1246 -0.1940  0.0736
 8769TIP3    H126271   1.947   2.841   5.115 -0.0185 -0.8455 -0.2631
 8769TIP3    H226272   1.939   2.822   4.965 -1.5729 -0.1591 -0.2784
 8770TIP3   OH226273   5.887   0.443   1.889 -0.0139 -0.0296 -0.0704
 8770TIP3    H126274   5.968   0.475   1.850 -0.4996  0.3025 -0.8495
 8770TIP3    H226275   5.873   0.358   1.848  0.0242 -0.1588  0.1840
 8771TIP3   OH226276   0.733   0.856   1.219  0.0089 -0.7041  0.2151
 8771TIP3    H126277   0.796   0.926   1.202  1.6093 -1.9848  0.6167
 8771TIP3    H226278   0.651   0.902   1.238  0.5058  0.9826 -1.4115
 8772TIP3   OH226279   7.171   5.086   4.397  0.1841 -0.0772 -0.0875
 8772TIP3    H126280   7.245   5.147   4.401  1.0663 -1.1735  1.3950
 8772TIP3    H226281   7.143   5.077   4.488 -0.1045 -1.6589 -0.3131
 8773TIP3   OH226282   4.958   6.223   1.544 -0.2897  0.1182 -0.1499
 8773TIP3    H126283   4.911   6.140   1.541  0.6265 -0.4189 -0.1312
 8773TIP3    H226284   4.909   6.276   1.607 -0.6459 -0.5596  0.1563
 8774TIP3   OH226285   4.185   0.161   2.777  0.0254  0.1131 -0.1363
 8774TIP3    H126286   4.148   0.158   2.689  0.6934 -0.5318 -0.4084
 8774TIP3    H226287   4.252   0.093   2.777 -0.5945 -0.5338  1.1625
 8775TIP3   OH226288   1.792   2.792   4.272 -0.3328 -0.2797  0.0125
 8775TIP3    H126289   1.866   2.738   4.296 -0.2723 -0.5106 -0.6708
 8775TIP3    H226290   1.724   2.771   4.336 -0.0218 -0.5330  0.2588
 8776TIP3   OH226291   0.856   2.904   1.739 -0.2676  0.1312 -0.1105
 8776TIP3    H126292   0.792   2.973   1.756  0.8435  0.8527  1.2958
 8776TIP3    H226293   0.941   2.947   1.748  0.4986 -1.6487  2.2222
 8777TIP3   OH226294   1.433   1.483   3.708  0.7541  0.0872 -0.0978
 8777TIP3    H126295   1.360   1.430   3.676  0.9160 -0.7230  0.8298
 8777TIP3    H226296   1.480   1.509   3.628 -0.5759  0.6982 -0.7161
 8778TIP3   OH226297   4.133   5.029   3.691 -0.0151  0.5671  0.2185
 8778TIP3    H126298   4.176   5.097   3.639  1.6613 -0.0034  0.7933
 8778TIP3    H226299   4.191   5.017   3.767  1.1072 -3.1354 -1.0181
 8779TIP3   OH226300   0.902   2.544   0.048 -0.3198  0.3654 -0.6381
 8779TIP3    H126301   0.906   2.586  -0.038 -1.1631  1.6415 -0.1046
 8779TIP3    H226302   0.861   2.459   0.032  0.3946  0.1868 -1.6112
 8780TIP3   OH226303   3.202   5.487   4.066 -0.0946  0.1823 -0.2908
 8780TIP3    H126304   3.257   5.409   4.074 -0.5075 -0.1541 -0.6682
 8780TIP3    H226305   3.261   5.560   4.084 -0.0473 -0.2811  1.7133
 8781TIP3   OH226306   0.069   4.030   4.161  0.7194  0.2251 -0.2987
 8781TIP3    H126307   0.045   4.075   4.080  1.1315 -0.4185 -0.7928
 8781TIP3    H226308   0.126   4.093   4.207  1.8847 -0.0386 -1.3176
 8782TIP3   OH226309   3.407   5.234   2.973  0.7176 -0.8356  0.2414
 8782TIP3    H126310   3.470   5.167   2.946 -0.2323 -1.9432  0.6964
 8782TIP3    H226311   3.460   5.313   2.985  1.5960 -0.9417 -2.2552
 8783TIP3   OH226312   4.242   1.805   5.710  0.1651  0.2081 -0.1361
 8783TIP3    H126313   4.288   1.871   5.762  1.2807 -0.5114 -0.1805
 8783TIP3    H226314   4.279   1.722   5.739 -1.0268 -0.3812 -0.2816
 8784TIP3   OH226315   3.898   2.575   1.005 -0.1487 -0.1493 -0.4336
 8784TIP3    H126316   3.986   2.612   1.016 -0.5948  0.8820 -0.1552
 8784TIP3    H226317   3.897   2.497   1.061  0.5835 -0.1506 -0.4201
 8785TIP3   OH226318   3.616   1.150   0.427 -0.7303 -0.0314  0.1738
 8785TIP3    H126319   3.538   1.174   0.476 -0.8458 -1.2706  0.6446
 8785TIP3    H226320   3.597   1.062   0.393  0.0606  0.0688 -0.5720
 8786TIP3   OH226321   1.492   6.263   1.653 -0.2585  0.5369  0.0173
 8786TIP3    H126322   1.575   6.257   1.605 -0.6800 -2.1726 -0.4962
 8786TIP3    H226323   1.456   6.348   1.626  1.2525  0.7337 -1.5728
 8787TIP3   OH226324   4.380   0.258   3.186  0.2689  0.4470 -0.0295
 8787TIP3    H126325   4.432   0.262   3.266  1.1594  0.6803 -0.6011
 8787TIP3    H226326   4.304   0.205   3.209  0.6791  0.2383  0.8780
 8788TIP3   OH226327   1.652   5.221   0.393 -0.1488 -0.0536  0.0147
 8788TIP3    H126328   1.744   5.244   0.405  1.4755 -5.5322  0.9038
 8788TIP3    H226329   1.605   5.280   0.453  2.8643  1.9837  0.6264
 8789TIP3   OH226330   3.706   0.252   0.199 -0.0263  0.0790  0.3559
 8789TIP3    H126331   3.652   0.256   0.278  1.1063 -0.3568  1.1619
 8789TIP3    H226332   3.772   0.185   0.217 -0.1774 -0.5483 -1.2422
 8790TIP3   OH226333   2.504   4.371   0.051 -0.1428 -0.1993  0.2289
 8790TIP3    H126334   2.546   4.350  -0.032  0.2686 -0.4841  0.5050
 8790TIP3    H226335   2.493   4.466   0.049 -1.1896 -0.3147 -0.6394
 8791TIP3   OH226336   6.908   0.310   1.093 -0.6594 -0.2671 -0.6890
 8791TIP3    H126337   6.990   0.360   1.081 -0.3341  0.3021  2.9269
 8791TIP3    H226338   6.931   0.221   1.068  1.2492 -0.1994  0.5923
 8792TIP3   OH226339   6.299   6.731   3.065 -0.0364 -0.1455 -0.0338
 8792TIP3    H126340   6.395   6.739   3.064  0.0213 -0.6551  0.8697
 8792TIP3    H226341   6.269   6.804   3.118 -0.1633  0.1153 -0.4622
 8793TIP3   OH226342   3.961   2.833   2.579 -0.1614  0.2011 -0.2709
 8793TIP3    H126343   3.942   2.859   2.489 -1.5454  0.1185 -0.0320
 8793TIP3    H226344   3.923   2.745   2.587  3.6199 -1.6661 -0.7975
 8794TIP3   OH226345   3.426   5.016   5.163 -0.3676 -0.2767 -0.0835
 8794TIP3    H126346   3.420   4.925   5.193 -0.0802 -0.4179 -0.4559
 8794TIP3    H226347   3.361   5.023   5.093  1.7397 -1.0752 -2.2525
 8795TIP3   OH226348   4.991   1.469   3.213  0.1211  0.0840 -0.2998
 8795TIP3    H126349   4.983   1.376   3.192  1.2156 -0.1964  0.4710
 8795TIP3    H226350   5.077   1.494   3.180  1.2758 -0.0183  2.4496
 8796TIP3   OH226351   2.391   5.168   4.055  0.1092  0.4852 -0.2024
 8796TIP3    H126352   2.356   5.123   3.978  0.6417  1.8617 -1.2814
 8796TIP3    H226353   2.380   5.104   4.126 -1.7819 -0.2451 -1.0797
 8797TIP3   OH226354   7.198   0.639   3.506  0.2642 -0.3967  0.1467
 8797TIP3    H126355   7.154   0.642   3.421  0.0375 -1.2038  0.2345
 8797TIP3    H226356   7.214   0.731   3.528 -2.4569  0.0177  0.6885
 8798TIP3   OH226357   6.650   1.161   1.657 -0.0421 -0.0878 -0.1538
 8798TIP3    H126358   6.683   1.071   1.655 -0.8592 -0.4928  1.9747
 8798TIP3    H226359   6.559   1.154   1.629 -0.0495  0.1196 -0.1856
 8799TIP3   OH226360   3.652   0.600   1.645  0.1030 -0.2248  0.2878
 8799TIP3    H126361   3.633   0.693   1.657 -0.1582 -0.3645  0.9851
 8799TIP3    H226362   3.574   0.565   1.604 -0.0181 -0.2396  0.5275
 8800TIP3   OH226363   6.534   4.599   0.643 -0.5570 -0.1982 -0.2492
 8800TIP3    H126364   6.531   4.543   0.565 -0.9307 -0.9685  0.3076
 8800TIP3    H226365   6.624   4.631   0.645 -0.3572 -0.7149 -0.6249
 8801TIP3   OH226366   1.258   4.224   2.068 -0.0625 -0.8962  0.1437
 8801TIP3    H126367   1.252   4.170   1.989  0.2468 -0.7027 -0.0102
 8801TIP3    H226368   1.207   4.175   2.133  0.4538 -1.5230  0.0881
 8802TIP3   OH226369   6.576   4.898   0.209 -0.0578 -0.4876 -1.0409
 8802TIP3    H126370   6.652   4.955   0.214 -0.7302  0.3190  1.0528
 8802TIP3    H226371   6.501   4.958   0.208 -0.7189 -1.2888 -1.8867
 8803TIP3   OH226372   6.874   0.589   0.268  0.6779  0.1155  0.1023
 8803TIP3    H126373   6.832   0.559   0.349  0.0906 -1.0238 -0.6064
 8803TIP3    H226374   6.940   0.523   0.249 -1.4914 -1.5818 -2.1707
 8804TIP3   OH226375   0.793   2.650   1.825 -0.1105  0.2452  0.0141
 8804TIP3    H126376   0.800   2.734   1.781 -1.7450  0.3281 -0.1243
 8804TIP3    H226377   0.875   2.605   1.804  0.3853  1.4323 -0.6573
 8805TIP3   OH226378   2.934   4.197   0.842 -0.3985  0.3382  0.0987
 8805TIP3    H126379   2.959   4.127   0.781  0.9174  0.5447  0.3747
 8805TIP3    H226380   2.949   4.160   0.929  1.5464  1.3378  0.2529
 8806TIP3   OH226381   4.297   6.096   1.254 -0.0047  0.2977 -0.3715
 8806TIP3    H126382   4.206   6.122   1.269 -0.2241  0.2634 -1.5252
 8806TIP3    H226383   4.290   6.014   1.205  0.6188  1.1676 -1.9663
 8807TIP3   OH226384   1.919   4.103   3.800  0.2154  0.5233  0.3948
 8807TIP3    H126385   1.973   4.108   3.721 -0.5633  0.7389 -0.1436
 8807TIP3    H226386   1.829   4.104   3.767 -0.1151 -0.4799  1.2396
 8808TIP3   OH226387   5.406   5.282   1.924 -0.2600 -0.0696  0.0009
 8808TIP3    H126388   5.426   5.210   1.864 -0.1953 -0.5828  0.6298
 8808TIP3    H226389   5.339   5.246   1.982 -1.3504  0.8803 -0.6439
 8809TIP3   OH226390   6.016   2.336   2.849 -0.1227  0.0786  0.3504
 8809TIP3    H126391   6.046   2.246   2.862  0.0771 -0.2008 -1.6988
 8809TIP3    H226392   5.956   2.331   2.775  0.2926  1.6979 -0.1436
 8810TIP3   OH226393   2.732   4.789   5.213  0.2603  0.1509 -0.3083
 8810TIP3    H126394   2.641   4.816   5.225  0.2011 -0.3684  0.5070
 8810TIP3    H226395   2.767   4.852   5.150 -0.2352  1.3010  0.5259
 8811TIP3   OH226396   0.587   6.431   2.453 -0.8857  0.2035 -0.8844
 8811TIP3    H126397   0.558   6.505   2.401 -1.4159 -0.0991 -1.0230
 8811TIP3    H226398   0.516   6.367   2.446 -2.0931  1.0509  2.1105
 8812TIP3   OH226399   1.511   5.729   3.238  0.2675 -0.2553 -0.2986
 8812TIP3    H126400   1.487   5.795   3.304 -0.0463  0.5311 -1.1794
 8812TIP3    H226401   1.543   5.655   3.289 -2.3384 -0.6905  0.9018
 8813TIP3   OH226402   1.093   1.326   4.022 -0.2148  0.0603 -0.4158
 8813TIP3    H126403   1.178   1.288   4.041 -0.6069 -1.1376 -0.9215
 8813TIP3    H226404   1.112   1.406   3.973  0.6101 -0.7243 -1.4201
 8814TIP3   OH226405   0.241   4.011   5.564  0.2774  0.2623 -0.1152
 8814TIP3    H126406   0.274   4.013   5.474  0.6740  0.0969  0.0238
 8814TIP3    H226407   0.167   3.951   5.561  0.2922  0.2529 -0.3314
 8815TIP3   OH226408   2.782   4.744   0.182 -0.1423  0.0108 -0.0114
 8815TIP3    H126409   2.792   4.691   0.103 -0.5032  0.6483 -0.4949
 8815TIP3    H226410   2.757   4.831   0.150  1.2277  0.7083  0.7193
 8816TIP3   OH226411   2.089   3.310   2.769  0.2627  0.1906 -0.3027
 8816TIP3    H126412   2.039   3.281   2.845 -0.7339 -0.1098 -1.0587
 8816TIP3    H226413   2.031   3.372   2.724  0.1721 -0.8350 -1.6784
 8817TIP3   OH226414   1.666   0.595   4.249 -0.4050  0.4178  0.4015
 8817TIP3    H126415   1.646   0.501   4.242 -1.2102  0.5724  0.4914
 8817TIP3    H226416   1.648   0.630   4.162 -0.2800  0.5217  0.4172
 8818TIP3   OH226417   6.946   5.346   1.526 -0.5035 -0.2755 -0.0275
 8818TIP3    H126418   6.987   5.339   1.440 -1.0321 -0.0763 -0.3020
 8818TIP3    H226419   6.903   5.431   1.525 -1.2731 -0.6574  0.0884
 8819TIP3   OH226420   3.231   5.224   5.292  0.3683 -0.5485 -0.6913
 8819TIP3    H126421   3.291   5.293   5.262 -2.8447  1.9480 -1.9783
 8819TIP3    H226422   3.226   5.237   5.387 -0.0589  0.9653 -0.8876
 8820TIP3   OH226423   4.709   6.650   5.618 -0.0985 -0.4199 -0.4162
 8820TIP3    H126424   4.697   6.574   5.561  1.2355 -1.2390  0.3277
 8820TIP3    H226425   4.668   6.624   5.701 -1.6644  0.5984 -0.8323
 8821TIP3   OH226426   5.149   2.467   1.280  0.0723 -0.1160  0.7945
 8821TIP3    H126427   5.230   2.496   1.322  0.5633  0.4761 -0.5072
 8821TIP3    H226428   5.133   2.531   1.211 -0.6096 -1.1340 -0.0323
 8822TIP3   OH226429   0.597   4.918   1.830  0.3027 -0.0619 -0.4681
 8822TIP3    H126430   0.523   4.937   1.888  0.3895  0.1138 -0.4155
 8822TIP3    H226431   0.643   4.846   1.873 -0.6240 -1.1296 -1.1909
 8823TIP3   OH226432   5.146   4.003   2.233  0.2132 -0.3491 -0.4407
 8823TIP3    H126433   5.177   3.979   2.321  0.9083  0.2341 -0.5192
 8823TIP3    H226434   5.053   3.982   2.235  0.3960 -1.1694  0.1435
 8824TIP3   OH226435   3.401   0.682   3.731 -0.2710  0.1884 -0.6126
 8824TIP3    H126436   3.337   0.616   3.702  0.2528 -0.8598  0.4843
 8824TIP3    H226437   3.353   0.765   3.729 -1.2827 -0.3892 -1.0028
 8825TIP3   OH226438   4.520   1.016   2.441 -0.7214  0.9331 -0.1853
 8825TIP3    H126439   4.507   1.050   2.353 -2.9583  1.3726  0.2510
 8825TIP3    H226440   4.556   0.928   2.428 -0.9638  1.0172 -1.5320
 8826TIP3   OH226441   2.227   0.455   3.406 -0.0527 -0.3361  0.6604
 8826TIP3    H126442   2.201   0.397   3.478  0.0899  1.0596  1.8925
 8826TIP3    H226443   2.171   0.428   3.333 -0.7142 -1.3347  1.4951
 8827TIP3   OH226444   0.475   4.581   0.351  0.1417  0.1735 -0.0028
 8827TIP3    H126445   0.398   4.576   0.294  0.4207 -1.5833 -0.2696
 8827TIP3    H226446   0.498   4.490   0.369  1.8788  0.6693  0.4557
 8828TIP3   OH226447   2.493   4.052   3.839 -0.2817  0.2347 -0.2224
 8828TIP3    H126448   2.410   4.037   3.793 -1.1430 -1.2609  1.6719
 8828TIP3    H226449   2.561   4.025   3.778 -1.4519 -4.1075  0.1289
 8829TIP3   OH226450   5.133   3.254   3.104 -0.5168 -0.1159  0.0241
 8829TIP3    H126451   5.050   3.300   3.116  0.7658  1.9160  2.0016
 8829TIP3    H226452   5.160   3.229   3.193  1.3788  0.0511 -0.4514
 8830TIP3   OH226453   5.975   6.329   2.114 -0.1319  0.1543  0.2666
 8830TIP3    H126454   5.972   6.239   2.080  0.9903 -0.5420  1.8521
 8830TIP3    H226455   5.946   6.383   2.041  0.9334 -1.3380 -1.3552
 8831TIP3   OH226456   5.302   1.561   3.694 -0.2687  0.7119  1.3882
 8831TIP3    H126457   5.313   1.475   3.735  1.2520 -0.4862 -1.2604
 8831TIP3    H226458   5.350   1.621   3.750  1.0946 -0.6918  1.8129
 8832TIP3   OH226459   1.981   4.355   0.430 -0.7536 -0.0696 -0.4845
 8832TIP3    H126460   2.027   4.367   0.513 -0.9311 -0.1660 -0.3716
 8832TIP3    H226461   1.953   4.443   0.405  1.7041  0.4197 -1.8584
 8833TIP3   OH226462   5.441   3.786   3.094 -0.0269  0.0953  0.2084
 8833TIP3    H126463   5.351   3.813   3.110  0.8823  3.7240 -0.0161
 8833TIP3    H226464   5.477   3.769   3.181 -0.4004  0.5826  0.4618
 8834TIP3   OH226465   5.322   4.402   4.817  0.0604 -0.2208 -0.0480
 8834TIP3    H126466   5.343   4.390   4.724 -1.9819  1.4853 -0.8275
 8834TIP3    H226467   5.406   4.422   4.858  0.7991  0.7776 -1.8869
 8835TIP3   OH226468   0.150   5.364   5.459 -0.4249  0.1002 -0.1904
 8835TIP3    H126469   0.132   5.340   5.550  2.1920 -1.1724  0.0855
 8835TIP3    H226470   0.231   5.416   5.464 -0.7154  0.7587 -1.7290
 8836TIP3   OH226471   4.240   1.129   5.632 -0.1317 -0.8776 -0.0288
 8836TIP3    H126472   4.220   1.067   5.562 -0.9088 -0.5348 -0.1222
 8836TIP3    H226473   4.201   1.211   5.603  3.5123  0.5761 -1.4082
 8837TIP3   OH226474   3.771   1.102   5.586  0.1009 -0.6738 -0.2781
 8837TIP3    H126475   3.772   1.060   5.500  1.1527 -0.4081 -0.4141
 8837TIP3    H226476   3.801   1.034   5.647 -2.6368 -1.5241  0.2471
 8838TIP3   OH226477   5.869   4.606   0.470 -0.1795  0.1809  0.4091
 8838TIP3    H126478   5.777   4.600   0.443  0.2496  1.1871 -1.5327
 8838TIP3    H226479   5.918   4.583   0.391  1.2354  0.1594  1.2672
 8839TIP3   OH226480   1.720   6.034   2.559 -0.4794  0.1777 -0.5847
 8839TIP3    H126481   1.630   6.033   2.527 -0.7250  1.2613  0.0222
 8839TIP3    H226482   1.750   6.123   2.541  0.8306 -0.4485 -1.7014
 8840TIP3   OH226483   0.376   2.964   3.133  0.7484 -0.2506  0.7024
 8840TIP3    H126484   0.359   2.923   3.048 -0.2093  2.0352 -0.3003
 8840TIP3    H226485   0.299   2.943   3.185 -0.7160  1.7740 -0.4854
 8841TIP3   OH226486   1.022   1.246   1.293  0.2112 -0.1463 -0.1544
 8841TIP3    H126487   0.935   1.258   1.333 -0.7459 -1.7788 -1.5737
 8841TIP3    H226488   1.032   1.320   1.234 -1.0058 -0.8220 -1.2441
 8842TIP3   OH226489   4.989   5.159   1.055  0.0633  0.5016  0.1074
 8842TIP3    H126490   4.895   5.153   1.074  0.3362  0.6025  1.6607
 8842TIP3    H226491   5.003   5.098   0.983 -1.2096  0.5859 -0.2370
 8843TIP3   OH226492   6.868   4.208   5.566 -0.2889  0.0521  0.2340
 8843TIP3    H126493   6.780   4.241   5.582 -0.5029  0.1403 -1.0818
 8843TIP3    H226494   6.922   4.286   5.556 -0.0982 -0.0037  0.7781
 8844TIP3   OH226495   2.092   0.179   4.688  0.1215  0.8486 -0.4724
 8844TIP3    H126496   2.038   0.206   4.613 -0.2359  0.6409 -0.2905
 8844TIP3    H226497   2.110   0.260   4.735  1.9641  1.3066 -1.8158
 8845TIP3   OH226498   6.532   3.956   1.156  0.6614 -0.3851 -0.0047
 8845TIP3    H126499   6.621   3.921   1.151  1.4286  1.3986  0.4255
 8845TIP3    H226500   6.527   4.017   1.083  0.2770  0.5540  0.7891
 8846TIP3   OH226501   1.790   2.781   1.544  0.2365 -0.8963  0.5293
 8846TIP3    H126502   1.715   2.827   1.583  0.4327  0.8727 -1.0458
 8846TIP3    H226503   1.762   2.761   1.455  2.7033  3.0580 -1.4258
 8847TIP3   OH226504   6.871   5.138   3.526 -1.1324  0.3991 -0.3829
 8847TIP3    H126505   6.811   5.074   3.565 -1.2231  0.9604  0.4212
 8847TIP3    H226506   6.938   5.152   3.592 -1.0204  1.0088 -0.6155
 8848TIP3   OH226507   1.938   1.012   2.516 -0.3494 -0.5932  0.0201
 8848TIP3    H126508   1.989   1.052   2.445 -1.7096  0.4965 -0.3856
 8848TIP3    H226509   1.882   0.949   2.471 -0.5684 -0.5645  0.2555
 8849TIP3   OH226510   4.660   0.368   1.722 -0.2417 -0.4578  0.2445
 8849TIP3    H126511   4.689   0.277   1.730  0.5111 -0.2481 -0.0308
 8849TIP3    H226512   4.678   0.391   1.630 -1.4541 -0.3729  0.0127
 8850TIP3   OH226513   5.200   1.805   1.297  0.2334  0.4399 -0.4674
 8850TIP3    H126514   5.108   1.833   1.307  0.2952  0.5308 -0.1284
 8850TIP3    H226515   5.245   1.884   1.267  0.4252  0.7465  0.5846
 8851TIP3   OH226516   3.730   4.870   1.194 -0.4543 -0.3161  0.2405
 8851TIP3    H126517   3.663   4.890   1.260 -1.7248 -1.6766 -0.5504
 8851TIP3    H226518   3.801   4.830   1.244 -0.9704 -0.4101  0.9255
 8852TIP3   OH226519   1.862   2.606   3.455  0.2928  0.1821  0.0606
 8852TIP3    H126520   1.945   2.561   3.472  1.2234  1.6903 -0.3641
 8852TIP3    H226521   1.799   2.560   3.511  1.5292 -0.5624  0.9047
 8853TIP3   OH226522   4.669   3.759   0.623  0.2980  0.0778  0.1843
 8853TIP3    H126523   4.608   3.768   0.697  0.9851 -0.2860  0.8051
 8853TIP3    H226524   4.635   3.685   0.573 -1.4629  1.6697 -1.1605
 8854TIP3   OH226525   4.057   3.668   5.689 -0.3529  0.3538  0.4912
 8854TIP3    H126526   4.028   3.756   5.666 -0.1839  0.7392  1.7111
 8854TIP3    H226527   4.070   3.625   5.604 -1.3317  1.1942 -0.1099
 8855TIP3   OH226528   5.906   4.075   4.844  0.7499  0.1326 -0.4211
 8855TIP3    H126529   5.820   4.059   4.882  1.1210  0.4696  0.5918
 8855TIP3    H226530   5.954   4.123   4.911  1.9415 -0.5960 -0.7071
 8856TIP3   OH226531   0.408   4.241   4.752  0.9749 -0.3155 -0.2317
 8856TIP3    H126532   0.361   4.287   4.683 -1.1336 -1.3571  0.4105
 8856TIP3    H226533   0.447   4.311   4.805  0.6443  0.5784 -1.1342
 8857TIP3   OH226534   0.044   5.126   4.928  0.3621 -0.0584 -0.2314
 8857TIP3    H126535   0.028   5.201   4.871  1.1970 -0.0073 -0.4185
 8857TIP3    H226536   0.082   5.164   5.008  0.7032 -0.2622 -0.2911
 8858TIP3   OH226537   5.688   2.087   2.001  0.5853 -0.2264 -0.1613
 8858TIP3    H126538   5.634   2.166   1.995  1.9376  0.6802 -1.0051
 8858TIP3    H226539   5.635   2.025   2.050 -0.6891  1.0636  0.1510
 8859TIP3   OH226540   5.937   3.619   3.835 -0.2130  0.0330 -0.4900
 8859TIP3    H126541   6.013   3.592   3.885 -0.1131  0.3736 -0.4555
 8859TIP3    H226542   5.972   3.657   3.754 -0.3845 -0.8761 -1.0115
 8860TIP3   OH226543   3.001   4.027   3.571  0.0421 -0.4410 -0.0232
 8860TIP3    H126544   3.025   4.000   3.482  0.3166 -0.6139  0.1014
 8860TIP3    H226545   3.084   4.024   3.620 -0.0758 -0.1780  0.1953
 8861TIP3   OH226546   3.517   5.618   1.342 -0.1859  0.3019  0.2465
 8861TIP3    H126547   3.469   5.555   1.396 -0.0033  0.7391  0.9249
 8861TIP3    H226548   3.595   5.570   1.313 -0.8453 -0.3057 -0.5964
 8862TIP3   OH226549   6.428   1.788   4.303 -0.1189 -0.0111  0.0746
 8862TIP3    H126550   6.393   1.810   4.389 -0.0844 -0.3603  0.1818
 8862TIP3    H226551   6.356   1.806   4.243 -0.6627 -1.1595  0.3410
 8863TIP3   OH226552   4.751   4.612   0.870  0.2688  0.2966 -0.7217
 8863TIP3    H126553   4.782   4.573   0.788  0.6521  1.7662 -1.3191
 8863TIP3    H226554   4.709   4.540   0.917  0.9790 -0.8157 -1.7383
 8864TIP3   OH226555   7.093   0.958   2.108 -0.0049 -1.0822 -0.4047
 8864TIP3    H126556   7.186   0.966   2.128  0.1250  0.3393 -1.3876
 8864TIP3    H226557   7.050   0.962   2.193  0.8307 -1.8921  0.0690
 8865TIP3   OH226558   5.339   1.062   5.838 -0.2228  0.3645 -0.1810
 8865TIP3    H126559   5.336   0.971   5.809  3.2534 -0.3440  1.1772
 8865TIP3    H226560   5.361   1.112   5.760  0.6960 -0.3803 -0.4153
 8866TIP3   OH226561   4.475   5.215   0.137  0.5459  0.6631  0.1682
 8866TIP3    H126562   4.445   5.181   0.221  0.0072 -0.4544 -0.4461
 8866TIP3    H226563   4.411   5.281   0.113 -0.8293 -0.8847 -0.5837
 8867TIP3   OH226564   6.888   6.151   5.281 -0.2315  0.1043  0.1957
 8867TIP3    H126565   6.896   6.076   5.339  1.0188 -1.0185 -1.3661
 8867TIP3    H226566   6.857   6.115   5.198 -1.1154  1.5499 -0.1530
 8868TIP3   OH226567   4.886   6.584   1.396 -0.5117 -0.3073  0.6636
 8868TIP3    H126568   4.874   6.656   1.334 -0.3283 -2.0884 -1.5602
 8868TIP3    H226569   4.846   6.616   1.477  0.9627  2.8934  0.3070
 8869TIP3   OH226570   0.194   5.994   4.310 -0.2372 -0.1732  0.2772
 8869TIP3    H126571   0.218   5.902   4.318 -1.5304 -0.8358 -2.5291
 8869TIP3    H226572   0.260   6.031   4.251 -0.6194  0.3203  0.1533
 8870TIP3   OH226573   5.682   1.438   2.235  0.1998  0.1260 -0.2180
 8870TIP3    H126574   5.619   1.367   2.246 -1.1643  0.9853 -1.9671
 8870TIP3    H226575   5.725   1.445   2.320  0.0373 -2.4349  0.1596
 8871TIP3   OH226576   1.106   1.560   1.467 -0.5799 -0.1773  0.3698
 8871TIP3    H126577   1.023   1.526   1.499  0.0781 -1.8292  0.4110
 8871TIP3    H226578   1.103   1.545   1.373  0.1489 -1.3646  0.5235
 8872TIP3   OH226579   2.608   5.502   2.650  0.0008  0.2352 -0.1855
 8872TIP3    H126580   2.639   5.440   2.584  1.2188 -1.8922  2.1644
 8872TIP3    H226581   2.518   5.521   2.625  0.7606  0.5283 -3.0680
 8873TIP3   OH226582   3.888   5.259   5.350  0.5558  0.7215 -0.0262
 8873TIP3    H126583   3.915   5.317   5.421 -1.7858 -0.8956  2.3896
 8873TIP3    H226584   3.840   5.316   5.289 -0.1665  1.6714  1.3699
 8874TIP3   OH226585   1.295   5.676   1.516  0.2698  0.0721 -0.0673
 8874TIP3    H126586   1.318   5.682   1.424 -0.5001 -0.6332 -0.3137
 8874TIP3    H226587   1.379   5.670   1.562  0.7425  2.1183 -0.5605
 8875TIP3   OH226588   3.581   2.994   3.503  0.4667  0.5906  0.0188
 8875TIP3    H126589   3.524   3.069   3.519  0.2956  0.2251  1.1563
 8875TIP3    H226590   3.587   2.949   3.587 -0.2950 -1.2943 -0.8688
 8876TIP3   OH226591   4.888   3.393   4.154 -0.0194  0.8102  0.1161
 8876TIP3    H126592   4.953   3.463   4.158  1.5298 -0.6094  1.7044
 8876TIP3    H226593   4.806   3.434   4.180  0.7120  2.1474  0.3968
 8877TIP3   OH226594   1.197   4.252   4.434 -0.0122  0.1767 -0.6301
 8877TIP3    H126595   1.140   4.328   4.450 -0.2653  0.0704 -0.9901
 8877TIP3    H226596   1.248   4.277   4.357  1.5831  0.9069  0.6237
 8878TIP3   OH226597   4.909   3.634   2.347  0.1045  0.3921 -0.4924
 8878TIP3    H126598   4.888   3.569   2.414  1.5853 -0.1125 -0.4821
 8878TIP3    H226599   4.874   3.596   2.266  0.9151 -0.4283 -0.4804
 8879TIP3   OH226600   4.263   2.059   1.252  0.1524  0.3113  0.1107
 8879TIP3    H126601   4.220   2.068   1.337  1.3839  1.2625  0.6606
 8879TIP3    H226602   4.256   2.145   1.212  1.5793  0.5079  0.2482
 8880TIP3   OH226603   1.464   5.356   5.055 -0.4866  0.2860  0.0597
 8880TIP3    H126604   1.370   5.370   5.068 -0.5821 -0.1008 -0.1865
 8880TIP3    H226605   1.475   5.357   4.960 -0.4110 -0.6836  0.0430
 8881TIP3   OH226606   3.751   4.435   2.258 -0.6840  0.2521 -0.0490
 8881TIP3    H126607   3.658   4.436   2.233 -0.2645 -0.6270 -1.8746
 8881TIP3    H226608   3.795   4.481   2.186  0.1998  1.8929  1.4681
 8882TIP3   OH226609   2.226   6.521   1.457 -0.0628 -0.0333 -0.0347
 8882TIP3    H126610   2.315   6.548   1.479  0.6383  0.0118 -2.5320
 8882TIP3    H226611   2.170   6.581   1.505  1.1853 -0.6649  2.3500
 8883TIP3   OH226612   1.313   6.663   0.416 -0.0301 -0.5856  0.3295
 8883TIP3    H126613   1.258   6.719   0.471  0.5547  0.0012  0.3148
 8883TIP3    H226614   1.382   6.632   0.474  0.4401 -0.1757 -0.0112
 8884TIP3   OH226615   4.112   0.630   2.002  0.5470 -0.2007 -0.3681
 8884TIP3    H126616   4.046   0.574   1.962  0.0603 -0.1492  0.3401
 8884TIP3    H226617   4.193   0.610   1.955 -0.0823  0.1563 -1.6359
 8885TIP3   OH226618   2.068   2.245   2.455  0.1406 -0.4063 -0.0164
 8885TIP3    H126619   2.018   2.269   2.533  1.0392 -1.3316  0.8689
 8885TIP3    H226620   2.002   2.236   2.386 -0.5749  1.2853  0.3806
 8886TIP3   OH226621   5.262   4.090   2.507 -0.1111 -0.4954 -0.4812
 8886TIP3    H126622   5.249   4.178   2.472 -0.8916 -0.5438 -0.3142
 8886TIP3    H226623   5.262   4.100   2.602 -1.8726 -0.8906 -0.4181
 8887TIP3   OH226624   5.422   3.137   3.181  0.3691  0.4655 -0.1043
 8887TIP3    H126625   5.375   3.182   3.251  0.5467  1.3872 -0.5611
 8887TIP3    H226626   5.470   3.066   3.226  1.3180  1.6797  0.8885
 8888TIP3   OH226627   2.081   2.733   3.287 -0.8408 -0.0930 -0.2728
 8888TIP3    H126628   2.028   2.751   3.209 -2.4240 -0.9558  0.5457
 8888TIP3    H226629   2.017   2.722   3.357  0.3416 -2.1888  0.5813
 8889TIP3   OH226630   7.033   3.581   4.143  0.5242 -0.0586 -0.0366
 8889TIP3    H126631   7.053   3.513   4.078 -1.6410 -1.1521  0.3569
 8889TIP3    H226632   7.119   3.615   4.169  1.5638 -1.2266 -1.7197
 8890TIP3   OH226633   0.608   3.032   0.052  0.4931 -0.2589 -0.1768
 8890TIP3    H126634   0.659   2.971  -0.001 -0.2282  0.6243 -1.9658
 8890TIP3    H226635   0.570   3.093  -0.011 -0.9397  0.4683  1.3171
 8891TIP3   OH226636   1.120   5.309   5.370  0.0442 -1.0056  0.3539
 8891TIP3    H126637   1.121   5.332   5.463  0.6745 -1.5111  0.4826
 8891TIP3    H226638   1.146   5.217   5.368  0.4439 -0.8829 -0.3584
 8892TIP3   OH226639   0.891   6.353   2.396 -0.9101  0.2770  0.2509
 8892TIP3    H126640   0.912   6.271   2.441 -0.1355 -0.2184 -0.9386
 8892TIP3    H226641   0.802   6.374   2.425 -0.0786  0.5915  2.8071
 8893TIP3   OH226642   4.051   5.523   4.071 -0.0609  0.8160 -0.1278
 8893TIP3    H126643   4.101   5.598   4.105  0.1382  0.1649  1.0535
 8893TIP3    H226644   3.987   5.504   4.139 -0.5537  0.3297 -0.7223
 8894TIP3   OH226645   6.665   3.548   0.481  0.1469 -0.7384  0.0774
 8894TIP3    H126646   6.606   3.608   0.435 -0.2246 -0.5490  0.7922
 8894TIP3    H226647   6.651   3.566   0.574 -1.5724 -3.4222  0.4421
 8895TIP3   OH226648   3.951   0.114   1.961  0.1599 -0.7203 -0.3707
 8895TIP3    H126649   3.855   0.110   1.968  0.1050 -0.6527 -1.0342
 8895TIP3    H226650   3.974   0.037   1.908  0.6198 -1.6284  1.0857
 8896TIP3   OH226651   6.176   4.159   4.007  0.4295 -0.7883  0.1471
 8896TIP3    H126652   6.198   4.068   4.030 -0.7854 -1.1791 -0.1868
 8896TIP3    H226653   6.109   4.151   3.940  2.5270  0.3270 -2.2736
 8897TIP3   OH226654   6.690   0.710   3.572 -0.3635 -0.8423  0.3648
 8897TIP3    H126655   6.782   0.737   3.581 -0.7398  1.7031 -2.0884
 8897TIP3    H226656   6.678   0.697   3.478 -2.6854 -0.4154  0.5506
 8898TIP3   OH226657   0.771   4.368   1.069 -0.4992 -0.3907  0.0668
 8898TIP3    H126658   0.782   4.276   1.043 -1.5262 -0.7025  0.7086
 8898TIP3    H226659   0.860   4.397   1.091 -0.4481 -1.9860  2.3142
 8899TIP3   OH226660   7.098   0.687   2.027  0.4843 -0.1805 -0.0758
 8899TIP3    H126661   7.098   0.778   2.054  2.3341 -0.0264 -0.4466
 8899TIP3    H226662   7.050   0.686   1.945 -1.4290  0.0563  0.9786
 8900TIP3   OH226663   1.668   6.683   2.926 -0.0207  0.0826  0.2102
 8900TIP3    H126664   1.573   6.676   2.924  0.0393 -1.6636 -2.5993
 8900TIP3    H226665   1.688   6.764   2.879 -0.2189 -1.7519 -3.4597
 8901TIP3   OH226666   5.408   1.119   2.787  0.1385  0.6424  0.1035
 8901TIP3    H126667   5.346   1.083   2.850  0.0813  0.1323 -0.2418
 8901TIP3    H226668   5.485   1.142   2.840  0.0446  0.3310  0.3764
 8902TIP3   OH226669   4.801   0.855   3.060  0.9165  0.0689  0.3529
 8902TIP3    H126670   4.751   0.928   3.095 -2.1340 -0.7942 -1.8474
 8902TIP3    H226671   4.837   0.812   3.138 -0.1894  1.8458  1.9368
 8903TIP3   OH226672   4.505   4.932   2.128 -0.0864 -0.3780 -0.1493
 8903TIP3    H126673   4.585   4.926   2.181  0.5193 -0.9153 -1.0924
 8903TIP3    H226674   4.434   4.925   2.191  0.5719  1.7750  0.9227
 8904TIP3   OH226675   5.849   0.707   4.898 -0.3292  0.3669 -0.2709
 8904TIP3    H126676   5.887   0.751   4.974 -0.3387  1.9589 -1.1457
 8904TIP3    H226677   5.916   0.644   4.870  1.0265  2.0051 -0.8408
 8905TIP3   OH226678   4.799   1.576   3.622 -0.3615  0.3043  0.2411
 8905TIP3    H126679   4.891   1.548   3.616 -0.4913  0.0743 -1.2207
 8905TIP3    H226680   4.768   1.540   3.705  0.4572 -0.9421  0.0366
 8906TIP3   OH226681   5.771   1.610   5.514 -0.0378 -0.3665 -0.1616
 8906TIP3    H126682   5.751   1.618   5.421 -0.3484 -0.7404 -0.1280
 8906TIP3    H226683   5.785   1.700   5.543 -1.2432 -0.1254 -0.2847
 8907TIP3   OH226684   6.310   1.102   0.217 -0.2887  0.4848 -0.2290
 8907TIP3    H126685   6.246   1.032   0.231 -2.4355  2.2425 -0.5977
 8907TIP3    H226686   6.292   1.133   0.128  2.0487  0.1528 -0.8633
 8908TIP3   OH226687   5.257   6.635   4.638  0.1692 -0.3964  0.1375
 8908TIP3    H126688   5.296   6.547   4.636  0.3409 -0.3449  0.9930
 8908TIP3    H226689   5.295   6.677   4.715 -0.6362  0.0962  0.2824
 8909TIP3   OH226690   4.271   5.169   1.836 -0.1536  0.0057 -0.1558
 8909TIP3    H126691   4.183   5.144   1.864 -0.4909  0.4442 -0.8017
 8909TIP3    H226692   4.322   5.088   1.842 -0.5979 -0.2536  0.2103
 8910TIP3   OH226693   0.688   0.032   1.702  0.1143 -0.2179  0.5608
 8910TIP3    H126694   0.661   0.035   1.794  1.1334  1.1501  0.8535
 8910TIP3    H226695   0.651   0.111   1.664 -0.5050 -0.9040 -0.2862
 8911TIP3   OH226696   1.097   1.903   4.878  0.3968 -0.4908  0.1862
 8911TIP3    H126697   1.171   1.883   4.821  1.2553 -0.7605  1.3516
 8911TIP3    H226698   1.114   1.993   4.908 -0.4911 -0.0407 -0.6314
 8912TIP3   OH226699   3.834   5.142   0.556 -0.2163 -0.3919 -0.4921
 8912TIP3    H126700   3.756   5.136   0.502 -1.3806 -0.6338  1.1255
 8912TIP3    H226701   3.850   5.052   0.586 -1.4071  0.0925  1.8951
 8913TIP3   OH226702   0.976   4.278   2.356  0.5060  0.0916 -0.2807
 8913TIP3    H126703   0.909   4.331   2.400  0.0710  0.1227 -0.9744
 8913TIP3    H226704   0.928   4.229   2.289  1.1602  0.0081 -0.6898
 8914TIP3   OH226705   7.110   5.683   3.881 -0.3655 -0.1518 -0.2986
 8914TIP3    H126706   7.054   5.711   3.809  0.7990 -0.4609 -1.3676
 8914TIP3    H226707   7.090   5.744   3.952 -0.3599  1.2201 -1.4292
 8915TIP3   OH226708   2.073   2.852   0.271 -0.0058  0.1516  0.4389
 8915TIP3    H126709   2.020   2.806   0.207 -0.8910  0.6434  0.7993
 8915TIP3    H226710   2.030   2.937   0.281  2.4172  1.7240 -1.3696
 8916TIP3   OH226711   1.025   0.418   4.898 -0.0755 -0.5499  0.1682
 8916TIP3    H126712   0.985   0.337   4.931  0.9253 -0.6248  1.2665
 8916TIP3    H226713   1.112   0.419   4.937 -0.2042  1.2612  0.4715
 8917TIP3   OH226714   3.986   6.467   4.319 -0.4757  0.4941 -0.4481
 8917TIP3    H126715   4.036   6.546   4.337  0.4569  0.0986 -1.2026
 8917TIP3    H226716   4.037   6.396   4.359 -1.6277  0.3234  0.7766
 8918TIP3   OH226717   4.979   6.804   0.783 -0.3184  0.4859  0.3482
 8918TIP3    H126718   4.900   6.759   0.752  1.3624 -0.9819 -2.1417
 8918TIP3    H226719   5.012   6.750   0.854 -0.0345 -0.5081 -0.5196
 8919TIP3   OH226720   0.889   5.755   0.486  0.4641  0.3621  0.1767
 8919TIP3    H126721   0.970   5.736   0.438 -0.6673  0.8153 -2.0532
 8919TIP3    H226722   0.852   5.831   0.441 -1.5282 -0.2357  0.7029
 8920TIP3   OH226723   3.806   2.481   3.424  0.1588 -0.0667 -0.1893
 8920TIP3    H126724   3.748   2.433   3.365  1.0296 -1.3923 -0.0265
 8920TIP3    H226725   3.859   2.413   3.466  0.0909  0.8964  1.5556
 8921TIP3   OH226726   3.005   0.812   3.851 -0.6401 -0.0795 -1.0583
 8921TIP3    H126727   2.997   0.897   3.808 -0.7539  0.0655 -0.7513
 8921TIP3    H226728   2.956   0.822   3.933 -0.2813 -0.3057 -0.8166
 8922TIP3   OH226729   6.657   0.672   3.297  0.3219 -0.4467  0.2328
 8922TIP3    H126730   6.723   0.663   3.228  1.1100 -1.2627  1.0606
 8922TIP3    H226731   6.593   0.733   3.261  0.2810 -1.4544 -1.5511
 8923TIP3   OH226732   0.569   2.469   5.492  0.6967 -0.7092 -0.0703
 8923TIP3    H126733   0.507   2.402   5.462 -0.4770 -0.2023  1.1325
 8923TIP3    H226734   0.536   2.551   5.456 -0.1492 -0.2391  1.6806
 8924TIP3   OH226735   4.313   5.229   0.457 -0.3191  0.1526 -0.2242
 8924TIP3    H126736   4.239   5.170   0.440 -0.2017  0.2330 -1.0086
 8924TIP3    H226737   4.391   5.174   0.445 -0.2423  0.0336  0.7351
 8925TIP3   OH226738   1.711   5.124   1.766 -0.3117 -0.1728 -0.3919
 8925TIP3    H126739   1.634   5.090   1.811 -0.8306  0.6250 -0.6484
 8925TIP3    H226740   1.781   5.119   1.830 -0.9392  0.5267  0.3685
 8926TIP3   OH226741   1.772   0.179   1.412 -0.2618 -0.1966  0.4454
 8926TIP3    H126742   1.730   0.263   1.391 -0.5043 -0.3724  0.2245
 8926TIP3    H226743   1.860   0.186   1.375  0.1054  0.3986  1.4117
 8927TIP3   OH226744   5.749   5.804   3.653  0.5638  0.0985 -1.2167
 8927TIP3    H126745   5.724   5.712   3.652 -2.9545  0.9300 -1.7898
 8927TIP3    H226746   5.746   5.829   3.746 -2.1350  0.4161 -1.3254
 8928TIP3   OH226747   2.973   6.617   4.820  0.2390  0.2449  0.2396
 8928TIP3    H126748   2.995   6.706   4.794  0.5162  0.1809  0.2587
 8928TIP3    H226749   3.057   6.573   4.833  0.1087 -0.1290 -0.1442
 8929TIP3   OH226750   0.510   4.963   4.823  0.2551  0.0290 -0.5021
 8929TIP3    H126751   0.416   4.956   4.840 -0.0855 -1.1104 -2.5753
 8929TIP3    H226752   0.516   5.019   4.746  1.3363  0.5455 -0.0668
 8930TIP3   OH226753   5.952   4.559   3.464 -0.5171 -0.2520 -0.4823
 8930TIP3    H126754   5.922   4.475   3.498 -0.0211 -0.4659 -0.5619
 8930TIP3    H226755   6.024   4.583   3.522 -2.3383  1.4400  1.2626
 8931TIP3   OH226756   6.871   2.829   0.971 -0.0767  0.3043  0.5580
 8931TIP3    H126757   6.784   2.789   0.971 -0.5718  1.3592  0.6289
 8931TIP3    H226758   6.888   2.850   1.062 -0.2079  1.0624  0.4136
 8932TIP3   OH226759   6.020   2.091   1.005 -0.2581  0.1357 -0.1503
 8932TIP3    H126760   6.067   2.115   1.085  0.4398  0.1945 -0.5708
 8932TIP3    H226761   6.045   2.157   0.941 -0.0552 -0.4518 -0.6896
 8933TIP3   OH226762   2.115   5.073   3.286  0.6215  0.2496  0.2092
 8933TIP3    H126763   2.195   5.125   3.281  0.2345  0.9533  0.9722
 8933TIP3    H226764   2.141   4.992   3.328  1.1126  0.0684 -0.4207
 8934TIP3   OH226765   2.984   5.551   4.246 -0.2123  0.3497 -0.0547
 8934TIP3    H126766   3.038   5.616   4.290  0.0795 -0.5914  1.0263
 8934TIP3    H226767   3.042   5.511   4.181  0.4483 -0.7201  1.1633
 8935TIP3   OH226768   1.766   1.998   5.515 -0.5671 -0.3166 -0.5357
 8935TIP3    H126769   1.845   2.034   5.555 -0.6634 -1.5273  0.8342
 8935TIP3    H226770   1.757   2.046   5.433  1.6430 -0.2119 -0.7833
 8936TIP3   OH226771   1.981   5.663   1.466  0.0867 -0.5572 -0.4055
 8936TIP3    H126772   2.059   5.646   1.413  1.0119  0.3303  0.6172
 8936TIP3    H226773   1.926   5.718   1.410  1.5754  1.3613 -0.0873
 8937TIP3   OH226774   5.771   1.871   4.100  0.2257  0.4425  0.1069
 8937TIP3    H126775   5.734   1.831   4.020  1.7989  1.1519 -1.0276
 8937TIP3    H226776   5.740   1.961   4.098  0.5655  0.5607  0.0911
 8938TIP3   OH226777   4.590   6.506   3.216  0.3358  0.4132  0.3674
 8938TIP3    H126778   4.512   6.504   3.161  1.6516  0.3817 -1.6039
 8938TIP3    H226779   4.637   6.585   3.188  0.9720  0.4994  1.5957
 8939TIP3   OH226780   2.705   1.533   4.159  0.1166 -0.2974 -0.1452
 8939TIP3    H126781   2.767   1.563   4.225  0.6814 -0.3628 -0.6389
 8939TIP3    H226782   2.759   1.498   4.089 -0.5120 -1.5734 -0.0139
 8940TIP3   OH226783   1.393   5.172   4.606  0.1787 -0.2761 -0.5530
 8940TIP3    H126784   1.409   5.203   4.517 -1.2216 -1.2910 -1.1991
 8940TIP3    H226785   1.456   5.101   4.618  0.9401  0.4079 -0.4001
 8941TIP3   OH226786   2.623   3.171   4.509  0.0626  0.0425  0.1174
 8941TIP3    H126787   2.653   3.085   4.539  4.9494  1.0780 -0.8698
 8941TIP3    H226788   2.622   3.225   4.588 -0.7706 -0.3753  0.3997
 8942TIP3   OH226789   3.445   4.203   5.630  0.8041 -0.0421  0.4522
 8942TIP3    H126790   3.383   4.270   5.600  1.1457  0.4113  0.7468
 8942TIP3    H226791   3.495   4.246   5.699  0.9250 -0.6531  0.7508
 8943TIP3   OH226792   4.797   4.238   0.555 -0.0203 -0.2081  0.0939
 8943TIP3    H126793   4.742   4.167   0.523  0.4098 -0.5826  0.1829
 8943TIP3    H226794   4.823   4.211   0.643  0.2021  0.0244  0.1016
 8944TIP3   OH226795   0.247   6.055   1.762 -0.2831  0.0891 -0.4646
 8944TIP3    H126796   0.220   6.124   1.823  0.2210  1.2587 -1.5249
 8944TIP3    H226797   0.342   6.059   1.760 -0.2191 -0.9450 -0.2178
 8945TIP3   OH226798   1.857   1.194   2.274 -0.8344 -0.2630 -0.9114
 8945TIP3    H126799   1.922   1.125   2.262  0.7383  0.5672  1.9411
 8945TIP3    H226800   1.873   1.254   2.201  1.8314  0.0278 -0.1998
 8946TIP3   OH226801   4.451   4.122   4.801  0.1033 -0.3393 -0.6341
 8946TIP3    H126802   4.369   4.134   4.849 -0.0546 -2.0076 -0.4033
 8946TIP3    H226803   4.485   4.039   4.834  1.6172  0.0583 -1.1314
 8947TIP3   OH226804   5.244   5.544   0.436  0.8892 -0.1638 -0.1481
 8947TIP3    H126805   5.272   5.535   0.344  1.8563 -0.8887  0.1987
 8947TIP3    H226806   5.324   5.566   0.483  0.6527 -1.0617  0.7049
 8948TIP3   OH226807   5.632   4.427   3.128 -0.5241  0.6206  0.2237
 8948TIP3    H126808   5.672   4.371   3.061 -0.0213  0.9486  0.2428
 8948TIP3    H226809   5.701   4.490   3.151 -0.5345  0.2470  1.3573
 8949TIP3   OH226810   4.797   0.120   1.717  0.0978 -0.0481 -0.1593
 8949TIP3    H126811   4.788   0.068   1.797 -1.1452 -0.3643 -0.4721
 8949TIP3    H226812   4.878   0.169   1.728  1.1871 -1.8676  0.2601
 8950TIP3   OH226813   7.169   0.354   3.260 -0.5499  0.2850 -0.2232
 8950TIP3    H126814   7.132   0.435   3.295  0.0323  1.1331 -1.4739
 8950TIP3    H226815   7.245   0.383   3.210 -0.5162 -1.0135 -0.9564
 8951TIP3   OH226816   0.718   3.406   3.985  0.0053  0.2549 -0.2328
 8951TIP3    H126817   0.700   3.346   3.912  1.2671 -3.0761  1.9737
 8951TIP3    H226818   0.806   3.440   3.966  0.2875 -0.5137 -0.3299
 8952TIP3   OH226819   2.411   0.158   3.201 -0.1932  0.5258  0.0822
 8952TIP3    H126820   2.499   0.180   3.233 -1.0345  2.0013  1.6039
 8952TIP3    H226821   2.408   0.062   3.201  1.4197  0.4503 -0.0747
 8953TIP3   OH226822   2.061   1.328   0.572 -0.2490  0.4870 -0.1257
 8953TIP3    H126823   2.139   1.273   0.579 -0.9294 -0.4884 -0.1891
 8953TIP3    H226824   2.074   1.395   0.640 -0.6384 -1.2952  1.7864
 8954TIP3   OH226825   2.315   3.306   4.128 -0.1953  0.4471  0.7103
 8954TIP3    H126826   2.350   3.269   4.047  1.6312  2.1848  0.6247
 8954TIP3    H226827   2.257   3.238   4.162 -1.7881 -0.0049 -2.5004
 8955TIP3   OH226828   5.647   2.657   0.579  0.0339  0.1494 -0.1124
 8955TIP3    H126829   5.658   2.562   0.569 -0.3759  0.2870 -2.5692
 8955TIP3    H226830   5.553   2.670   0.580  0.0841  0.5102  0.8345
 8956TIP3   OH226831   5.445   3.274   0.950 -0.3116 -0.6184 -0.5277
 8956TIP3    H126832   5.536   3.289   0.926  0.5614 -2.0579  1.6327
 8956TIP3    H226833   5.419   3.354   0.996  1.0557 -1.5008  1.9522
 8957TIP3   OH226834   5.004   5.766   4.849  0.1002  0.2599 -0.1996
 8957TIP3    H126835   5.004   5.677   4.814  1.1510  0.6072 -1.1702
 8957TIP3    H226836   4.954   5.817   4.785  0.2362  0.5134 -0.1109
 8958TIP3   OH226837   6.077   2.051   5.612  0.3423  0.0863  0.0632
 8958TIP3    H126838   6.104   2.034   5.703  1.3838 -0.0740 -0.2677
 8958TIP3    H226839   6.128   2.127   5.586  1.8478 -1.2507 -1.1357
 8959TIP3   OH226840   5.418   6.072   1.055  0.0217 -0.1257  0.0197
 8959TIP3    H126841   5.370   6.010   1.001  0.0057 -2.3406  2.4043
 8959TIP3    H226842   5.370   6.075   1.137  0.1946  2.8995  0.1423
 8960TIP3   OH226843   0.664   4.140   0.495  0.1812  0.3519  1.1067
 8960TIP3    H126844   0.686   4.083   0.421 -0.6245 -1.0558  1.9174
 8960TIP3    H226845   0.749   4.172   0.527  0.6971 -0.8245  0.9646
 8961TIP3   OH226846   5.019   4.156   5.308 -0.0565 -0.2175 -0.1754
 8961TIP3    H126847   4.981   4.197   5.230 -1.0714 -1.5221 -0.4185
 8961TIP3    H226848   5.034   4.228   5.369 -1.6196  0.5511 -0.6361
 8962TIP3   OH226849   0.993   1.652   1.970 -0.6075 -0.0572 -0.6331
 8962TIP3    H126850   1.033   1.627   1.886  0.1174 -0.2630 -0.2364
 8962TIP3    H226851   0.934   1.579   1.991 -1.9894  0.7139 -1.7176
 8963TIP3   OH226852   1.471   2.671   0.684 -0.0403  0.2640  0.1778
 8963TIP3    H126853   1.530   2.607   0.646  0.6524  0.4860  0.8577
 8963TIP3    H226854   1.456   2.640   0.774 -2.4380 -0.8103 -0.4908
 8964TIP3   OH226855   4.598   5.927   1.530  0.4905  0.5457  0.2330
 8964TIP3    H126856   4.551   5.922   1.613  0.8402 -0.9123  0.3692
 8964TIP3    H226857   4.538   5.975   1.472  0.4850  2.0900  1.4495
 8965TIP3   OH226858   2.077   3.996   5.095 -0.3225 -0.3049  0.1759
 8965TIP3    H126859   2.091   3.938   5.169 -0.2941 -1.2029 -0.5202
 8965TIP3    H226860   2.002   3.959   5.048 -0.2531  0.1689 -0.3312
 8966TIP3   OH226861   6.933   4.513   3.238 -0.3268  0.0413  0.0699
 8966TIP3    H126862   6.863   4.577   3.224  1.0129  1.1051 -2.4851
 8966TIP3    H226863   6.980   4.546   3.314 -2.1763 -0.3774  1.4798
 8967TIP3   OH226864   2.591   4.021   4.141  0.6045 -0.4585  0.7161
 8967TIP3    H126865   2.503   4.056   4.157 -0.4638 -3.4105  1.9742
 8967TIP3    H226866   2.634   4.027   4.226  1.5768  0.6863  0.1748
 8968TIP3   OH226867   0.711   3.609   5.149  0.6194 -0.5092  0.2135
 8968TIP3    H126868   0.689   3.580   5.061 -0.1686  0.2245  0.1561
 8968TIP3    H226869   0.704   3.531   5.203 -3.3986 -0.2225  0.4325
 8969TIP3   OH226870   6.413   3.031   3.048 -0.1569 -0.2747  0.0309
 8969TIP3    H126871   6.458   2.948   3.059 -0.6372 -0.3748  1.5032
 8969TIP3    H226872   6.321   3.008   3.036  0.1746 -0.1235 -3.9522
 8970TIP3   OH226873   5.951   6.222   4.203 -0.0284 -0.3943  0.0693
 8970TIP3    H126874   5.871   6.268   4.230  0.1557  0.0510 -0.1265
 8970TIP3    H226875   5.935   6.131   4.224 -1.3158 -0.6054 -1.6545
 8971TIP3   OH226876   6.041   5.351   2.364  0.5144  0.4758  0.0173
 8971TIP3    H126877   5.971   5.305   2.319  0.3779 -0.6220  1.2684
 8971TIP3    H226878   5.997   5.421   2.413  0.1484 -0.6103  1.3182
 8972TIP3   OH226879   6.941   0.815   3.627  0.4468  0.2928  0.3798
 8972TIP3    H126880   7.009   0.826   3.694  0.5612  2.2942  0.0152
 8972TIP3    H226881   6.972   0.867   3.553 -0.6621 -0.1838 -0.4511
 8973TIP3   OH226882   1.864   2.171   2.287 -0.5951  0.0260 -0.3618
 8973TIP3    H126883   1.842   2.216   2.206 -2.2148  2.2394  1.1785
 8973TIP3    H226884   1.782   2.129   2.314 -1.1431  2.2238  1.7743
 8974TIP3   OH226885   5.220   5.165   3.889 -0.1221  0.1845 -0.1569
 8974TIP3    H126886   5.207   5.258   3.904 -1.2328 -0.0594  0.4862
 8974TIP3    H226887   5.182   5.122   3.965  0.5695 -0.7933 -0.3420
 8975TIP3   OH226888   2.929   2.907   5.740  0.2312  0.2612 -0.0214
 8975TIP3    H126889   2.836   2.890   5.759  0.5010 -1.8520 -0.3414
 8975TIP3    H226890   2.930   2.929   5.647  0.0176  0.6345  0.0615
 8976TIP3   OH226891   3.284   1.092   4.321 -0.3581  0.4150 -0.3226
 8976TIP3    H126892   3.330   1.107   4.404 -1.5294  0.2933  0.3807
 8976TIP3    H226893   3.257   1.179   4.293 -0.9687  0.3453  0.0370
 8977TIP3   OH226894   4.802   5.421   1.031 -0.9121  0.5420 -0.4928
 8977TIP3    H126895   4.802   5.398   1.124  1.3555 -0.8681 -0.7521
 8977TIP3    H226896   4.830   5.512   1.028  0.5346  0.1584  0.2016
 8978TIP3   OH226897   0.927   5.546   4.279  0.0308  0.3360  0.0276
 8978TIP3    H126898   1.003   5.497   4.250 -0.8331 -1.2467  0.3401
 8978TIP3    H226899   0.953   5.584   4.363  1.2923  1.9207 -1.0147
 8979TIP3   OH226900   1.318   0.538   1.494  0.0893 -0.2336 -0.3774
 8979TIP3    H126901   1.324   0.474   1.423  2.4583 -1.4219  0.7748
 8979TIP3    H226902   1.251   0.503   1.553 -0.4068 -0.3194 -0.9873
 8980TIP3   OH226903   1.571   0.741   4.953  0.0812  0.6985  0.3783
 8980TIP3    H126904   1.476   0.744   4.965  0.1957  2.1268  1.1802
 8980TIP3    H226905   1.606   0.799   5.021  1.6294 -0.8341  0.9916
 8981TIP3   OH226906   5.475   6.300   5.227 -0.6107  0.0276  0.3273
 8981TIP3    H126907   5.539   6.250   5.278  1.3588  0.8412 -1.1766
 8981TIP3    H226908   5.446   6.369   5.286  1.7288  1.0515  0.4175
 8982TIP3   OH226909   4.793   5.676   4.408  0.5925  0.3010 -0.1201
 8982TIP3    H126910   4.706   5.693   4.370  0.4172 -0.4563 -0.0869
 8982TIP3    H226911   4.853   5.730   4.357  0.2887 -0.2901 -1.1463
 8983TIP3   OH226912   4.490   1.760   0.551  0.5636 -0.4450  0.0600
 8983TIP3    H126913   4.492   1.812   0.632 -0.1951 -2.4753  1.4834
 8983TIP3    H226914   4.414   1.703   0.562  0.6999 -1.0633 -1.9215
 8984TIP3   OH226915   5.786   2.783   0.793  0.1566 -0.0691 -0.3834
 8984TIP3    H126916   5.800   2.724   0.867  0.5266  0.3797 -0.0901
 8984TIP3    H226917   5.713   2.744   0.744 -0.5130 -0.0468  0.5674
 8985TIP3   OH226918   4.184   2.703   2.480  0.4254 -0.4375 -0.2235
 8985TIP3    H126919   4.181   2.795   2.507  0.0272 -0.0938 -1.3885
 8985TIP3    H226920   4.165   2.654   2.560 -2.3406  0.5951 -0.1451
 8986TIP3   OH226921   7.133   4.361   1.939  0.3478  0.7528 -0.0561
 8986TIP3    H126922   7.110   4.454   1.936 -2.2592  0.1628 -2.7320
 8986TIP3    H226923   7.065   4.321   1.992  0.3286  0.1404 -0.5351
 8987TIP3   OH226924   3.822   4.261   5.748  0.0961  0.5023  0.5282
 8987TIP3    H126925   3.832   4.208   5.826 -0.4454  0.7162  0.7505
 8987TIP3    H226926   3.835   4.351   5.777  0.6590  0.5229  0.2224
 8988TIP3   OH226927   3.613   2.934   3.768 -0.0574  0.2364 -0.2285
 8988TIP3    H126928   3.641   3.025   3.783 -0.7519  0.6390 -1.2603
 8988TIP3    H226929   3.583   2.904   3.854 -0.5757  1.2660 -0.0288
 8989TIP3   OH226930   4.132   4.052   2.301  0.0025  0.2091 -0.2475
 8989TIP3    H126931   4.089   4.080   2.220 -1.5695  0.2322  0.5674
 8989TIP3    H226932   4.223   4.080   2.291 -0.3358  0.8663 -1.6837
 8990TIP3   OH226933   6.569   2.310   0.614 -0.7920  0.1456 -0.3807
 8990TIP3    H126934   6.607   2.376   0.671 -1.0382 -0.6820  0.7940
 8990TIP3    H226935   6.642   2.279   0.560 -0.0306 -0.5503  0.9796
 8991TIP3   OH226936   5.542   6.691   3.610  0.2171 -0.2697 -0.0063
 8991TIP3    H126937   5.454   6.655   3.625 -0.2032  1.0492  0.8975
 8991TIP3    H226938   5.529   6.786   3.612  1.1580  0.0355 -2.9579
 8992TIP3   OH226939   5.993   6.135   0.112 -0.2963  0.2050  0.0991
 8992TIP3    H126940   6.035   6.221   0.105  0.8441 -0.3874 -0.6682
 8992TIP3    H226941   6.060   6.079   0.151 -1.1219 -0.2914  0.8382
 8993TIP3   OH226942   5.772   0.572   3.802 -0.8019  0.5625 -0.1280
 8993TIP3    H126943   5.836   0.539   3.738 -1.3309  0.9289 -0.8636
 8993TIP3    H226944   5.736   0.493   3.842  0.7631  0.3628  0.9779
 8994TIP3   OH226945   6.268   2.120   2.774 -0.0021  0.6066 -0.4483
 8994TIP3    H126946   6.211   2.089   2.845 -0.1206  2.7550  0.4967
 8994TIP3    H226947   6.334   2.051   2.764 -0.7792 -0.3767  0.8139
 8995TIP3   OH226948   0.224   6.330   1.870 -0.4383  0.1210 -0.2247
 8995TIP3    H126949   0.303   6.356   1.822  0.7925 -1.0170  1.1215
 8995TIP3    H226950   0.200   6.408   1.920  1.7079 -0.4043  1.7738
 8996TIP3   OH226951  -0.021   6.220   1.907 -0.4261 -0.1310 -0.2091
 8996TIP3    H126952  -0.035   6.192   1.998 -1.8136 -0.4303 -0.4905
 8996TIP3    H226953   0.074   6.230   1.899 -0.2376 -0.7007  1.0981
 8997TIP3   OH226954   5.093   5.285   5.112 -0.0725  0.2219 -0.0802
 8997TIP3    H126955   5.040   5.221   5.159  1.8009 -0.4872  1.2025
 8997TIP3    H226956   5.059   5.370   5.140  1.1251 -0.1687  2.8950
 8998TIP3   OH226957   1.737   4.601   4.071  0.2445  0.0340  0.1248
 8998TIP3    H126958   1.798   4.673   4.084  0.0846  0.0979  0.5510
 8998TIP3    H226959   1.786   4.536   4.022  0.8355 -0.1547  0.9542
 8999TIP3   OH226960   4.279   2.625   1.241  0.3421 -0.1213  0.3291
 8999TIP3    H126961   4.334   2.628   1.163  0.0063 -1.7196  0.0020
 8999TIP3    H226962   4.331   2.668   1.309  0.4288  1.7889 -0.8529
 9000TIP3   OH226963   6.627   2.739   2.800  0.0863  0.2491  0.6113
 9000TIP3    H126964   6.709   2.691   2.813 -0.3436 -0.6734  0.0530
 9000TIP3    H226965   6.596   2.758   2.888 -0.0351 -1.0562  0.8733
 9001TIP3   OH226966   0.207   5.840   1.521  0.1150  0.5039 -0.4857
 9001TIP3    H126967   0.187   5.831   1.428  1.4245  0.9882 -0.8262
 9001TIP3    H226968   0.221   5.934   1.534  1.2234  0.2958 -0.0829
 9002TIP3   OH226969   3.956   4.207   2.121  0.1694  0.0153 -0.0376
 9002TIP3    H126970   3.901   4.229   2.046  0.6852  0.4424 -0.2982
 9002TIP3    H226971   3.972   4.291   2.164  1.4280  0.0348 -0.5293
 9003TIP3   OH226972   5.859   2.678   3.559 -0.4214  0.3439 -0.2243
 9003TIP3    H126973   5.893   2.662   3.471 -0.6015  0.0210 -0.2380
 9003TIP3    H226974   5.817   2.595   3.584  0.1831  0.2199  0.4166
 9004TIP3   OH226975   4.821   4.717   4.997  0.4337  0.1833  0.5716
 9004TIP3    H126976   4.824   4.740   4.904 -1.1317  0.3164  0.5200
 9004TIP3    H226977   4.816   4.801   5.043  0.0025  0.0878  0.7033
 9005TIP3   OH226978   0.313   6.729   2.685  0.0375 -0.3218  0.1358
 9005TIP3    H126979   0.218   6.739   2.683  0.1038  1.0341  1.6082
 9005TIP3    H226980   0.336   6.745   2.777  1.5402 -2.2480  0.1505
 9006TIP3   OH226981   1.498   0.678   2.961  0.0117 -0.0006  0.4882
 9006TIP3    H126982   1.482   0.768   2.933  0.7850  0.3075  1.0152
 9006TIP3    H226983   1.419   0.630   2.934  0.7583  0.2165 -2.3991
 9007TIP3   OH226984   0.043   1.684   2.398 -0.2144 -0.8310  0.4716
 9007TIP3    H126985  -0.016   1.732   2.340 -1.1753 -1.4099  0.9442
 9007TIP3    H226986   0.102   1.750   2.434 -0.5181 -0.2582 -0.0831
 9008TIP3   OH226987   3.020   6.201   2.906 -0.2824  0.1585 -0.4827
 9008TIP3    H126988   2.966   6.256   2.962 -0.6449 -1.0295  0.3608
 9008TIP3    H226989   3.075   6.152   2.966  0.4011 -0.0324 -1.2490
 9009TIP3   OH226990   5.470   3.635   1.498  0.1068  0.7922  0.5536
 9009TIP3    H126991   5.480   3.706   1.561  2.0947  0.2176  0.9558
 9009TIP3    H226992   5.375   3.624   1.489 -0.2435  1.2800  2.9785
 9010TIP3   OH226993   1.978   0.317   3.307 -0.1075 -0.2904 -0.7070
 9010TIP3    H126994   1.995   0.252   3.376  1.5488 -0.2879 -1.0713
 9010TIP3    H226995   1.905   0.280   3.257 -0.6882 -0.7574  0.4426
 9011TIP3   OH226996   0.016   1.747   3.100  0.0067 -0.0975 -0.0563
 9011TIP3    H126997   0.004   1.739   3.005 -1.0652  3.2744 -0.3284
 9011TIP3    H226998   0.111   1.746   3.112  0.1546 -1.4525 -0.9965
 9012TIP3   OH226999   1.918   3.447   0.124  0.3427 -0.2548  0.0527
 9012TIP3    H127000   1.965   3.373   0.161 -0.9641 -0.9750  0.3193
 9012TIP3    H227001   1.830   3.442   0.161 -0.4334  0.1372 -1.6253
 9013TIP3   OH227002   2.574   3.711   4.210 -0.1324  0.3284  0.5959
 9013TIP3    H127003   2.565   3.631   4.159  2.6516 -0.4798  1.1796
 9013TIP3    H227004   2.571   3.682   4.301 -1.3826  1.2412  0.8698
 9014TIP3   OH227005   6.177   6.552   2.080  0.3754 -0.4437  0.1897
 9014TIP3    H127006   6.225   6.545   1.998  0.6899  0.0495  0.3241
 9014TIP3    H227007   6.088   6.526   2.058  0.8469 -2.0448  0.0957
 9015TIP3   OH227008   0.587   4.686   4.218  0.2205  0.1068  0.8056
 9015TIP3    H127009   0.601   4.735   4.299  1.4087 -1.3009  1.5147
 9015TIP3    H227010   0.636   4.734   4.152 -0.7661  1.2787  0.8858
 9016TIP3   OH227011   5.441   4.843   5.163  0.0270 -0.4213  0.5820
 9016TIP3    H127012   5.419   4.877   5.250  1.4398  0.7431  0.5436
 9016TIP3    H227013   5.423   4.917   5.104  0.2089 -0.7935  0.0573
 9017TIP3   OH227014   4.148   1.682   4.815  0.1261  0.0590 -0.4018
 9017TIP3    H127015   4.119   1.621   4.883  2.2659  0.7474  1.2542
 9017TIP3    H227016   4.216   1.635   4.767  0.1841  0.3436 -0.6042
 9018TIP3   OH227017   6.933   4.847   0.985  0.1925  0.4626  0.3915
 9018TIP3    H127018   6.840   4.838   1.007 -0.4455  1.9853 -1.4271
 9018TIP3    H227019   6.945   4.941   0.971  1.9266  0.2439  0.2611
 9019TIP3   OH227020   6.555   4.350   4.328 -0.6868  0.4104  0.1185
 9019TIP3    H127021   6.601   4.267   4.321  0.1350  0.3322  4.0684
 9019TIP3    H227022   6.477   4.339   4.274  0.6164 -1.9287 -1.4711
 9020TIP3   OH227023   0.099   4.805   1.971  0.5079 -0.2005  0.1756
 9020TIP3    H127024   0.101   4.750   1.893 -1.8626  0.9469 -0.7986
 9020TIP3    H227025   0.185   4.792   2.011  0.7206 -3.1865 -0.9331
 9021TIP3   OH227026   4.833   0.387   5.027 -0.8067 -0.5317  0.2266
 9021TIP3    H127027   4.911   0.390   5.083 -1.3255  0.1689  0.9264
 9021TIP3    H227028   4.762   0.415   5.084 -1.7621 -2.1679 -0.1145
 9022TIP3   OH227029   4.646   3.316   2.344 -0.0608  0.3694  0.3193
 9022TIP3    H127030   4.643   3.222   2.326 -0.0178  0.4241  0.0307
 9022TIP3    H227031   4.554   3.342   2.349 -0.0846  0.5343 -0.7575
 9023TIP3   OH227032   3.843   5.069   4.587 -0.2297  0.1561  0.4030
 9023TIP3    H127033   3.791   5.037   4.660  0.5617 -0.0584  0.8844
 9023TIP3    H227034   3.894   4.993   4.558 -0.9289  0.1001 -0.7271
 9024TIP3   OH227035   4.920   3.623   0.696  0.2547 -0.4352  0.6229
 9024TIP3    H127036   4.838   3.648   0.653  0.9294 -0.3222 -0.6284
 9024TIP3    H227037   4.934   3.692   0.762  0.0807  0.3459 -0.1345
 9025TIP3   OH227038   0.605   1.776   4.415  1.1342  0.0345  0.1119
 9025TIP3    H127039   0.588   1.758   4.508 -0.7170  0.7752 -0.0538
 9025TIP3    H227040   0.680   1.836   4.416  1.6770 -0.6169  1.0663
 9026TIP3   OH227041   6.865   1.659   2.286 -0.0331  0.1237 -0.2346
 9026TIP3    H127042   6.908   1.613   2.214  0.3044 -0.6818  0.4541
 9026TIP3    H227043   6.936   1.677   2.348 -0.3007  0.8959 -0.1440
 9027TIP3   OH227044   4.821   5.231   4.245  0.2545  0.2515 -0.0770
 9027TIP3    H127045   4.749   5.294   4.238  0.6173  1.0473  2.5324
 9027TIP3    H227046   4.893   5.281   4.283  0.3246 -1.8464  2.8494
 9028TIP3   OH227047   1.779   3.065   2.438  0.1732 -0.1519  0.5874
 9028TIP3    H127048   1.867   3.053   2.400  1.8484  0.6830  3.8467
 9028TIP3    H227049   1.767   3.160   2.437 -0.5726 -0.2468  0.4774
 9029TIP3   OH227050   4.692   3.546   5.784 -0.3149 -0.0780 -0.1447
 9029TIP3    H127051   4.604   3.515   5.808 -0.7555  1.3789  0.2341
 9029TIP3    H227052   4.742   3.542   5.865 -0.5363  0.6883  0.0400
 9030TIP3   OH227053   0.730   3.881   5.151  0.4250  0.3912  0.3037
 9030TIP3    H127054   0.736   3.785   5.145  0.3397  0.4362 -0.6277
 9030TIP3    H227055   0.789   3.913   5.083  0.6388  1.0113  0.7707
 9031TIP3   OH227056   2.921   2.257   1.572 -0.4403  0.4173 -0.1846
 9031TIP3    H127057   2.974   2.266   1.493 -1.3368 -0.9407 -0.9813
 9031TIP3    H227058   2.849   2.318   1.559 -1.4008 -0.8642 -1.1600
 9032TIP3   OH227059   4.219   0.665   3.656 -0.2689  0.2263  0.2952
 9032TIP3    H127060   4.158   0.632   3.722  1.1197 -1.5840  0.7373
 9032TIP3    H227061   4.238   0.590   3.600  2.3958  0.3523  0.8681
 9033TIP3   OH227062   5.389   0.993   4.132 -0.0531  0.1650  0.6144
 9033TIP3    H127063   5.448   1.067   4.147  1.3641 -0.7644 -0.1223
 9033TIP3    H227064   5.347   0.979   4.217  0.8120  0.8379  1.1749
 9034TIP3   OH227065   2.759   2.184   4.381  0.0886  0.2570  0.0919
 9034TIP3    H127066   2.854   2.176   4.372  0.0475  0.0395 -0.1611
 9034TIP3    H227067   2.742   2.169   4.474  0.4439  1.7641  0.4306
 9035TIP3   OH227068   2.613   4.196   2.645 -0.6816 -0.2614  0.3482
 9035TIP3    H127069   2.703   4.229   2.641 -1.1022  0.9576  0.6319
 9035TIP3    H227070   2.612   4.124   2.582  0.3184  0.1443 -0.1578
 9036TIP3   OH227071   0.992   1.930   0.868 -1.0147 -0.0484 -0.5885
 9036TIP3    H127072   1.076   1.892   0.843 -0.4050  1.0377 -0.2885
 9036TIP3    H227073   0.926   1.868   0.837 -0.1110 -0.7690 -1.0938
 9037TIP3   OH227074   1.184   6.520   0.952 -0.0775 -0.1340  0.3195
 9037TIP3    H127075   1.116   6.472   1.000 -0.2011  0.0928  0.3737
 9037TIP3    H227076   1.165   6.502   0.860 -1.2220  1.2579  0.2539
 9038TIP3   OH227077   3.438   6.520   1.812 -0.1582  0.2786 -0.2616
 9038TIP3    H127078   3.380   6.452   1.846 -2.0103  2.4834  1.2428
 9038TIP3    H227079   3.515   6.516   1.868 -0.3569 -0.3899 -0.0321
 9039TIP3   OH227080   7.119   2.641   0.980 -0.4886 -0.4659  0.1162
 9039TIP3    H127081   7.053   2.647   0.911 -0.9522  2.1401  0.6558
 9039TIP3    H227082   7.191   2.695   0.949  1.3232 -2.9147 -0.2551
 9040TIP3   OH227083   2.413   0.129   1.793 -0.1491 -0.0166 -0.3314
 9040TIP3    H127084   2.326   0.169   1.801  0.4646  1.2746  0.0812
 9040TIP3    H227085   2.396   0.035   1.801 -1.8843 -0.0808 -3.1445
 9041TIP3   OH227086   1.251   5.701   3.426 -0.0724 -0.3175  0.3014
 9041TIP3    H127087   1.186   5.631   3.412 -0.4053 -0.0861  0.6717
 9041TIP3    H227088   1.335   5.658   3.412 -0.3159 -0.5067 -0.6881
 9042TIP3   OH227089   7.097   5.336   1.255  0.2892 -0.5452 -0.2008
 9042TIP3    H127090   7.066   5.425   1.274  0.2453 -0.6262  0.1010
 9042TIP3    H227091   7.192   5.344   1.246  0.7635 -1.0199  3.1417
 9043TIP3   OH227092   2.162   6.676   5.279 -0.0318 -0.3816  0.4489
 9043TIP3    H127093   2.255   6.654   5.271 -0.0383 -0.0959 -0.5283
 9043TIP3    H227094   2.150   6.751   5.221 -1.1509 -1.2965 -0.5519
 9044TIP3   OH227095   5.411   0.714   1.805  0.4909  0.0855 -0.3435
 9044TIP3    H127096   5.369   0.674   1.882 -2.0840 -2.6106 -2.8723
 9044TIP3    H227097   5.493   0.666   1.796 -0.4753 -1.5601 -0.7594
 9045TIP3   OH227098   1.217   3.126   3.255  0.0832  0.4948 -0.2486
 9045TIP3    H127099   1.252   3.199   3.306  0.1193 -0.5764  1.3266
 9045TIP3    H227100   1.256   3.048   3.294 -0.6781 -0.4377 -1.2861
 9046TIP3   OH227101   0.354   2.371   3.069 -0.0621  0.1841 -0.3919
 9046TIP3    H127102   0.391   2.401   2.986  0.6518 -2.1908 -1.0106
 9046TIP3    H227103   0.427   2.326   3.112 -1.1047 -0.8236  0.3590
 9047TIP3   OH227104   6.644   0.998   3.645 -0.5318  0.5118  0.2697
 9047TIP3    H127105   6.697   1.008   3.566 -2.3116  0.6759 -0.9675
 9047TIP3    H227106   6.618   0.905   3.645  0.1879  0.2937  1.1773
 9048TIP3   OH227107   0.118   4.856   5.816  0.1814 -0.3561 -0.3527
 9048TIP3    H127108   0.157   4.925   5.870 -2.6536 -0.4505  2.0738
 9048TIP3    H227109   0.153   4.775   5.852 -1.3740 -0.3963  1.2224
 9049TIP3   OH227110   7.067   1.396   5.640 -0.0211 -0.5393 -0.7424
 9049TIP3    H127111   7.128   1.465   5.668  1.7600 -2.7110  1.0957
 9049TIP3    H227112   6.983   1.423   5.676  0.7530  0.4189  0.4479
 9050TIP3   OH227113   1.948   3.504   5.322 -0.1626 -0.0267 -0.2588
 9050TIP3    H127114   1.995   3.517   5.404 -0.2941  0.9054 -0.3217
 9050TIP3    H227115   1.999   3.437   5.276  1.0619  0.8820 -0.2749
 9051TIP3   OH227116   2.572   3.329   1.384  0.0712  0.4566 -0.1483
 9051TIP3    H127117   2.591   3.418   1.413 -0.5674  1.0416 -1.4355
 9051TIP3    H227118   2.654   3.282   1.396  0.5540  1.3383  0.1186
 9052TIP3   OH227119   4.558   0.440   0.067 -0.0870 -0.8951 -0.1980
 9052TIP3    H127120   4.567   0.462   0.160 -3.1316 -0.2429  0.0457
 9052TIP3    H227121   4.606   0.509   0.021  0.6407 -0.6858  0.8586
 9053TIP3   OH227122   2.556   5.656   2.216 -0.4284 -0.0648  0.4249
 9053TIP3    H127123   2.643   5.690   2.233  0.0245 -0.1397 -1.5395
 9053TIP3    H227124   2.523   5.708   2.143 -0.8413 -1.9551 -0.8034
 9054TIP3   OH227125   5.157   3.590   3.956 -0.0107  0.5209 -0.2559
 9054TIP3    H127126   5.084   3.531   3.936  1.0705 -0.5753 -1.1636
 9054TIP3    H227127   5.178   3.630   3.872  0.6045  0.6075 -0.0616
 9055TIP3   OH227128   7.242   0.095   3.271 -0.0617 -0.3120  0.1125
 9055TIP3    H127129   7.203   0.182   3.266 -0.7894 -0.6649 -0.6587
 9055TIP3    H227130   7.177   0.037   3.232  0.9344 -1.0293 -0.5503
 9056TIP3   OH227131   5.298   3.669   3.726  0.4181 -0.0447 -0.3354
 9056TIP3    H127132   5.306   3.581   3.688  0.4805 -0.0506 -0.3087
 9056TIP3    H227133   5.256   3.721   3.657  0.2283 -0.1354 -0.2891
 9057TIP3   OH227134   6.197   0.602   0.513  0.1888 -0.3595 -0.2043
 9057TIP3    H127135   6.170   0.516   0.480 -2.2118 -0.0602  0.7572
 9057TIP3    H227136   6.292   0.604   0.500  0.1950 -2.7818 -1.0840
 9058TIP3   OH227137   3.899   3.537   3.449  0.4994  0.2853 -0.0910
 9058TIP3    H127138   3.977   3.580   3.416  1.8156 -2.2944 -0.6280
 9058TIP3    H227139   3.831   3.558   3.385  0.7746  2.3086  0.2204
 9059TIP3   OH227140   3.632   2.764   3.335 -0.2961  0.0975 -0.1647
 9059TIP3    H127141   3.577   2.757   3.257 -1.2196 -2.5846  0.6453
 9059TIP3    H227142   3.613   2.851   3.370  0.4715  1.5765 -3.0772
 9060TIP3   OH227143   3.715   1.261   0.858  0.5524 -0.5820  0.2735
 9060TIP3    H127144   3.660   1.260   0.780 -0.0859  0.5676  0.6796
 9060TIP3    H227145   3.656   1.286   0.929  1.1777 -1.3506  1.0841
 9061TIP3   OH227146   4.389   3.271   2.870 -0.3218 -0.0619 -0.1610
 9061TIP3    H127147   4.311   3.288   2.816 -1.2473 -1.3073  0.7306
 9061TIP3    H227148   4.355   3.228   2.948  0.9701  1.8364  1.5479
 9062TIP3   OH227149   4.707   0.915   1.386 -0.0312 -0.4166 -0.6021
 9062TIP3    H127150   4.797   0.886   1.371 -0.2595 -1.2390 -0.3945
 9062TIP3    H227151   4.699   0.995   1.334  0.7004 -0.5439 -0.9244
 9063TIP3   OH227152   1.224   5.765   4.181 -0.4746  0.3498  0.1576
 9063TIP3    H127153   1.129   5.771   4.180 -0.5730 -0.9164  0.2883
 9063TIP3    H227154   1.246   5.711   4.105  0.0524 -0.2748  0.7411
 9064TIP3   OH227155   6.867   0.832   4.524  0.0659 -0.6360 -0.1507
 9064TIP3    H127156   6.810   0.886   4.578  1.5632  0.5169  0.3580
 9064TIP3    H227157   6.925   0.895   4.480  1.4614 -1.7705 -0.0056
 9065TIP3   OH227158   1.212   2.027   2.287  0.2542 -0.1922  0.7054
 9065TIP3    H127159   1.198   1.975   2.208  1.6601  0.0919  0.2322
 9065TIP3    H227160   1.274   1.976   2.338 -1.7041 -1.0671  2.3541
 9066TIP3   OH227161   0.866   3.711   0.562  0.1917  0.5461  0.0689
 9066TIP3    H127162   0.915   3.764   0.500 -1.2536  1.7760 -0.0901
 9066TIP3    H227163   0.931   3.651   0.599  1.4441  0.9952 -1.2972
 9067TIP3   OH227164   1.041   3.058   4.281  0.3569  0.1872 -0.3128
 9067TIP3    H127165   1.083   2.975   4.302  1.5000  0.4457 -1.4529
 9067TIP3    H227166   1.027   3.100   4.366 -2.8581 -2.3042  0.5933
 9068TIP3   OH227167   2.385   2.584   1.017  0.6349  0.3876  0.3406
 9068TIP3    H127168   2.305   2.537   1.041  1.2317 -0.4262  0.7770
 9068TIP3    H227169   2.362   2.677   1.026 -0.2201  0.1605  0.5876
 9069TIP3   OH227170   1.691   5.749   5.073 -0.1080  0.4463  0.5287
 9069TIP3    H127171   1.666   5.701   5.152 -0.1124  1.1775  0.9790
 9069TIP3    H227172   1.607   5.780   5.037 -0.1430 -0.2718 -0.0153
 9070TIP3   OH227173   2.742   2.194   5.812 -0.0568  0.3633 -0.1618
 9070TIP3    H127174   2.756   2.212   5.905 -1.4114  1.1469 -0.0778
 9070TIP3    H227175   2.747   2.280   5.770 -0.7708  0.1830 -0.6262
 9071TIP3   OH227176   5.532   2.283   1.166  0.1584 -0.2808  0.1883
 9071TIP3    H127177   5.613   2.276   1.115  0.9295 -0.8634  1.4610
 9071TIP3    H227178   5.560   2.315   1.252 -1.1203  0.6335  0.2973
 9072TIP3   OH227179   0.993   6.430   0.719 -0.4303  0.1493  0.0723
 9072TIP3    H127180   0.921   6.493   0.708 -0.2044  0.2163 -1.2461
 9072TIP3    H227181   0.967   6.355   0.667  0.0906 -0.1500  0.2398
 9073TIP3   OH227182   4.365   3.840   0.192 -0.3425  0.1963  0.5339
 9073TIP3    H127183   4.337   3.930   0.177  0.8334  0.3131 -1.1901
 9073TIP3    H227184   4.332   3.791   0.116 -0.5442 -0.7467  1.2063
 9074TIP3   OH227185   2.369   4.067   5.717  0.0621  0.1717 -0.1737
 9074TIP3    H127186   2.277   4.057   5.694 -0.3931  1.4979  0.8718
 9074TIP3    H227187   2.401   4.136   5.659 -0.3404  1.5266  1.1224
 9075TIP3   OH227188   4.869   2.268   5.265 -0.0699  0.4951  0.5848
 9075TIP3    H127189   4.814   2.238   5.192  0.5649  1.6562 -0.4198
 9075TIP3    H227190   4.807   2.300   5.330 -0.6935 -1.4526  1.0223
 9076TIP3   OH227191   2.185   4.301   5.380 -0.1978  0.1761  0.9892
 9076TIP3    H127192   2.171   4.257   5.464  2.2252 -1.0816  0.8231
 9076TIP3    H227193   2.237   4.378   5.401  2.8134 -1.5692  0.4947
 9077TIP3   OH227194   3.160   0.697   4.636 -0.8673  0.3508 -0.1124
 9077TIP3    H127195   3.209   0.623   4.598 -2.1112 -0.0483 -0.9852
 9077TIP3    H227196   3.164   0.681   4.730  0.6299  0.3095 -0.1488
 9078TIP3   OH227197   2.440   6.122   1.677  0.1204  0.1320  0.0798
 9078TIP3    H127198   2.478   6.135   1.590  0.0764 -1.7307 -0.2511
 9078TIP3    H227199   2.350   6.095   1.661 -0.3530  1.2006  0.7823
 9079TIP3   OH227200   5.249   3.958   4.636  0.3759  0.3121 -0.4401
 9079TIP3    H127201   5.182   4.024   4.649 -0.0235 -0.1383 -0.1586
 9079TIP3    H227202   5.326   3.992   4.683  0.0243  0.3525  0.1118
 9080TIP3   OH227203   2.336   1.602   1.387  0.8292 -0.0937 -0.1161
 9080TIP3    H127204   2.307   1.656   1.313 -1.8148 -0.5534  0.4861
 9080TIP3    H227205   2.381   1.529   1.346 -0.7307 -0.4268 -1.3655
 9081TIP3   OH227206   4.371   1.933   3.353  0.2064  0.3421  0.0892
 9081TIP3    H127207   4.422   1.989   3.412  0.7836  0.2456 -0.3113
 9081TIP3    H227208   4.433   1.908   3.285  0.2405 -1.5389  0.7478
 9082TIP3   OH227209   3.940   2.572   4.265 -0.0475 -0.1274  0.1926
 9082TIP3    H127210   3.858   2.599   4.307 -0.4349 -0.6534 -0.2126
 9082TIP3    H227211   3.920   2.488   4.224  0.8442 -0.5149  0.5214
 9083TIP3   OH227212   1.753   2.418   5.369 -0.3075  0.5236  0.1574
 9083TIP3    H127213   1.734   2.508   5.342 -2.0330  0.4801  1.0210
 9083TIP3    H227214   1.848   2.412   5.372 -0.1710  2.3250  0.0837
 9084TIP3   OH227215   5.835   5.131   4.813  0.0079  0.1336 -0.3178
 9084TIP3    H127216   5.890   5.088   4.748  2.0751  1.3243  0.5434
 9084TIP3    H227217   5.773   5.063   4.840  1.9299 -1.7406 -0.3668
 9085TIP3   OH227218   5.446   2.873   5.867  0.0474 -0.4504 -0.2052
 9085TIP3    H127219   5.434   2.914   5.782  0.6471  0.7090  0.2506
 9085TIP3    H227220   5.526   2.913   5.902  0.9722 -2.3921  0.0418
 9086TIP3   OH227221   6.001   2.499   1.713 -0.1702  0.5732  0.1818
 9086TIP3    H127222   5.965   2.479   1.800  0.8290 -0.9560  0.2841
 9086TIP3    H227223   6.092   2.469   1.718  0.2729  1.6751 -0.9896
 9087TIP3   OH227224   6.788   5.032   5.746  0.1488  0.5407 -0.0599
 9087TIP3    H127225   6.770   4.966   5.813 -1.0833  0.6334 -0.2699
 9087TIP3    H227226   6.812   4.982   5.668  0.9403  0.4122  0.2565
 9088TIP3   OH227227   6.880   4.387   3.977 -0.2360  0.7052 -0.5811
 9088TIP3    H127228   6.816   4.426   4.037  2.8850  3.0625  1.5814
 9088TIP3    H227229   6.915   4.461   3.928  2.2155 -0.0856 -0.1716
 9089TIP3   OH227230   1.684   6.745   4.038 -0.1806  0.0238  0.0083
 9089TIP3    H127231   1.622   6.798   4.087 -1.1504  0.6142 -1.7645
 9089TIP3    H227232   1.630   6.699   3.973  0.9913 -0.9955 -0.2884
 9090TIP3   OH227233   2.015   4.903   4.214 -0.7863 -0.1494  0.2686
 9090TIP3    H127234   2.041   4.949   4.294 -1.2240  0.4213  0.0964
 9090TIP3    H227235   1.923   4.880   4.229 -1.6485  2.1318 -1.0052
 9091TIP3   OH227236   5.920   2.638   0.508 -1.1614  0.0398 -0.0078
 9091TIP3    H127237   5.938   2.616   0.600 -0.1226 -0.7934 -0.3864
 9091TIP3    H227238   5.825   2.632   0.500 -1.1974 -0.7380  0.8087
 9092TIP3   OH227239   0.721   4.530   3.093  0.0956  0.1065 -0.1386
 9092TIP3    H127240   0.716   4.600   3.028  0.9779  1.1417  0.8485
 9092TIP3    H227241   0.643   4.543   3.147 -0.3022 -0.3503 -0.6011
 9093TIP3   OH227242   6.389   5.433   5.150  0.4157  0.1416 -0.3541
 9093TIP3    H127243   6.381   5.434   5.055  2.0497  0.5933 -0.5118
 9093TIP3    H227244   6.463   5.491   5.169 -1.8831  2.7857  1.4312
 9094TIP3   OH227245   1.405   3.905   4.606  0.3180 -0.1784  0.5534
 9094TIP3    H127246   1.365   3.836   4.659  0.5293 -1.4980 -0.9368
 9094TIP3    H227247   1.406   3.870   4.517  1.1382  1.4516 -0.1293
 9095TIP3   OH227248   0.350   1.141   4.297 -0.0704  0.0752 -0.8003
 9095TIP3    H127249   0.336   1.179   4.210  0.1587  0.2255 -0.7745
 9095TIP3    H227250   0.415   1.072   4.282  2.4848  2.1844 -0.2928
 9096TIP3   OH227251   0.757   2.589   3.734  0.2944 -0.7278 -0.3468
 9096TIP3    H127252   0.675   2.560   3.773  0.1028  1.2375  0.8237
 9096TIP3    H227253   0.733   2.619   3.646 -0.6708  1.6291  0.6445
 9097TIP3   OH227254   4.319   3.285   0.434 -0.8947 -0.3646 -0.3175
 9097TIP3    H127255   4.395   3.266   0.489 -1.2949 -0.3423  0.2511
 9097TIP3    H227256   4.307   3.206   0.382  0.6388  0.2933 -1.7753
 9098TIP3   OH227257   5.404   3.442   4.567  0.0574 -0.1174 -0.3972
 9098TIP3    H127258   5.479   3.488   4.607  1.3542 -1.3123 -1.3447
 9098TIP3    H227259   5.437   3.354   4.549 -1.4969 -0.5734 -1.1462
 9099TIP3   OH227260   2.253   6.291   4.353 -0.4584  0.7884 -0.2322
 9099TIP3    H127261   2.290   6.375   4.326 -0.4779  1.5187  1.8466
 9099TIP3    H227262   2.323   6.227   4.334  1.1732  1.8609  1.7888
 9100TIP3   OH227263   6.664   2.659   3.385  1.0751 -0.5858 -0.0562
 9100TIP3    H127264   6.629   2.584   3.337  0.3517  1.5977 -3.2105
 9100TIP3    H227265   6.588   2.700   3.425  1.0067  0.0973 -0.8556
 9101TIP3   OH227266   5.927   4.103   4.588 -0.1620 -0.0165  0.5180
 9101TIP3    H127267   5.842   4.064   4.569  0.7946 -3.0572  1.8606
 9101TIP3    H227268   5.934   4.099   4.683  1.1707  0.8994  0.4770
 9102TIP3   OH227269   5.563   2.927   3.305 -0.2467 -0.0843 -0.0323
 9102TIP3    H127270   5.621   2.948   3.378  0.1653 -1.6073  0.1130
 9102TIP3    H227271   5.616   2.872   3.247 -1.7244 -2.2337  0.5067
 9103TIP3   OH227272   3.974   1.261   2.457 -0.6345  0.4193  0.0238
 9103TIP3    H127273   3.963   1.341   2.407  0.5605 -0.3296 -1.5268
 9103TIP3    H227274   4.002   1.290   2.544 -1.2286  1.6951 -0.1896
 9104TIP3   OH227275   4.002   4.726   2.231  0.1705 -0.0323 -0.5664
 9104TIP3    H127276   3.938   4.772   2.177  0.0424 -0.5166 -0.8374
 9104TIP3    H227277   4.077   4.785   2.236  0.5301 -0.3259 -1.9930
 9105TIP3   OH227278   0.479   1.785   2.174 -0.1144  0.0176 -0.2166
 9105TIP3    H127279   0.396   1.738   2.164 -1.0205  1.1352  1.5208
 9105TIP3    H227280   0.457   1.862   2.227  2.1408  0.0060  0.8684
 9106TIP3   OH227281   1.529   2.021   2.056  0.0727  0.2513 -0.1187
 9106TIP3    H127282   1.572   1.990   2.135  0.2204 -0.4127 -0.4490
 9106TIP3    H227283   1.477   1.946   2.026  0.3499  0.3512 -0.8783
 9107TIP3   OH227284   1.947   5.790   5.158 -0.2136 -0.2112  0.8173
 9107TIP3    H127285   1.947   5.885   5.164 -0.8417 -0.1849  0.4629
 9107TIP3    H227286   1.865   5.768   5.114 -0.4458 -0.9622  1.5924
 9108TIP3   OH227287   2.046   5.290   1.450 -0.9598  0.3522  0.2111
 9108TIP3    H127288   2.068   5.310   1.541  1.4409  4.7346 -1.0463
 9108TIP3    H227289   2.123   5.244   1.417 -0.1746  2.0391 -0.4118
 9109TIP3   OH227290   5.824   0.746   1.968 -0.5100  0.7925 -0.3032
 9109TIP3    H127291   5.849   0.780   1.883 -2.3647  0.8771 -0.8707
 9109TIP3    H227292   5.744   0.695   1.951  0.6518 -1.5972  0.9447
 9110TIP3   OH227293   1.884   2.530   0.982  0.0201 -0.6811  0.1915
 9110TIP3    H127294   1.804   2.554   1.028 -1.1283 -1.2999 -1.3530
 9110TIP3    H227295   1.919   2.613   0.949  0.0208 -0.4085  0.8617
 9111TIP3   OH227296   1.951   0.437   1.622  0.7095 -0.0336  0.3106
 9111TIP3    H127297   1.987   0.454   1.709  0.3836 -1.2824  0.6966
 9111TIP3    H227298   1.860   0.413   1.637  0.8448 -0.9794 -0.3132
 9112TIP3   OH227299   5.190   5.798   2.610 -0.0315 -0.5708 -0.2964
 9112TIP3    H127300   5.244   5.846   2.548 -0.9979 -0.6883 -1.2528
 9112TIP3    H227301   5.178   5.858   2.684 -1.1020  0.6514 -1.4082
 9113TIP3   OH227302   2.925   1.363   2.279 -0.1492  0.1112  0.2066
 9113TIP3    H127303   2.867   1.361   2.202  0.2976  1.4046 -0.1871
 9113TIP3    H227304   2.982   1.438   2.263  1.3139 -0.8474  0.8264
 9114TIP3   OH227305   2.661   4.047   0.464  0.2691  0.7915 -0.5350
 9114TIP3    H127306   2.746   4.003   0.460 -0.2717 -0.3928  0.4515
 9114TIP3    H227307   2.645   4.076   0.374  0.7914 -0.7828 -1.1728
 9115TIP3   OH227308   0.289   0.725   4.905 -0.1264 -0.2114 -0.5284
 9115TIP3    H127309   0.251   0.644   4.938 -0.9284  1.5289  3.3991
 9115TIP3    H227310   0.217   0.766   4.856 -0.8561 -0.3750  0.3740
 9116TIP3   OH227311   2.524   6.185   1.410 -0.4481 -0.3137  0.0196
 9116TIP3    H127312   2.558   6.273   1.426 -2.3792  0.3856  0.5991
 9116TIP3    H227313   2.578   6.151   1.339  1.0375  0.9118  0.5108
 9117TIP3   OH227314   7.067   5.775   2.620  0.3430 -0.5256  0.6572
 9117TIP3    H127315   7.148   5.786   2.570  0.1264 -1.9406 -0.0526
 9117TIP3    H227316   7.096   5.749   2.707  0.6756  0.3927  0.8350
 9118TIP3   OH227317   4.545   0.748   2.723 -0.0761 -0.3301  0.3833
 9118TIP3    H127318   4.576   0.658   2.731  0.7921 -0.2078 -1.2032
 9118TIP3    H227319   4.484   0.746   2.649 -0.8974  0.1905  1.0302
 9119TIP3   OH227320   5.911   0.449   1.497 -0.1167  0.4596  0.2126
 9119TIP3    H127321   5.969   0.497   1.439  0.9312 -0.4244  0.4907
 9119TIP3    H227322   5.837   0.423   1.442  1.1062 -0.8137 -0.8876
 9120TIP3   OH227323   0.473   6.340   1.736 -0.2589 -0.1107  0.3405
 9120TIP3    H127324   0.506   6.257   1.770  1.0847  0.5369  0.6983
 9120TIP3    H227325   0.540   6.404   1.759 -1.1503  1.0438 -0.1341
 9121TIP3   OH227326   4.775   2.856   1.348  0.2191 -0.3439 -1.2219
 9121TIP3    H127327   4.827   2.823   1.275  1.9277  1.2622 -0.8356
 9121TIP3    H227328   4.781   2.951   1.340 -1.6309 -0.1217 -0.3849
 9122TIP3   OH227329   6.303   5.011   3.771  0.1810  0.2029  0.1765
 9122TIP3    H127330   6.398   5.020   3.772  0.7201 -3.4739 -1.2969
 9122TIP3    H227331   6.270   5.100   3.774  3.7350  1.8512 -2.6684
 9123TIP3   OH227332   1.133   6.424   5.440 -0.2479  0.3982  0.1321
 9123TIP3    H127333   1.087   6.431   5.524  0.6196 -0.1011  0.6638
 9123TIP3    H227334   1.103   6.500   5.390 -0.4285  0.9665  1.0697
 9124TIP3   OH227335   2.955   4.189   1.559 -0.7733  0.1926 -0.3023
 9124TIP3    H127336   2.963   4.208   1.652 -0.9601 -0.1230 -0.2190
 9124TIP3    H227337   2.880   4.129   1.553  1.6168 -3.0667 -0.1639
 9125TIP3   OH227338   3.959   1.571   0.436 -0.6847 -0.3053  0.2695
 9125TIP3    H127339   4.003   1.495   0.474 -0.8846 -0.4208  0.2729
 9125TIP3    H227340   3.888   1.590   0.498  0.0523  0.5862  0.8754
 9126TIP3   OH227341   3.777   0.069   4.081  0.6399  0.8522  0.3946
 9126TIP3    H127342   3.746   0.157   4.057  1.4265  0.5525 -2.0628
 9126TIP3    H227343   3.768   0.018   4.001  0.5898 -1.2372  1.6608
 9127TIP3   OH227344   5.044   4.762   0.612 -0.6633 -0.3542  0.6707
 9127TIP3    H127345   5.015   4.806   0.692  0.8512 -0.5224  1.3469
 9127TIP3    H227346   4.984   4.688   0.602 -1.5742  0.3235  0.9984
 9128TIP3   OH227347   1.955   4.651   0.392 -0.2106  0.4874  0.0012
 9128TIP3    H127348   1.982   4.700   0.470  1.8628  1.3034 -1.1438
 9128TIP3    H227349   1.861   4.670   0.383  0.1948  3.1086  0.4590
 9129TIP3   OH227350   5.035   5.957   5.599 -0.0349  0.4109  0.7301
 9129TIP3    H127351   4.957   5.902   5.606  0.8099 -0.7885  0.9993
 9129TIP3    H227352   5.035   6.008   5.680 -0.9451  1.0000  0.3772
 9130TIP3   OH227353   2.924   4.980   5.445 -0.0781  0.1423 -0.8920
 9130TIP3    H127354   2.939   5.021   5.530 -0.6286  0.8669 -1.1408
 9130TIP3    H227355   3.012   4.970   5.408  0.0046  2.9911 -1.7002
 9131TIP3   OH227356   4.486   2.814   1.881  0.1992 -0.6401  0.2510
 9131TIP3    H127357   4.474   2.841   1.790  4.1263 -1.2211 -0.6221
 9131TIP3    H227358   4.453   2.887   1.933 -1.3920  0.0526 -1.6348
 9132TIP3   OH227359   0.581   5.123   3.293 -0.1304  0.7057 -0.1631
 9132TIP3    H127360   0.544   5.090   3.211 -1.4411  0.8159  0.3616
 9132TIP3    H227361   0.668   5.085   3.297  0.0437  0.8619 -1.7082
 9133TIP3   OH227362   3.257   1.435   0.646 -0.2562  0.5715  0.4778
 9133TIP3    H127363   3.213   1.488   0.713 -0.4550 -0.1944  0.9684
 9133TIP3    H227364   3.264   1.493   0.570 -0.0439  1.4515  1.1483
 9134TIP3   OH227365   2.807   4.543   3.470 -0.0062 -0.1314 -0.5503
 9134TIP3    H127366   2.862   4.486   3.416  0.0673 -0.0456 -0.5674
 9134TIP3    H227367   2.733   4.566   3.413 -0.2750 -0.5790 -0.3901
 9135TIP3   OH227368   4.590   4.572   5.582  0.0961 -0.2237 -0.0835
 9135TIP3    H127369   4.684   4.583   5.591  0.2573 -0.8057 -0.9218
 9135TIP3    H227370   4.553   4.615   5.659  0.8988  2.1907 -0.9451
 9136TIP3   OH227371   4.598   1.205   1.563  0.2860  0.1257 -0.4588
 9136TIP3    H127372   4.625   1.140   1.626 -1.1931 -1.5122 -1.4170
 9136TIP3    H227373   4.517   1.242   1.599 -0.6343 -0.9034 -1.3638
 9137TIP3   OH227374   7.200   0.562   0.829 -0.8348  0.2994 -0.2273
 9137TIP3    H127375   7.261   0.561   0.755 -1.6072  0.4472 -0.8877
 9137TIP3    H227376   7.157   0.648   0.824 -1.6760 -0.1071 -0.2828
 9138TIP3   OH227377   3.879   6.438   0.823  0.2365 -0.0229 -0.5415
 9138TIP3    H127378   3.815   6.473   0.760 -1.2783 -0.3915  0.7322
 9138TIP3    H227379   3.833   6.364   0.864  2.3640 -1.8547 -1.2469
 9139TIP3   OH227380   5.512   2.316   4.560  0.1308 -0.1059 -0.0484
 9139TIP3    H127381   5.548   2.281   4.479 -0.0660 -0.3715 -0.0218
 9139TIP3    H227382   5.533   2.409   4.557  3.2392 -0.6139  1.1798
 9140TIP3   OH227383   4.265   5.037   2.563  0.7383  0.2432 -0.4431
 9140TIP3    H127384   4.347   5.057   2.606  1.4263  0.1362 -1.6535
 9140TIP3    H227385   4.212   5.116   2.573  1.3555  0.6639 -0.4822
 9141TIP3   OH227386   1.477   2.050   1.349 -0.3343 -0.3198  0.1014
 9141TIP3    H127387   1.421   2.119   1.384 -0.3132  1.7453 -3.4673
 9141TIP3    H227388   1.429   2.016   1.274  1.9212 -0.4275 -1.4045
 9142TIP3   OH227389   3.514   3.013   0.701  0.1947  0.2687 -0.5169
 9142TIP3    H127390   3.492   2.939   0.758  0.0909  1.6494  1.3308
 9142TIP3    H227391   3.605   2.996   0.675  0.0425 -0.7079 -0.4513
 9143TIP3   OH227392   1.003   1.546   4.782  0.3178 -0.2582 -0.0992
 9143TIP3    H127393   1.098   1.555   4.787  0.3244 -0.9929  1.7933
 9143TIP3    H227394   0.969   1.616   4.837 -0.3158  0.6534 -1.5936
 9144TIP3   OH227395   2.362   3.743   0.014 -0.3968  0.2683  0.1995
 9144TIP3    H127396   2.439   3.800   0.021  0.2100 -0.5460  0.3654
 9144TIP3    H227397   2.322   3.746   0.101 -0.9737  1.2566 -0.0903
 9145TIP3   OH227398   3.740   3.813   4.248 -0.3103 -0.0426 -0.4375
 9145TIP3    H127399   3.644   3.811   4.245 -0.3994  0.2635  1.4502
 9145TIP3    H227400   3.764   3.732   4.293  0.4163 -0.7358 -1.9985
 9146TIP3   OH227401   2.498   0.351   5.167  0.0779  0.0307 -0.1845
 9146TIP3    H127402   2.534   0.423   5.218  1.1884  0.2162 -1.2015
 9146TIP3    H227403   2.574   0.295   5.147 -0.2760  0.0809 -1.8033
 9147TIP3   OH227404   0.864   3.098   4.568 -0.5926  0.4253 -0.1165
 9147TIP3    H127405   0.857   3.113   4.663  1.0901 -0.9376  0.2629
 9147TIP3    H227406   0.825   3.177   4.529  0.3766  1.8900  1.7060
 9148TIP3   OH227407   3.773   6.521   0.286 -0.2800 -0.0435  0.4678
 9148TIP3    H127408   3.691   6.476   0.267  0.9263 -2.2053 -0.0265
 9148TIP3    H227409   3.806   6.548   0.200 -1.2405  2.3742  0.8007
 9149TIP3   OH227410   3.564   0.899   0.321  0.0441 -0.1237  0.0132
 9149TIP3    H127411   3.532   0.820   0.277  0.9940  0.2772 -1.4532
 9149TIP3    H227412   3.597   0.868   0.405  0.3536 -1.2870 -0.5243
 9150TIP3   OH227413   7.006   2.218   2.118 -0.4015  0.5044  0.0056
 9150TIP3    H127414   6.920   2.177   2.132 -0.0546 -0.1042  0.4076
 9150TIP3    H227415   7.063   2.146   2.091 -0.3001  1.1214 -1.5334
 9151TIP3   OH227416   5.929   2.754   2.303 -0.5554  0.3445 -0.4349
 9151TIP3    H127417   5.848   2.804   2.291  0.3260  2.1775  0.7059
 9151TIP3    H227418   5.979   2.805   2.367  2.1179  0.0427 -2.1279
 9152TIP3   OH227419   4.955   2.979   0.351  0.7127 -0.1680  0.1242
 9152TIP3    H127420   4.860   2.981   0.367  0.2671 -1.7273 -1.8599
 9152TIP3    H227421   4.988   2.913   0.413  0.4310  0.0428  0.5038
 9153TIP3   OH227422   3.157   1.692   5.179 -0.0775 -0.2527  0.2613
 9153TIP3    H127423   3.152   1.606   5.136  0.4889  0.0392 -0.4014
 9153TIP3    H227424   3.151   1.672   5.273  2.0398 -1.2147  0.2499
 9154TIP3   OH227425   4.556   2.287   4.791 -0.2816 -0.4533  0.5798
 9154TIP3    H127426   4.597   2.298   4.705  1.4639  4.4811  1.7241
 9154TIP3    H227427   4.464   2.309   4.776 -0.1724 -0.4758 -0.1821
 9155TIP3   OH227428   3.064   3.237   5.066 -0.6910  0.1803 -0.6098
 9155TIP3    H127429   3.069   3.258   5.159  1.5655 -1.7834 -0.2015
 9155TIP3    H227430   3.067   3.322   5.022 -0.0347  1.0554  1.0674
 9156TIP3   OH227431   0.293   6.080   0.219  0.6811  0.3182 -0.0863
 9156TIP3    H127432   0.338   6.157   0.253  0.7145 -0.4209  1.6101
 9156TIP3    H227433   0.200   6.097   0.233  0.7147 -0.1468  0.7849
 9157TIP3   OH227434   5.978   4.147   3.406 -1.1596 -0.6188 -0.9895
 9157TIP3    H127435   6.052   4.179   3.458  0.2270 -2.4790 -1.7126
 9157TIP3    H227436   5.902   4.164   3.460 -0.6273  3.6560 -1.2193
 9158TIP3   OH227437   5.361   4.161   5.423  0.3678 -0.3549 -0.0362
 9158TIP3    H127438   5.408   4.229   5.471 -0.3343 -1.0059  1.6547
 9158TIP3    H227439   5.310   4.116   5.490 -1.0288 -1.0132 -1.4874
 9159TIP3   OH227440   6.715   5.753   2.319  0.3836 -0.0364  0.2923
 9159TIP3    H127441   6.627   5.780   2.346 -0.1410  0.5989 -1.8827
 9159TIP3    H227442   6.708   5.658   2.309 -0.5671  0.1536 -1.3535
 9160TIP3   OH227443   5.191   0.166   4.508  0.1022  0.2839 -0.2320
 9160TIP3    H127444   5.132   0.160   4.432  0.6107 -1.4229 -0.5342
 9160TIP3    H227445   5.278   0.160   4.470  0.3375 -2.4106  0.5649
 9161TIP3   OH227446   4.223   1.356   3.472  0.8392  0.0435 -0.6882
 9161TIP3    H127447   4.180   1.441   3.467  2.0262  0.6538 -0.8150
 9161TIP3    H227448   4.314   1.376   3.490  1.1806 -1.1994 -0.9232
 9162TIP3   OH227449   6.378   1.853   0.062 -0.2023 -0.1645  0.1490
 9162TIP3    H127450   6.335   1.802   0.131  0.8325 -1.2027  0.0531
 9162TIP3    H227451   6.348   1.812  -0.020 -0.4388  0.2590  0.0231
 9163TIP3   OH227452   1.177   4.108   2.339 -0.4485 -0.2855 -0.6208
 9163TIP3    H127453   1.173   4.080   2.430  2.0859 -0.0417 -0.3427
 9163TIP3    H227454   1.116   4.181   2.333  0.0049  0.3051  1.1590
 9164TIP3   OH227455   7.110   5.264   2.547  0.1536 -0.6347  0.1146
 9164TIP3    H127456   7.045   5.334   2.558 -0.3428 -1.2435  1.2497
 9164TIP3    H227457   7.109   5.246   2.453 -1.4833 -0.7366  0.1089
 9165TIP3   OH227458   0.096   6.810   4.263  0.1418  0.6147 -0.2242
 9165TIP3    H127459   0.117   6.835   4.173  2.8059  1.7300  0.6246
 9165TIP3    H227460   0.121   6.718   4.269  0.4252  0.6730 -0.4915
 9166TIP3   OH227461   1.460   1.645   1.695 -0.2790 -0.0159  0.0988
 9166TIP3    H127462   1.520   1.719   1.683 -2.1427  1.5587  0.0712
 9166TIP3    H227463   1.452   1.606   1.608  0.2960  0.0870 -0.0037
 9167TIP3   OH227464   4.439   3.856   1.107  0.0954  0.2839  0.1670
 9167TIP3    H127465   4.390   3.938   1.111  1.5364  1.2292 -0.8668
 9167TIP3    H227466   4.393   3.798   1.169 -1.9328  1.2962 -0.3037
 9168TIP3   OH227467   1.051   0.884   3.080 -0.1376  0.0771  0.0122
 9168TIP3    H127468   1.019   0.926   3.159  1.1221 -1.8211  1.6145
 9168TIP3    H227469   1.130   0.933   3.057 -1.3838  1.6806 -1.1282
 9169TIP3   OH227470   4.239   4.894   0.275  0.0115  0.3805  0.6156
 9169TIP3    H127471   4.220   4.830   0.207  1.1642  0.9604 -0.2883
 9169TIP3    H227472   4.279   4.843   0.345  1.0830  0.1200 -0.1675
 9170TIP3   OH227473   5.820   2.320   0.578 -0.6874  0.5632 -0.1314
 9170TIP3    H127474   5.784   2.231   0.571  0.0734  0.0285  2.0796
 9170TIP3    H227475   5.914   2.307   0.587 -0.7948  1.2564  3.6706
 9171TIP3   OH227476   4.173   3.956   3.809  0.1274 -0.1819 -0.6355
 9171TIP3    H127477   4.254   3.952   3.860 -1.3839  0.1355  1.9443
 9171TIP3    H227478   4.160   4.050   3.793 -0.1030 -0.1619 -0.3533
 9172TIP3   OH227479   1.917   4.676   2.762 -0.2859  0.0577  0.0225
 9172TIP3    H127480   1.958   4.594   2.790  1.0845  0.5631 -0.4169
 9172TIP3    H227481   1.931   4.678   2.667 -1.7748  0.0323 -0.2186
 9173TIP3   OH227482   4.294   0.681   4.292 -0.3238  0.5199  0.1505
 9173TIP3    H127483   4.229   0.729   4.240  0.1716 -1.0693 -2.1197
 9173TIP3    H227484   4.290   0.591   4.258  1.0368 -0.2993  1.9724
 9174TIP3   OH227485   2.613   6.078   2.201  0.1919  0.3162  0.5816
 9174TIP3    H127486   2.585   6.033   2.121  1.3835 -0.8917  0.8064
 9174TIP3    H227487   2.632   6.007   2.262  0.7657  1.1808  1.4228
 9175TIP3   OH227488   1.986   1.858   5.729  0.0836 -0.0416  0.0244
 9175TIP3    H127489   1.932   1.935   5.710 -1.2301 -0.9640 -0.2036
 9175TIP3    H227490   1.956   1.829   5.815  2.2271  1.0108  1.2002
 9176TIP3   OH227491   2.087   5.437   0.962  0.3598  0.1150  0.0862
 9176TIP3    H127492   2.117   5.452   0.873  0.7276  2.5464  0.5506
 9176TIP3    H227493   2.027   5.509   0.980 -2.6404 -2.3194  0.6329
 9177TIP3   OH227494   4.469   5.025   5.796 -0.0490 -0.1597 -0.2590
 9177TIP3    H127495   4.479   5.058   5.706 -1.3198  0.0579 -0.3328
 9177TIP3    H227496   4.375   5.026   5.812  0.2020  0.8226  1.4613
 9178TIP3   OH227497   0.516   6.051   1.761  0.4571  0.2968 -0.3986
 9178TIP3    H127498   0.588   6.075   1.702  1.5522  1.9207  1.4928
 9178TIP3    H227499   0.541   5.964   1.794  1.2094  0.5634 -0.2573
 9179TIP3   OH227500   2.698   0.580   5.041 -0.4386 -0.4614 -0.2777
 9179TIP3    H127501   2.710   0.663   5.089 -1.2952  0.7988 -2.1254
 9179TIP3    H227502   2.773   0.576   4.982 -0.2330 -1.1879  0.0298
 9180TIP3   OH227503   6.574   3.290   3.577 -0.3022 -0.1288  0.9953
 9180TIP3    H127504   6.651   3.281   3.633 -0.8824  0.0876  1.8439
 9180TIP3    H227505   6.541   3.200   3.567  0.0718 -0.2237  0.6142
 9181TIP3   OH227506   5.471   3.746   1.204  0.3174  0.1981  0.1659
 9181TIP3    H127507   5.494   3.755   1.297  1.3060  1.7621 -0.1971
 9181TIP3    H227508   5.540   3.691   1.168 -0.1390 -0.5198  0.3627
 9182TIP3   OH227509   4.107   5.150   5.209 -0.2864 -0.0402 -0.1715
 9182TIP3    H127510   4.081   5.181   5.123 -1.8659 -1.1215 -0.1329
 9182TIP3    H227511   4.037   5.181   5.268  1.7737  2.4733  1.1547
 9183TIP3   OH227512   1.658   4.865   5.022 -0.2134  0.1640 -0.0744
 9183TIP3    H127513   1.679   4.956   5.003  2.2233 -0.7861 -2.7231
 9183TIP3    H227514   1.712   4.842   5.097  0.3123  0.5410 -0.3341
 9184TIP3   OH227515   0.368   5.175   5.541 -0.2721  0.4213 -0.0936
 9184TIP3    H127516   0.444   5.170   5.482  1.1751 -0.0645  1.7291
 9184TIP3    H227517   0.310   5.105   5.512 -0.1297  0.8846 -1.5983
 9185TIP3   OH227518   3.548   0.702   0.008 -0.0390  0.1067 -0.3470
 9185TIP3    H127519   3.502   0.784   0.024  0.3935  0.0553  1.4283
 9185TIP3    H227520   3.539   0.654   0.091 -0.1083 -1.5515 -1.2741
 9186TIP3   OH227521   7.143   5.622   1.813  0.4939 -0.1626 -0.0070
 9186TIP3    H127522   7.180   5.710   1.810  1.8838 -0.7066  0.5889
 9186TIP3    H227523   7.218   5.563   1.804 -0.1901 -1.3012  1.3108
 9187TIP3   OH227524   1.151   1.154   3.435 -0.1816  0.1087 -0.0386
 9187TIP3    H127525   1.202   1.092   3.487 -1.3275 -0.6032  0.2706
 9187TIP3    H227526   1.156   1.236   3.485  0.7192  0.0773 -0.0623
 9188TIP3   OH227527   3.233   3.556   4.164  0.2681 -0.4943 -0.3976
 9188TIP3    H127528   3.196   3.644   4.172  2.5655  0.4388  0.6961
 9188TIP3    H227529   3.207   3.527   4.076 -0.1730  1.4295 -0.9478
 9189TIP3   OH227530   6.777   1.174   2.926  0.8200 -0.1448  0.3091
 9189TIP3    H127531   6.784   1.268   2.938  1.8634  0.1012 -1.8933
 9189TIP3    H227532   6.684   1.159   2.909 -0.0076 -0.0304  3.7870
 9190TIP3   OH227533   6.986   1.736   0.123  0.3013  0.0366  0.0576
 9190TIP3    H127534   6.906   1.780   0.152  0.0700  0.1384 -0.7051
 9190TIP3    H227535   7.003   1.773   0.036  2.0967  1.2421  0.8706
 9191TIP3   OH227536   3.789   3.397   0.684 -0.4132 -0.3205  0.4335
 9191TIP3    H127537   3.774   3.348   0.603  0.6471  0.7478 -0.4588
 9191TIP3    H227538   3.744   3.347   0.752  0.2375 -2.2591 -0.5036
 9192TIP3   OH227539   6.323   3.502   0.575 -0.1451 -0.4179  0.0270
 9192TIP3    H127540   6.335   3.577   0.516  0.7817 -1.2113 -0.8250
 9192TIP3    H227541   6.407   3.456   0.573 -1.0669 -2.1660 -0.4339
 9193TIP3   OH227542   0.633   6.191   0.333 -0.4516  0.8221  0.3357
 9193TIP3    H127543   0.586   6.177   0.415  0.4059  0.6424  0.8187
 9193TIP3    H227544   0.583   6.259   0.287 -2.0525 -0.4675  0.0939
 9194TIP3   OH227545   2.397   5.784   1.623 -0.0616 -0.3095 -0.2866
 9194TIP3    H127546   2.441   5.790   1.539 -0.2562 -1.5444 -0.4877
 9194TIP3    H227547   2.467   5.777   1.687  0.0692 -0.2079 -0.4196
 9195TIP3   OH227548   1.915   1.547   3.853 -0.3032  0.2142 -0.3969
 9195TIP3    H127549   1.930   1.558   3.946 -0.4520 -2.1934 -0.0351
 9195TIP3    H227550   1.859   1.622   3.829 -1.3298  0.1990  1.7102
 9196TIP3   OH227551   4.137   2.390   2.463 -0.0449  0.2034 -0.4910
 9196TIP3    H127552   4.067   2.438   2.417  0.7073  1.5574 -0.2833
 9196TIP3    H227553   4.161   2.448   2.535  1.6400  0.0033 -0.8682
 9197TIP3   OH227554   5.548   3.705   5.098 -0.1185 -0.4491  0.4201
 9197TIP3    H127555   5.465   3.673   5.063  0.0047  1.1330 -1.5285
 9197TIP3    H227556   5.540   3.800   5.095  1.4458 -0.2620  1.0268
 9198TIP3   OH227557   6.426   1.177   1.277  1.0738  0.0336  0.2974
 9198TIP3    H127558   6.409   1.253   1.333 -0.3031 -0.9702  1.3051
 9198TIP3    H227559   6.506   1.200   1.230  1.5591  1.4596  1.7127
 9199TIP3   OH227560   5.754   0.143   1.271 -0.5767 -0.1349  0.0923
 9199TIP3    H127561   5.739   0.225   1.223 -1.0286 -0.5301 -0.4616
 9199TIP3    H227562   5.686   0.141   1.338 -0.3372  0.1174  0.3436
 9200TIP3   OH227563   0.363   5.457   1.212  0.3170 -0.3717  0.5940
 9200TIP3    H127564   0.433   5.391   1.218  0.9046  0.3204  1.4365
 9200TIP3    H227565   0.360   5.497   1.298 -1.4364 -0.6796  0.7097
 9201TIP3   OH227566   2.151   5.046   1.996 -0.0079 -0.2056 -0.0477
 9201TIP3    H127567   2.123   5.048   2.087 -0.3788  1.4148 -0.1561
 9201TIP3    H227568   2.077   5.008   1.948 -1.0590  1.6639 -0.0047
 9202TIP3   OH227569   4.923   0.731   3.281  0.2845  0.1842 -0.0060
 9202TIP3    H127570   4.908   0.779   3.362 -0.7982  1.5186 -0.9635
 9202TIP3    H227571   4.894   0.642   3.300 -0.4489  0.6073  0.9071
 9203TIP3   OH227572   2.032   1.918   3.545  0.1951  0.2483  0.2131
 9203TIP3    H127573   2.081   1.840   3.518 -2.2477 -0.9174 -1.3191
 9203TIP3    H227574   2.072   1.990   3.496  1.2103 -0.4030  0.0557
 9204TIP3   OH227575   5.257   2.677   1.022  0.5353 -0.6075 -0.0360
 9204TIP3    H127576   5.196   2.710   0.956  1.0539  0.3534 -0.0641
 9204TIP3    H227577   5.320   2.625   0.972  0.7998 -0.0627 -0.2922
 9205TIP3   OH227578   1.163   1.758   3.726 -0.0857 -0.4138 -0.3983
 9205TIP3    H127579   1.142   1.775   3.634 -2.2967  0.2797  0.1618
 9205TIP3    H227580   1.099   1.810   3.775  1.2597 -0.4935  1.5532
 9206TIP3   OH227581   0.551   4.223   3.609 -0.1825  0.6686  0.0747
 9206TIP3    H127582   0.630   4.274   3.625  0.2414  0.6891 -1.8557
 9206TIP3    H227583   0.482   4.288   3.597  0.1226  0.7897 -1.1836
 9207TIP3   OH227584   6.455   3.952   2.725  0.1940  0.3730  0.1100
 9207TIP3    H127585   6.507   4.027   2.696 -0.6074  0.4036 -1.3070
 9207TIP3    H227586   6.491   3.930   2.811  1.0482  1.8034  0.1464
 9208TIP3   OH227587   4.367   0.273   1.151  0.4509  0.4723 -0.2617
 9208TIP3    H127588   4.378   0.189   1.196  0.5173  0.2544 -0.6819
 9208TIP3    H227589   4.283   0.265   1.106  1.3880 -0.1787 -2.0106
 9209TIP3   OH227590   6.605   2.144   1.746  0.3130 -0.3812 -0.3775
 9209TIP3    H127591   6.576   2.188   1.666  0.9251 -0.0750 -0.4332
 9209TIP3    H227592   6.700   2.146   1.742  0.4040 -2.8001 -0.9950
 9210TIP3   OH227593   7.165   0.027   2.086 -0.1647 -0.2233 -0.0788
 9210TIP3    H127594   7.243   0.083   2.096 -0.7028  0.5394 -0.0049
 9210TIP3    H227595   7.170  -0.006   1.997 -0.9256  1.6934 -0.8947
 9211TIP3   OH227596   0.511   5.365   3.086 -0.1342 -0.0263 -0.0242
 9211TIP3    H127597   0.599   5.328   3.087 -0.9530 -2.0706  0.2494
 9211TIP3    H227598   0.506   5.416   3.005  0.4935 -1.9549 -1.3178
 9212TIP3   OH227599   6.729   3.971   1.670 -0.1703  0.7182  0.2330
 9212TIP3    H127600   6.760   3.999   1.756  2.4443 -2.5242  0.5597
 9212TIP3    H227601   6.667   3.900   1.689  0.1437  0.2245 -0.5373
 9213TIP3   OH227602   1.863   5.140   1.999 -0.6379  0.2404  0.2972
 9213TIP3    H127603   1.849   5.216   2.055  0.0112  0.0095  0.7975
 9213TIP3    H227604   1.858   5.065   2.059  0.0553 -0.0108  0.0535
 9214TIP3   OH227605   3.302   5.012   2.578 -0.7007 -0.4892 -0.8596
 9214TIP3    H127606   3.304   4.917   2.589  0.4764 -0.2465  1.7784
 9214TIP3    H227607   3.393   5.037   2.568 -0.4992  0.6589  2.6749
 9215TIP3   OH227608   5.228   1.553   4.129 -0.3960  0.3650  0.2197
 9215TIP3    H127609   5.230   1.472   4.079  3.1390  0.7619 -0.5943
 9215TIP3    H227610   5.154   1.602   4.094  0.0122 -0.7193 -2.3986
 9216TIP3   OH227611   6.056   3.205   0.965 -0.6936 -0.3944 -0.2448
 9216TIP3    H127612   6.008   3.241   1.039 -0.2679  0.3307 -0.3055
 9216TIP3    H227613   6.109   3.134   1.002 -2.4681 -1.8344 -0.3411
 9217TIP3   OH227614   1.219   5.426   5.134 -0.6126 -0.7379 -0.1837
 9217TIP3    H127615   1.240   5.502   5.188  2.4248 -2.0381  0.6532
 9217TIP3    H227616   1.192   5.358   5.197 -0.3008 -1.2687 -0.6151
 9218TIP3   OH227617   1.175   6.474   4.038 -0.2981 -0.2075 -0.1496
 9218TIP3    H127618   1.234   6.476   4.113  1.0212 -0.8282 -1.1407
 9218TIP3    H227619   1.101   6.419   4.067 -1.0616  1.6045  1.5350
 9219TIP3   OH227620   0.386   5.489   5.512 -0.3752  0.0977 -0.0135
 9219TIP3    H127621   0.458   5.441   5.554 -0.0779 -1.1449 -1.8370
 9219TIP3    H227622   0.357   5.551   5.579  1.3225 -0.4700  1.3366
 9220TIP3   OH227623   3.411   0.571   1.534  0.0814 -0.1706 -0.3754
 9220TIP3    H127624   3.359   0.615   1.601  0.7899  0.5021 -0.2601
 9220TIP3    H227625   3.381   0.609   1.451 -0.7653 -0.9734 -0.4638
 9221TIP3   OH227626   4.204   4.671   0.041  0.1790  0.5857 -0.7732
 9221TIP3    H127627   4.249   4.587   0.051 -0.9955 -0.0832 -0.8439
 9221TIP3    H227628   4.235   4.705  -0.043 -0.9717 -0.8589 -1.8487
 9222TIP3   OH227629   2.025   0.298   0.157  0.1832  0.6409 -0.0890
 9222TIP3    H127630   1.984   0.226   0.204  2.1382 -0.3756  0.1316
 9222TIP3    H227631   1.994   0.289   0.067 -2.4613  1.7661  0.6125
 9223TIP3   OH227632   5.048   0.161   1.439  0.3980  0.5095 -0.1897
 9223TIP3    H127633   5.088   0.101   1.501 -0.0106 -0.9506 -1.2762
 9223TIP3    H227634   4.999   0.223   1.493  2.1135  0.8608  1.0347
 9224TIP3   OH227635   3.449   2.796   3.109 -0.4091 -0.0976  0.4710
 9224TIP3    H127636   3.471   2.772   3.019  2.2377 -0.1763  1.0462
 9224TIP3    H227637   3.459   2.891   3.111 -0.2456 -0.1195  0.7231
 9225TIP3   OH227638   1.319   1.566   3.240 -0.1104 -0.0726  0.2030
 9225TIP3    H127639   1.387   1.539   3.303  0.0705  0.4852  0.2550
 9225TIP3    H227640   1.274   1.638   3.283 -1.3606 -1.0424  0.5559
 9226TIP3   OH227641   6.597   2.958   1.370 -0.3531  0.0835  0.5376
 9226TIP3    H127642   6.514   2.934   1.410 -1.4311  3.7993  0.8872
 9226TIP3    H227643   6.650   2.991   1.443 -0.4495  2.2129 -0.2883
 9227TIP3   OH227644   2.279   3.096   1.955  0.1754 -0.5645  0.5683
 9227TIP3    H127645   2.370   3.124   1.953 -0.3078  1.1110 -2.1341
 9227TIP3    H227646   2.283   3.003   1.978  2.6765 -0.9003 -0.9281
 9228TIP3   OH227647   2.914   0.904   0.537  0.0148 -0.0797  0.1235
 9228TIP3    H127648   2.863   0.900   0.618 -0.0458 -1.2674  0.0524
 9228TIP3    H227649   2.917   0.997   0.515 -0.1524  0.2407  1.3697
 9229TIP3   OH227650   3.865   3.062   3.205 -0.2197  0.0774 -0.3833
 9229TIP3    H127651   3.806   3.114   3.260 -0.4518  0.6981 -1.1973
 9229TIP3    H227652   3.953   3.091   3.229 -0.2382 -0.6660  0.6511
 9230TIP3   OH227653   4.889   5.972   1.696 -0.2325 -0.2009  0.0205
 9230TIP3    H127654   4.919   5.955   1.785  1.0769  0.2392 -0.3117
 9230TIP3    H227655   4.918   5.895   1.646 -0.2212 -0.0605 -0.1891
 9231TIP3   OH227656   1.627   5.578   1.449  0.1800 -0.3442  0.2399
 9231TIP3    H127657   1.606   5.669   1.466 -1.5909 -0.6688  0.0466
 9231TIP3    H227658   1.714   5.565   1.487 -0.1820  1.0219  1.6196
 9232TIP3   OH227659   5.210   3.678   2.890 -0.2196  0.7452 -0.0678
 9232TIP3    H127660   5.259   3.620   2.948 -0.5793  0.5393  0.0333
 9232TIP3    H227661   5.120   3.672   2.922 -0.5843 -0.0521 -1.1856
 9233TIP3   OH227662   3.474   4.719   1.671  0.4667  1.0093  0.8930
 9233TIP3    H127663   3.529   4.671   1.609  0.0717  1.5391  0.1081
 9233TIP3    H227664   3.534   4.745   1.741  1.2478  1.6428  0.0249
 9234TIP3   OH227665   6.331   1.724   1.976 -0.0304 -0.2272 -0.3514
 9234TIP3    H127666   6.360   1.800   1.926 -0.7996  0.7459  0.6020
 9234TIP3    H227667   6.240   1.712   1.951 -0.4185  0.2598  0.7489
 9235TIP3   OH227668   1.811   3.798   3.493 -0.3182  0.0169 -0.3162
 9235TIP3    H127669   1.854   3.884   3.489  0.2163 -0.2839 -1.0806
 9235TIP3    H227670   1.863   3.742   3.435  0.3332 -1.2763  1.4282
 9236TIP3   OH227671   1.765   4.157   0.145  0.8001 -0.8000  0.2285
 9236TIP3    H127672   1.742   4.249   0.129 -0.1439 -1.0307  0.1794
 9236TIP3    H227673   1.860   4.153   0.132  1.7853  1.1630  4.8658
 9237TIP3   OH227674   3.937   1.407   5.454 -0.6637 -0.0469 -0.5129
 9237TIP3    H127675   3.948   1.315   5.429  0.6049  0.0597 -0.3673
 9237TIP3    H227676   3.935   1.455   5.371  1.2401  0.0550 -0.5334
 9238TIP3   OH227677   6.822   5.984   4.616  0.1607 -0.3737 -0.2196
 9238TIP3    H127678   6.751   5.920   4.611  0.0426 -0.6155  2.7968
 9238TIP3    H227679   6.777   6.068   4.625  0.2683 -0.3956  0.5235
 9239TIP3   OH227680   2.004   2.975   1.324  0.3770 -0.1544  0.4785
 9239TIP3    H127681   1.949   3.028   1.381  0.6956 -1.9034  2.5064
 9239TIP3    H227682   1.943   2.936   1.261  0.0056  1.6292 -0.3462
 9240TIP3   OH227683   2.903   1.602   4.350  0.2385  0.1441 -0.3448
 9240TIP3    H127684   2.985   1.616   4.398  0.4709  0.5985 -0.8576
 9240TIP3    H227685   2.886   1.687   4.308  0.4990 -0.4879 -1.7639
 9241TIP3   OH227686   1.361   4.650   0.172  0.8744 -0.3562  0.1068
 9241TIP3    H127687   1.426   4.586   0.200 -1.7255 -2.0497  2.9301
 9241TIP3    H227688   1.300   4.600   0.118  0.9965  0.8222 -1.1928
 9242TIP3   OH227689   6.092   0.178   1.541  0.4598 -0.0097 -0.8126
 9242TIP3    H127690   6.095   0.149   1.632 -1.4382 -0.5214 -0.8670
 9242TIP3    H227691   6.067   0.270   1.546  1.6997  0.3391 -0.7935
 9243TIP3   OH227692   7.132   4.539   0.350 -0.3878  0.1330 -0.1972
 9243TIP3    H127693   7.061   4.583   0.302 -1.2131 -0.3060  0.5941
 9243TIP3    H227694   7.108   4.446   0.347 -0.0453  0.0251  0.4113
 9244TIP3   OH227695   3.652   5.568   2.754  0.4348 -0.1202 -0.8665
 9244TIP3    H127696   3.629   5.476   2.749  1.6852 -0.4418 -1.1914
 9244TIP3    H227697   3.748   5.568   2.762  0.5474  1.1600 -1.8193
 9245TIP3   OH227698   2.996   5.137   1.460 -0.6411 -0.1450 -0.2538
 9245TIP3    H127699   2.991   5.195   1.384 -1.7567  0.4516  0.2559
 9245TIP3    H227700   3.072   5.082   1.443 -1.1679 -0.3770 -2.0589
 9246TIP3   OH227701   3.805   0.441   5.828 -0.1723  0.5140  0.2298
 9246TIP3    H127702   3.712   0.441   5.850 -0.1478  0.3046  0.3312
 9246TIP3    H227703   3.808   0.412   5.737 -0.0696 -1.4633  0.8112
 9247TIP3   OH227704   0.482   2.861   4.977 -0.4646  0.3072  0.1713
 9247TIP3    H127705   0.468   2.892   5.067  0.8394  1.4599  0.0046
 9247TIP3    H227706   0.402   2.885   4.931 -0.8263  0.4076  0.8269
 9248TIP3   OH227707   0.861   6.782   1.778  0.2667 -0.2502  0.4495
 9248TIP3    H127708   0.890   6.711   1.835 -0.2589 -1.6026 -0.9074
 9248TIP3    H227709   0.936   6.840   1.771  0.5135 -0.3338  2.0702
 9249TIP3   OH227710   4.018   5.636   1.050 -0.0340  0.0903 -0.2433
 9249TIP3    H127711   3.987   5.629   0.960  1.5230  1.1854 -0.9163
 9249TIP3    H227712   3.963   5.705   1.089  0.0102  0.3929 -0.7050
 9250TIP3   OH227713   4.587   3.222   1.340  0.1555  0.1199 -0.0057
 9250TIP3    H127714   4.585   3.186   1.429  1.6966  0.0406  0.0170
 9250TIP3    H227715   4.676   3.205   1.309 -0.5855 -0.6205 -1.8906
 9251TIP3   OH227716   1.342   1.044   1.692  0.8627  0.4370 -0.0884
 9251TIP3    H127717   1.388   0.987   1.630  0.0574  0.0891 -0.3813
 9251TIP3    H227718   1.396   1.122   1.699 -0.2929  1.6807 -3.2771
 9252TIP3   OH227719   6.261   0.990   3.391  0.1725 -0.3399 -0.1514
 9252TIP3    H127720   6.265   0.895   3.402  0.3289 -0.3692 -0.4672
 9252TIP3    H227721   6.320   1.025   3.458 -1.0066 -0.3926  0.9619
 9253TIP3   OH227722   0.917   2.691   4.945 -0.2289  0.0535 -0.0024
 9253TIP3    H127723   0.910   2.627   5.016  0.7874  0.9687  0.9666
 9253TIP3    H227724   0.863   2.655   4.875  0.8044 -2.1972  0.2447
 9254TIP3   OH227725   0.452   4.287   0.403  0.4237  0.6534 -0.8507
 9254TIP3    H127726   0.517   4.237   0.453 -1.8386 -1.2832  0.3654
 9254TIP3    H227727   0.452   4.246   0.316 -1.4222 -1.7051  0.1386
 9255TIP3   OH227728   5.625   3.006   0.219 -0.2317  0.4661  0.3595
 9255TIP3    H127729   5.629   2.917   0.253 -0.9922  0.2468 -0.1074
 9255TIP3    H227730   5.714   3.023   0.186 -0.0583 -0.0774  0.5409
 9256TIP3   OH227731   5.500   2.650   0.856  0.4027  0.6683  0.3127
 9256TIP3    H127732   5.515   2.656   0.950  1.9545  0.2991  0.1047
 9256TIP3    H227733   5.546   2.571   0.829  0.0952  0.8463 -0.7889
 9257TIP3   OH227734   2.182   3.100   4.281  0.4731  0.0836  0.2668
 9257TIP3    H127735   2.274   3.085   4.263  1.1591  3.4761  0.2716
 9257TIP3    H227736   2.177   3.109   4.377 -0.1207 -1.1765  0.3806
 9258TIP3   OH227737   6.825   3.101   0.026 -0.2738  0.1047  0.1054
 9258TIP3    H127738   6.791   3.025  -0.021  0.9838 -1.3173  1.3844
 9258TIP3    H227739   6.880   3.064   0.094 -1.0252  2.1103  1.9246
 9259TIP3   OH227740   2.427   2.104   1.476 -0.4397 -0.5294 -0.0137
 9259TIP3    H127741   2.518   2.113   1.447 -1.0278 -0.9050 -2.1208
 9259TIP3    H227742   2.422   2.016   1.513  0.2084 -0.2557  0.7320
 9260TIP3   OH227743   3.099   5.517   3.274 -0.1119 -0.0892 -0.3168
 9260TIP3    H127744   3.160   5.444   3.283  0.9645  0.9524  1.5187
 9260TIP3    H227745   3.050   5.518   3.356  0.8689  2.0263  0.3129
 9261TIP3   OH227746   2.453   0.435   3.140  0.2280 -0.2100  0.0641
 9261TIP3    H127747   2.432   0.483   3.060  0.9871 -1.5693 -1.0108
 9261TIP3    H227748   2.397   0.358   3.137  0.7905 -0.6463  0.4404
 9262TIP3   OH227749   0.681   6.221   2.911 -0.1444 -0.1547  0.1926
 9262TIP3    H127750   0.648   6.144   2.863 -2.0446  0.2287  0.7917
 9262TIP3    H227751   0.621   6.292   2.886  1.1988  0.9988  0.1417
 9263TIP3   OH227752   7.038   2.565   4.621  0.9817 -0.5677  0.4732
 9263TIP3    H127753   7.050   2.659   4.614  0.4000 -0.3602  1.8611
 9263TIP3    H227754   6.963   2.546   4.564  1.3166 -0.2647 -0.0805
 9264TIP3   OH227755   4.327   2.036   5.011 -0.4647 -0.0422  0.2400
 9264TIP3    H127756   4.258   2.030   5.077 -0.5824 -0.6297  0.0624
 9264TIP3    H227757   4.293   1.989   4.935  0.9250 -2.1666  0.8309
 9265TIP3   OH227758   2.912   1.777   4.023  0.8812  0.6074  0.6384
 9265TIP3    H127759   2.844   1.808   3.963  1.6445 -0.6149 -0.9151
 9265TIP3    H227760   2.877   1.798   4.110 -2.4430 -1.6715  0.0597
 9266TIP3   OH227761   3.836   0.931   5.787 -0.0449 -0.3790  0.1904
 9266TIP3    H127762   3.846   0.836   5.795  0.4967 -0.1342  3.6387
 9266TIP3    H227763   3.766   0.954   5.848  1.1805  1.6232  0.9536
 9267TIP3   OH227764   7.031   5.552   2.871 -0.0324  0.1047  0.5874
 9267TIP3    H127765   7.023   5.510   2.957 -0.8433 -0.0378  0.4501
 9267TIP3    H227766   7.121   5.534   2.844 -0.4818 -2.0011  0.3164
 9268TIP3   OH227767   5.297   1.810   1.938  0.3117  0.2656 -0.0862
 9268TIP3    H127768   5.325   1.751   1.867  0.2202  0.3258 -0.1725
 9268TIP3    H227769   5.225   1.764   1.980  0.2063  0.3387 -0.1864
 9269TIP3   OH227770   5.927   2.948   4.759  0.2310 -0.2381 -0.2744
 9269TIP3    H127771   5.963   3.022   4.810  2.9509 -2.1741  0.8511
 9269TIP3    H227772   5.873   2.901   4.822  0.0062 -0.2304 -0.4623
 9270TIP3   OH227773   0.166   6.327   5.202  0.3069  0.2567  0.4471
 9270TIP3    H127774   0.222   6.271   5.255  0.9935 -0.2268 -0.7302
 9270TIP3    H227775   0.090   6.273   5.182 -0.3274  0.7182  1.5854
 9271TIP3   OH227776   5.730   2.050   5.060  0.3311  0.0954  0.4787
 9271TIP3    H127777   5.700   2.134   5.025 -0.2141  0.2184  1.2081
 9271TIP3    H227778   5.681   1.984   5.010 -0.1641  0.2589  0.7337
 9272TIP3   OH227779   0.599   6.334   4.904  0.2104  0.6003 -0.1492
 9272TIP3    H127780   0.508   6.320   4.880  0.8195 -3.1285 -0.9433
 9272TIP3    H227781   0.596   6.388   4.983 -2.6427  0.7662 -0.2960
 9273TIP3   OH227782   3.893   2.495   0.386  0.1211 -0.1193 -0.2247
 9273TIP3    H127783   3.942   2.478   0.467  1.6028  0.7476 -0.8886
 9273TIP3    H227784   3.953   2.467   0.316 -1.6273 -2.0919 -1.0522
 9274TIP3   OH227785   1.521   0.711   0.575 -0.3114 -0.0112 -0.8790
 9274TIP3    H127786   1.477   0.787   0.537 -0.1228  0.9626  0.7260
 9274TIP3    H227787   1.455   0.668   0.628 -0.0350 -0.1075 -0.6070
 9275TIP3   OH227788   6.292   2.673   1.630 -0.2256 -0.4901 -0.0605
 9275TIP3    H127789   6.349   2.618   1.684  0.8343  0.8929  0.2853
 9275TIP3    H227790   6.240   2.723   1.694 -0.6122 -0.5139 -0.3527
 9276TIP3   OH227791   2.281   2.413   3.139 -0.1807  0.2359  0.2799
 9276TIP3    H127792   2.308   2.457   3.059  1.5116  1.6501  1.5495
 9276TIP3    H227793   2.188   2.395   3.126  0.1936 -0.2166 -2.2449
 9277TIP3   OH227794   4.304   2.937   3.279  0.2438 -0.1556 -0.7777
 9277TIP3    H127795   4.314   2.915   3.372  4.6335  1.3155 -0.6616
 9277TIP3    H227796   4.292   2.852   3.236  2.9174 -1.5193  0.8420
 9278TIP3   OH227797   2.768   5.734   4.261 -0.5965 -0.8961  0.6439
 9278TIP3    H127798   2.700   5.678   4.298 -1.7317 -0.7747 -1.1152
 9278TIP3    H227799   2.849   5.687   4.276 -1.0434 -1.0870  2.7422
 9279TIP3   OH227800   5.671   5.775   2.215  0.3931 -0.0676 -0.0241
 9279TIP3    H127801   5.730   5.727   2.157  0.1871  1.0951 -1.2471
 9279TIP3    H227802   5.667   5.863   2.178  0.4105  0.7933  1.8997
 9280TIP3   OH227803   1.026   1.699   4.527 -0.1520  0.1826  0.0783
 9280TIP3    H127804   0.938   1.724   4.554 -0.3033  2.0225 -1.8352
 9280TIP3    H227805   1.017   1.608   4.498 -1.1080 -0.0657  1.0721
 9281TIP3   OH227806   0.315   5.687   5.668  0.3240  0.0582 -0.2676
 9281TIP3    H127807   0.252   5.720   5.732 -1.2207  0.8855 -2.1255
 9281TIP3    H227808   0.390   5.747   5.676  0.9718 -0.9634  1.9926
 9282TIP3   OH227809   4.663   1.880   2.344  0.5085  0.0590  0.4076
 9282TIP3    H127810   4.729   1.811   2.347  0.3254 -0.1516 -0.3083
 9282TIP3    H227811   4.712   1.957   2.313  0.6574  0.1868  0.9582
 9283TIP3   OH227812   2.720   5.953   0.432 -0.3543 -0.0074 -0.0257
 9283TIP3    H127813   2.671   6.022   0.479 -1.9387 -0.3700 -1.0778
 9283TIP3    H227814   2.807   5.990   0.421 -0.8309  1.3559  0.4897
 9284TIP3   OH227815   0.423   3.646   3.874  0.2500  0.5208 -0.7774
 9284TIP3    H127816   0.432   3.739   3.894  1.0252  0.3329 -0.1888
 9284TIP3    H227817   0.456   3.602   3.952  0.6689 -0.2452 -1.3784
 9285TIP3   OH227818   2.683   2.222   5.078  0.4494  0.0775 -0.6647
 9285TIP3    H127819   2.642   2.158   5.020 -1.1881  1.5087 -1.1826
 9285TIP3    H227820   2.611   2.250   5.136  0.8079  2.2110 -1.1670
 9286TIP3   OH227821   1.869   4.296   3.500  0.3826  0.4354 -0.4876
 9286TIP3    H127822   1.780   4.264   3.516  0.4306  0.2769 -0.5370
 9286TIP3    H227823   1.919   4.217   3.478  0.1514  0.7385 -2.2215
 9287TIP3   OH227824   0.034   5.397   2.759  0.0818 -0.3627  0.6717
 9287TIP3    H127825   0.071   5.316   2.795  1.3691 -0.0851  0.0281
 9287TIP3    H227826   0.002   5.372   2.672  0.1068 -0.2674  0.6350
 9288TIP3   OH227827   1.700   0.496   2.231  0.4346  0.2002 -0.0374
 9288TIP3    H127828   1.689   0.533   2.319  0.1785  0.9208 -0.3711
 9288TIP3    H227829   1.639   0.545   2.176  0.3664 -0.4594 -0.5628
 9289TIP3   OH227830   3.414   4.052   2.157 -0.2464 -0.2152  0.1210
 9289TIP3    H127831   3.326   4.089   2.151 -0.0634  0.4199  1.0839
 9289TIP3    H227832   3.467   4.121   2.198  0.7558 -0.5039 -0.6516
 9290TIP3   OH227833   6.046   5.868   3.830  0.2184 -0.4091  0.3571
 9290TIP3    H127834   6.014   5.843   3.743 -1.5567 -0.2029  0.9247
 9290TIP3    H227835   6.135   5.901   3.814 -1.4196  3.4551 -2.0381
 9291TIP3   OH227836   0.867   2.134   4.996 -0.1912  0.3249 -0.3936
 9291TIP3    H127837   0.775   2.148   5.021 -0.0609 -0.9750  0.9647
 9291TIP3    H227838   0.863   2.111   4.903 -1.4183 -1.0466 -0.0506
 9292TIP3   OH227839   2.614   0.143   3.721  0.0566 -0.1845  0.5189
 9292TIP3    H127840   2.547   0.159   3.654  0.5250  0.2069  0.1425
 9292TIP3    H227841   2.687   0.199   3.696 -0.3282  1.1654  2.2296
 9293TIP3   OH227842   5.176   2.051   2.221 -0.5931 -0.1885 -0.2375
 9293TIP3    H127843   5.246   2.005   2.268  0.6002 -0.1672 -1.9103
 9293TIP3    H227844   5.193   2.144   2.236  0.7755 -0.1142 -1.9700
 9294TIP3   OH227845   5.954   4.732   5.571 -0.0998  0.0951 -0.6731
 9294TIP3    H127846   5.981   4.807   5.624  0.2757 -0.0875 -0.6018
 9294TIP3    H227847   5.886   4.689   5.624  0.4962 -0.2663 -0.1848
 9295TIP3   OH227848   5.942   5.957   0.417  0.0684 -1.0342  0.4966
 9295TIP3    H127849   6.014   6.004   0.375 -0.4908 -0.0780  0.5751
 9295TIP3    H227850   5.978   5.928   0.501 -0.2226  1.3047  1.5031
 9296TIP3   OH227851   2.791   4.831   4.265 -0.1290  0.2032 -0.2105
 9296TIP3    H127852   2.764   4.856   4.353  0.8831  0.8962 -0.0718
 9296TIP3    H227853   2.751   4.896   4.207  2.3613  2.2364  0.1332
 9297TIP3   OH227854   1.148   6.300   5.735 -0.1714  0.4461  0.4498
 9297TIP3    H127855   1.060   6.336   5.731  0.1854  1.7527  2.6040
 9297TIP3    H227856   1.205   6.377   5.749  0.7721 -0.6597  3.7612
 9298TIP3   OH227857   0.074   3.980   5.848  0.3580 -0.9589 -0.1130
 9298TIP3    H127858   0.110   4.065   5.825 -0.4222 -0.6050 -0.0690
 9298TIP3    H227859  -0.021   3.990   5.837  0.0681 -1.2178  1.7358
 9299TIP3   OH227860   7.111   4.427   2.376  0.5552 -0.2877 -0.5958
 9299TIP3    H127861   7.162   4.416   2.296  0.6573  1.0493 -0.7321
 9299TIP3    H227862   7.172   4.409   2.447  0.1346 -2.8524 -0.7768
 9300TIP3   OH227863   4.559   1.315   1.083  0.3270 -0.3002  0.4011
 9300TIP3    H127864   4.573   1.285   1.173 -0.0162  0.4606  0.7166
 9300TIP3    H227865   4.524   1.403   1.092  1.5133  0.2971 -0.4950
 9301TIP3   OH227866   1.048   0.350   1.238 -0.0082 -0.2670 -0.1043
 9301TIP3    H127867   1.026   0.330   1.147 -0.0098  0.1829 -0.2016
 9301TIP3    H227868   1.024   0.271   1.286 -1.5037  0.0766 -0.2593
 9302TIP3   OH227869   4.756   5.963   0.776  0.0147 -0.6217 -0.3304
 9302TIP3    H127870   4.672   6.009   0.774  0.1255 -0.3303  1.0425
 9302TIP3    H227871   4.772   5.945   0.868  1.2534 -1.0785 -0.6101
 9303TIP3   OH227872   3.694   2.078   3.077  0.1407 -0.3480 -0.5855
 9303TIP3    H127873   3.743   2.066   3.159 -2.3068 -2.3926  0.7133
 9303TIP3    H227874   3.762   2.079   3.010  2.1087 -1.1351  1.2517
 9304TIP3   OH227875   0.395   3.303   4.889  0.3736 -0.0899 -0.3438
 9304TIP3    H127876   0.467   3.320   4.950 -0.8111  2.2773  0.5197
 9304TIP3    H227877   0.373   3.388   4.854 -2.1457 -0.6981 -0.4115
 9305TIP3   OH227878   1.207   2.412   1.998  0.2749 -0.4868 -0.7919
 9305TIP3    H127879   1.213   2.317   1.992  1.1166 -0.4482 -0.6899
 9305TIP3    H227880   1.295   2.443   1.976  0.0891  0.2548 -0.5150
 9306TIP3   OH227881   2.545   1.702   4.694  0.2242 -0.1799  0.1696
 9306TIP3    H127882   2.563   1.630   4.754  1.8998  1.3464  1.6532
 9306TIP3    H227883   2.449   1.711   4.695 -0.1424 -3.0916 -1.0576
 9307TIP3   OH227884   2.626   1.841   2.048  0.3641 -0.3423 -0.1477
 9307TIP3    H127885   2.614   1.915   1.988  0.5035  0.7382  1.1164
 9307TIP3    H227886   2.721   1.826   2.047  0.1143 -2.8081 -2.9997
 9308TIP3   OH227887   3.416   0.887   1.196 -0.7206  0.2140  0.1793
 9308TIP3    H127888   3.366   0.831   1.256 -0.1214  0.0661  0.5458
 9308TIP3    H227889   3.368   0.882   1.113 -0.5608 -1.0225  0.1429
 9309TIP3   OH227890   2.877   3.314   1.973 -0.5106 -0.0809  0.5952
 9309TIP3    H127891   2.828   3.395   1.983 -0.1041  0.1539  0.7002
 9309TIP3    H227892   2.965   3.342   1.945 -0.3080 -0.4701  0.8301
 9310TIP3   OH227893   2.210   4.074   2.979 -0.1125  0.1607  0.0270
 9310TIP3    H127894   2.288   4.128   2.967  2.0270 -1.9757  2.9636
 9310TIP3    H227895   2.154   4.126   3.036  1.1104  0.1183  1.3352
 9311TIP3   OH227896   2.683   3.853   4.855  0.3023 -0.0155 -0.3386
 9311TIP3    H127897   2.665   3.842   4.948  0.6159  1.0354 -0.1428
 9311TIP3    H227898   2.598   3.877   4.817  0.0858 -0.8632 -0.4010
 9312TIP3   OH227899   0.097   0.545   5.322 -0.1529 -0.0073  0.6476
 9312TIP3    H127900   0.050   0.629   5.320 -0.7236 -0.3175 -0.9336
 9312TIP3    H227901   0.141   0.542   5.237  1.5367 -0.4095  1.5082
 9313TIP3   OH227902   3.229   4.463   0.151 -0.0300 -0.9620  0.3646
 9313TIP3    H127903   3.254   4.547   0.188 -0.2931 -0.8458  0.2807
 9313TIP3    H227904   3.303   4.405   0.170 -0.3572 -1.0347  1.5156
 9314TIP3   OH227905   6.680   0.342   2.848 -0.2971  0.1695  0.1270
 9314TIP3    H127906   6.743   0.275   2.872 -0.5997 -0.2079 -0.1201
 9314TIP3    H227907   6.653   0.320   2.759 -0.6329  0.4331  0.1584
 9315TIP3   OH227908   7.004   2.204   3.358  0.7139  0.5928 -0.2654
 9315TIP3    H127909   7.011   2.199   3.263  0.6499 -1.7808 -0.2105
 9315TIP3    H227910   7.083   2.160   3.390  1.4949  2.6654  0.8474
 9316TIP3   OH227911   1.825   4.627   4.959  0.2045  0.1609  0.7688
 9316TIP3    H127912   1.810   4.717   4.930 -0.2683 -0.6777 -1.9571
 9316TIP3    H227913   1.757   4.610   5.024 -0.9298  1.2122 -0.1001
 9317TIP3   OH227914   3.113   4.116   1.073  0.3494 -0.8167 -0.1161
 9317TIP3    H127915   3.179   4.121   1.004  0.8201 -1.3634  0.2848
 9317TIP3    H227916   3.145   4.178   1.140  0.6305 -1.3196  0.2195
 9318TIP3   OH227917   6.442   2.781   0.663 -0.7977  0.5396  0.2359
 9318TIP3    H127918   6.391   2.858   0.638 -0.0370  1.2867  0.9235
 9318TIP3    H227919   6.510   2.815   0.721  1.0777 -0.2856 -1.3777
 9319TIP3   OH227920   4.037   0.861   0.951 -0.3261  0.0275  0.5839
 9319TIP3    H127921   4.059   0.877   1.043 -1.5693 -1.4573  1.1849
 9319TIP3    H227922   3.982   0.935   0.927 -1.0444 -0.2110  1.4392
 9320TIP3   OH227923   2.557   2.086   0.591 -0.1092 -0.0651 -0.0740
 9320TIP3    H127924   2.593   2.155   0.647  1.8747  0.9325 -2.4031
 9320TIP3    H227925   2.615   2.011   0.607 -1.3132 -0.7710  1.2721
 9321TIP3   OH227926   0.969   1.996   4.291  0.1149  0.6915 -0.1429
 9321TIP3    H127927   0.993   2.034   4.206 -0.6783  0.3627 -0.5155
 9321TIP3    H227928   1.009   1.909   4.291  0.5899  0.9043  0.0603
 9322TIP3   OH227929   6.977   0.052   1.132  0.0058 -0.4577  0.0956
 9322TIP3    H127930   6.891   0.023   1.102 -0.1620  0.4213 -0.3153
 9322TIP3    H227931   7.035  -0.020   1.111 -0.4706 -0.6811 -0.4990
 9323TIP3   OH227932   6.161   0.834   1.767 -0.2387 -0.5887  0.4945
 9323TIP3    H127933   6.246   0.819   1.808  0.2967 -0.4481 -0.5193
 9323TIP3    H227934   6.129   0.746   1.746 -0.4771 -0.6559  1.1277
 9324TIP3   OH227935   6.981   4.201   5.032 -0.2270 -0.7648  0.1542
 9324TIP3    H127936   7.014   4.260   5.099 -2.3269 -0.9260  1.4219
 9324TIP3    H227937   6.975   4.255   4.953  0.7108 -0.1232  0.5028
 9325TIP3   OH227938   2.964   3.252   5.831  0.0280 -0.0444  0.7291
 9325TIP3    H127939   2.906   3.207   5.770 -0.2659  0.2293  0.8055
 9325TIP3    H227940   3.003   3.322   5.780 -0.8198  0.6790  1.0555
 9326TIP3   OH227941   1.634   3.540   5.471 -0.7510 -0.3121 -0.0570
 9326TIP3    H127942   1.570   3.497   5.415  0.1614 -0.7104 -0.8195
 9326TIP3    H227943   1.713   3.486   5.463 -0.7517 -0.6798  2.0426
 9327TIP3   OH227944   3.399   3.309   5.788  0.0217  1.0570 -0.3850
 9327TIP3    H127945   3.466   3.240   5.794  1.2798  2.2611  0.1453
 9327TIP3    H227946   3.427   3.374   5.854 -1.8660  1.4548  0.0625
 9328TIP3   OH227947   5.753   3.647   4.919  0.0132  0.1195  0.5732
 9328TIP3    H127948   5.692   3.633   4.846  0.0865 -0.1650  0.5634
 9328TIP3    H227949   5.698   3.650   4.997 -0.0082 -0.2663  0.5787
 9329TIP3   OH227950   0.682   2.012   2.525  0.1539  0.1236 -0.2273
 9329TIP3    H127951   0.657   2.100   2.553 -2.1554 -0.8344  1.0105
 9329TIP3    H227952   0.655   1.955   2.597 -0.1792 -1.8046 -1.7849
 9330TIP3   OH227953   3.013   6.593   3.041  0.4291 -0.0589 -0.7248
 9330TIP3    H127954   2.982   6.503   3.035  0.8815 -0.3141  0.6107
 9330TIP3    H227955   3.086   6.590   3.102 -1.1707  1.5876  1.4609
 9331TIP3   OH227956   4.539   0.689   5.071 -0.0111  0.5492  0.2757
 9331TIP3    H127957   4.497   0.742   5.138  0.3570  0.7977  0.3154
 9331TIP3    H227958   4.550   0.603   5.112 -0.8173  0.3691  0.1309
 9332TIP3   OH227959   4.604   0.021   1.549 -0.1555 -0.5119 -0.0597
 9332TIP3    H127960   4.665   0.079   1.503  0.9422 -0.5396  1.3247
 9332TIP3    H227961   4.626   0.031   1.641 -1.8352 -1.0185  0.4231
 9333TIP3   OH227962   0.567   1.591   2.834 -0.1874  0.0689  0.2780
 9333TIP3    H127963   0.482   1.595   2.790 -0.9150  0.2528  1.6387
 9333TIP3    H227964   0.583   1.680   2.863  0.5675  0.0698 -0.1194
 9334TIP3   OH227965   1.542   6.376   2.959 -0.0474  0.2396  0.6637
 9334TIP3    H127966   1.591   6.314   3.013 -1.8018 -1.8966 -0.0369
 9334TIP3    H227967   1.484   6.421   3.021  0.1781  0.0980  0.9775
 9335TIP3   OH227968   1.792   0.662   0.532 -0.6069  0.2663  0.5210
 9335TIP3    H127969   1.697   0.663   0.531 -0.6518 -0.8704  1.3929
 9335TIP3    H227970   1.815   0.617   0.613  0.6251 -1.2120 -0.5750
 9336TIP3   OH227971   3.606   5.063   2.863  0.6716  0.1526  0.8715
 9336TIP3    H127972   3.664   5.012   2.807  1.1502  2.4279 -0.8381
 9336TIP3    H227973   3.625   5.032   2.952  1.7162 -1.7775  0.0346
 9337TIP3   OH227974   3.964   6.398   1.938 -0.1120 -0.2576  0.2106
 9337TIP3    H127975   3.969   6.318   1.991 -1.2529 -1.7688 -1.8640
 9337TIP3    H227976   3.973   6.369   1.848 -0.6961  1.9617 -0.6415
 9338TIP3   OH227977   3.636   5.963   3.135  0.2624  0.3532  0.0723
 9338TIP3    H127978   3.659   5.873   3.158 -0.2974  0.0150 -0.6424
 9338TIP3    H227979   3.592   5.997   3.212 -0.7191 -0.4404 -0.1163
 9339TIP3   OH227980   2.151   4.639   1.466 -0.2173 -0.0901 -0.1885
 9339TIP3    H127981   2.179   4.638   1.375 -0.2131 -2.0628 -0.2191
 9339TIP3    H227982   2.218   4.691   1.511  0.2069  0.2487 -1.1815
 9340TIP3   OH227983   2.043   2.587   5.732  0.2533 -0.0523  0.1262
 9340TIP3    H127984   2.063   2.661   5.790 -1.0056 -0.1892  0.7710
 9340TIP3    H227985   1.988   2.530   5.785 -2.5357  0.7132 -1.7369
 9341TIP3   OH227986   3.533   0.488   4.737 -0.0458 -0.1164  0.1809
 9341TIP3    H127987   3.627   0.476   4.746  0.0923  0.3472 -0.5301
 9341TIP3    H227988   3.506   0.529   4.820  0.7711  1.8462 -0.4599
 9342TIP3   OH227989   5.334   6.338   0.998 -0.5320  0.4011 -0.0922
 9342TIP3    H127990   5.377   6.254   1.010  0.1651  0.5634 -1.2382
 9342TIP3    H227991   5.295   6.358   1.083 -1.1175 -1.2846  0.0764
 9343TIP3   OH227992   6.285   0.367   0.711 -0.1651  0.4215 -0.2042
 9343TIP3    H127993   6.231   0.389   0.788  0.2908  2.3682 -0.3689
 9343TIP3    H227994   6.225   0.375   0.637 -0.4202 -0.6990 -0.1306
 9344TIP3   OH227995   4.746   2.513   1.702 -0.1544 -0.1339 -0.3936
 9344TIP3    H127996   4.739   2.526   1.797  1.2737  0.7798 -0.3792
 9344TIP3    H227997   4.764   2.600   1.667 -2.1622 -0.2028 -1.7125
 9345TIP3   OH227998   0.985   3.583   4.999  0.4016  0.0699 -0.2999
 9345TIP3    H127999   1.061   3.609   5.050  0.3406 -0.6472  0.1665
 9345TIP3    H228000   0.996   3.489   4.986  0.0311  0.1108 -0.9663
 9346TIP3   OH228001   4.023   2.567   5.227 -0.0664  0.4544 -0.2762
 9346TIP3    H128002   4.008   2.597   5.317  1.6486  2.4772 -0.5671
 9346TIP3    H228003   4.113   2.533   5.228 -0.0271  0.5111 -1.2174
 9347TIP3   OH228004   5.475   4.110   4.756  0.5756  0.2182  0.3750
 9347TIP3    H128005   5.487   4.202   4.732 -0.2130 -0.3871 -2.7861
 9347TIP3    H228006   5.462   4.112   4.851  0.3378  3.3785  0.3954
 9348TIP3   OH228007   0.516   0.795   0.935  0.5446  0.3232  0.2223
 9348TIP3    H128008   0.589   0.735   0.944  1.2362  1.3851  2.3093
 9348TIP3    H228009   0.507   0.809   0.840  1.9329 -1.1199 -0.1480
 9349TIP3   OH228010   3.050   5.655   4.633  0.0255 -0.5960  0.0248
 9349TIP3    H128011   3.086   5.569   4.654 -1.7299 -1.6814 -1.1492
 9349TIP3    H228012   3.000   5.679   4.711  0.0261 -0.9223  0.1273
 9350TIP3   OH228013   5.775   3.222   1.798 -0.3353 -0.0933  0.2292
 9350TIP3    H128014   5.698   3.243   1.746 -0.6420 -0.1166  0.6621
 9350TIP3    H228015   5.806   3.307   1.831  1.4260  0.2720 -2.0787
 9351TIP3   OH228016   6.055   2.057   2.948  0.0308  0.2297  0.6143
 9351TIP3    H128017   6.063   1.979   3.004 -0.8350 -1.0567 -0.9504
 9351TIP3    H228018   5.965   2.053   2.915  0.3912  1.1599 -0.5314
 9352TIP3   OH228019   5.830   6.269   3.715 -0.3487  0.2649  0.2979
 9352TIP3    H128020   5.758   6.221   3.675  1.0320 -0.9251 -0.8964
 9352TIP3    H228021   5.819   6.359   3.684 -2.3633  0.5601  1.7058
 9353TIP3   OH228022   4.017   4.582   2.495 -0.1825 -0.1768 -0.2967
 9353TIP3    H128023   4.048   4.493   2.479  0.7107  0.3051 -1.3932
 9353TIP3    H228024   4.022   4.625   2.410 -1.5900  0.6433 -0.0047
 9354TIP3   OH228025   5.257   0.363   1.389 -0.8214 -0.0504 -0.4467
 9354TIP3    H128026   5.179   0.309   1.397  0.2701 -1.4245  3.3295
 9354TIP3    H228027   5.325   0.303   1.358 -0.7293  0.5489 -1.4444
 9355TIP3   OH228028   1.144   1.527   1.186 -0.4036  0.2478  0.3396
 9355TIP3    H128029   1.140   1.623   1.177 -1.0157  0.2730  0.8083
 9355TIP3    H228030   1.087   1.495   1.115 -0.2293  0.2293  0.2069
 9356TIP3   OH228031   4.423   4.191   1.850 -0.2023  1.0928 -0.4881
 9356TIP3    H128032   4.472   4.273   1.846 -2.2984  2.3534 -2.9988
 9356TIP3    H228033   4.355   4.206   1.916  1.8591 -0.2746  2.1824
 9357TIP3   OH228034   5.262   2.868   3.381  0.3799 -0.0159  0.2522
 9357TIP3    H128035   5.207   2.864   3.460  0.8637 -0.5901  0.5716
 9357TIP3    H228036   5.347   2.834   3.410  0.5183 -0.3744 -0.5591
 9358TIP3   OH228037   4.960   3.811   3.955 -0.0141 -0.2168 -0.1949
 9358TIP3    H128038   5.022   3.884   3.958  0.2252 -0.4276  0.0875
 9358TIP3    H228039   5.006   3.741   3.910  0.2294 -0.6211  0.6617
 9359TIP3   OH228040   5.264   2.285   2.270  0.8957 -0.0133  0.3146
 9359TIP3    H128041   5.252   2.371   2.230 -1.4196 -0.3565  0.1791
 9359TIP3    H228042   5.230   2.294   2.358  0.3983 -0.8564  0.2177
 9360TIP3   OH228043   6.981   6.802   2.089 -0.1386 -0.0509  0.2598
 9360TIP3    H128044   6.941   6.772   2.007 -1.1631  1.7632  0.0487
 9360TIP3    H228045   7.050   6.737   2.107 -0.0104 -0.6001 -1.9251
 9361TIP3   OH228046   5.411   0.222   2.942 -0.3576 -0.3287 -0.0182
 9361TIP3    H128047   5.497   0.207   2.903  0.0057  2.2071 -0.4021
 9361TIP3    H228048   5.349   0.209   2.869 -0.2765 -1.5681  0.1150
 9362TIP3   OH228049   4.494   2.354   2.637  0.1556  0.2565  0.1430
 9362TIP3    H128050   4.471   2.437   2.680  0.1021  0.4571 -0.2755
 9362TIP3    H228051   4.546   2.308   2.703  0.5738  0.8140  0.2133
 9363TIP3   OH228052   2.808   6.162  -0.018  0.5753  0.0862  0.2892
 9363TIP3    H128053   2.830   6.182   0.073 -1.3057  0.0232  0.8197
 9363TIP3    H228054   2.762   6.240  -0.048 -1.9208 -1.1649  0.5806
 9364TIP3   OH228055   1.010   0.789   5.328 -0.0904 -0.7021  0.2090
 9364TIP3    H128056   0.932   0.778   5.274 -0.3123  0.2999  0.3150
 9364TIP3    H228057   0.993   0.735   5.405 -0.3207 -1.1347 -0.1404
 9365TIP3   OH228058   7.083   6.330   5.386  0.1614 -0.0277 -0.0916
 9365TIP3    H128059   7.006   6.279   5.358  0.6198 -1.1758  0.6408
 9365TIP3    H228060   7.099   6.391   5.315 -0.5291 -0.8010 -0.9374
 9366TIP3   OH228061   3.236   5.015   2.859 -0.3281 -0.3365  0.4523
 9366TIP3    H128062   3.284   5.027   2.777  0.2065 -0.5196  0.7273
 9366TIP3    H228063   3.254   5.094   2.909 -1.0058 -0.0330  0.2270
 9367TIP3   OH228064   6.495   4.176   3.964  0.0207  0.0358  0.2883
 9367TIP3    H128065   6.399   4.181   3.972  0.0782  1.1807  0.3249
 9367TIP3    H228066   6.518   4.247   3.904  0.7232 -1.1263 -0.8795
 9368TIP3   OH228067   5.517   0.282   4.928 -0.8265 -0.4263 -0.0966
 9368TIP3    H128068   5.597   0.322   4.894 -0.8315  1.0976  1.5266
 9368TIP3    H228069   5.496   0.213   4.865  0.3788  0.7476 -1.8797
 9369TIP3   OH228070   0.519   2.918   1.796 -0.2127 -0.0610  0.0323
 9369TIP3    H128071   0.569   2.904   1.876 -1.1252 -0.0679  0.6160
 9369TIP3    H228072   0.502   2.830   1.762 -1.9660 -0.2160  1.1987
 9370TIP3   OH228073   0.441   0.354   4.851  0.0278  0.1431  0.4447
 9370TIP3    H128074   0.351   0.383   4.835 -0.4606 -0.5325  1.8600
 9370TIP3    H228075   0.458   0.289   4.782 -0.8241 -0.2478  0.5959
 9371TIP3   OH228076   4.917   3.292   5.387 -0.2210  0.7511  0.2867
 9371TIP3    H128077   4.948   3.261   5.472 -1.4040  0.1352  0.5093
 9371TIP3    H228078   4.879   3.214   5.346  1.7033  0.6585 -1.4732
 9372TIP3   OH228079   0.592   3.161   5.065 -0.2711 -0.0472  0.2119
 9372TIP3    H128080   0.678   3.181   5.028  0.3938  0.9671  2.1566
 9372TIP3    H228081   0.597   3.068   5.090  1.0216  0.4538  2.0502
 9373TIP3   OH228082   3.054   4.182   2.388 -0.2223  0.7817 -0.5454
 9373TIP3    H128083   3.073   4.089   2.380 -1.1137  0.6153 -0.9213
 9373TIP3    H228084   3.129   4.226   2.348  0.3039  0.2306 -0.1616
 9374TIP3   OH228085   5.673   5.749   2.709 -0.0046 -0.2039 -0.2856
 9374TIP3    H128086   5.618   5.678   2.675  0.0694  0.3188 -1.5644
 9374TIP3    H228087   5.749   5.705   2.746 -0.2978 -0.8278 -0.4101
 9375TIP3   OH228088   3.339   2.029   4.912 -0.2915 -0.8950  0.1868
 9375TIP3    H128089   3.362   1.957   4.970  0.2276 -0.6904  0.2336
 9375TIP3    H228090   3.250   2.009   4.884 -0.0401 -1.7066 -0.0387
 9376TIP3   OH228091   6.969   0.942   5.629 -0.3694 -0.2894  0.1298
 9376TIP3    H128092   7.004   0.991   5.704 -1.1279 -2.3416  1.9397
 9376TIP3    H228093   7.030   0.870   5.617 -0.8851 -0.6316 -0.4776
 9377TIP3   OH228094   1.170   5.265   4.840  0.2058 -0.4218  0.1483
 9377TIP3    H128095   1.230   5.340   4.847 -2.6991  1.9463  1.6134
 9377TIP3    H228096   1.200   5.204   4.907  0.9569  0.7210  0.8868
 9378TIP3   OH228097   1.020   4.462   4.430 -0.6441  0.0283 -0.8771
 9378TIP3    H128098   0.964   4.533   4.397  0.1084  0.3177 -1.5718
 9378TIP3    H228099   1.004   4.389   4.369 -1.0669 -0.2498 -0.4392
 9379TIP3   OH228100   5.690   2.479   4.392  0.1818  0.1545  0.1011
 9379TIP3    H128101   5.722   2.565   4.367 -1.4023  0.9645  0.7258
 9379TIP3    H228102   5.757   2.445   4.452  0.9424  0.8347 -0.3424
 9380TIP3   OH228103   0.090   3.786   3.220  0.6555 -0.3673 -0.6036
 9380TIP3    H128104   0.160   3.780   3.155 -0.2935 -1.6339 -1.5574
 9380TIP3    H228105   0.032   3.854   3.186  1.2751  0.5221  0.0713
 9381TIP3   OH228106   5.767   5.520   3.402  0.4314 -0.3803 -0.2829
 9381TIP3    H128107   5.690   5.509   3.347 -0.0720 -0.7380  0.4876
 9381TIP3    H228108   5.839   5.483   3.351  0.0235 -0.4482 -0.8125
 9382TIP3   OH228109   4.199   2.760   5.040  0.0783 -0.0740  0.5385
 9382TIP3    H128110   4.250   2.692   5.086  0.0931  0.6960  1.6995
 9382TIP3    H228111   4.253   2.783   4.965  0.9020 -0.1068  1.1055
 9383TIP3   OH228112   2.513   5.842   2.040  0.1311 -0.1187 -0.0539
 9383TIP3    H128113   2.425   5.882   2.039 -0.1574 -0.7299 -1.6207
 9383TIP3    H228114   2.551   5.866   1.956  1.1072 -0.6779  0.2144
 9384TIP3   OH228115   4.265   3.712   1.297  0.9350  0.2631 -0.1431
 9384TIP3    H128116   4.290   3.619   1.300 -0.9065 -0.2503  0.9895
 9384TIP3    H228117   4.177   3.712   1.260  0.3041  1.3905  1.2853
 9385TIP3   OH228118   5.880   5.287   2.985 -0.0820 -0.1242 -0.2499
 9385TIP3    H128119   5.948   5.304   2.920  0.1608 -0.7472 -0.1581
 9385TIP3    H228120   5.799   5.287   2.934 -0.0708  1.0273 -0.2968
 9386TIP3   OH228121   5.191   1.085   1.883 -0.2028  0.9205 -0.0461
 9386TIP3    H128122   5.159   1.162   1.836  0.3471 -0.3507 -2.6536
 9386TIP3    H228123   5.125   1.017   1.866  0.3699  0.2231  0.4590
 9387TIP3   OH228124   0.397   1.731   3.628  0.0573  0.6699 -0.2966
 9387TIP3    H128125   0.318   1.677   3.621 -0.1250  0.8386  0.4299
 9387TIP3    H228126   0.469   1.671   3.609 -0.0804 -0.0262  1.2437
 9388TIP3   OH228127   4.378   3.608   4.338 -0.2886  0.7125 -0.2772
 9388TIP3    H128128   4.334   3.643   4.260 -1.8501  0.2092  0.3411
 9388TIP3    H228129   4.455   3.663   4.348 -1.3697  2.3957 -0.7645
 9389TIP3   OH228130   0.531   6.568   4.580 -0.0183 -0.5722  0.0153
 9389TIP3    H128131   0.622   6.584   4.554 -0.5617  2.0591 -0.5188
 9389TIP3    H228132   0.524   6.473   4.583  2.5590 -0.8618 -0.6285
 9390TIP3   OH228133   0.091   2.866   2.397 -0.1291 -0.4705  0.1682
 9390TIP3    H128134   0.115   2.824   2.480  1.9357  0.1018 -0.0772
 9390TIP3    H228135   0.088   2.960   2.417 -0.4776 -0.3955 -0.2170
 9391TIP3   OH228136   0.318   2.364   3.712  0.0523  0.8641  0.3987
 9391TIP3    H128137   0.308   2.278   3.752  0.8488  1.0105  0.9331
 9391TIP3    H228138   0.231   2.385   3.677 -0.2805  0.0910  0.7485
 9392TIP3   OH228139   0.740   0.071   4.054 -0.6759 -0.2169 -0.5142
 9392TIP3    H128140   0.716   0.142   4.113 -0.0672 -0.2309 -0.2413
 9392TIP3    H228141   0.793   0.113   3.987 -1.8498 -0.0933 -1.4020
 9393TIP3   OH228142   6.877   4.348   0.583  0.2527  0.0989 -0.5871
 9393TIP3    H128143   6.866   4.275   0.523 -0.7351 -0.7111  0.5382
 9393TIP3    H228144   6.946   4.320   0.644 -1.5842 -0.8551  1.1595
 9394TIP3   OH228145   2.254   2.921   4.055 -0.1492 -0.0768  0.4378
 9394TIP3    H128146   2.323   2.869   4.096  1.9412  2.1504 -0.0018
 9394TIP3    H228147   2.267   2.907   3.961 -0.5492  0.0895  0.3549
 9395TIP3   OH228148   6.931   6.538   1.938  0.5330 -0.0933  0.3604
 9395TIP3    H128149   6.950   6.489   2.018 -0.7298 -0.2435  0.5949
 9395TIP3    H228150   6.835   6.538   1.932  0.5158  1.6420 -0.0614
 9396TIP3   OH228151   2.411   5.977   0.737  0.0664  0.3510 -0.2018
 9396TIP3    H128152   2.368   6.062   0.742 -1.4175 -0.4158  1.6322
 9396TIP3    H228153   2.504   5.996   0.744 -0.0879  1.9012 -1.6695
 9397TIP3   OH228154   6.604   3.228   0.116 -0.6475  0.2880 -0.6470
 9397TIP3    H128155   6.623   3.309   0.069 -0.1910  0.6012  0.0576
 9397TIP3    H228156   6.667   3.165   0.082 -0.7879  0.3130 -0.9601
 9398TIP3   OH228157   2.674   0.196   0.990  0.0692  0.3881 -0.1838
 9398TIP3    H128158   2.674   0.196   1.086  0.8375  1.3190 -0.1683
 9398TIP3    H228159   2.581   0.190   0.966 -0.1171 -0.0444  0.6077
 9399TIP3   OH228160   1.273   3.662   5.558 -0.1638  0.1547  0.0329
 9399TIP3    H128161   1.344   3.701   5.507  0.1461  0.1909  0.4828
 9399TIP3    H228162   1.218   3.619   5.493 -1.1554  2.2806 -0.6059
 9400TIP3   OH228163   0.336   4.727   2.102  0.4130  0.2345  0.3125
 9400TIP3    H128164   0.380   4.803   2.064 -1.0257  0.8797 -0.1540
 9400TIP3    H228165   0.401   4.687   2.159  1.2592  1.7249  0.4341
 9401TIP3   OH228166   4.608   3.935   3.026  0.0898  0.2764 -0.5639
 9401TIP3    H128167   4.601   3.853   3.075 -0.8655  0.3554 -0.5387
 9401TIP3    H228168   4.698   3.936   2.994  0.2383 -0.5845 -0.2219
 9402TIP3   OH228169   1.510   4.071   2.619 -0.2238  0.0662  0.5107
 9402TIP3    H128170   1.481   4.103   2.534  2.2182 -1.4921 -1.0349
 9402TIP3    H228171   1.566   4.142   2.653 -2.0651  1.1553  1.4080
 9403TIP3   OH228172   0.847   4.937   2.805 -0.3434  0.3589 -0.5136
 9403TIP3    H128173   0.844   5.020   2.852  0.7574 -0.6155  1.3825
 9403TIP3    H228174   0.939   4.928   2.779 -0.5901  0.0369 -1.3057
 9404TIP3   OH228175   4.319   5.831   5.242 -0.1599 -0.3206 -0.2809
 9404TIP3    H128176   4.293   5.796   5.327 -1.6234 -0.2495 -0.6670
 9404TIP3    H228177   4.303   5.925   5.249  2.5632  0.1901  0.3329
 9405TIP3   OH228178   3.438   1.705   4.507  0.4440 -0.5621  0.0322
 9405TIP3    H128179   3.456   1.772   4.441 -0.3864 -0.1921  0.1646
 9405TIP3    H228180   3.394   1.752   4.577  2.2496 -0.7412  1.3583
 9406TIP3   OH228181   4.978   4.653   5.329 -0.3587  0.2036 -0.0091
 9406TIP3    H128182   5.043   4.686   5.391 -1.9309  2.0483  0.7538
 9406TIP3    H228183   5.028   4.639   5.248  1.3042 -0.1518  1.0256
 9407TIP3   OH228184   1.538   3.709   2.479  0.2371  0.0149 -0.2686
 9407TIP3    H128185   1.500   3.773   2.419  2.5603 -0.8973 -2.9491
 9407TIP3    H228186   1.603   3.759   2.529 -3.5153  1.4272  3.8591
 9408TIP3   OH228187   6.008   3.429   3.341 -0.0098  0.0262 -0.3198
 9408TIP3    H128188   6.099   3.424   3.371 -0.1755 -0.7710  0.0496
 9408TIP3    H228189   5.956   3.398   3.414 -0.8247  2.9500  0.4843
 9409TIP3   OH228190   3.175   5.496   3.802  0.2989 -0.5120  0.3017
 9409TIP3    H128191   3.158   5.507   3.896 -1.3925  0.5603 -0.0843
 9409TIP3    H228192   3.093   5.520   3.760  0.9782 -1.1274 -1.4640
 9410TIP3   OH228193   7.055   2.610   0.376 -0.3133  0.5794 -0.0008
 9410TIP3    H128194   7.045   2.674   0.306  0.7147  0.0835 -0.6297
 9410TIP3    H228195   6.967   2.602   0.414 -0.3958  2.5520  0.2906
 9411TIP3   OH228196   0.092   4.333   2.549  0.4311  0.1190 -0.0655
 9411TIP3    H128197   0.159   4.377   2.497 -0.7704  0.9282 -0.9835
 9411TIP3    H228198   0.085   4.246   2.510  0.9564  0.0298  0.0418
 9412TIP3   OH228199   3.444   3.475   5.501  0.6652  0.5705 -0.7326
 9412TIP3    H128200   3.392   3.525   5.564 -0.8877 -1.0762 -0.6286
 9412TIP3    H228201   3.525   3.454   5.548  0.6263  1.5278 -0.2061
 9413TIP3   OH228202   2.512   3.444   0.171 -0.0094  0.2550  0.2414
 9413TIP3    H128203   2.550   3.531   0.185  0.9463 -0.3490  1.5429
 9413TIP3    H228204   2.577   3.383   0.205 -1.0372 -0.9409  0.1337
 9414TIP3   OH228205   6.443   2.000   0.476  0.3352 -0.1723 -0.0169
 9414TIP3    H128206   6.369   1.991   0.535  0.1963  0.1382 -0.1391
 9414TIP3    H228207   6.520   1.982   0.531  0.2756  1.0490  0.5045
 9415TIP3   OH228208   6.543   3.445   3.362 -0.3981 -0.6146  0.0429
 9415TIP3    H128209   6.552   3.393   3.441  1.5517 -1.2493 -0.5523
 9415TIP3    H228210   6.621   3.500   3.359 -0.9857  0.2164 -0.8704
 9416TIP3   OH228211   5.229   3.522   3.341  0.1376 -0.1554  0.3121
 9416TIP3    H128212   5.140   3.542   3.313  0.2019  0.0964  0.2840
 9416TIP3    H228213   5.221   3.492   3.431 -0.1384 -1.5041 -0.1412
 9417TIP3   OH228214   2.993   2.092   4.506  0.1990 -0.0806 -0.1808
 9417TIP3    H128215   3.081   2.130   4.500  0.0459  0.2163 -0.5719
 9417TIP3    H228216   3.007   2.007   4.548  0.9463 -0.8979 -1.9780
 9418TIP3   OH228217   3.847   2.906   5.700  0.6209  0.1917  0.1122
 9418TIP3    H128218   3.900   2.950   5.633 -1.2003  1.1260 -0.7834
 9418TIP3    H228219   3.896   2.919   5.781  3.0776 -1.2695 -1.0195
 9419TIP3   OH228220   3.632   1.594   3.798 -0.2565  0.6632 -0.1149
 9419TIP3    H128221   3.669   1.562   3.880  0.0637  3.5354  0.9689
 9419TIP3    H228222   3.678   1.544   3.730  0.6886 -0.5991  1.3742
 9420TIP3   OH228223   1.560   5.759   2.535  0.0751 -0.0966  0.1492
 9420TIP3    H128224   1.518   5.673   2.539 -1.4825  0.6376  0.6156
 9420TIP3    H228225   1.627   5.750   2.467  1.0867 -2.1301  1.3223
 9421TIP3   OH228226   4.917   1.160   5.762 -0.0328 -0.1550 -0.1850
 9421TIP3    H128227   4.841   1.203   5.723  0.1527 -1.2110 -1.8147
 9421TIP3    H228228   4.988   1.224   5.753 -0.4589  0.3897  0.2815
 9422TIP3   OH228229   6.092   3.811   1.318  0.1714  0.0689 -0.4017
 9422TIP3    H128230   6.179   3.832   1.352 -0.7019  2.9052  0.3492
 9422TIP3    H228231   6.081   3.718   1.337  3.6499 -0.8654 -2.0441
 9423TIP3   OH228232   2.315   3.717   0.763 -0.5048  0.5312 -0.1722
 9423TIP3    H128233   2.267   3.776   0.821  0.8467  0.1168  1.4421
 9423TIP3    H228234   2.310   3.758   0.677 -1.6810  1.7021  0.4258
 9424TIP3   OH228235   0.564   4.319   3.887 -0.1017  0.0631  0.2477
 9424TIP3    H128236   0.502   4.370   3.939  0.9354  1.0604  0.5309
 9424TIP3    H228237   0.632   4.381   3.862  1.9020 -1.4234  1.6921
 9425TIP3   OH228238   1.986   0.969   4.024  0.5161 -0.4938  0.4298
 9425TIP3    H128239   2.013   0.991   3.934 -1.4872 -0.1440 -0.1343
 9425TIP3    H228240   2.037   0.891   4.045  0.7191 -0.8340 -1.1741
 9426TIP3   OH228241   0.571   2.199   1.698 -0.4369 -0.3954 -0.8283
 9426TIP3    H128242   0.654   2.152   1.696 -0.5685 -0.8143  1.3636
 9426TIP3    H228243   0.530   2.178   1.614 -0.4989 -4.2310 -0.0146
 9427TIP3   OH228244   1.179   6.538   2.664  0.0625  0.0133  0.1130
 9427TIP3    H128245   1.122   6.481   2.715  0.8035 -1.2854 -0.4686
 9427TIP3    H228246   1.123   6.570   2.593  0.3900 -2.5495 -1.4043
 9428TIP3   OH228247   3.382   0.244   4.758  0.4462 -0.1146 -0.3809
 9428TIP3    H128248   3.409   0.252   4.849  1.6647 -1.6968 -0.5544
 9428TIP3    H228249   3.437   0.305   4.710  0.8051 -0.3113 -0.2205
 9429TIP3   OH228250   6.884   3.296   1.045 -0.3046 -0.1723  0.5217
 9429TIP3    H128251   6.951   3.239   1.007 -0.3349  0.4422 -0.4931
 9429TIP3    H228252   6.834   3.239   1.104  0.9334 -0.6986  1.0880
 9430TIP3   OH228253   3.213   2.503   2.882  0.4963  0.0739 -0.6211
 9430TIP3    H128254   3.250   2.529   2.966 -1.3471  1.2212 -0.1032
 9430TIP3    H228255   3.199   2.408   2.890  0.4245  0.1632  0.3343
 9431TIP3   OH228256   6.709   2.504   2.144  0.4360  0.6647  0.1888
 9431TIP3    H128257   6.695   2.599   2.142 -1.3284  0.4405  0.3208
 9431TIP3    H228258   6.787   2.493   2.197 -0.1590  1.9775  1.4141
 9432TIP3   OH228259   2.226   1.399   4.807  0.0443 -0.3134  0.3154
 9432TIP3    H128260   2.262   1.316   4.774  0.4150 -0.1948  0.4125
 9432TIP3    H228261   2.136   1.379   4.831 -0.5041 -0.2217 -1.5174
 9433TIP3   OH228262   2.039   5.033   2.240  0.1107  0.3719  0.6652
 9433TIP3    H128263   2.112   5.074   2.288  0.9802  1.2339 -1.2983
 9433TIP3    H228264   2.036   4.944   2.274  3.7938 -0.5305 -0.8379
 9434TIP3   OH228265   4.080   0.639   0.208 -0.5810 -0.0520 -0.1958
 9434TIP3    H128266   4.144   0.602   0.148  0.3777 -0.5130  1.0718
 9434TIP3    H228267   4.131   0.670   0.282 -1.5008  2.5211 -0.5286
 9435TIP3   OH228268   4.084   1.251   1.084  0.1286  0.2394  0.1245
 9435TIP3    H128269   4.108   1.338   1.115 -0.2546  0.6674 -0.7503
 9435TIP3    H228270   4.089   1.196   1.162 -2.4846  1.5751  1.3441
 9436TIP3   OH228271   6.145   2.906   5.116  0.1350 -0.2427 -0.2193
 9436TIP3    H128272   6.161   2.911   5.210  0.2199 -1.5946 -0.1477
 9436TIP3    H228273   6.069   2.848   5.108 -0.8866  1.1277 -0.9115
 9437TIP3   OH228274   2.596   4.698   2.529  0.0854 -0.3364 -0.1645
 9437TIP3    H128275   2.689   4.717   2.538 -0.0276  0.2537 -0.1969
 9437TIP3    H228276   2.593   4.611   2.489  0.6103 -0.9199  1.0374
 9438TIP3   OH228277   1.483   6.042   0.233  0.0827 -0.5954 -0.1634
 9438TIP3    H128278   1.557   5.991   0.268  1.2542 -0.6362 -2.5479
 9438TIP3    H228279   1.520   6.091   0.160 -1.9369  0.6365 -0.4280
 9439TIP3   OH228280   5.729   3.000   2.024  0.0222 -0.2299 -0.1491
 9439TIP3    H128281   5.815   2.989   1.983 -0.5845 -1.5548 -1.1181
 9439TIP3    H228282   5.670   2.948   1.971 -1.0713 -0.8441  1.5711
 9440TIP3   OH228283   4.330   6.423   4.315  0.2845 -0.2488 -0.5789
 9440TIP3    H128284   4.281   6.504   4.327 -0.5339 -0.6476 -1.1974
 9440TIP3    H228285   4.396   6.444   4.248 -0.3168 -0.2525 -1.1813
 9441TIP3   OH228286   2.697   2.072   1.489 -0.9533 -0.0018  0.2119
 9441TIP3    H128287   2.744   1.998   1.526  0.9080  0.4563 -1.0970
 9441TIP3    H228288   2.746   2.149   1.518 -0.9274  0.4989 -1.0813
 9442TIP3   OH228289   4.648   4.977   2.382 -0.0355  0.1829 -0.6105
 9442TIP3    H128290   4.707   5.040   2.422  0.2838  1.1648 -2.4847
 9442TIP3    H228291   4.704   4.903   2.358 -0.0868 -0.0710  0.0492
 9443TIP3   OH228292   1.401   2.545   2.336  0.3778  0.3195  0.5311
 9443TIP3    H128293   1.352   2.463   2.330 -0.7070  0.9822  0.0458
 9443TIP3    H228294   1.493   2.518   2.340 -0.0172 -0.9597  1.7082
 9444TIP3   OH228295   5.065   4.515   0.238 -0.0544  0.0527  0.5651
 9444TIP3    H128296   5.048   4.429   0.276  1.5449 -0.1115  0.9976
 9444TIP3    H228297   5.044   4.505   0.145 -1.5436 -0.2880  0.9144
 9445TIP3   OH228298   5.437   5.093   1.705  0.0079  0.6512 -0.0059
 9445TIP3    H128299   5.452   5.155   1.634  0.6857 -0.3852 -0.7953
 9445TIP3    H228300   5.471   5.010   1.672 -2.0974 -0.4882  0.4727
 9446TIP3   OH228301   0.934   4.747   2.417 -0.7423  0.1053 -0.1154
 9446TIP3    H128302   0.871   4.758   2.488  0.0291  1.0459  0.4391
 9446TIP3    H228303   0.901   4.672   2.367 -1.5994 -0.2160  0.9070
 9447TIP3   OH228304   0.184   6.223   3.524  0.6212 -0.0992  0.0310
 9447TIP3    H128305   0.177   6.127   3.525  0.2037 -0.0863  2.2859
 9447TIP3    H228306   0.097   6.254   3.547  0.5614  0.8876 -1.3787
 9448TIP3   OH228307   3.840   1.531   2.628 -0.3307 -0.6709 -0.2589
 9448TIP3    H128308   3.788   1.604   2.594  1.1614 -0.0118 -1.2046
 9448TIP3    H228309   3.920   1.572   2.661  0.2245 -1.8050 -0.1603
 9449TIP3   OH228310   0.750   1.787   3.985  0.5623 -0.3217  0.0736
 9449TIP3    H128311   0.787   1.706   3.949  0.8631  0.2296 -0.8895
 9449TIP3    H228312   0.656   1.768   3.994  0.7601 -1.0685  0.6913
 9450TIP3   OH228313   4.818   6.708   5.349  0.9913  0.2045 -0.1777
 9450TIP3    H128314   4.750   6.641   5.349  0.9657  0.1916 -1.7677
 9450TIP3    H228315   4.884   6.676   5.287  0.7084  1.8821 -1.4089
 9451TIP3   OH228316   2.814   0.050   1.472 -0.0904  0.1071 -0.2180
 9451TIP3    H128317   2.892   0.077   1.521  0.3007 -0.7412 -0.3683
 9451TIP3    H228318   2.772  -0.015   1.529 -1.2544  1.3058  0.3325
 9452TIP3   OH228319   6.149   3.837   2.766  0.2084  0.1734  0.0414
 9452TIP3    H128320   6.063   3.811   2.801 -0.2577  2.2442  0.6312
 9452TIP3    H228321   6.212   3.792   2.822 -0.5358  0.6377  1.3100
 9453TIP3   OH228322   1.101   1.855   2.109 -0.4729 -0.0282 -0.3130
 9453TIP3    H128323   1.050   1.876   2.188 -1.4238 -1.3754 -0.5431
 9453TIP3    H228324   1.045   1.796   2.059  0.4940  0.0871 -1.5821
 9454TIP3   OH228325   5.263   5.680   0.841  0.1004  0.4979 -0.1328
 9454TIP3    H128326   5.233   5.764   0.875 -0.3870  1.1226 -2.0039
 9454TIP3    H228327   5.205   5.661   0.767  0.0302 -1.6347  0.3915
 9455TIP3   OH228328   1.642   5.590   3.010  0.2493 -0.5379  0.1109
 9455TIP3    H128329   1.593   5.508   3.008 -0.0271 -0.4976  2.2643
 9455TIP3    H228330   1.730   5.565   3.040  0.5923 -0.2069 -0.5945
 9456TIP3   OH228331   1.450   3.758   3.743 -0.1912 -0.7483 -0.2369
 9456TIP3    H128332   1.394   3.746   3.820 -0.3105  1.2492  0.0631
 9456TIP3    H228333   1.530   3.798   3.778  0.9762 -2.4492 -0.8205
 9457TIP3   OH228334   0.028   4.898   0.579  0.2516 -0.3689  0.0579
 9457TIP3    H128335   0.048   4.805   0.576  2.8850  0.0933 -2.8980
 9457TIP3    H228336   0.114   4.941   0.575 -0.9257  2.0958 -1.5227
 9458TIP3   OH228337   1.909   4.563   2.159 -0.0984  0.8664 -0.1159
 9458TIP3    H128338   1.915   4.482   2.109  0.5607  0.8054  0.0537
 9458TIP3    H228339   1.820   4.594   2.144 -0.3046  0.1918 -0.3051
 9459TIP3   OH228340   4.884   1.655   4.514 -0.4488  0.2950  0.1327
 9459TIP3    H128341   4.799   1.698   4.503  0.0385  0.6647 -2.7334
 9459TIP3    H228342   4.943   1.701   4.454  2.1370  0.7437  2.7499
 9460TIP3   OH228343   5.171   6.508   1.790 -0.0755 -0.2597  0.3367
 9460TIP3    H128344   5.203   6.516   1.701  0.4609 -0.2992  0.5233
 9460TIP3    H228345   5.165   6.413   1.804 -1.1882 -0.2558 -0.0162
 9461TIP3   OH228346   1.572   3.091   3.037  0.5291  0.6403 -0.8625
 9461TIP3    H128347   1.649   3.043   3.005  0.1004  0.1686 -1.2052
 9461TIP3    H228348   1.608   3.170   3.077  1.3042 -0.2433  0.2621
 9462TIP3   OH228349   2.842   5.130   2.519  0.4177  0.2795  0.6974
 9462TIP3    H128350   2.861   5.131   2.612 -1.2847  2.1706  1.0873
 9462TIP3    H228351   2.895   5.200   2.482 -1.6346  2.0797  0.9457
 9463TIP3   OH228352   1.863   5.573   2.046  0.4031  0.4920 -0.4048
 9463TIP3    H128353   1.942   5.626   2.032 -0.3969  1.4694 -1.4043
 9463TIP3    H228354   1.831   5.554   1.958 -0.0633 -0.5537 -0.0212
 9464TIP3   OH228355   6.717   2.463   4.795 -0.2460  0.3768  0.2903
 9464TIP3    H128356   6.693   2.371   4.784 -0.2491  0.0447  2.6470
 9464TIP3    H228357   6.747   2.490   4.708  2.0962 -2.5007  0.0468
 9465TIP3   OH228358   0.839   5.615   5.567 -0.0148 -0.0767 -0.0692
 9465TIP3    H128359   0.879   5.698   5.594 -0.0102  0.2357 -0.9964
 9465TIP3    H228360   0.813   5.573   5.649  2.7163 -0.5738  0.6269
 9466TIP3   OH228361   3.553   4.376   3.631 -0.3878 -0.0654 -0.1793
 9466TIP3    H128362   3.530   4.458   3.676 -0.2722  0.0510 -0.3300
 9466TIP3    H228363   3.638   4.352   3.666 -1.1761 -1.0695  1.1742
 9467TIP3   OH228364   6.916   4.245   2.306  0.2907 -0.4113  0.2703
 9467TIP3    H128365   6.838   4.300   2.312  0.8845  0.3420  1.6729
 9467TIP3    H228366   6.984   4.295   2.350  1.0229 -1.9798  1.0095
 9468TIP3   OH228367   0.490   5.099   1.606 -0.5091  0.0776 -0.2299
 9468TIP3    H128368   0.560   5.047   1.646 -0.3911 -0.5347 -1.1835
 9468TIP3    H228369   0.504   5.188   1.639 -1.2134 -0.5993  2.1170
 9469TIP3   OH228370   2.357   1.647   2.929  0.4459  0.1089  0.2075
 9469TIP3    H128371   2.293   1.718   2.928  1.1176  0.7659  1.2399
 9469TIP3    H228372   2.304   1.567   2.937 -0.4219  0.2714 -2.9149
 9470TIP3   OH228373   0.603   4.721   4.586  0.0319  0.0056 -0.2667
 9470TIP3    H128374   0.594   4.779   4.511  0.8726 -1.4626 -1.5720
 9470TIP3    H228375   0.519   4.728   4.632 -0.4314  1.0752 -1.2241
 9471TIP3   OH228376   3.248   4.537   4.109 -0.0336  0.0362  0.5809
 9471TIP3    H128377   3.336   4.555   4.143  0.5260 -0.0388 -0.7487
 9471TIP3    H228378   3.189   4.578   4.172  0.9301 -0.4190  1.8124
 9472TIP3   OH228379   0.273   1.655   2.730  0.2969  0.1285 -0.2790
 9472TIP3    H128380   0.214   1.656   2.805  0.6143  1.4945 -0.0266
 9472TIP3    H228381   0.220   1.620   2.659 -0.0805 -0.9408  0.5070
 9473TIP3   OH228382   4.580   2.765   2.232  0.2256 -0.1368  0.0368
 9473TIP3    H128383   4.485   2.761   2.225  0.2782 -1.3815 -0.1235
 9473TIP3    H228384   4.601   2.716   2.312  0.7004  0.7271  0.4655
 9474TIP3   OH228385   6.729   1.709   4.411  0.0491 -0.1552  0.5657
 9474TIP3    H128386   6.634   1.722   4.417  0.0096  1.9777 -2.2484
 9474TIP3    H228387   6.766   1.778   4.465 -0.0656  0.3342  0.0370
 9475TIP3   OH228388   5.978   6.781   4.955  0.3515  0.3613  0.0953
 9475TIP3    H128389   5.966   6.690   4.981  0.0215  0.6184  0.8817
 9475TIP3    H228390   6.041   6.777   4.883 -1.3182 -0.6594 -1.3702
 9476TIP3   OH228391   2.462   3.448   5.600  0.2055  0.1689  0.1600
 9476TIP3    H128392   2.456   3.454   5.695  2.5585 -0.0088  0.3818
 9476TIP3    H228393   2.390   3.390   5.575 -0.5646  0.3580  1.7784
 9477TIP3   OH228394   7.172   4.642   5.844 -0.7022 -0.0065  0.6221
 9477TIP3    H128395   7.203   4.724   5.804  0.3506 -0.9521 -0.5674
 9477TIP3    H228396   7.081   4.635   5.815 -0.0850 -0.4730 -1.3896
 9478TIP3   OH228397   6.313   3.971   0.934 -0.2367 -0.0562  0.2203
 9478TIP3    H128398   6.240   4.012   0.888  0.3882  0.2088 -0.5585
 9478TIP3    H228399   6.305   4.002   1.024 -1.8786 -1.1275  0.4848
 9479TIP3   OH228400   2.449   4.536   1.997  0.2246  0.0496 -0.2168
 9479TIP3    H128401   2.444   4.619   2.044  0.1999  0.1434 -0.3848
 9479TIP3    H228402   2.434   4.469   2.065  2.1879  0.0716  0.3037
 9480TIP3   OH228403   2.253   4.598   2.652  0.4004 -0.2268  0.5173
 9480TIP3    H128404   2.280   4.507   2.657  1.5114  0.1356  2.3877
 9480TIP3    H228405   2.309   4.643   2.716 -0.6637  1.6241  0.2341
 9481TIP3   OH228406   4.443   3.700   5.444  0.0297 -0.5591 -0.2057
 9481TIP3    H128407   4.505   3.628   5.454 -2.2561 -2.8040 -1.2967
 9481TIP3    H228408   4.468   3.743   5.362  1.3312 -0.1033  0.3980
 9482TIP3   OH228409   4.468   6.533   1.523 -0.3935 -0.3413 -0.3939
 9482TIP3    H128410   4.461   6.450   1.571 -1.5005  0.0030  0.0722
 9482TIP3    H228411   4.526   6.513   1.450 -0.9247 -1.6426 -0.5056
 9483TIP3   OH228412   7.058   6.091   2.220 -0.4237  0.1003  0.5594
 9483TIP3    H128413   6.994   6.041   2.171 -0.5159  0.4166  0.3550
 9483TIP3    H228414   7.041   6.070   2.312 -0.5518 -0.1321  0.4808
 9484TIP3   OH228415   0.388   2.835   0.822  0.6874  0.1646  0.1286
 9484TIP3    H128416   0.408   2.763   0.762 -0.0697 -0.2579  0.3756
 9484TIP3    H228417   0.395   2.914   0.768 -2.6094 -0.3392 -1.2887
 9485TIP3   OH228418   4.828   3.150   3.755 -0.0499  0.0766  0.3285
 9485TIP3    H128419   4.776   3.070   3.763 -0.9055  0.5845 -0.0241
 9485TIP3    H228420   4.893   3.143   3.825  1.5979 -2.1592 -1.3066
 9486TIP3   OH228421   7.204   6.147   5.106 -1.1286  0.1235 -0.5529
 9486TIP3    H128422   7.129   6.207   5.104 -0.9192  0.3836 -0.8298
 9486TIP3    H228423   7.210   6.115   5.016 -0.8197  0.2194 -0.5660
 9487TIP3   OH228424   2.004   3.145   0.551 -0.1058  0.0664  0.0435
 9487TIP3    H128425   1.978   3.206   0.620 -0.3368  0.2490 -0.2078
 9487TIP3    H228426   1.966   3.061   0.578  1.9079 -0.4704  1.4707
 9488TIP3   OH228427   2.256   0.731   1.981  0.1558 -0.4397  0.4283
 9488TIP3    H128428   2.247   0.791   2.055  2.3003 -0.1144  0.4841
 9488TIP3    H228429   2.279   0.788   1.907 -0.3235 -0.9478 -0.1283
 9489TIP3   OH228430   6.763   2.174   2.308 -0.3828 -0.2423  0.2754
 9489TIP3    H128431   6.673   2.202   2.292 -0.8186 -0.9786  1.3196
 9489TIP3    H228432   6.755   2.084   2.342  0.7686 -0.4702 -0.0088
 9490TIP3   OH228433   4.961   1.707   3.381  0.4219 -0.3324 -0.1608
 9490TIP3    H128434   4.983   1.619   3.350 -1.5121 -1.3671  1.2068
 9490TIP3    H228435   4.979   1.705   3.475 -1.2822  0.1240  0.2161
 9491TIP3   OH228436   0.778   6.240   4.641 -0.0651  0.1853  0.1381
 9491TIP3    H128437   0.827   6.274   4.566 -1.1680 -0.0163 -0.6989
 9491TIP3    H228438   0.692   6.217   4.605 -0.1157 -1.3236  1.1608
 9492TIP3   OH228439   5.910   1.097   4.671  0.5810 -0.0555 -1.0432
 9492TIP3    H128440   5.963   1.142   4.737  2.4130 -2.0666 -1.0370
 9492TIP3    H228441   5.841   1.052   4.721 -0.8259  2.0093 -0.9912
 9493TIP3   OH228442   7.145   6.561   1.491 -0.2715  0.2468 -0.7090
 9493TIP3    H128443   7.087   6.619   1.541 -1.1719  0.4073 -1.9007
 9493TIP3    H228444   7.184   6.504   1.557 -0.6779  1.0854  0.2920
 9494TIP3   OH228445   6.373   1.591   5.188 -0.4646  0.3279  0.1579
 9494TIP3    H128446   6.413   1.519   5.236  0.3867  0.0618 -0.9343
 9494TIP3    H228447   6.418   1.669   5.219  1.4922 -0.0341 -1.5826
 9495TIP3   OH228448   1.559   5.201   3.654  0.0948 -0.5696 -0.4461
 9495TIP3    H128449   1.559   5.109   3.628  0.4929 -0.2015 -1.8352
 9495TIP3    H228450   1.488   5.207   3.718 -0.4718 -1.6850 -0.9296
 9496TIP3   OH228451   7.012   1.826   3.736  0.3209  0.2394  0.2480
 9496TIP3    H128452   6.928   1.797   3.773  0.1564  1.5912  0.9748
 9496TIP3    H228453   7.004   1.807   3.642  0.5285 -2.7182  0.7137
 9497TIP3   OH228454   0.011   0.833   4.891 -0.1153 -0.2419 -0.0509
 9497TIP3    H128455   0.057   0.905   4.936  0.1442  0.1991 -0.9929
 9497TIP3    H228456  -0.010   0.869   4.805  2.1018 -2.0328 -1.4437
 9498TIP3   OH228457   2.958   5.969   5.119 -0.2617  0.1005 -0.1383
 9498TIP3    H128458   3.021   5.927   5.177 -1.2633 -1.3422 -0.0383
 9498TIP3    H228459   2.872   5.937   5.149 -0.9446  1.0192 -1.0488
 9499TIP3   OH228460   5.660   3.428   2.352 -0.3006  0.0482  0.2579
 9499TIP3    H128461   5.588   3.474   2.310 -0.3462 -0.6486 -0.4547
 9499TIP3    H228462   5.698   3.373   2.283  0.6557  0.0931  0.7219
 9500TIP3   OH228463   5.968   4.393   1.532 -0.3166  0.4565 -0.0155
 9500TIP3    H128464   6.062   4.405   1.534 -0.1945 -0.5177  0.5913
 9500TIP3    H228465   5.951   4.318   1.589 -1.4495  0.5785 -0.1539
 9501TIP3   OH228466   6.638   6.501   1.914 -0.4436  0.5195  0.1642
 9501TIP3    H128467   6.612   6.592   1.922  0.0982  0.5358  2.3956
 9501TIP3    H228468   6.620   6.463   2.000 -0.4298 -1.4269 -0.6367
 9502TIP3   OH228469   6.257   1.780   1.675 -0.1064 -0.4117 -0.0311
 9502TIP3    H128470   6.335   1.803   1.725 -0.2477 -1.8489  0.8970
 9502TIP3    H228471   6.280   1.698   1.631 -0.4612  0.1298 -1.2647
 9503TIP3   OH228472   5.518   5.639   2.993 -0.1795 -0.2053  0.7949
 9503TIP3    H128473   5.581   5.706   2.967 -1.5848  0.5933 -0.7925
 9503TIP3    H228474   5.444   5.650   2.932 -0.8960 -2.5524  1.1036
 9504TIP3   OH228475   4.092   4.328   2.422  0.4610 -0.2784 -0.2223
 9504TIP3    H128476   4.002   4.297   2.429  0.0002  0.9690 -0.4075
 9504TIP3    H228477   4.146   4.249   2.432 -0.6418 -1.0173 -0.0047
 9505TIP3   OH228478   6.650   0.702   5.723  0.7367  0.2253  0.6070
 9505TIP3    H128479   6.595   0.706   5.645  3.1719  0.1003 -1.2245
 9505TIP3    H228480   6.589   0.717   5.796 -1.5329  0.9642 -1.3093
 9506TIP3   OH228481   7.184   2.926   2.928  0.4108  0.2474  0.2532
 9506TIP3    H128482   7.228   3.006   2.957  0.6484 -0.0438  0.7143
 9506TIP3    H228483   7.133   2.953   2.852 -0.5629  1.1304  1.1784
 9507TIP3   OH228484   6.568   2.471   2.840 -0.2635  0.3276 -0.2526
 9507TIP3    H128485   6.562   2.563   2.812  1.7546  1.3212  2.1896
 9507TIP3    H228486   6.646   2.438   2.795 -1.0107 -0.2416 -1.1587
 9508TIP3   OH228487   1.246   1.692   4.090 -0.0405 -0.3639  0.4214
 9508TIP3    H128488   1.161   1.727   4.115  0.2171  0.1745  0.5500
 9508TIP3    H228489   1.228   1.638   4.012 -0.2395  1.2204 -0.6692
 9509TIP3   OH228490   5.677   4.129   1.488  0.7968 -0.1656 -0.5564
 9509TIP3    H128491   5.744   4.071   1.523 -0.3312 -0.9734  0.3275
 9509TIP3    H228492   5.612   4.070   1.449 -0.8332  0.3841  1.1747
 9510TIP3   OH228493   5.893   2.066   0.210  0.0747  0.0787  0.1719
 9510TIP3    H128494   5.834   1.992   0.198 -0.1756  0.5800 -1.9262
 9510TIP3    H228495   5.980   2.026   0.218 -0.3264 -0.5592  1.6864
 9511TIP3   OH228496   1.086   3.441   3.660  0.2029  0.4499 -0.0399
 9511TIP3    H128497   1.031   3.473   3.589  0.9174  0.3134 -0.6637
 9511TIP3    H228498   1.093   3.347   3.646 -2.1453 -0.1396  1.9692
 9512TIP3   OH228499   6.001   0.626   4.010  0.3199  0.2389  0.5076
 9512TIP3    H128500   5.941   0.610   3.937 -0.1456  1.0459  0.7071
 9512TIP3    H228501   6.071   0.562   3.997  0.2294  0.3417 -0.6367
 9513TIP3   OH228502   0.959   4.823   2.147 -0.0501 -0.2071 -0.0888
 9513TIP3    H128503   0.977   4.796   2.237  0.0331  3.1419  1.0305
 9513TIP3    H228504   0.871   4.860   2.150 -0.3925 -0.8044 -1.6195
 9514TIP3   OH228505   6.275   0.057   5.394 -0.7114 -0.1405 -0.3882
 9514TIP3    H128506   6.272   0.139   5.444  0.3269 -0.1947 -0.2185
 9514TIP3    H228507   6.252  -0.011   5.458 -0.0490 -0.1366 -0.1354
 9515TIP3   OH228508   5.881   1.968   1.449  0.8967  0.4545 -0.3078
 9515TIP3    H128509   5.906   1.900   1.387 -1.7384 -2.5547  1.6153
 9515TIP3    H228510   5.791   1.989   1.427  0.0538 -0.3439  2.0600
 9516TIP3   OH228511   3.350   4.732   0.677  0.2730  0.1170 -0.0410
 9516TIP3    H128512   3.264   4.690   0.671  0.7723 -1.0041  0.2891
 9516TIP3    H228513   3.364   4.771   0.591 -0.6291  0.4331 -0.0436
 9517TIP3   OH228514   0.203   0.060   3.478 -0.0264 -0.2018 -0.0333
 9517TIP3    H128515   0.162   0.097   3.400  1.4953  0.6806 -0.4578
 9517TIP3    H228516   0.239  -0.023   3.449  0.1220 -0.0979 -0.1456
 9518TIP3   OH228517   6.419   2.460   3.691  0.1265  0.1681  0.1584
 9518TIP3    H128518   6.512   2.437   3.685  0.6996  2.2107  0.4127
 9518TIP3    H228519   6.407   2.528   3.624 -0.4885  1.9287  1.9814
 9519TIP3   OH228520   1.318   6.377   2.188 -0.3141  0.4032 -0.0233
 9519TIP3    H128521   1.390   6.357   2.248 -0.0331  2.7670  0.5331
 9519TIP3    H228522   1.355   6.363   2.101 -0.6345 -2.7879  0.2285
 9520TIP3   OH228523   0.381   3.245   0.490  0.3047  0.6839 -0.5717
 9520TIP3    H128524   0.329   3.190   0.430  0.8418  1.0823 -1.4232
 9520TIP3    H228525   0.454   3.276   0.436  0.7684  1.1033  0.2873
 9521TIP3   OH228526   1.988   2.905   2.143  0.3718  0.0809 -0.6267
 9521TIP3    H128527   2.000   2.989   2.188  1.3266 -0.4516  0.1706
 9521TIP3    H228528   1.919   2.861   2.193  1.7906 -0.7236  0.6983
 9522TIP3   OH228529   0.311   4.431   5.265  0.2407 -0.4266 -0.4782
 9522TIP3    H128530   0.242   4.388   5.315  0.1865 -0.5651 -0.6708
 9522TIP3    H228531   0.304   4.394   5.177 -0.8165  1.1074 -1.0843
 9523TIP3   OH228532   4.407   3.490  -0.018  0.2082 -0.6369  0.8514
 9523TIP3    H128533   4.403   3.399   0.009 -1.9644 -0.0285  2.9485
 9523TIP3    H228534   4.465   3.532   0.046  0.5516 -0.3820  0.3823
 9524TIP3   OH228535   7.221   3.326   3.584  0.1425  0.2493 -0.1563
 9524TIP3    H128536   7.139   3.298   3.624 -1.3765  1.1481 -2.4349
 9524TIP3    H228537   7.225   3.420   3.601  0.0468  0.4318 -1.0893
 9525TIP3   OH228538   4.877   6.475   2.674  0.1941 -0.1043  0.0063
 9525TIP3    H128539   4.958   6.499   2.629 -0.3187  2.1281  0.1438
 9525TIP3    H228540   4.837   6.408   2.618  1.3104 -0.0172 -0.9333
 9526TIP3   OH228541   6.576   0.020   2.730 -0.0859  0.1024  0.5156
 9526TIP3    H128542   6.655  -0.025   2.700 -1.3535 -1.0049 -1.3267
 9526TIP3    H228543   6.586   0.024   2.825  1.7786 -0.7713  0.4035
 9527TIP3   OH228544   1.142   6.700   0.096 -0.1603  0.3538  0.0257
 9527TIP3    H128545   1.058   6.721   0.055  0.5943  0.8173 -1.3389
 9527TIP3    H228546   1.133   6.734   0.186 -1.7822 -0.5185  0.2442
 9528TIP3   OH228547   6.904   5.984   4.329 -0.0571  0.2512  0.2007
 9528TIP3    H128548   6.993   6.020   4.327 -0.8569  2.4998  1.0207
 9528TIP3    H228549   6.889   5.962   4.421 -0.2187 -0.4610  0.0052
 9529TIP3   OH228550   3.884   2.123   1.779  0.1760  0.7262  0.2014
 9529TIP3    H128551   3.852   2.183   1.846  1.2486  1.6861 -0.1110
 9529TIP3    H228552   3.968   2.092   1.813  0.6823  1.1496 -0.6339
 9530TIP3   OH228553   1.839   1.236   4.030  0.0650 -0.6832  0.0167
 9530TIP3    H128554   1.865   1.229   3.938  2.7940  1.7750  0.4501
 9530TIP3    H228555   1.772   1.304   4.030  2.0011  1.3597 -0.0068
 9531TIP3   OH228556   0.549   4.226   5.191  0.4632 -0.2759  0.1706
 9531TIP3    H128557   0.607   4.203   5.119  1.0812  1.3729  0.1156
 9531TIP3    H228558   0.481   4.281   5.151  1.3833  1.5228  0.9657
 9532TIP3   OH228559   6.804   6.178   0.788  0.1124  0.3256 -0.1826
 9532TIP3    H128560   6.775   6.123   0.861  1.8118 -1.0867 -0.4996
 9532TIP3    H228561   6.769   6.265   0.808 -2.2570 -0.7282  0.5915
 9533TIP3   OH228562   6.337   2.540   0.744  0.3119  0.2057 -0.2588
 9533TIP3    H128563   6.340   2.534   0.649  0.6057  0.5698 -0.2716
 9533TIP3    H228564   6.425   2.514   0.773  0.4017  0.6666 -0.1171
 9534TIP3   OH228565   1.667   4.362   1.183  0.7391 -0.0705 -0.3194
 9534TIP3    H128566   1.631   4.446   1.213 -0.6050 -0.9030  0.5026
 9534TIP3    H228567   1.698   4.320   1.263 -1.2117 -1.5353 -0.2648
 9535TIP3   OH228568   3.509   3.812   3.351 -0.0956 -0.0092  0.3854
 9535TIP3    H128569   3.516   3.743   3.417 -2.0571 -1.1099 -0.4910
 9535TIP3    H228570   3.535   3.892   3.398 -0.4857 -0.8957  2.2143
 9536TIP3   OH228571   6.961   6.254   4.970  0.5195 -0.4778 -0.0255
 9536TIP3    H128572   6.977   6.269   4.877  0.4561 -1.2116 -0.1610
 9536TIP3    H228573   6.889   6.314   4.992  1.9002  1.2208  0.0565
 9537TIP3   OH228574   0.062   2.191   1.148  0.5006  0.1612 -0.1830
 9537TIP3    H128575   0.077   2.172   1.241  1.9152  0.9764 -0.2109
 9537TIP3    H228576  -0.032   2.207   1.142  0.7232  2.7428  1.6608
 9538TIP3   OH228577   6.348   4.846   3.524  0.1746  0.6969 -0.0351
 9538TIP3    H128578   6.255   4.855   3.499 -0.2042 -0.2811  0.9386
 9538TIP3    H228579   6.349   4.862   3.618  0.9485  0.4161  0.0059
 9539TIP3   OH228580   0.718   1.420   4.036 -0.3557  0.3001  0.2679
 9539TIP3    H128581   0.682   1.350   4.091 -0.0632  0.0854  0.1852
 9539TIP3    H228582   0.697   1.500   4.084  0.0898  0.0988  0.8089
 9540TIP3   OH228583   6.680   5.293   5.362  0.1076 -0.2247 -0.3297
 9540TIP3    H128584   6.743   5.289   5.434 -1.0785  0.9121  0.8265
 9540TIP3    H228585   6.662   5.387   5.352 -3.1190 -0.5872  0.9736
 9541TIP3   OH228586   6.502   4.206   2.873 -0.3493  0.2986 -0.0455
 9541TIP3    H128587   6.503   4.276   2.807 -0.2987  1.6009  1.2889
 9541TIP3    H228588   6.417   4.163   2.861  0.1807 -0.3679 -1.7990
 9542TIP3   OH228589   2.568   4.849   0.583 -0.2578  0.0990  0.9374
 9542TIP3    H128590   2.614   4.925   0.546  1.4590 -1.1763  0.3369
 9542TIP3    H228591   2.555   4.790   0.509  0.1394 -1.0064  1.7345
 9543TIP3   OH228592   4.769   5.729   0.455  0.3210  0.0693  0.0149
 9543TIP3    H128593   4.849   5.682   0.430  1.4633  2.3286 -0.8005
 9543TIP3    H228594   4.743   5.689   0.538  2.0543 -1.0046  0.0868
 9544TIP3   OH228595   0.008   2.105   2.967 -0.4727  0.2827  0.0824
 9544TIP3    H128596   0.024   2.080   3.059 -2.0985 -0.2486  0.2470
 9544TIP3    H228597   0.039   2.030   2.917  1.4062  0.9983  0.0858
 9545TIP3   OH228598   4.303   5.700   5.482  0.2361 -0.3080  0.1210
 9545TIP3    H128599   4.227   5.714   5.538 -0.7712 -0.6095 -1.1136
 9545TIP3    H228600   4.347   5.625   5.520 -0.9782 -1.1318 -0.0214
 9546TIP3   OH228601   6.478   0.253   2.026 -0.2065  0.9705  0.3271
 9546TIP3    H128602   6.572   0.241   2.015 -0.5338 -0.4198 -1.4521
 9546TIP3    H228603   6.458   0.333   1.977 -0.2910 -0.1967 -1.6492
 9547TIP3   OH228604   6.385   3.630   1.582 -0.0184  0.2265 -0.0467
 9547TIP3    H128605   6.368   3.688   1.508  0.3176  0.4844  0.0731
 9547TIP3    H228606   6.301   3.624   1.628 -0.1653  0.2582 -0.3128
 9548TIP3   OH228607   3.669   2.819   4.412 -0.1421 -0.3543 -0.4543
 9548TIP3    H128608   3.631   2.756   4.350 -0.3018 -1.7364  0.9698
 9548TIP3    H228609   3.651   2.781   4.499 -0.2634  1.6913  0.4781
 9549TIP3   OH228610   0.739   1.108   1.112 -0.1753 -0.5865  0.3841
 9549TIP3    H128611   0.789   1.180   1.150 -0.1303 -0.2890 -0.2389
 9549TIP3    H228612   0.659   1.149   1.079 -0.8068 -1.0441  1.2980
 9550TIP3   OH228613   1.205   4.873   0.202 -0.3799  0.0214  0.4326
 9550TIP3    H128614   1.279   4.813   0.211 -0.8556 -0.4620  1.2734
 9550TIP3    H228615   1.150   4.833   0.134  0.1510  0.4179 -0.2435
 9551TIP3   OH228616   5.454   5.917   4.018  0.5605 -0.4027  0.3082
 9551TIP3    H128617   5.450   5.995   3.962 -0.8663 -0.7275 -0.0808
 9551TIP3    H228618   5.468   5.845   3.957 -1.1250 -0.7729  0.3258
 9552TIP3   OH228619   2.700   0.410   4.640 -0.1122 -0.0912 -0.9627
 9552TIP3    H128620   2.736   0.454   4.717 -1.2781  1.3333 -1.1708
 9552TIP3    H228621   2.772   0.410   4.577  1.3881 -2.7504  0.6014
 9553TIP3   OH228622   5.854   1.061   2.435  0.1451  0.6319  0.4172
 9553TIP3    H128623   5.865   1.134   2.374  0.4234 -0.4537 -0.8743
 9553TIP3    H228624   5.761   1.062   2.458 -0.6094 -0.6015 -2.2571
 9554TIP3   OH228625   1.396   1.699   5.672  0.9997  0.0521  0.3312
 9554TIP3    H128626   1.420   1.722   5.583 -2.4406  3.6738  0.0862
 9554TIP3    H228627   1.321   1.640   5.662  1.1349 -0.2239  0.8817
 9555TIP3   OH228628   3.761   4.093   3.704  0.2156  0.3663  0.0382
 9555TIP3    H128629   3.825   4.153   3.741  0.9227 -1.3135  1.7134
 9555TIP3    H228630   3.812   4.015   3.680 -1.2465 -1.4819  2.4914
 9556TIP3   OH228631   1.800   3.279   5.571 -0.0616  0.1935 -0.5862
 9556TIP3    H128632   1.723   3.299   5.624  1.9879  0.1970  2.6792
 9556TIP3    H228633   1.782   3.192   5.534 -0.3833 -1.3454  2.8702
 9557TIP3   OH228634   4.046   1.568   3.438 -0.5194  0.3455 -0.2114
 9557TIP3    H128635   4.006   1.482   3.427 -0.1959 -0.1437  2.0129
 9557TIP3    H228636   3.982   1.619   3.488  0.0818  0.7499  0.1696
 9558TIP3   OH228637   2.105   4.942   5.107 -0.0870  0.5966 -0.2385
 9558TIP3    H128638   2.104   4.875   5.175  0.7276  0.0189 -0.7793
 9558TIP3    H228639   2.085   5.024   5.153  0.1446  0.1650  0.6384
 9559TIP3   OH228640   2.005   2.233   1.494 -0.3575  0.0869  0.1162
 9559TIP3    H128641   1.967   2.289   1.562 -0.7488 -1.0973  0.8936
 9559TIP3    H228642   1.930   2.202   1.444 -0.1759 -0.0773 -0.0537
 9560TIP3   OH228643   5.035   2.188   1.125  0.5806  0.4459 -0.4221
 9560TIP3    H128644   4.981   2.249   1.075 -0.8704 -0.2416  0.2465
 9560TIP3    H228645   5.040   2.110   1.069 -2.4170 -0.9574  1.0340
 9561TIP3   OH228646   0.242   5.195   1.627 -0.0407 -0.0113 -0.0279
 9561TIP3    H128647   0.313   5.239   1.579  0.6951 -1.2415 -0.1195
 9561TIP3    H228648   0.274   5.106   1.639  0.0214  0.3538  3.2261
 9562TIP3   OH228649   0.198   4.928   1.690  0.3155 -0.0375  0.6898
 9562TIP3    H128650   0.123   4.920   1.631 -0.2112 -0.7310  1.4312
 9562TIP3    H228651   0.236   4.840   1.693  2.5790  0.7484 -1.4483
 9563TIP3   OH228652   1.421   5.534   2.624  0.2016 -0.0660 -0.2913
 9563TIP3    H128653   1.376   5.599   2.678  0.6134  0.0139 -0.0380
 9563TIP3    H228654   1.353   5.500   2.565  0.2285  1.4949 -1.2981
 9564TIP3   OH228655   1.730   4.329   2.393 -0.5940 -0.0790 -0.6327
 9564TIP3    H128656   1.734   4.242   2.355 -1.0374 -0.4010  0.0344
 9564TIP3    H228657   1.795   4.327   2.464  0.1615  0.4829 -1.2999
 9565TIP3   OH228658   5.576   4.677   4.070 -0.0809  0.1123 -0.0980
 9565TIP3    H128659   5.614   4.629   3.997  0.2747 -1.0340  0.8098
 9565TIP3    H228660   5.488   4.640   4.079  0.2159 -0.4338  0.6449
 9566TIP3   OH228661   1.480   5.263   4.354 -0.1674 -0.3912  0.2207
 9566TIP3    H128662   1.477   5.191   4.292 -2.9178 -0.7212  0.6237
 9566TIP3    H228663   1.525   5.334   4.306  0.0749 -1.4483 -1.1744
 9567TIP3   OH228664   5.074   3.226   5.603  0.1973 -0.3002  0.7140
 9567TIP3    H128665   5.001   3.246   5.662  0.9035  0.2975  1.4087
 9567TIP3    H228666   5.134   3.174   5.657 -0.8415 -3.0184 -0.5665
 9568TIP3   OH228667   3.853   4.625   5.296  0.4282  0.3590 -0.1202
 9568TIP3    H128668   3.831   4.674   5.375  0.9816  0.2924  0.0839
 9568TIP3    H228669   3.946   4.606   5.305 -0.0595 -2.0215  0.5276
 9569TIP3   OH228670   1.112   4.747   3.929  0.1280  0.3116 -0.3312
 9569TIP3    H128671   1.112   4.710   4.017  0.8243  1.4463  0.1669
 9569TIP3    H228672   1.087   4.674   3.872 -1.8774 -0.0714  0.9489
 9570TIP3   OH228673   4.551   6.472   0.690 -0.3531  0.3604 -0.5516
 9570TIP3    H128674   4.589   6.559   0.691 -1.0125  0.6870  1.4628
 9570TIP3    H228675   4.457   6.486   0.693 -0.4531 -0.3486  1.1644
 9571TIP3   OH228676   6.174   2.824   3.342  0.8616  0.1851 -0.1986
 9571TIP3    H128677   6.201   2.905   3.384  1.4121  0.2070 -0.5905
 9571TIP3    H228678   6.245   2.802   3.283  1.0270 -0.9406  0.3834
 9572TIP3   OH228679   3.519   1.481   4.907 -0.6007 -0.1702  0.2992
 9572TIP3    H128680   3.575   1.555   4.883  1.2700 -1.5664  0.1335
 9572TIP3    H228681   3.554   1.407   4.857 -3.5760 -0.8522 -1.0056
 9573TIP3   OH228682   2.390   5.886   5.748  0.8050  0.2703 -0.1751
 9573TIP3    H128683   2.302   5.907   5.717  0.9843 -0.0042 -0.8752
 9573TIP3    H228684   2.379   5.871   5.842 -0.0956 -0.8419 -0.4434
 9574TIP3   OH228685   1.786   6.191   4.917  0.5251 -0.2527 -0.3226
 9574TIP3    H128686   1.811   6.243   4.841  2.7575  1.4125  1.4237
 9574TIP3    H228687   1.869   6.165   4.957 -0.5624 -2.4371  0.7042
 9575TIP3   OH228688   1.760   0.354   0.586 -0.9505  0.2038 -0.2490
 9575TIP3    H128689   1.819   0.381   0.657 -0.4784 -0.1228 -0.5076
 9575TIP3    H228690   1.673   0.379   0.616 -0.7886 -0.1497  0.5601
 9576TIP3   OH228691   2.082   0.205   0.816  0.5670  0.4276  0.1809
 9576TIP3    H128692   2.142   0.269   0.854  1.4980 -0.8071  0.8855
 9576TIP3    H228693   2.134   0.160   0.749 -0.6326  1.6156 -1.6206
 9577TIP3   OH228694   2.486   1.483   5.699 -0.1316  0.4833  0.5571
 9577TIP3    H128695   2.411   1.540   5.718 -0.6816  0.1010 -0.4178
 9577TIP3    H228696   2.554   1.543   5.667 -1.0260  0.5200 -1.3756
 9578TIP3   OH228697   7.001   3.644   5.363  0.5819  0.6853 -0.6364
 9578TIP3    H128698   6.984   3.719   5.420  3.3927  2.6516 -2.1346
 9578TIP3    H228699   6.914   3.611   5.340 -0.7670  3.2308  0.4383
 9579TIP3   OH228700   5.396   4.642  -0.009 -0.0960 -0.2647  0.0768
 9579TIP3    H128701   5.387   4.551   0.019 -0.7704 -0.2082  0.0818
 9579TIP3    H228702   5.342   4.691   0.054  0.7359  0.2121  0.4375
 9580TIP3   OH228703   2.387   6.537   5.226 -0.1859 -0.5373  0.1161
 9580TIP3    H128704   2.483   6.531   5.222 -0.2203 -1.0573  0.1127
 9580TIP3    H228705   2.363   6.484   5.302 -0.4721 -0.3930  0.1255
 9581TIP3   OH228706   1.762   0.454   4.613 -0.8092 -0.3054 -0.0124
 9581TIP3    H128707   1.807   0.524   4.567 -0.3100 -0.4725  0.2181
 9581TIP3    H228708   1.806   0.374   4.586 -0.6947 -0.4329  0.5264
 9582TIP3   OH228709   3.761   3.029   4.153  0.1153 -0.0858 -0.2677
 9582TIP3    H128710   3.706   2.966   4.106  0.7345 -1.0926  0.3160
 9582TIP3    H228711   3.753   3.004   4.245  1.1063  0.0973 -0.1226
 9583TIP3   OH228712   2.918   4.629   1.851  0.0359  0.1333  0.5662
 9583TIP3    H128713   2.897   4.629   1.758 -0.6732  0.8742  0.7091
 9583TIP3    H228714   2.909   4.538   1.878  1.9564 -0.4044 -0.4248
 9584TIP3   OH228715   4.879   4.165   2.353 -0.4384 -0.1051  0.2142
 9584TIP3    H128716   4.894   4.071   2.361  0.0591  0.0198  0.7815
 9584TIP3    H228717   4.794   4.180   2.394 -1.7794 -0.6826 -2.2088
 9585TIP3   OH228718   4.379   3.195   4.961 -0.0312  0.6865  0.0682
 9585TIP3    H128719   4.456   3.250   4.956  0.2399  0.1965 -1.4636
 9585TIP3    H228720   4.413   3.105   4.959 -0.6220  0.4645 -0.2246
 9586TIP3   OH228721   6.252   5.945   3.170 -0.2786 -0.3371 -0.4370
 9586TIP3    H128722   6.212   5.976   3.251 -0.0041 -0.0859 -0.3927
 9586TIP3    H228723   6.303   5.868   3.195  0.3516  0.1363 -0.2419
 9587TIP3   OH228724   2.216   0.596   2.363 -0.4668  0.0780  0.3047
 9587TIP3    H128725   2.269   0.597   2.284 -0.2056 -1.6385  0.4392
 9587TIP3    H228726   2.252   0.667   2.416 -0.2170  0.8197 -0.8167
 9588TIP3   OH228727   6.059   5.855   4.683  0.0809  0.0216  0.2308
 9588TIP3    H128728   6.088   5.919   4.618  1.8952 -0.6818  0.2877
 9588TIP3    H228729   6.006   5.906   4.744  1.1954  1.4293  0.0793
 9589TIP3   OH228730   0.766   4.695   1.948 -0.1280  0.8139  0.1767
 9589TIP3    H128731   0.748   4.616   1.896 -0.2340  1.8984 -1.5135
 9589TIP3    H228732   0.853   4.681   1.985  1.2299  1.1640 -2.6679
 9590TIP3   OH228733   1.754   3.845   2.163  0.1480  0.2710 -0.2443
 9590TIP3    H128734   1.765   3.761   2.206 -1.8223  0.2809  0.3807
 9590TIP3    H228735   1.813   3.842   2.088  1.8675 -0.6988  1.0853
 9591TIP3   OH228736   2.878   1.390   2.602  0.0787  0.1075 -0.4003
 9591TIP3    H128737   2.903   1.479   2.575  3.0293 -0.3559  0.4168
 9591TIP3    H228738   2.798   1.402   2.652 -0.1329  2.1884 -1.1544
 9592TIP3   OH228739   0.858   4.548   2.249 -0.3293 -0.3609 -0.2147
 9592TIP3    H128740   0.872   4.462   2.288 -0.5703  0.5141  1.9223
 9592TIP3    H228741   0.883   4.537   2.157 -2.5954 -3.3263 -0.6603
 9593TIP3   OH228742   0.233   1.439   2.418 -0.1964 -0.0357 -0.0465
 9593TIP3    H128743   0.314   1.475   2.454 -0.9252  0.9745  0.6599
 9593TIP3    H228744   0.190   1.514   2.376 -0.4860 -0.6884 -0.9498
 9594TIP3   OH228745   5.448   5.353   5.652 -0.3669  0.1281  0.3362
 9594TIP3    H128746   5.527   5.322   5.609  0.1593  0.9538  0.6836
 9594TIP3    H228747   5.464   5.446   5.669 -1.6544  0.4562 -0.1243
 9595TIP3   OH228748   3.089   4.363   1.962  0.5107 -0.1912  0.2522
 9595TIP3    H128749   3.033   4.421   2.013 -0.4996 -0.6812 -0.2598
 9595TIP3    H228750   3.029   4.297   1.928  1.1327  0.1127 -1.5516
 9596TIP3   OH228751   4.126   0.199   3.406 -0.0883 -0.4850 -0.1958
 9596TIP3    H128752   4.098   0.184   3.497 -0.0740 -2.0483 -0.4168
 9596TIP3    H228753   4.215   0.234   3.413 -0.0790 -0.6199  0.3882
 9597TIP3   OH228754   3.694   4.608   5.060  0.0216  0.2991 -0.3730
 9597TIP3    H128755   3.710   4.612   5.155  0.8121 -0.9305 -0.4246
 9597TIP3    H228756   3.767   4.658   5.022  1.0503 -1.1739 -0.4058
 9598TIP3   OH228757   0.428   1.638   1.314 -0.3658  0.8936 -0.1799
 9598TIP3    H128758   0.396   1.643   1.405 -1.8467  0.3779 -0.6473
 9598TIP3    H228759   0.441   1.545   1.299 -0.4499  0.9506 -0.6038
 9599TIP3   OH228760   4.896   3.454   1.732  0.3986  0.1462  0.4673
 9599TIP3    H128761   4.814   3.469   1.686  0.7900 -0.0977 -0.3312
 9599TIP3    H228762   4.912   3.536   1.780 -0.1567  0.2966  0.3998
 9600TIP3   OH228763   0.152   5.513   2.395  0.4522 -0.4078 -0.2941
 9600TIP3    H128764   0.180   5.502   2.304 -1.2268 -1.5167 -0.7240
 9600TIP3    H228765   0.058   5.530   2.389  0.0661 -1.8028  1.2756
 9601TIP3   OH228766   3.758   5.052   3.343 -0.0555  0.6152  0.4283
 9601TIP3    H128767   3.822   5.012   3.401 -1.0694  0.6402  1.6016
 9601TIP3    H228768   3.690   5.085   3.401 -0.7825  1.2381 -0.7345
 9602TIP3   OH228769   5.674   3.796   2.407 -0.4510 -0.0034 -0.2210
 9602TIP3    H128770   5.594   3.848   2.407 -0.4968 -0.0417 -1.3102
 9602TIP3    H228771   5.660   3.730   2.474 -1.2189  0.1699 -0.2005
 9603TIP3   OH228772   4.799   4.802   3.259 -0.1318  0.0568 -0.1518
 9603TIP3    H128773   4.770   4.891   3.275 -0.9644 -0.1147 -0.5935
 9603TIP3    H228774   4.875   4.790   3.316  0.6921  1.4079 -0.9262
 9604TIP3   OH228775   3.384   0.048   0.769  0.2008 -0.1173 -0.3474
 9604TIP3    H128776   3.368  -0.043   0.797  1.4602 -0.6890 -1.3949
 9604TIP3    H228777   3.343   0.101   0.837  0.1073 -1.4638  0.6973
 9605TIP3   OH228778   5.552   0.583   0.656  0.2333 -0.1482  0.5682
 9605TIP3    H128779   5.618   0.545   0.713 -1.3083  0.9353  3.2564
 9605TIP3    H228780   5.479   0.522   0.659 -0.2863  0.4665  0.6734
 9606TIP3   OH228781   6.304   5.437   5.803  0.2962  0.2888  0.1935
 9606TIP3    H128782   6.224   5.402   5.763 -1.4338  2.4595  1.5537
 9606TIP3    H228783   6.337   5.365   5.857 -1.5693 -0.2347  0.7214
 9607TIP3   OH228784   5.099   6.227   5.238 -0.0098 -0.0355  0.0701
 9607TIP3    H128785   5.134   6.175   5.310  0.2645 -0.3686 -0.2972
 9607TIP3    H228786   5.173   6.240   5.180 -0.2437  0.1789 -0.1812
 9608TIP3   OH228787   2.930   5.066   0.848  0.1219  0.0305 -0.0136
 9608TIP3    H128788   2.921   4.971   0.854  1.4960 -0.1905 -0.9230
 9608TIP3    H228789   2.992   5.090   0.916 -1.4651  0.5317  1.3156
 9609TIP3   OH228790   5.474   1.215   2.209 -0.5374 -0.9484 -0.9127
 9609TIP3    H128791   5.386   1.223   2.171 -1.0513 -1.9024  0.0233
 9609TIP3    H228792   5.520   1.155   2.151 -0.0980  0.4257 -2.0518
 9610TIP3   OH228793   5.638   2.706   0.285 -0.0360 -0.5904 -0.3229
 9610TIP3    H128794   5.574   2.646   0.249 -0.5234 -1.1630  1.3905
 9610TIP3    H228795   5.683   2.655   0.353  1.3055  0.2145 -0.5586
 9611TIP3   OH228796   4.206   6.364   1.618  0.4007 -0.2513 -0.2398
 9611TIP3    H128797   4.166   6.419   1.550  0.2641 -1.3401 -1.0579
 9611TIP3    H228798   4.219   6.424   1.691 -0.1257  0.7837 -0.9573
 9612TIP3   OH228799   2.391   4.773   5.645  0.0430  0.3768  0.3135
 9612TIP3    H128800   2.447   4.699   5.672 -0.4465 -0.6821 -1.4032
 9612TIP3    H228801   2.438   4.813   5.572 -0.6438  0.5302 -0.0491
 9613TIP3   OH228802   4.685   0.464   2.932 -0.3206  0.0637 -0.4056
 9613TIP3    H128803   4.747   0.396   2.958 -0.4071  0.3322  0.5357
 9613TIP3    H228804   4.647   0.495   3.014  0.1618  1.6787 -0.7466
 9614TIP3   OH228805   4.583   4.382   0.958  0.1059  0.4343  0.1753
 9614TIP3    H128806   4.564   4.350   0.870 -1.3822  1.6579  0.0195
 9614TIP3    H228807   4.604   4.302   1.008  0.7126 -0.2970 -1.1964
 9615TIP3   OH228808   3.339   6.174   2.246 -0.4694 -0.9071 -0.6118
 9615TIP3    H128809   3.327   6.268   2.239 -1.5606 -1.0332 -0.6592
 9615TIP3    H228810   3.433   6.161   2.239 -0.2793  0.2020 -0.2614
 9616TIP3   OH228811   5.680   0.418   0.261 -0.4401  0.1578  0.4800
 9616TIP3    H128812   5.707   0.485   0.199  0.7089 -0.0948  0.6783
 9616TIP3    H228813   5.701   0.454   0.347  2.0062 -1.1618  0.5208
 9617TIP3   OH228814   2.070   4.154   1.944  0.0623  0.2267  0.2550
 9617TIP3    H128815   2.142   4.137   2.004  1.2693  1.2185 -0.8413
 9617TIP3    H228816   2.111   4.197   1.869 -1.4557 -0.5208 -1.0646
 9618TIP3   OH228817   4.596   5.290   5.344 -0.1565  0.1073 -0.0458
 9618TIP3    H128818   4.512   5.244   5.350 -0.3406  0.2769 -1.0984
 9618TIP3    H228819   4.572   5.379   5.318  0.2713  0.5027  0.8970
 9619TIP3   OH228820   2.405   6.665   2.149  0.4201 -0.3715 -0.5556
 9619TIP3    H128821   2.459   6.633   2.221 -1.0528  1.6198  1.5844
 9619TIP3    H228822   2.390   6.588   2.094  0.7591 -2.2776  1.8314
 9620TIP3   OH228823   7.103   0.672   3.226 -0.3370 -0.7438 -0.5241
 9620TIP3    H128824   7.107   0.767   3.223  0.3021 -0.7515 -0.1469
 9620TIP3    H228825   7.024   0.649   3.177 -1.7162  0.0914  1.1790
 9621TIP3   OH228826   1.342   1.030   2.311 -0.2898  0.0433  0.1903
 9621TIP3    H128827   1.347   0.980   2.392 -0.3265 -0.9656 -0.4130
 9621TIP3    H228828   1.432   1.029   2.277 -0.6120 -1.1073 -0.6856
 9622TIP3   OH228829   0.801   6.276   3.705  0.0098  0.8774 -0.0871
 9622TIP3    H128830   0.867   6.327   3.660 -0.0980  0.5195 -0.6637
 9622TIP3    H228831   0.850   6.215   3.760  0.2589 -0.9338 -2.1896
 9623TIP3   OH228832   4.675   5.822   4.025  0.1337 -0.0949 -0.7287
 9623TIP3    H128833   4.680   5.847   3.933 -0.7899  0.2920 -0.6816
 9623TIP3    H228834   4.747   5.759   4.037  1.2006  0.9639 -1.3412
 9624TIP3   OH228835   0.005   4.757   2.789  0.6808  0.2902  0.2278
 9624TIP3    H128836  -0.007   4.789   2.700  1.3588  0.0606  0.0481
 9624TIP3    H228837   0.039   4.668   2.778  0.4379  0.1366  0.7140
 9625TIP3   OH228838   1.319   4.846   2.289 -0.6104 -0.0794 -0.3953
 9625TIP3    H128839   1.295   4.796   2.366  2.2740  0.3079  0.8736
 9625TIP3    H228840   1.327   4.781   2.219 -1.0475 -0.7586  0.1734
 9626TIP3   OH228841   6.048   3.108   0.367 -0.5832 -0.5492 -0.0522
 9626TIP3    H128842   6.102   3.168   0.419  0.0959 -0.8324 -0.4174
 9626TIP3    H228843   5.984   3.073   0.429 -2.4138  2.1348 -0.2274
 9627TIP3   OH228844   0.291   2.384   0.055 -0.4509 -0.1457  0.0421
 9627TIP3    H128845   0.307   2.352   0.144 -1.5886 -0.9022 -0.0151
 9627TIP3    H228846   0.211   2.436   0.062  0.6031  1.6037 -0.1454
 9628TIP3   OH228847   1.091   3.500   2.382 -0.9100  0.1143 -0.2198
 9628TIP3    H128848   1.137   3.578   2.351  0.6067 -1.0378 -0.9937
 9628TIP3    H228849   1.076   3.449   2.302 -1.9969 -0.3430  0.2653
 9629TIP3   OH228850   2.537   3.405   5.238  0.9499 -0.0733  0.0347
 9629TIP3    H128851   2.460   3.355   5.210  0.8568  1.0314 -1.8063
 9629TIP3    H228852   2.502   3.469   5.301  0.6469 -0.6063  0.4163
 9630TIP3   OH228853   4.214   4.676   3.455  0.4038  0.0344 -0.3271
 9630TIP3    H128854   4.303   4.684   3.489  0.3326  0.2072 -0.1852
 9630TIP3    H228855   4.166   4.630   3.525  0.1612  0.7361 -0.0269
 9631TIP3   OH228856   5.152   6.013   1.514 -0.2405  0.5004 -0.0351
 9631TIP3    H128857   5.079   6.070   1.536  0.2677  1.1584 -0.0497
 9631TIP3    H228858   5.117   5.924   1.523 -1.0128  0.8129  0.0378
 9632TIP3   OH228859   0.873   0.093   2.029 -0.0399  0.1883 -0.4682
 9632TIP3    H128860   0.849   0.132   2.112 -0.8219  0.1298 -0.6590
 9632TIP3    H228861   0.791   0.087   1.980  0.4459  0.4505 -1.3398
 9633TIP3   OH228862   5.865   4.634   4.092 -0.2307  0.7765  0.2739
 9633TIP3    H128863   5.930   4.605   4.029  0.8354  1.0728  1.2093
 9633TIP3    H228864   5.868   4.568   4.162 -3.6304 -1.3729 -1.3084
 9634TIP3   OH228865   4.917   4.260   3.110  0.1080 -0.0374  0.2812
 9634TIP3    H128866   4.836   4.294   3.073 -0.5714  0.7299  2.3159
 9634TIP3    H228867   4.972   4.337   3.121  0.2087 -0.2065  1.0136
 9635TIP3   OH228868   7.218   2.736   2.634  0.1388  0.2053  0.5386
 9635TIP3    H128869   7.144   2.797   2.639 -0.0812 -0.1382  1.5612
 9635TIP3    H228870   7.177   2.650   2.629  0.4689 -0.0263  1.7015
 9636TIP3   OH228871   0.753   5.512   0.511 -0.3714  0.3657 -0.8479
 9636TIP3    H128872   0.687   5.512   0.581  0.9177  0.6797  0.4189
 9636TIP3    H228873   0.785   5.602   0.507 -0.8005  0.4782 -2.2455
 9637TIP3   OH228874   6.178   5.787   1.432  0.4817  0.2901 -0.1402
 9637TIP3    H128875   6.092   5.745   1.428 -0.0379  1.1799  1.0291
 9637TIP3    H228876   6.194   5.800   1.525  2.6460 -1.3267 -0.2073
 9638TIP3   OH228877   4.823   4.016   1.246  0.2665 -0.5465  0.6905
 9638TIP3    H128878   4.814   4.110   1.262  1.7021 -0.2543 -0.0370
 9638TIP3    H228879   4.902   4.009   1.193  0.4359 -2.2170  1.1275
 9639TIP3   OH228880   5.252   4.529   1.840 -0.5123 -0.6399  0.1154
 9639TIP3    H128881   5.272   4.436   1.839 -0.3984 -0.6768  1.8453
 9639TIP3    H228882   5.334   4.572   1.816 -0.5560 -0.9649 -0.6503
 9640TIP3   OH228883   3.978   1.200   4.360 -0.6784 -0.0790 -0.0194
 9640TIP3    H128884   4.023   1.226   4.279 -0.2503 -0.5203  0.0689
 9640TIP3    H228885   3.886   1.218   4.343 -0.6423 -0.5196 -0.7562
 9641TIP3   OH228886   6.888   0.483   0.722 -0.5294 -0.2799  0.0038
 9641TIP3    H128887   6.881   0.494   0.817 -1.1501  0.4186 -0.1107
 9641TIP3    H228888   6.960   0.421   0.710 -0.0394  0.0983  0.9008
 9642TIP3   OH228889   6.734   1.612   5.155 -0.5034  1.2805  0.4815
 9642TIP3    H128890   6.816   1.618   5.106 -0.0927  1.1410  1.1281
 9642TIP3    H228891   6.690   1.695   5.139 -1.3371  0.4841 -1.7451
 9643TIP3   OH228892   4.329   3.120   3.087  0.1392 -0.3413  0.6499
 9643TIP3    H128893   4.415   3.087   3.062 -0.4216 -0.4106 -1.3421
 9643TIP3    H228894   4.294   3.054   3.147  2.5745  1.0780  3.9101
 9644TIP3   OH228895   5.909   2.312   0.124 -0.1611 -0.4060 -0.0485
 9644TIP3    H128896   5.911   2.223   0.159  1.3990  0.3124  1.8451
 9644TIP3    H228897   6.001   2.333   0.105 -0.7308 -0.0499 -2.9454
 9645TIP3   OH228898   4.025   1.985   3.652  0.1697 -0.0832  0.0672
 9645TIP3    H128899   4.017   2.069   3.606  1.0005 -0.7266 -1.3280
 9645TIP3    H228900   4.119   1.966   3.650 -0.1215 -1.5198 -0.5319
 9646TIP3   OH228901   2.133   5.925   1.322  0.0525 -0.4632  0.1886
 9646TIP3    H128902   2.192   5.992   1.357  0.8573  0.8023 -3.1931
 9646TIP3    H228903   2.165   5.843   1.360  0.8359  0.7128  2.2395
 9647TIP3   OH228904   0.664   1.183   4.193  0.1666 -0.1421  0.1119
 9647TIP3    H128905   0.639   1.106   4.244 -0.5105  0.1255  0.2035
 9647TIP3    H228906   0.743   1.157   4.146  0.1593 -0.7635  0.4351
 9648TIP3   OH228907   6.053   4.418   0.892 -0.1309 -0.0365 -0.3268
 9648TIP3    H128908   5.977   4.439   0.839  0.4286  1.5047 -0.5632
 9648TIP3    H228909   6.085   4.335   0.857 -0.9237 -0.0272 -1.0930
 9649TIP3   OH228910   5.909   3.983   0.884  0.4080 -0.0530  0.6291
 9649TIP3    H128911   5.872   3.949   0.966  1.8056 -0.1618  1.2402
 9649TIP3    H228912   5.834   3.985   0.824 -0.4172 -1.0518  1.5607
 9650TIP3   OH228913   5.193   3.565   1.443 -0.0443 -0.3894 -0.2004
 9650TIP3    H128914   5.165   3.610   1.363  0.0416  1.3472  0.6991
 9650TIP3    H228915   5.114   3.558   1.495  0.4168  1.1675  0.7753
 9651TIP3   OH228916   0.941   0.718   4.016 -0.1047  0.1778 -0.3785
 9651TIP3    H128917   0.868   0.714   3.954 -0.4788  2.2489 -0.1537
 9651TIP3    H228918   1.010   0.764   3.968  0.5468 -0.5073 -0.1107
 9652TIP3   OH228919   0.810   4.091   1.018  0.2534 -0.2507  0.1938
 9652TIP3    H128920   0.824   4.038   1.096 -0.8757  0.1304  0.6763
 9652TIP3    H228921   0.721   4.070   0.990 -0.8446  2.4523  1.2934
 9653TIP3   OH228922   0.034   4.556   1.072 -0.5805 -0.2727 -0.1277
 9653TIP3    H128923   0.107   4.530   1.015  0.1808 -1.3135  1.2499
 9653TIP3    H228924  -0.041   4.562   1.014  0.8211  2.2319 -1.8736
 9654TIP3   OH228925   2.246   3.172   3.110  0.0463  0.1183  0.2818
 9654TIP3    H128926   2.239   3.253   3.060 -0.1179  0.0213  0.1488
 9654TIP3    H228927   2.222   3.196   3.199  1.8646  0.6505  0.6780
 9655TIP3   OH228928   4.467   2.676   0.357 -0.0897 -0.0879  0.4757
 9655TIP3    H128929   4.372   2.669   0.369 -0.3414 -0.0682 -1.2731
 9655TIP3    H228930   4.487   2.612   0.289  1.5498 -1.7697  2.4022
 9656TIP3   OH228931   6.508   2.377   1.561 -0.2727  0.0350  0.2972
 9656TIP3    H128932   6.526   2.296   1.514 -1.7310 -0.5934  0.7816
 9656TIP3    H228933   6.415   2.373   1.581  0.1209  0.6743  2.4976
 9657TIP3   OH228934   6.916   4.802   5.224 -0.2039 -0.2643 -0.6192
 9657TIP3    H128935   6.825   4.799   5.251  0.4882 -1.0536  1.9417
 9657TIP3    H228936   6.951   4.715   5.245  1.2237  0.1581 -1.0870
 9658TIP3   OH228937   4.332   2.838   0.535 -0.1038  0.0852  0.2774
 9658TIP3    H128938   4.335   2.787   0.616 -0.0147  0.4684  0.5198
 9658TIP3    H228939   4.394   2.795   0.477 -0.4637 -0.4346  0.2662
 9659TIP3   OH228940   1.164   5.270   5.628  0.1073  0.2976 -0.7230
 9659TIP3    H128941   1.226   5.295   5.697  0.5042 -0.3089 -0.8615
 9659TIP3    H228942   1.119   5.193   5.663 -2.0950  1.9032  0.3004
 9660TIP3   OH228943   1.654   4.318   5.323  0.0580  0.1048  0.2913
 9660TIP3    H128944   1.577   4.306   5.267  0.6454 -1.7480 -0.2154
 9660TIP3    H228945   1.627   4.283   5.408  0.3825 -0.7829  0.0445
 9661TIP3   OH228946   6.265   4.592   4.080  0.2416 -1.0217  0.2138
 9661TIP3    H128947   6.290   4.616   4.169 -0.0088  0.5896 -0.1068
 9661TIP3    H228948   6.211   4.665   4.050 -0.0357 -1.7362 -1.1129
 9662TIP3   OH228949   3.154   5.197   0.968  0.3166 -0.6955  0.2072
 9662TIP3    H128950   3.155   5.246   0.885 -0.5430  0.0787  0.6295
 9662TIP3    H228951   3.238   5.153   0.971  0.4179 -0.6247 -1.0203
 9663TIP3   OH228952   0.038   6.384   0.778 -0.4633  0.1842  0.0749
 9663TIP3    H128953   0.004   6.385   0.688 -0.6664  0.0627  0.1506
 9663TIP3    H228954   0.118   6.437   0.773 -0.9398  0.9114  0.0153
 9664TIP3   OH228955   6.184   5.261   3.700 -0.1032  0.1712  0.2309
 9664TIP3    H128956   6.123   5.274   3.627  0.1037 -1.5260 -0.2977
 9664TIP3    H228957   6.208   5.349   3.728 -1.7729  0.8789 -0.4080
 9665TIP3   OH228958   7.185   5.745   0.638 -0.1135 -0.3112 -0.1210
 9665TIP3    H128959   7.120   5.675   0.641 -0.4515  0.0281  0.7473
 9665TIP3    H228960   7.184   5.775   0.546 -0.3923 -1.0349 -0.3594
 9666TIP3   OH228961   1.455   6.606   1.767  0.2250  0.3368  0.0071
 9666TIP3    H128962   1.367   6.637   1.747 -0.1773 -1.4149 -1.2132
 9666TIP3    H228963   1.494   6.588   1.681  0.9858 -0.9728  0.5974
 9667TIP3   OH228964   4.123   2.009   4.218 -0.2899  0.2933 -0.3265
 9667TIP3    H128965   4.167   2.090   4.245 -0.0296  0.0941 -0.1434
 9667TIP3    H228966   4.127   1.953   4.296  0.3539 -0.2396 -0.7316
 9668TIP3   OH228967   1.270   2.436   5.360  0.3654 -0.2465 -0.0487
 9668TIP3    H128968   1.194   2.400   5.315  1.2596 -0.2322 -1.6533
 9668TIP3    H228969   1.278   2.382   5.439 -0.2964 -1.3892 -0.7208
 9669TIP3   OH228970   1.545   1.799   1.445 -0.4132 -0.3251 -0.3400
 9669TIP3    H128971   1.506   1.866   1.388  1.2213  1.6071  0.6717
 9669TIP3    H228972   1.620   1.843   1.485 -0.1409 -2.3376  1.5275
 9670TIP3   OH228973   6.208   1.357   5.571 -0.3968  0.0214 -0.2004
 9670TIP3    H128974   6.203   1.348   5.666  1.2444 -0.0091 -0.0810
 9670TIP3    H228975   6.119   1.379   5.544 -0.8375  0.2893  1.3683
 9671TIP3   OH228976   2.561   1.709   0.680  0.3963  0.3775 -1.0132
 9671TIP3    H128977   2.594   1.772   0.744  0.7715 -0.2658 -0.5657
 9671TIP3    H228978   2.636   1.691   0.624 -0.2753  1.9615 -2.5033
 9672TIP3   OH228979   3.694   5.646   3.834  0.4273 -0.3383 -0.2018
 9672TIP3    H128980   3.780   5.606   3.850  0.4944 -0.4423 -0.7956
 9672TIP3    H228981   3.673   5.622   3.744 -0.5533 -0.9199  0.1689
 9673TIP3   OH228982   5.837   1.878   3.338  0.3488  0.0071 -0.5746
 9673TIP3    H128983   5.881   1.850   3.259  0.4533  1.6161 -1.1177
 9673TIP3    H228984   5.900   1.935   3.382 -0.5445  0.9582 -0.4999
 9674TIP3   OH228985   6.338   6.355   5.080  0.4724 -0.1302  0.2123
 9674TIP3    H128986   6.376   6.431   5.124  0.2925  0.3375 -0.4297
 9674TIP3    H228987   6.394   6.282   5.106  0.4148  0.1487  1.1456
 9675TIP3   OH228988   1.307   2.301   2.798 -0.1667 -0.0820 -0.1308
 9675TIP3    H128989   1.389   2.252   2.805 -0.5799 -0.6215  1.1033
 9675TIP3    H228990   1.253   2.248   2.738 -0.2951 -0.7194  0.5295
 9676TIP3   OH228991   6.715   5.853   2.582  0.2739 -0.6107  0.0391
 9676TIP3    H128992   6.764   5.785   2.628  2.0108 -0.7207 -1.8183
 9676TIP3    H228993   6.721   5.829   2.489 -2.8393 -0.2648 -0.3634
 9677TIP3   OH228994   2.951   0.102   3.977  0.5987  0.0361 -0.3276
 9677TIP3    H128995   2.882   0.151   3.932 -1.6300  0.1105  2.8058
 9677TIP3    H228996   2.925   0.011   3.969 -0.0995  0.0784  1.0489
 9678TIP3   OH228997   5.622   5.476   2.787  0.1900 -0.0068 -0.0819
 9678TIP3    H128998   5.595   5.389   2.816  0.8594 -0.1342  0.1812
 9678TIP3    H228999   5.570   5.537   2.839  1.3137 -0.2264  1.3677
 9679TIP3   OH229000   0.054   6.322   0.294 -0.3562 -0.1534 -0.3763
 9679TIP3    H129001   0.040   6.310   0.200 -1.8561 -1.1522 -0.0480
 9679TIP3    H229002   0.148   6.339   0.302  0.6800 -4.1853 -1.7096
 9680TIP3   OH229003   0.288   5.242   4.443 -0.3782 -0.3526  0.0030
 9680TIP3    H129004   0.247   5.321   4.478 -0.5315  0.4907 -1.9632
 9680TIP3    H229005   0.342   5.273   4.370 -0.8936 -2.0895 -1.1891
 9681TIP3   OH229006   4.703   3.768   1.073 -0.0411 -0.3344  0.1664
 9681TIP3    H129007   4.612   3.795   1.066  0.4318  0.7744 -2.8910
 9681TIP3    H229008   4.741   3.829   1.137 -1.0183  0.4003  0.0730
 9682TIP3   OH229009   3.859   5.619   1.748  0.1169  0.1994  0.6877
 9682TIP3    H129010   3.937   5.612   1.694  2.3771 -0.2004  3.7422
 9682TIP3    H229011   3.812   5.536   1.733  0.8355 -0.0345 -0.3724
 9683TIP3   OH229012   6.488   0.976   5.886  0.3690 -0.7147 -0.2323
 9683TIP3    H129013   6.421   0.934   5.832  2.8694 -1.7628 -2.8410
 9683TIP3    H229014   6.511   1.055   5.838 -0.7319  1.0685  2.0102
 9684TIP3   OH229015   2.467   5.569   2.953  0.2913  0.2686 -0.7194
 9684TIP3    H129016   2.428   5.656   2.960  1.6374  0.7580  1.9775
 9684TIP3    H229017   2.393   5.509   2.946 -0.7009  1.5087 -1.1141
 9685TIP3   OH229018   4.785   6.772   2.398 -0.0945 -0.2931  0.1293
 9685TIP3    H129019   4.784   6.730   2.312 -0.8272 -1.9420  0.8934
 9685TIP3    H229020   4.870   6.815   2.403 -1.6646  3.9759 -3.2313
 9686TIP3   OH229021   2.541   3.128   0.966  0.4089  0.3759  0.9639
 9686TIP3    H129022   2.460   3.155   0.924  0.9102  0.6326  0.1265
 9686TIP3    H229023   2.569   3.205   1.017  1.1385  1.0232 -0.3455
 9687TIP3   OH229024   5.818   6.609   2.362  0.1377  0.1530  0.1548
 9687TIP3    H129025   5.743   6.549   2.366 -0.8000  1.2715  0.0834
 9687TIP3    H229026   5.801   6.673   2.430 -0.0120  1.5645 -1.1526
 9688TIP3   OH229027   5.531   5.509   2.059  0.0786 -0.9859 -0.2102
 9688TIP3    H129028   5.474   5.441   2.023  0.6182 -0.9072 -1.2650
 9688TIP3    H229029   5.480   5.589   2.053 -0.1890 -1.1304  0.1032
 9689TIP3   OH229030   2.158   3.642   3.651  0.4518 -0.3291 -0.0206
 9689TIP3    H129031   2.194   3.658   3.563  2.6663 -0.7044  0.7558
 9689TIP3    H229032   2.142   3.547   3.653  1.3959 -0.4899  0.3083
 9690TIP3   OH229033   6.458   3.681   0.381 -0.5413  0.2456 -0.0642
 9690TIP3    H129034   6.422   3.767   0.403 -1.5532 -0.5596  1.6879
 9690TIP3    H229035   6.466   3.681   0.286  0.0975  2.4936 -0.0525
 9691TIP3   OH229036   3.038   4.492   5.552  0.1675  0.2438  0.2004
 9691TIP3    H129037   3.000   4.557   5.612 -2.9913 -1.7580  0.5942
 9691TIP3    H229038   3.021   4.528   5.465 -1.9529 -0.1213  0.3976
 9692TIP3   OH229039   4.348   5.191   5.333 -0.3836 -0.0798 -0.2562
 9692TIP3    H129040   4.264   5.206   5.290  0.4917  1.7712 -1.4723
 9692TIP3    H229041   4.384   5.114   5.289 -0.5028  0.4410 -1.2891
 9693TIP3   OH229042   0.376   0.956   5.777  0.1596 -0.3607 -0.4078
 9693TIP3    H129043   0.322   0.899   5.722 -0.4229  0.1020 -0.3332
 9693TIP3    H229044   0.458   0.909   5.788 -0.0840 -0.9012 -0.8599
 9694TIP3   OH229045   5.374   4.605   4.540 -0.0165  0.6434 -0.7156
 9694TIP3    H129046   5.338   4.693   4.552  0.4741  0.6706  0.6646
 9694TIP3    H229047   5.467   4.614   4.559 -0.4876 -0.8128  3.0621
 9695TIP3   OH229048   4.713   4.375   2.505 -0.0406  0.1687  0.4745
 9695TIP3    H129049   4.699   4.469   2.503 -0.6962  0.0730  0.2532
 9695TIP3    H229050   4.783   4.362   2.568  0.4830  0.8540  0.0487
 9696TIP3   OH229051   4.145   2.201   2.147 -0.1120  0.2479 -0.0096
 9696TIP3    H129052   4.189   2.285   2.162  1.1785 -0.5946  1.2700
 9696TIP3    H229053   4.087   2.191   2.223 -0.2191 -0.0390 -0.1311
 9697TIP3   OH229054   1.598   2.277   2.803  0.3852 -0.2322 -0.5217
 9697TIP3    H129055   1.686   2.279   2.768 -0.0667  1.6542 -1.7011
 9697TIP3    H229056   1.576   2.183   2.809  2.1051 -0.6983 -1.0607
 9698TIP3   OH229057   5.017   4.968   0.202 -0.4401  0.0641  0.2960
 9698TIP3    H129058   5.043   4.877   0.188  0.2449  0.3793 -0.5794
 9698TIP3    H229059   5.100   5.016   0.204 -0.7811  0.6247  1.0903
 9699TIP3   OH229060   4.816   3.136   4.259  0.2748 -0.0273  0.0443
 9699TIP3    H129061   4.861   3.213   4.226 -0.9616 -0.1696 -2.1803
 9699TIP3    H229062   4.883   3.068   4.260  1.0073  0.6805  0.5265
 9700TIP3   OH229063   6.694   6.693   1.206  0.1392 -0.0385 -0.1653
 9700TIP3    H129064   6.736   6.736   1.281  1.5840  2.6133 -2.2835
 9700TIP3    H229065   6.630   6.758   1.175 -1.1861 -1.5192 -0.6346
 9701TIP3   OH229066   7.217   0.579   4.781 -0.4321 -0.0526 -0.0196
 9701TIP3    H129067   7.183   0.660   4.818 -2.0098  0.0678 -1.6259
 9701TIP3    H229068   7.220   0.594   4.687  3.5181 -0.3314 -0.1331
 9702TIP3   OH229069   0.989   2.967   3.635  0.4976  0.4684 -0.3233
 9702TIP3    H129070   1.043   2.902   3.590 -0.4788 -0.2453 -0.4904
 9702TIP3    H229071   0.943   3.013   3.564 -0.9216 -0.5500 -0.0998
 9703TIP3   OH229072   7.081   4.916   1.706  0.1658 -0.5888 -0.0795
 9703TIP3    H129073   7.130   4.995   1.686  0.4854 -0.3144  1.6376
 9703TIP3    H229074   7.102   4.856   1.634  0.3895  0.6652 -1.0874
 9704TIP3   OH229075   1.083   5.337   2.933  0.2154  0.0824 -0.3633
 9704TIP3    H129076   1.089   5.287   2.851 -0.0982 -0.0249 -0.3180
 9704TIP3    H229077   1.049   5.423   2.906 -0.0716 -0.0179 -0.3168
 9705TIP3   OH229078   4.845   1.516   5.473  0.5275  0.7595 -0.2787
 9705TIP3    H129079   4.912   1.535   5.539 -0.1894 -0.9147  0.9972
 9705TIP3    H229080   4.895   1.496   5.394  1.4915  0.8211  0.2939
 9706TIP3   OH229081   1.021   3.542   0.156  0.3240 -0.0177  0.2375
 9706TIP3    H129082   1.092   3.542   0.092  1.4899 -0.9223  1.4655
 9706TIP3    H229083   1.061   3.507   0.236 -1.6345 -1.0262  0.8355
 9707TIP3   OH229084   0.265   3.589   0.856  0.3258  0.1345  0.0859
 9707TIP3    H129085   0.317   3.515   0.822  0.5668 -0.7048  2.1300
 9707TIP3    H229086   0.330   3.653   0.884  0.3162 -0.7401  2.2621
 9708TIP3   OH229087   5.003   5.807   5.322  0.5776 -0.0912 -0.2219
 9708TIP3    H129088   5.016   5.800   5.416  0.0277  1.0568 -0.0478
 9708TIP3    H229089   5.091   5.807   5.285  0.7829 -1.7200  0.1660
 9709TIP3   OH229090   6.516   1.767   5.372  0.1343  0.0717 -0.0954
 9709TIP3    H129091   6.455   1.829   5.412  0.9908  0.5547  0.4778
 9709TIP3    H229092   6.548   1.714   5.445  0.9606  0.3075 -0.2780
 9710TIP3   OH229093   5.734   5.288   5.543 -0.0736  0.3292 -0.1515
 9710TIP3    H129094   5.810   5.316   5.594  1.0031 -1.9148 -0.4066
 9710TIP3    H229095   5.770   5.252   5.463 -1.6844  2.6230 -2.0683
 9711TIP3   OH229096   4.877   4.219   3.606 -0.2721 -0.0357 -0.0183
 9711TIP3    H129097   4.844   4.305   3.579 -0.5203  0.1771  0.9496
 9711TIP3    H229098   4.947   4.200   3.543  0.3587  1.2595  0.2663
 9712TIP3   OH229099   3.932   0.455   2.421 -0.7263  0.1291 -0.0422
 9712TIP3    H129100   4.015   0.488   2.389 -1.1433  2.8731  1.3738
 9712TIP3    H229101   3.876   0.451   2.344  0.4832 -1.1401 -0.8989
 9713TIP3   OH229102   2.997   4.445   1.421  0.3622 -0.5100  0.1136
 9713TIP3    H129103   2.946   4.495   1.485  1.1014  0.2523  0.1310
 9713TIP3    H229104   2.935   4.381   1.386 -0.7535  0.6878 -0.2146
 9714TIP3   OH229105   3.154   5.385   2.086  0.5862 -0.3804 -0.2610
 9714TIP3    H129106   3.206   5.465   2.079 -1.5358  1.0512 -1.0236
 9714TIP3    H229107   3.063   5.416   2.078 -0.5027 -2.5501  2.1568
 9715TIP3   OH229108   4.024   1.006   1.971  0.3974 -0.3738  0.3021
 9715TIP3    H129109   4.077   0.998   1.892 -1.1340  1.3264 -0.9721
 9715TIP3    H229110   4.070   1.071   2.025 -0.0522  0.6566 -0.5321
 9716TIP3   OH229111   7.185   5.175   1.669  0.5825 -0.0807  1.1895
 9716TIP3    H129112   7.156   5.180   1.578  0.4215 -1.6339  1.1295
 9716TIP3    H229113   7.277   5.202   1.666  0.1997  1.2131  0.7917
 9717TIP3   OH229114   3.004   0.135   4.235  0.3397 -0.2903  0.0387
 9717TIP3    H129115   2.965   0.059   4.276 -0.6517  0.2916  0.1918
 9717TIP3    H229116   2.976   0.130   4.143  1.9294 -1.1774 -0.4517
 9718TIP3   OH229117   4.947   5.953   0.581 -0.2289  0.0656  0.4070
 9718TIP3    H129118   4.988   5.892   0.643 -0.0242 -0.5792 -0.3444
 9718TIP3    H229119   4.853   5.937   0.592 -0.1683 -0.7180 -0.0827
 9719TIP3   OH229120   6.373   6.489   4.658 -0.2885 -0.2241 -0.0173
 9719TIP3    H129121   6.457   6.531   4.679 -1.0257  0.8727  0.7922
 9719TIP3    H229122   6.324   6.490   4.740 -0.9788 -1.1740 -0.4013
 9720TIP3   OH229123   3.693   3.437   2.331  0.6200  0.0929  0.3553
 9720TIP3    H129124   3.724   3.468   2.246  0.4031 -0.1245  0.1959
 9720TIP3    H229125   3.599   3.456   2.330  0.5902 -0.0494  0.4874
 9721TIP3   OH229126   2.071   2.559   4.595 -0.0502  0.0883  0.4727
 9721TIP3    H129127   2.046   2.529   4.508 -1.9622  0.8178  0.7341
 9721TIP3    H229128   2.034   2.647   4.602  2.3862  1.1709  1.0356
 9722TIP3   OH229129   0.940   5.347   1.895  0.3160 -0.1646 -0.3090
 9722TIP3    H129130   1.017   5.388   1.857  0.1004  2.1752  1.5422
 9722TIP3    H229131   0.898   5.301   1.823  2.7682 -0.4804 -1.6156
 9723TIP3   OH229132   6.392   1.966   3.716  0.0822  0.4210  0.5767
 9723TIP3    H129133   6.455   1.938   3.782 -1.8076 -0.4977  2.0830
 9723TIP3    H229134   6.405   1.906   3.643  3.1326  2.2838 -0.6083
 9724TIP3   OH229135   5.593   6.527   5.457  0.7658  0.2274 -0.2506
 9724TIP3    H129136   5.671   6.549   5.406  1.9592 -1.2115  0.8580
 9724TIP3    H229137   5.602   6.434   5.476 -1.0089  0.1348  0.2996
 9725TIP3   OH229138   5.222   0.745   0.369  0.2084  0.2562 -0.1828
 9725TIP3    H129139   5.256   0.679   0.309 -1.4397 -1.4036  0.6164
 9725TIP3    H229140   5.183   0.811   0.312 -0.7665 -0.9642 -0.9869
 9726TIP3   OH229141   2.927   0.310   2.671 -0.0421  0.0471 -0.1674
 9726TIP3    H129142   3.002   0.362   2.700  1.0070 -2.3189  1.7326
 9726TIP3    H229143   2.966   0.237   2.623 -1.3925  0.3612 -1.8410
 9727TIP3   OH229144   7.014   0.553   5.387  0.2222  0.2574  0.3735
 9727TIP3    H129145   7.050   0.540   5.475 -0.2499 -0.9867  0.4068
 9727TIP3    H229146   6.977   0.468   5.364 -2.5157  1.3851  0.2610
 9728TIP3   OH229147   1.710   5.544   2.685  0.3630 -0.1162 -0.1676
 9728TIP3    H129148   1.682   5.570   2.773  0.2570 -0.4899 -0.0888
 9728TIP3    H229149   1.630   5.544   2.633 -0.1640 -2.8381  0.4508
 9729TIP3   OH229150   5.326   3.504   4.912  0.0540 -0.5375  0.0411
 9729TIP3    H129151   5.384   3.434   4.883 -1.5346 -0.8872 -2.6208
 9729TIP3    H229152   5.322   3.564   4.838 -1.4072  0.5164  0.9084
 9730TIP3   OH229153   5.013   3.578   5.543  0.2363 -0.2247  0.0288
 9730TIP3    H129154   5.032   3.511   5.477  0.6615 -0.7614  0.6771
 9730TIP3    H229155   4.921   3.599   5.531  0.1900 -0.6731 -0.4222
 9731TIP3   OH229156   5.894   0.851   4.499 -0.2205  0.1356  0.1296
 9731TIP3    H129157   5.986   0.830   4.515  0.4021  1.7548 -0.9934
 9731TIP3    H229158   5.878   0.930   4.552 -1.0715 -0.3319  0.5836
 9732TIP3   OH229159   3.496   0.628   0.256  0.0440  0.0339 -0.0146
 9732TIP3    H129160   3.527   0.574   0.329  2.2833  0.4281 -0.6097
 9732TIP3    H229161   3.401   0.614   0.256  0.3226 -2.5793  0.9020
 9733TIP3   OH229162   6.567   5.044   1.739  0.1760 -0.2944  0.1389
 9733TIP3    H129163   6.635   4.977   1.726  0.0443 -0.1316 -1.6248
 9733TIP3    H229164   6.615   5.125   1.752  0.3779 -0.0950 -1.5768
 9734TIP3   OH229165   3.647   0.364   2.649 -0.6879  0.2166  0.0709
 9734TIP3    H129166   3.649   0.326   2.737 -2.0673 -0.0546  0.0075
 9734TIP3    H229167   3.719   0.427   2.649  0.6495 -1.2508  0.6922
 9735TIP3   OH229168   0.883   0.439   1.854  0.2251 -0.0400  0.5174
 9735TIP3    H129169   0.932   0.412   1.932 -0.3581  0.3167  1.0147
 9735TIP3    H229170   0.791   0.428   1.878  0.0353 -1.6622 -0.7454
 9736TIP3   OH229171   4.947   5.108   1.758 -0.6734 -0.2928 -0.4086
 9736TIP3    H129172   5.025   5.120   1.705 -0.8844  2.2910 -0.2829
 9736TIP3    H229173   4.913   5.197   1.771 -2.5387 -1.1537  1.1761
 9737TIP3   OH229174   4.074   5.403   3.239  0.6708 -0.4822  0.4934
 9737TIP3    H129175   4.170   5.401   3.240  0.7706  0.3241 -1.7366
 9737TIP3    H229176   4.048   5.310   3.242  1.6033 -0.7974 -0.5589
 9738TIP3   OH229177   4.410   0.344   5.130 -0.6598  0.5174 -0.2662
 9738TIP3    H129178   4.333   0.336   5.186  0.6930  0.3050  1.6569
 9738TIP3    H229179   4.378   0.324   5.042 -2.3143 -2.0738  0.8020
 9739TIP3   OH229180   7.125   4.413   5.169  0.2612  0.7214  0.4367
 9739TIP3    H129181   7.118   4.507   5.154 -1.8065  0.8919  2.0237
 9739TIP3    H229182   7.200   4.405   5.229  0.2249  1.3882  0.5843
 9740TIP3   OH229183   7.171   2.784   5.188 -0.2966  0.1583  0.5441
 9740TIP3    H129184   7.088   2.830   5.192 -0.2302  0.7702 -2.6915
 9740TIP3    H229185   7.150   2.698   5.151  0.3808 -0.1127  0.7549
 9741TIP3   OH229186   6.993   0.306   1.871 -0.0205 -0.7969  0.2017
 9741TIP3    H129187   6.998   0.323   1.777 -1.1382 -1.2930  0.0332
 9741TIP3    H229188   6.997   0.392   1.912 -2.3191 -0.3088 -0.4609
 9742TIP3   OH229189   1.566   0.286   4.253 -0.2043 -0.1142  0.2232
 9742TIP3    H129190   1.526   0.226   4.190  2.1674 -0.7875 -0.7492
 9742TIP3    H229191   1.615   0.229   4.312  0.9585  0.7703  0.1336
 9743TIP3   OH229192   2.208   0.110   1.555 -0.4647  0.1475 -0.0650
 9743TIP3    H129193   2.190   0.170   1.627  1.0625  0.9840 -0.3460
 9743TIP3    H229194   2.156   0.033   1.575 -2.4723  1.5295  0.3163
 9744TIP3   OH229195   4.543   4.470   1.224 -0.0631  0.8089 -0.2445
 9744TIP3    H129196   4.631   4.453   1.259 -0.7714  0.7879  1.6325
 9744TIP3    H229197   4.554   4.467   1.129  1.5440 -1.3592 -0.0592
 9745TIP3   OH229198   1.914   6.546   4.050  0.2592  0.1239 -0.2344
 9745TIP3    H129199   1.964   6.531   3.969 -1.0621  0.7740 -1.2165
 9745TIP3    H229200   1.861   6.624   4.031 -1.3960 -0.7498  0.6031
 9746TIP3   OH229201   6.214   6.357   2.313 -0.5444 -0.1981  0.1340
 9746TIP3    H129202   6.166   6.336   2.233  0.7544  1.7906 -1.2777
 9746TIP3    H229203   6.193   6.448   2.331 -0.7213 -0.5722  2.0441
 9747TIP3   OH229204   6.319   1.259   0.982  0.0485 -0.4538 -0.6277
 9747TIP3    H129205   6.304   1.224   0.894  2.7740  0.5541 -1.5849
 9747TIP3    H229206   6.394   1.209   1.016  1.9142  2.1021 -0.7346
 9748TIP3   OH229207   2.933   4.976   2.807 -0.2269  0.1380  0.2960
 9748TIP3    H129208   3.028   4.970   2.813 -0.3467 -0.4724  2.8529
 9748TIP3    H229209   2.904   4.886   2.793 -0.4599  0.2512  0.0445
 9749TIP3   OH229210   0.941   1.958   1.384  0.2143  0.1192 -0.0843
 9749TIP3    H129211   0.846   1.964   1.371  0.3052 -0.9185 -1.5814
 9749TIP3    H229212   0.951   1.907   1.464 -0.5319 -1.1720 -0.7721
   7.21069   6.79831   5.88750   0.00000   0.00000  -2.40357   0.00000  -2.40357  -3.39915
