Title t= 430.00000 step= 215000
46055
    1GLY      N    1   3.064   3.096   0.626
    1GLY    HT1    2   3.157   3.091   0.674
    1GLY    HT2    3   3.064   3.186   0.575
    1GLY    HT3    4   3.062   3.024   0.552
    1GLY     CA    5   2.957   3.069   0.729
    1GLY    HA1    6   2.961   2.966   0.761
    1GLY    HA2    7   2.865   3.091   0.676
    1GLY      C    8   2.971   3.156   0.855
    1GLY      O    9   3.022   3.098   0.956
    2PRO      N   10   2.925   3.289   0.865
    2PRO     CD   11   2.856   3.374   0.763
    2PRO    HD1   12   2.754   3.330   0.759
    2PRO    HD2   13   2.905   3.366   0.664
    2PRO     CA   14   2.939   3.365   0.990
    2PRO     HA   15   3.044   3.388   0.998
    2PRO     CB   16   2.854   3.493   0.972
    2PRO    HB1   17   2.879   3.571   1.047
    2PRO    HB2   18   2.745   3.473   0.983
    2PRO     CG   19   2.871   3.516   0.824
    2PRO    HG1   20   2.804   3.593   0.781
    2PRO    HG2   21   2.974   3.544   0.792
    2PRO      C   22   2.914   3.296   1.130
    2PRO      O   23   2.811   3.232   1.146
    3GLY      N   24   3.007   3.312   1.231
    3GLY     HN   25   3.081   3.378   1.219
    3GLY     CA   26   2.977   3.270   1.368
    3GLY    HA1   27   3.066   3.232   1.417
    3GLY    HA2   28   2.898   3.197   1.367
    3GLY      C   29   2.923   3.390   1.456
    3GLY      O   30   2.931   3.511   1.426
    4ALA      N   31   2.882   3.352   1.576
    4ALA     HN   32   2.859   3.259   1.603
    4ALA     CA   33   2.863   3.447   1.680
    4ALA     HA   34   2.847   3.543   1.633
    4ALA     CB   35   2.748   3.402   1.765
    4ALA    HB1   36   2.772   3.326   1.842
    4ALA    HB2   37   2.664   3.373   1.699
    4ALA    HB3   38   2.706   3.485   1.825
    4ALA      C   39   2.996   3.454   1.763
    4ALA      O   40   3.067   3.355   1.767
    5PRO      N   41   3.031   3.570   1.813
    5PRO     CD   42   2.959   3.701   1.796
    5PRO    HD1   43   2.858   3.681   1.838
    5PRO    HD2   44   2.938   3.725   1.689
    5PRO     CA   45   3.134   3.583   1.920
    5PRO     HA   46   3.230   3.581   1.871
    5PRO     CB   47   3.110   3.722   1.982
    5PRO    HB1   48   3.196   3.782   2.018
    5PRO    HB2   49   3.033   3.706   2.061
    5PRO     CG   50   3.042   3.805   1.872
    5PRO    HG1   51   2.977   3.887   1.909
    5PRO    HG2   52   3.117   3.852   1.805
    5PRO      C   53   3.143   3.473   2.029
    5PRO      O   54   3.039   3.418   2.070
    6GLY      N   55   3.264   3.432   2.079
    6GLY     HN   56   3.350   3.469   2.044
    6GLY     CA   57   3.278   3.319   2.173
    6GLY    HA1   58   3.382   3.311   2.200
    6GLY    HA2   59   3.240   3.233   2.120
    6GLY      C   60   3.211   3.340   2.302
    6GLY      O   61   3.194   3.456   2.344
    7PRO      N   62   3.182   3.229   2.375
    7PRO     CD   63   3.228   3.096   2.342
    7PRO    HD1   64   3.339   3.100   2.346
    7PRO    HD2   65   3.205   3.051   2.243
    7PRO     CA   66   3.122   3.241   2.507
    7PRO     HA   67   3.018   3.254   2.480
    7PRO     CB   68   3.134   3.097   2.569
    7PRO    HB1   69   3.045   3.068   2.629
    7PRO    HB2   70   3.207   3.086   2.652
    7PRO     CG   71   3.176   3.003   2.456
    7PRO    HG1   72   3.252   2.927   2.487
    7PRO    HG2   73   3.089   2.944   2.418
    7PRO      C   74   3.156   3.352   2.601
    7PRO      O   75   3.272   3.356   2.642
    8GLY      N   76   3.057   3.437   2.645
    8GLY     HN   77   2.964   3.413   2.619
    8GLY     CA   78   3.077   3.542   2.741
    8GLY    HA1   79   3.008   3.618   2.707
    8GLY    HA2   80   3.179   3.574   2.731
    8GLY      C   81   3.061   3.493   2.883
    8GLY      O   82   3.003   3.388   2.911
    9ALA      N   83   3.117   3.569   2.980
    9ALA     HN   84   3.157   3.657   2.956
    9ALA     CA   85   3.128   3.543   3.127
    9ALA     HA   86   3.172   3.444   3.136
    9ALA     CB   87   3.207   3.656   3.192
    9ALA    HB1   88   3.314   3.652   3.162
    9ALA    HB2   89   3.202   3.650   3.303
    9ALA    HB3   90   3.166   3.754   3.160
    9ALA      C   91   2.989   3.538   3.195
    9ALA      O   92   2.893   3.598   3.144
   10PRO      N   93   2.962   3.468   3.308
   10PRO     CD   94   3.071   3.397   3.376
   10PRO    HD1   95   3.152   3.468   3.407
   10PRO    HD2   96   3.107   3.326   3.299
   10PRO     CA   97   2.841   3.482   3.388
   10PRO     HA   98   2.760   3.429   3.340
   10PRO     CB   99   2.881   3.429   3.523
   10PRO    HB1  100   2.796   3.368   3.561
   10PRO    HB2  101   2.914   3.509   3.593
   10PRO     CG  102   3.008   3.337   3.503
   10PRO    HG1  103   3.064   3.312   3.596
   10PRO    HG2  104   2.966   3.240   3.472
   10PRO      C  105   2.794   3.632   3.404
   10PRO      O  106   2.878   3.722   3.427
   11GLY      N  107   2.657   3.651   3.391
   11GLY     HN  108   2.594   3.575   3.375
   11GLY     CA  109   2.601   3.789   3.415
   11GLY    HA1  110   2.494   3.779   3.402
   11GLY    HA2  111   2.643   3.858   3.343
   11GLY      C  112   2.616   3.842   3.552
   11GLY      O  113   2.684   3.788   3.639
   12PRO      N  114   2.550   3.956   3.584
   12PRO     CD  115   2.512   4.049   3.478
   12PRO    HD1  116   2.445   4.001   3.404
   12PRO    HD2  117   2.593   4.090   3.414
   12PRO     CA  118   2.523   4.006   3.718
   12PRO     HA  119   2.615   4.040   3.763
   12PRO     CB  120   2.412   4.108   3.690
   12PRO    HB1  121   2.408   4.194   3.760
   12PRO    HB2  122   2.313   4.060   3.678
   12PRO     CG  123   2.450   4.166   3.559
   12PRO    HG1  124   2.375   4.232   3.510
   12PRO    HG2  125   2.535   4.233   3.586
   12PRO      C  126   2.474   3.905   3.829
   12PRO      O  127   2.391   3.816   3.788
   13GLY      N  128   2.516   3.918   3.955
   13GLY     HN  129   2.579   3.991   3.980
   13GLY     CA  130   2.484   3.828   4.063
   13GLY    HA1  131   2.573   3.774   4.090
   13GLY    HA2  132   2.404   3.769   4.021
   13GLY      C  133   2.424   3.889   4.181
   13GLY      O  134   2.420   4.010   4.203
   14ALA      N  135   2.377   3.804   4.274
   14ALA     HN  136   2.379   3.706   4.258
   14ALA     CA  137   2.313   3.842   4.400
   14ALA     HA  138   2.256   3.931   4.378
   14ALA     CB  139   2.236   3.737   4.479
   14ALA    HB1  140   2.184   3.781   4.567
   14ALA    HB2  141   2.303   3.660   4.523
   14ALA    HB3  142   2.163   3.681   4.418
   14ALA      C  143   2.429   3.889   4.486
   14ALA      O  144   2.541   3.835   4.477
   15PRO      N  145   2.416   3.992   4.568
   15PRO     CD  146   2.293   4.070   4.593
   15PRO    HD1  147   2.200   4.012   4.608
   15PRO    HD2  148   2.277   4.137   4.506
   15PRO     CA  149   2.522   4.021   4.668
   15PRO     HA  150   2.613   4.037   4.612
   15PRO     CB  151   2.474   4.155   4.727
   15PRO    HB1  152   2.520   4.242   4.675
   15PRO    HB2  153   2.504   4.167   4.833
   15PRO     CG  154   2.320   4.147   4.719
   15PRO    HG1  155   2.270   4.102   4.808
   15PRO    HG2  156   2.271   4.246   4.711
   15PRO      C  157   2.537   3.913   4.774
   15PRO    OT1  158   2.444   3.830   4.790
   15PRO    OT2  159   2.640   3.911   4.845
   16LIT    LIT  160   5.762   4.654   2.519
   17LIT    LIT  161   3.027   4.968   3.104
   18LIT    LIT  162   3.086   2.920   1.885
   19LIT    LIT  163   4.882   5.761   2.969
   20LIT    LIT  164   3.039   5.246   2.097
   21LIT    LIT  165   2.285   5.626   0.306
   22LIT    LIT  166   2.040   2.047   5.937
   23LIT    LIT  167   6.940   4.856   3.662
   24LIT    LIT  168   2.417   3.914   2.995
   25LIT    LIT  169   3.763   0.357   5.981
   26LIT    LIT  170   7.347   3.315   5.296
   27LIT    LIT  171   1.645   4.253   3.472
   28LIT    LIT  172   1.261   6.464   4.146
   29LIT    LIT  173   7.695   6.869   6.638
   30LIT    LIT  174   4.286   5.935   4.157
   31LIT    LIT  175   0.875   2.672   4.345
   32LIT    LIT  176   5.340   1.082   0.257
   33LIT    LIT  177   4.658   5.933   2.546
   34LIT    LIT  178   7.952   6.975   0.074
   35LIT    LIT  179   8.098   0.296   3.754
   36LIT    LIT  180   7.193   0.088   2.033
   37LIT    LIT  181   3.720   5.636   0.534
   38LIT    LIT  182   0.754   2.900   0.930
   39LIT    LIT  183   2.803   1.945   3.696
   40LIT    LIT  184   8.355   6.267   4.387
   41LIT    LIT  185   5.034   5.183   0.118
   42LIT    LIT  186   6.651   5.105   1.332
   43LIT    LIT  187   3.441   1.799   0.120
   44LIT    LIT  188   4.348   7.341   2.265
   45LIT    LIT  189   3.294   0.094   2.106
   46LIT    LIT  190   1.680   3.374   4.913
   47LIT    LIT  191   0.857   0.587   1.600
   48LIT    LIT  192   2.141   7.745   2.151
   49LIT    LIT  193   7.127   0.627   5.427
   50LIT    LIT  194   5.395   3.952   1.523
   51LIT    LIT  195   5.573   1.058   0.734
   52LIT    LIT  196   5.824   0.627   5.440
   53LIT    LIT  197   1.091   3.881   0.212
   54LIT    LIT  198   5.588   2.129   5.474
   55LIT    LIT  199   1.462   2.225   4.642
   56LIT    LIT  200   7.584   4.921   4.816
   57LIT    LIT  201   4.920   5.416   0.554
   58LIT    LIT  202   2.576   3.755   4.934
   59CLA    CLA  203   3.838   7.522   2.623
   60CLA    CLA  204   4.084   5.901   4.255
   61CLA    CLA  205   4.820   2.871   6.610
   62CLA    CLA  206   2.430   7.532   2.682
   63CLA    CLA  207   2.679   6.161   3.288
   64CLA    CLA  208   2.999   6.367   4.220
   65CLA    CLA  209   5.207   5.723   0.393
   66CLA    CLA  210   5.549   1.695   6.712
   67CLA    CLA  211   1.177   3.612   2.904
   68CLA    CLA  212   6.916   5.959   3.770
   69CLA    CLA  213   6.053   6.336   2.418
   70CLA    CLA  214   4.715   0.232   0.273
   71CLA    CLA  215   2.809   1.797   2.669
   72CLA    CLA  216   7.678   4.733   4.896
   73CLA    CLA  217   1.108   6.033   6.566
   74CLA    CLA  218   5.723   7.351   1.818
   75CLA    CLA  219   4.210   7.771   6.707
   76CLA    CLA  220   1.662   2.961   1.159
   77CLA    CLA  221   4.582   0.834   6.255
   78CLA    CLA  222   7.594   2.026   4.454
   79CLA    CLA  223   5.421   3.448   2.341
   80CLA    CLA  224   3.432   3.727   6.424
   81CLA    CLA  225   1.811   1.309   1.306
   82CLA    CLA  226   2.599   4.759   1.759
   83CLA    CLA  227   7.494   6.354   4.657
   84CLA    CLA  228   1.312   7.033   2.129
   85CLA    CLA  229   8.321   6.736   0.040
   86CLA    CLA  230   7.922   2.441   5.335
   87CLA    CLA  231   1.832   4.099   0.248
   88CLA    CLA  232   8.318   3.827   3.135
   89CLA    CLA  233   3.171   3.640   0.426
   90CLA    CLA  234   1.538   3.256   6.166
   91CLA    CLA  235   5.716   6.335   0.798
   92CLA    CLA  236   5.960   5.085   0.763
   93CLA    CLA  237   2.089   1.482   6.549
   94CLA    CLA  238   7.990   0.123   3.850
   95CLA    CLA  239   2.995   2.242   1.129
   96CLA    CLA  240   6.980   2.241   4.288
   97CLA    CLA  241   3.855   2.968   3.910
   98CLA    CLA  242   7.073   1.777   5.552
   99CLA    CLA  243   2.043   4.524   3.073
  100CLA    CLA  244   5.641   1.509   4.080
  101CLA    CLA  245   7.448   1.027   3.025
  102TIP3   OH2  246   7.691   7.200   6.356
  102TIP3    H1  247   7.681   7.249   6.438
  102TIP3    H2  248   7.690   7.267   6.288
  103TIP3   OH2  249   1.636   3.338   2.113
  103TIP3    H1  250   1.673   3.333   2.201
  103TIP3    H2  251   1.631   3.432   2.095
  104TIP3   OH2  252   6.891   6.950   4.966
  104TIP3    H1  253   6.979   6.958   4.930
  104TIP3    H2  254   6.882   7.025   5.024
  105TIP3   OH2  255   1.670   1.622   4.068
  105TIP3    H1  256   1.674   1.713   4.037
  105TIP3    H2  257   1.755   1.585   4.042
  106TIP3   OH2  258   3.117   5.545   1.408
  106TIP3    H1  259   3.022   5.550   1.391
  106TIP3    H2  260   3.123   5.512   1.498
  107TIP3   OH2  261   6.837   4.333   5.254
  107TIP3    H1  262   6.865   4.349   5.164
  107TIP3    H2  263   6.742   4.344   5.252
  108TIP3   OH2  264   1.927   3.145   6.549
  108TIP3    H1  265   1.841   3.183   6.530
  108TIP3    H2  266   1.989   3.205   6.507
  109TIP3   OH2  267   6.845   6.207   4.895
  109TIP3    H1  268   6.824   6.299   4.911
  109TIP3    H2  269   6.900   6.181   4.969
  110TIP3   OH2  270   3.155   2.136   2.288
  110TIP3    H1  271   3.106   2.191   2.351
  110TIP3    H2  272   3.202   2.199   2.234
  111TIP3   OH2  273   1.731   1.247   6.665
  111TIP3    H1  274   1.692   1.208   6.587
  111TIP3    H2  275   1.825   1.229   6.656
  112TIP3   OH2  276   5.568   0.560   1.986
  112TIP3    H1  277   5.624   0.542   2.061
  112TIP3    H2  278   5.525   0.643   2.008
  113TIP3   OH2  279   0.512   6.924   2.298
  113TIP3    H1  280   0.585   6.867   2.276
  113TIP3    H2  281   0.534   7.008   2.258
  114TIP3   OH2  282   0.810   3.476   3.915
  114TIP3    H1  283   0.873   3.479   3.987
  114TIP3    H2  284   0.814   3.564   3.877
  115TIP3   OH2  285   0.694   2.532   6.646
  115TIP3    H1  286   0.787   2.528   6.667
  115TIP3    H2  287   0.651   2.489   6.720
  116TIP3   OH2  288   4.059   5.228   0.183
  116TIP3    H1  289   4.062   5.324   0.183
  116TIP3    H2  290   3.989   5.207   0.120
  117TIP3   OH2  291   1.308   1.005   1.918
  117TIP3    H1  292   1.297   1.097   1.944
  117TIP3    H2  293   1.301   0.956   1.999
  118TIP3   OH2  294   4.668   3.017   1.795
  118TIP3    H1  295   4.756   3.053   1.792
  118TIP3    H2  296   4.681   2.923   1.810
  119TIP3   OH2  297   8.272   1.790   4.883
  119TIP3    H1  298   8.269   1.725   4.812
  119TIP3    H2  299   8.267   1.874   4.838
  120TIP3   OH2  300   0.299   1.290   3.704
  120TIP3    H1  301   0.301   1.343   3.624
  120TIP3    H2  302   0.300   1.354   3.775
  121TIP3   OH2  303   3.121   7.877   2.104
  121TIP3    H1  304   3.088   7.808   2.161
  121TIP3    H2  305   3.043   7.913   2.062
  122TIP3   OH2  306   5.734   7.778   2.583
  122TIP3    H1  307   5.744   7.707   2.519
  122TIP3    H2  308   5.771   7.742   2.664
  123TIP3   OH2  309   0.647   2.659   6.152
  123TIP3    H1  310   0.713   2.728   6.143
  123TIP3    H2  311   0.570   2.694   6.108
  124TIP3   OH2  312   4.621   5.459   1.870
  124TIP3    H1  313   4.569   5.388   1.906
  124TIP3    H2  314   4.710   5.442   1.901
  125TIP3   OH2  315   2.836   5.697   5.971
  125TIP3    H1  316   2.854   5.720   5.880
  125TIP3    H2  317   2.801   5.608   5.967
  126TIP3   OH2  318   4.219   6.837   6.777
  126TIP3    H1  319   4.218   6.776   6.703
  126TIP3    H2  320   4.184   6.919   6.741
  127TIP3   OH2  321   5.925   6.866   3.894
  127TIP3    H1  322   5.896   6.789   3.845
  127TIP3    H2  323   5.909   6.940   3.835
  128TIP3   OH2  324   7.262   2.460   2.402
  128TIP3    H1  325   7.317   2.534   2.376
  128TIP3    H2  326   7.190   2.500   2.451
  129TIP3   OH2  327   0.155   2.474   1.399
  129TIP3    H1  328   0.101   2.398   1.379
  129TIP3    H2  329   0.241   2.452   1.365
  130TIP3   OH2  330   7.584   6.367   0.617
  130TIP3    H1  331   7.558   6.453   0.585
  130TIP3    H2  332   7.617   6.383   0.705
  131TIP3   OH2  333   7.602   2.238   4.706
  131TIP3    H1  334   7.584   2.169   4.771
  131TIP3    H2  335   7.591   2.194   4.622
  132TIP3   OH2  336   7.407   7.654   4.765
  132TIP3    H1  337   7.501   7.658   4.782
  132TIP3    H2  338   7.366   7.679   4.848
  133TIP3   OH2  339   6.043   1.083   3.765
  133TIP3    H1  340   6.109   1.014   3.756
  133TIP3    H2  341   6.020   1.082   3.858
  134TIP3   OH2  342   3.396   2.126   6.891
  134TIP3    H1  343   3.491   2.114   6.893
  134TIP3    H2  344   3.365   2.057   6.832
  135TIP3   OH2  345   0.752   7.138   5.540
  135TIP3    H1  346   0.687   7.099   5.599
  135TIP3    H2  347   0.788   7.064   5.492
  136TIP3   OH2  348   3.964   7.255   2.537
  136TIP3    H1  349   3.908   7.188   2.576
  136TIP3    H2  350   3.927   7.338   2.567
  137TIP3   OH2  351   0.641   2.226   4.452
  137TIP3    H1  352   0.669   2.159   4.515
  137TIP3    H2  353   0.715   2.234   4.392
  138TIP3   OH2  354   0.464   7.555   1.456
  138TIP3    H1  355   0.418   7.630   1.494
  138TIP3    H2  356   0.530   7.532   1.522
  139TIP3   OH2  357   1.862   5.268   0.554
  139TIP3    H1  358   1.770   5.281   0.579
  139TIP3    H2  359   1.911   5.328   0.611
  140TIP3   OH2  360   5.541   1.321   6.054
  140TIP3    H1  361   5.513   1.264   6.126
  140TIP3    H2  362   5.511   1.276   5.975
  141TIP3   OH2  363   6.829   6.590   1.404
  141TIP3    H1  364   6.782   6.578   1.322
  141TIP3    H2  365   6.899   6.524   1.401
  142TIP3   OH2  366   3.497   2.370   5.396
  142TIP3    H1  367   3.515   2.417   5.477
  142TIP3    H2  368   3.581   2.366   5.350
  143TIP3   OH2  369   6.840   7.197   0.885
  143TIP3    H1  370   6.886   7.163   0.962
  143TIP3    H2  371   6.782   7.265   0.920
  144TIP3   OH2  372   6.796   4.724   1.329
  144TIP3    H1  373   6.843   4.665   1.271
  144TIP3    H2  374   6.711   4.682   1.342
  145TIP3   OH2  375   0.419   7.659   4.811
  145TIP3    H1  376   0.447   7.680   4.900
  145TIP3    H2  377   0.423   7.564   4.806
  146TIP3   OH2  378   6.649   7.259   1.729
  146TIP3    H1  379   6.700   7.187   1.766
  146TIP3    H2  380   6.708   7.300   1.666
  147TIP3   OH2  381   7.546   7.703   6.083
  147TIP3    H1  382   7.583   7.690   6.170
  147TIP3    H2  383   7.613   7.668   6.024
  148TIP3   OH2  384   7.689   4.511   3.925
  148TIP3    H1  385   7.767   4.471   3.964
  148TIP3    H2  386   7.669   4.457   3.849
  149TIP3   OH2  387   5.312   3.257   4.763
  149TIP3    H1  388   5.270   3.322   4.706
  149TIP3    H2  389   5.260   3.178   4.751
  150TIP3   OH2  390   3.940   3.945   4.552
  150TIP3    H1  391   4.016   3.893   4.529
  150TIP3    H2  392   3.973   4.035   4.562
  151TIP3   OH2  393   0.159   3.996   1.486
  151TIP3    H1  394   0.101   4.035   1.420
  151TIP3    H2  395   0.226   4.063   1.500
  152TIP3   OH2  396   1.045   4.910   0.938
  152TIP3    H1  397   1.086   4.841   0.887
  152TIP3    H2  398   0.958   4.876   0.958
  153TIP3   OH2  399   6.140   4.328   2.206
  153TIP3    H1  400   6.097   4.287   2.280
  153TIP3    H2  401   6.232   4.333   2.232
  154TIP3   OH2  402   5.077   1.892   4.469
  154TIP3    H1  403   5.038   1.851   4.391
  154TIP3    H2  404   5.035   1.978   4.474
  155TIP3   OH2  405   3.791   0.397   3.367
  155TIP3    H1  406   3.836   0.458   3.309
  155TIP3    H2  407   3.710   0.441   3.391
  156TIP3   OH2  408   0.805   3.726   3.815
  156TIP3    H1  409   0.758   3.719   3.732
  156TIP3    H2  410   0.792   3.817   3.842
  157TIP3   OH2  411   5.069   6.355   1.066
  157TIP3    H1  412   5.095   6.273   1.025
  157TIP3    H2  413   5.073   6.419   0.995
  158TIP3   OH2  414   1.096   2.694   3.603
  158TIP3    H1  415   1.099   2.769   3.543
  158TIP3    H2  416   1.122   2.619   3.549
  159TIP3   OH2  417   5.292   6.251   4.729
  159TIP3    H1  418   5.228   6.322   4.722
  159TIP3    H2  419   5.297   6.214   4.641
  160TIP3   OH2  420   6.834   0.153   6.314
  160TIP3    H1  421   6.822   0.090   6.386
  160TIP3    H2  422   6.788   0.231   6.343
  161TIP3   OH2  423   6.087   7.004   6.579
  161TIP3    H1  424   6.012   6.948   6.557
  161TIP3    H2  425   6.050   7.091   6.590
  162TIP3   OH2  426   6.731   7.809   4.465
  162TIP3    H1  427   6.716   7.746   4.535
  162TIP3    H2  428   6.714   7.760   4.385
  163TIP3   OH2  429   4.247   4.224   1.043
  163TIP3    H1  430   4.229   4.263   1.129
  163TIP3    H2  431   4.315   4.279   1.005
  164TIP3   OH2  432   5.720   1.008   6.457
  164TIP3    H1  433   5.734   1.022   6.364
  164TIP3    H2  434   5.653   0.940   6.462
  165TIP3   OH2  435   7.963   3.806   4.498
  165TIP3    H1  436   7.988   3.789   4.589
  165TIP3    H2  437   7.889   3.867   4.503
  166TIP3   OH2  438   6.118   5.768   4.117
  166TIP3    H1  439   6.162   5.790   4.199
  166TIP3    H2  440   6.189   5.758   4.053
  167TIP3   OH2  441   5.012   3.519   2.193
  167TIP3    H1  442   5.105   3.493   2.195
  167TIP3    H2  443   4.995   3.539   2.101
  168TIP3   OH2  444   2.026   0.708   5.766
  168TIP3    H1  445   1.981   0.713   5.850
  168TIP3    H2  446   2.105   0.762   5.778
  169TIP3   OH2  447   0.014   6.647   3.975
  169TIP3    H1  448  -0.034   6.631   4.056
  169TIP3    H2  449   0.096   6.686   4.004
  170TIP3   OH2  450   3.439   5.185   2.795
  170TIP3    H1  451   3.347   5.207   2.808
  170TIP3    H2  452   3.446   5.093   2.819
  171TIP3   OH2  453   6.463   5.152   5.374
  171TIP3    H1  454   6.502   5.067   5.351
  171TIP3    H2  455   6.523   5.217   5.338
  172TIP3   OH2  456   1.853   5.892   6.775
  172TIP3    H1  457   1.888   5.981   6.770
  172TIP3    H2  458   1.895   5.846   6.703
  173TIP3   OH2  459   7.672   5.505   3.754
  173TIP3    H1  460   7.593   5.552   3.782
  173TIP3    H2  461   7.640   5.443   3.689
  174TIP3   OH2  462   0.190   3.163   6.499
  174TIP3    H1  463   0.132   3.097   6.537
  174TIP3    H2  464   0.132   3.236   6.478
  175TIP3   OH2  465   3.218   5.722   5.797
  175TIP3    H1  466   3.302   5.692   5.762
  175TIP3    H2  467   3.186   5.649   5.850
  176TIP3   OH2  468   6.040   4.099   1.234
  176TIP3    H1  469   6.124   4.122   1.274
  176TIP3    H2  470   6.022   4.169   1.172
  177TIP3   OH2  471   8.355   7.504   4.012
  177TIP3    H1  472   8.342   7.414   3.984
  177TIP3    H2  473   8.442   7.527   3.981
  178TIP3   OH2  474   1.942   7.384   5.604
  178TIP3    H1  475   1.857   7.425   5.618
  178TIP3    H2  476   2.004   7.444   5.647
  179TIP3   OH2  477   6.097   3.533   0.409
  179TIP3    H1  478   6.142   3.452   0.433
  179TIP3    H2  479   6.009   3.504   0.382
  180TIP3   OH2  480   0.025   6.545   5.309
  180TIP3    H1  481   0.047   6.581   5.223
  180TIP3    H2  482  -0.026   6.467   5.290
  181TIP3   OH2  483   7.198   3.529   5.989
  181TIP3    H1  484   7.191   3.553   6.081
  181TIP3    H2  485   7.140   3.453   5.979
  182TIP3   OH2  486   1.304   3.180   4.215
  182TIP3    H1  487   1.250   3.131   4.277
  182TIP3    H2  488   1.297   3.271   4.244
  183TIP3   OH2  489   3.153   6.331   1.415
  183TIP3    H1  490   3.146   6.401   1.479
  183TIP3    H2  491   3.069   6.285   1.420
  184TIP3   OH2  492   0.399   1.612   1.071
  184TIP3    H1  493   0.460   1.669   1.118
  184TIP3    H2  494   0.401   1.530   1.119
  185TIP3   OH2  495   5.140   4.659   0.096
  185TIP3    H1  496   5.051   4.688   0.116
  185TIP3    H2  497   5.158   4.695   0.009
  186TIP3   OH2  498   1.351   2.919   3.567
  186TIP3    H1  499   1.321   2.877   3.648
  186TIP3    H2  500   1.374   2.846   3.509
  187TIP3   OH2  501   0.606   3.727   3.640
  187TIP3    H1  502   0.573   3.811   3.610
  187TIP3    H2  503   0.528   3.680   3.670
  188TIP3   OH2  504   7.015   0.925   6.590
  188TIP3    H1  505   7.052   0.995   6.643
  188TIP3    H2  506   7.061   0.932   6.506
  189TIP3   OH2  507   2.712   2.027   4.562
  189TIP3    H1  508   2.806   2.034   4.578
  189TIP3    H2  509   2.705   1.984   4.477
  190TIP3   OH2  510   6.195   1.322   3.035
  190TIP3    H1  511   6.238   1.388   2.981
  190TIP3    H2  512   6.244   1.322   3.117
  191TIP3   OH2  513   1.983   4.615   4.172
  191TIP3    H1  514   1.993   4.591   4.079
  191TIP3    H2  515   2.005   4.536   4.220
  192TIP3   OH2  516   3.287   4.697   6.214
  192TIP3    H1  517   3.345   4.660   6.148
  192TIP3    H2  518   3.211   4.639   6.216
  193TIP3   OH2  519   6.802   1.629   5.438
  193TIP3    H1  520   6.879   1.636   5.493
  193TIP3    H2  521   6.801   1.710   5.387
  194TIP3   OH2  522   0.738   2.184   2.950
  194TIP3    H1  523   0.774   2.194   3.038
  194TIP3    H2  524   0.660   2.241   2.950
  195TIP3   OH2  525   2.688   7.270   4.633
  195TIP3    H1  526   2.632   7.200   4.667
  195TIP3    H2  527   2.730   7.307   4.711
  196TIP3   OH2  528   2.147   4.731   6.570
  196TIP3    H1  529   2.211   4.789   6.528
  196TIP3    H2  530   2.197   4.652   6.592
  197TIP3   OH2  531   1.959   2.024   1.433
  197TIP3    H1  532   1.892   2.005   1.368
  197TIP3    H2  533   2.000   2.106   1.402
  198TIP3   OH2  534   5.066   3.279   1.451
  198TIP3    H1  535   5.073   3.209   1.516
  198TIP3    H2  536   5.153   3.318   1.448
  199TIP3   OH2  537   1.036   5.535   3.972
  199TIP3    H1  538   1.106   5.574   3.920
  199TIP3    H2  539   1.059   5.442   3.976
  200TIP3   OH2  540   1.529   5.732   4.241
  200TIP3    H1  541   1.604   5.731   4.181
  200TIP3    H2  542   1.560   5.779   4.318
  201TIP3   OH2  543   4.381   6.181   3.015
  201TIP3    H1  544   4.462   6.229   3.000
  201TIP3    H2  545   4.317   6.224   2.957
  202TIP3   OH2  546   6.103   6.993   5.412
  202TIP3    H1  547   6.085   7.000   5.318
  202TIP3    H2  548   6.150   7.074   5.433
  203TIP3   OH2  549   6.963   1.468   2.132
  203TIP3    H1  550   6.880   1.450   2.176
  203TIP3    H2  551   7.011   1.385   2.137
  204TIP3   OH2  552   6.169   2.671   3.805
  204TIP3    H1  553   6.169   2.674   3.901
  204TIP3    H2  554   6.098   2.730   3.780
  205TIP3   OH2  555   5.968   4.416   5.564
  205TIP3    H1  556   5.940   4.386   5.650
  205TIP3    H2  557   5.898   4.475   5.535
  206TIP3   OH2  558   0.134   2.521   3.260
  206TIP3    H1  559   0.159   2.456   3.195
  206TIP3    H2  560   0.201   2.515   3.328
  207TIP3   OH2  561   2.609   1.453   1.718
  207TIP3    H1  562   2.688   1.417   1.680
  207TIP3    H2  563   2.549   1.379   1.727
  208TIP3   OH2  564   1.452   1.330   0.478
  208TIP3    H1  565   1.541   1.300   0.496
  208TIP3    H2  566   1.399   1.251   0.485
  209TIP3   OH2  567   4.644   1.787   0.845
  209TIP3    H1  568   4.625   1.700   0.808
  209TIP3    H2  569   4.698   1.830   0.779
  210TIP3   OH2  570   7.519   2.813   0.088
  210TIP3    H1  571   7.474   2.745   0.137
  210TIP3    H2  572   7.608   2.779   0.076
  211TIP3   OH2  573   7.686   6.160   3.824
  211TIP3    H1  574   7.766   6.167   3.772
  211TIP3    H2  575   7.639   6.087   3.784
  212TIP3   OH2  576   2.888   7.114   2.317
  212TIP3    H1  577   2.809   7.063   2.333
  212TIP3    H2  578   2.857   7.190   2.267
  213TIP3   OH2  579   5.235   1.813   0.508
  213TIP3    H1  580   5.192   1.770   0.582
  213TIP3    H2  581   5.188   1.896   0.498
  214TIP3   OH2  582   6.911   0.442   2.717
  214TIP3    H1  583   6.963   0.393   2.653
  214TIP3    H2  584   6.883   0.376   2.780
  215TIP3   OH2  585   0.646   5.656   3.079
  215TIP3    H1  586   0.621   5.564   3.082
  215TIP3    H2  587   0.627   5.683   2.989
  216TIP3   OH2  588   4.452   4.417   4.497
  216TIP3    H1  589   4.399   4.496   4.508
  216TIP3    H2  590   4.410   4.352   4.553
  217TIP3   OH2  591   5.140   3.110   2.465
  217TIP3    H1  592   5.129   3.078   2.375
  217TIP3    H2  593   5.235   3.114   2.478
  218TIP3   OH2  594   4.672   3.781   5.934
  218TIP3    H1  595   4.699   3.693   5.959
  218TIP3    H2  596   4.631   3.817   6.012
  219TIP3   OH2  597   6.097   6.086   3.762
  219TIP3    H1  598   6.161   6.055   3.698
  219TIP3    H2  599   6.085   6.178   3.741
  220TIP3   OH2  600   6.142   0.952   4.622
  220TIP3    H1  601   6.164   1.032   4.671
  220TIP3    H2  602   6.199   0.885   4.659
  221TIP3   OH2  603   6.725   3.376   1.961
  221TIP3    H1  604   6.779   3.307   2.000
  221TIP3    H2  605   6.787   3.446   1.939
  222TIP3   OH2  606   5.582   1.907   3.317
  222TIP3    H1  607   5.640   1.888   3.391
  222TIP3    H2  608   5.593   1.832   3.259
  223TIP3   OH2  609   5.011   4.991   6.275
  223TIP3    H1  610   4.991   5.083   6.255
  223TIP3    H2  611   5.105   4.984   6.262
  224TIP3   OH2  612   0.627   4.938   2.177
  224TIP3    H1  613   0.543   4.984   2.174
  224TIP3    H2  614   0.650   4.935   2.269
  225TIP3   OH2  615   2.518   3.338   5.660
  225TIP3    H1  616   2.567   3.263   5.690
  225TIP3    H2  617   2.572   3.376   5.590
  226TIP3   OH2  618   3.578   0.770   3.138
  226TIP3    H1  619   3.634   0.845   3.158
  226TIP3    H2  620   3.628   0.719   3.075
  227TIP3   OH2  621   1.837   1.957   6.762
  227TIP3    H1  622   1.913   2.012   6.742
  227TIP3    H2  623   1.837   1.951   6.857
  228TIP3   OH2  624   6.794   2.131   6.523
  228TIP3    H1  625   6.800   2.208   6.467
  228TIP3    H2  626   6.859   2.145   6.592
  229TIP3   OH2  627   8.323   5.955   4.974
  229TIP3    H1  628   8.308   5.940   4.880
  229TIP3    H2  629   8.338   6.049   4.982
  230TIP3   OH2  630   1.945   2.195   6.736
  230TIP3    H1  631   1.854   2.165   6.744
  230TIP3    H2  632   1.974   2.208   6.826
  231TIP3   OH2  633   6.505   2.542   5.335
  231TIP3    H1  634   6.510   2.462   5.283
  231TIP3    H2  635   6.594   2.555   5.368
  232TIP3   OH2  636   8.096   2.457   0.299
  232TIP3    H1  637   8.133   2.443   0.386
  232TIP3    H2  638   8.050   2.376   0.279
  233TIP3   OH2  639   0.140   5.279   1.979
  233TIP3    H1  640   0.142   5.257   2.072
  233TIP3    H2  641   0.210   5.226   1.941
  234TIP3   OH2  642   3.693   0.597   2.625
  234TIP3    H1  643   3.721   0.550   2.704
  234TIP3    H2  644   3.749   0.675   2.623
  235TIP3   OH2  645   4.591   0.413   0.056
  235TIP3    H1  646   4.537   0.475   0.104
  235TIP3    H2  647   4.637   0.363   0.123
  236TIP3   OH2  648   2.835   2.536   2.651
  236TIP3    H1  649   2.805   2.454   2.690
  236TIP3    H2  650   2.810   2.531   2.559
  237TIP3   OH2  651   2.749   3.054   3.641
  237TIP3    H1  652   2.802   2.974   3.639
  237TIP3    H2  653   2.803   3.118   3.687
  238TIP3   OH2  654   3.285   0.871   1.275
  238TIP3    H1  655   3.262   0.963   1.261
  238TIP3    H2  656   3.233   0.844   1.350
  239TIP3   OH2  657   6.399   0.118   2.144
  239TIP3    H1  658   6.456   0.052   2.184
  239TIP3    H2  659   6.333   0.067   2.097
  240TIP3   OH2  660   6.838   7.346   2.350
  240TIP3    H1  661   6.907   7.322   2.412
  240TIP3    H2  662   6.796   7.263   2.327
  241TIP3   OH2  663   2.052   0.677   1.635
  241TIP3    H1  664   1.994   0.717   1.570
  241TIP3    H2  665   2.113   0.625   1.583
  242TIP3   OH2  666   5.988   7.272   3.865
  242TIP3    H1  667   5.956   7.236   3.947
  242TIP3    H2  668   6.073   7.310   3.887
  243TIP3   OH2  669   8.290   2.537   4.497
  243TIP3    H1  670   8.325   2.523   4.409
  243TIP3    H2  671   8.310   2.628   4.516
  244TIP3   OH2  672   0.004   2.096   6.189
  244TIP3    H1  673   0.053   2.171   6.224
  244TIP3    H2  674  -0.080   2.132   6.161
  245TIP3   OH2  675   2.286   3.199   6.636
  245TIP3    H1  676   2.375   3.214   6.665
  245TIP3    H2  677   2.234   3.198   6.716
  246TIP3   OH2  678   3.080   3.402   6.156
  246TIP3    H1  679   3.015   3.472   6.164
  246TIP3    H2  680   3.155   3.434   6.207
  247TIP3   OH2  681   4.834   1.409   0.832
  247TIP3    H1  682   4.900   1.355   0.875
  247TIP3    H2  683   4.752   1.385   0.876
  248TIP3   OH2  684   3.600   5.053   3.120
  248TIP3    H1  685   3.658   5.047   3.044
  248TIP3    H2  686   3.631   5.131   3.167
  249TIP3   OH2  687   6.046   0.863   5.657
  249TIP3    H1  688   5.995   0.846   5.736
  249TIP3    H2  689   6.092   0.945   5.674
  250TIP3   OH2  690   6.003   2.567   5.868
  250TIP3    H1  691   6.074   2.504   5.855
  250TIP3    H2  692   5.924   2.522   5.837
  251TIP3   OH2  693   5.127   5.676   5.914
  251TIP3    H1  694   5.157   5.659   5.824
  251TIP3    H2  695   5.135   5.592   5.958
  252TIP3   OH2  696   3.432   2.790   4.675
  252TIP3    H1  697   3.380   2.839   4.612
  252TIP3    H2  698   3.515   2.774   4.632
  253TIP3   OH2  699   6.199   3.432   5.664
  253TIP3    H1  700   6.104   3.423   5.671
  253TIP3    H2  701   6.234   3.377   5.734
  254TIP3   OH2  702   4.341   1.223   4.495
  254TIP3    H1  703   4.316   1.283   4.566
  254TIP3    H2  704   4.330   1.275   4.415
  255TIP3   OH2  705   4.081   2.459   3.192
  255TIP3    H1  706   3.997   2.443   3.147
  255TIP3    H2  707   4.139   2.492   3.124
  256TIP3   OH2  708   1.410   4.051   6.094
  256TIP3    H1  709   1.479   4.110   6.124
  256TIP3    H2  710   1.440   3.964   6.121
  257TIP3   OH2  711   2.251   4.516   0.495
  257TIP3    H1  712   2.201   4.567   0.559
  257TIP3    H2  713   2.198   4.519   0.416
  258TIP3   OH2  714   5.606   3.967   1.202
  258TIP3    H1  715   5.647   3.940   1.120
  258TIP3    H2  716   5.540   3.899   1.219
  259TIP3   OH2  717   5.008   6.866   4.203
  259TIP3    H1  718   4.936   6.846   4.262
  259TIP3    H2  719   5.083   6.819   4.240
  260TIP3   OH2  720   3.418   4.607   1.517
  260TIP3    H1  721   3.454   4.690   1.549
  260TIP3    H2  722   3.446   4.603   1.425
  261TIP3   OH2  723   6.817   2.612   5.106
  261TIP3    H1  724   6.734   2.622   5.060
  261TIP3    H2  725   6.819   2.520   5.133
  262TIP3   OH2  726   6.550   0.976   2.611
  262TIP3    H1  727   6.644   0.988   2.618
  262TIP3    H2  728   6.529   0.909   2.675
  263TIP3   OH2  729   3.812   7.827   4.578
  263TIP3    H1  730   3.843   7.916   4.567
  263TIP3    H2  731   3.751   7.813   4.505
  264TIP3   OH2  732   6.089   6.986   6.003
  264TIP3    H1  733   6.157   6.927   5.971
  264TIP3    H2  734   6.135   7.048   6.060
  265TIP3   OH2  735   4.562   5.367   1.589
  265TIP3    H1  736   4.625   5.310   1.545
  265TIP3    H2  737   4.605   5.393   1.670
  266TIP3   OH2  738   7.333   4.194   2.853
  266TIP3    H1  739   7.305   4.239   2.933
  266TIP3    H2  740   7.377   4.262   2.802
  267TIP3   OH2  741   1.802   3.317   2.317
  267TIP3    H1  742   1.840   3.377   2.381
  267TIP3    H2  743   1.774   3.242   2.369
  268TIP3   OH2  744   3.070   7.028   4.569
  268TIP3    H1  745   3.157   7.001   4.540
  268TIP3    H2  746   3.075   7.026   4.665
  269TIP3   OH2  747   1.611   4.122   6.260
  269TIP3    H1  748   1.532   4.104   6.312
  269TIP3    H2  749   1.683   4.114   6.322
  270TIP3   OH2  750   7.193   6.078   4.297
  270TIP3    H1  751   7.219   6.048   4.384
  270TIP3    H2  752   7.098   6.091   4.304
  271TIP3   OH2  753   2.251   1.353   2.999
  271TIP3    H1  754   2.303   1.285   2.956
  271TIP3    H2  755   2.160   1.327   2.984
  272TIP3   OH2  756   3.721   7.434   0.385
  272TIP3    H1  757   3.758   7.484   0.458
  272TIP3    H2  758   3.700   7.501   0.320
  273TIP3   OH2  759   4.672   7.154   3.272
  273TIP3    H1  760   4.714   7.076   3.306
  273TIP3    H2  761   4.731   7.185   3.203
  274TIP3   OH2  762   6.435   6.898   0.937
  274TIP3    H1  763   6.509   6.957   0.954
  274TIP3    H2  764   6.454   6.861   0.850
  275TIP3   OH2  765   7.593   7.165   3.186
  275TIP3    H1  766   7.606   7.254   3.219
  275TIP3    H2  767   7.555   7.177   3.099
  276TIP3   OH2  768   6.310   0.449   3.668
  276TIP3    H1  769   6.289   0.542   3.673
  276TIP3    H2  770   6.251   0.415   3.601
  277TIP3   OH2  771   0.524   4.886   2.856
  277TIP3    H1  772   0.496   4.799   2.830
  277TIP3    H2  773   0.454   4.944   2.825
  278TIP3   OH2  774   8.200   5.973   5.965
  278TIP3    H1  775   8.212   5.879   5.951
  278TIP3    H2  776   8.112   5.991   5.933
  279TIP3   OH2  777   5.094   0.915   5.072
  279TIP3    H1  778   5.115   1.007   5.058
  279TIP3    H2  779   5.175   0.876   5.105
  280TIP3   OH2  780   0.167   4.790   1.990
  280TIP3    H1  781   0.255   4.817   1.967
  280TIP3    H2  782   0.111   4.862   1.963
  281TIP3   OH2  783   0.857   4.644   2.546
  281TIP3    H1  784   0.935   4.665   2.598
  281TIP3    H2  785   0.891   4.598   2.469
  282TIP3   OH2  786   6.878   0.139   4.320
  282TIP3    H1  787   6.797   0.143   4.270
  282TIP3    H2  788   6.915   0.052   4.300
  283TIP3   OH2  789   7.463   6.603   3.762
  283TIP3    H1  790   7.400   6.542   3.799
  283TIP3    H2  791   7.540   6.594   3.817
  284TIP3   OH2  792   6.150   5.317   2.156
  284TIP3    H1  793   6.068   5.340   2.198
  284TIP3    H2  794   6.193   5.401   2.138
  285TIP3   OH2  795   1.232   4.549   2.580
  285TIP3    H1  796   1.175   4.620   2.607
  285TIP3    H2  797   1.260   4.573   2.492
  286TIP3   OH2  798   1.735   5.107   5.455
  286TIP3    H1  799   1.789   5.119   5.377
  286TIP3    H2  800   1.687   5.189   5.464
  287TIP3   OH2  801   5.082   6.435   6.007
  287TIP3    H1  802   5.157   6.492   5.991
  287TIP3    H2  803   5.034   6.477   6.078
  288TIP3   OH2  804   8.365   4.288   1.729
  288TIP3    H1  805   8.308   4.305   1.804
  288TIP3    H2  806   8.391   4.197   1.738
  289TIP3   OH2  807   8.163   2.118   0.064
  289TIP3    H1  808   8.080   2.159   0.041
  289TIP3    H2  809   8.157   2.102   0.158
  290TIP3   OH2  810   0.294   7.318   5.960
  290TIP3    H1  811   0.365   7.342   5.901
  290TIP3    H2  812   0.281   7.224   5.946
  291TIP3   OH2  813   6.615   5.663   1.447
  291TIP3    H1  814   6.642   5.600   1.380
  291TIP3    H2  815   6.690   5.668   1.506
  292TIP3   OH2  816   1.080   7.029   5.652
  292TIP3    H1  817   1.045   7.116   5.631
  292TIP3    H2  818   1.006   6.984   5.693
  293TIP3   OH2  819   2.724   6.870   3.426
  293TIP3    H1  820   2.722   6.921   3.507
  293TIP3    H2  821   2.638   6.882   3.388
  294TIP3   OH2  822   2.733   4.569   2.377
  294TIP3    H1  823   2.668   4.637   2.360
  294TIP3    H2  824   2.695   4.517   2.448
  295TIP3   OH2  825   4.841   1.653   0.686
  295TIP3    H1  826   4.873   1.637   0.598
  295TIP3    H2  827   4.841   1.567   0.728
  296TIP3   OH2  828   2.618   5.744   1.023
  296TIP3    H1  829   2.694   5.705   0.980
  296TIP3    H2  830   2.581   5.803   0.957
  297TIP3   OH2  831   1.024   2.760   2.643
  297TIP3    H1  832   1.092   2.786   2.706
  297TIP3    H2  833   0.949   2.815   2.665
  298TIP3   OH2  834   2.503   0.874   0.074
  298TIP3    H1  835   2.420   0.881   0.122
  298TIP3    H2  836   2.570   0.867   0.142
  299TIP3   OH2  837   7.242   1.141   4.564
  299TIP3    H1  838   7.315   1.141   4.625
  299TIP3    H2  839   7.241   1.229   4.527
  300TIP3   OH2  840   2.529   6.713   0.341
  300TIP3    H1  841   2.452   6.770   0.338
  300TIP3    H2  842   2.591   6.754   0.281
  301TIP3   OH2  843   5.822   5.003   5.051
  301TIP3    H1  844   5.904   4.981   5.095
  301TIP3    H2  845   5.789   5.079   5.099
  302TIP3   OH2  846   0.751   3.746   1.652
  302TIP3    H1  847   0.695   3.800   1.596
  302TIP3    H2  848   0.829   3.799   1.665
  303TIP3   OH2  849   4.072   7.343   4.625
  303TIP3    H1  850   4.002   7.352   4.689
  303TIP3    H2  851   4.105   7.432   4.612
  304TIP3   OH2  852   3.999   0.926   3.855
  304TIP3    H1  853   3.980   1.004   3.802
  304TIP3    H2  854   3.961   0.944   3.940
  305TIP3   OH2  855   1.628   3.066   0.264
  305TIP3    H1  856   1.543   3.099   0.232
  305TIP3    H2  857   1.621   3.069   0.359
  306TIP3   OH2  858   5.758   2.244   6.730
  306TIP3    H1  859   5.801   2.198   6.658
  306TIP3    H2  860   5.799   2.210   6.809
  307TIP3   OH2  861   0.384   5.346   4.809
  307TIP3    H1  862   0.476   5.337   4.836
  307TIP3    H2  863   0.342   5.391   4.883
  308TIP3   OH2  864   5.786   5.506   4.187
  308TIP3    H1  865   5.833   5.511   4.270
  308TIP3    H2  866   5.805   5.418   4.154
  309TIP3   OH2  867   4.815   1.095   2.366
  309TIP3    H1  868   4.721   1.095   2.383
  309TIP3    H2  869   4.841   1.187   2.371
  310TIP3   OH2  870   4.627   5.185   0.334
  310TIP3    H1  871   4.582   5.224   0.259
  310TIP3    H2  872   4.586   5.224   0.411
  311TIP3   OH2  873   0.357   4.612   6.455
  311TIP3    H1  874   0.302   4.629   6.532
  311TIP3    H2  875   0.391   4.524   6.470
  312TIP3   OH2  876   7.325   0.254   2.383
  312TIP3    H1  877   7.401   0.281   2.435
  312TIP3    H2  878   7.311   0.163   2.408
  313TIP3   OH2  879   5.958   3.727   4.673
  313TIP3    H1  880   5.982   3.640   4.704
  313TIP3    H2  881   5.866   3.735   4.694
  314TIP3   OH2  882   4.819   2.009   3.658
  314TIP3    H1  883   4.799   2.080   3.719
  314TIP3    H2  884   4.741   2.002   3.602
  315TIP3   OH2  885   6.722   6.516   5.341
  315TIP3    H1  886   6.747   6.517   5.433
  315TIP3    H2  887   6.721   6.608   5.315
  316TIP3   OH2  888   7.614   2.502   5.343
  316TIP3    H1  889   7.703   2.526   5.371
  316TIP3    H2  890   7.614   2.406   5.341
  317TIP3   OH2  891   5.351   2.267   0.398
  317TIP3    H1  892   5.356   2.363   0.389
  317TIP3    H2  893   5.303   2.239   0.320
  318TIP3   OH2  894   6.667   6.802   5.736
  318TIP3    H1  895   6.668   6.855   5.657
  318TIP3    H2  896   6.598   6.738   5.721
  319TIP3   OH2  897   1.954   7.045   2.072
  319TIP3    H1  898   1.898   6.976   2.106
  319TIP3    H2  899   1.913   7.126   2.103
  320TIP3   OH2  900   2.640   1.536   5.636
  320TIP3    H1  901   2.688   1.458   5.661
  320TIP3    H2  902   2.636   1.532   5.540
  321TIP3   OH2  903   5.479   6.809   5.597
  321TIP3    H1  904   5.567   6.815   5.561
  321TIP3    H2  905   5.424   6.786   5.523
  322TIP3   OH2  906   5.102   4.560   1.958
  322TIP3    H1  907   5.048   4.586   2.032
  322TIP3    H2  908   5.045   4.574   1.882
  323TIP3   OH2  909   8.209   5.499   0.912
  323TIP3    H1  910   8.241   5.572   0.860
  323TIP3    H2  911   8.118   5.522   0.932
  324TIP3   OH2  912   3.972   3.177   4.712
  324TIP3    H1  913   3.997   3.269   4.711
  324TIP3    H2  914   4.052   3.130   4.736
  325TIP3   OH2  915   2.021   1.049   1.764
  325TIP3    H1  916   1.970   1.121   1.727
  325TIP3    H2  917   2.077   1.019   1.692
  326TIP3   OH2  918   5.342   1.543   6.456
  326TIP3    H1  919   5.360   1.606   6.527
  326TIP3    H2  920   5.257   1.505   6.479
  327TIP3   OH2  921   5.935   2.814   6.426
  327TIP3    H1  922   5.873   2.744   6.405
  327TIP3    H2  923   6.021   2.772   6.418
  328TIP3   OH2  924   8.197   7.739   1.021
  328TIP3    H1  925   8.268   7.703   0.969
  328TIP3    H2  926   8.197   7.687   1.101
  329TIP3   OH2  927   3.563   4.975   5.174
  329TIP3    H1  928   3.601   4.887   5.176
  329TIP3    H2  929   3.560   4.999   5.082
  330TIP3   OH2  930   4.264   2.045   1.236
  330TIP3    H1  931   4.292   1.973   1.292
  330TIP3    H2  932   4.178   2.018   1.203
  331TIP3   OH2  933   6.751   2.984   6.286
  331TIP3    H1  934   6.723   2.903   6.327
  331TIP3    H2  935   6.800   3.030   6.354
  332TIP3   OH2  936   6.966   5.220   0.848
  332TIP3    H1  937   7.053   5.258   0.858
  332TIP3    H2  938   6.940   5.242   0.758
  333TIP3   OH2  939   4.468   6.359   5.729
  333TIP3    H1  940   4.476   6.270   5.765
  333TIP3    H2  941   4.375   6.368   5.709
  334TIP3   OH2  942   0.056   4.115   0.621
  334TIP3    H1  943   0.042   4.107   0.715
  334TIP3    H2  944   0.146   4.147   0.613
  335TIP3   OH2  945   3.268   6.364   0.111
  335TIP3    H1  946   3.245   6.451   0.078
  335TIP3    H2  947   3.363   6.361   0.106
  336TIP3   OH2  948   5.619   6.489   2.486
  336TIP3    H1  949   5.644   6.401   2.456
  336TIP3    H2  950   5.593   6.476   2.578
  337TIP3   OH2  951   8.203   1.813   6.414
  337TIP3    H1  952   8.149   1.740   6.444
  337TIP3    H2  953   8.184   1.820   6.320
  338TIP3   OH2  954   3.557   1.581   1.347
  338TIP3    H1  955   3.624   1.649   1.361
  338TIP3    H2  956   3.474   1.628   1.352
  339TIP3   OH2  957   6.590   4.762   3.309
  339TIP3    H1  958   6.544   4.734   3.230
  339TIP3    H2  959   6.557   4.851   3.325
  340TIP3   OH2  960   4.569   4.169   4.173
  340TIP3    H1  961   4.632   4.112   4.216
  340TIP3    H2  962   4.487   4.122   4.177
  341TIP3   OH2  963   3.961   2.196   6.419
  341TIP3    H1  964   3.918   2.203   6.334
  341TIP3    H2  965   4.045   2.155   6.401
  342TIP3   OH2  966   2.533   3.264   6.739
  342TIP3    H1  967   2.616   3.224   6.715
  342TIP3    H2  968   2.552   3.310   6.821
  343TIP3   OH2  969   6.407   3.799   2.346
  343TIP3    H1  970   6.408   3.704   2.334
  343TIP3    H2  971   6.377   3.834   2.262
  344TIP3   OH2  972   1.432   7.149   2.752
  344TIP3    H1  973   1.393   7.091   2.818
  344TIP3    H2  974   1.473   7.219   2.803
  345TIP3   OH2  975   7.315   5.759   5.108
  345TIP3    H1  976   7.361   5.752   5.025
  345TIP3    H2  977   7.251   5.687   5.106
  346TIP3   OH2  978   4.983   5.390   6.491
  346TIP3    H1  979   4.921   5.335   6.539
  346TIP3    H2  980   4.950   5.479   6.502
  347TIP3   OH2  981   7.849   5.642   2.287
  347TIP3    H1  982   7.838   5.716   2.347
  347TIP3    H2  983   7.943   5.640   2.270
  348TIP3   OH2  984   7.423   1.242   0.881
  348TIP3    H1  985   7.476   1.273   0.808
  348TIP3    H2  986   7.365   1.315   0.901
  349TIP3   OH2  987   4.875   0.983   0.208
  349TIP3    H1  988   4.932   1.036   0.153
  349TIP3    H2  989   4.835   1.046   0.268
  350TIP3   OH2  990   2.489   2.598   1.994
  350TIP3    H1  991   2.471   2.504   1.991
  350TIP3    H2  992   2.471   2.623   2.085
  351TIP3   OH2  993  -0.018   6.749   3.699
  351TIP3    H1  994  -0.011   6.738   3.794
  351TIP3    H2  995   0.071   6.768   3.670
  352TIP3   OH2  996   5.394   6.047   4.558
  352TIP3    H1  997   5.469   6.088   4.515
  352TIP3    H2  998   5.433   5.976   4.609
  353TIP3   OH2  999   2.306   0.484   3.124
  353TIP3    H1 1000   2.233   0.463   3.183
  353TIP3    H2 1001   2.383   0.480   3.180
  354TIP3   OH2 1002   6.455   2.762   2.601
  354TIP3    H1 1003   6.490   2.756   2.690
  354TIP3    H2 1004   6.373   2.810   2.611
  355TIP3   OH2 1005   4.419   5.810   0.189
  355TIP3    H1 1006   4.429   5.748   0.117
  355TIP3    H2 1007   4.361   5.878   0.154
  356TIP3   OH2 1008   4.587   2.860   6.060
  356TIP3    H1 1009   4.669   2.829   6.021
  356TIP3    H2 1010   4.605   2.865   6.154
  357TIP3   OH2 1011   5.456   4.083   1.388
  357TIP3    H1 1012   5.505   4.063   1.308
  357TIP3    H2 1013   5.409   4.164   1.367
  358TIP3   OH2 1014   1.806   6.592   1.714
  358TIP3    H1 1015   1.815   6.621   1.804
  358TIP3    H2 1016   1.839   6.665   1.661
  359TIP3   OH2 1017   6.948   3.664   0.043
  359TIP3    H1 1018   6.972   3.573   0.064
  359TIP3    H2 1019   6.947   3.708   0.128
  360TIP3   OH2 1020   7.208   7.177   0.070
  360TIP3    H1 1021   7.212   7.126  -0.010
  360TIP3    H2 1022   7.229   7.115   0.140
  361TIP3   OH2 1023   2.932   1.317   2.469
  361TIP3    H1 1024   2.907   1.354   2.553
  361TIP3    H2 1025   2.992   1.246   2.490
  362TIP3   OH2 1026   5.744   7.482   1.497
  362TIP3    H1 1027   5.799   7.405   1.509
  362TIP3    H2 1028   5.676   7.473   1.564
  363TIP3   OH2 1029   5.611   0.865   3.710
  363TIP3    H1 1030   5.660   0.899   3.785
  363TIP3    H2 1031   5.660   0.898   3.634
  364TIP3   OH2 1032   2.427   4.003   6.292
  364TIP3    H1 1033   2.475   3.995   6.210
  364TIP3    H2 1034   2.343   4.041   6.267
  365TIP3   OH2 1035   7.718   7.381   5.837
  365TIP3    H1 1036   7.632   7.343   5.854
  365TIP3    H2 1037   7.733   7.366   5.744
  366TIP3   OH2 1038   8.038   7.830   0.813
  366TIP3    H1 1039   8.119   7.821   0.864
  366TIP3    H2 1040   8.061   7.894   0.745
  367TIP3   OH2 1041   0.942   6.600   1.002
  367TIP3    H1 1042   1.021   6.601   0.947
  367TIP3    H2 1043   0.871   6.624   0.942
  368TIP3   OH2 1044   3.522   0.401   4.181
  368TIP3    H1 1045   3.491   0.333   4.121
  368TIP3    H2 1046   3.524   0.358   4.266
  369TIP3   OH2 1047   4.753   7.654   1.218
  369TIP3    H1 1048   4.691   7.624   1.284
  369TIP3    H2 1049   4.838   7.622   1.249
  370TIP3   OH2 1050   2.296   5.281   0.049
  370TIP3    H1 1051   2.390   5.262   0.045
  370TIP3    H2 1052   2.257   5.220  -0.014
  371TIP3   OH2 1053   4.108   0.620   2.291
  371TIP3    H1 1054   4.055   0.622   2.211
  371TIP3    H2 1055   4.116   0.527   2.312
  372TIP3   OH2 1056   1.916   3.621   2.655
  372TIP3    H1 1057   1.822   3.625   2.640
  372TIP3    H2 1058   1.951   3.698   2.609
  373TIP3   OH2 1059   4.411   4.840   0.296
  373TIP3    H1 1060   4.338   4.829   0.357
  373TIP3    H2 1061   4.390   4.919   0.247
  374TIP3   OH2 1062   2.195   0.903   3.521
  374TIP3    H1 1063   2.245   0.852   3.459
  374TIP3    H2 1064   2.170   0.982   3.473
  375TIP3   OH2 1065   5.042   4.854   6.504
  375TIP3    H1 1066   5.028   4.910   6.581
  375TIP3    H2 1067   5.032   4.913   6.429
  376TIP3   OH2 1068   2.866   7.646   2.452
  376TIP3    H1 1069   2.890   7.638   2.544
  376TIP3    H2 1070   2.817   7.566   2.432
  377TIP3   OH2 1071   8.116   3.350   4.829
  377TIP3    H1 1072   8.106   3.292   4.754
  377TIP3    H2 1073   8.052   3.318   4.894
  378TIP3   OH2 1074   3.968   2.625   2.774
  378TIP3    H1 1075   4.021   2.551   2.745
  378TIP3    H2 1076   3.946   2.605   2.864
  379TIP3   OH2 1077   5.837   0.270   1.647
  379TIP3    H1 1078   5.784   0.333   1.695
  379TIP3    H2 1079   5.803   0.274   1.557
  380TIP3   OH2 1080   1.381   5.999   0.750
  380TIP3    H1 1081   1.407   5.996   0.658
  380TIP3    H2 1082   1.411   6.085   0.780
  381TIP3   OH2 1083   1.358   3.085   6.489
  381TIP3    H1 1084   1.409   3.024   6.436
  381TIP3    H2 1085   1.300   3.128   6.426
  382TIP3   OH2 1086   7.355   0.940   6.118
  382TIP3    H1 1087   7.276   0.985   6.089
  382TIP3    H2 1088   7.326   0.853   6.143
  383TIP3   OH2 1089   7.838   4.734   5.375
  383TIP3    H1 1090   7.834   4.795   5.448
  383TIP3    H2 1091   7.922   4.688   5.388
  384TIP3   OH2 1092   5.293   1.572   3.783
  384TIP3    H1 1093   5.289   1.553   3.689
  384TIP3    H2 1094   5.276   1.666   3.790
  385TIP3   OH2 1095   5.619   4.669   2.636
  385TIP3    H1 1096   5.591   4.628   2.718
  385TIP3    H2 1097   5.560   4.744   2.625
  386TIP3   OH2 1098   7.535   4.056   6.340
  386TIP3    H1 1099   7.577   4.138   6.365
  386TIP3    H2 1100   7.443   4.079   6.326
  387TIP3   OH2 1101   2.827   2.133   1.566
  387TIP3    H1 1102   2.767   2.171   1.632
  387TIP3    H2 1103   2.897   2.197   1.559
  388TIP3   OH2 1104   3.449   1.307   6.383
  388TIP3    H1 1105   3.542   1.317   6.399
  388TIP3    H2 1106   3.411   1.295   6.470
  389TIP3   OH2 1107   4.303   6.234   4.825
  389TIP3    H1 1108   4.233   6.170   4.814
  389TIP3    H2 1109   4.358   6.198   4.895
  390TIP3   OH2 1110   1.484   4.441   1.647
  390TIP3    H1 1111   1.537   4.504   1.598
  390TIP3    H2 1112   1.398   4.483   1.656
  391TIP3   OH2 1113   7.406   1.695   2.309
  391TIP3    H1 1114   7.409   1.777   2.259
  391TIP3    H2 1115   7.333   1.646   2.270
  392TIP3   OH2 1116   3.129   7.750   4.682
  392TIP3    H1 1117   3.134   7.823   4.619
  392TIP3    H2 1118   3.135   7.792   4.767
  393TIP3   OH2 1119   2.338   4.873   5.306
  393TIP3    H1 1120   2.375   4.900   5.223
  393TIP3    H2 1121   2.343   4.777   5.305
  394TIP3   OH2 1122   3.510   5.301   3.870
  394TIP3    H1 1123   3.489   5.285   3.962
  394TIP3    H2 1124   3.440   5.358   3.839
  395TIP3   OH2 1125   2.941   6.756   1.110
  395TIP3    H1 1126   2.984   6.820   1.166
  395TIP3    H2 1127   2.903   6.808   1.040
  396TIP3   OH2 1128   5.804   5.707   5.231
  396TIP3    H1 1129   5.818   5.761   5.309
  396TIP3    H2 1130   5.882   5.721   5.178
  397TIP3   OH2 1131   8.344   4.766   2.222
  397TIP3    H1 1132   8.359   4.847   2.174
  397TIP3    H2 1133   8.268   4.726   2.179
  398TIP3   OH2 1134   4.431   2.235   1.129
  398TIP3    H1 1135   4.360   2.176   1.154
  398TIP3    H2 1136   4.392   2.322   1.130
  399TIP3   OH2 1137   2.654   2.512   3.497
  399TIP3    H1 1138   2.687   2.542   3.412
  399TIP3    H2 1139   2.573   2.465   3.477
  400TIP3   OH2 1140   1.487   5.348   1.897
  400TIP3    H1 1141   1.397   5.357   1.868
  400TIP3    H2 1142   1.481   5.303   1.981
  401TIP3   OH2 1143   6.011   6.338   3.478
  401TIP3    H1 1144   6.064   6.367   3.404
  401TIP3    H2 1145   6.014   6.243   3.474
  402TIP3   OH2 1146   4.973   4.169   1.586
  402TIP3    H1 1147   5.021   4.252   1.588
  402TIP3    H2 1148   4.886   4.190   1.618
  403TIP3   OH2 1149   6.458   0.307   5.273
  403TIP3    H1 1150   6.426   0.359   5.200
  403TIP3    H2 1151   6.552   0.297   5.256
  404TIP3   OH2 1152   0.747   2.398   2.122
  404TIP3    H1 1153   0.796   2.462   2.173
  404TIP3    H2 1154   0.660   2.436   2.112
  405TIP3   OH2 1155   1.582   0.383   0.729
  405TIP3    H1 1156   1.541   0.303   0.761
  405TIP3    H2 1157   1.646   0.352   0.664
  406TIP3   OH2 1158   5.378   5.348   2.260
  406TIP3    H1 1159   5.354   5.438   2.238
  406TIP3    H2 1160   5.456   5.331   2.208
  407TIP3   OH2 1161   2.806   2.594   2.941
  407TIP3    H1 1162   2.815   2.584   2.846
  407TIP3    H2 1163   2.853   2.519   2.978
  408TIP3   OH2 1164   8.230   0.715   3.388
  408TIP3    H1 1165   8.285   0.669   3.452
  408TIP3    H2 1166   8.292   0.759   3.330
  409TIP3   OH2 1167   3.858   5.580   5.498
  409TIP3    H1 1168   3.869   5.675   5.501
  409TIP3    H2 1169   3.917   5.551   5.428
  410TIP3   OH2 1170   1.887   5.554   6.342
  410TIP3    H1 1171   1.857   5.464   6.345
  410TIP3    H2 1172   1.854   5.588   6.259
  411TIP3   OH2 1173   1.534   0.794   1.217
  411TIP3    H1 1174   1.477   0.717   1.223
  411TIP3    H2 1175   1.494   0.848   1.148
  412TIP3   OH2 1176   4.777   2.623   6.127
  412TIP3    H1 1177   4.694   2.616   6.175
  412TIP3    H2 1178   4.829   2.684   6.179
  413TIP3   OH2 1179   3.865   7.892   3.794
  413TIP3    H1 1180   3.937   7.948   3.825
  413TIP3    H2 1181   3.868   7.815   3.850
  414TIP3   OH2 1182   7.126   1.675   2.059
  414TIP3    H1 1183   7.064   1.611   2.095
  414TIP3    H2 1184   7.116   1.668   1.964
  415TIP3   OH2 1185   6.329   5.450   6.735
  415TIP3    H1 1186   6.405   5.396   6.755
  415TIP3    H2 1187   6.349   5.489   6.649
  416TIP3   OH2 1188   4.300   2.934   5.482
  416TIP3    H1 1189   4.208   2.921   5.462
  416TIP3    H2 1190   4.330   2.998   5.418
  417TIP3   OH2 1191   3.592   3.800   6.170
  417TIP3    H1 1192   3.553   3.789   6.257
  417TIP3    H2 1193   3.668   3.857   6.184
  418TIP3   OH2 1194   2.905   0.763   0.986
  418TIP3    H1 1195   2.815   0.761   0.953
  418TIP3    H2 1196   2.943   0.842   0.947
  419TIP3   OH2 1197   5.829   2.066   2.202
  419TIP3    H1 1198   5.856   1.994   2.146
  419TIP3    H2 1199   5.757   2.108   2.155
  420TIP3   OH2 1200   3.055   0.181   4.249
  420TIP3    H1 1201   3.025   0.237   4.321
  420TIP3    H2 1202   3.098   0.242   4.188
  421TIP3   OH2 1203   4.878   5.411   1.940
  421TIP3    H1 1204   4.930   5.336   1.912
  421TIP3    H2 1205   4.885   5.412   2.035
  422TIP3   OH2 1206   6.868   4.988   0.970
  422TIP3    H1 1207   6.912   5.069   0.942
  422TIP3    H2 1208   6.913   4.919   0.921
  423TIP3   OH2 1209   1.137   5.000   5.027
  423TIP3    H1 1210   1.062   4.993   4.968
  423TIP3    H2 1211   1.194   5.065   4.987
  424TIP3   OH2 1212   4.838   0.733   0.301
  424TIP3    H1 1213   4.850   0.823   0.270
  424TIP3    H2 1214   4.773   0.696   0.241
  425TIP3   OH2 1215   1.091   7.455   0.232
  425TIP3    H1 1216   1.027   7.526   0.239
  425TIP3    H2 1217   1.174   7.496   0.259
  426TIP3   OH2 1218   3.791   1.572   1.027
  426TIP3    H1 1219   3.799   1.481   1.055
  426TIP3    H2 1220   3.863   1.617   1.071
  427TIP3   OH2 1221   7.387   5.661   6.737
  427TIP3    H1 1222   7.382   5.625   6.648
  427TIP3    H2 1223   7.296   5.670   6.764
  428TIP3   OH2 1224   1.211   3.537   2.159
  428TIP3    H1 1225   1.271   3.487   2.104
  428TIP3    H2 1226   1.258   3.619   2.177
  429TIP3   OH2 1227   0.644   3.416   6.159
  429TIP3    H1 1228   0.668   3.452   6.244
  429TIP3    H2 1229   0.697   3.336   6.151
  430TIP3   OH2 1230   6.073   0.424   1.592
  430TIP3    H1 1231   5.999   0.367   1.613
  430TIP3    H2 1232   6.143   0.396   1.651
  431TIP3   OH2 1233   5.441   7.668   1.574
  431TIP3    H1 1234   5.507   7.737   1.581
  431TIP3    H2 1235   5.366   7.712   1.534
  432TIP3   OH2 1236   0.764   2.367   3.800
  432TIP3    H1 1237   0.675   2.390   3.774
  432TIP3    H2 1238   0.790   2.434   3.862
  433TIP3   OH2 1239   1.441   5.190   0.264
  433TIP3    H1 1240   1.431   5.166   0.356
  433TIP3    H2 1241   1.523   5.238   0.260
  434TIP3   OH2 1242   1.925   4.317   0.028
  434TIP3    H1 1243   1.870   4.272  -0.036
  434TIP3    H2 1244   1.919   4.263   0.107
  435TIP3   OH2 1245   4.950   6.325   5.064
  435TIP3    H1 1246   4.957   6.390   5.133
  435TIP3    H2 1247   5.040   6.313   5.033
  436TIP3   OH2 1248   7.262   0.836   1.353
  436TIP3    H1 1249   7.342   0.792   1.323
  436TIP3    H2 1250   7.215   0.859   1.272
  437TIP3   OH2 1251   1.971   1.410   3.237
  437TIP3    H1 1252   1.895   1.410   3.296
  437TIP3    H2 1253   1.954   1.338   3.177
  438TIP3   OH2 1254  -0.052  -0.055   6.214
  438TIP3    H1 1255  -0.012  -0.078   6.297
  438TIP3    H2 1256  -0.093   0.030   6.230
  439TIP3   OH2 1257   1.376   7.464   6.605
  439TIP3    H1 1258   1.389   7.500   6.517
  439TIP3    H2 1259   1.431   7.519   6.661
  440TIP3   OH2 1260   7.285   6.809   3.834
  440TIP3    H1 1261   7.318   6.732   3.787
  440TIP3    H2 1262   7.346   6.820   3.907
  441TIP3   OH2 1263   4.504   5.702   4.496
  441TIP3    H1 1264   4.582   5.651   4.475
  441TIP3    H2 1265   4.537   5.779   4.542
  442TIP3   OH2 1266   3.525   3.319   2.486
  442TIP3    H1 1267   3.462   3.261   2.529
  442TIP3    H2 1268   3.586   3.259   2.443
  443TIP3   OH2 1269   6.733   4.926   0.317
  443TIP3    H1 1270   6.801   4.861   0.296
  443TIP3    H2 1271   6.781   4.997   0.358
  444TIP3   OH2 1272   3.063   7.501   5.915
  444TIP3    H1 1273   3.010   7.505   5.995
  444TIP3    H2 1274   3.125   7.574   5.924
  445TIP3   OH2 1275   2.336   2.246   2.931
  445TIP3    H1 1276   2.372   2.331   2.957
  445TIP3    H2 1277   2.246   2.248   2.963
  446TIP3   OH2 1278   6.473   1.582   4.841
  446TIP3    H1 1279   6.547   1.550   4.893
  446TIP3    H2 1280   6.511   1.647   4.782
  447TIP3   OH2 1281   2.810   2.230   5.238
  447TIP3    H1 1282   2.803   2.326   5.240
  447TIP3    H2 1283   2.857   2.208   5.318
  448TIP3   OH2 1284   3.285   4.769   0.094
  448TIP3    H1 1285   3.308   4.744   0.183
  448TIP3    H2 1286   3.342   4.844   0.075
  449TIP3   OH2 1287   4.567   0.921   1.516
  449TIP3    H1 1288   4.525   0.895   1.434
  449TIP3    H2 1289   4.494   0.934   1.578
  450TIP3   OH2 1290   0.863   0.745   2.842
  450TIP3    H1 1291   0.803   0.779   2.908
  450TIP3    H2 1292   0.907   0.672   2.886
  451TIP3   OH2 1293   2.694   4.590   3.037
  451TIP3    H1 1294   2.725   4.643   3.110
  451TIP3    H2 1295   2.638   4.524   3.078
  452TIP3   OH2 1296   1.508   5.710   3.222
  452TIP3    H1 1297   1.560   5.742   3.148
  452TIP3    H2 1298   1.459   5.787   3.252
  453TIP3   OH2 1299   5.481   2.370   0.936
  453TIP3    H1 1300   5.543   2.418   0.880
  453TIP3    H2 1301   5.468   2.287   0.890
  454TIP3   OH2 1302   7.463   0.456   3.372
  454TIP3    H1 1303   7.476   0.542   3.412
  454TIP3    H2 1304   7.538   0.404   3.402
  455TIP3   OH2 1305   7.208   1.530   0.276
  455TIP3    H1 1306   7.294   1.530   0.234
  455TIP3    H2 1307   7.225   1.545   0.368
  456TIP3   OH2 1308   4.104   0.050   1.063
  456TIP3    H1 1309   4.079   0.028   1.153
  456TIP3    H2 1310   4.145   0.136   1.069
  457TIP3   OH2 1311   1.309   3.627   4.730
  457TIP3    H1 1312   1.340   3.599   4.816
  457TIP3    H2 1313   1.221   3.661   4.745
  458TIP3   OH2 1314   7.772   0.128   1.174
  458TIP3    H1 1315   7.840   0.104   1.237
  458TIP3    H2 1316   7.769   0.223   1.177
  459TIP3   OH2 1317   7.267   3.336   3.420
  459TIP3    H1 1318   7.226   3.308   3.502
  459TIP3    H2 1319   7.244   3.429   3.413
  460TIP3   OH2 1320   4.207   7.727   2.733
  460TIP3    H1 1321   4.121   7.751   2.768
  460TIP3    H2 1322   4.263   7.802   2.755
  461TIP3   OH2 1323   4.242   0.489   4.521
  461TIP3    H1 1324   4.245   0.448   4.608
  461TIP3    H2 1325   4.287   0.573   4.533
  462TIP3   OH2 1326   7.491   6.844   1.483
  462TIP3    H1 1327   7.401   6.818   1.463
  462TIP3    H2 1328   7.482   6.907   1.555
  463TIP3   OH2 1329   0.693   0.595   3.575
  463TIP3    H1 1330   0.704   0.665   3.639
  463TIP3    H2 1331   0.735   0.518   3.615
  464TIP3   OH2 1332   5.803   5.450   0.130
  464TIP3    H1 1333   5.896   5.465   0.146
  464TIP3    H2 1334   5.759   5.517   0.182
  465TIP3   OH2 1335   1.734   4.672   6.594
  465TIP3    H1 1336   1.827   4.662   6.575
  465TIP3    H2 1337   1.705   4.585   6.620
  466TIP3   OH2 1338   4.042   1.498   4.967
  466TIP3    H1 1339   4.130   1.471   4.992
  466TIP3    H2 1340   4.054   1.556   4.892
  467TIP3   OH2 1341   4.029   4.088   5.328
  467TIP3    H1 1342   3.993   4.159   5.380
  467TIP3    H2 1343   4.008   4.111   5.238
  468TIP3   OH2 1344   7.087   3.905   1.948
  468TIP3    H1 1345   7.006   3.857   1.934
  468TIP3    H2 1346   7.110   3.886   2.040
  469TIP3   OH2 1347   3.716   3.226   3.297
  469TIP3    H1 1348   3.642   3.211   3.357
  469TIP3    H2 1349   3.675   3.236   3.211
  470TIP3   OH2 1350   8.333   5.791   0.325
  470TIP3    H1 1351   8.319   5.839   0.242
  470TIP3    H2 1352   8.313   5.700   0.303
  471TIP3   OH2 1353   1.422   4.249   2.666
  471TIP3    H1 1354   1.336   4.210   2.649
  471TIP3    H2 1355   1.474   4.178   2.703
  472TIP3   OH2 1356   3.371   0.519   1.347
  472TIP3    H1 1357   3.378   0.612   1.371
  472TIP3    H2 1358   3.461   0.492   1.333
  473TIP3   OH2 1359   4.802   6.287   1.916
  473TIP3    H1 1360   4.891   6.313   1.943
  473TIP3    H2 1361   4.745   6.326   1.982
  474TIP3   OH2 1362   6.276   4.339   5.934
  474TIP3    H1 1363   6.203   4.277   5.936
  474TIP3    H2 1364   6.348   4.291   5.893
  475TIP3   OH2 1365   5.024   1.911   2.537
  475TIP3    H1 1366   4.990   1.969   2.605
  475TIP3    H2 1367   4.946   1.874   2.496
  476TIP3   OH2 1368   5.750   0.397   2.890
  476TIP3    H1 1369   5.770   0.323   2.832
  476TIP3    H2 1370   5.828   0.407   2.944
  477TIP3   OH2 1371   2.270   1.723   6.036
  477TIP3    H1 1372   2.215   1.647   6.015
  477TIP3    H2 1373   2.265   1.731   6.131
  478TIP3   OH2 1374   7.853   2.940   2.092
  478TIP3    H1 1375   7.882   2.986   2.013
  478TIP3    H2 1376   7.843   3.009   2.157
  479TIP3   OH2 1377   7.753   1.348   3.683
  479TIP3    H1 1378   7.804   1.379   3.758
  479TIP3    H2 1379   7.714   1.266   3.713
  480TIP3   OH2 1380   6.987   3.396   3.976
  480TIP3    H1 1381   6.892   3.399   3.970
  480TIP3    H2 1382   7.015   3.487   3.964
  481TIP3   OH2 1383   1.375   7.463   3.742
  481TIP3    H1 1384   1.318   7.477   3.818
  481TIP3    H2 1385   1.373   7.368   3.728
  482TIP3   OH2 1386   2.443   4.386   1.267
  482TIP3    H1 1387   2.512   4.338   1.315
  482TIP3    H2 1388   2.424   4.331   1.191
  483TIP3   OH2 1389   4.268   4.832   6.632
  483TIP3    H1 1390   4.214   4.756   6.655
  483TIP3    H2 1391   4.225   4.869   6.555
  484TIP3   OH2 1392   3.807   7.269   2.800
  484TIP3    H1 1393   3.782   7.350   2.755
  484TIP3    H2 1394   3.865   7.224   2.739
  485TIP3   OH2 1395   6.403   7.238   1.286
  485TIP3    H1 1396   6.355   7.171   1.236
  485TIP3    H2 1397   6.494   7.210   1.282
  486TIP3   OH2 1398   8.313   2.621   6.781
  486TIP3    H1 1399   8.309   2.653   6.691
  486TIP3    H2 1400   8.398   2.577   6.787
  487TIP3   OH2 1401   6.823   7.085   2.189
  487TIP3    H1 1402   6.786   7.004   2.224
  487TIP3    H2 1403   6.918   7.073   2.195
  488TIP3   OH2 1404   2.695   0.887   6.062
  488TIP3    H1 1405   2.744   0.950   6.009
  488TIP3    H2 1406   2.628   0.939   6.106
  489TIP3   OH2 1407   7.865   4.883   6.797
  489TIP3    H1 1408   7.800   4.825   6.836
  489TIP3    H2 1409   7.865   4.860   6.704
  490TIP3   OH2 1410   0.985   1.197   5.877
  490TIP3    H1 1411   0.993   1.224   5.786
  490TIP3    H2 1412   1.074   1.202   5.912
  491TIP3   OH2 1413   1.242   2.459   0.500
  491TIP3    H1 1414   1.305   2.397   0.465
  491TIP3    H2 1415   1.157   2.427   0.470
  492TIP3   OH2 1416   4.191   0.893   0.080
  492TIP3    H1 1417   4.197   0.798   0.074
  492TIP3    H2 1418   4.100   0.910   0.101
  493TIP3   OH2 1419   1.060   6.667   2.009
  493TIP3    H1 1420   0.998   6.602   2.044
  493TIP3    H2 1421   1.006   6.723   1.953
  494TIP3   OH2 1422   3.059   0.822   4.980
  494TIP3    H1 1423   2.968   0.806   4.955
  494TIP3    H2 1424   3.058   0.825   5.076
  495TIP3   OH2 1425   6.146   1.963   4.613
  495TIP3    H1 1426   6.091   1.962   4.535
  495TIP3    H2 1427   6.154   1.872   4.639
  496TIP3   OH2 1428   3.012   0.300   5.171
  496TIP3    H1 1429   3.020   0.363   5.243
  496TIP3    H2 1430   2.956   0.231   5.206
  497TIP3   OH2 1431   1.752   6.823   5.963
  497TIP3    H1 1432   1.775   6.872   6.042
  497TIP3    H2 1433   1.777   6.733   5.982
  498TIP3   OH2 1434   1.865   0.686   3.156
  498TIP3    H1 1435   1.860   0.684   3.061
  498TIP3    H2 1436   1.948   0.728   3.175
  499TIP3   OH2 1437   0.990   1.589   6.344
  499TIP3    H1 1438   0.974   1.544   6.261
  499TIP3    H2 1439   1.043   1.665   6.320
  500TIP3   OH2 1440   8.204   3.525   3.666
  500TIP3    H1 1441   8.137   3.516   3.598
  500TIP3    H2 1442   8.249   3.606   3.645
  501TIP3   OH2 1443   2.667   4.077   5.214
  501TIP3    H1 1444   2.729   4.089   5.286
  501TIP3    H2 1445   2.672   4.158   5.164
  502TIP3   OH2 1446   2.384   1.562   1.604
  502TIP3    H1 1447   2.455   1.526   1.657
  502TIP3    H2 1448   2.420   1.568   1.516
  503TIP3   OH2 1449   3.844   2.820   4.203
  503TIP3    H1 1450   3.838   2.876   4.126
  503TIP3    H2 1451   3.768   2.763   4.196
  504TIP3   OH2 1452   3.928   0.916   2.120
  504TIP3    H1 1453   3.860   0.858   2.154
  504TIP3    H2 1454   3.881   0.994   2.090
  505TIP3   OH2 1455   5.471   7.571   3.577
  505TIP3    H1 1456   5.509   7.621   3.505
  505TIP3    H2 1457   5.443   7.636   3.641
  506TIP3   OH2 1458   7.672   7.488   5.108
  506TIP3    H1 1459   7.665   7.393   5.100
  506TIP3    H2 1460   7.588   7.516   5.144
  507TIP3   OH2 1461   4.864   2.389   5.970
  507TIP3    H1 1462   4.875   2.298   5.999
  507TIP3    H2 1463   4.871   2.441   6.051
  508TIP3   OH2 1464   0.921   0.424   5.552
  508TIP3    H1 1465   0.853   0.450   5.614
  508TIP3    H2 1466   0.874   0.402   5.472
  509TIP3   OH2 1467   2.107   2.695   5.886
  509TIP3    H1 1468   2.129   2.780   5.848
  509TIP3    H2 1469   2.064   2.716   5.969
  510TIP3   OH2 1470   2.036   0.174   1.621
  510TIP3    H1 1471   1.976   0.115   1.666
  510TIP3    H2 1472   2.053   0.244   1.684
  511TIP3   OH2 1473   0.792   2.138   6.744
  511TIP3    H1 1474   0.801   2.216   6.799
  511TIP3    H2 1475   0.810   2.168   6.655
  512TIP3   OH2 1476   3.441   0.772   3.404
  512TIP3    H1 1477   3.487   0.828   3.467
  512TIP3    H2 1478   3.447   0.820   3.321
  513TIP3   OH2 1479   6.317   6.447   1.120
  513TIP3    H1 1480   6.304   6.371   1.063
  513TIP3    H2 1481   6.366   6.509   1.066
  514TIP3   OH2 1482   2.556   2.871   1.565
  514TIP3    H1 1483   2.517   2.885   1.651
  514TIP3    H2 1484   2.498   2.807   1.522
  515TIP3   OH2 1485   1.937   2.852   1.395
  515TIP3    H1 1486   1.872   2.878   1.330
  515TIP3    H2 1487   2.019   2.889   1.362
  516TIP3   OH2 1488   6.112   7.293   4.502
  516TIP3    H1 1489   6.171   7.232   4.458
  516TIP3    H2 1490   6.028   7.247   4.506
  517TIP3   OH2 1491   0.588   5.435   6.199
  517TIP3    H1 1492   0.660   5.496   6.220
  517TIP3    H2 1493   0.527   5.488   6.148
  518TIP3   OH2 1494   2.285   6.314   2.318
  518TIP3    H1 1495   2.258   6.222   2.320
  518TIP3    H2 1496   2.205   6.364   2.334
  519TIP3   OH2 1497   4.976   3.031   2.673
  519TIP3    H1 1498   5.034   2.966   2.712
  519TIP3    H2 1499   5.033   3.084   2.616
  520TIP3   OH2 1500   2.128   1.587   4.352
  520TIP3    H1 1501   2.101   1.501   4.319
  520TIP3    H2 1502   2.128   1.577   4.447
  521TIP3   OH2 1503   0.344   1.027   0.281
  521TIP3    H1 1504   0.364   1.115   0.312
  521TIP3    H2 1505   0.369   1.028   0.188
  522TIP3   OH2 1506   1.579   6.130   1.135
  522TIP3    H1 1507   1.563   6.140   1.229
  522TIP3    H2 1508   1.554   6.215   1.098
  523TIP3   OH2 1509   3.900   5.076   2.189
  523TIP3    H1 1510   3.930   4.990   2.220
  523TIP3    H2 1511   3.812   5.084   2.225
  524TIP3   OH2 1512   5.668   0.369   3.669
  524TIP3    H1 1513   5.675   0.314   3.747
  524TIP3    H2 1514   5.629   0.451   3.701
  525TIP3   OH2 1515   0.166   7.824   1.215
  525TIP3    H1 1516   0.193   7.839   1.125
  525TIP3    H2 1517   0.229   7.875   1.267
  526TIP3   OH2 1518   1.208   3.315   5.573
  526TIP3    H1 1519   1.117   3.339   5.590
  526TIP3    H2 1520   1.213   3.222   5.592
  527TIP3   OH2 1521   2.707   2.280   2.165
  527TIP3    H1 1522   2.642   2.224   2.207
  527TIP3    H2 1523   2.664   2.313   2.086
  528TIP3   OH2 1524   7.100   7.211   1.683
  528TIP3    H1 1525   7.088   7.276   1.613
  528TIP3    H2 1526   7.135   7.134   1.638
  529TIP3   OH2 1527   1.457   0.919   3.895
  529TIP3    H1 1528   1.438   0.828   3.874
  529TIP3    H2 1529   1.422   0.931   3.984
  530TIP3   OH2 1530   0.680   5.385   1.627
  530TIP3    H1 1531   0.639   5.457   1.674
  530TIP3    H2 1532   0.772   5.411   1.620
  531TIP3   OH2 1533   5.529   4.831   0.993
  531TIP3    H1 1534   5.511   4.741   1.021
  531TIP3    H2 1535   5.543   4.878   1.075
  532TIP3   OH2 1536   8.033   6.517   4.344
  532TIP3    H1 1537   7.956   6.564   4.376
  532TIP3    H2 1538   8.082   6.497   4.424
  533TIP3   OH2 1539   6.588   0.543   6.114
  533TIP3    H1 1540   6.522   0.517   6.049
  533TIP3    H2 1541   6.601   0.637   6.098
  534TIP3   OH2 1542   0.174   3.655   2.144
  534TIP3    H1 1543   0.263   3.672   2.176
  534TIP3    H2 1544   0.119   3.719   2.189
  535TIP3   OH2 1545   3.550   1.284   6.665
  535TIP3    H1 1546   3.594   1.297   6.750
  535TIP3    H2 1547   3.622   1.275   6.602
  536TIP3   OH2 1548   0.451   5.165   0.737
  536TIP3    H1 1549   0.526   5.123   0.780
  536TIP3    H2 1550   0.412   5.220   0.806
  537TIP3   OH2 1551   4.516   7.556   4.671
  537TIP3    H1 1552   4.543   7.497   4.742
  537TIP3    H2 1553   4.566   7.526   4.595
  538TIP3   OH2 1554   0.141   0.657   1.192
  538TIP3    H1 1555   0.062   0.673   1.141
  538TIP3    H2 1556   0.126   0.573   1.235
  539TIP3   OH2 1557   8.072   3.723   1.788
  539TIP3    H1 1558   8.139   3.665   1.753
  539TIP3    H2 1559   7.998   3.714   1.727
  540TIP3   OH2 1560   8.004   4.450   1.911
  540TIP3    H1 1561   8.015   4.538   1.874
  540TIP3    H2 1562   7.946   4.462   1.986
  541TIP3   OH2 1563   6.218   3.011   5.187
  541TIP3    H1 1564   6.245   3.085   5.133
  541TIP3    H2 1565   6.300   2.967   5.209
  542TIP3   OH2 1566   1.057   6.293   2.034
  542TIP3    H1 1567   1.040   6.316   2.125
  542TIP3    H2 1568   1.152   6.282   2.029
  543TIP3   OH2 1569   5.251   6.767   3.910
  543TIP3    H1 1570   5.264   6.759   4.004
  543TIP3    H2 1571   5.166   6.727   3.894
  544TIP3   OH2 1572   6.940   3.313   6.700
  544TIP3    H1 1573   6.890   3.329   6.620
  544TIP3    H2 1574   6.901   3.373   6.765
  545TIP3   OH2 1575   7.068   1.255   6.458
  545TIP3    H1 1576   7.028   1.314   6.521
  545TIP3    H2 1577   7.152   1.231   6.496
  546TIP3   OH2 1578   0.622   6.242   6.739
  546TIP3    H1 1579   0.686   6.197   6.685
  546TIP3    H2 1580   0.562   6.282   6.677
  547TIP3   OH2 1581   1.741   3.220   1.696
  547TIP3    H1 1582   1.662   3.243   1.647
  547TIP3    H2 1583   1.781   3.305   1.718
  548TIP3   OH2 1584   7.753   5.651   0.502
  548TIP3    H1 1585   7.685   5.708   0.537
  548TIP3    H2 1586   7.807   5.629   0.578
  549TIP3   OH2 1587   2.095   3.425   5.794
  549TIP3    H1 1588   2.148   3.475   5.856
  549TIP3    H2 1589   2.159   3.389   5.732
  550TIP3   OH2 1590   3.415   7.399   3.365
  550TIP3    H1 1591   3.336   7.370   3.320
  550TIP3    H2 1592   3.463   7.449   3.299
  551TIP3   OH2 1593   1.181   3.116   3.940
  551TIP3    H1 1594   1.117   3.174   3.898
  551TIP3    H2 1595   1.223   3.172   4.006
  552TIP3   OH2 1596   6.142   0.074   0.029
  552TIP3    H1 1597   6.217   0.024  -0.003
  552TIP3    H2 1598   6.180   0.158   0.056
  553TIP3   OH2 1599   6.246   0.117   2.445
  553TIP3    H1 1600   6.326   0.091   2.493
  553TIP3    H2 1601   6.276   0.130   2.355
  554TIP3   OH2 1602   1.678   3.527   1.794
  554TIP3    H1 1603   1.593   3.483   1.795
  554TIP3    H2 1604   1.665   3.602   1.852
  555TIP3   OH2 1605   8.114   2.985   4.399
  555TIP3    H1 1606   8.173   3.040   4.348
  555TIP3    H2 1607   8.027   3.005   4.364
  556TIP3   OH2 1608   7.350   0.520   1.859
  556TIP3    H1 1609   7.389   0.531   1.946
  556TIP3    H2 1610   7.398   0.447   1.820
  557TIP3   OH2 1611   0.463   6.299   5.340
  557TIP3    H1 1612   0.456   6.210   5.305
  557TIP3    H2 1613   0.552   6.326   5.318
  558TIP3   OH2 1614   7.502   6.172   1.957
  558TIP3    H1 1615   7.456   6.245   1.998
  558TIP3    H2 1616   7.492   6.100   2.019
  559TIP3   OH2 1617   3.540   3.429   6.485
  559TIP3    H1 1618   3.617   3.456   6.534
  559TIP3    H2 1619   3.492   3.510   6.469
  560TIP3   OH2 1620   3.729   0.124   2.560
  560TIP3    H1 1621   3.737   0.210   2.602
  560TIP3    H2 1622   3.742   0.062   2.632
  561TIP3   OH2 1623   0.802   2.148   3.948
  561TIP3    H1 1624   0.869   2.090   3.912
  561TIP3    H2 1625   0.791   2.216   3.881
  562TIP3   OH2 1626   0.664   7.818   5.893
  562TIP3    H1 1627   0.622   7.732   5.893
  562TIP3    H2 1628   0.679   7.838   5.986
  563TIP3   OH2 1629   8.133   0.787   3.011
  563TIP3    H1 1630   8.130   0.879   2.987
  563TIP3    H2 1631   8.103   0.741   2.933
  564TIP3   OH2 1632   5.508   7.572   2.616
  564TIP3    H1 1633   5.564   7.615   2.552
  564TIP3    H2 1634   5.434   7.631   2.626
  565TIP3   OH2 1635   2.209   6.858   1.311
  565TIP3    H1 1636   2.292   6.810   1.310
  565TIP3    H2 1637   2.230   6.940   1.356
  566TIP3   OH2 1638   1.117   5.428   0.267
  566TIP3    H1 1639   1.055   5.494   0.298
  566TIP3    H2 1640   1.157   5.394   0.347
  567TIP3   OH2 1641   7.893   3.073   1.845
  567TIP3    H1 1642   7.835   3.136   1.802
  567TIP3    H2 1643   7.899   3.000   1.784
  568TIP3   OH2 1644   6.081   7.902   1.429
  568TIP3    H1 1645   6.053   7.898   1.520
  568TIP3    H2 1646   6.174   7.880   1.431
  569TIP3   OH2 1647   0.797   7.876   0.693
  569TIP3    H1 1648   0.799   7.825   0.774
  569TIP3    H2 1649   0.773   7.964   0.720
  570TIP3   OH2 1650   7.437   7.087   3.561
  570TIP3    H1 1651   7.474   7.169   3.595
  570TIP3    H2 1652   7.479   7.018   3.613
  571TIP3   OH2 1653   7.185   1.765   6.103
  571TIP3    H1 1654   7.169   1.757   6.009
  571TIP3    H2 1655   7.126   1.836   6.131
  572TIP3   OH2 1656   7.752   5.497   1.195
  572TIP3    H1 1657   7.756   5.586   1.160
  572TIP3    H2 1658   7.676   5.458   1.153
  573TIP3   OH2 1659   4.403   2.849   2.747
  573TIP3    H1 1660   4.379   2.779   2.685
  573TIP3    H2 1661   4.342   2.920   2.728
  574TIP3   OH2 1662   4.575   3.702   3.910
  574TIP3    H1 1663   4.487   3.738   3.921
  574TIP3    H2 1664   4.578   3.672   3.819
  575TIP3   OH2 1665   4.570   2.732   6.710
  575TIP3    H1 1666   4.600   2.697   6.794
  575TIP3    H2 1667   4.649   2.769   6.670
  576TIP3   OH2 1668   3.904   5.842   6.556
  576TIP3    H1 1669   3.897   5.793   6.474
  576TIP3    H2 1670   3.925   5.776   6.622
  577TIP3   OH2 1671   6.289   6.088   1.387
  577TIP3    H1 1672   6.233   6.036   1.329
  577TIP3    H2 1673   6.331   6.023   1.444
  578TIP3   OH2 1674   1.622   2.030   6.085
  578TIP3    H1 1675   1.625   2.120   6.053
  578TIP3    H2 1676   1.649   2.036   6.176
  579TIP3   OH2 1677   3.046   1.827   4.781
  579TIP3    H1 1678   2.966   1.828   4.834
  579TIP3    H2 1679   3.108   1.882   4.829
  580TIP3   OH2 1680   4.644   3.255   3.809
  580TIP3    H1 1681   4.653   3.219   3.897
  580TIP3    H2 1682   4.730   3.293   3.790
  581TIP3   OH2 1683   3.157   2.188   3.718
  581TIP3    H1 1684   3.147   2.281   3.695
  581TIP3    H2 1685   3.125   2.183   3.809
  582TIP3   OH2 1686   2.806   3.375   4.401
  582TIP3    H1 1687   2.763   3.333   4.476
  582TIP3    H2 1688   2.739   3.431   4.363
  583TIP3   OH2 1689   0.298   3.774   0.041
  583TIP3    H1 1690   0.251   3.709  -0.011
  583TIP3    H2 1691   0.234   3.843   0.056
  584TIP3   OH2 1692   5.087   2.304   1.552
  584TIP3    H1 1693   5.021   2.238   1.529
  584TIP3    H2 1694   5.067   2.378   1.495
  585TIP3   OH2 1695   0.293   6.510   2.385
  585TIP3    H1 1696   0.286   6.485   2.478
  585TIP3    H2 1697   0.215   6.471   2.345
  586TIP3   OH2 1698   7.566   2.053   6.252
  586TIP3    H1 1699   7.601   2.004   6.326
  586TIP3    H2 1700   7.587   2.145   6.273
  587TIP3   OH2 1701   1.251   5.719   4.469
  587TIP3    H1 1702   1.277   5.754   4.554
  587TIP3    H2 1703   1.157   5.703   4.476
  588TIP3   OH2 1704   7.590   0.461   4.793
  588TIP3    H1 1705   7.528   0.402   4.751
  588TIP3    H2 1706   7.625   0.411   4.867
  589TIP3   OH2 1707  -0.005   4.071   3.606
  589TIP3    H1 1708   0.008   4.043   3.516
  589TIP3    H2 1709   0.071   4.125   3.626
  590TIP3   OH2 1710   0.657   4.256   0.680
  590TIP3    H1 1711   0.580   4.309   0.699
  590TIP3    H2 1712   0.722   4.282   0.746
  591TIP3   OH2 1713   3.333   3.285   3.206
  591TIP3    H1 1714   3.325   3.213   3.269
  591TIP3    H2 1715   3.279   3.257   3.132
  592TIP3   OH2 1716   1.298   6.152   3.317
  592TIP3    H1 1717   1.339   6.150   3.230
  592TIP3    H2 1718   1.320   6.067   3.356
  593TIP3   OH2 1719   2.456   4.970   1.948
  593TIP3    H1 1720   2.483   4.950   2.038
  593TIP3    H2 1721   2.504   4.907   1.894
  594TIP3   OH2 1722   7.673   5.675   4.887
  594TIP3    H1 1723   7.740   5.648   4.824
  594TIP3    H2 1724   7.661   5.768   4.871
  595TIP3   OH2 1725   4.164   7.113   1.380
  595TIP3    H1 1726   4.242   7.104   1.326
  595TIP3    H2 1727   4.095   7.069   1.330
  596TIP3   OH2 1728   7.157   6.437   1.188
  596TIP3    H1 1729   7.088   6.446   1.122
  596TIP3    H2 1730   7.111   6.422   1.270
  597TIP3   OH2 1731   4.631   5.374   0.818
  597TIP3    H1 1732   4.553   5.424   0.792
  597TIP3    H2 1733   4.703   5.417   0.772
  598TIP3   OH2 1734   2.144   1.193   5.034
  598TIP3    H1 1735   2.176   1.234   5.115
  598TIP3    H2 1736   2.120   1.104   5.060
  599TIP3   OH2 1737   2.217   4.939   6.416
  599TIP3    H1 1738   2.203   5.031   6.394
  599TIP3    H2 1739   2.311   4.925   6.401
  600TIP3   OH2 1740   7.485   0.798   6.691
  600TIP3    H1 1741   7.391   0.806   6.702
  600TIP3    H2 1742   7.521   0.806   6.779
  601TIP3   OH2 1743   0.586   6.125   5.547
  601TIP3    H1 1744   0.511   6.149   5.491
  601TIP3    H2 1745   0.610   6.037   5.517
  602TIP3   OH2 1746   5.112   4.203   4.846
  602TIP3    H1 1747   5.138   4.215   4.937
  602TIP3    H2 1748   5.156   4.122   4.819
  603TIP3   OH2 1749   2.902   3.905   5.654
  603TIP3    H1 1750   2.880   3.825   5.607
  603TIP3    H2 1751   2.980   3.883   5.704
  604TIP3   OH2 1752   3.680   7.366   4.267
  604TIP3    H1 1753   3.741   7.407   4.328
  604TIP3    H2 1754   3.607   7.428   4.261
  605TIP3   OH2 1755   7.582   2.455   5.664
  605TIP3    H1 1756   7.647   2.409   5.611
  605TIP3    H2 1757   7.521   2.387   5.693
  606TIP3   OH2 1758   3.793   0.316   6.770
  606TIP3    H1 1759   3.745   0.375   6.713
  606TIP3    H2 1760   3.882   0.316   6.735
  607TIP3   OH2 1761   5.454   1.816   4.363
  607TIP3    H1 1762   5.533   1.867   4.378
  607TIP3    H2 1763   5.483   1.725   4.363
  608TIP3   OH2 1764   1.649   7.136   0.091
  608TIP3    H1 1765   1.573   7.192   0.075
  608TIP3    H2 1766   1.687   7.169   0.172
  609TIP3   OH2 1767   3.384   0.193   4.015
  609TIP3    H1 1768   3.465   0.147   3.994
  609TIP3    H2 1769   3.320   0.157   3.954
  610TIP3   OH2 1770   7.698   4.031   5.605
  610TIP3    H1 1771   7.628   3.986   5.558
  610TIP3    H2 1772   7.661   4.049   5.691
  611TIP3   OH2 1773   0.644   4.713   6.151
  611TIP3    H1 1774   0.618   4.630   6.111
  611TIP3    H2 1775   0.675   4.766   6.078
  612TIP3   OH2 1776   7.630   6.902   0.969
  612TIP3    H1 1777   7.663   6.885   1.058
  612TIP3    H2 1778   7.709   6.915   0.917
  613TIP3   OH2 1779   6.378   4.761   4.818
  613TIP3    H1 1780   6.452   4.757   4.757
  613TIP3    H2 1781   6.419   4.769   4.904
  614TIP3   OH2 1782   0.807   2.706   1.016
  614TIP3    H1 1783   0.840   2.623   0.983
  614TIP3    H2 1784   0.821   2.703   1.110
  615TIP3   OH2 1785   7.527   0.818   4.412
  615TIP3    H1 1786   7.527   0.726   4.435
  615TIP3    H2 1787   7.477   0.823   4.330
  616TIP3   OH2 1788   4.352   2.444   1.976
  616TIP3    H1 1789   4.443   2.441   2.006
  616TIP3    H2 1790   4.308   2.375   2.027
  617TIP3   OH2 1791   1.321   4.191   4.923
  617TIP3    H1 1792   1.321   4.282   4.894
  617TIP3    H2 1793   1.368   4.193   5.007
  618TIP3   OH2 1794   1.529   7.673   4.387
  618TIP3    H1 1795   1.479   7.596   4.362
  618TIP3    H2 1796   1.613   7.662   4.343
  619TIP3   OH2 1797   5.358   7.411   1.582
  619TIP3    H1 1798   5.403   7.495   1.569
  619TIP3    H2 1799   5.265   7.432   1.577
  620TIP3   OH2 1800   4.120   2.985   4.822
  620TIP3    H1 1801   4.125   2.890   4.830
  620TIP3    H2 1802   4.190   3.018   4.878
  621TIP3   OH2 1803   2.448   3.235   2.464
  621TIP3    H1 1804   2.488   3.278   2.540
  621TIP3    H2 1805   2.356   3.259   2.469
  622TIP3   OH2 1806   5.724   5.384   3.116
  622TIP3    H1 1807   5.637   5.405   3.150
  622TIP3    H2 1808   5.746   5.300   3.157
  623TIP3   OH2 1809   3.614   3.392   4.193
  623TIP3    H1 1810   3.645   3.319   4.139
  623TIP3    H2 1811   3.662   3.468   4.161
  624TIP3   OH2 1812   4.953   3.274   4.172
  624TIP3    H1 1813   4.964   3.291   4.079
  624TIP3    H2 1814   4.908   3.351   4.206
  625TIP3   OH2 1815   8.090   4.471   4.999
  625TIP3    H1 1816   8.035   4.541   5.035
  625TIP3    H2 1817   8.103   4.496   4.908
  626TIP3   OH2 1818   6.873   5.062   4.781
  626TIP3    H1 1819   6.833   5.140   4.820
  626TIP3    H2 1820   6.829   4.988   4.823
  627TIP3   OH2 1821   6.317   3.229   5.067
  627TIP3    H1 1822   6.392   3.281   5.041
  627TIP3    H2 1823   6.257   3.291   5.110
  628TIP3   OH2 1824   0.775   0.954   0.841
  628TIP3    H1 1825   0.689   0.914   0.855
  628TIP3    H2 1826   0.814   0.903   0.771
  629TIP3   OH2 1827   7.211   5.152   5.735
  629TIP3    H1 1828   7.261   5.070   5.727
  629TIP3    H2 1829   7.234   5.201   5.656
  630TIP3   OH2 1830   2.968   0.919   1.731
  630TIP3    H1 1831   3.028   0.911   1.805
  630TIP3    H2 1832   2.904   0.985   1.759
  631TIP3   OH2 1833   4.939   4.448   6.143
  631TIP3    H1 1834   4.934   4.357   6.174
  631TIP3    H2 1835   4.848   4.477   6.137
  632TIP3   OH2 1836   0.138   1.739   4.145
  632TIP3    H1 1837   0.229   1.760   4.166
  632TIP3    H2 1838   0.093   1.738   4.230
  633TIP3   OH2 1839   3.761   4.701   2.512
  633TIP3    H1 1840   3.754   4.657   2.428
  633TIP3    H2 1841   3.783   4.631   2.574
  634TIP3   OH2 1842   7.693   1.647   2.114
  634TIP3    H1 1843   7.750   1.580   2.076
  634TIP3    H2 1844   7.604   1.612   2.102
  635TIP3   OH2 1845   0.748   3.251   1.751
  635TIP3    H1 1846   0.781   3.262   1.840
  635TIP3    H2 1847   0.778   3.330   1.705
  636TIP3   OH2 1848   6.204   5.163   3.067
  636TIP3    H1 1849   6.288   5.118   3.077
  636TIP3    H2 1850   6.226   5.256   3.073
  637TIP3   OH2 1851   0.341   7.941   5.876
  637TIP3    H1 1852   0.251   7.907   5.873
  637TIP3    H2 1853   0.381   7.897   5.951
  638TIP3   OH2 1854   0.599   7.095   0.062
  638TIP3    H1 1855   0.676   7.144   0.035
  638TIP3    H2 1856   0.541   7.161   0.099
  639TIP3   OH2 1857   7.683   6.888   0.376
  639TIP3    H1 1858   7.718   6.870   0.463
  639TIP3    H2 1859   7.596   6.926   0.393
  640TIP3   OH2 1860   8.211   4.265   4.223
  640TIP3    H1 1861   8.177   4.289   4.309
  640TIP3    H2 1862   8.150   4.199   4.190
  641TIP3   OH2 1863   3.659   2.264   5.895
  641TIP3    H1 1864   3.740   2.253   5.845
  641TIP3    H2 1865   3.688   2.288   5.983
  642TIP3   OH2 1866   5.525   5.864   5.554
  642TIP3    H1 1867   5.530   5.882   5.648
  642TIP3    H2 1868   5.458   5.923   5.521
  643TIP3   OH2 1869   5.015   4.228   4.439
  643TIP3    H1 1870   4.937   4.193   4.482
  643TIP3    H2 1871   4.983   4.301   4.386
  644TIP3   OH2 1872   0.355   7.581   6.004
  644TIP3    H1 1873   0.316   7.496   5.987
  644TIP3    H2 1874   0.284   7.644   5.990
  645TIP3   OH2 1875   5.147   3.152   5.208
  645TIP3    H1 1876   5.061   3.139   5.249
  645TIP3    H2 1877   5.162   3.246   5.215
  646TIP3   OH2 1878   1.606   5.576   4.576
  646TIP3    H1 1879   1.579   5.568   4.484
  646TIP3    H2 1880   1.665   5.502   4.590
  647TIP3   OH2 1881   2.469   5.682   2.047
  647TIP3    H1 1882   2.389   5.640   2.080
  647TIP3    H2 1883   2.524   5.610   2.017
  648TIP3   OH2 1884   2.215   0.291   5.808
  648TIP3    H1 1885   2.228   0.349   5.883
  648TIP3    H2 1886   2.130   0.316   5.773
  649TIP3   OH2 1887   3.602   5.411   5.512
  649TIP3    H1 1888   3.671   5.477   5.526
  649TIP3    H2 1889   3.630   5.364   5.433
  650TIP3   OH2 1890   6.499   6.209   6.555
  650TIP3    H1 1891   6.527   6.299   6.571
  650TIP3    H2 1892   6.560   6.178   6.487
  651TIP3   OH2 1893   3.104   7.378   5.668
  651TIP3    H1 1894   3.086   7.428   5.748
  651TIP3    H2 1895   3.189   7.412   5.638
  652TIP3   OH2 1896   3.405   2.081   5.536
  652TIP3    H1 1897   3.385   1.988   5.526
  652TIP3    H2 1898   3.501   2.085   5.530
  653TIP3   OH2 1899   2.537   1.756   5.215
  653TIP3    H1 1900   2.442   1.765   5.222
  653TIP3    H2 1901   2.564   1.831   5.161
  654TIP3   OH2 1902   0.699   6.614   3.085
  654TIP3    H1 1903   0.610   6.630   3.116
  654TIP3    H2 1904   0.720   6.525   3.115
  655TIP3   OH2 1905   2.450   3.275   1.116
  655TIP3    H1 1906   2.372   3.235   1.154
  655TIP3    H2 1907   2.417   3.349   1.065
  656TIP3   OH2 1908   6.678   3.120   6.851
  656TIP3    H1 1909   6.608   3.178   6.879
  656TIP3    H2 1910   6.704   3.073   6.930
  657TIP3   OH2 1911   2.712   3.435   2.582
  657TIP3    H1 1912   2.759   3.440   2.499
  657TIP3    H2 1913   2.671   3.522   2.591
  658TIP3   OH2 1914   1.926   6.764   3.035
  658TIP3    H1 1915   1.898   6.776   3.126
  658TIP3    H2 1916   1.932   6.854   3.001
  659TIP3   OH2 1917   1.534   0.444   6.659
  659TIP3    H1 1918   1.528   0.524   6.607
  659TIP3    H2 1919   1.447   0.405   6.653
  660TIP3   OH2 1920   3.470   2.093   2.490
  660TIP3    H1 1921   3.472   2.031   2.416
  660TIP3    H2 1922   3.507   2.173   2.454
  661TIP3   OH2 1923   3.813   1.652   5.607
  661TIP3    H1 1924   3.880   1.585   5.600
  661TIP3    H2 1925   3.766   1.631   5.688
  662TIP3   OH2 1926   4.269   0.533   3.262
  662TIP3    H1 1927   4.314   0.592   3.323
  662TIP3    H2 1928   4.296   0.445   3.289
  663TIP3   OH2 1929   2.605   1.373   3.577
  663TIP3    H1 1930   2.606   1.349   3.484
  663TIP3    H2 1931   2.517   1.407   3.592
  664TIP3   OH2 1932   2.166   3.318   2.473
  664TIP3    H1 1933   2.129   3.298   2.559
  664TIP3    H2 1934   2.109   3.386   2.438
  665TIP3   OH2 1935   8.407   4.137   4.422
  665TIP3    H1 1936   8.387   4.165   4.511
  665TIP3    H2 1937   8.338   4.074   4.400
  666TIP3   OH2 1938   8.091   4.892   0.156
  666TIP3    H1 1939   8.133   4.971   0.192
  666TIP3    H2 1940   8.135   4.820   0.201
  667TIP3   OH2 1941   7.199   4.192   5.635
  667TIP3    H1 1942   7.116   4.147   5.647
  667TIP3    H2 1943   7.200   4.218   5.543
  668TIP3   OH2 1944   4.801   0.245   0.900
  668TIP3    H1 1945   4.881   0.194   0.888
  668TIP3    H2 1946   4.818   0.327   0.855
  669TIP3   OH2 1947   7.678   2.576   1.153
  669TIP3    H1 1948   7.751   2.631   1.180
  669TIP3    H2 1949   7.672   2.508   1.220
  670TIP3   OH2 1950   3.643   5.024   2.274
  670TIP3    H1 1951   3.634   5.067   2.360
  670TIP3    H2 1952   3.554   4.997   2.253
  671TIP3   OH2 1953   6.594   5.870   1.050
  671TIP3    H1 1954   6.606   5.962   1.072
  671TIP3    H2 1955   6.659   5.824   1.103
  672TIP3   OH2 1956   1.037   5.300   5.918
  672TIP3    H1 1957   1.086   5.224   5.949
  672TIP3    H2 1958   1.002   5.340   5.998
  673TIP3   OH2 1959   3.644   2.056   1.195
  673TIP3    H1 1960   3.576   2.088   1.254
  673TIP3    H2 1961   3.679   1.978   1.239
  674TIP3   OH2 1962   3.916   3.395   5.834
  674TIP3    H1 1963   3.937   3.397   5.741
  674TIP3    H2 1964   3.920   3.302   5.857
  675TIP3   OH2 1965   0.120   6.269   6.543
  675TIP3    H1 1966   0.151   6.199   6.600
  675TIP3    H2 1967   0.047   6.309   6.590
  676TIP3   OH2 1968   4.743   7.742   1.775
  676TIP3    H1 1969   4.669   7.682   1.771
  676TIP3    H2 1970   4.820   7.685   1.774
  677TIP3   OH2 1971   6.158   6.307   2.087
  677TIP3    H1 1972   6.080   6.331   2.037
  677TIP3    H2 1973   6.130   6.309   2.178
  678TIP3   OH2 1974   3.148   6.031   4.582
  678TIP3    H1 1975   3.173   5.939   4.596
  678TIP3    H2 1976   3.230   6.079   4.593
  679TIP3   OH2 1977   0.577   4.401   6.453
  679TIP3    H1 1978   0.594   4.317   6.412
  679TIP3    H2 1979   0.651   4.456   6.427
  680TIP3   OH2 1980   2.897   0.540   4.836
  680TIP3    H1 1981   2.835   0.471   4.814
  680TIP3    H2 1982   2.946   0.505   4.911
  681TIP3   OH2 1983   5.992   3.888   0.091
  681TIP3    H1 1984   5.998   3.967   0.146
  681TIP3    H2 1985   6.058   3.900   0.024
  682TIP3   OH2 1986   0.351   0.040   5.510
  682TIP3    H1 1987   0.356   0.135   5.523
  682TIP3    H2 1988   0.438   0.007   5.533
  683TIP3   OH2 1989   6.565   5.943   6.428
  683TIP3    H1 1990   6.603   5.863   6.393
  683TIP3    H2 1991   6.616   6.014   6.388
  684TIP3   OH2 1992   5.007   7.871   3.111
  684TIP3    H1 1993   5.047   7.789   3.084
  684TIP3    H2 1994   4.920   7.847   3.144
  685TIP3   OH2 1995   6.529   2.038   6.516
  685TIP3    H1 1996   6.552   1.954   6.557
  685TIP3    H2 1997   6.613   2.082   6.504
  686TIP3   OH2 1998   0.941   1.148   3.999
  686TIP3    H1 1999   0.912   1.175   3.912
  686TIP3    H2 2000   0.931   1.226   4.053
  687TIP3   OH2 2001   1.663   0.319   1.716
  687TIP3    H1 2002   1.621   0.235   1.734
  687TIP3    H2 2003   1.725   0.332   1.787
  688TIP3   OH2 2004   2.616   0.090   1.028
  688TIP3    H1 2005   2.595  -0.001   1.048
  688TIP3    H2 2006   2.696   0.108   1.077
  689TIP3   OH2 2007   5.007   5.159   1.073
  689TIP3    H1 2008   4.984   5.123   0.988
  689TIP3    H2 2009   5.099   5.135   1.085
  690TIP3   OH2 2010   7.527   7.287   4.799
  690TIP3    H1 2011   7.565   7.241   4.724
  690TIP3    H2 2012   7.456   7.229   4.828
  691TIP3   OH2 2013   2.207   3.671   6.347
  691TIP3    H1 2014   2.148   3.703   6.416
  691TIP3    H2 2015   2.267   3.612   6.392
  692TIP3   OH2 2016   0.599   1.524   3.832
  692TIP3    H1 2017   0.520   1.514   3.885
  692TIP3    H2 2018   0.569   1.512   3.742
  693TIP3   OH2 2019   4.407   0.343   2.442
  693TIP3    H1 2020   4.481   0.344   2.381
  693TIP3    H2 2021   4.389   0.250   2.456
  694TIP3   OH2 2022   1.948   6.823   5.515
  694TIP3    H1 2023   1.991   6.809   5.599
  694TIP3    H2 2024   2.005   6.778   5.451
  695TIP3   OH2 2025   3.740   1.587   2.961
  695TIP3    H1 2026   3.829   1.564   2.988
  695TIP3    H2 2027   3.702   1.505   2.930
  696TIP3   OH2 2028   4.696   1.495   6.169
  696TIP3    H1 2029   4.753   1.491   6.092
  696TIP3    H2 2030   4.608   1.476   6.136
  697TIP3   OH2 2031   3.260   5.494   2.428
  697TIP3    H1 2032   3.275   5.570   2.372
  697TIP3    H2 2033   3.234   5.530   2.512
  698TIP3   OH2 2034   6.810   6.878   4.707
  698TIP3    H1 2035   6.793   6.971   4.693
  698TIP3    H2 2036   6.849   6.874   4.794
  699TIP3   OH2 2037   4.798   0.324   6.612
  699TIP3    H1 2038   4.738   0.327   6.686
  699TIP3    H2 2039   4.762   0.258   6.554
  700TIP3   OH2 2040   7.930   2.743   2.691
  700TIP3    H1 2041   7.982   2.668   2.720
  700TIP3    H2 2042   7.915   2.794   2.770
  701TIP3   OH2 2043   1.287   2.211   0.309
  701TIP3    H1 2044   1.371   2.179   0.342
  701TIP3    H2 2045   1.310   2.276   0.244
  702TIP3   OH2 2046   4.101   3.361   1.880
  702TIP3    H1 2047   4.191   3.342   1.906
  702TIP3    H2 2048   4.086   3.451   1.907
  703TIP3   OH2 2049   0.145   6.524   3.240
  703TIP3    H1 2050   0.174   6.566   3.321
  703TIP3    H2 2051   0.157   6.591   3.173
  704TIP3   OH2 2052   6.583   5.316   4.061
  704TIP3    H1 2053   6.531   5.246   4.100
  704TIP3    H2 2054   6.657   5.327   4.120
  705TIP3   OH2 2055   0.078   4.217   2.032
  705TIP3    H1 2056   0.087   4.134   1.985
  705TIP3    H2 2057  -0.012   4.245   2.016
  706TIP3   OH2 2058   0.596   1.515   6.069
  706TIP3    H1 2059   0.676   1.499   6.019
  706TIP3    H2 2060   0.626   1.539   6.156
  707TIP3   OH2 2061   1.635   1.000   3.347
  707TIP3    H1 2062   1.695   1.032   3.280
  707TIP3    H2 2063   1.566   1.066   3.351
  708TIP3   OH2 2064   4.692   0.717   0.570
  708TIP3    H1 2065   4.664   0.795   0.522
  708TIP3    H2 2066   4.699   0.649   0.503
  709TIP3   OH2 2067   6.120   2.182   1.234
  709TIP3    H1 2068   6.124   2.087   1.222
  709TIP3    H2 2069   6.125   2.195   1.328
  710TIP3   OH2 2070   3.039   6.836   1.369
  710TIP3    H1 2071   3.006   6.891   1.440
  710TIP3    H2 2072   3.037   6.747   1.405
  711TIP3   OH2 2073   7.694   3.509   3.316
  711TIP3    H1 2074   7.632   3.504   3.243
  711TIP3    H2 2075   7.640   3.523   3.393
  712TIP3   OH2 2076   4.114   1.842   4.995
  712TIP3    H1 2077   4.107   1.889   4.912
  712TIP3    H2 2078   4.161   1.762   4.974
  713TIP3   OH2 2079   4.604   5.041   1.379
  713TIP3    H1 2080   4.523   4.991   1.372
  713TIP3    H2 2081   4.639   5.044   1.290
  714TIP3   OH2 2082   7.414   1.041   5.463
  714TIP3    H1 2083   7.335   1.008   5.506
  714TIP3    H2 2084   7.472   0.965   5.457
  715TIP3   OH2 2085   2.370   2.832   1.760
  715TIP3    H1 2086   2.292   2.884   1.743
  715TIP3    H2 2087   2.363   2.808   1.852
  716TIP3   OH2 2088   8.276   0.856   6.843
  716TIP3    H1 2089   8.229   0.773   6.845
  716TIP3    H2 2090   8.249   0.897   6.761
  717TIP3   OH2 2091   6.776   6.917   1.231
  717TIP3    H1 2092   6.802   7.009   1.236
  717TIP3    H2 2093   6.788   6.884   1.320
  718TIP3   OH2 2094   4.695   2.613   3.575
  718TIP3    H1 2095   4.694   2.674   3.501
  718TIP3    H2 2096   4.697   2.526   3.535
  719TIP3   OH2 2097   6.212   6.570   3.934
  719TIP3    H1 2098   6.279   6.625   3.892
  719TIP3    H2 2099   6.224   6.585   4.028
  720TIP3   OH2 2100   1.302   4.582   3.466
  720TIP3    H1 2101   1.350   4.616   3.390
  720TIP3    H2 2102   1.224   4.638   3.471
  721TIP3   OH2 2103   3.820   6.916   0.789
  721TIP3    H1 2104   3.771   6.945   0.712
  721TIP3    H2 2105   3.763   6.934   0.863
  722TIP3   OH2 2106   7.617   1.933   1.620
  722TIP3    H1 2107   7.611   2.003   1.685
  722TIP3    H2 2108   7.563   1.964   1.547
  723TIP3   OH2 2109   3.348   0.744   4.959
  723TIP3    H1 2110   3.376   0.784   5.041
  723TIP3    H2 2111   3.253   0.755   4.958
  724TIP3   OH2 2112   0.620   3.973   1.579
  724TIP3    H1 2113   0.593   3.998   1.490
  724TIP3    H2 2114   0.624   4.056   1.627
  725TIP3   OH2 2115   2.651   3.843   0.806
  725TIP3    H1 2116   2.609   3.756   0.803
  725TIP3    H2 2117   2.689   3.848   0.893
  726TIP3   OH2 2118   5.886   3.645   4.392
  726TIP3    H1 2119   5.924   3.714   4.445
  726TIP3    H2 2120   5.960   3.597   4.356
  727TIP3   OH2 2121   2.460   0.811   6.296
  727TIP3    H1 2122   2.539   0.848   6.335
  727TIP3    H2 2123   2.388   0.860   6.337
  728TIP3   OH2 2124   5.249   0.974   1.071
  728TIP3    H1 2125   5.180   0.975   1.137
  728TIP3    H2 2126   5.324   1.014   1.115
  729TIP3   OH2 2127   3.012   6.998   6.574
  729TIP3    H1 2128   3.102   7.017   6.547
  729TIP3    H2 2129   3.013   6.904   6.595
  730TIP3   OH2 2130   5.706   4.991   3.152
  730TIP3    H1 2131   5.644   5.036   3.210
  730TIP3    H2 2132   5.783   5.047   3.152
  731TIP3   OH2 2133   0.330   3.568   0.670
  731TIP3    H1 2134   0.388   3.524   0.608
  731TIP3    H2 2135   0.270   3.500   0.699
  732TIP3   OH2 2136   8.192   2.243   4.858
  732TIP3    H1 2137   8.153   2.166   4.816
  732TIP3    H2 2138   8.148   2.250   4.943
  733TIP3   OH2 2139   7.899   4.602   6.481
  733TIP3    H1 2140   7.844   4.680   6.490
  733TIP3    H2 2141   7.889   4.577   6.389
  734TIP3   OH2 2142   3.808   5.755   0.412
  734TIP3    H1 2143   3.865   5.766   0.336
  734TIP3    H2 2144   3.764   5.839   0.422
  735TIP3   OH2 2145   2.121   6.032   1.387
  735TIP3    H1 2146   2.075   6.021   1.304
  735TIP3    H2 2147   2.211   6.004   1.369
  736TIP3   OH2 2148   3.736   4.318   4.946
  736TIP3    H1 2149   3.684   4.253   4.898
  736TIP3    H2 2150   3.752   4.388   4.883
  737TIP3   OH2 2151   2.581   3.607   4.626
  737TIP3    H1 2152   2.558   3.664   4.699
  737TIP3    H2 2153   2.577   3.663   4.549
  738TIP3   OH2 2154   2.909   6.446   2.582
  738TIP3    H1 2155   2.942   6.418   2.496
  738TIP3    H2 2156   2.984   6.435   2.641
  739TIP3   OH2 2157   7.088   6.120   1.319
  739TIP3    H1 2158   7.000   6.086   1.303
  739TIP3    H2 2159   7.140   6.088   1.245
  740TIP3   OH2 2160   0.610   0.145   5.506
  740TIP3    H1 2161   0.668   0.142   5.429
  740TIP3    H2 2162   0.639   0.223   5.553
  741TIP3   OH2 2163   2.729   2.758   6.785
  741TIP3    H1 2164   2.775   2.842   6.785
  741TIP3    H2 2165   2.783   2.701   6.731
  742TIP3   OH2 2166   7.431   6.683   3.128
  742TIP3    H1 2167   7.521   6.656   3.109
  742TIP3    H2 2168   7.440   6.755   3.190
  743TIP3   OH2 2169   1.665   1.592   1.302
  743TIP3    H1 2170   1.660   1.499   1.281
  743TIP3    H2 2171   1.686   1.595   1.395
  744TIP3   OH2 2172   7.994   3.571   6.742
  744TIP3    H1 2173   7.976   3.657   6.704
  744TIP3    H2 2174   7.907   3.533   6.757
  745TIP3   OH2 2175   6.469   3.870   1.442
  745TIP3    H1 2176   6.522   3.790   1.434
  745TIP3    H2 2177   6.499   3.910   1.523
  746TIP3   OH2 2178   4.754   6.067   3.689
  746TIP3    H1 2179   4.691   6.001   3.659
  746TIP3    H2 2180   4.802   6.091   3.610
  747TIP3   OH2 2181   2.939   2.220   1.949
  747TIP3    H1 2182   2.934   2.310   1.917
  747TIP3    H2 2183   3.026   2.190   1.924
  748TIP3   OH2 2184   7.990   0.286   3.424
  748TIP3    H1 2185   8.006   0.377   3.398
  748TIP3    H2 2186   7.895   0.279   3.430
  749TIP3   OH2 2187   0.512   2.619   0.803
  749TIP3    H1 2188   0.434   2.611   0.858
  749TIP3    H2 2189   0.528   2.531   0.771
  750TIP3   OH2 2190   5.788   2.948  -0.003
  750TIP3    H1 2191   5.819   2.861  -0.028
  750TIP3    H2 2192   5.853   2.978   0.061
  751TIP3   OH2 2193   0.525   0.145   2.568
  751TIP3    H1 2194   0.495   0.225   2.526
  751TIP3    H2 2195   0.613   0.166   2.599
  752TIP3   OH2 2196   5.212   2.330   2.702
  752TIP3    H1 2197   5.292   2.306   2.749
  752TIP3    H2 2198   5.210   2.271   2.627
  753TIP3   OH2 2199   6.350   2.516   2.739
  753TIP3    H1 2200   6.304   2.572   2.676
  753TIP3    H2 2201   6.376   2.575   2.809
  754TIP3   OH2 2202   2.784   7.631   5.046
  754TIP3    H1 2203   2.764   7.586   4.964
  754TIP3    H2 2204   2.780   7.562   5.113
  755TIP3   OH2 2205   0.355   4.415   3.575
  755TIP3    H1 2206   0.440   4.371   3.572
  755TIP3    H2 2207   0.372   4.498   3.619
  756TIP3   OH2 2208   0.224   5.499   5.007
  756TIP3    H1 2209   0.148   5.556   4.997
  756TIP3    H2 2210   0.297   5.558   5.027
  757TIP3   OH2 2211   5.294   3.281   5.998
  757TIP3    H1 2212   5.260   3.340   5.931
  757TIP3    H2 2213   5.241   3.301   6.076
  758TIP3   OH2 2214   0.541   1.518   5.759
  758TIP3    H1 2215   0.615   1.466   5.790
  758TIP3    H2 2216   0.535   1.591   5.821
  759TIP3   OH2 2217   1.441   0.521   1.016
  759TIP3    H1 2218   1.427   0.609   0.982
  759TIP3    H2 2219   1.395   0.463   0.956
  760TIP3   OH2 2220   6.957   3.842   3.166
  760TIP3    H1 2221   6.981   3.750   3.159
  760TIP3    H2 2222   6.881   3.843   3.225
  761TIP3   OH2 2223   4.335   1.123   1.482
  761TIP3    H1 2224   4.255   1.122   1.534
  761TIP3    H2 2225   4.309   1.087   1.398
  762TIP3   OH2 2226   5.929   6.649   5.630
  762TIP3    H1 2227   5.984   6.609   5.698
  762TIP3    H2 2228   5.989   6.665   5.557
  763TIP3   OH2 2229   7.995   4.305   1.669
  763TIP3    H1 2230   7.967   4.331   1.757
  763TIP3    H2 2231   8.084   4.340   1.662
  764TIP3   OH2 2232   3.877   0.435   4.096
  764TIP3    H1 2233   3.931   0.512   4.077
  764TIP3    H2 2234   3.846   0.405   4.010
  765TIP3   OH2 2235   2.621   0.892   3.742
  765TIP3    H1 2236   2.563   0.945   3.687
  765TIP3    H2 2237   2.691   0.866   3.682
  766TIP3   OH2 2238   6.542   6.807   2.755
  766TIP3    H1 2239   6.561   6.726   2.709
  766TIP3    H2 2240   6.516   6.869   2.687
  767TIP3   OH2 2241   2.142   2.816   3.730
  767TIP3    H1 2242   2.143   2.723   3.751
  767TIP3    H2 2243   2.052   2.844   3.747
  768TIP3   OH2 2244   3.459   1.211   2.615
  768TIP3    H1 2245   3.418   1.139   2.566
  768TIP3    H2 2246   3.421   1.290   2.576
  769TIP3   OH2 2247   0.742   2.585   3.948
  769TIP3    H1 2248   0.709   2.652   4.008
  769TIP3    H2 2249   0.784   2.634   3.877
  770TIP3   OH2 2250   7.472   1.520   3.577
  770TIP3    H1 2251   7.413   1.521   3.502
  770TIP3    H2 2252   7.530   1.445   3.562
  771TIP3   OH2 2253   1.352   3.620   1.065
  771TIP3    H1 2254   1.269   3.668   1.067
  771TIP3    H2 2255   1.408   3.672   1.008
  772TIP3   OH2 2256   0.840   1.534   3.058
  772TIP3    H1 2257   0.934   1.535   3.077
  772TIP3    H2 2258   0.836   1.523   2.963
  773TIP3   OH2 2259   1.131   2.678   5.600
  773TIP3    H1 2260   1.182   2.714   5.528
  773TIP3    H2 2261   1.161   2.726   5.677
  774TIP3   OH2 2262   4.318   4.482   2.524
  774TIP3    H1 2263   4.271   4.431   2.459
  774TIP3    H2 2264   4.282   4.570   2.518
  775TIP3   OH2 2265   5.253   7.147   1.852
  775TIP3    H1 2266   5.238   7.057   1.880
  775TIP3    H2 2267   5.182   7.165   1.790
  776TIP3   OH2 2268   0.106   7.466   2.522
  776TIP3    H1 2269   0.160   7.542   2.541
  776TIP3    H2 2270   0.090   7.426   2.608
  777TIP3   OH2 2271   4.866   1.733   3.654
  777TIP3    H1 2272   4.809   1.696   3.587
  777TIP3    H2 2273   4.843   1.826   3.657
  778TIP3   OH2 2274   1.796   2.863   2.639
  778TIP3    H1 2275   1.792   2.959   2.643
  778TIP3    H2 2276   1.747   2.839   2.561
  779TIP3   OH2 2277   7.016   3.269   3.067
  779TIP3    H1 2278   6.981   3.194   3.115
  779TIP3    H2 2279   7.103   3.283   3.105
  780TIP3   OH2 2280   5.652   4.165   3.383
  780TIP3    H1 2281   5.643   4.108   3.307
  780TIP3    H2 2282   5.651   4.106   3.458
  781TIP3   OH2 2283   7.009   6.627   4.995
  781TIP3    H1 2284   6.933   6.685   4.998
  781TIP3    H2 2285   7.084   6.685   5.014
  782TIP3   OH2 2286   0.090   1.757   0.394
  782TIP3    H1 2287   0.144   1.688   0.433
  782TIP3    H2 2288   0.005   1.749   0.438
  783TIP3   OH2 2289   3.962   3.885   4.904
  783TIP3    H1 2290   3.881   3.936   4.901
  783TIP3    H2 2291   4.027   3.945   4.940
  784TIP3   OH2 2292   8.230   4.302   1.982
  784TIP3    H1 2293   8.160   4.364   1.963
  784TIP3    H2 2294   8.192   4.242   2.046
  785TIP3   OH2 2295   2.995   5.318   6.232
  785TIP3    H1 2296   3.083   5.337   6.198
  785TIP3    H2 2297   3.009   5.307   6.326
  786TIP3   OH2 2298   6.629   0.340   1.371
  786TIP3    H1 2299   6.711   0.388   1.383
  786TIP3    H2 2300   6.568   0.404   1.337
  787TIP3   OH2 2301   1.331   1.863   4.043
  787TIP3    H1 2302   1.309   1.844   3.952
  787TIP3    H2 2303   1.288   1.793   4.093
  788TIP3   OH2 2304   8.161   4.934   5.814
  788TIP3    H1 2305   8.124   5.022   5.817
  788TIP3    H2 2306   8.250   4.946   5.783
  789TIP3   OH2 2307   2.910   1.642   6.773
  789TIP3    H1 2308   2.938   1.593   6.850
  789TIP3    H2 2309   2.954   1.727   6.782
  790TIP3   OH2 2310   2.357   4.604   5.346
  790TIP3    H1 2311   2.395   4.546   5.411
  790TIP3    H2 2312   2.346   4.549   5.268
  791TIP3   OH2 2313   4.911   6.062   1.784
  791TIP3    H1 2314   4.852   6.118   1.834
  791TIP3    H2 2315   4.995   6.109   1.784
  792TIP3   OH2 2316   4.144   2.564   6.178
  792TIP3    H1 2317   4.090   2.631   6.219
  792TIP3    H2 2318   4.200   2.611   6.117
  793TIP3   OH2 2319   5.169   4.221   3.994
  793TIP3    H1 2320   5.243   4.164   3.972
  793TIP3    H2 2321   5.190   4.256   4.081
  794TIP3   OH2 2322   0.573   4.776   3.894
  794TIP3    H1 2323   0.628   4.719   3.948
  794TIP3    H2 2324   0.630   4.848   3.870
  795TIP3   OH2 2325   5.957   6.553   4.477
  795TIP3    H1 2326   5.957   6.526   4.569
  795TIP3    H2 2327   5.915   6.481   4.431
  796TIP3   OH2 2328   7.920   2.709   1.781
  796TIP3    H1 2329   7.844   2.712   1.840
  796TIP3    H2 2330   7.964   2.627   1.804
  797TIP3   OH2 2331   6.564   6.270   6.212
  797TIP3    H1 2332   6.564   6.195   6.153
  797TIP3    H2 2333   6.610   6.240   6.290
  798TIP3   OH2 2334   1.402   4.684   5.809
  798TIP3    H1 2335   1.498   4.684   5.804
  798TIP3    H2 2336   1.374   4.655   5.723
  799TIP3   OH2 2337   5.559   6.145   5.849
  799TIP3    H1 2338   5.628   6.084   5.875
  799TIP3    H2 2339   5.485   6.125   5.908
  800TIP3   OH2 2340   1.814   1.852   3.963
  800TIP3    H1 2341   1.874   1.919   3.996
  800TIP3    H2 2342   1.870   1.793   3.913
  801TIP3   OH2 2343   4.325   1.764   5.453
  801TIP3    H1 2344   4.274   1.708   5.394
  801TIP3    H2 2345   4.314   1.852   5.417
  802TIP3   OH2 2346   2.061   0.049   5.995
  802TIP3    H1 2347   2.104   0.093   6.069
  802TIP3    H2 2348   2.036  -0.036   6.031
  803TIP3   OH2 2349   7.958   7.778   2.118
  803TIP3    H1 2350   8.045   7.811   2.096
  803TIP3    H2 2351   7.972   7.717   2.190
  804TIP3   OH2 2352   6.689   2.101   1.438
  804TIP3    H1 2353   6.640   2.106   1.520
  804TIP3    H2 2354   6.685   2.190   1.403
  805TIP3   OH2 2355   3.217   5.420   0.400
  805TIP3    H1 2356   3.248   5.499   0.356
  805TIP3    H2 2357   3.201   5.447   0.490
  806TIP3   OH2 2358   6.275   7.920   0.254
  806TIP3    H1 2359   6.333   7.935   0.328
  806TIP3    H2 2360   6.213   7.993   0.257
  807TIP3   OH2 2361   7.228   7.342   3.278
  807TIP3    H1 2362   7.322   7.325   3.273
  807TIP3    H2 2363   7.205   7.375   3.191
  808TIP3   OH2 2364   5.268   2.402   5.706
  808TIP3    H1 2365   5.320   2.432   5.631
  808TIP3    H2 2366   5.314   2.325   5.739
  809TIP3   OH2 2367   6.631   6.918   1.531
  809TIP3    H1 2368   6.579   6.916   1.612
  809TIP3    H2 2369   6.589   6.853   1.474
  810TIP3   OH2 2370   7.457   4.346   6.112
  810TIP3    H1 2371   7.485   4.397   6.188
  810TIP3    H2 2372   7.392   4.401   6.068
  811TIP3   OH2 2373   5.667   0.226   5.966
  811TIP3    H1 2374   5.672   0.131   5.972
  811TIP3    H2 2375   5.573   0.246   5.972
  812TIP3   OH2 2376   1.785   4.815   5.283
  812TIP3    H1 2377   1.868   4.843   5.244
  812TIP3    H2 2378   1.794   4.833   5.376
  813TIP3   OH2 2379   3.639   2.376   1.736
  813TIP3    H1 2380   3.614   2.449   1.793
  813TIP3    H2 2381   3.716   2.407   1.689
  814TIP3   OH2 2382   0.220   3.372   4.976
  814TIP3    H1 2383   0.253   3.429   5.045
  814TIP3    H2 2384   0.128   3.398   4.964
  815TIP3   OH2 2385   7.854   0.955   4.451
  815TIP3    H1 2386   7.829   0.925   4.363
  815TIP3    H2 2387   7.888   1.043   4.438
  816TIP3   OH2 2388   6.846   7.033   3.217
  816TIP3    H1 2389   6.855   7.122   3.251
  816TIP3    H2 2390   6.859   6.977   3.294
  817TIP3   OH2 2391   6.098   5.055   5.839
  817TIP3    H1 2392   6.187   5.020   5.840
  817TIP3    H2 2393   6.041   4.977   5.840
  818TIP3   OH2 2394   1.326   1.532   6.837
  818TIP3    H1 2395   1.409   1.504   6.799
  818TIP3    H2 2396   1.260   1.508   6.773
  819TIP3   OH2 2397   3.892   1.484   6.417
  819TIP3    H1 2398   3.847   1.568   6.406
  819TIP3    H2 2399   3.913   1.480   6.510
  820TIP3   OH2 2400   7.786   5.087   2.778
  820TIP3    H1 2401   7.691   5.096   2.774
  820TIP3    H2 2402   7.816   5.169   2.818
  821TIP3   OH2 2403   4.927   5.020   3.948
  821TIP3    H1 2404   4.866   4.962   3.993
  821TIP3    H2 2405   4.932   4.985   3.859
  822TIP3   OH2 2406   5.514   1.077   4.971
  822TIP3    H1 2407   5.545   1.156   4.926
  822TIP3    H2 2408   5.420   1.091   4.982
  823TIP3   OH2 2409   3.775   3.725   5.251
  823TIP3    H1 2410   3.789   3.634   5.274
  823TIP3    H2 2411   3.680   3.732   5.236
  824TIP3   OH2 2412   0.908   7.793   2.034
  824TIP3    H1 2413   0.941   7.714   2.076
  824TIP3    H2 2414   0.984   7.831   1.990
  825TIP3   OH2 2415   5.018   4.051   3.782
  825TIP3    H1 2416   5.104   4.038   3.823
  825TIP3    H2 2417   4.965   4.092   3.849
  826TIP3   OH2 2418   1.454   0.047   4.043
  826TIP3    H1 2419   1.546   0.021   4.045
  826TIP3    H2 2420   1.406  -0.033   4.059
  827TIP3   OH2 2421   1.788   2.128   6.262
  827TIP3    H1 2422   1.762   2.170   6.344
  827TIP3    H2 2423   1.850   2.189   6.223
  828TIP3   OH2 2424   0.363   7.882   4.316
  828TIP3    H1 2425   0.428   7.833   4.266
  828TIP3    H2 2426   0.345   7.960   4.263
  829TIP3   OH2 2427   6.151   1.432   1.469
  829TIP3    H1 2428   6.152   1.505   1.407
  829TIP3    H2 2429   6.149   1.354   1.415
  830TIP3   OH2 2430   0.404   0.355   6.149
  830TIP3    H1 2431   0.487   0.339   6.194
  830TIP3    H2 2432   0.379   0.443   6.176
  831TIP3   OH2 2433   6.864   0.451   0.866
  831TIP3    H1 2434   6.823   0.379   0.913
  831TIP3    H2 2435   6.918   0.407   0.800
  832TIP3   OH2 2436   3.563   2.322   2.069
  832TIP3    H1 2437   3.574   2.401   2.016
  832TIP3    H2 2438   3.645   2.314   2.117
  833TIP3   OH2 2439   4.622   2.678   5.363
  833TIP3    H1 2440   4.603   2.767   5.334
  833TIP3    H2 2441   4.538   2.633   5.357
  834TIP3   OH2 2442   5.723   2.984   6.589
  834TIP3    H1 2443   5.775   2.943   6.520
  834TIP3    H2 2444   5.753   2.942   6.669
  835TIP3   OH2 2445   3.817   4.771   3.576
  835TIP3    H1 2446   3.758   4.778   3.501
  835TIP3    H2 2447   3.761   4.739   3.647
  836TIP3   OH2 2448   6.392   4.676   1.713
  836TIP3    H1 2449   6.343   4.599   1.741
  836TIP3    H2 2450   6.477   4.666   1.756
  837TIP3   OH2 2451   7.007   7.173   1.362
  837TIP3    H1 2452   7.092   7.158   1.321
  837TIP3    H2 2453   6.991   7.094   1.413
  838TIP3   OH2 2454   4.268   5.613   2.338
  838TIP3    H1 2455   4.284   5.549   2.269
  838TIP3    H2 2456   4.317   5.691   2.310
  839TIP3   OH2 2457   0.014   2.166   3.279
  839TIP3    H1 2458   0.070   2.184   3.204
  839TIP3    H2 2459   0.074   2.145   3.351
  840TIP3   OH2 2460   8.055   4.934   6.489
  840TIP3    H1 2461   8.113   4.878   6.438
  840TIP3    H2 2462   7.993   4.968   6.424
  841TIP3   OH2 2463   3.520   3.213   3.463
  841TIP3    H1 2464   3.435   3.170   3.455
  841TIP3    H2 2465   3.499   3.307   3.464
  842TIP3   OH2 2466   4.610   7.650   5.776
  842TIP3    H1 2467   4.586   7.558   5.783
  842TIP3    H2 2468   4.541   7.698   5.822
  843TIP3   OH2 2469   2.788   3.843   3.121
  843TIP3    H1 2470   2.789   3.749   3.136
  843TIP3    H2 2471   2.841   3.856   3.043
  844TIP3   OH2 2472   6.618   3.424   0.634
  844TIP3    H1 2473   6.544   3.402   0.577
  844TIP3    H2 2474   6.635   3.344   0.683
  845TIP3   OH2 2475   0.179   5.036   0.791
  845TIP3    H1 2476   0.152   5.044   0.883
  845TIP3    H2 2477   0.272   5.057   0.790
  846TIP3   OH2 2478   6.962   3.273   0.036
  846TIP3    H1 2479   6.996   3.356   0.071
  846TIP3    H2 2480   6.870   3.272   0.063
  847TIP3   OH2 2481   2.300   3.273   4.232
  847TIP3    H1 2482   2.371   3.223   4.192
  847TIP3    H2 2483   2.318   3.268   4.326
  848TIP3   OH2 2484   8.384   6.948   5.799
  848TIP3    H1 2485   8.353   6.995   5.721
  848TIP3    H2 2486   8.305   6.924   5.846
  849TIP3   OH2 2487   7.081   2.730   5.779
  849TIP3    H1 2488   7.051   2.723   5.688
  849TIP3    H2 2489   7.021   2.674   5.828
  850TIP3   OH2 2490   2.140   6.345   0.340
  850TIP3    H1 2491   2.151   6.406   0.267
  850TIP3    H2 2492   2.053   6.366   0.376
  851TIP3   OH2 2493   0.600   5.941   4.768
  851TIP3    H1 2494   0.668   5.873   4.768
  851TIP3    H2 2495   0.563   5.937   4.680
  852TIP3   OH2 2496   5.298   7.750   2.605
  852TIP3    H1 2497   5.290   7.759   2.700
  852TIP3    H2 2498   5.340   7.832   2.577
  853TIP3   OH2 2499   4.948   0.871   0.637
  853TIP3    H1 2500   4.883   0.931   0.673
  853TIP3    H2 2501   4.897   0.801   0.597
  854TIP3   OH2 2502   5.719   4.897   0.097
  854TIP3    H1 2503   5.779   4.967   0.071
  854TIP3    H2 2504   5.775   4.832   0.141
  855TIP3   OH2 2505   5.281   7.511   5.436
  855TIP3    H1 2506   5.192   7.545   5.428
  855TIP3    H2 2507   5.285   7.476   5.525
  856TIP3   OH2 2508   5.205   0.100   2.114
  856TIP3    H1 2509   5.249   0.152   2.181
  856TIP3    H2 2510   5.171   0.164   2.052
  857TIP3   OH2 2511   0.129   2.120   5.143
  857TIP3    H1 2512   0.041   2.153   5.123
  857TIP3    H2 2513   0.132   2.118   5.239
  858TIP3   OH2 2514   7.620   2.763   3.876
  858TIP3    H1 2515   7.669   2.723   3.947
  858TIP3    H2 2516   7.679   2.830   3.841
  859TIP3   OH2 2517   0.780   1.484   4.046
  859TIP3    H1 2518   0.719   1.483   3.971
  859TIP3    H2 2519   0.860   1.524   4.011
  860TIP3   OH2 2520   7.667   6.214   6.299
  860TIP3    H1 2521   7.626   6.129   6.286
  860TIP3    H2 2522   7.701   6.211   6.388
  861TIP3   OH2 2523   7.250   3.452   5.174
  861TIP3    H1 2524   7.160   3.439   5.144
  861TIP3    H2 2525   7.283   3.524   5.121
  862TIP3   OH2 2526   6.945   2.404   1.482
  862TIP3    H1 2527   7.022   2.349   1.473
  862TIP3    H2 2528   6.901   2.372   1.561
  863TIP3   OH2 2529   3.774   7.351   6.245
  863TIP3    H1 2530   3.776   7.255   6.241
  863TIP3    H2 2531   3.862   7.376   6.274
  864TIP3   OH2 2532   8.287   1.155   4.394
  864TIP3    H1 2533   8.280   1.067   4.433
  864TIP3    H2 2534   8.341   1.143   4.316
  865TIP3   OH2 2535   5.553   0.029   4.637
  865TIP3    H1 2536   5.631   0.057   4.589
  865TIP3    H2 2537   5.582  -0.047   4.687
  866TIP3   OH2 2538   4.297   2.470   1.075
  866TIP3    H1 2539   4.276   2.472   0.982
  866TIP3    H2 2540   4.230   2.524   1.117
  867TIP3   OH2 2541   2.379   4.099   0.786
  867TIP3    H1 2542   2.397   4.175   0.730
  867TIP3    H2 2543   2.434   4.029   0.751
  868TIP3   OH2 2544   4.567   4.272   4.959
  868TIP3    H1 2545   4.621   4.262   4.881
  868TIP3    H2 2546   4.620   4.324   5.019
  869TIP3   OH2 2547   1.687   7.037   2.902
  869TIP3    H1 2548   1.663   7.127   2.879
  869TIP3    H2 2549   1.763   7.046   2.959
  870TIP3   OH2 2550   7.453   6.658   0.249
  870TIP3    H1 2551   7.501   6.667   0.331
  870TIP3    H2 2552   7.518   6.676   0.181
  871TIP3   OH2 2553   4.454   3.984   1.922
  871TIP3    H1 2554   4.460   4.067   1.969
  871TIP3    H2 2555   4.408   3.925   1.982
  872TIP3   OH2 2556   2.110   2.500   3.241
  872TIP3    H1 2557   2.197   2.540   3.235
  872TIP3    H2 2558   2.110   2.454   3.325
  873TIP3   OH2 2559   6.069   4.545   0.295
  873TIP3    H1 2560   5.986   4.529   0.339
  873TIP3    H2 2561   6.128   4.574   0.364
  874TIP3   OH2 2562   3.009   6.410   1.991
  874TIP3    H1 2563   3.003   6.481   1.928
  874TIP3    H2 2564   3.098   6.375   1.979
  875TIP3   OH2 2565   5.301   6.086   6.871
  875TIP3    H1 2566   5.255   6.168   6.856
  875TIP3    H2 2567   5.306   6.045   6.784
  876TIP3   OH2 2568   4.690   7.428   3.537
  876TIP3    H1 2569   4.717   7.517   3.516
  876TIP3    H2 2570   4.740   7.406   3.616
  877TIP3   OH2 2571   2.424   4.373   5.180
  877TIP3    H1 2572   2.427   4.345   5.272
  877TIP3    H2 2573   2.510   4.350   5.145
  878TIP3   OH2 2574   2.949   0.546   3.808
  878TIP3    H1 2575   2.983   0.489   3.739
  878TIP3    H2 2576   2.867   0.505   3.834
  879TIP3   OH2 2577   7.371   7.294   1.356
  879TIP3    H1 2578   7.318   7.350   1.299
  879TIP3    H2 2579   7.397   7.352   1.428
  880TIP3   OH2 2580   2.342   4.311   6.802
  880TIP3    H1 2581   2.318   4.220   6.821
  880TIP3    H2 2582   2.438   4.310   6.795
  881TIP3   OH2 2583   3.550   4.163   4.808
  881TIP3    H1 2584   3.564   4.135   4.717
  881TIP3    H2 2585   3.458   4.144   4.826
  882TIP3   OH2 2586   1.414   4.784   0.419
  882TIP3    H1 2587   1.352   4.813   0.486
  882TIP3    H2 2588   1.359   4.740   0.354
  883TIP3   OH2 2589   3.404   1.832   1.340
  883TIP3    H1 2590   3.419   1.857   1.432
  883TIP3    H2 2591   3.311   1.810   1.337
  884TIP3   OH2 2592   2.862   3.456   2.362
  884TIP3    H1 2593   2.819   3.513   2.299
  884TIP3    H2 2594   2.956   3.465   2.343
  885TIP3   OH2 2595   3.404   7.232   5.973
  885TIP3    H1 2596   3.424   7.139   5.974
  885TIP3    H2 2597   3.311   7.237   5.994
  886TIP3   OH2 2598   6.461   3.574   1.936
  886TIP3    H1 2599   6.431   3.578   1.845
  886TIP3    H2 2600   6.521   3.500   1.938
  887TIP3   OH2 2601   3.030   3.829   4.845
  887TIP3    H1 2602   2.982   3.886   4.786
  887TIP3    H2 2603   3.027   3.874   4.930
  888TIP3   OH2 2604   1.034   2.438   0.274
  888TIP3    H1 2605   1.011   2.433   0.182
  888TIP3    H2 2606   1.118   2.483   0.276
  889TIP3   OH2 2607   8.128   5.383   4.016
  889TIP3    H1 2608   8.144   5.473   4.042
  889TIP3    H2 2609   8.207   5.336   4.043
  890TIP3   OH2 2610   4.833   6.166   4.849
  890TIP3    H1 2611   4.853   6.219   4.926
  890TIP3    H2 2612   4.827   6.077   4.882
  891TIP3   OH2 2613   3.491   3.825   6.727
  891TIP3    H1 2614   3.479   3.791   6.639
  891TIP3    H2 2615   3.407   3.810   6.771
  892TIP3   OH2 2616   6.682   2.542   5.839
  892TIP3    H1 2617   6.610   2.594   5.803
  892TIP3    H2 2618   6.699   2.477   5.771
  893TIP3   OH2 2619   0.614   6.475   1.835
  893TIP3    H1 2620   0.705   6.470   1.863
  893TIP3    H2 2621   0.569   6.410   1.890
  894TIP3   OH2 2622   6.087   2.043   1.770
  894TIP3    H1 2623   6.011   2.028   1.825
  894TIP3    H2 2624   6.130   1.958   1.764
  895TIP3   OH2 2625   8.039   5.352   5.999
  895TIP3    H1 2626   8.011   5.443   6.007
  895TIP3    H2 2627   8.095   5.337   6.075
  896TIP3   OH2 2628   8.220   2.285   1.745
  896TIP3    H1 2629   8.126   2.270   1.749
  896TIP3    H2 2630   8.249   2.232   1.671
  897TIP3   OH2 2631   8.274   7.626   3.130
  897TIP3    H1 2632   8.324   7.576   3.194
  897TIP3    H2 2633   8.289   7.581   3.047
  898TIP3   OH2 2634   5.546   3.085   3.693
  898TIP3    H1 2635   5.580   3.023   3.629
  898TIP3    H2 2636   5.603   3.075   3.769
  899TIP3   OH2 2637   2.839   2.814   3.534
  899TIP3    H1 2638   2.801   2.889   3.486
  899TIP3    H2 2639   2.763   2.760   3.556
  900TIP3   OH2 2640   3.309   6.089   3.862
  900TIP3    H1 2641   3.257   6.075   3.941
  900TIP3    H2 2642   3.400   6.073   3.889
  901TIP3   OH2 2643   1.209   5.262   4.260
  901TIP3    H1 2644   1.299   5.290   4.240
  901TIP3    H2 2645   1.157   5.341   4.249
  902TIP3   OH2 2646   5.752   0.967   3.954
  902TIP3    H1 2647   5.715   1.012   4.030
  902TIP3    H2 2648   5.812   1.031   3.915
  903TIP3   OH2 2649   1.983   7.666   6.368
  903TIP3    H1 2650   2.073   7.638   6.350
  903TIP3    H2 2651   1.972   7.651   6.462
  904TIP3   OH2 2652   1.751   2.113   2.617
  904TIP3    H1 2653   1.759   2.034   2.565
  904TIP3    H2 2654   1.691   2.089   2.688
  905TIP3   OH2 2655   1.553   0.347   3.581
  905TIP3    H1 2656   1.499   0.378   3.653
  905TIP3    H2 2657   1.549   0.418   3.516
  906TIP3   OH2 2658   5.365   0.400   6.215
  906TIP3    H1 2659   5.452   0.361   6.226
  906TIP3    H2 2660   5.380   0.476   6.158
  907TIP3   OH2 2661   6.848   7.593   0.781
  907TIP3    H1 2662   6.891   7.601   0.865
  907TIP3    H2 2663   6.849   7.500   0.761
  908TIP3   OH2 2664   7.578   6.237   0.382
  908TIP3    H1 2665   7.596   6.282   0.464
  908TIP3    H2 2666   7.658   6.188   0.364
  909TIP3   OH2 2667   6.020   0.003   1.764
  909TIP3    H1 2668   6.043   0.086   1.805
  909TIP3    H2 2669   6.051   0.011   1.674
  910TIP3   OH2 2670   4.417   7.478   5.136
  910TIP3    H1 2671   4.359   7.433   5.075
  910TIP3    H2 2672   4.362   7.496   5.212
  911TIP3   OH2 2673   4.481   2.652   5.810
  911TIP3    H1 2674   4.566   2.696   5.811
  911TIP3    H2 2675   4.450   2.662   5.720
  912TIP3   OH2 2676   5.835   7.317   4.739
  912TIP3    H1 2677   5.836   7.411   4.719
  912TIP3    H2 2678   5.825   7.275   4.653
  913TIP3   OH2 2679   1.513   3.374   2.449
  913TIP3    H1 2680   1.491   3.467   2.454
  913TIP3    H2 2681   1.433   3.332   2.418
  914TIP3   OH2 2682   6.458   0.672   5.130
  914TIP3    H1 2683   6.419   0.592   5.094
  914TIP3    H2 2684   6.413   0.684   5.214
  915TIP3   OH2 2685   8.089   6.588   5.018
  915TIP3    H1 2686   7.993   6.588   5.009
  915TIP3    H2 2687   8.119   6.651   4.952
  916TIP3   OH2 2688   5.456   2.284   3.930
  916TIP3    H1 2689   5.459   2.378   3.914
  916TIP3    H2 2690   5.385   2.251   3.875
  917TIP3   OH2 2691   2.228   5.780   2.798
  917TIP3    H1 2692   2.213   5.872   2.822
  917TIP3    H2 2693   2.191   5.730   2.871
  918TIP3   OH2 2694   4.512   6.967   2.527
  918TIP3    H1 2695   4.549   7.036   2.473
  918TIP3    H2 2696   4.587   6.914   2.554
  919TIP3   OH2 2697   5.878   0.317   3.486
  919TIP3    H1 2698   5.853   0.227   3.465
  919TIP3    H2 2699   5.813   0.347   3.549
  920TIP3   OH2 2700   7.145   0.544   4.837
  920TIP3    H1 2701   7.114   0.504   4.756
  920TIP3    H2 2702   7.091   0.622   4.848
  921TIP3   OH2 2703   4.999   7.594   1.827
  921TIP3    H1 2704   5.071   7.553   1.876
  921TIP3    H2 2705   4.988   7.680   1.868
  922TIP3   OH2 2706   0.232   2.757   5.832
  922TIP3    H1 2707   0.323   2.726   5.836
  922TIP3    H2 2708   0.239   2.843   5.790
  923TIP3   OH2 2709   6.822   5.076   6.184
  923TIP3    H1 2710   6.837   5.086   6.278
  923TIP3    H2 2711   6.843   5.162   6.147
  924TIP3   OH2 2712   3.181   5.088   3.532
  924TIP3    H1 2713   3.238   5.034   3.588
  924TIP3    H2 2714   3.241   5.127   3.468
  925TIP3   OH2 2715   0.786   6.718   4.316
  925TIP3    H1 2716   0.727   6.788   4.288
  925TIP3    H2 2717   0.870   6.762   4.330
  926TIP3   OH2 2718   7.972   6.250   1.386
  926TIP3    H1 2719   7.899   6.311   1.384
  926TIP3    H2 2720   8.025   6.272   1.310
  927TIP3   OH2 2721   7.104   4.429   5.749
  927TIP3    H1 2722   7.022   4.400   5.790
  927TIP3    H2 2723   7.126   4.360   5.687
  928TIP3   OH2 2724   2.429   4.505   2.138
  928TIP3    H1 2725   2.502   4.511   2.076
  928TIP3    H2 2726   2.360   4.459   2.090
  929TIP3   OH2 2727   1.402   4.065   5.622
  929TIP3    H1 2728   1.331   4.114   5.580
  929TIP3    H2 2729   1.358   3.990   5.662
  930TIP3   OH2 2730   5.387   4.560   2.888
  930TIP3    H1 2731   5.430   4.491   2.837
  930TIP3    H2 2732   5.419   4.547   2.978
  931TIP3   OH2 2733   6.493   7.767   2.681
  931TIP3    H1 2734   6.491   7.692   2.741
  931TIP3    H2 2735   6.488   7.844   2.739
  932TIP3   OH2 2736   3.641   5.645   1.501
  932TIP3    H1 2737   3.679   5.569   1.456
  932TIP3    H2 2738   3.580   5.683   1.438
  933TIP3   OH2 2739   6.129   1.538   3.811
  933TIP3    H1 2740   6.067   1.478   3.770
  933TIP3    H2 2741   6.135   1.612   3.751
  934TIP3   OH2 2742   7.569   4.872   3.042
  934TIP3    H1 2743   7.534   4.857   2.954
  934TIP3    H2 2744   7.571   4.785   3.083
  935TIP3   OH2 2745   5.009   0.533   1.521
  935TIP3    H1 2746   5.087   0.583   1.544
  935TIP3    H2 2747   4.944   0.599   1.497
  936TIP3   OH2 2748   3.705   4.238   4.421
  936TIP3    H1 2749   3.647   4.303   4.461
  936TIP3    H2 2750   3.693   4.249   4.327
  937TIP3   OH2 2751   0.037   6.343   5.890
  937TIP3    H1 2752   0.101   6.414   5.898
  937TIP3    H2 2753   0.026   6.309   5.979
  938TIP3   OH2 2754   0.795   3.310   3.576
  938TIP3    H1 2755   0.724   3.297   3.638
  938TIP3    H2 2756   0.822   3.401   3.588
  939TIP3   OH2 2757   2.317   5.279   1.488
  939TIP3    H1 2758   2.337   5.373   1.489
  939TIP3    H2 2759   2.296   5.260   1.397
  940TIP3   OH2 2760   0.444   5.256   1.906
  940TIP3    H1 2761   0.491   5.326   1.950
  940TIP3    H2 2762   0.507   5.221   1.842
  941TIP3   OH2 2763   6.611   2.685   2.372
  941TIP3    H1 2764   6.572   2.684   2.460
  941TIP3    H2 2765   6.690   2.631   2.381
  942TIP3   OH2 2766   3.013   1.507   3.841
  942TIP3    H1 2767   2.935   1.452   3.846
  942TIP3    H2 2768   3.084   1.446   3.818
  943TIP3   OH2 2769   2.184   6.820   4.242
  943TIP3    H1 2770   2.120   6.876   4.286
  943TIP3    H2 2771   2.247   6.882   4.204
  944TIP3   OH2 2772   8.378   7.603   2.086
  944TIP3    H1 2773   8.326   7.539   2.135
  944TIP3    H2 2774   8.321   7.679   2.079
  945TIP3   OH2 2775   7.731   4.293   6.038
  945TIP3    H1 2776   7.645   4.334   6.036
  945TIP3    H2 2777   7.714   4.204   6.070
  946TIP3   OH2 2778   8.147   3.585   2.345
  946TIP3    H1 2779   8.061   3.545   2.329
  946TIP3    H2 2780   8.207   3.511   2.352
  947TIP3   OH2 2781   6.975   4.060   5.760
  947TIP3    H1 2782   6.915   4.134   5.766
  947TIP3    H2 2783   6.921   3.988   5.727
  948TIP3   OH2 2784   4.386   3.191   5.384
  948TIP3    H1 2785   4.404   3.271   5.434
  948TIP3    H2 2786   4.428   3.205   5.299
  949TIP3   OH2 2787   1.147   4.208   3.185
  949TIP3    H1 2788   1.200   4.198   3.106
  949TIP3    H2 2789   1.072   4.150   3.170
  950TIP3   OH2 2790   3.916   7.093   6.228
  950TIP3    H1 2791   3.983   7.129   6.170
  950TIP3    H2 2792   3.848   7.060   6.169
  951TIP3   OH2 2793   0.933   6.549   4.784
  951TIP3    H1 2794   0.879   6.568   4.707
  951TIP3    H2 2795   0.963   6.635   4.813
  952TIP3   OH2 2796   7.407   6.628   2.616
  952TIP3    H1 2797   7.419   6.675   2.534
  952TIP3    H2 2798   7.407   6.536   2.590
  953TIP3   OH2 2799   3.015   4.769   6.449
  953TIP3    H1 2800   3.001   4.726   6.534
  953TIP3    H2 2801   3.096   4.819   6.461
  954TIP3   OH2 2802   5.027   2.544   1.421
  954TIP3    H1 2803   5.038   2.567   1.328
  954TIP3    H2 2804   4.933   2.532   1.432
  955TIP3   OH2 2805   4.100   2.683   3.341
  955TIP3    H1 2806   4.100   2.652   3.431
  955TIP3    H2 2807   4.075   2.606   3.289
  956TIP3   OH2 2808   3.144   0.470   6.224
  956TIP3    H1 2809   3.117   0.405   6.159
  956TIP3    H2 2810   3.064   0.517   6.247
  957TIP3   OH2 2811   4.540   0.170   4.953
  957TIP3    H1 2812   4.465   0.135   4.905
  957TIP3    H2 2813   4.514   0.259   4.975
  958TIP3   OH2 2814   0.980   3.712   4.050
  958TIP3    H1 2815   0.966   3.771   4.125
  958TIP3    H2 2816   0.927   3.750   3.980
  959TIP3   OH2 2817   7.143   4.872   4.145
  959TIP3    H1 2818   7.134   4.938   4.214
  959TIP3    H2 2819   7.078   4.805   4.168
  960TIP3   OH2 2820   8.463   7.277   0.455
  960TIP3    H1 2821   8.406   7.262   0.380
  960TIP3    H2 2822   8.414   7.338   0.510
  961TIP3   OH2 2823   0.289   6.680   6.741
  961TIP3    H1 2824   0.370   6.634   6.763
  961TIP3    H2 2825   0.293   6.692   6.646
  962TIP3   OH2 2826   1.725   0.052   4.308
  962TIP3    H1 2827   1.676  -0.027   4.285
  962TIP3    H2 2828   1.778   0.071   4.231
  963TIP3   OH2 2829   5.692   6.175   0.505
  963TIP3    H1 2830   5.651   6.249   0.460
  963TIP3    H2 2831   5.717   6.210   0.591
  964TIP3   OH2 2832   2.983   2.563   1.365
  964TIP3    H1 2833   3.052   2.511   1.405
  964TIP3    H2 2834   2.942   2.610   1.438
  965TIP3   OH2 2835   8.431   6.683   5.059
  965TIP3    H1 2836   8.353   6.713   5.013
  965TIP3    H2 2837   8.482   6.762   5.076
  966TIP3   OH2 2838   8.295   5.926   2.421
  966TIP3    H1 2839   8.359   5.905   2.353
  966TIP3    H2 2840   8.224   5.971   2.375
  967TIP3   OH2 2841   2.797   2.103   2.600
  967TIP3    H1 2842   2.761   2.016   2.613
  967TIP3    H2 2843   2.854   2.095   2.524
  968TIP3   OH2 2844   0.358   3.367   6.549
  968TIP3    H1 2845   0.300   3.295   6.523
  968TIP3    H2 2846   0.375   3.414   6.468
  969TIP3   OH2 2847   5.179   2.674   5.030
  969TIP3    H1 2848   5.202   2.753   5.078
  969TIP3    H2 2849   5.256   2.617   5.038
  970TIP3   OH2 2850   6.971   7.940   3.794
  970TIP3    H1 2851   6.991   7.943   3.888
  970TIP3    H2 2852   7.053   7.911   3.753
  971TIP3   OH2 2853   5.490   5.387   2.772
  971TIP3    H1 2854   5.543   5.465   2.759
  971TIP3    H2 2855   5.442   5.376   2.690
  972TIP3   OH2 2856   8.025   4.249   2.154
  972TIP3    H1 2857   8.061   4.235   2.242
  972TIP3    H2 2858   7.930   4.255   2.167
  973TIP3   OH2 2859   5.840   6.330   4.009
  973TIP3    H1 2860   5.793   6.402   4.052
  973TIP3    H2 2861   5.905   6.374   3.954
  974TIP3   OH2 2862   6.461   7.681   6.324
  974TIP3    H1 2863   6.366   7.683   6.327
  974TIP3    H2 2864   6.482   7.607   6.266
  975TIP3   OH2 2865   3.355   7.471   5.081
  975TIP3    H1 2866   3.260   7.472   5.080
  975TIP3    H2 2867   3.379   7.470   5.174
  976TIP3   OH2 2868   2.309   0.907   4.086
  976TIP3    H1 2869   2.246   0.910   4.014
  976TIP3    H2 2870   2.278   0.973   4.148
  977TIP3   OH2 2871   3.495   2.208   2.998
  977TIP3    H1 2872   3.442   2.153   2.941
  977TIP3    H2 2873   3.471   2.298   2.973
  978TIP3   OH2 2874   6.522   3.223   6.162
  978TIP3    H1 2875   6.601   3.180   6.195
  978TIP3    H2 2876   6.486   3.268   6.239
  979TIP3   OH2 2877   1.182   1.227   5.513
  979TIP3    H1 2878   1.096   1.262   5.535
  979TIP3    H2 2879   1.201   1.264   5.426
  980TIP3   OH2 2880   1.262   2.695   1.426
  980TIP3    H1 2881   1.315   2.732   1.356
  980TIP3    H2 2882   1.184   2.751   1.429
  981TIP3   OH2 2883   5.910   4.659   4.503
  981TIP3    H1 2884   5.861   4.625   4.428
  981TIP3    H2 2885   5.873   4.615   4.579
  982TIP3   OH2 2886   2.646   4.803   6.160
  982TIP3    H1 2887   2.643   4.869   6.092
  982TIP3    H2 2888   2.714   4.833   6.220
  983TIP3   OH2 2889   3.066   2.744   3.695
  983TIP3    H1 2890   2.993   2.762   3.636
  983TIP3    H2 2891   3.034   2.771   3.781
  984TIP3   OH2 2892   1.341   3.475   6.041
  984TIP3    H1 2893   1.316   3.535   6.111
  984TIP3    H2 2894   1.398   3.410   6.083
  985TIP3   OH2 2895   4.376   1.903   6.177
  985TIP3    H1 2896   4.313   1.831   6.179
  985TIP3    H2 2897   4.462   1.860   6.176
  986TIP3   OH2 2898   4.148   3.838   5.861
  986TIP3    H1 2899   4.142   3.933   5.867
  986TIP3    H2 2900   4.057   3.808   5.861
  987TIP3   OH2 2901   6.472   2.671   6.047
  987TIP3    H1 2902   6.471   2.766   6.038
  987TIP3    H2 2903   6.556   2.652   6.090
  988TIP3   OH2 2904   7.601   7.039   5.991
  988TIP3    H1 2905   7.531   7.038   6.056
  988TIP3    H2 2906   7.679   7.066   6.040
  989TIP3   OH2 2907   5.399   6.905   3.687
  989TIP3    H1 2908   5.361   6.892   3.775
  989TIP3    H2 2909   5.465   6.972   3.699
  990TIP3   OH2 2910   5.846   5.551   0.476
  990TIP3    H1 2911   5.753   5.554   0.452
  990TIP3    H2 2912   5.858   5.627   0.533
  991TIP3   OH2 2913   3.920   4.423   4.300
  991TIP3    H1 2914   3.893   4.504   4.344
  991TIP3    H2 2915   3.868   4.355   4.341
  992TIP3   OH2 2916   5.693   5.729   1.578
  992TIP3    H1 2917   5.692   5.713   1.673
  992TIP3    H2 2918   5.752   5.661   1.544
  993TIP3   OH2 2919   5.180   3.021   1.075
  993TIP3    H1 2920   5.223   2.959   1.133
  993TIP3    H2 2921   5.092   3.031   1.112
  994TIP3   OH2 2922   1.368   7.529   4.210
  994TIP3    H1 2923   1.429   7.523   4.136
  994TIP3    H2 2924   1.299   7.587   4.179
  995TIP3   OH2 2925   4.963   3.879   1.392
  995TIP3    H1 2926   4.896   3.859   1.326
  995TIP3    H2 2927   4.914   3.918   1.464
  996TIP3   OH2 2928   3.418   7.427   5.358
  996TIP3    H1 2929   3.505   7.425   5.398
  996TIP3    H2 2930   3.384   7.514   5.379
  997TIP3   OH2 2931   8.147   0.398   6.394
  997TIP3    H1 2932   8.056   0.425   6.405
  997TIP3    H2 2933   8.182   0.394   6.482
  998TIP3   OH2 2934   6.798   3.614   6.575
  998TIP3    H1 2935   6.758   3.564   6.646
  998TIP3    H2 2936   6.736   3.605   6.502
  999TIP3   OH2 2937   7.121   5.434   5.945
  999TIP3    H1 2938   7.062   5.502   5.978
  999TIP3    H2 2939   7.169   5.404   6.022
 1000TIP3   OH2 2940   6.479   4.001   4.725
 1000TIP3    H1 2941   6.442   3.926   4.678
 1000TIP3    H2 2942   6.492   3.969   4.814
 1001TIP3   OH2 2943   4.020   3.624   4.828
 1001TIP3    H1 2944   3.930   3.615   4.795
 1001TIP3    H2 2945   4.026   3.715   4.857
 1002TIP3   OH2 2946   6.306   0.456   5.102
 1002TIP3    H1 2947   6.269   0.409   5.028
 1002TIP3    H2 2948   6.231   0.493   5.147
 1003TIP3   OH2 2949   4.756   3.175   2.736
 1003TIP3    H1 2950   4.830   3.122   2.708
 1003TIP3    H2 2951   4.700   3.115   2.784
 1004TIP3   OH2 2952   0.239   7.165   3.750
 1004TIP3    H1 2953   0.294   7.233   3.786
 1004TIP3    H2 2954   0.220   7.107   3.824
 1005TIP3   OH2 2955   0.459   5.416   3.909
 1005TIP3    H1 2956   0.524   5.347   3.920
 1005TIP3    H2 2957   0.377   5.377   3.939
 1006TIP3   OH2 2958   7.906   1.895   1.977
 1006TIP3    H1 2959   7.869   1.807   1.976
 1006TIP3    H2 2960   7.970   1.895   1.907
 1007TIP3   OH2 2961   4.696   4.489   1.962
 1007TIP3    H1 2962   4.604   4.509   1.951
 1007TIP3    H2 2963   4.701   4.393   1.957
 1008TIP3   OH2 2964   6.553   3.514   0.197
 1008TIP3    H1 2965   6.544   3.609   0.190
 1008TIP3    H2 2966   6.535   3.481   0.109
 1009TIP3   OH2 2967   4.486   4.175   5.561
 1009TIP3    H1 2968   4.577   4.201   5.573
 1009TIP3    H2 2969   4.484   4.082   5.583
 1010TIP3   OH2 2970   3.684   6.046   5.215
 1010TIP3    H1 2971   3.676   6.060   5.121
 1010TIP3    H2 2972   3.596   6.061   5.249
 1011TIP3   OH2 2973   4.405   4.496   1.852
 1011TIP3    H1 2974   4.383   4.515   1.943
 1011TIP3    H2 2975   4.369   4.408   1.837
 1012TIP3   OH2 2976   4.927   7.292   5.982
 1012TIP3    H1 2977   4.956   7.226   6.046
 1012TIP3    H2 2978   4.841   7.261   5.953
 1013TIP3   OH2 2979   6.123   0.173   1.945
 1013TIP3    H1 2980   6.169   0.089   1.946
 1013TIP3    H2 2981   6.065   0.169   2.021
 1014TIP3   OH2 2982   3.336   7.273   4.161
 1014TIP3    H1 2983   3.328   7.185   4.124
 1014TIP3    H2 2984   3.399   7.318   4.104
 1015TIP3   OH2 2985   2.096   4.594   5.408
 1015TIP3    H1 2986   2.047   4.652   5.466
 1015TIP3    H2 2987   2.186   4.628   5.410
 1016TIP3   OH2 2988   1.490   5.204   3.261
 1016TIP3    H1 2989   1.581   5.199   3.232
 1016TIP3    H2 2990   1.454   5.279   3.213
 1017TIP3   OH2 2991   7.233   0.212   5.454
 1017TIP3    H1 2992   7.295   0.240   5.388
 1017TIP3    H2 2993   7.154   0.189   5.405
 1018TIP3   OH2 2994   3.675   0.070   5.255
 1018TIP3    H1 2995   3.634   0.156   5.251
 1018TIP3    H2 2996   3.607   0.009   5.226
 1019TIP3   OH2 2997   0.006   2.942   2.632
 1019TIP3    H1 2998  -0.001   3.006   2.703
 1019TIP3    H2 2999   0.010   2.857   2.677
 1020TIP3   OH2 3000   8.026   7.492   3.292
 1020TIP3    H1 3001   8.037   7.563   3.355
 1020TIP3    H2 3002   7.951   7.519   3.239
 1021TIP3   OH2 3003   3.771   6.900   5.874
 1021TIP3    H1 3004   3.824   6.974   5.904
 1021TIP3    H2 3005   3.749   6.920   5.783
 1022TIP3   OH2 3006   6.899   1.734   1.635
 1022TIP3    H1 3007   6.957   1.688   1.695
 1022TIP3    H2 3008   6.946   1.815   1.613
 1023TIP3   OH2 3009   5.674   3.597   2.390
 1023TIP3    H1 3010   5.713   3.564   2.309
 1023TIP3    H2 3011   5.592   3.548   2.400
 1024TIP3   OH2 3012   3.839   4.436   5.694
 1024TIP3    H1 3013   3.817   4.402   5.781
 1024TIP3    H2 3014   3.928   4.470   5.704
 1025TIP3   OH2 3015   7.752   3.390   4.368
 1025TIP3    H1 3016   7.835   3.438   4.376
 1025TIP3    H2 3017   7.756   3.347   4.283
 1026TIP3   OH2 3018   4.930   6.858   1.885
 1026TIP3    H1 3019   4.911   6.950   1.867
 1026TIP3    H2 3020   4.854   6.811   1.852
 1027TIP3   OH2 3021   6.473   6.773   5.111
 1027TIP3    H1 3022   6.423   6.700   5.147
 1027TIP3    H2 3023   6.560   6.737   5.094
 1028TIP3   OH2 3024   0.172   4.970   4.951
 1028TIP3    H1 3025   0.252   4.928   4.983
 1028TIP3    H2 3026   0.170   5.054   4.997
 1029TIP3   OH2 3027   2.949   1.160   0.135
 1029TIP3    H1 3028   2.916   1.118   0.056
 1029TIP3    H2 3029   3.004   1.231   0.103
 1030TIP3   OH2 3030   1.107   5.888   3.351
 1030TIP3    H1 3031   1.201   5.888   3.372
 1030TIP3    H2 3032   1.065   5.918   3.432
 1031TIP3   OH2 3033   7.922   0.057   2.122
 1031TIP3    H1 3034   7.984   0.021   2.185
 1031TIP3    H2 3035   7.876   0.126   2.170
 1032TIP3   OH2 3036   3.225   5.183   6.462
 1032TIP3    H1 3037   3.247   5.136   6.382
 1032TIP3    H2 3038   3.309   5.191   6.508
 1033TIP3   OH2 3039   3.740   6.111   6.099
 1033TIP3    H1 3040   3.655   6.111   6.144
 1033TIP3    H2 3041   3.802   6.086   6.167
 1034TIP3   OH2 3042   4.686   5.280   5.328
 1034TIP3    H1 3043   4.593   5.293   5.348
 1034TIP3    H2 3044   4.732   5.336   5.390
 1035TIP3   OH2 3045   8.150   1.792   0.430
 1035TIP3    H1 3046   8.200   1.714   0.454
 1035TIP3    H2 3047   8.070   1.785   0.482
 1036TIP3   OH2 3048   7.851   0.309   6.158
 1036TIP3    H1 3049   7.876   0.360   6.235
 1036TIP3    H2 3050   7.931   0.305   6.105
 1037TIP3   OH2 3051   0.986   1.526   5.059
 1037TIP3    H1 3052   0.925   1.575   5.003
 1037TIP3    H2 3053   1.064   1.581   5.064
 1038TIP3   OH2 3054   6.260   0.284   1.742
 1038TIP3    H1 3055   6.210   0.263   1.821
 1038TIP3    H2 3056   6.351   0.271   1.767
 1039TIP3   OH2 3057   1.433   5.354   5.690
 1039TIP3    H1 3058   1.395   5.273   5.723
 1039TIP3    H2 3059   1.424   5.417   5.762
 1040TIP3   OH2 3060   5.465   5.755   2.072
 1040TIP3    H1 3061   5.464   5.824   2.137
 1040TIP3    H2 3062   5.475   5.801   1.988
 1041TIP3   OH2 3063   0.446   7.524   1.200
 1041TIP3    H1 3064   0.471   7.540   1.291
 1041TIP3    H2 3065   0.442   7.611   1.161
 1042TIP3   OH2 3066   4.214   4.601   3.669
 1042TIP3    H1 3067   4.297   4.588   3.624
 1042TIP3    H2 3068   4.237   4.644   3.751
 1043TIP3   OH2 3069   3.511   3.525   2.259
 1043TIP3    H1 3070   3.558   3.559   2.335
 1043TIP3    H2 3071   3.419   3.527   2.286
 1044TIP3   OH2 3072   0.872   0.474   6.316
 1044TIP3    H1 3073   0.876   0.556   6.366
 1044TIP3    H2 3074   0.919   0.411   6.370
 1045TIP3   OH2 3075   4.416   1.121   5.396
 1045TIP3    H1 3076   4.348   1.114   5.464
 1045TIP3    H2 3077   4.487   1.065   5.427
 1046TIP3   OH2 3078   6.685   0.268   6.058
 1046TIP3    H1 3079   6.651   0.357   6.057
 1046TIP3    H2 3080   6.752   0.268   6.126
 1047TIP3   OH2 3081   1.532   0.402   2.488
 1047TIP3    H1 3082   1.582   0.472   2.530
 1047TIP3    H2 3083   1.555   0.409   2.395
 1048TIP3   OH2 3084   2.505   5.748   3.921
 1048TIP3    H1 3085   2.600   5.760   3.924
 1048TIP3    H2 3086   2.489   5.705   3.836
 1049TIP3   OH2 3087   5.316   5.277   1.196
 1049TIP3    H1 3088   5.379   5.205   1.202
 1049TIP3    H2 3089   5.273   5.278   1.282
 1050TIP3   OH2 3090   7.554   5.919   5.571
 1050TIP3    H1 3091   7.504   5.998   5.553
 1050TIP3    H2 3092   7.514   5.852   5.516
 1051TIP3   OH2 3093   0.900   6.721   1.251
 1051TIP3    H1 3094   0.939   6.685   1.171
 1051TIP3    H2 3095   0.967   6.707   1.318
 1052TIP3   OH2 3096   2.086   4.831   3.087
 1052TIP3    H1 3097   2.089   4.826   3.182
 1052TIP3    H2 3098   2.097   4.740   3.058
 1053TIP3   OH2 3099   0.033   1.305   6.364
 1053TIP3    H1 3100   0.122   1.300   6.328
 1053TIP3    H2 3101  -0.009   1.376   6.316
 1054TIP3   OH2 3102   6.573   5.295   0.825
 1054TIP3    H1 3103   6.515   5.236   0.777
 1054TIP3    H2 3104   6.616   5.347   0.757
 1055TIP3   OH2 3105   0.980   0.924   2.221
 1055TIP3    H1 3106   0.987   0.974   2.302
 1055TIP3    H2 3107   0.932   0.982   2.161
 1056TIP3   OH2 3108   8.312   3.307   3.155
 1056TIP3    H1 3109   8.383   3.371   3.162
 1056TIP3    H2 3110   8.237   3.350   3.197
 1057TIP3   OH2 3111   7.557   2.232   4.214
 1057TIP3    H1 3112   7.562   2.323   4.243
 1057TIP3    H2 3113   7.560   2.181   4.295
 1058TIP3   OH2 3114   3.073   1.079   0.983
 1058TIP3    H1 3115   3.067   1.048   1.073
 1058TIP3    H2 3116   3.021   1.159   0.982
 1059TIP3   OH2 3117   8.358   3.372   1.887
 1059TIP3    H1 3118   8.445   3.410   1.885
 1059TIP3    H2 3119   8.306   3.434   1.938
 1060TIP3   OH2 3120   7.360   0.912   0.489
 1060TIP3    H1 3121   7.451   0.882   0.491
 1060TIP3    H2 3122   7.366   1.007   0.499
 1061TIP3   OH2 3123   1.256   4.951   0.661
 1061TIP3    H1 3124   1.235   5.043   0.672
 1061TIP3    H2 3125   1.343   4.941   0.699
 1062TIP3   OH2 3126   5.791   3.070   6.266
 1062TIP3    H1 3127   5.884   3.088   6.278
 1062TIP3    H2 3128   5.788   2.982   6.228
 1063TIP3   OH2 3129   6.565   7.055   6.732
 1063TIP3    H1 3130   6.531   7.044   6.643
 1063TIP3    H2 3131   6.660   7.065   6.720
 1064TIP3   OH2 3132   4.126   7.433   1.873
 1064TIP3    H1 3133   4.076   7.352   1.862
 1064TIP3    H2 3134   4.115   7.455   1.965
 1065TIP3   OH2 3135   6.763   0.893   5.547
 1065TIP3    H1 3136   6.736   0.856   5.463
 1065TIP3    H2 3137   6.836   0.951   5.525
 1066TIP3   OH2 3138   1.916   0.689   2.838
 1066TIP3    H1 3139   1.921   0.784   2.828
 1066TIP3    H2 3140   1.869   0.659   2.760
 1067TIP3   OH2 3141   6.397   2.389   0.783
 1067TIP3    H1 3142   6.306   2.417   0.793
 1067TIP3    H2 3143   6.419   2.415   0.693
 1068TIP3   OH2 3144   2.007   1.186   6.654
 1068TIP3    H1 3145   2.029   1.276   6.628
 1068TIP3    H2 3146   2.004   1.137   6.572
 1069TIP3   OH2 3147   2.855   3.694   5.527
 1069TIP3    H1 3148   2.862   3.628   5.596
 1069TIP3    H2 3149   2.873   3.646   5.446
 1070TIP3   OH2 3150   4.056   0.342   0.194
 1070TIP3    H1 3151   3.992   0.400   0.236
 1070TIP3    H2 3152   4.011   0.258   0.188
 1071TIP3   OH2 3153   5.291   2.450   1.668
 1071TIP3    H1 3154   5.280   2.470   1.760
 1071TIP3    H2 3155   5.210   2.406   1.642
 1072TIP3   OH2 3156   2.739   2.963   4.535
 1072TIP3    H1 3157   2.778   2.877   4.551
 1072TIP3    H2 3158   2.705   2.991   4.620
 1073TIP3   OH2 3159   1.574   1.503   6.046
 1073TIP3    H1 3160   1.651   1.542   6.088
 1073TIP3    H2 3161   1.590   1.515   5.952
 1074TIP3   OH2 3162   2.762   3.672   1.307
 1074TIP3    H1 3163   2.815   3.593   1.316
 1074TIP3    H2 3164   2.744   3.699   1.397
 1075TIP3   OH2 3165   0.319   1.938   3.620
 1075TIP3    H1 3166   0.410   1.919   3.598
 1075TIP3    H2 3167   0.324   2.005   3.689
 1076TIP3   OH2 3168   0.864   3.473   2.894
 1076TIP3    H1 3169   0.861   3.427   2.978
 1076TIP3    H2 3170   0.947   3.521   2.897
 1077TIP3   OH2 3171   2.312   7.711   1.061
 1077TIP3    H1 3172   2.384   7.730   1.001
 1077TIP3    H2 3173   2.347   7.734   1.147
 1078TIP3   OH2 3174   4.515   3.736   2.905
 1078TIP3    H1 3175   4.485   3.825   2.924
 1078TIP3    H2 3176   4.610   3.740   2.914
 1079TIP3   OH2 3177   2.398   7.221   4.817
 1079TIP3    H1 3178   2.456   7.145   4.808
 1079TIP3    H2 3179   2.415   7.254   4.906
 1080TIP3   OH2 3180   0.531   2.817   0.245
 1080TIP3    H1 3181   0.469   2.748   0.269
 1080TIP3    H2 3182   0.582   2.831   0.325
 1081TIP3   OH2 3183   5.867   6.564   6.481
 1081TIP3    H1 3184   5.908   6.626   6.420
 1081TIP3    H2 3185   5.788   6.609   6.511
 1082TIP3   OH2 3186   5.628   6.002   0.813
 1082TIP3    H1 3187   5.682   5.936   0.770
 1082TIP3    H2 3188   5.677   6.084   0.801
 1083TIP3   OH2 3189   2.125   7.464   0.434
 1083TIP3    H1 3190   2.199   7.490   0.380
 1083TIP3    H2 3191   2.108   7.373   0.409
 1084TIP3   OH2 3192   4.565   1.278   3.052
 1084TIP3    H1 3193   4.548   1.201   3.107
 1084TIP3    H2 3194   4.507   1.346   3.087
 1085TIP3   OH2 3195   3.315   1.109   4.068
 1085TIP3    H1 3196   3.261   1.044   4.022
 1085TIP3    H2 3197   3.305   1.087   4.161
 1086TIP3   OH2 3198   7.230   3.862   2.952
 1086TIP3    H1 3199   7.224   3.804   3.028
 1086TIP3    H2 3200   7.144   3.904   2.946
 1087TIP3   OH2 3201   8.100   5.936   4.469
 1087TIP3    H1 3202   8.115   5.938   4.375
 1087TIP3    H2 3203   8.141   5.855   4.499
 1088TIP3   OH2 3204   6.498   7.490   6.120
 1088TIP3    H1 3205   6.540   7.407   6.143
 1088TIP3    H2 3206   6.418   7.465   6.073
 1089TIP3   OH2 3207   8.348   4.369   3.275
 1089TIP3    H1 3208   8.312   4.356   3.187
 1089TIP3    H2 3209   8.326   4.460   3.295
 1090TIP3   OH2 3210   4.666   5.654   5.270
 1090TIP3    H1 3211   4.602   5.591   5.237
 1090TIP3    H2 3212   4.615   5.716   5.323
 1091TIP3   OH2 3213   8.408   4.175   6.474
 1091TIP3    H1 3214   8.407   4.241   6.405
 1091TIP3    H2 3215   8.316   4.150   6.485
 1092TIP3   OH2 3216   2.242   3.043   0.746
 1092TIP3    H1 3217   2.300   3.014   0.816
 1092TIP3    H2 3218   2.199   3.121   0.782
 1093TIP3   OH2 3219   6.477   0.529   3.418
 1093TIP3    H1 3220   6.498   0.544   3.510
 1093TIP3    H2 3221   6.428   0.607   3.392
 1094TIP3   OH2 3222   2.709   7.033   3.649
 1094TIP3    H1 3223   2.698   7.033   3.744
 1094TIP3    H2 3224   2.622   7.051   3.614
 1095TIP3   OH2 3225   6.451   6.557   4.666
 1095TIP3    H1 3226   6.414   6.470   4.678
 1095TIP3    H2 3227   6.391   6.600   4.605
 1096TIP3   OH2 3228   6.927   3.097   5.182
 1096TIP3    H1 3229   6.913   3.070   5.272
 1096TIP3    H2 3230   7.018   3.072   5.164
 1097TIP3   OH2 3231   4.612   6.278   6.539
 1097TIP3    H1 3232   4.706   6.290   6.531
 1097TIP3    H2 3233   4.591   6.206   6.479
 1098TIP3   OH2 3234   7.995   2.091   1.722
 1098TIP3    H1 3235   7.933   2.066   1.653
 1098TIP3    H2 3236   8.060   2.021   1.722
 1099TIP3   OH2 3237   1.419   2.866   4.673
 1099TIP3    H1 3238   1.348   2.920   4.637
 1099TIP3    H2 3239   1.489   2.873   4.608
 1100TIP3   OH2 3240   1.929   4.335   1.478
 1100TIP3    H1 3241   2.011   4.305   1.518
 1100TIP3    H2 3242   1.868   4.342   1.552
 1101TIP3   OH2 3243   4.861   5.686   0.075
 1101TIP3    H1 3244   4.796   5.700   0.144
 1101TIP3    H2 3245   4.928   5.753   0.091
 1102TIP3   OH2 3246   0.686   6.291   4.138
 1102TIP3    H1 3247   0.678   6.283   4.043
 1102TIP3    H2 3248   0.778   6.309   4.153
 1103TIP3   OH2 3249   2.105   1.649   5.668
 1103TIP3    H1 3250   2.183   1.599   5.692
 1103TIP3    H2 3251   2.068   1.601   5.594
 1104TIP3   OH2 3252   3.479   4.367   1.705
 1104TIP3    H1 3253   3.391   4.369   1.666
 1104TIP3    H2 3254   3.536   4.404   1.638
 1105TIP3   OH2 3255   7.165   0.984   5.651
 1105TIP3    H1 3256   7.089   1.013   5.599
 1105TIP3    H2 3257   7.172   1.050   5.720
 1106TIP3   OH2 3258   3.286   3.293   5.214
 1106TIP3    H1 3259   3.310   3.334   5.131
 1106TIP3    H2 3260   3.358   3.232   5.233
 1107TIP3   OH2 3261   4.995   6.622   3.854
 1107TIP3    H1 3262   5.022   6.658   3.770
 1107TIP3    H2 3263   4.900   6.608   3.845
 1108TIP3   OH2 3264   4.388   1.695   3.416
 1108TIP3    H1 3265   4.412   1.625   3.477
 1108TIP3    H2 3266   4.328   1.750   3.466
 1109TIP3   OH2 3267   2.364   3.392   0.335
 1109TIP3    H1 3268   2.400   3.303   0.341
 1109TIP3    H2 3269   2.273   3.383   0.361
 1110TIP3   OH2 3270   4.467   2.170   5.660
 1110TIP3    H1 3271   4.409   2.213   5.723
 1110TIP3    H2 3272   4.554   2.177   5.699
 1111TIP3   OH2 3273   3.427   3.223   3.938
 1111TIP3    H1 3274   3.334   3.218   3.918
 1111TIP3    H2 3275   3.470   3.190   3.859
 1112TIP3   OH2 3276   7.967   6.295   6.250
 1112TIP3    H1 3277   7.973   6.211   6.203
 1112TIP3    H2 3278   7.876   6.321   6.241
 1113TIP3   OH2 3279   3.136   1.589   5.411
 1113TIP3    H1 3280   3.229   1.600   5.433
 1113TIP3    H2 3281   3.129   1.628   5.324
 1114TIP3   OH2 3282   4.636   2.358   4.155
 1114TIP3    H1 3283   4.709   2.365   4.217
 1114TIP3    H2 3284   4.587   2.439   4.165
 1115TIP3   OH2 3285   2.631   4.783   2.093
 1115TIP3    H1 3286   2.619   4.691   2.072
 1115TIP3    H2 3287   2.722   4.802   2.070
 1116TIP3   OH2 3288   3.978   5.944   3.358
 1116TIP3    H1 3289   3.909   5.885   3.388
 1116TIP3    H2 3290   3.965   5.949   3.263
 1117TIP3   OH2 3291   1.430   5.784   4.697
 1117TIP3    H1 3292   1.484   5.708   4.716
 1117TIP3    H2 3293   1.432   5.836   4.777
 1118TIP3   OH2 3294   4.856   3.550   2.906
 1118TIP3    H1 3295   4.894   3.492   2.841
 1118TIP3    H2 3296   4.831   3.629   2.858
 1119TIP3   OH2 3297   3.777   3.333   3.645
 1119TIP3    H1 3298   3.807   3.350   3.735
 1119TIP3    H2 3299   3.695   3.285   3.656
 1120TIP3   OH2 3300   0.787   2.796   0.508
 1120TIP3    H1 3301   0.795   2.722   0.568
 1120TIP3    H2 3302   0.788   2.757   0.420
 1121TIP3   OH2 3303   3.606   3.057   5.767
 1121TIP3    H1 3304   3.635   2.968   5.784
 1121TIP3    H2 3305   3.685   3.111   5.777
 1122TIP3   OH2 3306   2.486   0.110   0.606
 1122TIP3    H1 3307   2.431   0.187   0.587
 1122TIP3    H2 3308   2.565   0.146   0.647
 1123TIP3   OH2 3309   2.300   7.317   2.509
 1123TIP3    H1 3310   2.249   7.361   2.442
 1123TIP3    H2 3311   2.341   7.388   2.559
 1124TIP3   OH2 3312   0.340   4.202   1.527
 1124TIP3    H1 3313   0.371   4.166   1.610
 1124TIP3    H2 3314   0.324   4.294   1.545
 1125TIP3   OH2 3315   2.967   0.663   2.387
 1125TIP3    H1 3316   2.956   0.627   2.475
 1125TIP3    H2 3317   2.981   0.586   2.331
 1126TIP3   OH2 3318   1.169   5.554   6.043
 1126TIP3    H1 3319   1.231   5.578   6.112
 1126TIP3    H2 3320   1.102   5.503   6.086
 1127TIP3   OH2 3321   5.000   4.380   5.751
 1127TIP3    H1 3322   5.062   4.358   5.821
 1127TIP3    H2 3323   4.915   4.384   5.795
 1128TIP3   OH2 3324   2.110   0.222   6.555
 1128TIP3    H1 3325   2.125   0.259   6.468
 1128TIP3    H2 3326   2.139   0.290   6.616
 1129TIP3   OH2 3327   7.052   6.598   3.925
 1129TIP3    H1 3328   6.966   6.639   3.934
 1129TIP3    H2 3329   7.105   6.638   3.994
 1130TIP3   OH2 3330   6.819   4.477   0.279
 1130TIP3    H1 3331   6.772   4.549   0.238
 1130TIP3    H2 3332   6.752   4.427   0.325
 1131TIP3   OH2 3333   1.266   3.285   5.854
 1131TIP3    H1 3334   1.294   3.325   5.937
 1131TIP3    H2 3335   1.263   3.358   5.792
 1132TIP3   OH2 3336   1.690   0.159   2.192
 1132TIP3    H1 3337   1.707   0.073   2.231
 1132TIP3    H2 3338   1.595   0.168   2.194
 1133TIP3   OH2 3339   3.355   0.920   0.331
 1133TIP3    H1 3340   3.409   0.999   0.330
 1133TIP3    H2 3341   3.299   0.930   0.408
 1134TIP3   OH2 3342   6.957   3.104   2.810
 1134TIP3    H1 3343   6.947   3.199   2.809
 1134TIP3    H2 3344   6.882   3.072   2.859
 1135TIP3   OH2 3345   7.240   4.550   2.795
 1135TIP3    H1 3346   7.220   4.464   2.758
 1135TIP3    H2 3347   7.275   4.531   2.882
 1136TIP3   OH2 3348   0.548   4.818   0.892
 1136TIP3    H1 3349   0.500   4.774   0.821
 1136TIP3    H2 3350   0.615   4.755   0.917
 1137TIP3   OH2 3351   1.407   1.099   0.047
 1137TIP3    H1 3352   1.329   1.045   0.059
 1137TIP3    H2 3353   1.434   1.081  -0.044
 1138TIP3   OH2 3354   2.805   4.099   4.907
 1138TIP3    H1 3355   2.752   4.172   4.940
 1138TIP3    H2 3356   2.743   4.028   4.894
 1139TIP3   OH2 3357   5.313   2.624   5.886
 1139TIP3    H1 3358   5.353   2.689   5.829
 1139TIP3    H2 3359   5.306   2.546   5.832
 1140TIP3   OH2 3360   6.199   2.689   4.081
 1140TIP3    H1 3361   6.157   2.604   4.096
 1140TIP3    H2 3362   6.289   2.676   4.110
 1141TIP3   OH2 3363   7.592   7.304   3.656
 1141TIP3    H1 3364   7.607   7.333   3.747
 1141TIP3    H2 3365   7.678   7.314   3.614
 1142TIP3   OH2 3366   3.663   7.674   0.236
 1142TIP3    H1 3367   3.573   7.682   0.204
 1142TIP3    H2 3368   3.708   7.750   0.199
 1143TIP3   OH2 3369   0.692   2.105   3.295
 1143TIP3    H1 3370   0.618   2.109   3.235
 1143TIP3    H2 3371   0.686   2.185   3.347
 1144TIP3   OH2 3372   5.810   5.136   1.900
 1144TIP3    H1 3373   5.771   5.218   1.929
 1144TIP3    H2 3374   5.904   5.149   1.909
 1145TIP3   OH2 3375   0.833   5.636   5.118
 1145TIP3    H1 3376   0.835   5.729   5.095
 1145TIP3    H2 3377   0.844   5.590   5.035
 1146TIP3   OH2 3378   6.067   4.965   1.653
 1146TIP3    H1 3379   6.046   4.978   1.745
 1146TIP3    H2 3380   6.155   4.927   1.653
 1147TIP3   OH2 3381   2.131   5.634   1.442
 1147TIP3    H1 3382   2.209   5.580   1.452
 1147TIP3    H2 3383   2.138   5.699   1.512
 1148TIP3   OH2 3384   0.414   2.754   4.389
 1148TIP3    H1 3385   0.330   2.716   4.417
 1148TIP3    H2 3386   0.408   2.846   4.415
 1149TIP3   OH2 3387   3.470   5.628   6.073
 1149TIP3    H1 3388   3.543   5.613   6.133
 1149TIP3    H2 3389   3.423   5.701   6.111
 1150TIP3   OH2 3390   5.234   1.836   2.898
 1150TIP3    H1 3391   5.265   1.844   2.807
 1150TIP3    H2 3392   5.161   1.897   2.903
 1151TIP3   OH2 3393   0.265   2.547   2.163
 1151TIP3    H1 3394   0.301   2.592   2.239
 1151TIP3    H2 3395   0.223   2.616   2.112
 1152TIP3   OH2 3396   0.518   5.614   4.556
 1152TIP3    H1 3397   0.572   5.622   4.478
 1152TIP3    H2 3398   0.581   5.603   4.628
 1153TIP3   OH2 3399   5.027   4.634   3.898
 1153TIP3    H1 3400   5.047   4.586   3.817
 1153TIP3    H2 3401   4.945   4.679   3.879
 1154TIP3   OH2 3402   1.149   7.489   3.912
 1154TIP3    H1 3403   1.152   7.530   3.998
 1154TIP3    H2 3404   1.076   7.428   3.916
 1155TIP3   OH2 3405   4.127   3.018   0.431
 1155TIP3    H1 3406   4.111   3.112   0.430
 1155TIP3    H2 3407   4.086   2.988   0.512
 1156TIP3   OH2 3408   6.313   0.768   6.741
 1156TIP3    H1 3409   6.266   0.778   6.824
 1156TIP3    H2 3410   6.305   0.675   6.719
 1157TIP3   OH2 3411   3.751   5.903   1.600
 1157TIP3    H1 3412   3.703   5.821   1.587
 1157TIP3    H2 3413   3.802   5.914   1.519
 1158TIP3   OH2 3414   6.345   4.391   0.359
 1158TIP3    H1 3415   6.314   4.471   0.401
 1158TIP3    H2 3416   6.389   4.421   0.279
 1159TIP3   OH2 3417   5.558   3.484   1.607
 1159TIP3    H1 3418   5.616   3.476   1.531
 1159TIP3    H2 3419   5.597   3.552   1.661
 1160TIP3   OH2 3420   6.269   4.446   6.829
 1160TIP3    H1 3421   6.253   4.506   6.756
 1160TIP3    H2 3422   6.233   4.492   6.905
 1161TIP3   OH2 3423   7.988   2.235   1.969
 1161TIP3    H1 3424   8.075   2.195   1.975
 1161TIP3    H2 3425   7.948   2.191   1.893
 1162TIP3   OH2 3426   7.413   3.797   3.441
 1162TIP3    H1 3427   7.435   3.869   3.501
 1162TIP3    H2 3428   7.387   3.840   3.360
 1163TIP3   OH2 3429   3.445   7.723   2.906
 1163TIP3    H1 3430   3.417   7.808   2.940
 1163TIP3    H2 3431   3.528   7.740   2.863
 1164TIP3   OH2 3432   5.416   5.524   4.957
 1164TIP3    H1 3433   5.511   5.519   4.956
 1164TIP3    H2 3434   5.396   5.580   5.032
 1165TIP3   OH2 3435   4.305   3.745   3.904
 1165TIP3    H1 3436   4.287   3.734   3.997
 1165TIP3    H2 3437   4.236   3.696   3.859
 1166TIP3   OH2 3438   7.652   5.721   3.478
 1166TIP3    H1 3439   7.743   5.729   3.450
 1166TIP3    H2 3440   7.644   5.631   3.510
 1167TIP3   OH2 3441   4.180   5.087   2.095
 1167TIP3    H1 3442   4.090   5.077   2.124
 1167TIP3    H2 3443   4.231   5.091   2.176
 1168TIP3   OH2 3444   3.742   4.213   3.288
 1168TIP3    H1 3445   3.787   4.294   3.315
 1168TIP3    H2 3446   3.765   4.149   3.355
 1169TIP3   OH2 3447   4.224   0.497   5.887
 1169TIP3    H1 3448   4.170   0.533   5.817
 1169TIP3    H2 3449   4.312   0.531   5.869
 1170TIP3   OH2 3450   0.735   1.768   3.574
 1170TIP3    H1 3451   0.690   1.688   3.601
 1170TIP3    H2 3452   0.787   1.743   3.498
 1171TIP3   OH2 3453   7.374   4.051   4.202
 1171TIP3    H1 3454   7.442   4.079   4.140
 1171TIP3    H2 3455   7.373   4.120   4.269
 1172TIP3   OH2 3456   1.580   3.094   4.583
 1172TIP3    H1 3457   1.602   3.142   4.504
 1172TIP3    H2 3458   1.491   3.122   4.604
 1173TIP3   OH2 3459   1.312   3.201   4.583
 1173TIP3    H1 3460   1.260   3.237   4.654
 1173TIP3    H2 3461   1.261   3.127   4.550
 1174TIP3   OH2 3462   0.334   3.840   5.646
 1174TIP3    H1 3463   0.275   3.863   5.574
 1174TIP3    H2 3464   0.310   3.750   5.669
 1175TIP3   OH2 3465   6.555   1.377   2.872
 1175TIP3    H1 3466   6.594   1.461   2.898
 1175TIP3    H2 3467   6.578   1.367   2.780
 1176TIP3   OH2 3468   7.080   2.114   6.029
 1176TIP3    H1 3469   7.041   2.192   5.989
 1176TIP3    H2 3470   7.173   2.120   6.010
 1177TIP3   OH2 3471   0.205   4.411   2.229
 1177TIP3    H1 3472   0.247   4.480   2.178
 1177TIP3    H2 3473   0.151   4.364   2.166
 1178TIP3   OH2 3474   7.597   1.032   2.721
 1178TIP3    H1 3475   7.556   1.026   2.807
 1178TIP3    H2 3476   7.660   1.104   2.729
 1179TIP3   OH2 3477   5.147   2.245   5.208
 1179TIP3    H1 3478   5.137   2.182   5.279
 1179TIP3    H2 3479   5.190   2.196   5.138
 1180TIP3   OH2 3480   0.985   3.974   2.683
 1180TIP3    H1 3481   0.969   3.879   2.688
 1180TIP3    H2 3482   0.900   4.010   2.657
 1181TIP3   OH2 3483   5.411   7.358   0.116
 1181TIP3    H1 3484   5.416   7.449   0.144
 1181TIP3    H2 3485   5.470   7.311   0.176
 1182TIP3   OH2 3486   7.440   6.519   1.614
 1182TIP3    H1 3487   7.345   6.510   1.610
 1182TIP3    H2 3488   7.472   6.431   1.635
 1183TIP3   OH2 3489   8.151   6.699   2.940
 1183TIP3    H1 3490   8.111   6.635   2.881
 1183TIP3    H2 3491   8.113   6.680   3.025
 1184TIP3   OH2 3492   4.012   2.208   1.044
 1184TIP3    H1 3493   3.995   2.299   1.071
 1184TIP3    H2 3494   4.007   2.158   1.125
 1185TIP3   OH2 3495   5.914   4.608   4.792
 1185TIP3    H1 3496   6.000   4.614   4.834
 1185TIP3    H2 3497   5.872   4.691   4.813
 1186TIP3   OH2 3498   1.754   7.595   4.807
 1186TIP3    H1 3499   1.668   7.611   4.847
 1186TIP3    H2 3500   1.759   7.500   4.798
 1187TIP3   OH2 3501   4.329   1.599   4.053
 1187TIP3    H1 3502   4.285   1.636   3.976
 1187TIP3    H2 3503   4.339   1.674   4.113
 1188TIP3   OH2 3504   3.732   4.005   4.965
 1188TIP3    H1 3505   3.674   4.058   4.910
 1188TIP3    H2 3506   3.722   4.041   5.053
 1189TIP3   OH2 3507   3.036   2.020   6.236
 1189TIP3    H1 3508   3.103   1.953   6.248
 1189TIP3    H2 3509   3.079   2.086   6.182
 1190TIP3   OH2 3510   5.359   6.190   6.090
 1190TIP3    H1 3511   5.421   6.130   6.131
 1190TIP3    H2 3512   5.276   6.142   6.089
 1191TIP3   OH2 3513   1.687   6.454   2.624
 1191TIP3    H1 3514   1.761   6.394   2.637
 1191TIP3    H2 3515   1.620   6.399   2.583
 1192TIP3   OH2 3516   1.531   2.207   0.430
 1192TIP3    H1 3517   1.590   2.132   0.423
 1192TIP3    H2 3518   1.496   2.203   0.519
 1193TIP3   OH2 3519   5.721   1.993   5.432
 1193TIP3    H1 3520   5.747   2.010   5.341
 1193TIP3    H2 3521   5.803   1.968   5.475
 1194TIP3   OH2 3522   7.205   4.029   0.043
 1194TIP3    H1 3523   7.218   3.936   0.024
 1194TIP3    H2 3524   7.145   4.029   0.117
 1195TIP3   OH2 3525   4.239   2.533   0.793
 1195TIP3    H1 3526   4.159   2.508   0.747
 1195TIP3    H2 3527   4.221   2.622   0.825
 1196TIP3   OH2 3528   1.036   5.281   1.768
 1196TIP3    H1 3529   0.999   5.343   1.830
 1196TIP3    H2 3530   1.078   5.215   1.823
 1197TIP3   OH2 3531   3.929   0.092   0.397
 1197TIP3    H1 3532   3.881   0.027   0.449
 1197TIP3    H2 3533   3.992   0.041   0.346
 1198TIP3   OH2 3534   3.315   1.803   3.554
 1198TIP3    H1 3535   3.302   1.710   3.537
 1198TIP3    H2 3536   3.408   1.811   3.575
 1199TIP3   OH2 3537   4.249   4.905   4.606
 1199TIP3    H1 3538   4.210   4.992   4.599
 1199TIP3    H2 3539   4.271   4.881   4.516
 1200TIP3   OH2 3540   3.911   4.208   2.132
 1200TIP3    H1 3541   3.855   4.131   2.143
 1200TIP3    H2 3542   3.917   4.245   2.220
 1201TIP3   OH2 3543   5.653   5.133   2.690
 1201TIP3    H1 3544   5.587   5.166   2.750
 1201TIP3    H2 3545   5.694   5.211   2.652
 1202TIP3   OH2 3546   4.578   5.772   6.756
 1202TIP3    H1 3547   4.517   5.708   6.794
 1202TIP3    H2 3548   4.645   5.783   6.823
 1203TIP3   OH2 3549   6.831   4.563   5.979
 1203TIP3    H1 3550   6.740   4.572   6.007
 1203TIP3    H2 3551   6.881   4.551   6.060
 1204TIP3   OH2 3552   5.942   5.630   2.682
 1204TIP3    H1 3553   6.035   5.627   2.702
 1204TIP3    H2 3554   5.938   5.660   2.591
 1205TIP3   OH2 3555   5.280   1.386   4.520
 1205TIP3    H1 3556   5.233   1.368   4.438
 1205TIP3    H2 3557   5.365   1.418   4.491
 1206TIP3   OH2 3558   1.277   6.894   6.372
 1206TIP3    H1 3559   1.362   6.938   6.366
 1206TIP3    H2 3560   1.281   6.845   6.454
 1207TIP3   OH2 3561   3.871   1.859   0.223
 1207TIP3    H1 3562   3.925   1.855   0.302
 1207TIP3    H2 3563   3.883   1.949   0.190
 1208TIP3   OH2 3564   4.891   2.201   1.190
 1208TIP3    H1 3565   4.849   2.288   1.190
 1208TIP3    H2 3566   4.821   2.141   1.167
 1209TIP3   OH2 3567   6.171   7.491   6.270
 1209TIP3    H1 3568   6.118   7.527   6.200
 1209TIP3    H2 3569   6.191   7.401   6.242
 1210TIP3   OH2 3570   1.706   7.107   4.348
 1210TIP3    H1 3571   1.757   7.148   4.418
 1210TIP3    H2 3572   1.710   7.169   4.276
 1211TIP3   OH2 3573   0.251   4.289   5.034
 1211TIP3    H1 3574   0.201   4.326   4.962
 1211TIP3    H2 3575   0.238   4.350   5.107
 1212TIP3   OH2 3576   0.874   3.210   4.128
 1212TIP3    H1 3577   0.916   3.296   4.127
 1212TIP3    H2 3578   0.818   3.209   4.051
 1213TIP3   OH2 3579   4.355   4.879   4.340
 1213TIP3    H1 3580   4.416   4.936   4.293
 1213TIP3    H2 3581   4.410   4.814   4.384
 1214TIP3   OH2 3582   0.063   7.573   5.968
 1214TIP3    H1 3583   0.051   7.484   6.001
 1214TIP3    H2 3584   0.039   7.629   6.041
 1215TIP3   OH2 3585   7.616  -0.001   3.835
 1215TIP3    H1 3586   7.675   0.069   3.862
 1215TIP3    H2 3587   7.571   0.033   3.758
 1216TIP3   OH2 3588   7.638   0.903   4.869
 1216TIP3    H1 3589   7.675   0.920   4.955
 1216TIP3    H2 3590   7.712   0.908   4.809
 1217TIP3   OH2 3591   3.613   0.412   2.110
 1217TIP3    H1 3592   3.649   0.422   2.198
 1217TIP3    H2 3593   3.629   0.320   2.088
 1218TIP3   OH2 3594   0.978   4.529   4.872
 1218TIP3    H1 3595   0.967   4.583   4.950
 1218TIP3    H2 3596   1.028   4.453   4.903
 1219TIP3   OH2 3597   0.828   7.578   6.661
 1219TIP3    H1 3598   0.904   7.535   6.700
 1219TIP3    H2 3599   0.759   7.568   6.726
 1220TIP3   OH2 3600   6.771   3.008   2.993
 1220TIP3    H1 3601   6.739   2.918   2.991
 1220TIP3    H2 3602   6.766   3.033   3.085
 1221TIP3   OH2 3603   0.189   2.118   0.159
 1221TIP3    H1 3604   0.149   2.171   0.228
 1221TIP3    H2 3605   0.192   2.176   0.083
 1222TIP3   OH2 3606   3.368   7.306   2.095
 1222TIP3    H1 3607   3.412   7.222   2.102
 1222TIP3    H2 3608   3.287   7.287   2.046
 1223TIP3   OH2 3609   5.606   7.029   5.860
 1223TIP3    H1 3610   5.689   6.983   5.850
 1223TIP3    H2 3611   5.545   6.961   5.890
 1224TIP3   OH2 3612   1.674   4.401   4.660
 1224TIP3    H1 3613   1.615   4.466   4.621
 1224TIP3    H2 3614   1.678   4.425   4.752
 1225TIP3   OH2 3615   1.819   2.711   0.918
 1225TIP3    H1 3616   1.906   2.682   0.944
 1225TIP3    H2 3617   1.803   2.790   0.970
 1226TIP3   OH2 3618   4.119   2.572   1.894
 1226TIP3    H1 3619   4.203   2.544   1.930
 1226TIP3    H2 3620   4.127   2.667   1.888
 1227TIP3   OH2 3621   4.063   3.656   2.896
 1227TIP3    H1 3622   4.123   3.688   2.829
 1227TIP3    H2 3623   3.985   3.629   2.847
 1228TIP3   OH2 3624   4.632   6.218   4.701
 1228TIP3    H1 3625   4.707   6.201   4.758
 1228TIP3    H2 3626   4.618   6.313   4.708
 1229TIP3   OH2 3627   7.567   5.819   6.586
 1229TIP3    H1 3628   7.654   5.796   6.552
 1229TIP3    H2 3629   7.552   5.756   6.656
 1230TIP3   OH2 3630   4.597   0.873   5.431
 1230TIP3    H1 3631   4.678   0.902   5.472
 1230TIP3    H2 3632   4.539   0.852   5.504
 1231TIP3   OH2 3633   0.154   3.151   5.249
 1231TIP3    H1 3634   0.143   3.089   5.176
 1231TIP3    H2 3635   0.122   3.235   5.214
 1232TIP3   OH2 3636   3.019   6.733   0.111
 1232TIP3    H1 3637   2.947   6.773   0.160
 1232TIP3    H2 3638   3.087   6.717   0.178
 1233TIP3   OH2 3639   2.958   3.487   6.645
 1233TIP3    H1 3640   2.863   3.481   6.653
 1233TIP3    H2 3641   2.991   3.453   6.728
 1234TIP3   OH2 3642   4.172   4.504   6.282
 1234TIP3    H1 3643   4.181   4.558   6.203
 1234TIP3    H2 3644   4.121   4.428   6.252
 1235TIP3   OH2 3645   1.687   5.891   3.418
 1235TIP3    H1 3646   1.753   5.932   3.363
 1235TIP3    H2 3647   1.698   5.797   3.402
 1236TIP3   OH2 3648   1.107   6.034   0.672
 1236TIP3    H1 3649   1.199   6.014   0.684
 1236TIP3    H2 3650   1.095   6.120   0.712
 1237TIP3   OH2 3651   0.290   0.976   3.093
 1237TIP3    H1 3652   0.321   1.050   3.043
 1237TIP3    H2 3653   0.201   1.001   3.119
 1238TIP3   OH2 3654   1.297   3.580   2.605
 1238TIP3    H1 3655   1.272   3.489   2.589
 1238TIP3    H2 3656   1.251   3.604   2.686
 1239TIP3   OH2 3657   2.589   7.646   0.401
 1239TIP3    H1 3658   2.546   7.567   0.433
 1239TIP3    H2 3659   2.653   7.614   0.338
 1240TIP3   OH2 3660   6.221   6.481   6.669
 1240TIP3    H1 3661   6.220   6.489   6.764
 1240TIP3    H2 3662   6.201   6.569   6.637
 1241TIP3   OH2 3663   6.477   4.626   2.561
 1241TIP3    H1 3664   6.472   4.615   2.656
 1241TIP3    H2 3665   6.517   4.545   2.530
 1242TIP3   OH2 3666   1.616   0.958   2.714
 1242TIP3    H1 3667   1.583   1.038   2.755
 1242TIP3    H2 3668   1.558   0.943   2.640
 1243TIP3   OH2 3669   1.355   3.601   0.659
 1243TIP3    H1 3670   1.421   3.648   0.711
 1243TIP3    H2 3671   1.348   3.515   0.702
 1244TIP3   OH2 3672   0.619   1.955   2.619
 1244TIP3    H1 3673   0.545   1.971   2.560
 1244TIP3    H2 3674   0.696   1.974   2.565
 1245TIP3   OH2 3675   5.176   5.083   4.138
 1245TIP3    H1 3676   5.127   5.003   4.122
 1245TIP3    H2 3677   5.118   5.137   4.191
 1246TIP3   OH2 3678   0.738   3.649   6.745
 1246TIP3    H1 3679   0.791   3.622   6.820
 1246TIP3    H2 3680   0.749   3.744   6.742
 1247TIP3   OH2 3681   1.753   1.841   6.532
 1247TIP3    H1 3682   1.682   1.904   6.520
 1247TIP3    H2 3683   1.802   1.874   6.607
 1248TIP3   OH2 3684   3.369   7.751   6.330
 1248TIP3    H1 3685   3.334   7.672   6.371
 1248TIP3    H2 3686   3.373   7.730   6.237
 1249TIP3   OH2 3687   6.437   7.427   5.583
 1249TIP3    H1 3688   6.487   7.471   5.653
 1249TIP3    H2 3689   6.387   7.360   5.628
 1250TIP3   OH2 3690   1.700   3.182   2.557
 1250TIP3    H1 3691   1.636   3.250   2.535
 1250TIP3    H2 3692   1.647   3.111   2.594
 1251TIP3   OH2 3693   5.164   2.980   2.219
 1251TIP3    H1 3694   5.195   2.901   2.264
 1251TIP3    H2 3695   5.072   2.962   2.199
 1252TIP3   OH2 3696   7.958   5.002   1.079
 1252TIP3    H1 3697   8.037   5.009   1.024
 1252TIP3    H2 3698   7.898   4.949   1.028
 1253TIP3   OH2 3699   6.308   0.657   5.355
 1253TIP3    H1 3700   6.275   0.702   5.433
 1253TIP3    H2 3701   6.233   0.607   5.322
 1254TIP3   OH2 3702   0.532   4.075   3.820
 1254TIP3    H1 3703   0.621   4.045   3.840
 1254TIP3    H2 3704   0.506   4.023   3.745
 1255TIP3   OH2 3705   4.034   6.189   0.895
 1255TIP3    H1 3706   4.101   6.171   0.829
 1255TIP3    H2 3707   3.986   6.107   0.904
 1256TIP3   OH2 3708   5.061   7.525   6.650
 1256TIP3    H1 3709   5.004   7.603   6.655
 1256TIP3    H2 3710   5.126   7.548   6.584
 1257TIP3   OH2 3711   1.779   3.806   6.419
 1257TIP3    H1 3712   1.685   3.810   6.432
 1257TIP3    H2 3713   1.793   3.848   6.334
 1258TIP3   OH2 3714   3.534   5.652   4.966
 1258TIP3    H1 3715   3.458   5.596   4.955
 1258TIP3    H2 3716   3.533   5.710   4.891
 1259TIP3   OH2 3717   3.301   6.348   1.877
 1259TIP3    H1 3718   3.384   6.305   1.858
 1259TIP3    H2 3719   3.276   6.390   1.795
 1260TIP3   OH2 3720   2.113   2.672   1.560
 1260TIP3    H1 3721   2.053   2.694   1.488
 1260TIP3    H2 3722   2.136   2.757   1.598
 1261TIP3   OH2 3723   0.735   3.628   5.171
 1261TIP3    H1 3724   0.689   3.633   5.255
 1261TIP3    H2 3725   0.754   3.535   5.160
 1262TIP3   OH2 3726   0.993   3.708   3.446
 1262TIP3    H1 3727   0.994   3.803   3.433
 1262TIP3    H2 3728   1.068   3.677   3.396
 1263TIP3   OH2 3729   7.596   1.731   0.116
 1263TIP3    H1 3730   7.503   1.726   0.136
 1263TIP3    H2 3731   7.623   1.817   0.150
 1264TIP3   OH2 3732   0.088   3.239   4.350
 1264TIP3    H1 3733   0.158   3.303   4.365
 1264TIP3    H2 3734   0.089   3.184   4.428
 1265TIP3   OH2 3735   3.221   7.125   3.507
 1265TIP3    H1 3736   3.131   7.153   3.491
 1265TIP3    H2 3737   3.265   7.204   3.539
 1266TIP3   OH2 3738   1.873   6.735   4.852
 1266TIP3    H1 3739   1.926   6.795   4.799
 1266TIP3    H2 3740   1.796   6.786   4.876
 1267TIP3   OH2 3741   6.601   5.397   2.145
 1267TIP3    H1 3742   6.577   5.464   2.209
 1267TIP3    H2 3743   6.517   5.365   2.112
 1268TIP3   OH2 3744   4.597   3.188   0.039
 1268TIP3    H1 3745   4.650   3.109   0.027
 1268TIP3    H2 3746   4.643   3.237   0.107
 1269TIP3   OH2 3747   8.133   2.161   6.403
 1269TIP3    H1 3748   8.148   2.203   6.318
 1269TIP3    H2 3749   8.213   2.180   6.453
 1270TIP3   OH2 3750   7.599   1.259   5.791
 1270TIP3    H1 3751   7.533   1.300   5.734
 1270TIP3    H2 3752   7.564   1.272   5.879
 1271TIP3   OH2 3753   6.384   7.344   4.477
 1271TIP3    H1 3754   6.453   7.369   4.539
 1271TIP3    H2 3755   6.310   7.318   4.532
 1272TIP3   OH2 3756   3.073   1.183   5.845
 1272TIP3    H1 3757   3.074   1.191   5.940
 1272TIP3    H2 3758   3.163   1.160   5.822
 1273TIP3   OH2 3759   7.148   7.859   4.558
 1273TIP3    H1 3760   7.113   7.798   4.623
 1273TIP3    H2 3761   7.108   7.831   4.475
 1274TIP3   OH2 3762   4.888   3.480   4.345
 1274TIP3    H1 3763   4.840   3.537   4.406
 1274TIP3    H2 3764   4.975   3.519   4.339
 1275TIP3   OH2 3765   5.994   1.039   6.209
 1275TIP3    H1 3766   6.080   1.067   6.178
 1275TIP3    H2 3767   5.944   1.120   6.220
 1276TIP3   OH2 3768   2.940   4.872   0.029
 1276TIP3    H1 3769   2.851   4.854   0.000
 1276TIP3    H2 3770   2.986   4.789   0.019
 1277TIP3   OH2 3771   1.296   7.624   5.147
 1277TIP3    H1 3772   1.305   7.714   5.177
 1277TIP3    H2 3773   1.202   7.606   5.151
 1278TIP3   OH2 3774   1.895   6.255   4.195
 1278TIP3    H1 3775   1.982   6.216   4.186
 1278TIP3    H2 3776   1.854   6.204   4.265
 1279TIP3   OH2 3777   7.734   2.816   5.123
 1279TIP3    H1 3778   7.731   2.723   5.101
 1279TIP3    H2 3779   7.825   2.842   5.108
 1280TIP3   OH2 3780   7.465   3.145   2.411
 1280TIP3    H1 3781   7.494   3.138   2.502
 1280TIP3    H2 3782   7.384   3.195   2.416
 1281TIP3   OH2 3783   3.953   1.682   0.757
 1281TIP3    H1 3784   4.009   1.728   0.821
 1281TIP3    H2 3785   3.920   1.751   0.701
 1282TIP3   OH2 3786   3.410   0.429   4.881
 1282TIP3    H1 3787   3.431   0.497   4.946
 1282TIP3    H2 3788   3.329   0.390   4.912
 1283TIP3   OH2 3789   1.508   2.492   1.564
 1283TIP3    H1 3790   1.499   2.528   1.652
 1283TIP3    H2 3791   1.536   2.566   1.510
 1284TIP3   OH2 3792   1.802   3.410   0.907
 1284TIP3    H1 3793   1.750   3.395   0.986
 1284TIP3    H2 3794   1.740   3.396   0.835
 1285TIP3   OH2 3795   6.053   4.570   1.874
 1285TIP3    H1 3796   5.997   4.549   1.799
 1285TIP3    H2 3797   6.131   4.516   1.862
 1286TIP3   OH2 3798   0.516   3.159   2.620
 1286TIP3    H1 3799   0.570   3.113   2.556
 1286TIP3    H2 3800   0.436   3.183   2.573
 1287TIP3   OH2 3801   0.619   4.270   1.378
 1287TIP3    H1 3802   0.562   4.343   1.352
 1287TIP3    H2 3803   0.569   4.192   1.357
 1288TIP3   OH2 3804   2.868   5.551   2.324
 1288TIP3    H1 3805   2.791   5.606   2.340
 1288TIP3    H2 3806   2.908   5.588   2.246
 1289TIP3   OH2 3807   7.988   3.789   2.043
 1289TIP3    H1 3808   7.906   3.839   2.041
 1289TIP3    H2 3809   7.997   3.754   1.955
 1290TIP3   OH2 3810   4.760   4.588   2.539
 1290TIP3    H1 3811   4.833   4.574   2.599
 1290TIP3    H2 3812   4.725   4.501   2.523
 1291TIP3   OH2 3813   3.761   1.976   0.951
 1291TIP3    H1 3814   3.726   1.981   1.040
 1291TIP3    H2 3815   3.725   1.895   0.915
 1292TIP3   OH2 3816   0.291   5.035   5.946
 1292TIP3    H1 3817   0.343   4.959   5.971
 1292TIP3    H2 3818   0.348   5.110   5.963
 1293TIP3   OH2 3819   3.138   1.314   3.161
 1293TIP3    H1 3820   3.082   1.276   3.229
 1293TIP3    H2 3821   3.076   1.349   3.096
 1294TIP3   OH2 3822   5.529   5.165   3.292
 1294TIP3    H1 3823   5.495   5.194   3.208
 1294TIP3    H2 3824   5.451   5.144   3.343
 1295TIP3   OH2 3825   2.297   3.552   4.734
 1295TIP3    H1 3826   2.332   3.489   4.798
 1295TIP3    H2 3827   2.362   3.623   4.733
 1296TIP3   OH2 3828   6.327   2.533   0.414
 1296TIP3    H1 3829   6.246   2.583   0.424
 1296TIP3    H2 3830   6.381   2.560   0.488
 1297TIP3   OH2 3831   3.637   2.106   1.712
 1297TIP3    H1 3832   3.655   2.200   1.715
 1297TIP3    H2 3833   3.586   2.089   1.791
 1298TIP3   OH2 3834   6.858   6.505   6.577
 1298TIP3    H1 3835   6.904   6.421   6.585
 1298TIP3    H2 3836   6.877   6.534   6.488
 1299TIP3   OH2 3837   4.528   4.748   6.749
 1299TIP3    H1 3838   4.613   4.766   6.708
 1299TIP3    H2 3839   4.465   4.795   6.695
 1300TIP3   OH2 3840   6.392   1.220   2.308
 1300TIP3    H1 3841   6.341   1.162   2.365
 1300TIP3    H2 3842   6.326   1.262   2.252
 1301TIP3   OH2 3843   1.751   3.624   1.556
 1301TIP3    H1 3844   1.725   3.574   1.633
 1301TIP3    H2 3845   1.767   3.557   1.489
 1302TIP3   OH2 3846   4.860   2.568   4.060
 1302TIP3    H1 3847   4.786   2.529   4.012
 1302TIP3    H2 3848   4.849   2.662   4.049
 1303TIP3   OH2 3849   3.291   4.300   5.172
 1303TIP3    H1 3850   3.365   4.239   5.165
 1303TIP3    H2 3851   3.283   4.338   5.085
 1304TIP3   OH2 3852   6.679   7.552   3.951
 1304TIP3    H1 3853   6.726   7.473   3.924
 1304TIP3    H2 3854   6.603   7.556   3.892
 1305TIP3   OH2 3855   5.227   3.354   4.221
 1305TIP3    H1 3856   5.147   3.303   4.208
 1305TIP3    H2 3857   5.297   3.295   4.193
 1306TIP3   OH2 3858   3.438   4.778   5.674
 1306TIP3    H1 3859   3.414   4.793   5.583
 1306TIP3    H2 3860   3.509   4.840   5.690
 1307TIP3   OH2 3861   4.096   5.591   4.317
 1307TIP3    H1 3862   4.100   5.687   4.315
 1307TIP3    H2 3863   4.187   5.564   4.331
 1308TIP3   OH2 3864   7.553   3.531   4.185
 1308TIP3    H1 3865   7.611   3.497   4.254
 1308TIP3    H2 3866   7.508   3.453   4.152
 1309TIP3   OH2 3867   2.163   0.467   3.976
 1309TIP3    H1 3868   2.187   0.501   3.889
 1309TIP3    H2 3869   2.078   0.425   3.962
 1310TIP3   OH2 3870   1.533   0.833   4.533
 1310TIP3    H1 3871   1.506   0.829   4.442
 1310TIP3    H2 3872   1.622   0.869   4.531
 1311TIP3   OH2 3873   7.690   4.007   6.108
 1311TIP3    H1 3874   7.726   3.920   6.095
 1311TIP3    H2 3875   7.624   3.995   6.177
 1312TIP3   OH2 3876   5.654   5.479   1.176
 1312TIP3    H1 3877   5.694   5.548   1.124
 1312TIP3    H2 3878   5.613   5.421   1.112
 1313TIP3   OH2 3879   0.475   2.205   5.431
 1313TIP3    H1 3880   0.565   2.216   5.459
 1313TIP3    H2 3881   0.463   2.111   5.424
 1314TIP3   OH2 3882   6.521   3.952   0.432
 1314TIP3    H1 3883   6.457   4.009   0.390
 1314TIP3    H2 3884   6.470   3.891   0.485
 1315TIP3   OH2 3885   6.919   3.039   1.021
 1315TIP3    H1 3886   6.893   3.076   1.106
 1315TIP3    H2 3887   6.871   3.091   0.957
 1316TIP3   OH2 3888   6.935   0.297   4.054
 1316TIP3    H1 3889   7.003   0.229   4.047
 1316TIP3    H2 3890   6.910   0.296   4.147
 1317TIP3   OH2 3891   8.303   5.201   2.935
 1317TIP3    H1 3892   8.233   5.244   2.887
 1317TIP3    H2 3893   8.273   5.202   3.027
 1318TIP3   OH2 3894   3.923   0.986   0.224
 1318TIP3    H1 3895   3.852   0.923   0.233
 1318TIP3    H2 3896   3.927   1.029   0.310
 1319TIP3   OH2 3897   0.915   1.937   6.012
 1319TIP3    H1 3898   0.821   1.925   6.021
 1319TIP3    H2 3899   0.943   1.974   6.095
 1320TIP3   OH2 3900   2.516   2.122   3.280
 1320TIP3    H1 3901   2.523   2.031   3.252
 1320TIP3    H2 3902   2.596   2.139   3.330
 1321TIP3   OH2 3903   6.677   5.222   5.184
 1321TIP3    H1 3904   6.750   5.177   5.228
 1321TIP3    H2 3905   6.632   5.153   5.136
 1322TIP3   OH2 3906   6.211   7.425   3.790
 1322TIP3    H1 3907   6.227   7.519   3.798
 1322TIP3    H2 3908   6.180   7.413   3.700
 1323TIP3   OH2 3909   0.925   0.269   0.840
 1323TIP3    H1 3910   0.836   0.250   0.870
 1323TIP3    H2 3911   0.960   0.330   0.904
 1324TIP3   OH2 3912   4.756   1.985   4.446
 1324TIP3    H1 3913   4.664   1.971   4.425
 1324TIP3    H2 3914   4.787   2.047   4.381
 1325TIP3   OH2 3915   4.292   5.635   3.110
 1325TIP3    H1 3916   4.247   5.695   3.169
 1325TIP3    H2 3917   4.360   5.689   3.069
 1326TIP3   OH2 3918   4.821   2.842   1.912
 1326TIP3    H1 3919   4.889   2.805   1.855
 1326TIP3    H2 3920   4.870   2.885   1.983
 1327TIP3   OH2 3921   2.298   7.444   4.212
 1327TIP3    H1 3922   2.304   7.506   4.140
 1327TIP3    H2 3923   2.354   7.482   4.280
 1328TIP3   OH2 3924   6.321   7.083   3.852
 1328TIP3    H1 3925   6.343   7.134   3.930
 1328TIP3    H2 3926   6.345   7.140   3.779
 1329TIP3   OH2 3927   6.041   3.425   6.062
 1329TIP3    H1 3928   6.032   3.485   5.988
 1329TIP3    H2 3929   6.058   3.483   6.137
 1330TIP3   OH2 3930   3.291   2.431   6.805
 1330TIP3    H1 3931   3.252   2.516   6.782
 1330TIP3    H2 3932   3.216   2.372   6.813
 1331TIP3   OH2 3933   0.710   5.042   0.146
 1331TIP3    H1 3934   0.746   5.041   0.058
 1331TIP3    H2 3935   0.781   5.009   0.202
 1332TIP3   OH2 3936   3.789   0.588   1.711
 1332TIP3    H1 3937   3.695   0.600   1.699
 1332TIP3    H2 3938   3.796   0.525   1.783
 1333TIP3   OH2 3939   6.049   6.264   5.727
 1333TIP3    H1 3940   6.060   6.229   5.639
 1333TIP3    H2 3941   5.957   6.287   5.733
 1334TIP3   OH2 3942   4.653   7.163   6.774
 1334TIP3    H1 3943   4.654   7.160   6.869
 1334TIP3    H2 3944   4.694   7.247   6.752
 1335TIP3   OH2 3945   2.280   7.131   2.906
 1335TIP3    H1 3946   2.293   7.084   2.824
 1335TIP3    H2 3947   2.280   7.224   2.880
 1336TIP3   OH2 3948   2.794   3.905   0.083
 1336TIP3    H1 3949   2.881   3.906   0.042
 1336TIP3    H2 3950   2.811   3.934   0.173
 1337TIP3   OH2 3951   6.799   1.166   4.194
 1337TIP3    H1 3952   6.853   1.098   4.234
 1337TIP3    H2 3953   6.746   1.119   4.129
 1338TIP3   OH2 3954   7.452   6.272   5.749
 1338TIP3    H1 3955   7.385   6.296   5.813
 1338TIP3    H2 3956   7.490   6.191   5.784
 1339TIP3   OH2 3957   1.313   7.859   4.477
 1339TIP3    H1 3958   1.267   7.850   4.393
 1339TIP3    H2 3959   1.398   7.818   4.462
 1340TIP3   OH2 3960   7.956   5.440   3.395
 1340TIP3    H1 3961   7.978   5.383   3.322
 1340TIP3    H2 3962   7.866   5.415   3.418
 1341TIP3   OH2 3963   7.439   0.160   3.235
 1341TIP3    H1 3964   7.443   0.209   3.317
 1341TIP3    H2 3965   7.433   0.227   3.167
 1342TIP3   OH2 3966   1.114   4.853   4.538
 1342TIP3    H1 3967   1.026   4.884   4.556
 1342TIP3    H2 3968   1.155   4.922   4.485
 1343TIP3   OH2 3969   3.252   5.690   1.204
 1343TIP3    H1 3970   3.247   5.644   1.121
 1343TIP3    H2 3971   3.180   5.654   1.256
 1344TIP3   OH2 3972   6.234   0.593   1.457
 1344TIP3    H1 3973   6.185   0.516   1.486
 1344TIP3    H2 3974   6.185   0.626   1.382
 1345TIP3   OH2 3975   8.311   0.631   4.037
 1345TIP3    H1 3976   8.378   0.699   4.024
 1345TIP3    H2 3977   8.343   0.580   4.111
 1346TIP3   OH2 3978   1.948   2.364   6.156
 1346TIP3    H1 3979   1.961   2.389   6.065
 1346TIP3    H2 3980   1.931   2.446   6.202
 1347TIP3   OH2 3981   6.089   4.207   2.708
 1347TIP3    H1 3982   6.011   4.183   2.657
 1347TIP3    H2 3983   6.159   4.213   2.643
 1348TIP3   OH2 3984   3.787   3.720   3.175
 1348TIP3    H1 3985   3.698   3.691   3.194
 1348TIP3    H2 3986   3.776   3.801   3.125
 1349TIP3   OH2 3987   4.766   6.324   2.423
 1349TIP3    H1 3988   4.806   6.393   2.476
 1349TIP3    H2 3989   4.824   6.313   2.348
 1350TIP3   OH2 3990   6.934   4.124   4.269
 1350TIP3    H1 3991   7.012   4.093   4.316
 1350TIP3    H2 3992   6.933   4.073   4.188
 1351TIP3   OH2 3993   2.808   5.703   4.464
 1351TIP3    H1 3994   2.808   5.783   4.412
 1351TIP3    H2 3995   2.719   5.697   4.498
 1352TIP3   OH2 3996   8.288   2.915   4.049
 1352TIP3    H1 3997   8.328   2.992   4.089
 1352TIP3    H2 3998   8.195   2.937   4.044
 1353TIP3   OH2 3999   8.210   0.947   1.681
 1353TIP3    H1 4000   8.260   0.970   1.760
 1353TIP3    H2 4001   8.237   1.011   1.615
 1354TIP3   OH2 4002   7.406   7.723   4.513
 1354TIP3    H1 4003   7.322   7.752   4.478
 1354TIP3    H2 4004   7.400   7.740   4.607
 1355TIP3   OH2 4005   2.275   3.578   2.046
 1355TIP3    H1 4006   2.363   3.544   2.026
 1355TIP3    H2 4007   2.268   3.658   1.994
 1356TIP3   OH2 4008   4.955   0.184   1.686
 1356TIP3    H1 4009   4.964   0.256   1.749
 1356TIP3    H2 4010   4.869   0.197   1.646
 1357TIP3   OH2 4011   1.893   5.200   6.253
 1357TIP3    H1 4012   1.844   5.124   6.222
 1357TIP3    H2 4013   1.849   5.226   6.334
 1358TIP3   OH2 4014   4.774   0.495   2.377
 1358TIP3    H1 4015   4.785   0.434   2.450
 1358TIP3    H2 4016   4.679   0.495   2.361
 1359TIP3   OH2 4017   6.635   7.839   5.735
 1359TIP3    H1 4018   6.594   7.826   5.820
 1359TIP3    H2 4019   6.623   7.932   5.716
 1360TIP3   OH2 4020   5.724   4.774   1.274
 1360TIP3    H1 4021   5.713   4.680   1.262
 1360TIP3    H2 4022   5.728   4.786   1.369
 1361TIP3   OH2 4023   3.716   6.006   0.306
 1361TIP3    H1 4024   3.765   5.974   0.230
 1361TIP3    H2 4025   3.700   6.098   0.288
 1362TIP3   OH2 4026   2.190   4.195   6.239
 1362TIP3    H1 4027   2.228   4.211   6.152
 1362TIP3    H2 4028   2.163   4.103   6.236
 1363TIP3   OH2 4029   1.143   3.263   4.782
 1363TIP3    H1 4030   1.097   3.343   4.806
 1363TIP3    H2 4031   1.156   3.217   4.865
 1364TIP3   OH2 4032   6.009   2.773   0.182
 1364TIP3    H1 4033   6.037   2.682   0.169
 1364TIP3    H2 4034   6.079   2.812   0.233
 1365TIP3   OH2 4035   3.813   5.869   5.522
 1365TIP3    H1 4036   3.805   5.955   5.563
 1365TIP3    H2 4037   3.818   5.887   5.428
 1366TIP3   OH2 4038   4.281   5.611   4.688
 1366TIP3    H1 4039   4.199   5.576   4.652
 1366TIP3    H2 4040   4.330   5.641   4.611
 1367TIP3   OH2 4041   6.182   2.355   5.815
 1367TIP3    H1 4042   6.193   2.261   5.824
 1367TIP3    H2 4043   6.255   2.393   5.864
 1368TIP3   OH2 4044   4.681   7.342   5.515
 1368TIP3    H1 4045   4.606   7.312   5.566
 1368TIP3    H2 4046   4.656   7.327   5.424
 1369TIP3   OH2 4047   8.057   0.796   2.089
 1369TIP3    H1 4048   8.111   0.748   2.152
 1369TIP3    H2 4049   8.110   0.801   2.010
 1370TIP3   OH2 4050   3.231   2.038   0.438
 1370TIP3    H1 4051   3.144   2.040   0.478
 1370TIP3    H2 4052   3.288   2.074   0.506
 1371TIP3   OH2 4053   3.076   0.222   1.369
 1371TIP3    H1 4054   3.072   0.263   1.283
 1371TIP3    H2 4055   3.069   0.296   1.430
 1372TIP3   OH2 4056   4.833   0.318   3.660
 1372TIP3    H1 4057   4.889   0.394   3.675
 1372TIP3    H2 4058   4.744   0.355   3.653
 1373TIP3   OH2 4059   6.772   0.921   1.033
 1373TIP3    H1 4060   6.753   0.833   1.003
 1373TIP3    H2 4061   6.696   0.946   1.086
 1374TIP3   OH2 4062   4.029   3.019   5.216
 1374TIP3    H1 4063   4.085   2.950   5.180
 1374TIP3    H2 4064   3.974   3.046   5.142
 1375TIP3   OH2 4065   4.367   2.857   3.967
 1375TIP3    H1 4066   4.445   2.908   3.944
 1375TIP3    H2 4067   4.294   2.917   3.953
 1376TIP3   OH2 4068   3.208   6.026   2.666
 1376TIP3    H1 4069   3.138   5.974   2.708
 1376TIP3    H2 4070   3.275   6.035   2.734
 1377TIP3   OH2 4071   0.234   6.184   4.139
 1377TIP3    H1 4072   0.311   6.126   4.136
 1377TIP3    H2 4073   0.182   6.158   4.064
 1378TIP3   OH2 4074   1.522   3.511   3.671
 1378TIP3    H1 4075   1.568   3.551   3.597
 1378TIP3    H2 4076   1.432   3.502   3.641
 1379TIP3   OH2 4077   7.349   4.516   5.186
 1379TIP3    H1 4078   7.360   4.580   5.257
 1379TIP3    H2 4079   7.303   4.564   5.118
 1380TIP3   OH2 4080   3.310   4.346   0.273
 1380TIP3    H1 4081   3.286   4.253   0.267
 1380TIP3    H2 4082   3.316   4.374   0.181
 1381TIP3   OH2 4083   1.794   6.752   3.300
 1381TIP3    H1 4084   1.789   6.783   3.391
 1381TIP3    H2 4085   1.709   6.712   3.284
 1382TIP3   OH2 4086   3.356   3.141   6.473
 1382TIP3    H1 4087   3.260   3.139   6.469
 1382TIP3    H2 4088   3.382   3.193   6.396
 1383TIP3   OH2 4089   3.549   7.833   1.123
 1383TIP3    H1 4090   3.581   7.830   1.033
 1383TIP3    H2 4091   3.477   7.896   1.121
 1384TIP3   OH2 4092   0.420   4.026   4.603
 1384TIP3    H1 4093   0.386   4.078   4.530
 1384TIP3    H2 4094   0.412   4.084   4.679
 1385TIP3   OH2 4095   7.670   7.685   3.819
 1385TIP3    H1 4096   7.692   7.642   3.737
 1385TIP3    H2 4097   7.588   7.731   3.801
 1386TIP3   OH2 4098   7.319   1.300   4.262
 1386TIP3    H1 4099   7.409   1.283   4.288
 1386TIP3    H2 4100   7.278   1.341   4.338
 1387TIP3   OH2 4101   2.052   6.120   0.104
 1387TIP3    H1 4102   2.058   6.088   0.014
 1387TIP3    H2 4103   2.007   6.204   0.097
 1388TIP3   OH2 4104   6.004   3.324   5.207
 1388TIP3    H1 4105   5.989   3.304   5.115
 1388TIP3    H2 4106   5.953   3.258   5.254
 1389TIP3   OH2 4107   6.782   7.595   5.764
 1389TIP3    H1 4108   6.703   7.648   5.770
 1389TIP3    H2 4109   6.750   7.506   5.746
 1390TIP3   OH2 4110   6.702   7.218   6.400
 1390TIP3    H1 4111   6.767   7.241   6.467
 1390TIP3    H2 4112   6.618   7.228   6.444
 1391TIP3   OH2 4113   5.674   0.651   6.183
 1391TIP3    H1 4114   5.685   0.576   6.241
 1391TIP3    H2 4115   5.756   0.700   6.191
 1392TIP3   OH2 4116   3.917   0.551   0.552
 1392TIP3    H1 4117   3.828   0.519   0.540
 1392TIP3    H2 4118   3.973   0.475   0.539
 1393TIP3   OH2 4119   6.651   3.536   4.090
 1393TIP3    H1 4120   6.571   3.588   4.100
 1393TIP3    H2 4121   6.691   3.569   4.010
 1394TIP3   OH2 4122   3.670   4.607   5.561
 1394TIP3    H1 4123   3.652   4.632   5.652
 1394TIP3    H2 4124   3.754   4.561   5.566
 1395TIP3   OH2 4125   2.393   2.515   2.951
 1395TIP3    H1 4126   2.350   2.580   3.007
 1395TIP3    H2 4127   2.402   2.558   2.866
 1396TIP3   OH2 4128   1.914   2.092   3.394
 1396TIP3    H1 4129   1.844   2.041   3.352
 1396TIP3    H2 4130   1.984   2.094   3.329
 1397TIP3   OH2 4131   0.614   5.579   6.664
 1397TIP3    H1 4132   0.554   5.610   6.596
 1397TIP3    H2 4133   0.599   5.484   6.667
 1398TIP3   OH2 4134   7.105   0.239   5.877
 1398TIP3    H1 4135   7.160   0.290   5.936
 1398TIP3    H2 4136   7.029   0.216   5.931
 1399TIP3   OH2 4137   7.414   2.340   2.034
 1399TIP3    H1 4138   7.458   2.390   1.965
 1399TIP3    H2 4139   7.396   2.255   1.994
 1400TIP3   OH2 4140   1.935   5.827   2.176
 1400TIP3    H1 4141   1.873   5.878   2.124
 1400TIP3    H2 4142   1.991   5.785   2.112
 1401TIP3   OH2 4143   4.477   0.164   4.030
 1401TIP3    H1 4144   4.532   0.201   4.099
 1401TIP3    H2 4145   4.398   0.134   4.076
 1402TIP3   OH2 4146   1.964   2.292   3.790
 1402TIP3    H1 4147   1.992   2.215   3.741
 1402TIP3    H2 4148   1.899   2.259   3.852
 1403TIP3   OH2 4149   7.856   3.620   1.651
 1403TIP3    H1 4150   7.828   3.586   1.736
 1403TIP3    H2 4151   7.803   3.573   1.587
 1404TIP3   OH2 4152   3.674   7.511   3.736
 1404TIP3    H1 4153   3.611   7.584   3.734
 1404TIP3    H2 4154   3.681   7.484   3.645
 1405TIP3   OH2 4155   4.790  -0.029   6.748
 1405TIP3    H1 4156   4.859   0.019   6.703
 1405TIP3    H2 4157   4.734   0.038   6.785
 1406TIP3   OH2 4158   1.265   7.390   4.812
 1406TIP3    H1 4159   1.222   7.348   4.738
 1406TIP3    H2 4160   1.311   7.318   4.856
 1407TIP3   OH2 4161   1.441   5.521   1.533
 1407TIP3    H1 4162   1.416   5.569   1.612
 1407TIP3    H2 4163   1.374   5.453   1.525
 1408TIP3   OH2 4164   2.422   7.405   6.550
 1408TIP3    H1 4165   2.404   7.339   6.617
 1408TIP3    H2 4166   2.518   7.415   6.553
 1409TIP3   OH2 4167   1.901   3.568   4.324
 1409TIP3    H1 4168   1.895   3.663   4.313
 1409TIP3    H2 4169   1.831   3.534   4.268
 1410TIP3   OH2 4170   3.452   3.207   6.717
 1410TIP3    H1 4171   3.402   3.178   6.641
 1410TIP3    H2 4172   3.424   3.297   6.731
 1411TIP3   OH2 4173   2.941   5.307   1.488
 1411TIP3    H1 4174   2.950   5.339   1.578
 1411TIP3    H2 4175   3.028   5.271   1.468
 1412TIP3   OH2 4176   4.171   6.704   4.467
 1412TIP3    H1 4177   4.193   6.747   4.384
 1412TIP3    H2 4178   4.139   6.775   4.523
 1413TIP3   OH2 4179   4.484   6.850   6.316
 1413TIP3    H1 4180   4.552   6.880   6.376
 1413TIP3    H2 4181   4.518   6.869   6.229
 1414TIP3   OH2 4182   7.582   6.894   3.681
 1414TIP3    H1 4183   7.635   6.935   3.750
 1414TIP3    H2 4184   7.529   6.829   3.727
 1415TIP3   OH2 4185   4.972   2.421   5.357
 1415TIP3    H1 4186   4.981   2.448   5.266
 1415TIP3    H2 4187   4.959   2.326   5.352
 1416TIP3   OH2 4188   5.975   1.635   5.324
 1416TIP3    H1 4189   6.056   1.634   5.274
 1416TIP3    H2 4190   5.906   1.633   5.258
 1417TIP3   OH2 4191   2.202   7.143   0.580
 1417TIP3    H1 4192   2.182   7.087   0.505
 1417TIP3    H2 4193   2.282   7.189   0.555
 1418TIP3   OH2 4194   2.259   7.069   5.497
 1418TIP3    H1 4195   2.249   7.021   5.579
 1418TIP3    H2 4196   2.277   7.159   5.525
 1419TIP3   OH2 4197   1.516   7.517   1.981
 1419TIP3    H1 4198   1.477   7.431   1.999
 1419TIP3    H2 4199   1.608   7.498   1.963
 1420TIP3   OH2 4200   5.100   0.325   6.612
 1420TIP3    H1 4201   5.174   0.378   6.582
 1420TIP3    H2 4202   5.023   0.379   6.597
 1421TIP3   OH2 4203   1.031   0.730   1.289
 1421TIP3    H1 4204   1.100   0.673   1.323
 1421TIP3    H2 4205   1.032   0.715   1.194
 1422TIP3   OH2 4206   1.917   0.258   5.876
 1422TIP3    H1 4207   1.838   0.210   5.853
 1422TIP3    H2 4208   1.969   0.196   5.928
 1423TIP3   OH2 4209   4.095   4.214   4.524
 1423TIP3    H1 4210   4.126   4.275   4.457
 1423TIP3    H2 4211   4.169   4.204   4.584
 1424TIP3   OH2 4212   7.221   0.303   1.315
 1424TIP3    H1 4213   7.311   0.335   1.317
 1424TIP3    H2 4214   7.207   0.281   1.223
 1425TIP3   OH2 4215   5.697   0.038   3.770
 1425TIP3    H1 4216   5.788   0.052   3.743
 1425TIP3    H2 4217   5.690   0.082   3.854
 1426TIP3   OH2 4218   0.093   6.873   1.087
 1426TIP3    H1 4219   0.128   6.898   1.002
 1426TIP3    H2 4220   0.150   6.802   1.117
 1427TIP3   OH2 4221   6.388   1.929   1.959
 1427TIP3    H1 4222   6.441   1.952   2.035
 1427TIP3    H2 4223   6.441   1.864   1.912
 1428TIP3   OH2 4224   3.729   1.010   6.633
 1428TIP3    H1 4225   3.724   1.102   6.609
 1428TIP3    H2 4226   3.700   1.007   6.724
 1429TIP3   OH2 4227   7.460   7.371   5.957
 1429TIP3    H1 4228   7.368   7.356   5.978
 1429TIP3    H2 4229   7.460   7.440   5.892
 1430TIP3   OH2 4230   3.288   6.423   4.097
 1430TIP3    H1 4231   3.284   6.428   4.002
 1430TIP3    H2 4232   3.196   6.417   4.125
 1431TIP3   OH2 4233   1.802   2.857   6.220
 1431TIP3    H1 4234   1.762   2.914   6.154
 1431TIP3    H2 4235   1.885   2.829   6.180
 1432TIP3   OH2 4236   8.293   1.364   3.249
 1432TIP3    H1 4237   8.296   1.292   3.312
 1432TIP3    H2 4238   8.300   1.321   3.164
 1433TIP3   OH2 4239   5.133   5.962   0.714
 1433TIP3    H1 4240   5.221   5.941   0.683
 1433TIP3    H2 4241   5.084   5.880   0.704
 1434TIP3   OH2 4242   1.878   0.448   2.505
 1434TIP3    H1 4243   1.810   0.478   2.565
 1434TIP3    H2 4244   1.951   0.508   2.519
 1435TIP3   OH2 4245   8.416   4.055   4.096
 1435TIP3    H1 4246   8.445   3.972   4.132
 1435TIP3    H2 4247   8.348   4.085   4.157
 1436TIP3   OH2 4248   5.368   7.335   2.528
 1436TIP3    H1 4249   5.387   7.278   2.602
 1436TIP3    H2 4250   5.391   7.423   2.558
 1437TIP3   OH2 4251   7.285   4.720   3.973
 1437TIP3    H1 4252   7.245   4.769   4.045
 1437TIP3    H2 4253   7.331   4.786   3.921
 1438TIP3   OH2 4254   6.061   5.737   5.140
 1438TIP3    H1 4255   6.114   5.765   5.214
 1438TIP3    H2 4256   6.118   5.677   5.091
 1439TIP3   OH2 4257   1.959   2.171   1.676
 1439TIP3    H1 4258   1.945   2.107   1.606
 1439TIP3    H2 4259   2.019   2.128   1.737
 1440TIP3   OH2 4260   7.554   1.204   1.264
 1440TIP3    H1 4261   7.612   1.248   1.326
 1440TIP3    H2 4262   7.476   1.259   1.261
 1441TIP3   OH2 4263   7.787   2.537   4.622
 1441TIP3    H1 4264   7.824   2.454   4.651
 1441TIP3    H2 4265   7.830   2.554   4.538
 1442TIP3   OH2 4266   1.282   7.863   0.687
 1442TIP3    H1 4267   1.278   7.954   0.716
 1442TIP3    H2 4268   1.195   7.844   0.653
 1443TIP3   OH2 4269  -0.059   5.791   3.123
 1443TIP3    H1 4270   0.007   5.765   3.187
 1443TIP3    H2 4271  -0.012   5.796   3.040
 1444TIP3   OH2 4272   4.101   2.430   0.079
 1444TIP3    H1 4273   4.013   2.408   0.050
 1444TIP3    H2 4274   4.102   2.410   0.172
 1445TIP3   OH2 4275   4.005   2.469   1.303
 1445TIP3    H1 4276   4.064   2.396   1.320
 1445TIP3    H2 4277   4.060   2.547   1.312
 1446TIP3   OH2 4278   2.153   6.222   1.792
 1446TIP3    H1 4279   2.082   6.258   1.739
 1446TIP3    H2 4280   2.145   6.128   1.783
 1447TIP3   OH2 4281   1.019   6.273   3.295
 1447TIP3    H1 4282   1.044   6.365   3.301
 1447TIP3    H2 4283   1.094   6.225   3.329
 1448TIP3   OH2 4284   4.799   7.256   3.970
 1448TIP3    H1 4285   4.731   7.224   3.910
 1448TIP3    H2 4286   4.851   7.316   3.917
 1449TIP3   OH2 4287   5.525   7.507   4.784
 1449TIP3    H1 4288   5.532   7.500   4.879
 1449TIP3    H2 4289   5.556   7.423   4.751
 1450TIP3   OH2 4290   8.235   0.726   4.849
 1450TIP3    H1 4291   8.175   0.658   4.880
 1450TIP3    H2 4292   8.241   0.788   4.922
 1451TIP3   OH2 4293   6.980   2.180   3.612
 1451TIP3    H1 4294   7.031   2.112   3.657
 1451TIP3    H2 4295   6.987   2.257   3.668
 1452TIP3   OH2 4296   5.975   3.060   0.168
 1452TIP3    H1 4297   5.990   2.991   0.233
 1452TIP3    H2 4298   6.011   3.139   0.209
 1453TIP3   OH2 4299   6.645   1.786   5.742
 1453TIP3    H1 4300   6.720   1.742   5.782
 1453TIP3    H2 4301   6.638   1.749   5.654
 1454TIP3   OH2 4302   5.647   7.107   4.949
 1454TIP3    H1 4303   5.742   7.107   4.934
 1454TIP3    H2 4304   5.638   7.115   5.043
 1455TIP3   OH2 4305   1.417   5.484   4.392
 1455TIP3    H1 4306   1.401   5.578   4.398
 1455TIP3    H2 4307   1.359   5.446   4.458
 1456TIP3   OH2 4308   2.967   0.413   2.022
 1456TIP3    H1 4309   2.954   0.430   2.115
 1456TIP3    H2 4310   3.031   0.342   2.020
 1457TIP3   OH2 4311   5.510   2.666   0.251
 1457TIP3    H1 4312   5.594   2.622   0.262
 1457TIP3    H2 4313   5.515   2.707   0.165
 1458TIP3   OH2 4314   6.701   6.462   5.008
 1458TIP3    H1 4315   6.721   6.443   5.100
 1458TIP3    H2 4316   6.720   6.555   4.998
 1459TIP3   OH2 4317   6.225   5.764   0.333
 1459TIP3    H1 4318   6.268   5.754   0.248
 1459TIP3    H2 4319   6.169   5.841   0.323
 1460TIP3   OH2 4320   2.371   7.026   1.438
 1460TIP3    H1 4321   2.435   6.990   1.500
 1460TIP3    H2 4322   2.380   7.121   1.445
 1461TIP3   OH2 4323   8.331   6.191   2.104
 1461TIP3    H1 4324   8.277   6.242   2.044
 1461TIP3    H2 4325   8.311   6.100   2.083
 1462TIP3   OH2 4326   7.607   4.898   1.251
 1462TIP3    H1 4327   7.568   4.896   1.164
 1462TIP3    H2 4328   7.579   4.816   1.292
 1463TIP3   OH2 4329   2.645   6.283   6.050
 1463TIP3    H1 4330   2.641   6.198   6.006
 1463TIP3    H2 4331   2.738   6.302   6.056
 1464TIP3   OH2 4332   4.340   0.820   1.648
 1464TIP3    H1 4333   4.263   0.763   1.654
 1464TIP3    H2 4334   4.391   0.800   1.727
 1465TIP3   OH2 4335   0.189   5.365   6.180
 1465TIP3    H1 4336   0.224   5.437   6.232
 1465TIP3    H2 4337   0.198   5.394   6.089
 1466TIP3   OH2 4338   5.759   2.727   5.068
 1466TIP3    H1 4339   5.851   2.750   5.064
 1466TIP3    H2 4340   5.746   2.665   4.996
 1467TIP3   OH2 4341   4.514   3.776   0.746
 1467TIP3    H1 4342   4.429   3.736   0.766
 1467TIP3    H2 4343   4.492   3.859   0.705
 1468TIP3   OH2 4344   0.996   2.269   1.186
 1468TIP3    H1 4345   1.058   2.308   1.124
 1468TIP3    H2 4346   0.979   2.181   1.151
 1469TIP3   OH2 4347   1.476   6.254   0.765
 1469TIP3    H1 4348   1.552   6.244   0.706
 1469TIP3    H2 4349   1.512   6.296   0.843
 1470TIP3   OH2 4350   7.861   2.278   4.695
 1470TIP3    H1 4351   7.922   2.211   4.726
 1470TIP3    H2 4352   7.775   2.246   4.722
 1471TIP3   OH2 4353   5.749   4.460   4.623
 1471TIP3    H1 4354   5.747   4.367   4.646
 1471TIP3    H2 4355   5.763   4.506   4.705
 1472TIP3   OH2 4356   8.165   6.713   1.199
 1472TIP3    H1 4357   8.192   6.799   1.231
 1472TIP3    H2 4358   8.157   6.725   1.104
 1473TIP3   OH2 4359   5.193   1.848   2.145
 1473TIP3    H1 4360   5.191   1.928   2.092
 1473TIP3    H2 4361   5.282   1.814   2.133
 1474TIP3   OH2 4362   2.570   7.484   0.072
 1474TIP3    H1 4363   2.640   7.549   0.074
 1474TIP3    H2 4364   2.508   7.518   0.007
 1475TIP3   OH2 4365   2.114   7.454   1.354
 1475TIP3    H1 4366   2.053   7.384   1.377
 1475TIP3    H2 4367   2.078   7.493   1.275
 1476TIP3   OH2 4368   2.792   1.765   4.929
 1476TIP3    H1 4369   2.719   1.710   4.955
 1476TIP3    H2 4370   2.855   1.758   5.000
 1477TIP3   OH2 4371   5.945   5.114   6.201
 1477TIP3    H1 4372   5.956   5.019   6.195
 1477TIP3    H2 4373   5.886   5.136   6.129
 1478TIP3   OH2 4374   0.327   0.759   1.364
 1478TIP3    H1 4375   0.320   0.720   1.451
 1478TIP3    H2 4376   0.245   0.736   1.321
 1479TIP3   OH2 4377   5.470   4.891   2.715
 1479TIP3    H1 4378   5.549   4.945   2.708
 1479TIP3    H2 4379   5.473   4.856   2.804
 1480TIP3   OH2 4380   7.257   0.244   1.602
 1480TIP3    H1 4381   7.219   0.168   1.558
 1480TIP3    H2 4382   7.232   0.318   1.547
 1481TIP3   OH2 4383   5.190   2.536   4.666
 1481TIP3    H1 4384   5.135   2.571   4.596
 1481TIP3    H2 4385   5.226   2.455   4.631
 1482TIP3   OH2 4386   2.085   7.213   3.898
 1482TIP3    H1 4387   2.038   7.218   3.981
 1482TIP3    H2 4388   2.017   7.225   3.831
 1483TIP3   OH2 4389   4.440   1.810   1.006
 1483TIP3    H1 4390   4.507   1.810   0.938
 1483TIP3    H2 4391   4.484   1.849   1.082
 1484TIP3   OH2 4392   8.375   5.674   5.008
 1484TIP3    H1 4393   8.310   5.643   4.946
 1484TIP3    H2 4394   8.361   5.769   5.012
 1485TIP3   OH2 4395   7.778   1.607   6.429
 1485TIP3    H1 4396   7.822   1.570   6.353
 1485TIP3    H2 4397   7.732   1.533   6.469
 1486TIP3   OH2 4398   3.867   3.826   0.616
 1486TIP3    H1 4399   3.925   3.896   0.645
 1486TIP3    H2 4400   3.779   3.860   0.630
 1487TIP3   OH2 4401   0.684   1.321   4.650
 1487TIP3    H1 4402   0.608   1.360   4.694
 1487TIP3    H2 4403   0.732   1.276   4.719
 1488TIP3   OH2 4404   7.638   3.578   5.776
 1488TIP3    H1 4405   7.623   3.517   5.848
 1488TIP3    H2 4406   7.721   3.620   5.799
 1489TIP3   OH2 4407   6.229   3.348   6.282
 1489TIP3    H1 4408   6.222   3.357   6.377
 1489TIP3    H2 4409   6.210   3.256   6.265
 1490TIP3   OH2 4410   0.957   7.336   2.667
 1490TIP3    H1 4411   0.996   7.423   2.666
 1490TIP3    H2 4412   0.996   7.293   2.743
 1491TIP3   OH2 4413   7.061   1.512   6.178
 1491TIP3    H1 4414   7.121   1.587   6.180
 1491TIP3    H2 4415   7.041   1.495   6.270
 1492TIP3   OH2 4416   1.099   7.131   4.871
 1492TIP3    H1 4417   1.126   7.162   4.958
 1492TIP3    H2 4418   1.061   7.208   4.829
 1493TIP3   OH2 4419   1.013   5.306   1.116
 1493TIP3    H1 4420   0.944   5.280   1.176
 1493TIP3    H2 4421   0.968   5.320   1.032
 1494TIP3   OH2 4422   7.192   7.440   2.738
 1494TIP3    H1 4423   7.187   7.534   2.752
 1494TIP3    H2 4424   7.278   7.426   2.698
 1495TIP3   OH2 4425   4.204   2.821   5.145
 1495TIP3    H1 4426   4.250   2.877   5.082
 1495TIP3    H2 4427   4.271   2.796   5.208
 1496TIP3   OH2 4428   5.745   5.292   5.556
 1496TIP3    H1 4429   5.773   5.306   5.646
 1496TIP3    H2 4430   5.672   5.231   5.563
 1497TIP3   OH2 4431   0.468   3.187   1.858
 1497TIP3    H1 4432   0.437   3.098   1.841
 1497TIP3    H2 4433   0.539   3.200   1.795
 1498TIP3   OH2 4434   8.042   5.325   3.661
 1498TIP3    H1 4435   8.048   5.369   3.576
 1498TIP3    H2 4436   8.065   5.393   3.725
 1499TIP3   OH2 4437   5.343   0.160   4.373
 1499TIP3    H1 4438   5.387   0.162   4.288
 1499TIP3    H2 4439   5.302   0.246   4.382
 1500TIP3   OH2 4440   6.838   0.436   3.292
 1500TIP3    H1 4441   6.844   0.531   3.302
 1500TIP3    H2 4442   6.754   0.422   3.248
 1501TIP3   OH2 4443   1.725   1.388   5.448
 1501TIP3    H1 4444   1.648   1.337   5.469
 1501TIP3    H2 4445   1.741   1.441   5.526
 1502TIP3   OH2 4446   6.255   5.486   6.256
 1502TIP3    H1 4447   6.211   5.411   6.215
 1502TIP3    H2 4448   6.311   5.522   6.186
 1503TIP3   OH2 4449   6.300   1.828   4.383
 1503TIP3    H1 4450   6.317   1.906   4.437
 1503TIP3    H2 4451   6.384   1.783   4.377
 1504TIP3   OH2 4452   5.483   5.422   6.584
 1504TIP3    H1 4453   5.526   5.488   6.639
 1504TIP3    H2 4454   5.393   5.452   6.576
 1505TIP3   OH2 4455   1.931   6.079   2.858
 1505TIP3    H1 4456   1.992   6.089   2.932
 1505TIP3    H2 4457   1.947   5.990   2.827
 1506TIP3   OH2 4458   1.630   1.721   1.058
 1506TIP3    H1 4459   1.660   1.692   1.144
 1506TIP3    H2 4460   1.606   1.813   1.070
 1507TIP3   OH2 4461   7.516   5.658   3.922
 1507TIP3    H1 4462   7.429   5.672   3.883
 1507TIP3    H2 4463   7.500   5.656   4.016
 1508TIP3   OH2 4464   3.364   0.672   5.555
 1508TIP3    H1 4465   3.449   0.633   5.538
 1508TIP3    H2 4466   3.309   0.644   5.482
 1509TIP3   OH2 4467   3.185   4.956   2.994
 1509TIP3    H1 4468   3.272   4.939   3.032
 1509TIP3    H2 4469   3.202   4.972   2.901
 1510TIP3   OH2 4470   6.339   2.770   0.849
 1510TIP3    H1 4471   6.318   2.856   0.887
 1510TIP3    H2 4472   6.257   2.721   0.854
 1511TIP3   OH2 4473   5.724   2.907   4.413
 1511TIP3    H1 4474   5.762   2.937   4.495
 1511TIP3    H2 4475   5.760   2.819   4.400
 1512TIP3   OH2 4476   7.390   2.634   0.473
 1512TIP3    H1 4477   7.472   2.614   0.518
 1512TIP3    H2 4478   7.385   2.729   0.474
 1513TIP3   OH2 4479   5.633   2.559   2.877
 1513TIP3    H1 4480   5.666   2.475   2.910
 1513TIP3    H2 4481   5.577   2.591   2.948
 1514TIP3   OH2 4482   6.850   1.868   4.640
 1514TIP3    H1 4483   6.921   1.932   4.645
 1514TIP3    H2 4484   6.845   1.846   4.547
 1515TIP3   OH2 4485   5.210   3.938   1.588
 1515TIP3    H1 4486   5.133   3.947   1.531
 1515TIP3    H2 4487   5.173   3.938   1.677
 1516TIP3   OH2 4488   2.390   1.975   2.636
 1516TIP3    H1 4489   2.320   1.952   2.698
 1516TIP3    H2 4490   2.355   2.048   2.585
 1517TIP3   OH2 4491   2.872   5.982   3.939
 1517TIP3    H1 4492   2.828   5.902   3.968
 1517TIP3    H2 4493   2.815   6.053   3.970
 1518TIP3   OH2 4494   4.923   4.539   2.770
 1518TIP3    H1 4495   4.945   4.462   2.718
 1518TIP3    H2 4496   5.000   4.552   2.826
 1519TIP3   OH2 4497   0.090   6.702   2.688
 1519TIP3    H1 4498   0.107   6.614   2.720
 1519TIP3    H2 4499   0.059   6.750   2.764
 1520TIP3   OH2 4500   5.099   3.614   4.863
 1520TIP3    H1 4501   5.066   3.704   4.874
 1520TIP3    H2 4502   5.109   3.604   4.768
 1521TIP3   OH2 4503   3.045   7.367   5.400
 1521TIP3    H1 4504   3.024   7.373   5.493
 1521TIP3    H2 4505   3.112   7.299   5.395
 1522TIP3   OH2 4506   2.526   7.561   3.379
 1522TIP3    H1 4507   2.473   7.521   3.449
 1522TIP3    H2 4508   2.506   7.655   3.385
 1523TIP3   OH2 4509   4.062   7.066   6.737
 1523TIP3    H1 4510   4.114   7.094   6.813
 1523TIP3    H2 4511   4.076   7.135   6.673
 1524TIP3   OH2 4512   2.201   3.505   3.715
 1524TIP3    H1 4513   2.122   3.456   3.691
 1524TIP3    H2 4514   2.198   3.582   3.658
 1525TIP3   OH2 4515   4.569   4.083   0.158
 1525TIP3    H1 4516   4.571   4.090   0.062
 1525TIP3    H2 4517   4.659   4.062   0.182
 1526TIP3   OH2 4518   6.048   2.763   0.827
 1526TIP3    H1 4519   6.055   2.823   0.753
 1526TIP3    H2 4520   5.972   2.794   0.876
 1527TIP3   OH2 4521   5.480   2.951   1.865
 1527TIP3    H1 4522   5.480   3.006   1.944
 1527TIP3    H2 4523   5.436   3.005   1.799
 1528TIP3   OH2 4524   2.204   6.326   4.729
 1528TIP3    H1 4525   2.141   6.266   4.690
 1528TIP3    H2 4526   2.150   6.387   4.780
 1529TIP3   OH2 4527   7.656   7.360   6.156
 1529TIP3    H1 4528   7.728   7.376   6.094
 1529TIP3    H2 4529   7.578   7.358   6.101
 1530TIP3   OH2 4530   4.923   4.903   5.378
 1530TIP3    H1 4531   4.834   4.878   5.353
 1530TIP3    H2 4532   4.912   4.970   5.445
 1531TIP3   OH2 4533   3.125   7.211   6.026
 1531TIP3    H1 4534   3.034   7.183   6.018
 1531TIP3    H2 4535   3.121   7.306   6.027
 1532TIP3   OH2 4536   2.261   6.884   2.263
 1532TIP3    H1 4537   2.212   6.809   2.230
 1532TIP3    H2 4538   2.311   6.850   2.337
 1533TIP3   OH2 4539   3.509   0.584   1.663
 1533TIP3    H1 4540   3.506   0.661   1.607
 1533TIP3    H2 4541   3.416   0.562   1.677
 1534TIP3   OH2 4542   3.311   1.771   2.939
 1534TIP3    H1 4543   3.346   1.683   2.955
 1534TIP3    H2 4544   3.299   1.775   2.844
 1535TIP3   OH2 4545   3.192   1.159   4.358
 1535TIP3    H1 4546   3.272   1.110   4.338
 1535TIP3    H2 4547   3.159   1.121   4.439
 1536TIP3   OH2 4548   1.421   1.676   2.830
 1536TIP3    H1 4549   1.405   1.582   2.833
 1536TIP3    H2 4550   1.334   1.715   2.843
 1537TIP3   OH2 4551   2.919   0.392   2.298
 1537TIP3    H1 4552   2.836   0.381   2.344
 1537TIP3    H2 4553   2.978   0.329   2.340
 1538TIP3   OH2 4554   7.100   7.560   1.943
 1538TIP3    H1 4555   7.163   7.620   1.981
 1538TIP3    H2 4556   7.020   7.612   1.932
 1539TIP3   OH2 4557   2.792   7.823   4.175
 1539TIP3    H1 4558   2.771   7.730   4.181
 1539TIP3    H2 4559   2.718   7.862   4.129
 1540TIP3   OH2 4560   4.447   4.878   6.241
 1540TIP3    H1 4561   4.514   4.844   6.301
 1540TIP3    H2 4562   4.495   4.938   6.184
 1541TIP3   OH2 4563   4.679   7.069   1.043
 1541TIP3    H1 4564   4.700   7.081   0.950
 1541TIP3    H2 4565   4.652   7.156   1.072
 1542TIP3   OH2 4566   3.967   7.290   0.009
 1542TIP3    H1 4567   4.041   7.242  -0.029
 1542TIP3    H2 4568   3.949   7.246   0.091
 1543TIP3   OH2 4569   5.132   0.543   3.187
 1543TIP3    H1 4570   5.143   0.503   3.101
 1543TIP3    H2 4571   5.207   0.601   3.196
 1544TIP3   OH2 4572   4.929   7.501   3.273
 1544TIP3    H1 4573   4.898   7.549   3.197
 1544TIP3    H2 4574   4.876   7.534   3.346
 1545TIP3   OH2 4575   5.000   2.173   2.313
 1545TIP3    H1 4576   5.023   2.149   2.224
 1545TIP3    H2 4577   4.909   2.145   2.322
 1546TIP3   OH2 4578   3.723   2.040   6.485
 1546TIP3    H1 4579   3.707   2.040   6.580
 1546TIP3    H2 4580   3.792   2.105   6.473
 1547TIP3   OH2 4581   4.581   1.958   2.977
 1547TIP3    H1 4582   4.611   2.041   2.939
 1547TIP3    H2 4583   4.559   1.903   2.902
 1548TIP3   OH2 4584   5.688   2.271   0.327
 1548TIP3    H1 4585   5.659   2.264   0.418
 1548TIP3    H2 4586   5.700   2.364   0.312
 1549TIP3   OH2 4587   6.469   3.244   5.888
 1549TIP3    H1 4588   6.373   3.238   5.894
 1549TIP3    H2 4589   6.498   3.236   5.979
 1550TIP3   OH2 4590   3.087   0.072   3.371
 1550TIP3    H1 4591   3.049   0.105   3.289
 1550TIP3    H2 4592   3.128   0.148   3.411
 1551TIP3   OH2 4593   4.922   2.172   2.596
 1551TIP3    H1 4594   4.975   2.173   2.516
 1551TIP3    H2 4595   4.968   2.231   2.656
 1552TIP3   OH2 4596   3.018   2.562   4.341
 1552TIP3    H1 4597   2.978   2.477   4.355
 1552TIP3    H2 4598   3.050   2.588   4.427
 1553TIP3   OH2 4599   4.595   5.904   5.017
 1553TIP3    H1 4600   4.650   5.834   4.983
 1553TIP3    H2 4601   4.518   5.904   4.959
 1554TIP3   OH2 4602   5.196   5.313   4.603
 1554TIP3    H1 4603   5.260   5.370   4.560
 1554TIP3    H2 4604   5.203   5.336   4.696
 1555TIP3   OH2 4605   6.191   2.904   0.357
 1555TIP3    H1 4606   6.213   2.997   0.362
 1555TIP3    H2 4607   6.273   2.859   0.379
 1556TIP3   OH2 4608   3.525   4.831   1.650
 1556TIP3    H1 4609   3.468   4.831   1.727
 1556TIP3    H2 4610   3.606   4.872   1.680
 1557TIP3   OH2 4611   4.695   5.944   4.508
 1557TIP3    H1 4612   4.649   6.023   4.480
 1557TIP3    H2 4613   4.779   5.948   4.464
 1558TIP3   OH2 4614   5.323   0.391   5.295
 1558TIP3    H1 4615   5.382   0.337   5.241
 1558TIP3    H2 4616   5.355   0.480   5.281
 1559TIP3   OH2 4617   1.566   1.842   2.983
 1559TIP3    H1 4618   1.489   1.872   3.032
 1559TIP3    H2 4619   1.533   1.773   2.926
 1560TIP3   OH2 4620   1.064   7.320   0.922
 1560TIP3    H1 4621   1.121   7.255   0.962
 1560TIP3    H2 4622   1.083   7.401   0.969
 1561TIP3   OH2 4623   1.511   4.717   5.306
 1561TIP3    H1 4624   1.528   4.751   5.394
 1561TIP3    H2 4625   1.575   4.764   5.251
 1562TIP3   OH2 4626   4.500   6.883   6.830
 1562TIP3    H1 4627   4.520   6.960   6.884
 1562TIP3    H2 4628   4.407   6.891   6.809
 1563TIP3   OH2 4629   3.155   6.179   5.302
 1563TIP3    H1 4630   3.188   6.244   5.364
 1563TIP3    H2 4631   3.126   6.106   5.356
 1564TIP3   OH2 4632   7.833   2.037   2.357
 1564TIP3    H1 4633   7.915   2.003   2.393
 1564TIP3    H2 4634   7.776   1.961   2.350
 1565TIP3   OH2 4635   8.169   1.538   1.783
 1565TIP3    H1 4636   8.098   1.529   1.720
 1565TIP3    H2 4637   8.248   1.510   1.736
 1566TIP3   OH2 4638   1.359   6.490   6.392
 1566TIP3    H1 4639   1.293   6.522   6.454
 1566TIP3    H2 4640   1.318   6.500   6.306
 1567TIP3   OH2 4641   3.541   4.199   1.395
 1567TIP3    H1 4642   3.621   4.234   1.434
 1567TIP3    H2 4643   3.525   4.118   1.443
 1568TIP3   OH2 4644   6.043   5.221   5.382
 1568TIP3    H1 4645   5.968   5.280   5.389
 1568TIP3    H2 4646   6.119   5.280   5.375
 1569TIP3   OH2 4647   3.757   0.315   2.807
 1569TIP3    H1 4648   3.841   0.310   2.853
 1569TIP3    H2 4649   3.701   0.251   2.852
 1570TIP3   OH2 4650   1.521   0.790   3.538
 1570TIP3    H1 4651   1.455   0.820   3.600
 1570TIP3    H2 4652   1.545   0.868   3.488
 1571TIP3   OH2 4653   1.019   0.905   5.899
 1571TIP3    H1 4654   1.008   0.999   5.916
 1571TIP3    H2 4655   0.932   0.868   5.914
 1572TIP3   OH2 4656   1.223   6.845   6.655
 1572TIP3    H1 4657   1.179   6.862   6.738
 1572TIP3    H2 4658   1.311   6.882   6.667
 1573TIP3   OH2 4659   1.880   6.452   2.010
 1573TIP3    H1 4660   1.897   6.360   2.030
 1573TIP3    H2 4661   1.792   6.451   1.971
 1574TIP3   OH2 4662   4.738   7.902   0.310
 1574TIP3    H1 4663   4.757   7.951   0.390
 1574TIP3    H2 4664   4.798   7.828   0.312
 1575TIP3   OH2 4665   1.884   2.093   0.235
 1575TIP3    H1 4666   1.919   2.024   0.180
 1575TIP3    H2 4667   1.931   2.172   0.208
 1576TIP3   OH2 4668   1.610   2.676   1.313
 1576TIP3    H1 4669   1.531   2.666   1.260
 1576TIP3    H2 4670   1.637   2.766   1.299
 1577TIP3   OH2 4671   0.200   2.218   1.139
 1577TIP3    H1 4672   0.224   2.151   1.074
 1577TIP3    H2 4673   0.281   2.235   1.187
 1578TIP3   OH2 4674   0.313   4.706   3.723
 1578TIP3    H1 4675   0.382   4.717   3.788
 1578TIP3    H2 4676   0.342   4.758   3.648
 1579TIP3   OH2 4677   4.804   4.801   5.018
 1579TIP3    H1 4678   4.799   4.894   4.997
 1579TIP3    H2 4679   4.789   4.798   5.112
 1580TIP3   OH2 4680   0.025   7.756   2.777
 1580TIP3    H1 4681   0.119   7.770   2.764
 1580TIP3    H2 4682  -0.016   7.829   2.730
 1581TIP3   OH2 4683   3.748   7.488   0.042
 1581TIP3    H1 4684   3.834   7.450   0.022
 1581TIP3    H2 4685   3.761   7.534   0.125
 1582TIP3   OH2 4686   7.844   2.777   0.934
 1582TIP3    H1 4687   7.810   2.865   0.951
 1582TIP3    H2 4688   7.845   2.770   0.838
 1583TIP3   OH2 4689   3.841   4.677   6.173
 1583TIP3    H1 4690   3.865   4.661   6.264
 1583TIP3    H2 4691   3.878   4.763   6.153
 1584TIP3   OH2 4692   3.969   1.884   5.474
 1584TIP3    H1 4693   3.901   1.826   5.509
 1584TIP3    H2 4694   4.049   1.855   5.518
 1585TIP3   OH2 4695   8.008   6.943   0.252
 1585TIP3    H1 4696   8.080   6.889   0.286
 1585TIP3    H2 4697   7.995   7.010   0.319
 1586TIP3   OH2 4698   7.147   6.640   2.451
 1586TIP3    H1 4699   7.139   6.616   2.544
 1586TIP3    H2 4700   7.058   6.663   2.425
 1587TIP3   OH2 4701   2.495   3.924   0.609
 1587TIP3    H1 4702   2.449   3.857   0.557
 1587TIP3    H2 4703   2.566   3.877   0.651
 1588TIP3   OH2 4704   1.178   2.113   4.113
 1588TIP3    H1 4705   1.189   2.173   4.039
 1588TIP3    H2 4706   1.253   2.054   4.106
 1589TIP3   OH2 4707   4.870   5.766   3.984
 1589TIP3    H1 4708   4.811   5.715   3.927
 1589TIP3    H2 4709   4.903   5.836   3.928
 1590TIP3   OH2 4710   6.034   2.907   0.607
 1590TIP3    H1 4711   6.058   3.000   0.600
 1590TIP3    H2 4712   6.089   2.864   0.542
 1591TIP3   OH2 4713   3.558   1.042   2.936
 1591TIP3    H1 4714   3.468   1.056   2.909
 1591TIP3    H2 4715   3.558   1.059   3.030
 1592TIP3   OH2 4716   5.108   7.755   5.107
 1592TIP3    H1 4717   5.047   7.771   5.179
 1592TIP3    H2 4718   5.055   7.711   5.041
 1593TIP3   OH2 4719   3.623   3.218   1.278
 1593TIP3    H1 4720   3.673   3.137   1.288
 1593TIP3    H2 4721   3.535   3.196   1.308
 1594TIP3   OH2 4722   4.923   4.251   5.180
 1594TIP3    H1 4723   4.860   4.188   5.147
 1594TIP3    H2 4724   4.868   4.320   5.220
 1595TIP3   OH2 4725   0.594   5.832   1.481
 1595TIP3    H1 4726   0.599   5.927   1.473
 1595TIP3    H2 4727   0.500   5.813   1.485
 1596TIP3   OH2 4728   1.655   4.697   2.768
 1596TIP3    H1 4729   1.565   4.672   2.791
 1596TIP3    H2 4730   1.708   4.620   2.789
 1597TIP3   OH2 4731   8.233   6.916   6.055
 1597TIP3    H1 4732   8.224   7.007   6.082
 1597TIP3    H2 4733   8.323   6.893   6.077
 1598TIP3   OH2 4734   2.043   3.421   0.581
 1598TIP3    H1 4735   1.960   3.372   0.578
 1598TIP3    H2 4736   2.016   3.513   0.578
 1599TIP3   OH2 4737   6.033   2.912   5.363
 1599TIP3    H1 4738   6.063   2.940   5.449
 1599TIP3    H2 4739   6.102   2.939   5.303
 1600TIP3   OH2 4740   0.335   6.668   1.868
 1600TIP3    H1 4741   0.350   6.760   1.888
 1600TIP3    H2 4742   0.384   6.620   1.935
 1601TIP3   OH2 4743   7.021   2.471   2.969
 1601TIP3    H1 4744   7.095   2.441   2.918
 1601TIP3    H2 4745   6.980   2.391   3.001
 1602TIP3   OH2 4746   5.572   2.280   5.357
 1602TIP3    H1 4747   5.496   2.306   5.304
 1602TIP3    H2 4748   5.632   2.354   5.351
 1603TIP3   OH2 4749   1.130   3.431   5.032
 1603TIP3    H1 4750   1.038   3.446   5.012
 1603TIP3    H2 4751   1.130   3.381   5.113
 1604TIP3   OH2 4752   8.057   5.058   3.864
 1604TIP3    H1 4753   7.995   5.010   3.809
 1604TIP3    H2 4754   8.002   5.118   3.914
 1605TIP3   OH2 4755   6.579   4.669   6.369
 1605TIP3    H1 4756   6.554   4.578   6.384
 1605TIP3    H2 4757   6.571   4.680   6.274
 1606TIP3   OH2 4758   7.874   7.363   3.550
 1606TIP3    H1 4759   7.910   7.291   3.602
 1606TIP3    H2 4760   7.905   7.346   3.461
 1607TIP3   OH2 4761   1.831   7.707   1.916
 1607TIP3    H1 4762   1.813   7.613   1.907
 1607TIP3    H2 4763   1.852   7.735   1.827
 1608TIP3   OH2 4764   2.994   0.213   4.706
 1608TIP3    H1 4765   2.951   0.284   4.658
 1608TIP3    H2 4766   3.077   0.199   4.659
 1609TIP3   OH2 4767   4.534   3.045   2.064
 1609TIP3    H1 4768   4.591   3.100   2.011
 1609TIP3    H2 4769   4.503   2.978   2.003
 1610TIP3   OH2 4770   4.299   3.935   1.056
 1610TIP3    H1 4771   4.240   4.010   1.066
 1610TIP3    H2 4772   4.249   3.871   1.007
 1611TIP3   OH2 4773   3.419   1.054   6.003
 1611TIP3    H1 4774   3.422   1.146   5.977
 1611TIP3    H2 4775   3.470   1.009   5.936
 1612TIP3   OH2 4776   5.254   7.861   6.297
 1612TIP3    H1 4777   5.178   7.895   6.345
 1612TIP3    H2 4778   5.216   7.820   6.219
 1613TIP3   OH2 4779   6.501   7.127   4.089
 1613TIP3    H1 4780   6.491   7.210   4.042
 1613TIP3    H2 4781   6.541   7.151   4.172
 1614TIP3   OH2 4782   7.795   5.121   0.202
 1614TIP3    H1 4783   7.823   5.044   0.252
 1614TIP3    H2 4784   7.788   5.090   0.112
 1615TIP3   OH2 4785   4.739   5.754   3.700
 1615TIP3    H1 4786   4.816   5.697   3.692
 1615TIP3    H2 4787   4.705   5.760   3.611
 1616TIP3   OH2 4788   7.410   1.709   0.403
 1616TIP3    H1 4789   7.432   1.685   0.493
 1616TIP3    H2 4790   7.434   1.632   0.352
 1617TIP3   OH2 4791   0.190   3.483   4.422
 1617TIP3    H1 4792   0.264   3.468   4.481
 1617TIP3    H2 4793   0.182   3.578   4.418
 1618TIP3   OH2 4794   6.451   7.691   0.551
 1618TIP3    H1 4795   6.502   7.651   0.480
 1618TIP3    H2 4796   6.507   7.762   0.582
 1619TIP3   OH2 4797   6.085   4.758   3.744
 1619TIP3    H1 4798   6.055   4.822   3.809
 1619TIP3    H2 4799   6.124   4.811   3.675
 1620TIP3   OH2 4800   6.111   7.849   0.524
 1620TIP3    H1 4801   6.130   7.767   0.477
 1620TIP3    H2 4802   6.018   7.866   0.505
 1621TIP3   OH2 4803   3.993   4.197   5.039
 1621TIP3    H1 4804   4.054   4.190   4.966
 1621TIP3    H2 4805   3.920   4.247   5.005
 1622TIP3   OH2 4806   6.265   4.335   2.881
 1622TIP3    H1 4807   6.290   4.274   2.951
 1622TIP3    H2 4808   6.212   4.283   2.821
 1623TIP3   OH2 4809   7.985   0.765   0.163
 1623TIP3    H1 4810   8.053   0.771   0.096
 1623TIP3    H2 4811   7.924   0.835   0.144
 1624TIP3   OH2 4812   6.483   6.617   5.624
 1624TIP3    H1 4813   6.481   6.528   5.660
 1624TIP3    H2 4814   6.402   6.624   5.574
 1625TIP3   OH2 4815   5.849   7.662   4.547
 1625TIP3    H1 4816   5.866   7.716   4.624
 1625TIP3    H2 4817   5.757   7.676   4.526
 1626TIP3   OH2 4818   3.689   0.442   1.051
 1626TIP3    H1 4819   3.726   0.530   1.059
 1626TIP3    H2 4820   3.608   0.453   1.001
 1627TIP3   OH2 4821   0.336   0.885   4.123
 1627TIP3    H1 4822   0.430   0.879   4.104
 1627TIP3    H2 4823   0.332   0.900   4.218
 1628TIP3   OH2 4824   5.404   7.148   5.474
 1628TIP3    H1 4825   5.460   7.150   5.551
 1628TIP3    H2 4826   5.316   7.164   5.508
 1629TIP3   OH2 4827   3.291   6.919   5.287
 1629TIP3    H1 4828   3.227   6.853   5.258
 1629TIP3    H2 4829   3.270   6.933   5.379
 1630TIP3   OH2 4830   1.851   4.500   2.816
 1630TIP3    H1 4831   1.814   4.420   2.854
 1630TIP3    H2 4832   1.924   4.522   2.873
 1631TIP3   OH2 4833   3.093   7.886   6.593
 1631TIP3    H1 4834   3.180   7.925   6.598
 1631TIP3    H2 4835   3.109   7.792   6.585
 1632TIP3   OH2 4836   0.956   4.971   0.290
 1632TIP3    H1 4837   0.966   4.925   0.373
 1632TIP3    H2 4838   1.035   5.025   0.283
 1633TIP3   OH2 4839   0.713   3.248   0.393
 1633TIP3    H1 4840   0.692   3.158   0.419
 1633TIP3    H2 4841   0.732   3.293   0.476
 1634TIP3   OH2 4842   2.603   3.831   5.872
 1634TIP3    H1 4843   2.595   3.756   5.813
 1634TIP3    H2 4844   2.617   3.905   5.814
 1635TIP3   OH2 4845   4.116   4.150   3.839
 1635TIP3    H1 4846   4.028   4.121   3.862
 1635TIP3    H2 4847   4.105   4.197   3.757
 1636TIP3   OH2 4848   1.369   5.492   6.498
 1636TIP3    H1 4849   1.346   5.423   6.561
 1636TIP3    H2 4850   1.361   5.573   6.547
 1637TIP3   OH2 4851   7.464   0.226   5.285
 1637TIP3    H1 4852   7.478   0.252   5.193
 1637TIP3    H2 4853   7.471   0.131   5.284
 1638TIP3   OH2 4854   6.824   2.996   1.833
 1638TIP3    H1 4855   6.743   2.999   1.885
 1638TIP3    H2 4856   6.885   2.947   1.887
 1639TIP3   OH2 4857   1.126   7.747   3.357
 1639TIP3    H1 4858   1.163   7.741   3.445
 1639TIP3    H2 4859   1.192   7.793   3.306
 1640TIP3   OH2 4860   3.979   5.339   2.230
 1640TIP3    H1 4861   3.960   5.248   2.206
 1640TIP3    H2 4862   3.917   5.358   2.301
 1641TIP3   OH2 4863   1.323   2.948   0.902
 1641TIP3    H1 4864   1.235   2.936   0.866
 1641TIP3    H2 4865   1.355   2.860   0.917
 1642TIP3   OH2 4866   1.704   1.163   1.058
 1642TIP3    H1 4867   1.776   1.108   1.030
 1642TIP3    H2 4868   1.737   1.209   1.136
 1643TIP3   OH2 4869   7.211   6.604   6.405
 1643TIP3    H1 4870   7.123   6.602   6.367
 1643TIP3    H2 4871   7.251   6.521   6.377
 1644TIP3   OH2 4872   4.798   3.759   5.172
 1644TIP3    H1 4873   4.832   3.672   5.193
 1644TIP3    H2 4874   4.717   3.766   5.223
 1645TIP3   OH2 4875   0.457   7.200   1.413
 1645TIP3    H1 4876   0.386   7.261   1.431
 1645TIP3    H2 4877   0.414   7.114   1.404
 1646TIP3   OH2 4878   3.448   2.201   3.910
 1646TIP3    H1 4879   3.363   2.163   3.930
 1646TIP3    H2 4880   3.450   2.284   3.958
 1647TIP3   OH2 4881   6.520   2.526   2.165
 1647TIP3    H1 4882   6.511   2.444   2.212
 1647TIP3    H2 4883   6.549   2.589   2.232
 1648TIP3   OH2 4884   7.831   4.523   1.547
 1648TIP3    H1 4885   7.848   4.559   1.460
 1648TIP3    H2 4886   7.915   4.531   1.593
 1649TIP3   OH2 4887   7.515   1.179   6.644
 1649TIP3    H1 4888   7.461   1.180   6.565
 1649TIP3    H2 4889   7.458   1.142   6.711
 1650TIP3   OH2 4890   2.882   4.733   5.433
 1650TIP3    H1 4891   2.849   4.699   5.350
 1650TIP3    H2 4892   2.804   4.768   5.477
 1651TIP3   OH2 4893   2.674   0.864   2.157
 1651TIP3    H1 4894   2.682   0.959   2.146
 1651TIP3    H2 4895   2.764   0.834   2.172
 1652TIP3   OH2 4896   0.116   5.541   0.521
 1652TIP3    H1 4897   0.160   5.479   0.462
 1652TIP3    H2 4898   0.031   5.501   0.540
 1653TIP3   OH2 4899   4.788   2.419   0.305
 1653TIP3    H1 4900   4.836   2.466   0.373
 1653TIP3    H2 4901   4.708   2.389   0.348
 1654TIP3   OH2 4902   3.104   7.799   5.480
 1654TIP3    H1 4903   3.049   7.813   5.403
 1654TIP3    H2 4904   3.187   7.767   5.445
 1655TIP3   OH2 4905   3.232   6.495   5.051
 1655TIP3    H1 4906   3.305   6.527   4.997
 1655TIP3    H2 4907   3.164   6.471   4.988
 1656TIP3   OH2 4908   1.453   3.197   3.842
 1656TIP3    H1 4909   1.457   3.290   3.863
 1656TIP3    H2 4910   1.472   3.192   3.748
 1657TIP3   OH2 4911   1.241   7.169   0.311
 1657TIP3    H1 4912   1.168   7.176   0.373
 1657TIP3    H2 4913   1.220   7.092   0.258
 1658TIP3   OH2 4914   8.083   0.645   0.827
 1658TIP3    H1 4915   8.005   0.690   0.795
 1658TIP3    H2 4916   8.052   0.557   0.849
 1659TIP3   OH2 4917   3.497   2.330   6.620
 1659TIP3    H1 4918   3.446   2.363   6.694
 1659TIP3    H2 4919   3.588   2.348   6.644
 1660TIP3   OH2 4920   7.698   2.651   3.527
 1660TIP3    H1 4921   7.693   2.556   3.535
 1660TIP3    H2 4922   7.785   2.668   3.492
 1661TIP3   OH2 4923   4.358   3.708   5.735
 1661TIP3    H1 4924   4.338   3.619   5.765
 1661TIP3    H2 4925   4.309   3.765   5.794
 1662TIP3   OH2 4926   5.983   6.616   2.311
 1662TIP3    H1 4927   6.006   6.638   2.221
 1662TIP3    H2 4928   5.998   6.522   2.318
 1663TIP3   OH2 4929   4.817   6.945   3.399
 1663TIP3    H1 4930   4.760   6.950   3.476
 1663TIP3    H2 4931   4.898   6.988   3.425
 1664TIP3   OH2 4932   4.326   2.344   6.291
 1664TIP3    H1 4933   4.272   2.391   6.227
 1664TIP3    H2 4934   4.334   2.405   6.364
 1665TIP3   OH2 4935   3.790   4.854   5.439
 1665TIP3    H1 4936   3.767   4.843   5.531
 1665TIP3    H2 4937   3.731   4.796   5.392
 1666TIP3   OH2 4938   7.425   0.744   3.107
 1666TIP3    H1 4939   7.434   0.760   3.201
 1666TIP3    H2 4940   7.433   0.831   3.068
 1667TIP3   OH2 4941   0.673   0.880   0.446
 1667TIP3    H1 4942   0.633   0.815   0.389
 1667TIP3    H2 4943   0.687   0.956   0.390
 1668TIP3   OH2 4944   5.346   6.938   5.293
 1668TIP3    H1 4945   5.357   6.996   5.369
 1668TIP3    H2 4946   5.258   6.959   5.260
 1669TIP3   OH2 4947   2.514   2.391   3.194
 1669TIP3    H1 4948   2.506   2.411   3.101
 1669TIP3    H2 4949   2.533   2.297   3.197
 1670TIP3   OH2 4950   5.175   2.424   2.401
 1670TIP3    H1 4951   5.154   2.330   2.400
 1670TIP3    H2 4952   5.091   2.467   2.415
 1671TIP3   OH2 4953   2.839   1.885   3.218
 1671TIP3    H1 4954   2.773   1.901   3.150
 1671TIP3    H2 4955   2.922   1.884   3.171
 1672TIP3   OH2 4956   7.690   5.498   0.276
 1672TIP3    H1 4957   7.708   5.516   0.368
 1672TIP3    H2 4958   7.776   5.475   0.239
 1673TIP3   OH2 4959   0.235   2.746   0.781
 1673TIP3    H1 4960   0.222   2.667   0.728
 1673TIP3    H2 4961   0.148   2.787   0.784
 1674TIP3   OH2 4962   0.198   2.555   5.196
 1674TIP3    H1 4963   0.135   2.508   5.252
 1674TIP3    H2 4964   0.278   2.504   5.202
 1675TIP3   OH2 4965   5.159   2.272   0.166
 1675TIP3    H1 4966   5.172   2.361   0.199
 1675TIP3    H2 4967   5.079   2.278   0.114
 1676TIP3   OH2 4968   5.237   1.524   5.266
 1676TIP3    H1 4969   5.185   1.451   5.235
 1676TIP3    H2 4970   5.204   1.600   5.218
 1677TIP3   OH2 4971   0.528   2.326   0.875
 1677TIP3    H1 4972   0.549   2.248   0.822
 1677TIP3    H2 4973   0.600   2.332   0.938
 1678TIP3   OH2 4974   7.350   7.449   3.505
 1678TIP3    H1 4975   7.347   7.374   3.565
 1678TIP3    H2 4976   7.283   7.428   3.438
 1679TIP3   OH2 4977   3.853   6.047   2.937
 1679TIP3    H1 4978   3.807   6.013   3.013
 1679TIP3    H2 4979   3.785   6.081   2.880
 1680TIP3   OH2 4980   5.708   3.327   3.935
 1680TIP3    H1 4981   5.775   3.372   3.987
 1680TIP3    H2 4982   5.723   3.355   3.845
 1681TIP3   OH2 4983   1.328   0.477   0.303
 1681TIP3    H1 4984   1.237   0.496   0.278
 1681TIP3    H2 4985   1.320   0.419   0.378
 1682TIP3   OH2 4986   3.079   1.372   6.102
 1682TIP3    H1 4987   3.010   1.438   6.088
 1682TIP3    H2 4988   3.150   1.421   6.143
 1683TIP3   OH2 4989   3.639   6.232   1.610
 1683TIP3    H1 4990   3.643   6.149   1.561
 1683TIP3    H2 4991   3.730   6.255   1.626
 1684TIP3   OH2 4992   8.369   5.343   6.495
 1684TIP3    H1 4993   8.363   5.249   6.478
 1684TIP3    H2 4994   8.435   5.351   6.564
 1685TIP3   OH2 4995   6.776   2.007   3.024
 1685TIP3    H1 4996   6.838   1.941   3.056
 1685TIP3    H2 4997   6.725   1.962   2.956
 1686TIP3   OH2 4998   3.029   1.620   3.434
 1686TIP3    H1 4999   2.935   1.635   3.448
 1686TIP3    H2 5000   3.045   1.648   3.344
 1687TIP3   OH2 5001   0.931   2.784   6.289
 1687TIP3    H1 5002   0.972   2.856   6.240
 1687TIP3    H2 5003   0.896   2.826   6.368
 1688TIP3   OH2 5004   8.409   6.670   4.392
 1688TIP3    H1 5005   8.438   6.757   4.366
 1688TIP3    H2 5006   8.351   6.642   4.321
 1689TIP3   OH2 5007   4.981   5.321   3.281
 1689TIP3    H1 5008   5.006   5.244   3.230
 1689TIP3    H2 5009   4.888   5.332   3.264
 1690TIP3   OH2 5010   2.076   2.036   5.552
 1690TIP3    H1 5011   1.990   2.048   5.591
 1690TIP3    H2 5012   2.097   2.121   5.514
 1691TIP3   OH2 5013   4.612   3.050   1.247
 1691TIP3    H1 5014   4.540   3.106   1.277
 1691TIP3    H2 5015   4.630   2.992   1.321
 1692TIP3   OH2 5016   4.465   5.995   4.710
 1692TIP3    H1 5017   4.521   6.061   4.751
 1692TIP3    H2 5018   4.471   6.013   4.616
 1693TIP3   OH2 5019   1.927   4.653   4.527
 1693TIP3    H1 5020   1.860   4.586   4.547
 1693TIP3    H2 5021   1.876   4.729   4.498
 1694TIP3   OH2 5022   2.379   7.261   6.326
 1694TIP3    H1 5023   2.384   7.335   6.386
 1694TIP3    H2 5024   2.369   7.184   6.383
 1695TIP3   OH2 5025   1.047   3.877   6.875
 1695TIP3    H1 5026   1.022   3.968   6.855
 1695TIP3    H2 5027   1.070   3.840   6.789
 1696TIP3   OH2 5028   1.389   5.094   2.901
 1696TIP3    H1 5029   1.464   5.151   2.884
 1696TIP3    H2 5030   1.424   5.026   2.959
 1697TIP3   OH2 5031   8.178   4.831   4.327
 1697TIP3    H1 5032   8.164   4.829   4.233
 1697TIP3    H2 5033   8.267   4.864   4.337
 1698TIP3   OH2 5034   5.948   4.822   0.296
 1698TIP3    H1 5035   6.009   4.749   0.300
 1698TIP3    H2 5036   5.913   4.829   0.385
 1699TIP3   OH2 5037   1.137   6.267   6.757
 1699TIP3    H1 5038   1.060   6.322   6.744
 1699TIP3    H2 5039   1.137   6.208   6.682
 1700TIP3   OH2 5040   4.651   0.951   5.982
 1700TIP3    H1 5041   4.744   0.930   5.974
 1700TIP3    H2 5042   4.625   0.914   6.066
 1701TIP3   OH2 5043   5.494   5.713   0.894
 1701TIP3    H1 5044   5.472   5.803   0.870
 1701TIP3    H2 5045   5.584   5.717   0.925
 1702TIP3   OH2 5046   3.924   4.843   4.581
 1702TIP3    H1 5047   3.930   4.818   4.489
 1702TIP3    H2 5048   3.989   4.788   4.625
 1703TIP3   OH2 5049   7.680   0.988   2.433
 1703TIP3    H1 5050   7.598   0.952   2.399
 1703TIP3    H2 5051   7.659   1.011   2.524
 1704TIP3   OH2 5052   8.065   7.847   2.860
 1704TIP3    H1 5053   8.053   7.897   2.779
 1704TIP3    H2 5054   8.160   7.848   2.875
 1705TIP3   OH2 5055   6.893   2.619   1.311
 1705TIP3    H1 5056   6.917   2.548   1.371
 1705TIP3    H2 5057   6.880   2.575   1.227
 1706TIP3   OH2 5058   5.903   5.686   3.529
 1706TIP3    H1 5059   5.891   5.764   3.583
 1706TIP3    H2 5060   5.908   5.720   3.439
 1707TIP3   OH2 5061   1.697   4.894   0.486
 1707TIP3    H1 5062   1.644   4.823   0.523
 1707TIP3    H2 5063   1.768   4.905   0.549
 1708TIP3   OH2 5064   3.836   5.617   2.718
 1708TIP3    H1 5065   3.859   5.557   2.647
 1708TIP3    H2 5066   3.749   5.650   2.694
 1709TIP3   OH2 5067   8.022   1.370   3.494
 1709TIP3    H1 5068   7.950   1.333   3.546
 1709TIP3    H2 5069   8.096   1.374   3.556
 1710TIP3   OH2 5070   3.843   3.247   6.537
 1710TIP3    H1 5071   3.806   3.212   6.456
 1710TIP3    H2 5072   3.812   3.187   6.605
 1711TIP3   OH2 5073   7.775   7.631   3.572
 1711TIP3    H1 5074   7.785   7.651   3.479
 1711TIP3    H2 5075   7.780   7.536   3.577
 1712TIP3   OH2 5076   7.104   6.216   1.992
 1712TIP3    H1 5077   7.171   6.180   2.050
 1712TIP3    H2 5078   7.134   6.304   1.972
 1713TIP3   OH2 5079   5.413   2.553   5.068
 1713TIP3    H1 5080   5.422   2.483   5.004
 1713TIP3    H2 5081   5.401   2.508   5.152
 1714TIP3   OH2 5082   2.923   3.432   4.982
 1714TIP3    H1 5083   2.994   3.464   4.926
 1714TIP3    H2 5084   2.966   3.375   5.045
 1715TIP3   OH2 5085   3.006   0.504   1.011
 1715TIP3    H1 5086   3.040   0.491   0.922
 1715TIP3    H2 5087   2.993   0.599   1.017
 1716TIP3   OH2 5088   6.412   2.207   1.969
 1716TIP3    H1 5089   6.374   2.188   2.055
 1716TIP3    H2 5090   6.423   2.122   1.928
 1717TIP3   OH2 5091   6.909   6.595   5.578
 1717TIP3    H1 5092   6.860   6.640   5.647
 1717TIP3    H2 5093   6.978   6.548   5.625
 1718TIP3   OH2 5094   6.656   6.311   2.425
 1718TIP3    H1 5095   6.714   6.365   2.372
 1718TIP3    H2 5096   6.585   6.370   2.451
 1719TIP3   OH2 5097   7.351   3.916   3.213
 1719TIP3    H1 5098   7.271   3.962   3.186
 1719TIP3    H2 5099   7.422   3.962   3.169
 1720TIP3   OH2 5100   4.371   6.016   4.322
 1720TIP3    H1 5101   4.288   6.046   4.359
 1720TIP3    H2 5102   4.438   6.063   4.372
 1721TIP3   OH2 5103   3.670   5.375   2.120
 1721TIP3    H1 5104   3.633   5.287   2.126
 1721TIP3    H2 5105   3.756   5.363   2.080
 1722TIP3   OH2 5106   6.750   4.169   3.029
 1722TIP3    H1 5107   6.674   4.150   2.976
 1722TIP3    H2 5108   6.734   4.125   3.112
 1723TIP3   OH2 5109   6.146   7.536   4.636
 1723TIP3    H1 5110   6.072   7.580   4.678
 1723TIP3    H2 5111   6.107   7.490   4.561
 1724TIP3   OH2 5112   4.395   6.644   4.805
 1724TIP3    H1 5113   4.454   6.579   4.843
 1724TIP3    H2 5114   4.332   6.593   4.754
 1725TIP3   OH2 5115   4.978   4.943   3.679
 1725TIP3    H1 5116   4.901   4.914   3.630
 1725TIP3    H2 5117   5.005   5.024   3.634
 1726TIP3   OH2 5118   1.825   1.700   0.365
 1726TIP3    H1 5119   1.790   1.773   0.416
 1726TIP3    H2 5120   1.829   1.627   0.427
 1727TIP3   OH2 5121   5.055   4.746   3.177
 1727TIP3    H1 5122   5.084   4.722   3.089
 1727TIP3    H2 5123   5.129   4.728   3.234
 1728TIP3   OH2 5124   0.584   2.444   5.223
 1728TIP3    H1 5125   0.502   2.399   5.202
 1728TIP3    H2 5126   0.557   2.522   5.272
 1729TIP3   OH2 5127   0.002   0.547   6.750
 1729TIP3    H1 5128   0.079   0.552   6.807
 1729TIP3    H2 5129  -0.069   0.584   6.803
 1730TIP3   OH2 5130   1.562   2.600   4.693
 1730TIP3    H1 5131   1.514   2.679   4.669
 1730TIP3    H2 5132   1.644   2.605   4.643
 1731TIP3   OH2 5133   2.951   0.360   0.284
 1731TIP3    H1 5134   2.896   0.289   0.317
 1731TIP3    H2 5135   2.959   0.420   0.358
 1732TIP3   OH2 5136   0.498   6.139   4.302
 1732TIP3    H1 5137   0.550   6.195   4.245
 1732TIP3    H2 5138   0.467   6.068   4.246
 1733TIP3   OH2 5139   3.886   7.521   4.390
 1733TIP3    H1 5140   3.973   7.483   4.378
 1733TIP3    H2 5141   3.886   7.601   4.337
 1734TIP3   OH2 5142   0.589   6.028   6.026
 1734TIP3    H1 5143   0.667   6.028   5.972
 1734TIP3    H2 5144   0.524   6.077   5.976
 1735TIP3   OH2 5145   1.938   6.331   3.720
 1735TIP3    H1 5146   1.895   6.273   3.783
 1735TIP3    H2 5147   1.870   6.394   3.695
 1736TIP3   OH2 5148   1.192   5.824   0.391
 1736TIP3    H1 5149   1.251   5.854   0.460
 1736TIP3    H2 5150   1.246   5.765   0.338
 1737TIP3   OH2 5151   4.266   7.062   5.834
 1737TIP3    H1 5152   4.262   7.014   5.916
 1737TIP3    H2 5153   4.349   7.110   5.838
 1738TIP3   OH2 5154   4.451   3.860   0.254
 1738TIP3    H1 5155   4.485   3.947   0.232
 1738TIP3    H2 5156   4.526   3.802   0.244
 1739TIP3   OH2 5157   1.021   1.618   3.990
 1739TIP3    H1 5158   0.996   1.709   4.006
 1739TIP3    H2 5159   0.998   1.603   3.898
 1740TIP3   OH2 5160   5.697   6.741   4.159
 1740TIP3    H1 5161   5.771   6.683   4.139
 1740TIP3    H2 5162   5.622   6.698   4.118
 1741TIP3   OH2 5163   3.741   0.936   6.109
 1741TIP3    H1 5164   3.677   0.951   6.177
 1741TIP3    H2 5165   3.721   1.000   6.041
 1742TIP3   OH2 5166   5.795   2.623   1.194
 1742TIP3    H1 5167   5.847   2.550   1.163
 1742TIP3    H2 5168   5.792   2.612   1.289
 1743TIP3   OH2 5169   4.528   1.195   0.697
 1743TIP3    H1 5170   4.464   1.252   0.654
 1743TIP3    H2 5171   4.509   1.204   0.791
 1744TIP3   OH2 5172   5.084   1.974   6.594
 1744TIP3    H1 5173   4.998   1.996   6.558
 1744TIP3    H2 5174   5.145   1.988   6.521
 1745TIP3   OH2 5175   6.234   5.982   4.299
 1745TIP3    H1 5176   6.255   6.029   4.218
 1745TIP3    H2 5177   6.139   5.991   4.307
 1746TIP3   OH2 5178   2.733   3.750   0.493
 1746TIP3    H1 5179   2.650   3.702   0.500
 1746TIP3    H2 5180   2.778   3.708   0.420
 1747TIP3   OH2 5181   1.748   5.522   2.962
 1747TIP3    H1 5182   1.834   5.500   2.927
 1747TIP3    H2 5183   1.689   5.519   2.887
 1748TIP3   OH2 5184   0.856   6.431   1.926
 1748TIP3    H1 5185   0.930   6.371   1.931
 1748TIP3    H2 5186   0.842   6.460   2.016
 1749TIP3   OH2 5187   5.839   1.625   1.419
 1749TIP3    H1 5188   5.822   1.569   1.495
 1749TIP3    H2 5189   5.762   1.614   1.364
 1750TIP3   OH2 5190   5.525   4.864   3.551
 1750TIP3    H1 5191   5.510   4.951   3.590
 1750TIP3    H2 5192   5.513   4.803   3.624
 1751TIP3   OH2 5193   7.227   5.626   3.845
 1751TIP3    H1 5194   7.199   5.659   3.759
 1751TIP3    H2 5195   7.155   5.649   3.904
 1752TIP3   OH2 5196   6.447   5.068   3.144
 1752TIP3    H1 5197   6.540   5.048   3.134
 1752TIP3    H2 5198   6.438   5.096   3.235
 1753TIP3   OH2 5199   3.235   3.734   4.115
 1753TIP3    H1 5200   3.152   3.732   4.162
 1753TIP3    H2 5201   3.213   3.716   4.024
 1754TIP3   OH2 5202   2.676   4.689   4.340
 1754TIP3    H1 5203   2.717   4.615   4.386
 1754TIP3    H2 5204   2.608   4.718   4.400
 1755TIP3   OH2 5205   4.800   5.449   4.641
 1755TIP3    H1 5206   4.742   5.461   4.566
 1755TIP3    H2 5207   4.838   5.535   4.656
 1756TIP3   OH2 5208   3.767   3.503   6.651
 1756TIP3    H1 5209   3.845   3.551   6.677
 1756TIP3    H2 5210   3.797   3.414   6.635
 1757TIP3   OH2 5211   0.533   0.343   2.025
 1757TIP3    H1 5212   0.500   0.306   1.943
 1757TIP3    H2 5213   0.489   0.292   2.093
 1758TIP3   OH2 5214   4.580   6.164   3.945
 1758TIP3    H1 5215   4.658   6.140   3.996
 1758TIP3    H2 5216   4.611   6.165   3.855
 1759TIP3   OH2 5217   2.093   6.699   5.322
 1759TIP3    H1 5218   2.163   6.759   5.297
 1759TIP3    H2 5219   2.052   6.674   5.238
 1760TIP3   OH2 5220   2.440   1.999   3.514
 1760TIP3    H1 5221   2.447   2.043   3.429
 1760TIP3    H2 5222   2.347   1.976   3.521
 1761TIP3   OH2 5223   1.839   1.481   5.035
 1761TIP3    H1 5224   1.771   1.517   4.977
 1761TIP3    H2 5225   1.814   1.512   5.122
 1762TIP3   OH2 5226   8.225   5.680   5.715
 1762TIP3    H1 5227   8.216   5.673   5.810
 1762TIP3    H2 5228   8.281   5.756   5.701
 1763TIP3   OH2 5229   0.017   0.620   0.293
 1763TIP3    H1 5230   0.076   0.676   0.343
 1763TIP3    H2 5231   0.069   0.541   0.275
 1764TIP3   OH2 5232   8.010   4.101   4.148
 1764TIP3    H1 5233   8.017   4.006   4.140
 1764TIP3    H2 5234   7.944   4.114   4.216
 1765TIP3   OH2 5235   8.063   6.361   3.458
 1765TIP3    H1 5236   7.977   6.325   3.440
 1765TIP3    H2 5237   8.081   6.419   3.384
 1766TIP3   OH2 5238   6.911   1.407   6.636
 1766TIP3    H1 5239   6.826   1.374   6.665
 1766TIP3    H2 5240   6.964   1.409   6.716
 1767TIP3   OH2 5241   4.353   6.995   0.665
 1767TIP3    H1 5242   4.428   7.044   0.631
 1767TIP3    H2 5243   4.372   6.903   0.643
 1768TIP3   OH2 5244   5.799   4.934   5.384
 1768TIP3    H1 5245   5.778   5.027   5.374
 1768TIP3    H2 5246   5.878   4.933   5.437
 1769TIP3   OH2 5247   4.783   7.393   6.761
 1769TIP3    H1 5248   4.836   7.405   6.682
 1769TIP3    H2 5249   4.844   7.361   6.827
 1770TIP3   OH2 5250   6.466   0.223   5.543
 1770TIP3    H1 5251   6.376   0.196   5.559
 1770TIP3    H2 5252   6.479   0.209   5.449
 1771TIP3   OH2 5253   1.343   6.214   1.818
 1771TIP3    H1 5254   1.347   6.127   1.779
 1771TIP3    H2 5255   1.293   6.266   1.754
 1772TIP3   OH2 5256   3.374   2.539   4.789
 1772TIP3    H1 5257   3.366   2.632   4.768
 1772TIP3    H2 5258   3.452   2.533   4.843
 1773TIP3   OH2 5259   4.599   0.612   0.799
 1773TIP3    H1 5260   4.675   0.647   0.845
 1773TIP3    H2 5261   4.612   0.637   0.708
 1774TIP3   OH2 5262   5.555   3.103   3.343
 1774TIP3    H1 5263   5.536   3.103   3.250
 1774TIP3    H2 5264   5.479   3.147   3.383
 1775TIP3   OH2 5265   8.162   6.633   1.863
 1775TIP3    H1 5266   8.257   6.645   1.859
 1775TIP3    H2 5267   8.128   6.716   1.897
 1776TIP3   OH2 5268   3.688   0.547   2.953
 1776TIP3    H1 5269   3.724   0.465   2.922
 1776TIP3    H2 5270   3.765   0.599   2.979
 1777TIP3   OH2 5271   4.106   3.248   5.349
 1777TIP3    H1 5272   4.084   3.187   5.278
 1777TIP3    H2 5273   4.196   3.225   5.373
 1778TIP3   OH2 5274   0.704   4.954   6.609
 1778TIP3    H1 5275   0.799   4.953   6.591
 1778TIP3    H2 5276   0.664   4.968   6.523
 1779TIP3   OH2 5277   2.379   7.256   1.129
 1779TIP3    H1 5278   2.430   7.302   1.196
 1779TIP3    H2 5279   2.385   7.312   1.052
 1780TIP3   OH2 5280   5.965   3.916   0.871
 1780TIP3    H1 5281   6.050   3.957   0.860
 1780TIP3    H2 5282   5.942   3.934   0.962
 1781TIP3   OH2 5283   4.941   1.242   4.662
 1781TIP3    H1 5284   4.851   1.209   4.658
 1781TIP3    H2 5285   4.977   1.222   4.575
 1782TIP3   OH2 5286   4.241   0.652   1.995
 1782TIP3    H1 5287   4.183   0.648   1.919
 1782TIP3    H2 5288   4.324   0.686   1.960
 1783TIP3   OH2 5289   7.710   6.710   1.401
 1783TIP3    H1 5290   7.773   6.697   1.471
 1783TIP3    H2 5291   7.644   6.768   1.438
 1784TIP3   OH2 5292   0.993   5.362   2.597
 1784TIP3    H1 5293   0.985   5.355   2.502
 1784TIP3    H2 5294   0.918   5.313   2.632
 1785TIP3   OH2 5295   8.092   2.131   3.681
 1785TIP3    H1 5296   7.999   2.109   3.669
 1785TIP3    H2 5297   8.126   2.140   3.592
 1786TIP3   OH2 5298   1.151   6.934   3.760
 1786TIP3    H1 5299   1.210   6.890   3.698
 1786TIP3    H2 5300   1.069   6.944   3.712
 1787TIP3   OH2 5301   4.166   7.661   2.480
 1787TIP3    H1 5302   4.141   7.570   2.496
 1787TIP3    H2 5303   4.180   7.698   2.567
 1788TIP3   OH2 5304   2.045   2.163   0.696
 1788TIP3    H1 5305   1.973   2.139   0.754
 1788TIP3    H2 5306   2.030   2.110   0.617
 1789TIP3   OH2 5307   3.952   5.801   0.135
 1789TIP3    H1 5308   3.934   5.826   0.044
 1789TIP3    H2 5309   3.977   5.708   0.129
 1790TIP3   OH2 5310   1.181   5.319   3.710
 1790TIP3    H1 5311   1.249   5.263   3.673
 1790TIP3    H2 5312   1.164   5.282   3.796
 1791TIP3   OH2 5313   0.635   1.567   0.193
 1791TIP3    H1 5314   0.629   1.518   0.111
 1791TIP3    H2 5315   0.641   1.500   0.261
 1792TIP3   OH2 5316   3.121   0.244   2.434
 1792TIP3    H1 5317   3.174   0.173   2.469
 1792TIP3    H2 5318   3.149   0.321   2.484
 1793TIP3   OH2 5319   5.332   5.549   4.681
 1793TIP3    H1 5320   5.361   5.539   4.771
 1793TIP3    H2 5321   5.359   5.638   4.657
 1794TIP3   OH2 5322   1.899   4.892   1.985
 1794TIP3    H1 5323   1.868   4.926   1.901
 1794TIP3    H2 5324   1.993   4.910   1.985
 1795TIP3   OH2 5325   1.606   5.049   0.928
 1795TIP3    H1 5326   1.573   5.139   0.921
 1795TIP3    H2 5327   1.637   5.042   1.018
 1796TIP3   OH2 5328   1.757   1.532   0.580
 1796TIP3    H1 5329   1.681   1.538   0.637
 1796TIP3    H2 5330   1.763   1.439   0.558
 1797TIP3   OH2 5331   6.604   6.435   6.669
 1797TIP3    H1 5332   6.537   6.502   6.653
 1797TIP3    H2 5333   6.682   6.468   6.626
 1798TIP3   OH2 5334   3.453   2.965   2.008
 1798TIP3    H1 5335   3.534   2.965   2.059
 1798TIP3    H2 5336   3.469   3.027   1.937
 1799TIP3   OH2 5337   3.793   1.786   0.529
 1799TIP3    H1 5338   3.738   1.853   0.490
 1799TIP3    H2 5339   3.864   1.773   0.467
 1800TIP3   OH2 5340   5.960   5.979   4.458
 1800TIP3    H1 5341   5.892   5.986   4.392
 1800TIP3    H2 5342   5.937   6.045   4.523
 1801TIP3   OH2 5343   6.037   7.555   6.763
 1801TIP3    H1 5344   6.078   7.565   6.677
 1801TIP3    H2 5345   5.944   7.546   6.743
 1802TIP3   OH2 5346   7.999   7.836   6.247
 1802TIP3    H1 5347   8.040   7.920   6.270
 1802TIP3    H2 5348   7.906   7.855   6.245
 1803TIP3   OH2 5349   1.351   7.302   2.529
 1803TIP3    H1 5350   1.360   7.254   2.612
 1803TIP3    H2 5351   1.291   7.248   2.477
 1804TIP3   OH2 5352   0.932   4.706   0.015
 1804TIP3    H1 5353   0.860   4.734  -0.040
 1804TIP3    H2 5354   0.988   4.784   0.022
 1805TIP3   OH2 5355   4.955   5.468   5.017
 1805TIP3    H1 5356   4.865   5.436   5.011
 1805TIP3    H2 5357   4.950   5.546   5.072
 1806TIP3   OH2 5358   2.194   5.463   5.468
 1806TIP3    H1 5359   2.222   5.469   5.559
 1806TIP3    H2 5360   2.236   5.383   5.436
 1807TIP3   OH2 5361   7.905   1.492   2.047
 1807TIP3    H1 5362   7.896   1.403   2.081
 1807TIP3    H2 5363   7.984   1.489   1.993
 1808TIP3   OH2 5364   2.834   4.035   5.419
 1808TIP3    H1 5365   2.864   4.010   5.507
 1808TIP3    H2 5366   2.914   4.057   5.372
 1809TIP3   OH2 5367   5.443   4.425   3.350
 1809TIP3    H1 5368   5.382   4.352   3.338
 1809TIP3    H2 5369   5.499   4.398   3.422
 1810TIP3   OH2 5370   1.280   3.176   1.519
 1810TIP3    H1 5371   1.216   3.198   1.586
 1810TIP3    H2 5372   1.231   3.178   1.437
 1811TIP3   OH2 5373   7.158   5.023   1.841
 1811TIP3    H1 5374   7.121   5.109   1.820
 1811TIP3    H2 5375   7.236   5.017   1.786
 1812TIP3   OH2 5376   2.638   6.124   6.314
 1812TIP3    H1 5377   2.674   6.036   6.325
 1812TIP3    H2 5378   2.585   6.119   6.234
 1813TIP3   OH2 5379   0.918   0.977   1.415
 1813TIP3    H1 5380   0.888   1.005   1.328
 1813TIP3    H2 5381   0.973   0.900   1.398
 1814TIP3   OH2 5382   5.500   2.128   1.391
 1814TIP3    H1 5383   5.568   2.125   1.323
 1814TIP3    H2 5384   5.453   2.045   1.381
 1815TIP3   OH2 5385   5.616   2.244   5.628
 1815TIP3    H1 5386   5.559   2.234   5.704
 1815TIP3    H2 5387   5.641   2.336   5.628
 1816TIP3   OH2 5388   1.108   3.996   1.032
 1816TIP3    H1 5389   1.117   3.902   1.019
 1816TIP3    H2 5390   1.019   4.016   1.004
 1817TIP3   OH2 5391   6.048   1.573   1.240
 1817TIP3    H1 5392   6.055   1.493   1.188
 1817TIP3    H2 5393   5.956   1.599   1.231
 1818TIP3   OH2 5394   6.822   3.134   5.949
 1818TIP3    H1 5395   6.805   3.073   6.021
 1818TIP3    H2 5396   6.811   3.082   5.870
 1819TIP3   OH2 5397   4.755   7.354   1.792
 1819TIP3    H1 5398   4.829   7.322   1.844
 1819TIP3    H2 5399   4.757   7.301   1.713
 1820TIP3   OH2 5400   8.396   6.851   2.967
 1820TIP3    H1 5401   8.333   6.923   2.958
 1820TIP3    H2 5402   8.343   6.772   2.966
 1821TIP3   OH2 5403   3.349   6.483   3.201
 1821TIP3    H1 5404   3.275   6.535   3.232
 1821TIP3    H2 5405   3.384   6.533   3.127
 1822TIP3   OH2 5406   6.576   6.398   0.437
 1822TIP3    H1 5407   6.649   6.441   0.392
 1822TIP3    H2 5408   6.585   6.306   0.415
 1823TIP3   OH2 5409   7.400   6.107   1.575
 1823TIP3    H1 5410   7.459   6.173   1.610
 1823TIP3    H2 5411   7.395   6.041   1.643
 1824TIP3   OH2 5412   0.693   3.439   0.098
 1824TIP3    H1 5413   0.764   3.493   0.134
 1824TIP3    H2 5414   0.725   3.411   0.012
 1825TIP3   OH2 5415   0.570   0.365   5.173
 1825TIP3    H1 5416   0.499   0.338   5.113
 1825TIP3    H2 5417   0.644   0.381   5.116
 1826TIP3   OH2 5418   2.288   0.910   4.502
 1826TIP3    H1 5419   2.377   0.895   4.468
 1826TIP3    H2 5420   2.278   0.845   4.572
 1827TIP3   OH2 5421   0.219   3.601   5.697
 1827TIP3    H1 5422   0.209   3.551   5.778
 1827TIP3    H2 5423   0.198   3.539   5.627
 1828TIP3   OH2 5424   4.027   0.703   1.238
 1828TIP3    H1 5425   3.965   0.725   1.308
 1828TIP3    H2 5426   4.104   0.758   1.257
 1829TIP3   OH2 5427   0.910   6.687   5.167
 1829TIP3    H1 5428   0.948   6.613   5.120
 1829TIP3    H2 5429   0.985   6.728   5.211
 1830TIP3   OH2 5430   7.325   3.108   6.219
 1830TIP3    H1 5431   7.288   3.166   6.285
 1830TIP3    H2 5432   7.248   3.071   6.174
 1831TIP3   OH2 5433   2.959   6.295   0.551
 1831TIP3    H1 5434   2.968   6.368   0.491
 1831TIP3    H2 5435   3.046   6.254   0.553
 1832TIP3   OH2 5436   7.154   7.051   3.900
 1832TIP3    H1 5437   7.204   6.975   3.871
 1832TIP3    H2 5438   7.071   7.015   3.929
 1833TIP3   OH2 5439   0.711   2.809   2.225
 1833TIP3    H1 5440   0.659   2.754   2.284
 1833TIP3    H2 5441   0.661   2.812   2.144
 1834TIP3   OH2 5442   3.870   3.632   4.423
 1834TIP3    H1 5443   3.852   3.538   4.432
 1834TIP3    H2 5444   3.790   3.675   4.454
 1835TIP3   OH2 5445   1.929   1.006   4.117
 1835TIP3    H1 5446   1.965   0.955   4.044
 1835TIP3    H2 5447   1.994   0.998   4.186
 1836TIP3   OH2 5448   1.525   6.367   1.001
 1836TIP3    H1 5449   1.451   6.393   1.055
 1836TIP3    H2 5450   1.578   6.447   0.991
 1837TIP3   OH2 5451   5.189   4.554   2.579
 1837TIP3    H1 5452   5.170   4.640   2.616
 1837TIP3    H2 5453   5.181   4.494   2.654
 1838TIP3   OH2 5454   3.871   4.025   3.521
 1838TIP3    H1 5455   3.911   3.964   3.457
 1838TIP3    H2 5456   3.904   3.995   3.605
 1839TIP3   OH2 5457   4.268   3.542   4.938
 1839TIP3    H1 5458   4.263   3.605   4.866
 1839TIP3    H2 5459   4.316   3.587   5.007
 1840TIP3   OH2 5460   0.706   5.671   1.956
 1840TIP3    H1 5461   0.744   5.718   2.031
 1840TIP3    H2 5462   0.709   5.579   1.981
 1841TIP3   OH2 5463   0.472   4.640   5.238
 1841TIP3    H1 5464   0.378   4.652   5.223
 1841TIP3    H2 5465   0.510   4.643   5.150
 1842TIP3   OH2 5466   3.634   1.417   2.215
 1842TIP3    H1 5467   3.539   1.420   2.206
 1842TIP3    H2 5468   3.656   1.324   2.222
 1843TIP3   OH2 5469   1.974   7.948   4.596
 1843TIP3    H1 5470   1.883   7.924   4.580
 1843TIP3    H2 5471   2.003   7.890   4.666
 1844TIP3   OH2 5472   8.192   5.128   6.645
 1844TIP3    H1 5473   8.145   5.211   6.644
 1844TIP3    H2 5474   8.138   5.069   6.591
 1845TIP3   OH2 5475   1.964   5.068   1.494
 1845TIP3    H1 5476   1.902   5.140   1.489
 1845TIP3    H2 5477   1.917   4.998   1.540
 1846TIP3   OH2 5478   7.494   2.647   1.473
 1846TIP3    H1 5479   7.432   2.691   1.414
 1846TIP3    H2 5480   7.548   2.719   1.507
 1847TIP3   OH2 5481   2.444   5.202   6.716
 1847TIP3    H1 5482   2.512   5.266   6.738
 1847TIP3    H2 5483   2.414   5.228   6.629
 1848TIP3   OH2 5484   3.434   2.612   3.427
 1848TIP3    H1 5485   3.422   2.555   3.503
 1848TIP3    H2 5486   3.367   2.679   3.437
 1849TIP3   OH2 5487   0.214   2.966   2.940
 1849TIP3    H1 5488   0.161   3.021   2.882
 1849TIP3    H2 5489   0.305   2.993   2.921
 1850TIP3   OH2 5490   7.478   1.750   1.807
 1850TIP3    H1 5491   7.527   1.807   1.747
 1850TIP3    H2 5492   7.405   1.803   1.836
 1851TIP3   OH2 5493   2.402   4.920   4.897
 1851TIP3    H1 5494   2.378   5.012   4.897
 1851TIP3    H2 5495   2.479   4.915   4.839
 1852TIP3   OH2 5496   7.575   6.260   1.708
 1852TIP3    H1 5497   7.544   6.222   1.791
 1852TIP3    H2 5498   7.670   6.257   1.714
 1853TIP3   OH2 5499   5.080   2.887   3.633
 1853TIP3    H1 5500   5.001   2.850   3.673
 1853TIP3    H2 5501   5.053   2.974   3.604
 1854TIP3   OH2 5502   3.043   6.595   6.427
 1854TIP3    H1 5503   2.996   6.653   6.487
 1854TIP3    H2 5504   3.034   6.508   6.465
 1855TIP3   OH2 5505   4.479   2.047   6.652
 1855TIP3    H1 5506   4.523   2.083   6.575
 1855TIP3    H2 5507   4.426   1.975   6.618
 1856TIP3   OH2 5508   7.181   6.618   5.972
 1856TIP3    H1 5509   7.220   6.695   6.012
 1856TIP3    H2 5510   7.089   6.641   5.959
 1857TIP3   OH2 5511   5.062   5.869   3.570
 1857TIP3    H1 5512   5.138   5.924   3.554
 1857TIP3    H2 5513   4.994   5.904   3.512
 1858TIP3   OH2 5514   8.139   6.383   1.989
 1858TIP3    H1 5515   8.136   6.466   1.940
 1858TIP3    H2 5516   8.086   6.399   2.067
 1859TIP3   OH2 5517   6.924   4.200   4.558
 1859TIP3    H1 5518   6.829   4.206   4.566
 1859TIP3    H2 5519   6.940   4.197   4.463
 1860TIP3   OH2 5520   8.095   2.180   0.771
 1860TIP3    H1 5521   8.106   2.140   0.857
 1860TIP3    H2 5522   8.183   2.212   0.749
 1861TIP3   OH2 5523   1.582   0.907   1.462
 1861TIP3    H1 5524   1.574   0.862   1.378
 1861TIP3    H2 5525   1.537   0.850   1.524
 1862TIP3   OH2 5526   2.684   4.316   5.041
 1862TIP3    H1 5527   2.647   4.374   4.974
 1862TIP3    H2 5528   2.767   4.357   5.065
 1863TIP3   OH2 5529   7.362  -0.031   5.983
 1863TIP3    H1 5530   7.458  -0.032   5.985
 1863TIP3    H2 5531   7.338   0.060   5.996
 1864TIP3   OH2 5532   5.513   0.199   0.109
 1864TIP3    H1 5533   5.551   0.118   0.143
 1864TIP3    H2 5534   5.436   0.171   0.060
 1865TIP3   OH2 5535   2.556   3.984   3.122
 1865TIP3    H1 5536   2.636   3.934   3.134
 1865TIP3    H2 5537   2.586   4.072   3.097
 1866TIP3   OH2 5538   0.401   2.981   6.588
 1866TIP3    H1 5539   0.380   3.017   6.501
 1866TIP3    H2 5540   0.316   2.954   6.623
 1867TIP3   OH2 5541   2.398   6.452   4.119
 1867TIP3    H1 5542   2.425   6.383   4.058
 1867TIP3    H2 5543   2.303   6.454   4.112
 1868TIP3   OH2 5544   4.051   5.654   6.068
 1868TIP3    H1 5545   3.958   5.660   6.048
 1868TIP3    H2 5546   4.069   5.732   6.120
 1869TIP3   OH2 5547   3.530   6.791   6.414
 1869TIP3    H1 5548   3.475   6.720   6.448
 1869TIP3    H2 5549   3.516   6.789   6.320
 1870TIP3   OH2 5550   4.910   4.069   0.854
 1870TIP3    H1 5551   4.896   3.974   0.856
 1870TIP3    H2 5552   5.002   4.080   0.878
 1871TIP3   OH2 5553   4.739   4.504   5.807
 1871TIP3    H1 5554   4.746   4.585   5.757
 1871TIP3    H2 5555   4.703   4.530   5.892
 1872TIP3   OH2 5556   1.210   2.577   2.983
 1872TIP3    H1 5557   1.280   2.584   3.048
 1872TIP3    H2 5558   1.253   2.594   2.899
 1873TIP3   OH2 5559   2.105   3.273   1.643
 1873TIP3    H1 5560   2.133   3.212   1.711
 1873TIP3    H2 5561   2.057   3.220   1.580
 1874TIP3   OH2 5562   3.723   2.455   3.506
 1874TIP3    H1 5563   3.631   2.450   3.483
 1874TIP3    H2 5564   3.724   2.473   3.600
 1875TIP3   OH2 5565   3.922   5.083   3.480
 1875TIP3    H1 5566   3.876   5.011   3.436
 1875TIP3    H2 5567   3.852   5.135   3.518
 1876TIP3   OH2 5568   3.982   4.234   1.675
 1876TIP3    H1 5569   4.065   4.198   1.705
 1876TIP3    H2 5570   3.951   4.288   1.748
 1877TIP3   OH2 5571   6.075   4.248   3.903
 1877TIP3    H1 5572   6.059   4.284   3.815
 1877TIP3    H2 5573   5.992   4.207   3.928
 1878TIP3   OH2 5574   0.180   2.890   6.211
 1878TIP3    H1 5575   0.112   2.930   6.265
 1878TIP3    H2 5576   0.134   2.850   6.138
 1879TIP3   OH2 5577   0.862   3.470   1.574
 1879TIP3    H1 5578   0.808   3.548   1.563
 1879TIP3    H2 5579   0.928   3.476   1.505
 1880TIP3   OH2 5580   1.253   0.557   1.309
 1880TIP3    H1 5581   1.245   0.481   1.366
 1880TIP3    H2 5582   1.281   0.628   1.366
 1881TIP3   OH2 5583   3.239   4.780   5.870
 1881TIP3    H1 5584   3.314   4.760   5.815
 1881TIP3    H2 5585   3.259   4.866   5.908
 1882TIP3   OH2 5586   3.169   3.669   1.466
 1882TIP3    H1 5587   3.091   3.614   1.456
 1882TIP3    H2 5588   3.151   3.724   1.542
 1883TIP3   OH2 5589   4.906   2.892   2.434
 1883TIP3    H1 5590   4.929   2.968   2.488
 1883TIP3    H2 5591   4.981   2.833   2.443
 1884TIP3   OH2 5592   2.512   7.821   0.909
 1884TIP3    H1 5593   2.574   7.823   0.837
 1884TIP3    H2 5594   2.523   7.906   0.952
 1885TIP3   OH2 5595   6.518   0.718   3.638
 1885TIP3    H1 5596   6.530   0.691   3.729
 1885TIP3    H2 5597   6.607   0.732   3.605
 1886TIP3   OH2 5598   0.697   4.637   4.282
 1886TIP3    H1 5599   0.791   4.653   4.273
 1886TIP3    H2 5600   0.683   4.630   4.376
 1887TIP3   OH2 5601   4.268   6.511   5.212
 1887TIP3    H1 5602   4.322   6.531   5.287
 1887TIP3    H2 5603   4.190   6.566   5.223
 1888TIP3   OH2 5604   2.234   3.171   4.942
 1888TIP3    H1 5605   2.192   3.228   5.007
 1888TIP3    H2 5606   2.272   3.100   4.993
 1889TIP3   OH2 5607   0.303   3.029   5.672
 1889TIP3    H1 5608   0.345   3.115   5.683
 1889TIP3    H2 5609   0.217   3.039   5.711
 1890TIP3   OH2 5610   7.671   7.726   5.356
 1890TIP3    H1 5611   7.611   7.699   5.286
 1890TIP3    H2 5612   7.751   7.676   5.339
 1891TIP3   OH2 5613   5.370   4.151   1.059
 1891TIP3    H1 5614   5.315   4.220   1.096
 1891TIP3    H2 5615   5.459   4.185   1.066
 1892TIP3   OH2 5616   4.462   2.656   0.673
 1892TIP3    H1 5617   4.482   2.631   0.582
 1892TIP3    H2 5618   4.400   2.589   0.703
 1893TIP3   OH2 5619   0.293   7.030   6.159
 1893TIP3    H1 5620   0.361   7.010   6.094
 1893TIP3    H2 5621   0.338   7.079   6.227
 1894TIP3   OH2 5622   0.023   1.083   3.223
 1894TIP3    H1 5623   0.074   1.149   3.269
 1894TIP3    H2 5624  -0.002   1.019   3.291
 1895TIP3   OH2 5625   3.694   1.703   5.332
 1895TIP3    H1 5626   3.783   1.688   5.301
 1895TIP3    H2 5627   3.701   1.702   5.427
 1896TIP3   OH2 5628   0.015   2.184   2.936
 1896TIP3    H1 5629   0.097   2.139   2.917
 1896TIP3    H2 5630  -0.052   2.116   2.933
 1897TIP3   OH2 5631   2.734   6.251   2.017
 1897TIP3    H1 5632   2.786   6.223   2.093
 1897TIP3    H2 5633   2.799   6.280   1.953
 1898TIP3   OH2 5634   1.292   2.846   4.138
 1898TIP3    H1 5635   1.307   2.939   4.152
 1898TIP3    H2 5636   1.304   2.807   4.225
 1899TIP3   OH2 5637   4.933   1.822   4.271
 1899TIP3    H1 5638   4.870   1.879   4.316
 1899TIP3    H2 5639   4.907   1.826   4.179
 1900TIP3   OH2 5640   7.944   2.315   1.113
 1900TIP3    H1 5641   7.918   2.371   1.040
 1900TIP3    H2 5642   7.980   2.376   1.178
 1901TIP3   OH2 5643   4.550   2.682   1.236
 1901TIP3    H1 5644   4.567   2.747   1.304
 1901TIP3    H2 5645   4.589   2.601   1.269
 1902TIP3   OH2 5646   1.958   5.740   5.994
 1902TIP3    H1 5647   2.035   5.760   6.047
 1902TIP3    H2 5648   1.984   5.665   5.940
 1903TIP3   OH2 5649   7.977   1.447   3.832
 1903TIP3    H1 5650   7.940   1.398   3.906
 1903TIP3    H2 5651   8.071   1.430   3.838
 1904TIP3   OH2 5652   5.815   4.836   2.468
 1904TIP3    H1 5653   5.809   4.923   2.429
 1904TIP3    H2 5654   5.850   4.851   2.556
 1905TIP3   OH2 5655   5.813   7.224   6.025
 1905TIP3    H1 5656   5.850   7.182   5.947
 1905TIP3    H2 5657   5.727   7.255   5.998
 1906TIP3   OH2 5658   6.963   0.908   2.772
 1906TIP3    H1 5659   7.051   0.945   2.766
 1906TIP3    H2 5660   6.967   0.847   2.846
 1907TIP3   OH2 5661   5.690   4.233   1.010
 1907TIP3    H1 5662   5.745   4.229   1.088
 1907TIP3    H2 5663   5.686   4.143   0.978
 1908TIP3   OH2 5664   8.186   2.070   3.403
 1908TIP3    H1 5665   8.185   1.974   3.408
 1908TIP3    H2 5666   8.279   2.092   3.396
 1909TIP3   OH2 5667   3.558   1.985   2.252
 1909TIP3    H1 5668   3.594   1.897   2.243
 1909TIP3    H2 5669   3.633   2.043   2.245
 1910TIP3   OH2 5670   5.677   6.843   5.086
 1910TIP3    H1 5671   5.671   6.932   5.120
 1910TIP3    H2 5672   5.764   6.813   5.113
 1911TIP3   OH2 5673   5.362   0.447   6.613
 1911TIP3    H1 5674   5.438   0.395   6.587
 1911TIP3    H2 5675   5.385   0.483   6.699
 1912TIP3   OH2 5676   7.842   7.470   5.532
 1912TIP3    H1 5677   7.841   7.562   5.558
 1912TIP3    H2 5678   7.897   7.467   5.453
 1913TIP3   OH2 5679   5.117   5.436   6.019
 1913TIP3    H1 5680   5.089   5.387   6.097
 1913TIP3    H2 5681   5.080   5.387   5.946
 1914TIP3   OH2 5682   6.407   3.355   4.493
 1914TIP3    H1 5683   6.332   3.380   4.547
 1914TIP3    H2 5684   6.467   3.429   4.498
 1915TIP3   OH2 5685   3.146   3.729   6.300
 1915TIP3    H1 5686   3.229   3.751   6.344
 1915TIP3    H2 5687   3.130   3.638   6.322
 1916TIP3   OH2 5688   6.326   1.610   6.516
 1916TIP3    H1 5689   6.258   1.548   6.542
 1916TIP3    H2 5690   6.292   1.695   6.542
 1917TIP3   OH2 5691   3.370   2.036   3.363
 1917TIP3    H1 5692   3.310   2.102   3.329
 1917TIP3    H2 5693   3.315   1.976   3.412
 1918TIP3   OH2 5694   7.378   6.206   0.877
 1918TIP3    H1 5695   7.363   6.213   0.971
 1918TIP3    H2 5696   7.322   6.273   0.838
 1919TIP3   OH2 5697   8.333   5.430   2.589
 1919TIP3    H1 5698   8.273   5.411   2.661
 1919TIP3    H2 5699   8.283   5.411   2.510
 1920TIP3   OH2 5700   0.778   5.427   2.858
 1920TIP3    H1 5701   0.842   5.415   2.927
 1920TIP3    H2 5702   0.772   5.342   2.814
 1921TIP3   OH2 5703   2.227   5.360   4.000
 1921TIP3    H1 5704   2.321   5.378   4.006
 1921TIP3    H2 5705   2.202   5.394   3.915
 1922TIP3   OH2 5706   1.966   3.740   5.457
 1922TIP3    H1 5707   1.992   3.832   5.460
 1922TIP3    H2 5708   1.882   3.737   5.504
 1923TIP3   OH2 5709   4.612   3.649   3.608
 1923TIP3    H1 5710   4.626   3.724   3.550
 1923TIP3    H2 5711   4.531   3.608   3.575
 1924TIP3   OH2 5712   1.889   3.843   4.373
 1924TIP3    H1 5713   1.901   3.893   4.454
 1924TIP3    H2 5714   1.795   3.849   4.356
 1925TIP3   OH2 5715   5.076   1.779   0.759
 1925TIP3    H1 5716   5.062   1.829   0.839
 1925TIP3    H2 5717   4.994   1.733   0.744
 1926TIP3   OH2 5718   6.434   3.485   6.136
 1926TIP3    H1 5719   6.473   3.415   6.083
 1926TIP3    H2 5720   6.351   3.448   6.167
 1927TIP3   OH2 5721   7.823   2.954   6.551
 1927TIP3    H1 5722   7.853   2.906   6.474
 1927TIP3    H2 5723   7.858   2.906   6.625
 1928TIP3   OH2 5724   4.803   0.146   4.940
 1928TIP3    H1 5725   4.708   0.139   4.946
 1928TIP3    H2 5726   4.831   0.061   4.905
 1929TIP3   OH2 5727   6.312   2.153   2.378
 1929TIP3    H1 5728   6.336   2.104   2.456
 1929TIP3    H2 5729   6.253   2.096   2.330
 1930TIP3   OH2 5730   1.903   2.759   0.179
 1930TIP3    H1 5731   1.844   2.790   0.111
 1930TIP3    H2 5732   1.852   2.763   0.260
 1931TIP3   OH2 5733   6.303   6.180   4.479
 1931TIP3    H1 5734   6.304   6.102   4.423
 1931TIP3    H2 5735   6.272   6.250   4.422
 1932TIP3   OH2 5736   1.818   5.434   2.552
 1932TIP3    H1 5737   1.808   5.474   2.638
 1932TIP3    H2 5738   1.786   5.500   2.491
 1933TIP3   OH2 5739   2.429   4.779   2.607
 1933TIP3    H1 5740   2.468   4.766   2.521
 1933TIP3    H2 5741   2.336   4.790   2.589
 1934TIP3   OH2 5742   5.260   3.720   2.693
 1934TIP3    H1 5743   5.307   3.637   2.679
 1934TIP3    H2 5744   5.204   3.703   2.769
 1935TIP3   OH2 5745   1.789   6.777   3.846
 1935TIP3    H1 5746   1.834   6.849   3.890
 1935TIP3    H2 5747   1.858   6.725   3.806
 1936TIP3   OH2 5748   6.476   0.927   0.039
 1936TIP3    H1 5749   6.461   0.838   0.070
 1936TIP3    H2 5750   6.416   0.981   0.092
 1937TIP3   OH2 5751   8.162   6.203   2.321
 1937TIP3    H1 5752   8.088   6.175   2.267
 1937TIP3    H2 5753   8.238   6.200   2.262
 1938TIP3   OH2 5754   6.520   3.825   4.143
 1938TIP3    H1 5755   6.437   3.802   4.103
 1938TIP3    H2 5756   6.554   3.897   4.090
 1939TIP3   OH2 5757   2.705   0.506   4.583
 1939TIP3    H1 5758   2.691   0.548   4.499
 1939TIP3    H2 5759   2.739   0.575   4.640
 1940TIP3   OH2 5760   0.290   6.492   1.651
 1940TIP3    H1 5761   0.308   6.549   1.725
 1940TIP3    H2 5762   0.271   6.407   1.690
 1941TIP3   OH2 5763   0.752   4.200   2.064
 1941TIP3    H1 5764   0.800   4.250   1.998
 1941TIP3    H2 5765   0.663   4.234   2.060
 1942TIP3   OH2 5766   2.399   1.758   2.914
 1942TIP3    H1 5767   2.417   1.732   2.824
 1942TIP3    H2 5768   2.353   1.842   2.906
 1943TIP3   OH2 5769   0.935   2.313   3.127
 1943TIP3    H1 5770   0.944   2.376   3.198
 1943TIP3    H2 5771   0.932   2.366   3.047
 1944TIP3   OH2 5772   0.124   4.114   5.846
 1944TIP3    H1 5773   0.097   4.063   5.923
 1944TIP3    H2 5774   0.077   4.074   5.773
 1945TIP3   OH2 5775   0.407   7.081   2.811
 1945TIP3    H1 5776   0.424   7.102   2.720
 1945TIP3    H2 5777   0.396   6.986   2.813
 1946TIP3   OH2 5778   6.246   4.768   1.975
 1946TIP3    H1 5779   6.173   4.715   1.941
 1946TIP3    H2 5780   6.257   4.838   1.911
 1947TIP3   OH2 5781   0.219   4.699   4.391
 1947TIP3    H1 5782   0.263   4.785   4.388
 1947TIP3    H2 5783   0.153   4.705   4.322
 1948TIP3   OH2 5784   6.653   1.956   3.542
 1948TIP3    H1 5785   6.604   2.022   3.591
 1948TIP3    H2 5786   6.633   1.975   3.450
 1949TIP3   OH2 5787   3.272   0.629   6.668
 1949TIP3    H1 5788   3.267   0.596   6.758
 1949TIP3    H2 5789   3.285   0.550   6.615
 1950TIP3   OH2 5790   1.196   6.291   4.171
 1950TIP3    H1 5791   1.180   6.260   4.260
 1950TIP3    H2 5792   1.159   6.224   4.115
 1951TIP3   OH2 5793   3.812   3.383   1.782
 1951TIP3    H1 5794   3.810   3.479   1.786
 1951TIP3    H2 5795   3.904   3.360   1.790
 1952TIP3   OH2 5796   6.381   5.258   0.383
 1952TIP3    H1 5797   6.361   5.186   0.323
 1952TIP3    H2 5798   6.309   5.259   0.445
 1953TIP3   OH2 5799   0.186   4.165   6.846
 1953TIP3    H1 5800   0.093   4.151   6.858
 1953TIP3    H2 5801   0.201   4.150   6.752
 1954TIP3   OH2 5802   7.199   5.152   1.570
 1954TIP3    H1 5803   7.279   5.099   1.575
 1954TIP3    H2 5804   7.211   5.220   1.635
 1955TIP3   OH2 5805   3.632   5.911   2.223
 1955TIP3    H1 5806   3.720   5.904   2.186
 1955TIP3    H2 5807   3.598   5.822   2.223
 1956TIP3   OH2 5808   4.674   0.928   1.924
 1956TIP3    H1 5809   4.744   0.900   1.983
 1956TIP3    H2 5810   4.718   0.972   1.852
 1957TIP3   OH2 5811   6.494   4.467   0.112
 1957TIP3    H1 5812   6.502   4.399   0.046
 1957TIP3    H2 5813   6.564   4.530   0.090
 1958TIP3   OH2 5814   7.603   3.626   2.042
 1958TIP3    H1 5815   7.618   3.586   2.128
 1958TIP3    H2 5816   7.551   3.704   2.061
 1959TIP3   OH2 5817   1.161   1.235   2.004
 1959TIP3    H1 5818   1.093   1.236   1.937
 1959TIP3    H2 5819   1.219   1.308   1.980
 1960TIP3   OH2 5820   4.563   4.316   0.432
 1960TIP3    H1 5821   4.546   4.246   0.369
 1960TIP3    H2 5822   4.522   4.394   0.393
 1961TIP3   OH2 5823   7.305   7.562   4.073
 1961TIP3    H1 5824   7.311   7.564   3.978
 1961TIP3    H2 5825   7.248   7.487   4.092
 1962TIP3   OH2 5826   3.091   3.209   6.349
 1962TIP3    H1 5827   3.099   3.241   6.259
 1962TIP3    H2 5828   3.019   3.146   6.346
 1963TIP3   OH2 5829   0.855   7.042   2.396
 1963TIP3    H1 5830   0.855   7.101   2.472
 1963TIP3    H2 5831   0.822   6.959   2.431
 1964TIP3   OH2 5832   0.861   2.336   0.519
 1964TIP3    H1 5833   0.897   2.389   0.448
 1964TIP3    H2 5834   0.923   2.263   0.528
 1965TIP3   OH2 5835   4.608   7.723   5.046
 1965TIP3    H1 5836   4.552   7.656   5.006
 1965TIP3    H2 5837   4.549   7.794   5.070
 1966TIP3   OH2 5838   6.164   7.598   6.532
 1966TIP3    H1 5839   6.182   7.540   6.458
 1966TIP3    H2 5840   6.179   7.686   6.498
 1967TIP3   OH2 5841   5.354   1.252   2.732
 1967TIP3    H1 5842   5.351   1.326   2.792
 1967TIP3    H2 5843   5.408   1.187   2.776
 1968TIP3   OH2 5844   7.136   4.779   2.649
 1968TIP3    H1 5845   7.142   4.694   2.693
 1968TIP3    H2 5846   7.207   4.777   2.584
 1969TIP3   OH2 5847   5.110   4.183   3.553
 1969TIP3    H1 5848   5.046   4.254   3.546
 1969TIP3    H2 5849   5.097   4.149   3.642
 1970TIP3   OH2 5850   2.348   3.969   2.160
 1970TIP3    H1 5851   2.325   4.011   2.077
 1970TIP3    H2 5852   2.269   3.920   2.184
 1971TIP3   OH2 5853   5.450   4.024   6.401
 1971TIP3    H1 5854   5.470   3.931   6.395
 1971TIP3    H2 5855   5.436   4.052   6.310
 1972TIP3   OH2 5856   7.822   3.397   1.104
 1972TIP3    H1 5857   7.726   3.392   1.113
 1972TIP3    H2 5858   7.855   3.336   1.171
 1973TIP3   OH2 5859   2.930   4.223   6.599
 1973TIP3    H1 5860   2.982   4.181   6.668
 1973TIP3    H2 5861   2.957   4.315   6.602
 1974TIP3   OH2 5862   3.798   0.694   3.929
 1974TIP3    H1 5863   3.767   0.736   3.849
 1974TIP3    H2 5864   3.725   0.639   3.958
 1975TIP3   OH2 5865   0.481   0.400   1.071
 1975TIP3    H1 5866   0.488   0.494   1.088
 1975TIP3    H2 5867   0.514   0.358   1.150
 1976TIP3   OH2 5868   3.633   2.589   1.917
 1976TIP3    H1 5869   3.633   2.680   1.886
 1976TIP3    H2 5870   3.710   2.582   1.972
 1977TIP3   OH2 5871   3.842   6.331   3.497
 1977TIP3    H1 5872   3.929   6.369   3.492
 1977TIP3    H2 5873   3.787   6.401   3.531
 1978TIP3   OH2 5874   5.040   3.474   0.123
 1978TIP3    H1 5875   4.982   3.488   0.198
 1978TIP3    H2 5876   5.074   3.561   0.102
 1979TIP3   OH2 5877   2.102   6.521   2.679
 1979TIP3    H1 5878   2.158   6.531   2.756
 1979TIP3    H2 5879   2.051   6.602   2.675
 1980TIP3   OH2 5880   6.809   0.569   1.360
 1980TIP3    H1 5881   6.773   0.627   1.427
 1980TIP3    H2 5882   6.832   0.627   1.288
 1981TIP3   OH2 5883   5.715   5.154   5.990
 1981TIP3    H1 5884   5.656   5.100   6.041
 1981TIP3    H2 5885   5.682   5.244   6.001
 1982TIP3   OH2 5886   7.648   1.648   3.001
 1982TIP3    H1 5887   7.591   1.634   2.926
 1982TIP3    H2 5888   7.659   1.561   3.040
 1983TIP3   OH2 5889   1.988   4.914   0.091
 1983TIP3    H1 5890   1.979   4.894   0.184
 1983TIP3    H2 5891   2.078   4.890   0.069
 1984TIP3   OH2 5892   1.568   3.673   4.363
 1984TIP3    H1 5893   1.532   3.603   4.417
 1984TIP3    H2 5894   1.544   3.753   4.408
 1985TIP3   OH2 5895   3.145   0.827   1.503
 1985TIP3    H1 5896   3.225   0.818   1.555
 1985TIP3    H2 5897   3.082   0.767   1.545
 1986TIP3   OH2 5898   4.509   7.074   1.744
 1986TIP3    H1 5899   4.535   7.163   1.767
 1986TIP3    H2 5900   4.417   7.082   1.718
 1987TIP3   OH2 5901   5.629   4.622   6.682
 1987TIP3    H1 5902   5.698   4.590   6.740
 1987TIP3    H2 5903   5.659   4.600   6.594
 1988TIP3   OH2 5904   6.044   1.594   5.583
 1988TIP3    H1 5905   6.090   1.511   5.595
 1988TIP3    H2 5906   6.008   1.589   5.495
 1989TIP3   OH2 5907   3.489   3.535   2.838
 1989TIP3    H1 5908   3.450   3.448   2.843
 1989TIP3    H2 5909   3.569   3.530   2.890
 1990TIP3   OH2 5910   7.529   5.292   6.087
 1990TIP3    H1 5911   7.577   5.292   6.169
 1990TIP3    H2 5912   7.527   5.200   6.060
 1991TIP3   OH2 5913   8.011   4.076   1.945
 1991TIP3    H1 5914   8.013   4.154   2.000
 1991TIP3    H2 5915   7.994   4.004   2.005
 1992TIP3   OH2 5916   1.020   4.422   4.255
 1992TIP3    H1 5917   1.021   4.510   4.292
 1992TIP3    H2 5918   1.022   4.436   4.160
 1993TIP3   OH2 5919   8.411   1.419   4.922
 1993TIP3    H1 5920   8.420   1.490   4.985
 1993TIP3    H2 5921   8.336   1.443   4.869
 1994TIP3   OH2 5922   2.228   4.526   3.907
 1994TIP3    H1 5923   2.139   4.537   3.940
 1994TIP3    H2 5924   2.251   4.612   3.873
 1995TIP3   OH2 5925   7.410   1.070   2.010
 1995TIP3    H1 5926   7.424   1.164   2.006
 1995TIP3    H2 5927   7.443   1.037   1.926
 1996TIP3   OH2 5928   3.845   5.167   0.371
 1996TIP3    H1 5929   3.910   5.161   0.301
 1996TIP3    H2 5930   3.871   5.100   0.434
 1997TIP3   OH2 5931   0.187   0.094   2.457
 1997TIP3    H1 5932   0.261   0.136   2.500
 1997TIP3    H2 5933   0.180   0.008   2.499
 1998TIP3   OH2 5934   7.154   3.780   0.348
 1998TIP3    H1 5935   7.200   3.758   0.267
 1998TIP3    H2 5936   7.062   3.783   0.323
 1999TIP3   OH2 5937   8.130   5.822   1.098
 1999TIP3    H1 5938   8.059   5.815   1.035
 1999TIP3    H2 5939   8.207   5.841   1.045
 2000TIP3   OH2 5940   4.894   2.472   1.805
 2000TIP3    H1 5941   4.935   2.555   1.784
 2000TIP3    H2 5942   4.960   2.424   1.855
 2001TIP3   OH2 5943   5.049   6.479   5.332
 2001TIP3    H1 5944   4.991   6.498   5.406
 2001TIP3    H2 5945   5.042   6.558   5.277
 2002TIP3   OH2 5946   7.514   7.399   2.329
 2002TIP3    H1 5947   7.425   7.364   2.325
 2002TIP3    H2 5948   7.525   7.426   2.420
 2003TIP3   OH2 5949   4.457   7.826   1.978
 2003TIP3    H1 5950   4.422   7.741   1.953
 2003TIP3    H2 5951   4.550   7.821   1.955
 2004TIP3   OH2 5952   5.883   1.593   6.288
 2004TIP3    H1 5953   5.807   1.627   6.334
 2004TIP3    H2 5954   5.917   1.668   6.238
 2005TIP3   OH2 5955   0.903   6.728   3.326
 2005TIP3    H1 5956   0.933   6.816   3.301
 2005TIP3    H2 5957   0.856   6.696   3.250
 2006TIP3   OH2 5958   5.335   7.916   5.232
 2006TIP3    H1 5959   5.279   7.923   5.309
 2006TIP3    H2 5960   5.329   7.825   5.205
 2007TIP3   OH2 5961   7.930   5.358   0.189
 2007TIP3    H1 5962   7.905   5.266   0.187
 2007TIP3    H2 5963   7.959   5.373   0.279
 2008TIP3   OH2 5964   8.076   2.375   6.600
 2008TIP3    H1 5965   8.058   2.293   6.554
 2008TIP3    H2 5966   8.114   2.347   6.684
 2009TIP3   OH2 5967   4.034   1.599   1.161
 2009TIP3    H1 5968   4.094   1.527   1.181
 2009TIP3    H2 5969   4.079   1.649   1.093
 2010TIP3   OH2 5970   1.556   1.904   3.715
 2010TIP3    H1 5971   1.467   1.920   3.683
 2010TIP3    H2 5972   1.576   1.815   3.687
 2011TIP3   OH2 5973   4.007   0.539   2.765
 2011TIP3    H1 5974   3.980   0.485   2.840
 2011TIP3    H2 5975   4.085   0.494   2.731
 2012TIP3   OH2 5976   5.664   7.063   0.117
 2012TIP3    H1 5977   5.674   7.021   0.203
 2012TIP3    H2 5978   5.732   7.023   0.063
 2013TIP3   OH2 5979   3.221   4.656   2.619
 2013TIP3    H1 5980   3.314   4.680   2.618
 2013TIP3    H2 5981   3.214   4.589   2.686
 2014TIP3   OH2 5982   2.714   6.347   5.114
 2014TIP3    H1 5983   2.790   6.324   5.167
 2014TIP3    H2 5984   2.643   6.357   5.177
 2015TIP3   OH2 5985   4.500   7.095   4.039
 2015TIP3    H1 5986   4.424   7.042   4.017
 2015TIP3    H2 5987   4.563   7.078   3.968
 2016TIP3   OH2 5988   7.613   0.352   6.064
 2016TIP3    H1 5989   7.563   0.351   6.146
 2016TIP3    H2 5990   7.696   0.310   6.086
 2017TIP3   OH2 5991   7.330   0.590   0.551
 2017TIP3    H1 5992   7.342   0.677   0.589
 2017TIP3    H2 5993   7.331   0.530   0.626
 2018TIP3   OH2 5994   6.908   6.647   5.870
 2018TIP3    H1 5995   6.854   6.712   5.915
 2018TIP3    H2 5996   6.874   6.563   5.901
 2019TIP3   OH2 5997   3.638   7.760   4.378
 2019TIP3    H1 5998   3.593   7.675   4.385
 2019TIP3    H2 5999   3.689   7.753   4.297
 2020TIP3   OH2 6000   4.472   0.600   4.728
 2020TIP3    H1 6001   4.409   0.639   4.789
 2020TIP3    H2 6002   4.533   0.670   4.708
 2021TIP3   OH2 6003   5.339   4.135   2.799
 2021TIP3    H1 6004   5.355   4.106   2.709
 2021TIP3    H2 6005   5.422   4.121   2.844
 2022TIP3   OH2 6006   1.714   4.379   4.358
 2022TIP3    H1 6007   1.636   4.326   4.341
 2022TIP3    H2 6008   1.705   4.405   4.450
 2023TIP3   OH2 6009   7.849   3.540   4.881
 2023TIP3    H1 6010   7.802   3.551   4.798
 2023TIP3    H2 6011   7.922   3.482   4.860
 2024TIP3   OH2 6012   0.625   3.538   1.997
 2024TIP3    H1 6013   0.706   3.583   2.023
 2024TIP3    H2 6014   0.635   3.449   2.032
 2025TIP3   OH2 6015   4.812   3.875   5.483
 2025TIP3    H1 6016   4.803   3.791   5.528
 2025TIP3    H2 6017   4.906   3.886   5.471
 2026TIP3   OH2 6018   4.204   2.160   2.023
 2026TIP3    H1 6019   4.167   2.113   1.949
 2026TIP3    H2 6020   4.137   2.225   2.047
 2027TIP3   OH2 6021   1.308   6.390   4.864
 2027TIP3    H1 6022   1.357   6.341   4.930
 2027TIP3    H2 6023   1.325   6.482   4.886
 2028TIP3   OH2 6024   7.029   0.468   0.408
 2028TIP3    H1 6025   7.079   0.400   0.453
 2028TIP3    H2 6026   6.956   0.487   0.467
 2029TIP3   OH2 6027   0.687   7.608   2.155
 2029TIP3    H1 6028   0.600   7.648   2.150
 2029TIP3    H2 6029   0.744   7.678   2.185
 2030TIP3   OH2 6030   6.892   2.127   0.816
 2030TIP3    H1 6031   6.852   2.083   0.741
 2030TIP3    H2 6032   6.870   2.071   0.891
 2031TIP3   OH2 6033   3.471   1.245   3.902
 2031TIP3    H1 6034   3.428   1.182   3.959
 2031TIP3    H2 6035   3.490   1.320   3.959
 2032TIP3   OH2 6036   3.523   3.777   2.390
 2032TIP3    H1 6037   3.558   3.856   2.432
 2032TIP3    H2 6038   3.517   3.713   2.461
 2033TIP3   OH2 6039   4.536   4.100   3.233
 2033TIP3    H1 6040   4.491   4.016   3.226
 2033TIP3    H2 6041   4.493   4.156   3.168
 2034TIP3   OH2 6042   3.623   1.724   4.360
 2034TIP3    H1 6043   3.632   1.704   4.267
 2034TIP3    H2 6044   3.654   1.645   4.405
 2035TIP3   OH2 6045   0.180   2.828   0.440
 2035TIP3    H1 6046   0.169   2.854   0.349
 2035TIP3    H2 6047   0.093   2.837   0.478
 2036TIP3   OH2 6048   3.398   4.545   0.959
 2036TIP3    H1 6049   3.429   4.626   0.917
 2036TIP3    H2 6050   3.325   4.574   1.014
 2037TIP3   OH2 6051   6.043   1.989   2.925
 2037TIP3    H1 6052   6.058   1.904   2.884
 2037TIP3    H2 6053   5.957   2.018   2.893
 2038TIP3   OH2 6054   0.430   7.396   4.714
 2038TIP3    H1 6055   0.505   7.353   4.756
 2038TIP3    H2 6056   0.397   7.331   4.653
 2039TIP3   OH2 6057   4.099   0.248   3.920
 2039TIP3    H1 6058   4.044   0.312   3.875
 2039TIP3    H2 6059   4.045   0.169   3.923
 2040TIP3   OH2 6060   8.395   5.919   2.145
 2040TIP3    H1 6061   8.407   5.848   2.081
 2040TIP3    H2 6062   8.484   5.942   2.172
 2041TIP3   OH2 6063   3.807   6.125   3.722
 2041TIP3    H1 6064   3.716   6.099   3.732
 2041TIP3    H2 6065   3.806   6.188   3.650
 2042TIP3   OH2 6066   2.042   5.437   0.718
 2042TIP3    H1 6067   2.081   5.524   0.719
 2042TIP3    H2 6068   2.086   5.390   0.788
 2043TIP3   OH2 6069   3.804   1.242   4.586
 2043TIP3    H1 6070   3.812   1.276   4.675
 2043TIP3    H2 6071   3.888   1.200   4.568
 2044TIP3   OH2 6072   0.337   0.688   1.632
 2044TIP3    H1 6073   0.246   0.659   1.623
 2044TIP3    H2 6074   0.370   0.642   1.709
 2045TIP3   OH2 6075   7.133   7.335   6.599
 2045TIP3    H1 6076   7.200   7.308   6.536
 2045TIP3    H2 6077   7.163   7.300   6.683
 2046TIP3   OH2 6078   6.891   6.835   3.903
 2046TIP3    H1 6079   6.910   6.842   3.996
 2046TIP3    H2 6080   6.797   6.822   3.898
 2047TIP3   OH2 6081   7.749   6.246   2.017
 2047TIP3    H1 6082   7.720   6.335   1.995
 2047TIP3    H2 6083   7.674   6.191   1.992
 2048TIP3   OH2 6084   7.450   3.652   6.135
 2048TIP3    H1 6085   7.360   3.655   6.168
 2048TIP3    H2 6086   7.457   3.567   6.093
 2049TIP3   OH2 6087   0.506   0.583   6.517
 2049TIP3    H1 6088   0.595   0.604   6.547
 2049TIP3    H2 6089   0.453   0.656   6.550
 2050TIP3   OH2 6090   3.598   2.395   4.269
 2050TIP3    H1 6091   3.524   2.405   4.209
 2050TIP3    H2 6092   3.659   2.337   4.222
 2051TIP3   OH2 6093   3.015   0.674   2.982
 2051TIP3    H1 6094   3.059   0.759   2.983
 2051TIP3    H2 6095   2.970   0.670   3.066
 2052TIP3   OH2 6096   6.809   2.235   2.198
 2052TIP3    H1 6097   6.866   2.252   2.124
 2052TIP3    H2 6098   6.868   2.206   2.268
 2053TIP3   OH2 6099   1.823   3.761   6.146
 2053TIP3    H1 6100   1.853   3.820   6.076
 2053TIP3    H2 6101   1.884   3.687   6.144
 2054TIP3   OH2 6102   7.061   1.906   3.743
 2054TIP3    H1 6103   7.118   1.831   3.726
 2054TIP3    H2 6104   7.032   1.893   3.834
 2055TIP3   OH2 6105   3.639   3.519   0.468
 2055TIP3    H1 6106   3.704   3.450   0.451
 2055TIP3    H2 6107   3.555   3.473   0.471
 2056TIP3   OH2 6108   3.348   1.841   0.279
 2056TIP3    H1 6109   3.342   1.761   0.331
 2056TIP3    H2 6110   3.305   1.908   0.332
 2057TIP3   OH2 6111   3.684   7.356   6.730
 2057TIP3    H1 6112   3.634   7.346   6.649
 2057TIP3    H2 6113   3.769   7.390   6.702
 2058TIP3   OH2 6114   8.459   5.007   2.835
 2058TIP3    H1 6115   8.387   4.991   2.774
 2058TIP3    H2 6116   8.432   5.085   2.883
 2059TIP3   OH2 6117   8.262   4.646   1.155
 2059TIP3    H1 6118   8.203   4.595   1.211
 2059TIP3    H2 6119   8.294   4.583   1.091
 2060TIP3   OH2 6120   1.162   4.524   2.997
 2060TIP3    H1 6121   1.234   4.475   2.957
 2060TIP3    H2 6122   1.173   4.613   2.964
 2061TIP3   OH2 6123   2.029   2.394   6.568
 2061TIP3    H1 6124   2.121   2.389   6.593
 2061TIP3    H2 6125   1.985   2.331   6.625
 2062TIP3   OH2 6126   1.917   0.817   0.211
 2062TIP3    H1 6127   1.825   0.814   0.187
 2062TIP3    H2 6128   1.937   0.910   0.219
 2063TIP3   OH2 6129   4.857   6.984   3.116
 2063TIP3    H1 6130   4.854   6.962   3.209
 2063TIP3    H2 6131   4.884   7.076   3.115
 2064TIP3   OH2 6132   7.222   0.980   2.750
 2064TIP3    H1 6133   7.199   1.068   2.718
 2064TIP3    H2 6134   7.307   0.992   2.792
 2065TIP3   OH2 6135   3.900   4.648   1.824
 2065TIP3    H1 6136   3.877   4.559   1.850
 2065TIP3    H2 6137   3.985   4.640   1.781
 2066TIP3   OH2 6138   0.543   6.271   2.006
 2066TIP3    H1 6139   0.493   6.190   1.998
 2066TIP3    H2 6140   0.622   6.245   2.054
 2067TIP3   OH2 6141   2.268   1.989   1.065
 2067TIP3    H1 6142   2.198   2.030   1.116
 2067TIP3    H2 6143   2.320   1.941   1.129
 2068TIP3   OH2 6144   2.789   4.793   5.165
 2068TIP3    H1 6145   2.765   4.885   5.151
 2068TIP3    H2 6146   2.713   4.743   5.134
 2069TIP3   OH2 6147   3.386   3.832   0.996
 2069TIP3    H1 6148   3.469   3.876   1.013
 2069TIP3    H2 6149   3.362   3.793   1.080
 2070TIP3   OH2 6150   7.342   0.766   5.173
 2070TIP3    H1 6151   7.337   0.680   5.213
 2070TIP3    H2 6152   7.391   0.752   5.091
 2071TIP3   OH2 6153   2.016   0.734   4.395
 2071TIP3    H1 6154   2.088   0.796   4.408
 2071TIP3    H2 6155   2.056   0.648   4.407
 2072TIP3   OH2 6156   2.797   3.139   6.531
 2072TIP3    H1 6157   2.850   3.107   6.457
 2072TIP3    H2 6158   2.857   3.140   6.605
 2073TIP3   OH2 6159   5.070   3.045   6.327
 2073TIP3    H1 6160   5.065   3.003   6.241
 2073TIP3    H2 6161   5.004   3.114   6.324
 2074TIP3   OH2 6162   4.810   5.614   6.527
 2074TIP3    H1 6163   4.733   5.666   6.550
 2074TIP3    H2 6164   4.807   5.539   6.587
 2075TIP3   OH2 6165   5.427   6.239   0.765
 2075TIP3    H1 6166   5.520   6.263   0.767
 2075TIP3    H2 6167   5.417   6.176   0.836
 2076TIP3   OH2 6168   3.115   5.339   4.217
 2076TIP3    H1 6169   3.088   5.355   4.307
 2076TIP3    H2 6170   3.079   5.412   4.167
 2077TIP3   OH2 6171   4.584   0.267   2.220
 2077TIP3    H1 6172   4.660   0.248   2.163
 2077TIP3    H2 6173   4.508   0.256   2.162
 2078TIP3   OH2 6174   6.770   4.072   1.835
 2078TIP3    H1 6175   6.769   4.128   1.912
 2078TIP3    H2 6176   6.858   4.083   1.798
 2079TIP3   OH2 6177   0.632   7.059   4.585
 2079TIP3    H1 6178   0.590   7.096   4.508
 2079TIP3    H2 6179   0.573   6.988   4.613
 2080TIP3   OH2 6180   1.445   7.092   4.021
 2080TIP3    H1 6181   1.474   7.076   4.111
 2080TIP3    H2 6182   1.357   7.129   4.031
 2081TIP3   OH2 6183   5.923   7.165   6.257
 2081TIP3    H1 6184   5.850   7.119   6.298
 2081TIP3    H2 6185   5.889   7.195   6.173
 2082TIP3   OH2 6186   0.787   4.570   3.013
 2082TIP3    H1 6187   0.829   4.563   3.099
 2082TIP3    H2 6188   0.760   4.480   2.992
 2083TIP3   OH2 6189   0.876   1.154   6.495
 2083TIP3    H1 6190   0.834   1.237   6.517
 2083TIP3    H2 6191   0.808   1.105   6.448
 2084TIP3   OH2 6192  -0.033   5.459   3.297
 2084TIP3    H1 6193  -0.071   5.407   3.368
 2084TIP3    H2 6194   0.060   5.439   3.300
 2085TIP3   OH2 6195   2.222   6.152   3.248
 2085TIP3    H1 6196   2.196   6.228   3.195
 2085TIP3    H2 6197   2.255   6.190   3.329
 2086TIP3   OH2 6198   3.022   5.978   0.680
 2086TIP3    H1 6199   2.953   6.039   0.651
 2086TIP3    H2 6200   3.014   5.978   0.776
 2087TIP3   OH2 6201   8.088   2.489   2.725
 2087TIP3    H1 6202   8.163   2.434   2.746
 2087TIP3    H2 6203   8.059   2.457   2.640
 2088TIP3   OH2 6204   2.262   3.930   1.496
 2088TIP3    H1 6205   2.263   3.834   1.494
 2088TIP3    H2 6206   2.203   3.954   1.425
 2089TIP3   OH2 6207   3.191   4.691   2.355
 2089TIP3    H1 6208   3.120   4.633   2.327
 2089TIP3    H2 6209   3.196   4.679   2.450
 2090TIP3   OH2 6210   7.882   6.437   3.893
 2090TIP3    H1 6211   7.900   6.447   3.800
 2090TIP3    H2 6212   7.916   6.350   3.915
 2091TIP3   OH2 6213   3.765   5.560   6.510
 2091TIP3    H1 6214   3.789   5.467   6.509
 2091TIP3    H2 6215   3.684   5.564   6.561
 2092TIP3   OH2 6216   4.340   2.756   6.031
 2092TIP3    H1 6217   4.372   2.714   5.952
 2092TIP3    H2 6218   4.419   2.776   6.082
 2093TIP3   OH2 6219   3.397   3.422   0.488
 2093TIP3    H1 6220   3.337   3.496   0.475
 2093TIP3    H2 6221   3.344   3.345   0.469
 2094TIP3   OH2 6222   3.616   5.948   3.536
 2094TIP3    H1 6223   3.635   5.994   3.455
 2094TIP3    H2 6224   3.529   5.978   3.562
 2095TIP3   OH2 6225   7.400   2.972   3.434
 2095TIP3    H1 6226   7.434   3.003   3.517
 2095TIP3    H2 6227   7.436   2.884   3.425
 2096TIP3   OH2 6228   8.044   3.861   2.325
 2096TIP3    H1 6229   8.044   3.815   2.241
 2096TIP3    H2 6230   8.052   3.792   2.391
 2097TIP3   OH2 6231   7.901   2.360   6.244
 2097TIP3    H1 6232   7.904   2.342   6.150
 2097TIP3    H2 6233   7.988   2.394   6.265
 2098TIP3   OH2 6234   5.458   0.737   0.225
 2098TIP3    H1 6235   5.413   0.690   0.156
 2098TIP3    H2 6236   5.491   0.668   0.283
 2099TIP3   OH2 6237   5.471   3.122   2.068
 2099TIP3    H1 6238   5.422   3.063   2.125
 2099TIP3    H2 6239   5.415   3.200   2.061
 2100TIP3   OH2 6240   4.947   1.847   5.398
 2100TIP3    H1 6241   4.944   1.791   5.475
 2100TIP3    H2 6242   4.943   1.787   5.324
 2101TIP3   OH2 6243   8.159   6.872   4.004
 2101TIP3    H1 6244   8.126   6.785   3.983
 2101TIP3    H2 6245   8.176   6.912   3.919
 2102TIP3   OH2 6246   2.960   4.930   1.340
 2102TIP3    H1 6247   2.920   4.979   1.412
 2102TIP3    H2 6248   3.014   4.864   1.382
 2103TIP3   OH2 6249   3.193   7.001   2.019
 2103TIP3    H1 6250   3.141   7.076   1.990
 2103TIP3    H2 6251   3.128   6.934   2.041
 2104TIP3   OH2 6252   0.790   3.193   2.889
 2104TIP3    H1 6253   0.738   3.216   2.966
 2104TIP3    H2 6254   0.880   3.187   2.921
 2105TIP3   OH2 6255   8.311   3.381   0.695
 2105TIP3    H1 6256   8.321   3.438   0.619
 2105TIP3    H2 6257   8.216   3.371   0.705
 2106TIP3   OH2 6258   0.541   0.060   6.858
 2106TIP3    H1 6259   0.564   0.002   6.930
 2106TIP3    H2 6260   0.553   0.007   6.779
 2107TIP3   OH2 6261   7.175   7.031   5.553
 2107TIP3    H1 6262   7.136   6.945   5.539
 2107TIP3    H2 6263   7.183   7.069   5.466
 2108TIP3   OH2 6264   4.284   2.585   4.990
 2108TIP3    H1 6265   4.371   2.623   4.981
 2108TIP3    H2 6266   4.274   2.570   5.084
 2109TIP3   OH2 6267   1.624   7.569   5.706
 2109TIP3    H1 6268   1.712   7.568   5.743
 2109TIP3    H2 6269   1.590   7.481   5.722
 2110TIP3   OH2 6270   3.632   4.051   6.815
 2110TIP3    H1 6271   3.583   3.987   6.764
 2110TIP3    H2 6272   3.646   4.009   6.900
 2111TIP3   OH2 6273   5.046   6.516   4.478
 2111TIP3    H1 6274   4.996   6.441   4.512
 2111TIP3    H2 6275   5.137   6.489   4.485
 2112TIP3   OH2 6276   5.499   5.597   2.436
 2112TIP3    H1 6277   5.434   5.614   2.505
 2112TIP3    H2 6278   5.451   5.608   2.354
 2113TIP3   OH2 6279   5.920   2.196   5.881
 2113TIP3    H1 6280   6.010   2.181   5.911
 2113TIP3    H2 6281   5.928   2.267   5.817
 2114TIP3   OH2 6282   1.650   5.606   3.446
 2114TIP3    H1 6283   1.555   5.616   3.448
 2114TIP3    H2 6284   1.671   5.599   3.353
 2115TIP3   OH2 6285   0.722   2.340   4.181
 2115TIP3    H1 6286   0.714   2.395   4.103
 2115TIP3    H2 6287   0.671   2.262   4.161
 2116TIP3   OH2 6288   1.022   0.115   4.590
 2116TIP3    H1 6289   1.114   0.116   4.617
 2116TIP3    H2 6290   1.012   0.031   4.544
 2117TIP3   OH2 6291   6.381   3.230   2.377
 2117TIP3    H1 6292   6.342   3.268   2.456
 2117TIP3    H2 6293   6.476   3.240   2.390
 2118TIP3   OH2 6294   1.844   2.530   3.232
 2118TIP3    H1 6295   1.793   2.474   3.291
 2118TIP3    H2 6296   1.935   2.516   3.257
 2119TIP3   OH2 6297   4.816   1.760   5.997
 2119TIP3    H1 6298   4.886   1.710   6.038
 2119TIP3    H2 6299   4.794   1.828   6.061
 2120TIP3   OH2 6300   5.394   6.275   5.445
 2120TIP3    H1 6301   5.359   6.186   5.454
 2120TIP3    H2 6302   5.407   6.305   5.534
 2121TIP3   OH2 6303   0.619   3.630   6.345
 2121TIP3    H1 6304   0.709   3.652   6.319
 2121TIP3    H2 6305   0.614   3.653   6.438
 2122TIP3   OH2 6306   7.733   3.740   1.376
 2122TIP3    H1 6307   7.647   3.735   1.335
 2122TIP3    H2 6308   7.757   3.648   1.390
 2123TIP3   OH2 6309   7.807   5.122   5.953
 2123TIP3    H1 6310   7.812   5.217   5.945
 2123TIP3    H2 6311   7.879   5.099   6.013
 2124TIP3   OH2 6312   1.065   7.734   3.817
 2124TIP3    H1 6313   1.041   7.704   3.729
 2124TIP3    H2 6314   1.109   7.659   3.856
 2125TIP3   OH2 6315   4.337   1.813   2.076
 2125TIP3    H1 6316   4.268   1.771   2.024
 2125TIP3    H2 6317   4.321   1.783   2.165
 2126TIP3   OH2 6318   4.378   2.851   0.057
 2126TIP3    H1 6319   4.333   2.856   0.141
 2126TIP3    H2 6320   4.334   2.779   0.010
 2127TIP3   OH2 6321   7.235   4.473   6.019
 2127TIP3    H1 6322   7.173   4.533   6.061
 2127TIP3    H2 6323   7.225   4.490   5.926
 2128TIP3   OH2 6324   1.974   7.768   2.656
 2128TIP3    H1 6325   1.884   7.796   2.638
 2128TIP3    H2 6326   1.974   7.746   2.749
 2129TIP3   OH2 6327   1.728   4.605   0.216
 2129TIP3    H1 6328   1.675   4.526   0.220
 2129TIP3    H2 6329   1.764   4.615   0.304
 2130TIP3   OH2 6330   3.905   4.129   1.165
 2130TIP3    H1 6331   3.918   4.060   1.231
 2130TIP3    H2 6332   3.929   4.210   1.210
 2131TIP3   OH2 6333   7.299   3.601   1.956
 2131TIP3    H1 6334   7.343   3.683   1.977
 2131TIP3    H2 6335   7.317   3.544   2.031
 2132TIP3   OH2 6336   0.748   1.171   5.631
 2132TIP3    H1 6337   0.784   1.085   5.609
 2132TIP3    H2 6338   0.734   1.213   5.546
 2133TIP3   OH2 6339   4.418   7.626   3.637
 2133TIP3    H1 6340   4.394   7.644   3.546
 2133TIP3    H2 6341   4.406   7.532   3.647
 2134TIP3   OH2 6342   1.431   3.459   3.914
 2134TIP3    H1 6343   1.449   3.520   3.986
 2134TIP3    H2 6344   1.490   3.486   3.844
 2135TIP3   OH2 6345   2.613   0.516   6.297
 2135TIP3    H1 6346   2.592   0.541   6.207
 2135TIP3    H2 6347   2.533   0.536   6.347
 2136TIP3   OH2 6348   4.246   3.027   6.124
 2136TIP3    H1 6349   4.258   3.088   6.051
 2136TIP3    H2 6350   4.269   2.941   6.089
 2137TIP3   OH2 6351   3.845   6.659   0.204
 2137TIP3    H1 6352   3.887   6.575   0.191
 2137TIP3    H2 6353   3.868   6.683   0.294
 2138TIP3   OH2 6354   4.066   5.057   1.643
 2138TIP3    H1 6355   4.002   4.989   1.661
 2138TIP3    H2 6356   4.151   5.016   1.661
 2139TIP3   OH2 6357   8.376   5.004   4.436
 2139TIP3    H1 6358   8.431   4.965   4.504
 2139TIP3    H2 6359   8.431   5.073   4.398
 2140TIP3   OH2 6360   1.795   3.957   5.340
 2140TIP3    H1 6361   1.788   3.996   5.253
 2140TIP3    H2 6362   1.754   3.871   5.331
 2141TIP3   OH2 6363   1.766   0.118   5.615
 2141TIP3    H1 6364   1.717   0.193   5.647
 2141TIP3    H2 6365   1.768   0.057   5.688
 2142TIP3   OH2 6366   7.972   4.933   4.808
 2142TIP3    H1 6367   8.044   4.983   4.771
 2142TIP3    H2 6368   8.015   4.861   4.855
 2143TIP3   OH2 6369   0.308   6.296   3.290
 2143TIP3    H1 6370   0.248   6.368   3.268
 2143TIP3    H2 6371   0.274   6.221   3.242
 2144TIP3   OH2 6372   8.125   6.832   5.722
 2144TIP3    H1 6373   8.162   6.792   5.644
 2144TIP3    H2 6374   8.130   6.764   5.789
 2145TIP3   OH2 6375   3.517   0.261   5.148
 2145TIP3    H1 6376   3.447   0.303   5.198
 2145TIP3    H2 6377   3.473   0.191   5.100
 2146TIP3   OH2 6378   6.776   0.737   2.669
 2146TIP3    H1 6379   6.837   0.663   2.670
 2146TIP3    H2 6380   6.829   0.812   2.697
 2147TIP3   OH2 6381   4.694   0.715   3.315
 2147TIP3    H1 6382   4.758   0.724   3.386
 2147TIP3    H2 6383   4.740   0.666   3.247
 2148TIP3   OH2 6384   6.381   3.282   2.685
 2148TIP3    H1 6385   6.386   3.377   2.690
 2148TIP3    H2 6386   6.428   3.251   2.762
 2149TIP3   OH2 6387   7.305   7.302   1.877
 2149TIP3    H1 6388   7.281   7.389   1.910
 2149TIP3    H2 6389   7.227   7.272   1.830
 2150TIP3   OH2 6390   3.265   5.442   6.637
 2150TIP3    H1 6391   3.266   5.381   6.563
 2150TIP3    H2 6392   3.247   5.527   6.597
 2151TIP3   OH2 6393   0.550   6.674   0.778
 2151TIP3    H1 6394   0.579   6.680   0.687
 2151TIP3    H2 6395   0.598   6.600   0.815
 2152TIP3   OH2 6396   7.924   7.501   1.720
 2152TIP3    H1 6397   7.968   7.416   1.719
 2152TIP3    H2 6398   7.894   7.512   1.810
 2153TIP3   OH2 6399   2.764   3.820   4.316
 2153TIP3    H1 6400   2.686   3.874   4.325
 2153TIP3    H2 6401   2.732   3.730   4.314
 2154TIP3   OH2 6402   0.837   6.196   6.495
 2154TIP3    H1 6403   0.850   6.290   6.486
 2154TIP3    H2 6404   0.925   6.161   6.511
 2155TIP3   OH2 6405   8.372   5.916   1.618
 2155TIP3    H1 6406   8.324   5.969   1.683
 2155TIP3    H2 6407   8.399   5.980   1.552
 2156TIP3   OH2 6408   1.703   7.811   3.716
 2156TIP3    H1 6409   1.661   7.882   3.667
 2156TIP3    H2 6410   1.794   7.814   3.688
 2157TIP3   OH2 6411   5.343   3.524   0.546
 2157TIP3    H1 6412   5.365   3.590   0.612
 2157TIP3    H2 6413   5.283   3.464   0.592
 2158TIP3   OH2 6414   6.522   7.905   0.985
 2158TIP3    H1 6415   6.427   7.917   0.981
 2158TIP3    H2 6416   6.540   7.835   0.922
 2159TIP3   OH2 6417   6.880   4.438   4.721
 2159TIP3    H1 6418   6.938   4.369   4.689
 2159TIP3    H2 6419   6.797   4.423   4.675
 2160TIP3   OH2 6420   6.650   1.041   0.615
 2160TIP3    H1 6421   6.701   1.091   0.551
 2160TIP3    H2 6422   6.691   1.060   0.699
 2161TIP3   OH2 6423   5.940   1.601   3.523
 2161TIP3    H1 6424   5.983   1.519   3.500
 2161TIP3    H2 6425   5.986   1.631   3.601
 2162TIP3   OH2 6426   7.773   3.043   0.902
 2162TIP3    H1 6427   7.685   3.049   0.865
 2162TIP3    H2 6428   7.812   3.129   0.885
 2163TIP3   OH2 6429   0.897   6.421   5.576
 2163TIP3    H1 6430   0.811   6.460   5.589
 2163TIP3    H2 6431   0.887   6.331   5.606
 2164TIP3   OH2 6432   6.962   5.706   3.949
 2164TIP3    H1 6433   6.941   5.761   3.873
 2164TIP3    H2 6434   6.884   5.654   3.964
 2165TIP3   OH2 6435   4.823   7.303   4.758
 2165TIP3    H1 6436   4.746   7.336   4.806
 2165TIP3    H2 6437   4.838   7.369   4.690
 2166TIP3   OH2 6438   3.519   6.265   5.751
 2166TIP3    H1 6439   3.440   6.298   5.794
 2166TIP3    H2 6440   3.515   6.170   5.763
 2167TIP3   OH2 6441   2.158   1.852   3.550
 2167TIP3    H1 6442   2.202   1.839   3.466
 2167TIP3    H2 6443   2.120   1.766   3.570
 2168TIP3   OH2 6444   6.666   2.408   4.859
 2168TIP3    H1 6445   6.671   2.355   4.938
 2168TIP3    H2 6446   6.753   2.446   4.849
 2169TIP3   OH2 6447   7.378   6.458   4.242
 2169TIP3    H1 6448   7.355   6.473   4.334
 2169TIP3    H2 6449   7.404   6.545   4.210
 2170TIP3   OH2 6450   0.569   2.003   1.222
 2170TIP3    H1 6451   0.570   2.045   1.136
 2170TIP3    H2 6452   0.582   1.910   1.204
 2171TIP3   OH2 6453   6.642   5.053   1.519
 2171TIP3    H1 6454   6.726   5.040   1.563
 2171TIP3    H2 6455   6.583   4.991   1.561
 2172TIP3   OH2 6456   5.018   3.944   2.113
 2172TIP3    H1 6457   5.105   3.972   2.143
 2172TIP3    H2 6458   4.966   4.024   2.114
 2173TIP3   OH2 6459   5.457   5.906   1.174
 2173TIP3    H1 6460   5.550   5.886   1.182
 2173TIP3    H2 6461   5.415   5.820   1.163
 2174TIP3   OH2 6462   3.954   0.910   5.263
 2174TIP3    H1 6463   3.997   0.983   5.306
 2174TIP3    H2 6464   3.897   0.873   5.331
 2175TIP3   OH2 6465   4.998   0.225   6.123
 2175TIP3    H1 6466   5.028   0.304   6.167
 2175TIP3    H2 6467   5.012   0.243   6.030
 2176TIP3   OH2 6468   2.673   5.762   0.450
 2176TIP3    H1 6469   2.751   5.707   0.459
 2176TIP3    H2 6470   2.699   5.830   0.388
 2177TIP3   OH2 6471   3.351   2.882   6.610
 2177TIP3    H1 6472   3.349   2.940   6.687
 2177TIP3    H2 6473   3.386   2.938   6.540
 2178TIP3   OH2 6474   6.691   0.406   6.328
 2178TIP3    H1 6475   6.624   0.366   6.383
 2178TIP3    H2 6476   6.642   0.448   6.257
 2179TIP3   OH2 6477   8.051   6.206   6.765
 2179TIP3    H1 6478   8.053   6.172   6.855
 2179TIP3    H2 6479   8.060   6.128   6.710
 2180TIP3   OH2 6480   0.638   4.974   1.167
 2180TIP3    H1 6481   0.650   4.889   1.126
 2180TIP3    H2 6482   0.606   4.953   1.255
 2181TIP3   OH2 6483   4.752   4.507   1.520
 2181TIP3    H1 6484   4.724   4.417   1.532
 2181TIP3    H2 6485   4.799   4.506   1.436
 2182TIP3   OH2 6486   4.702   7.207   2.015
 2182TIP3    H1 6487   4.797   7.207   2.021
 2182TIP3    H2 6488   4.681   7.276   1.952
 2183TIP3   OH2 6489   0.788   5.221   1.255
 2183TIP3    H1 6490   0.744   5.141   1.225
 2183TIP3    H2 6491   0.718   5.274   1.293
 2184TIP3   OH2 6492   2.390   3.202   3.219
 2184TIP3    H1 6493   2.429   3.131   3.270
 2184TIP3    H2 6494   2.433   3.281   3.252
 2185TIP3   OH2 6495   2.947   7.588   1.127
 2185TIP3    H1 6496   2.951   7.541   1.043
 2185TIP3    H2 6497   3.002   7.665   1.113
 2186TIP3   OH2 6498   4.205   2.058   0.207
 2186TIP3    H1 6499   4.227   2.108   0.285
 2186TIP3    H2 6500   4.227   2.116   0.134
 2187TIP3   OH2 6501   2.469   4.855   3.521
 2187TIP3    H1 6502   2.417   4.900   3.455
 2187TIP3    H2 6503   2.502   4.925   3.577
 2188TIP3   OH2 6504   0.407   7.477   6.701
 2188TIP3    H1 6505   0.337   7.412   6.705
 2188TIP3    H2 6506   0.420   7.504   6.792
 2189TIP3   OH2 6507   4.339   4.010   3.747
 2189TIP3    H1 6508   4.274   4.063   3.794
 2189TIP3    H2 6509   4.352   3.933   3.802
 2190TIP3   OH2 6510   0.794   5.184   2.691
 2190TIP3    H1 6511   0.724   5.194   2.626
 2190TIP3    H2 6512   0.783   5.095   2.724
 2191TIP3   OH2 6513   1.360   5.937   1.743
 2191TIP3    H1 6514   1.444   5.898   1.767
 2191TIP3    H2 6515   1.306   5.929   1.821
 2192TIP3   OH2 6516   3.617   0.376   1.369
 2192TIP3    H1 6517   3.653   0.297   1.409
 2192TIP3    H2 6518   3.601   0.352   1.277
 2193TIP3   OH2 6519   3.875   4.449   6.574
 2193TIP3    H1 6520   3.831   4.416   6.652
 2193TIP3    H2 6521   3.804   4.473   6.515
 2194TIP3   OH2 6522   7.899   2.035   4.811
 2194TIP3    H1 6523   7.858   1.973   4.750
 2194TIP3    H2 6524   7.859   2.015   4.895
 2195TIP3   OH2 6525   4.671   5.722   0.290
 2195TIP3    H1 6526   4.601   5.780   0.261
 2195TIP3    H2 6527   4.627   5.640   0.312
 2196TIP3   OH2 6528   4.743   3.933   3.936
 2196TIP3    H1 6529   4.690   3.855   3.921
 2196TIP3    H2 6530   4.742   3.979   3.852
 2197TIP3   OH2 6531   4.377   0.061   2.448
 2197TIP3    H1 6532   4.300   0.074   2.393
 2197TIP3    H2 6533   4.398  -0.032   2.439
 2198TIP3   OH2 6534   4.429   1.500   3.185
 2198TIP3    H1 6535   4.509   1.553   3.184
 2198TIP3    H2 6536   4.406   1.494   3.278
 2199TIP3   OH2 6537   8.100   1.251   6.364
 2199TIP3    H1 6538   8.193   1.229   6.371
 2199TIP3    H2 6539   8.095   1.307   6.286
 2200TIP3   OH2 6540   2.301   6.716   5.057
 2200TIP3    H1 6541   2.375   6.717   4.996
 2200TIP3    H2 6542   2.317   6.789   5.116
 2201TIP3   OH2 6543   3.498   7.637   1.300
 2201TIP3    H1 6544   3.507   7.722   1.256
 2201TIP3    H2 6545   3.426   7.648   1.361
 2202TIP3   OH2 6546   7.658   5.714   2.099
 2202TIP3    H1 6547   7.704   5.683   2.177
 2202TIP3    H2 6548   7.703   5.672   2.026
 2203TIP3   OH2 6549   0.069   6.180   1.163
 2203TIP3    H1 6550   0.032   6.198   1.077
 2203TIP3    H2 6551   0.121   6.257   1.184
 2204TIP3   OH2 6552   0.541   6.928   6.070
 2204TIP3    H1 6553   0.602   7.001   6.059
 2204TIP3    H2 6554   0.545   6.882   5.986
 2205TIP3   OH2 6555   6.034   6.960   1.429
 2205TIP3    H1 6556   6.055   6.867   1.442
 2205TIP3    H2 6557   6.118   7.005   1.438
 2206TIP3   OH2 6558   0.421   0.208   1.804
 2206TIP3    H1 6559   0.466   0.128   1.778
 2206TIP3    H2 6560   0.336   0.178   1.837
 2207TIP3   OH2 6561   7.923   1.806   1.308
 2207TIP3    H1 6562   7.881   1.789   1.224
 2207TIP3    H2 6563   8.012   1.773   1.298
 2208TIP3   OH2 6564   0.859   4.878   3.909
 2208TIP3    H1 6565   0.945   4.914   3.933
 2208TIP3    H2 6566   0.819   4.947   3.857
 2209TIP3   OH2 6567   4.506   4.736   3.319
 2209TIP3    H1 6568   4.570   4.704   3.255
 2209TIP3    H2 6569   4.496   4.829   3.298
 2210TIP3   OH2 6570   1.380   4.173   0.373
 2210TIP3    H1 6571   1.427   4.250   0.342
 2210TIP3    H2 6572   1.320   4.206   0.439
 2211TIP3   OH2 6573   0.254   5.717   6.211
 2211TIP3    H1 6574   0.317   5.758   6.271
 2211TIP3    H2 6575   0.173   5.715   6.261
 2212TIP3   OH2 6576   3.671   2.753   5.640
 2212TIP3    H1 6577   3.741   2.740   5.576
 2212TIP3    H2 6578   3.606   2.807   5.595
 2213TIP3   OH2 6579   3.286   7.012   3.162
 2213TIP3    H1 6580   3.219   6.989   3.098
 2213TIP3    H2 6581   3.308   7.103   3.142
 2214TIP3   OH2 6582   2.750   6.205   4.294
 2214TIP3    H1 6583   2.780   6.135   4.352
 2214TIP3    H2 6584   2.830   6.246   4.262
 2215TIP3   OH2 6585   1.664   7.252   3.477
 2215TIP3    H1 6586   1.585   7.304   3.465
 2215TIP3    H2 6587   1.638   7.181   3.536
 2216TIP3   OH2 6588   3.687   3.858   0.982
 2216TIP3    H1 6589   3.663   3.860   0.890
 2216TIP3    H2 6590   3.780   3.835   0.982
 2217TIP3   OH2 6591   4.080   7.107   3.791
 2217TIP3    H1 6592   4.141   7.084   3.722
 2217TIP3    H2 6593   4.021   7.033   3.797
 2218TIP3   OH2 6594   4.353   5.801   5.758
 2218TIP3    H1 6595   4.267   5.771   5.727
 2218TIP3    H2 6596   4.413   5.729   5.736
 2219TIP3   OH2 6597   2.270   4.445   0.074
 2219TIP3    H1 6598   2.295   4.399  -0.006
 2219TIP3    H2 6599   2.330   4.411   0.141
 2220TIP3   OH2 6600   0.476   7.383   2.302
 2220TIP3    H1 6601   0.383   7.360   2.295
 2220TIP3    H2 6602   0.485   7.461   2.247
 2221TIP3   OH2 6603   6.088   4.065   2.365
 2221TIP3    H1 6604   6.150   4.057   2.437
 2221TIP3    H2 6605   6.013   4.011   2.391
 2222TIP3   OH2 6606   1.045   6.636   5.658
 2222TIP3    H1 6607   0.978   6.703   5.670
 2222TIP3    H2 6608   0.997   6.558   5.629
 2223TIP3   OH2 6609   7.113   3.028   0.120
 2223TIP3    H1 6610   7.064   3.099   0.080
 2223TIP3    H2 6611   7.200   3.063   0.135
 2224TIP3   OH2 6612   1.063   6.337   0.110
 2224TIP3    H1 6613   1.030   6.367   0.195
 2224TIP3    H2 6614   0.988   6.347   0.051
 2225TIP3   OH2 6615   7.433   4.842   6.575
 2225TIP3    H1 6616   7.354   4.874   6.533
 2225TIP3    H2 6617   7.418   4.856   6.668
 2226TIP3   OH2 6618   0.732   4.391   3.352
 2226TIP3    H1 6619   0.792   4.442   3.299
 2226TIP3    H2 6620   0.645   4.427   3.333
 2227TIP3   OH2 6621   2.108   4.912   0.667
 2227TIP3    H1 6622   2.019   4.946   0.682
 2227TIP3    H2 6623   2.158   4.943   0.743
 2228TIP3   OH2 6624   6.496   1.292   0.384
 2228TIP3    H1 6625   6.506   1.336   0.299
 2228TIP3    H2 6626   6.583   1.297   0.423
 2229TIP3   OH2 6627   3.347   1.797   2.658
 2229TIP3    H1 6628   3.278   1.832   2.602
 2229TIP3    H2 6629   3.419   1.858   2.649
 2230TIP3   OH2 6630   8.178   5.710   5.991
 2230TIP3    H1 6631   8.223   5.686   6.072
 2230TIP3    H2 6632   8.087   5.685   6.006
 2231TIP3   OH2 6633   1.546   7.429   4.637
 2231TIP3    H1 6634   1.559   7.513   4.682
 2231TIP3    H2 6635   1.509   7.372   4.704
 2232TIP3   OH2 6636   7.461   2.960   2.048
 2232TIP3    H1 6637   7.488   3.049   2.070
 2232TIP3    H2 6638   7.416   2.929   2.127
 2233TIP3   OH2 6639   7.378   4.252   4.432
 2233TIP3    H1 6640   7.417   4.173   4.468
 2233TIP3    H2 6641   7.372   4.312   4.506
 2234TIP3   OH2 6642   7.595   2.502   1.888
 2234TIP3    H1 6643   7.648   2.580   1.900
 2234TIP3    H2 6644   7.529   2.527   1.823
 2235TIP3   OH2 6645   6.875   5.636   0.391
 2235TIP3    H1 6646   6.883   5.549   0.429
 2235TIP3    H2 6647   6.944   5.687   0.434
 2236TIP3   OH2 6648   1.675   6.645   1.262
 2236TIP3    H1 6649   1.734   6.570   1.251
 2236TIP3    H2 6650   1.709   6.711   1.202
 2237TIP3   OH2 6651   2.742   5.815   0.747
 2237TIP3    H1 6652   2.815   5.878   0.745
 2237TIP3    H2 6653   2.680   5.849   0.683
 2238TIP3   OH2 6654   8.216   2.889   2.447
 2238TIP3    H1 6655   8.163   2.881   2.525
 2238TIP3    H2 6656   8.306   2.879   2.478
 2239TIP3   OH2 6657   7.029   6.194   2.954
 2239TIP3    H1 6658   6.943   6.162   2.930
 2239TIP3    H2 6659   7.060   6.133   3.021
 2240TIP3   OH2 6660   2.714   4.057   5.787
 2240TIP3    H1 6661   2.688   4.141   5.751
 2240TIP3    H2 6662   2.770   4.018   5.721
 2241TIP3   OH2 6663   6.939   3.858   1.501
 2241TIP3    H1 6664   7.012   3.893   1.551
 2241TIP3    H2 6665   6.889   3.935   1.474
 2242TIP3   OH2 6666   8.004   3.611   1.216
 2242TIP3    H1 6667   7.942   3.548   1.177
 2242TIP3    H2 6668   8.036   3.661   1.142
 2243TIP3   OH2 6669   6.492   2.601   1.119
 2243TIP3    H1 6670   6.551   2.550   1.063
 2243TIP3    H2 6671   6.422   2.631   1.061
 2244TIP3   OH2 6672   1.307   1.393   4.200
 2244TIP3    H1 6673   1.384   1.400   4.144
 2244TIP3    H2 6674   1.280   1.484   4.216
 2245TIP3   OH2 6675   4.462   4.994   0.604
 2245TIP3    H1 6676   4.482   5.085   0.629
 2245TIP3    H2 6677   4.546   4.956   0.580
 2246TIP3   OH2 6678   2.601   1.906   3.704
 2246TIP3    H1 6679   2.539   1.940   3.639
 2246TIP3    H2 6680   2.557   1.830   3.741
 2247TIP3   OH2 6681   5.788   4.461   4.060
 2247TIP3    H1 6682   5.774   4.527   4.128
 2247TIP3    H2 6683   5.824   4.386   4.107
 2248TIP3   OH2 6684   6.722   0.220   3.919
 2248TIP3    H1 6685   6.727   0.240   3.826
 2248TIP3    H2 6686   6.813   0.223   3.949
 2249TIP3   OH2 6687   6.209   1.589   3.197
 2249TIP3    H1 6688   6.235   1.576   3.105
 2249TIP3    H2 6689   6.244   1.512   3.242
 2250TIP3   OH2 6690   0.276   5.863   4.865
 2250TIP3    H1 6691   0.253   5.791   4.924
 2250TIP3    H2 6692   0.306   5.933   4.924
 2251TIP3   OH2 6693   2.502   1.084   3.315
 2251TIP3    H1 6694   2.563   1.050   3.250
 2251TIP3    H2 6695   2.446   1.144   3.266
 2252TIP3   OH2 6696   8.384   1.530   0.799
 2252TIP3    H1 6697   8.340   1.489   0.874
 2252TIP3    H2 6698   8.421   1.611   0.835
 2253TIP3   OH2 6699   1.752   1.370   3.856
 2253TIP3    H1 6700   1.727   1.278   3.859
 2253TIP3    H2 6701   1.808   1.382   3.932
 2254TIP3   OH2 6702   7.210   1.152   0.146
 2254TIP3    H1 6703   7.222   1.059   0.129
 2254TIP3    H2 6704   7.298   1.189   0.139
 2255TIP3   OH2 6705   2.375   6.590   5.309
 2255TIP3    H1 6706   2.332   6.572   5.225
 2255TIP3    H2 6707   2.302   6.603   5.370
 2256TIP3   OH2 6708   0.157   1.553   2.230
 2256TIP3    H1 6709   0.174   1.494   2.303
 2256TIP3    H2 6710   0.090   1.509   2.178
 2257TIP3   OH2 6711   2.503   7.872   4.536
 2257TIP3    H1 6712   2.596   7.885   4.551
 2257TIP3    H2 6713   2.479   7.941   4.474
 2258TIP3   OH2 6714   0.526   1.778   5.856
 2258TIP3    H1 6715   0.463   1.759   5.926
 2258TIP3    H2 6716   0.477   1.829   5.793
 2259TIP3   OH2 6717   7.635   5.263   6.426
 2259TIP3    H1 6718   7.605   5.268   6.517
 2259TIP3    H2 6719   7.710   5.204   6.429
 2260TIP3   OH2 6720   2.730   2.881   5.671
 2260TIP3    H1 6721   2.694   2.793   5.683
 2260TIP3    H2 6722   2.821   2.873   5.699
 2261TIP3   OH2 6723   0.926   3.047   1.603
 2261TIP3    H1 6724   0.977   3.127   1.615
 2261TIP3    H2 6725   0.847   3.060   1.655
 2262TIP3   OH2 6726   3.612   7.050   6.502
 2262TIP3    H1 6727   3.682   7.017   6.558
 2262TIP3    H2 6728   3.566   6.972   6.471
 2263TIP3   OH2 6729   0.333   6.994   4.767
 2263TIP3    H1 6730   0.253   6.948   4.742
 2263TIP3    H2 6731   0.330   7.076   4.718
 2264TIP3   OH2 6732   0.743   5.148   2.049
 2264TIP3    H1 6733   0.719   5.137   1.957
 2264TIP3    H2 6734   0.692   5.082   2.095
 2265TIP3   OH2 6735   4.942   0.772   4.289
 2265TIP3    H1 6736   4.883   0.839   4.255
 2265TIP3    H2 6737   4.997   0.818   4.352
 2266TIP3   OH2 6738   0.280   4.384   5.634
 2266TIP3    H1 6739   0.325   4.464   5.606
 2266TIP3    H2 6740   0.192   4.413   5.659
 2267TIP3   OH2 6741   6.214   0.073   3.013
 2267TIP3    H1 6742   6.296   0.046   3.055
 2267TIP3    H2 6743   6.149   0.072   3.083
 2268TIP3   OH2 6744   5.820   7.304   0.020
 2268TIP3    H1 6745   5.867   7.344   0.094
 2268TIP3    H2 6746   5.766   7.236   0.060
 2269TIP3   OH2 6747   2.320   3.822   2.552
 2269TIP3    H1 6748   2.252   3.833   2.486
 2269TIP3    H2 6749   2.318   3.903   2.603
 2270TIP3   OH2 6750   1.040   5.615   3.309
 2270TIP3    H1 6751   1.063   5.707   3.294
 2270TIP3    H2 6752   0.956   5.618   3.354
 2271TIP3   OH2 6753   7.599   7.139   0.678
 2271TIP3    H1 6754   7.631   7.068   0.734
 2271TIP3    H2 6755   7.604   7.217   0.733
 2272TIP3   OH2 6756   0.096   4.998   1.500
 2272TIP3    H1 6757   0.010   5.033   1.476
 2272TIP3    H2 6758   0.143   4.990   1.417
 2273TIP3   OH2 6759   2.241   7.823   5.043
 2273TIP3    H1 6760   2.229   7.728   5.033
 2273TIP3    H2 6761   2.266   7.854   4.956
 2274TIP3   OH2 6762   0.008   0.867   1.454
 2274TIP3    H1 6763   0.056   0.926   1.511
 2274TIP3    H2 6764  -0.083   0.895   1.460
 2275TIP3   OH2 6765   5.691   3.286   1.899
 2275TIP3    H1 6766   5.759   3.239   1.947
 2275TIP3    H2 6767   5.609   3.246   1.929
 2276TIP3   OH2 6768   3.587   6.639   4.013
 2276TIP3    H1 6769   3.562   6.693   3.937
 2276TIP3    H2 6770   3.594   6.701   4.085
 2277TIP3   OH2 6771   2.776   4.171   1.119
 2277TIP3    H1 6772   2.695   4.208   1.154
 2277TIP3    H2 6773   2.785   4.087   1.165
 2278TIP3   OH2 6774   5.482   4.684   5.906
 2278TIP3    H1 6775   5.490   4.641   5.991
 2278TIP3    H2 6776   5.390   4.675   5.882
 2279TIP3   OH2 6777   2.732   6.744   2.381
 2279TIP3    H1 6778   2.703   6.742   2.290
 2279TIP3    H2 6779   2.731   6.652   2.408
 2280TIP3   OH2 6780   6.490   2.816   3.717
 2280TIP3    H1 6781   6.457   2.735   3.678
 2280TIP3    H2 6782   6.585   2.810   3.707
 2281TIP3   OH2 6783   3.911   4.035   6.716
 2281TIP3    H1 6784   3.827   4.051   6.758
 2281TIP3    H2 6785   3.915   4.098   6.644
 2282TIP3   OH2 6786   8.329   0.617   2.798
 2282TIP3    H1 6787   8.317   0.674   2.722
 2282TIP3    H2 6788   8.405   0.654   2.843
 2283TIP3   OH2 6789   5.538   7.348   6.646
 2283TIP3    H1 6790   5.455   7.345   6.598
 2283TIP3    H2 6791   5.517   7.395   6.727
 2284TIP3   OH2 6792   7.287   2.498   2.749
 2284TIP3    H1 6793   7.366   2.452   2.719
 2284TIP3    H2 6794   7.317   2.555   2.819
 2285TIP3   OH2 6795   8.300   7.907   3.124
 2285TIP3    H1 6796   8.277   7.910   3.217
 2285TIP3    H2 6797   8.337   7.820   3.112
 2286TIP3   OH2 6798   1.136   1.808   6.318
 2286TIP3    H1 6799   1.220   1.842   6.289
 2286TIP3    H2 6800   1.095   1.880   6.365
 2287TIP3   OH2 6801   4.248   0.274   2.828
 2287TIP3    H1 6802   4.319   0.335   2.847
 2287TIP3    H2 6803   4.200   0.265   2.910
 2288TIP3   OH2 6804   2.250   6.781   3.230
 2288TIP3    H1 6805   2.202   6.700   3.216
 2288TIP3    H2 6806   2.331   6.769   3.180
 2289TIP3   OH2 6807   6.592   0.824   6.124
 2289TIP3    H1 6808   6.510   0.795   6.162
 2289TIP3    H2 6809   6.575   0.913   6.094
 2290TIP3   OH2 6810   5.393   1.868   5.717
 2290TIP3    H1 6811   5.445   1.880   5.797
 2290TIP3    H2 6812   5.315   1.822   5.746
 2291TIP3   OH2 6813   5.573   2.242   2.364
 2291TIP3    H1 6814   5.580   2.252   2.459
 2291TIP3    H2 6815   5.631   2.309   2.329
 2292TIP3   OH2 6816   0.609   0.973   6.627
 2292TIP3    H1 6817   0.603   1.045   6.565
 2292TIP3    H2 6818   0.533   0.918   6.609
 2293TIP3   OH2 6819   7.922   4.663   6.077
 2293TIP3    H1 6820   8.014   4.649   6.055
 2293TIP3    H2 6821   7.909   4.613   6.157
 2294TIP3   OH2 6822   7.217   4.301   5.326
 2294TIP3    H1 6823   7.277   4.363   5.285
 2294TIP3    H2 6824   7.140   4.300   5.268
 2295TIP3   OH2 6825   2.182   6.422   3.360
 2295TIP3    H1 6826   2.127   6.421   3.439
 2295TIP3    H2 6827   2.120   6.427   3.287
 2296TIP3   OH2 6828   1.221   2.332   2.793
 2296TIP3    H1 6829   1.257   2.358   2.708
 2296TIP3    H2 6830   1.126   2.339   2.782
 2297TIP3   OH2 6831   2.247   7.546   6.364
 2297TIP3    H1 6832   2.298   7.505   6.294
 2297TIP3    H2 6833   2.281   7.507   6.444
 2298TIP3   OH2 6834   8.312   6.226   6.106
 2298TIP3    H1 6835   8.279   6.271   6.184
 2298TIP3    H2 6836   8.246   6.159   6.087
 2299TIP3   OH2 6837   5.480   2.207   4.427
 2299TIP3    H1 6838   5.438   2.190   4.343
 2299TIP3    H2 6839   5.537   2.132   4.441
 2300TIP3   OH2 6840   2.757   6.100   0.601
 2300TIP3    H1 6841   2.781   6.193   0.593
 2300TIP3    H2 6842   2.753   6.069   0.510
 2301TIP3   OH2 6843   0.618   0.307   6.590
 2301TIP3    H1 6844   0.543   0.351   6.548
 2301TIP3    H2 6845   0.675   0.379   6.617
 2302TIP3   OH2 6846   2.409   7.311   5.939
 2302TIP3    H1 6847   2.404   7.371   6.013
 2302TIP3    H2 6848   2.375   7.362   5.865
 2303TIP3   OH2 6849   4.160   0.406   2.121
 2303TIP3    H1 6850   4.192   0.493   2.096
 2303TIP3    H2 6851   4.228   0.346   2.090
 2304TIP3   OH2 6852   4.761   4.761   3.876
 2304TIP3    H1 6853   4.753   4.727   3.787
 2304TIP3    H2 6854   4.678   4.738   3.918
 2305TIP3   OH2 6855   2.664   5.343   1.314
 2305TIP3    H1 6856   2.613   5.339   1.395
 2305TIP3    H2 6857   2.633   5.267   1.263
 2306TIP3   OH2 6858   6.109   4.146   4.758
 2306TIP3    H1 6859   6.078   4.235   4.771
 2306TIP3    H2 6860   6.169   4.151   4.684
 2307TIP3   OH2 6861   6.727   7.759   3.064
 2307TIP3    H1 6862   6.813   7.756   3.105
 2307TIP3    H2 6863   6.713   7.851   3.043
 2308TIP3   OH2 6864   6.633   7.400   0.259
 2308TIP3    H1 6865   6.591   7.328   0.307
 2308TIP3    H2 6866   6.632   7.371   0.168
 2309TIP3   OH2 6867   6.023   7.288   1.184
 2309TIP3    H1 6868   6.005   7.335   1.102
 2309TIP3    H2 6869   6.097   7.231   1.163
 2310TIP3   OH2 6870   3.839   2.455   3.065
 2310TIP3    H1 6871   3.813   2.410   2.985
 2310TIP3    H2 6872   3.756   2.484   3.103
 2311TIP3   OH2 6873   5.381   2.893   3.828
 2311TIP3    H1 6874   5.396   2.964   3.766
 2311TIP3    H2 6875   5.303   2.919   3.876
 2312TIP3   OH2 6876   6.016   7.335   5.231
 2312TIP3    H1 6877   5.941   7.378   5.191
 2312TIP3    H2 6878   5.997   7.336   5.325
 2313TIP3   OH2 6879   0.957   1.978   5.639
 2313TIP3    H1 6880   0.898   1.907   5.664
 2313TIP3    H2 6881   1.045   1.942   5.656
 2314TIP3   OH2 6882   6.199   4.520   2.554
 2314TIP3    H1 6883   6.219   4.430   2.530
 2314TIP3    H2 6884   6.282   4.557   2.583
 2315TIP3   OH2 6885   2.889   5.266   3.681
 2315TIP3    H1 6886   2.891   5.173   3.704
 2315TIP3    H2 6887   2.891   5.266   3.585
 2316TIP3   OH2 6888   2.466   7.744   2.464
 2316TIP3    H1 6889   2.437   7.689   2.536
 2316TIP3    H2 6890   2.513   7.685   2.405
 2317TIP3   OH2 6891   1.833   4.676   4.974
 2317TIP3    H1 6892   1.872   4.758   4.944
 2317TIP3    H2 6893   1.896   4.642   5.039
 2318TIP3   OH2 6894   4.260   0.185   6.671
 2318TIP3    H1 6895   4.222   0.102   6.642
 2318TIP3    H2 6896   4.308   0.163   6.751
 2319TIP3   OH2 6897   7.811   4.533   1.246
 2319TIP3    H1 6898   7.878   4.525   1.178
 2319TIP3    H2 6899   7.744   4.469   1.221
 2320TIP3   OH2 6900   0.543   6.022   3.867
 2320TIP3    H1 6901   0.578   5.952   3.923
 2320TIP3    H2 6902   0.604   6.095   3.879
 2321TIP3   OH2 6903   0.792   0.661   1.423
 2321TIP3    H1 6904   0.720   0.721   1.404
 2321TIP3    H2 6905   0.862   0.688   1.363
 2322TIP3   OH2 6906   4.822   2.842   3.719
 2322TIP3    H1 6907   4.777   2.764   3.687
 2322TIP3    H2 6908   4.776   2.915   3.676
 2323TIP3   OH2 6909   6.426   7.334   1.558
 2323TIP3    H1 6910   6.508   7.333   1.608
 2323TIP3    H2 6911   6.442   7.272   1.487
 2324TIP3   OH2 6912   6.019   0.625   3.970
 2324TIP3    H1 6913   6.023   0.709   4.015
 2324TIP3    H2 6914   6.048   0.561   4.035
 2325TIP3   OH2 6915   6.283   2.638   4.689
 2325TIP3    H1 6916   6.225   2.628   4.614
 2325TIP3    H2 6917   6.254   2.718   4.732
 2326TIP3   OH2 6918   6.965   4.636   4.933
 2326TIP3    H1 6919   6.995   4.702   4.870
 2326TIP3    H2 6920   6.972   4.553   4.887
 2327TIP3   OH2 6921   7.775   2.837   4.351
 2327TIP3    H1 6922   7.847   2.780   4.379
 2327TIP3    H2 6923   7.817   2.922   4.335
 2328TIP3   OH2 6924   3.333   0.266   2.174
 2328TIP3    H1 6925   3.385   0.337   2.136
 2328TIP3    H2 6926   3.291   0.305   2.250
 2329TIP3   OH2 6927   5.525   5.418   5.711
 2329TIP3    H1 6928   5.577   5.407   5.790
 2329TIP3    H2 6929   5.520   5.331   5.672
 2330TIP3   OH2 6930   0.211   1.369   2.429
 2330TIP3    H1 6931   0.180   1.278   2.429
 2330TIP3    H2 6932   0.192   1.401   2.517
 2331TIP3   OH2 6933   1.824   4.107   1.220
 2331TIP3    H1 6934   1.787   4.189   1.252
 2331TIP3    H2 6935   1.753   4.044   1.226
 2332TIP3   OH2 6936   6.521   5.566   2.608
 2332TIP3    H1 6937   6.550   5.635   2.548
 2332TIP3    H2 6938   6.559   5.589   2.692
 2333TIP3   OH2 6939   2.180   0.587   5.508
 2333TIP3    H1 6940   2.264   0.541   5.509
 2333TIP3    H2 6941   2.129   0.545   5.576
 2334TIP3   OH2 6942   6.805   1.614   3.922
 2334TIP3    H1 6943   6.743   1.659   3.865
 2334TIP3    H2 6944   6.756   1.597   4.003
 2335TIP3   OH2 6945   6.551   3.721   5.663
 2335TIP3    H1 6946   6.489   3.688   5.597
 2335TIP3    H2 6947   6.559   3.649   5.726
 2336TIP3   OH2 6948   0.453   1.923   4.193
 2336TIP3    H1 6949   0.544   1.953   4.195
 2336TIP3    H2 6950   0.459   1.828   4.182
 2337TIP3   OH2 6951   5.866   7.280   4.234
 2337TIP3    H1 6952   5.868   7.274   4.330
 2337TIP3    H2 6953   5.908   7.199   4.204
 2338TIP3   OH2 6954   7.697   1.757   4.379
 2338TIP3    H1 6955   7.662   1.845   4.388
 2338TIP3    H2 6956   7.763   1.764   4.310
 2339TIP3   OH2 6957   4.369   1.077   3.636
 2339TIP3    H1 6958   4.461   1.068   3.659
 2339TIP3    H2 6959   4.322   1.023   3.700
 2340TIP3   OH2 6960   0.534   5.363   0.539
 2340TIP3    H1 6961   0.540   5.277   0.497
 2340TIP3    H2 6962   0.624   5.384   0.563
 2341TIP3   OH2 6963   4.490   3.477   6.528
 2341TIP3    H1 6964   4.485   3.573   6.531
 2341TIP3    H2 6965   4.483   3.455   6.436
 2342TIP3   OH2 6966   7.232   2.832   6.052
 2342TIP3    H1 6967   7.174   2.882   6.109
 2342TIP3    H2 6968   7.177   2.806   5.978
 2343TIP3   OH2 6969   6.474   5.514   0.248
 2343TIP3    H1 6970   6.462   5.586   0.310
 2343TIP3    H2 6971   6.456   5.435   0.300
 2344TIP3   OH2 6972   1.298   5.672   6.254
 2344TIP3    H1 6973   1.338   5.647   6.337
 2344TIP3    H2 6974   1.246   5.749   6.275
 2345TIP3   OH2 6975   0.907   4.393   6.157
 2345TIP3    H1 6976   0.896   4.479   6.117
 2345TIP3    H2 6977   0.951   4.341   6.090
 2346TIP3   OH2 6978   7.368   5.045   0.205
 2346TIP3    H1 6979   7.406   5.117   0.255
 2346TIP3    H2 6980   7.378   4.968   0.261
 2347TIP3   OH2 6981   7.350   2.596   5.775
 2347TIP3    H1 6982   7.295   2.660   5.729
 2347TIP3    H2 6983   7.288   2.540   5.821
 2348TIP3   OH2 6984   6.467   1.010   4.419
 2348TIP3    H1 6985   6.503   0.951   4.353
 2348TIP3    H2 6986   6.539   1.070   4.438
 2349TIP3   OH2 6987   6.580   7.593   1.932
 2349TIP3    H1 6988   6.503   7.562   1.883
 2349TIP3    H2 6989   6.544   7.651   1.999
 2350TIP3   OH2 6990   3.886   6.339   1.388
 2350TIP3    H1 6991   3.855   6.371   1.303
 2350TIP3    H2 6992   3.981   6.353   1.387
 2351TIP3   OH2 6993   1.001   5.521   1.940
 2351TIP3    H1 6994   0.981   5.507   2.032
 2351TIP3    H2 6995   1.007   5.616   1.932
 2352TIP3   OH2 6996   4.887   5.040   0.242
 2352TIP3    H1 6997   4.858   5.095   0.315
 2352TIP3    H2 6998   4.808   5.027   0.189
 2353TIP3   OH2 6999   2.377   5.115   2.326
 2353TIP3    H1 7000   2.334   5.199   2.340
 2353TIP3    H2 7001   2.307   5.056   2.298
 2354TIP3   OH2 7002   5.060   1.411   3.546
 2354TIP3    H1 7003   5.074   1.502   3.522
 2354TIP3    H2 7004   5.097   1.360   3.474
 2355TIP3   OH2 7005   4.381   0.648   5.455
 2355TIP3    H1 7006   4.405   0.659   5.363
 2355TIP3    H2 7007   4.441   0.581   5.488
 2356TIP3   OH2 7008   2.512   2.097   1.970
 2356TIP3    H1 7009   2.579   2.029   1.969
 2356TIP3    H2 7010   2.459   2.080   1.891
 2357TIP3   OH2 7011   1.685   0.856   4.831
 2357TIP3    H1 7012   1.605   0.802   4.838
 2357TIP3    H2 7013   1.706   0.853   4.737
 2358TIP3   OH2 7014   3.625   7.071   6.173
 2358TIP3    H1 7015   3.579   7.081   6.257
 2358TIP3    H2 7016   3.577   7.001   6.128
 2359TIP3   OH2 7017   8.095   7.529   0.312
 2359TIP3    H1 7018   8.144   7.448   0.299
 2359TIP3    H2 7019   8.128   7.563   0.395
 2360TIP3   OH2 7020   2.062   0.789   4.922
 2360TIP3    H1 7021   2.125   0.803   4.993
 2360TIP3    H2 7022   2.107   0.817   4.843
 2361TIP3   OH2 7023   1.982   2.343   5.279
 2361TIP3    H1 7024   2.065   2.325   5.325
 2361TIP3    H2 7025   1.947   2.420   5.323
 2362TIP3   OH2 7026   7.986   7.092   3.737
 2362TIP3    H1 7027   8.042   7.019   3.711
 2362TIP3    H2 7028   8.045   7.168   3.739
 2363TIP3   OH2 7029   8.344   1.468   4.167
 2363TIP3    H1 7030   8.272   1.406   4.175
 2363TIP3    H2 7031   8.318   1.526   4.096
 2364TIP3   OH2 7032   0.291   1.794   4.687
 2364TIP3    H1 7033   0.386   1.808   4.686
 2364TIP3    H2 7034   0.266   1.804   4.779
 2365TIP3   OH2 7035   0.260   6.185   5.677
 2365TIP3    H1 7036   0.271   6.260   5.618
 2365TIP3    H2 7037   0.166   6.178   5.689
 2366TIP3   OH2 7038   0.491   3.078   3.233
 2366TIP3    H1 7039   0.469   3.025   3.310
 2366TIP3    H2 7040   0.488   3.017   3.160
 2367TIP3   OH2 7041   1.543   1.433   6.684
 2367TIP3    H1 7042   1.615   1.370   6.671
 2367TIP3    H2 7043   1.533   1.475   6.599
 2368TIP3   OH2 7044   4.047   2.920   6.667
 2368TIP3    H1 7045   4.089   2.920   6.582
 2368TIP3    H2 7046   4.054   3.011   6.697
 2369TIP3   OH2 7047   5.905   4.085   6.522
 2369TIP3    H1 7048   5.944   4.171   6.534
 2369TIP3    H2 7049   5.951   4.028   6.584
 2370TIP3   OH2 7050   3.478   4.455   1.283
 2370TIP3    H1 7051   3.505   4.367   1.310
 2370TIP3    H2 7052   3.439   4.443   1.197
 2371TIP3   OH2 7053   6.997   0.253   6.130
 2371TIP3    H1 7054   6.936   0.200   6.181
 2371TIP3    H2 7055   7.061   0.283   6.193
 2372TIP3   OH2 7056   4.230   2.568   4.297
 2372TIP3    H1 7057   4.198   2.490   4.252
 2372TIP3    H2 7058   4.163   2.634   4.280
 2373TIP3   OH2 7059   2.068   7.618   1.125
 2373TIP3    H1 7060   2.009   7.687   1.095
 2373TIP3    H2 7061   2.156   7.652   1.107
 2374TIP3   OH2 7062   2.760   1.332   6.453
 2374TIP3    H1 7063   2.811   1.296   6.381
 2374TIP3    H2 7064   2.816   1.320   6.530
 2375TIP3   OH2 7065   4.680   1.584   5.280
 2375TIP3    H1 7066   4.645   1.666   5.315
 2375TIP3    H2 7067   4.671   1.521   5.352
 2376TIP3   OH2 7068   1.398   5.915   3.437
 2376TIP3    H1 7069   1.388   5.858   3.513
 2376TIP3    H2 7070   1.492   5.916   3.419
 2377TIP3   OH2 7071   3.836   3.609   2.103
 2377TIP3    H1 7072   3.769   3.543   2.087
 2377TIP3    H2 7073   3.802   3.688   2.061
 2378TIP3   OH2 7074   0.659   0.265   0.895
 2378TIP3    H1 7075   0.608   0.233   0.821
 2378TIP3    H2 7076   0.595   0.311   0.951
 2379TIP3   OH2 7077   5.646   0.358   1.061
 2379TIP3    H1 7078   5.589   0.399   0.997
 2379TIP3    H2 7079   5.603   0.276   1.084
 2380TIP3   OH2 7080   5.038   2.539   0.446
 2380TIP3    H1 7081   5.054   2.539   0.541
 2380TIP3    H2 7082   5.125   2.524   0.408
 2381TIP3   OH2 7083   2.433   7.261   0.536
 2381TIP3    H1 7084   2.442   7.357   0.534
 2381TIP3    H2 7085   2.513   7.231   0.578
 2382TIP3   OH2 7086   5.046   4.098   1.857
 2382TIP3    H1 7087   5.088   4.167   1.909
 2382TIP3    H2 7088   5.053   4.128   1.767
 2383TIP3   OH2 7089   6.762   4.951   0.680
 2383TIP3    H1 7090   6.779   5.039   0.645
 2383TIP3    H2 7091   6.764   4.962   0.775
 2384TIP3   OH2 7092   4.822   7.602   3.019
 2384TIP3    H1 7093   4.773   7.674   3.060
 2384TIP3    H2 7094   4.757   7.533   3.006
 2385TIP3   OH2 7095   0.759   4.587   6.375
 2385TIP3    H1 7096   0.848   4.621   6.365
 2385TIP3    H2 7097   0.705   4.645   6.322
 2386TIP3   OH2 7098   2.005   3.524   6.165
 2386TIP3    H1 7099   2.066   3.477   6.108
 2386TIP3    H2 7100   2.046   3.519   6.252
 2387TIP3   OH2 7101   6.129   6.047   2.269
 2387TIP3    H1 7102   6.077   5.987   2.322
 2387TIP3    H2 7103   6.092   6.134   2.288
 2388TIP3   OH2 7104   2.367   3.843   0.990
 2388TIP3    H1 7105   2.394   3.896   0.914
 2388TIP3    H2 7106   2.446   3.795   1.015
 2389TIP3   OH2 7107   2.573   2.988   6.457
 2389TIP3    H1 7108   2.589   3.002   6.364
 2389TIP3    H2 7109   2.631   3.051   6.501
 2390TIP3   OH2 7110   0.790   2.030   4.596
 2390TIP3    H1 7111   0.842   2.004   4.520
 2390TIP3    H2 7112   0.849   2.086   4.647
 2391TIP3   OH2 7113   6.971   3.033   0.537
 2391TIP3    H1 7114   6.898   2.981   0.569
 2391TIP3    H2 7115   7.048   2.979   0.552
 2392TIP3   OH2 7116   7.972   2.639   4.405
 2392TIP3    H1 7117   8.041   2.694   4.368
 2392TIP3    H2 7118   7.948   2.579   4.335
 2393TIP3   OH2 7119   0.223   2.058   4.348
 2393TIP3    H1 7120   0.239   1.965   4.330
 2393TIP3    H2 7121   0.282   2.104   4.288
 2394TIP3   OH2 7122   4.653   6.662   3.207
 2394TIP3    H1 7123   4.737   6.695   3.241
 2394TIP3    H2 7124   4.619   6.607   3.278
 2395TIP3   OH2 7125   0.230   0.152   6.284
 2395TIP3    H1 7126   0.263   0.236   6.253
 2395TIP3    H2 7127   0.166   0.125   6.219
 2396TIP3   OH2 7128   3.586   1.341   2.851
 2396TIP3    H1 7129   3.594   1.263   2.907
 2396TIP3    H2 7130   3.589   1.307   2.762
 2397TIP3   OH2 7131   4.128   2.540   6.894
 2397TIP3    H1 7132   4.038   2.532   6.863
 2397TIP3    H2 7133   4.178   2.565   6.816
 2398TIP3   OH2 7134   0.403   4.614   5.501
 2398TIP3    H1 7135   0.485   4.587   5.543
 2398TIP3    H2 7136   0.427   4.630   5.410
 2399TIP3   OH2 7137   6.226   4.986   4.853
 2399TIP3    H1 7138   6.161   4.976   4.784
 2399TIP3    H2 7139   6.275   4.904   4.852
 2400TIP3   OH2 7140   5.267   5.585   2.177
 2400TIP3    H1 7141   5.202   5.579   2.107
 2400TIP3    H2 7142   5.336   5.642   2.142
 2401TIP3   OH2 7143   8.394   7.678   3.442
 2401TIP3    H1 7144   8.341   7.758   3.448
 2401TIP3    H2 7145   8.463   7.700   3.379
 2402TIP3   OH2 7146   2.687   1.497   2.999
 2402TIP3    H1 7147   2.638   1.548   3.063
 2402TIP3    H2 7148   2.620   1.450   2.950
 2403TIP3   OH2 7149   4.405   7.260   5.333
 2403TIP3    H1 7150   4.310   7.244   5.334
 2403TIP3    H2 7151   4.436   7.217   5.254
 2404TIP3   OH2 7152   5.410   1.095   4.531
 2404TIP3    H1 7153   5.440   1.177   4.571
 2404TIP3    H2 7154   5.429   1.028   4.596
 2405TIP3   OH2 7155   0.550   0.054   3.558
 2405TIP3    H1 7156   0.633   0.070   3.604
 2405TIP3    H2 7157   0.536  -0.040   3.565
 2406TIP3   OH2 7158   7.689   2.385   3.527
 2406TIP3    H1 7159   7.605   2.344   3.506
 2406TIP3    H2 7160   7.752   2.337   3.473
 2407TIP3   OH2 7161   7.331   1.844   5.370
 2407TIP3    H1 7162   7.258   1.822   5.428
 2407TIP3    H2 7163   7.323   1.939   5.356
 2408TIP3   OH2 7164   2.876   4.621   1.551
 2408TIP3    H1 7165   2.886   4.568   1.472
 2408TIP3    H2 7166   2.806   4.683   1.530
 2409TIP3   OH2 7167   0.073   0.371   3.444
 2409TIP3    H1 7168   0.026   0.448   3.475
 2409TIP3    H2 7169   0.103   0.327   3.524
 2410TIP3   OH2 7170   7.270   5.495   4.529
 2410TIP3    H1 7171   7.246   5.488   4.622
 2410TIP3    H2 7172   7.248   5.585   4.506
 2411TIP3   OH2 7173   5.308   5.223   3.857
 2411TIP3    H1 7174   5.262   5.237   3.940
 2411TIP3    H2 7175   5.240   5.231   3.790
 2412TIP3   OH2 7176   0.856   1.813   0.063
 2412TIP3    H1 7177   0.832   1.778   0.148
 2412TIP3    H2 7178   0.779   1.799   0.008
 2413TIP3   OH2 7179   4.517   0.410   1.349
 2413TIP3    H1 7180   4.464   0.369   1.417
 2413TIP3    H2 7181   4.565   0.337   1.309
 2414TIP3   OH2 7182   1.321   5.589   2.432
 2414TIP3    H1 7183   1.383   5.652   2.394
 2414TIP3    H2 7184   1.319   5.611   2.525
 2415TIP3   OH2 7185   2.939   7.402   6.163
 2415TIP3    H1 7186   2.855   7.357   6.175
 2415TIP3    H2 7187   2.992   7.375   6.237
 2416TIP3   OH2 7188   4.339   7.259   3.090
 2416TIP3    H1 7189   4.284   7.268   3.012
 2416TIP3    H2 7190   4.309   7.179   3.132
 2417TIP3   OH2 7191   5.197   1.037   0.376
 2417TIP3    H1 7192   5.115   1.077   0.407
 2417TIP3    H2 7193   5.195   0.949   0.412
 2418TIP3   OH2 7194   2.657   4.275   2.062
 2418TIP3    H1 7195   2.709   4.291   2.140
 2418TIP3    H2 7196   2.638   4.363   2.027
 2419TIP3   OH2 7197   3.752   0.245   6.137
 2419TIP3    H1 7198   3.685   0.198   6.186
 2419TIP3    H2 7199   3.835   0.208   6.167
 2420TIP3   OH2 7200   2.941   6.180   3.752
 2420TIP3    H1 7201   2.923   6.104   3.807
 2420TIP3    H2 7202   2.954   6.252   3.814
 2421TIP3   OH2 7203   6.291   4.313   0.969
 2421TIP3    H1 7204   6.313   4.380   0.904
 2421TIP3    H2 7205   6.365   4.313   1.029
 2422TIP3   OH2 7206   5.261   6.544   2.119
 2422TIP3    H1 7207   5.354   6.568   2.123
 2422TIP3    H2 7208   5.215   6.627   2.124
 2423TIP3   OH2 7209   4.365   5.545   4.321
 2423TIP3    H1 7210   4.410   5.615   4.369
 2423TIP3    H2 7211   4.410   5.465   4.346
 2424TIP3   OH2 7212   7.601   1.719   6.790
 2424TIP3    H1 7213   7.654   1.777   6.736
 2424TIP3    H2 7214   7.664   1.665   6.838
 2425TIP3   OH2 7215   8.388   5.875   6.161
 2425TIP3    H1 7216   8.319   5.917   6.111
 2425TIP3    H2 7217   8.437   5.948   6.200
 2426TIP3   OH2 7218   6.230   2.207   4.297
 2426TIP3    H1 7219   6.290   2.273   4.260
 2426TIP3    H2 7220   6.238   2.132   4.237
 2427TIP3   OH2 7221   3.866   2.749   4.913
 2427TIP3    H1 7222   3.832   2.824   4.864
 2427TIP3    H2 7223   3.947   2.725   4.867
 2428TIP3   OH2 7224   5.474   5.018   1.251
 2428TIP3    H1 7225   5.420   4.968   1.312
 2428TIP3    H2 7226   5.555   5.035   1.299
 2429TIP3   OH2 7227   6.614   6.518   6.122
 2429TIP3    H1 7228   6.686   6.492   6.066
 2429TIP3    H2 7229   6.603   6.445   6.183
 2430TIP3   OH2 7230   2.559   1.391   1.175
 2430TIP3    H1 7231   2.534   1.312   1.221
 2430TIP3    H2 7232   2.481   1.416   1.125
 2431TIP3   OH2 7233   7.454   7.063   1.668
 2431TIP3    H1 7234   7.361   7.039   1.669
 2431TIP3    H2 7235   7.455   7.153   1.702
 2432TIP3   OH2 7236   3.090   4.546   3.188
 2432TIP3    H1 7237   3.168   4.517   3.234
 2432TIP3    H2 7238   3.060   4.468   3.141
 2433TIP3   OH2 7239   6.702   7.676   1.419
 2433TIP3    H1 7240   6.669   7.685   1.330
 2433TIP3    H2 7241   6.788   7.719   1.417
 2434TIP3   OH2 7242   2.498   1.884   5.989
 2434TIP3    H1 7243   2.555   1.808   5.976
 2434TIP3    H2 7244   2.410   1.846   5.990
 2435TIP3   OH2 7245   6.898   7.014   2.658
 2435TIP3    H1 7246   6.913   7.011   2.753
 2435TIP3    H2 7247   6.813   7.055   2.649
 2436TIP3   OH2 7248   0.582   3.281   4.594
 2436TIP3    H1 7249   0.645   3.276   4.522
 2436TIP3    H2 7250   0.550   3.192   4.605
 2437TIP3   OH2 7251   7.186   7.387   5.511
 2437TIP3    H1 7252   7.192   7.475   5.548
 2437TIP3    H2 7253   7.117   7.344   5.562
 2438TIP3   OH2 7254   7.856   3.546   2.926
 2438TIP3    H1 7255   7.918   3.522   2.858
 2438TIP3    H2 7256   7.854   3.471   2.985
 2439TIP3   OH2 7257   7.945   1.379   0.255
 2439TIP3    H1 7258   8.034   1.392   0.221
 2439TIP3    H2 7259   7.891   1.440   0.204
 2440TIP3   OH2 7260   0.672   0.357   4.064
 2440TIP3    H1 7261   0.610   0.294   4.100
 2440TIP3    H2 7262   0.747   0.354   4.124
 2441TIP3   OH2 7263   7.307   6.887   2.262
 2441TIP3    H1 7264   7.247   6.937   2.207
 2441TIP3    H2 7265   7.274   6.898   2.351
 2442TIP3   OH2 7266   2.061   2.862   6.146
 2442TIP3    H1 7267   2.113   2.942   6.151
 2442TIP3    H2 7268   2.104   2.801   6.206
 2443TIP3   OH2 7269   3.983   2.292   4.414
 2443TIP3    H1 7270   3.951   2.206   4.439
 2443TIP3    H2 7271   4.000   2.337   4.497
 2444TIP3   OH2 7272   2.860   3.077   5.033
 2444TIP3    H1 7273   2.862   2.983   5.019
 2444TIP3    H2 7274   2.928   3.094   5.099
 2445TIP3   OH2 7275   6.220   2.561   6.581
 2445TIP3    H1 7276   6.149   2.529   6.637
 2445TIP3    H2 7277   6.175   2.609   6.511
 2446TIP3   OH2 7278   4.684   5.100   6.045
 2446TIP3    H1 7279   4.691   5.160   6.119
 2446TIP3    H2 7280   4.720   5.148   5.971
 2447TIP3   OH2 7281   5.530   4.621   3.721
 2447TIP3    H1 7282   5.552   4.548   3.663
 2447TIP3    H2 7283   5.456   4.590   3.772
 2448TIP3   OH2 7284   5.222   4.985   0.892
 2448TIP3    H1 7285   5.262   5.071   0.905
 2448TIP3    H2 7286   5.283   4.938   0.835
 2449TIP3   OH2 7287   7.854   5.154   3.605
 2449TIP3    H1 7288   7.934   5.199   3.634
 2449TIP3    H2 7289   7.813   5.123   3.686
 2450TIP3   OH2 7290   3.176   2.084   1.888
 2450TIP3    H1 7291   3.129   2.007   1.855
 2450TIP3    H2 7292   3.218   2.054   1.968
 2451TIP3   OH2 7293   5.248   4.320   1.956
 2451TIP3    H1 7294   5.214   4.407   1.976
 2451TIP3    H2 7295   5.342   4.326   1.974
 2452TIP3   OH2 7296   7.197   4.815   1.608
 2452TIP3    H1 7297   7.279   4.781   1.574
 2452TIP3    H2 7298   7.207   4.812   1.703
 2453TIP3   OH2 7299   0.816   6.496   0.281
 2453TIP3    H1 7300   0.724   6.501   0.255
 2453TIP3    H2 7301   0.823   6.554   0.357
 2454TIP3   OH2 7302   7.990   0.150   1.383
 2454TIP3    H1 7303   8.085   0.145   1.395
 2454TIP3    H2 7304   7.953   0.124   1.467
 2455TIP3   OH2 7305   2.000   0.456   5.690
 2455TIP3    H1 7306   1.995   0.547   5.720
 2455TIP3    H2 7307   1.940   0.408   5.747
 2456TIP3   OH2 7308   2.098   5.272   6.849
 2456TIP3    H1 7309   2.087   5.360   6.812
 2456TIP3    H2 7310   2.191   5.253   6.838
 2457TIP3   OH2 7311   3.265   2.113   1.058
 2457TIP3    H1 7312   3.185   2.160   1.083
 2457TIP3    H2 7313   3.234   2.030   1.022
 2458TIP3   OH2 7314   3.690   6.329   4.624
 2458TIP3    H1 7315   3.750   6.394   4.587
 2458TIP3    H2 7316   3.719   6.246   4.585
 2459TIP3   OH2 7317   2.192   1.517   0.017
 2459TIP3    H1 7318   2.112   1.493  -0.030
 2459TIP3    H2 7319   2.160   1.556   0.099
 2460TIP3   OH2 7320   3.460   1.922   6.116
 2460TIP3    H1 7321   3.469   1.974   6.195
 2460TIP3    H2 7322   3.367   1.901   6.111
 2461TIP3   OH2 7323   6.943   3.644   0.839
 2461TIP3    H1 7324   7.011   3.589   0.877
 2461TIP3    H2 7325   6.982   3.731   0.834
 2462TIP3   OH2 7326   6.152   6.091   2.832
 2462TIP3    H1 7327   6.196   6.102   2.747
 2462TIP3    H2 7328   6.174   6.001   2.858
 2463TIP3   OH2 7329   2.154   5.005   1.926
 2463TIP3    H1 7330   2.235   4.964   1.957
 2463TIP3    H2 7331   2.171   5.025   1.835
 2464TIP3   OH2 7332   7.373   5.846   6.367
 2464TIP3    H1 7333   7.294   5.892   6.396
 2464TIP3    H2 7334   7.433   5.851   6.442
 2465TIP3   OH2 7335   5.126   5.849   1.828
 2465TIP3    H1 7336   5.187   5.914   1.862
 2465TIP3    H2 7337   5.113   5.873   1.736
 2466TIP3   OH2 7338   0.737   2.276   1.588
 2466TIP3    H1 7339   0.769   2.241   1.504
 2466TIP3    H2 7340   0.755   2.207   1.651
 2467TIP3   OH2 7341   4.027   1.482   2.744
 2467TIP3    H1 7342   3.984   1.463   2.827
 2467TIP3    H2 7343   4.078   1.561   2.761
 2468TIP3   OH2 7344   4.755   4.016   5.079
 2468TIP3    H1 7345   4.741   4.006   4.985
 2468TIP3    H2 7346   4.784   3.930   5.108
 2469TIP3   OH2 7347   4.424   4.801   0.882
 2469TIP3    H1 7348   4.395   4.865   0.946
 2469TIP3    H2 7349   4.361   4.808   0.810
 2470TIP3   OH2 7350   3.008   5.287   0.800
 2470TIP3    H1 7351   2.966   5.257   0.719
 2470TIP3    H2 7352   2.993   5.217   0.863
 2471TIP3   OH2 7353   6.294   5.675   4.448
 2471TIP3    H1 7354   6.199   5.667   4.450
 2471TIP3    H2 7355   6.317   5.713   4.533
 2472TIP3   OH2 7356   6.808   1.202   3.844
 2472TIP3    H1 7357   6.740   1.264   3.817
 2472TIP3    H2 7358   6.759   1.130   3.885
 2473TIP3   OH2 7359   7.381   5.968   1.337
 2473TIP3    H1 7360   7.376   6.037   1.403
 2473TIP3    H2 7361   7.462   5.986   1.289
 2474TIP3   OH2 7362   5.029   0.329   0.279
 2474TIP3    H1 7363   4.938   0.298   0.279
 2474TIP3    H2 7364   5.028   0.406   0.335
 2475TIP3   OH2 7365   2.586   4.909   0.890
 2475TIP3    H1 7366   2.632   4.876   0.967
 2475TIP3    H2 7367   2.591   5.004   0.898
 2476TIP3   OH2 7368   0.270   3.771   3.650
 2476TIP3    H1 7369   0.272   3.768   3.746
 2476TIP3    H2 7370   0.205   3.706   3.624
 2477TIP3   OH2 7371   1.399   0.715   5.286
 2477TIP3    H1 7372   1.464   0.704   5.356
 2477TIP3    H2 7373   1.417   0.643   5.225
 2478TIP3   OH2 7374   3.438   7.355   0.402
 2478TIP3    H1 7375   3.416   7.407   0.324
 2478TIP3    H2 7376   3.531   7.373   0.417
 2479TIP3   OH2 7377   1.378   7.074   3.027
 2479TIP3    H1 7378   1.383   6.978   3.024
 2479TIP3    H2 7379   1.370   7.094   3.120
 2480TIP3   OH2 7380   5.633   3.873   3.254
 2480TIP3    H1 7381   5.659   3.809   3.320
 2480TIP3    H2 7382   5.553   3.836   3.216
 2481TIP3   OH2 7383   3.524   3.766   0.005
 2481TIP3    H1 7384   3.461   3.739   0.072
 2481TIP3    H2 7385   3.490   3.730  -0.076
 2482TIP3   OH2 7386   0.376   7.780   3.846
 2482TIP3    H1 7387   0.453   7.836   3.848
 2482TIP3    H2 7388   0.320   7.817   3.778
 2483TIP3   OH2 7389   0.993   7.446   0.536
 2483TIP3    H1 7390   0.982   7.522   0.478
 2483TIP3    H2 7391   0.904   7.428   0.568
 2484TIP3   OH2 7392   4.687   7.343   1.487
 2484TIP3    H1 7393   4.782   7.336   1.490
 2484TIP3    H2 7394   4.658   7.264   1.440
 2485TIP3   OH2 7395   6.427   5.265   1.075
 2485TIP3    H1 7396   6.476   5.267   0.993
 2485TIP3    H2 7397   6.359   5.332   1.064
 2486TIP3   OH2 7398   2.019   7.065   1.600
 2486TIP3    H1 7399   2.048   7.105   1.682
 2486TIP3    H2 7400   1.971   7.135   1.554
 2487TIP3   OH2 7401   3.179   2.472   3.687
 2487TIP3    H1 7402   3.113   2.523   3.733
 2487TIP3    H2 7403   3.146   2.464   3.598
 2488TIP3   OH2 7404   7.195   0.190   1.875
 2488TIP3    H1 7405   7.104   0.215   1.857
 2488TIP3    H2 7406   7.243   0.214   1.796
 2489TIP3   OH2 7407   4.041   1.421   1.900
 2489TIP3    H1 7408   4.094   1.341   1.891
 2489TIP3    H2 7409   3.973   1.413   1.834
 2490TIP3   OH2 7410   4.355   7.117   5.036
 2490TIP3    H1 7411   4.299   7.194   5.028
 2490TIP3    H2 7412   4.303   7.045   4.999
 2491TIP3   OH2 7413   7.103   0.539   2.889
 2491TIP3    H1 7414   7.107   0.464   2.949
 2491TIP3    H2 7415   7.043   0.511   2.820
 2492TIP3   OH2 7416   8.170   1.248   4.011
 2492TIP3    H1 7417   8.086   1.214   4.043
 2492TIP3    H2 7418   8.235   1.188   4.047
 2493TIP3   OH2 7419   5.433   1.383   3.516
 2493TIP3    H1 7420   5.403   1.301   3.476
 2493TIP3    H2 7421   5.472   1.356   3.599
 2494TIP3   OH2 7422   6.911   6.761   2.489
 2494TIP3    H1 7423   6.891   6.693   2.554
 2494TIP3    H2 7424   6.920   6.841   2.541
 2495TIP3   OH2 7425   5.762   5.982   6.023
 2495TIP3    H1 7426   5.830   5.961   6.087
 2495TIP3    H2 7427   5.762   5.908   5.962
 2496TIP3   OH2 7428   0.370   0.629   0.256
 2496TIP3    H1 7429   0.298   0.566   0.254
 2496TIP3    H2 7430   0.335   0.706   0.301
 2497TIP3   OH2 7431   5.674   7.276   5.391
 2497TIP3    H1 7432   5.658   7.237   5.476
 2497TIP3    H2 7433   5.724   7.356   5.410
 2498TIP3   OH2 7434   2.877   7.086   6.069
 2498TIP3    H1 7435   2.803   7.135   6.106
 2498TIP3    H2 7436   2.869   6.999   6.108
 2499TIP3   OH2 7437   6.009   2.038   0.707
 2499TIP3    H1 7438   6.085   2.081   0.746
 2499TIP3    H2 7439   6.046   1.972   0.648
 2500TIP3   OH2 7440   4.356   7.362   1.549
 2500TIP3    H1 7441   4.270   7.395   1.522
 2500TIP3    H2 7442   4.392   7.322   1.470
 2501TIP3   OH2 7443   1.862   0.488   5.447
 2501TIP3    H1 7444   1.909   0.464   5.527
 2501TIP3    H2 7445   1.920   0.462   5.376
 2502TIP3   OH2 7446   3.160   1.679   6.390
 2502TIP3    H1 7447   3.079   1.640   6.423
 2502TIP3    H2 7448   3.186   1.741   6.458
 2503TIP3   OH2 7449   0.716   5.998   2.919
 2503TIP3    H1 7450   0.652   6.024   2.985
 2503TIP3    H2 7451   0.669   5.938   2.862
 2504TIP3   OH2 7452   1.741   0.604   6.378
 2504TIP3    H1 7453   1.651   0.620   6.406
 2504TIP3    H2 7454   1.733   0.561   6.293
 2505TIP3   OH2 7455   3.991   0.065   6.261
 2505TIP3    H1 7456   4.004   0.142   6.316
 2505TIP3    H2 7457   4.035  -0.006   6.309
 2506TIP3   OH2 7458   2.628   7.019   4.712
 2506TIP3    H1 7459   2.599   6.937   4.672
 2506TIP3    H2 7460   2.713   6.998   4.752
 2507TIP3   OH2 7461   0.205   7.800   6.740
 2507TIP3    H1 7462   0.224   7.764   6.826
 2507TIP3    H2 7463   0.155   7.880   6.758
 2508TIP3   OH2 7464   3.750   5.316   4.799
 2508TIP3    H1 7465   3.812   5.342   4.731
 2508TIP3    H2 7466   3.779   5.364   4.877
 2509TIP3   OH2 7467   3.361   4.550   3.284
 2509TIP3    H1 7468   3.415   4.486   3.236
 2509TIP3    H2 7469   3.407   4.562   3.367
 2510TIP3   OH2 7470   6.704   7.150   1.374
 2510TIP3    H1 7471   6.680   7.078   1.432
 2510TIP3    H2 7472   6.789   7.180   1.406
 2511TIP3   OH2 7473   1.868   5.708   6.562
 2511TIP3    H1 7474   1.803   5.657   6.611
 2511TIP3    H2 7475   1.869   5.668   6.475
 2512TIP3   OH2 7476   5.908   5.869   4.930
 2512TIP3    H1 7477   5.902   5.956   4.969
 2512TIP3    H2 7478   5.975   5.824   4.981
 2513TIP3   OH2 7479   3.678   7.068   5.267
 2513TIP3    H1 7480   3.619   7.138   5.237
 2513TIP3    H2 7481   3.691   7.014   5.189
 2514TIP3   OH2 7482   7.299   2.502   3.808
 2514TIP3    H1 7483   7.313   2.412   3.780
 2514TIP3    H2 7484   7.260   2.545   3.732
 2515TIP3   OH2 7485   8.073   6.823   5.356
 2515TIP3    H1 7486   8.060   6.901   5.411
 2515TIP3    H2 7487   8.140   6.772   5.402
 2516TIP3   OH2 7488   1.015   6.812   4.840
 2516TIP3    H1 7489   0.937   6.856   4.874
 2516TIP3    H2 7490   1.060   6.879   4.789
 2517TIP3   OH2 7491   2.312   5.208   3.554
 2517TIP3    H1 7492   2.296   5.301   3.572
 2517TIP3    H2 7493   2.405   5.196   3.569
 2518TIP3   OH2 7494   6.709   2.379   6.408
 2518TIP3    H1 7495   6.653   2.433   6.352
 2518TIP3    H2 7496   6.663   2.377   6.492
 2519TIP3   OH2 7497   5.034   7.672   2.218
 2519TIP3    H1 7498   5.044   7.739   2.150
 2519TIP3    H2 7499   4.946   7.637   2.204
 2520TIP3   OH2 7500   0.705   6.904   2.774
 2520TIP3    H1 7501   0.670   6.993   2.767
 2520TIP3    H2 7502   0.654   6.865   2.846
 2521TIP3   OH2 7503   0.828   5.834   4.367
 2521TIP3    H1 7504   0.860   5.744   4.361
 2521TIP3    H2 7505   0.841   5.869   4.279
 2522TIP3   OH2 7506   3.482   5.328   4.738
 2522TIP3    H1 7507   3.485   5.422   4.720
 2522TIP3    H2 7508   3.572   5.305   4.761
 2523TIP3   OH2 7509   5.387   6.492   3.153
 2523TIP3    H1 7510   5.439   6.572   3.161
 2523TIP3    H2 7511   5.319   6.501   3.220
 2524TIP3   OH2 7512   2.342   4.356   5.646
 2524TIP3    H1 7513   2.258   4.362   5.691
 2524TIP3    H2 7514   2.407   4.374   5.715
 2525TIP3   OH2 7515   4.443   4.498   3.881
 2525TIP3    H1 7516   4.370   4.440   3.899
 2525TIP3    H2 7517   4.521   4.442   3.890
 2526TIP3   OH2 7518   5.015   3.629   2.543
 2526TIP3    H1 7519   5.047   3.543   2.515
 2526TIP3    H2 7520   5.091   3.670   2.586
 2527TIP3   OH2 7521   8.409   0.305   1.896
 2527TIP3    H1 7522   8.370   0.224   1.864
 2527TIP3    H2 7523   8.337   0.350   1.941
 2528TIP3   OH2 7524   1.712   4.745   2.352
 2528TIP3    H1 7525   1.792   4.737   2.403
 2528TIP3    H2 7526   1.720   4.830   2.308
 2529TIP3   OH2 7527   5.300   3.617   5.416
 2529TIP3    H1 7528   5.328   3.649   5.502
 2529TIP3    H2 7529   5.379   3.577   5.379
 2530TIP3   OH2 7530   7.454   0.563   6.525
 2530TIP3    H1 7531   7.370   0.518   6.520
 2530TIP3    H2 7532   7.431   0.655   6.544
 2531TIP3   OH2 7533   2.575   5.207   3.622
 2531TIP3    H1 7534   2.627   5.261   3.561
 2531TIP3    H2 7535   2.620   5.216   3.706
 2532TIP3   OH2 7536   1.687   6.000   5.449
 2532TIP3    H1 7537   1.771   5.957   5.436
 2532TIP3    H2 7538   1.622   5.935   5.423
 2533TIP3   OH2 7539   1.023   5.271   1.495
 2533TIP3    H1 7540   1.017   5.275   1.590
 2533TIP3    H2 7541   0.940   5.308   1.465
 2534TIP3   OH2 7542   4.472   3.196   4.420
 2534TIP3    H1 7543   4.512   3.151   4.494
 2534TIP3    H2 7544   4.516   3.159   4.343
 2535TIP3   OH2 7545   6.399   2.246   0.460
 2535TIP3    H1 7546   6.389   2.330   0.415
 2535TIP3    H2 7547   6.483   2.254   0.505
 2536TIP3   OH2 7548   3.774   7.824   2.254
 2536TIP3    H1 7549   3.735   7.737   2.262
 2536TIP3    H2 7550   3.848   7.812   2.194
 2537TIP3   OH2 7551   6.228   7.271   6.712
 2537TIP3    H1 7552   6.214   7.312   6.797
 2537TIP3    H2 7553   6.140   7.256   6.678
 2538TIP3   OH2 7554   0.751   0.179   1.498
 2538TIP3    H1 7555   0.712   0.187   1.585
 2538TIP3    H2 7556   0.755   0.085   1.482
 2539TIP3   OH2 7557   4.739   1.167   4.991
 2539TIP3    H1 7558   4.714   1.100   5.054
 2539TIP3    H2 7559   4.786   1.120   4.922
 2540TIP3   OH2 7560   1.266   2.340   2.519
 2540TIP3    H1 7561   1.314   2.322   2.438
 2540TIP3    H2 7562   1.198   2.403   2.493
 2541TIP3   OH2 7563   8.248   6.963   0.556
 2541TIP3    H1 7564   8.290   6.877   0.549
 2541TIP3    H2 7565   8.205   6.962   0.641
 2542TIP3   OH2 7566   7.029   5.653   4.576
 2542TIP3    H1 7567   6.946   5.609   4.559
 2542TIP3    H2 7568   7.072   5.659   4.491
 2543TIP3   OH2 7569   5.890   7.050   3.705
 2543TIP3    H1 7570   5.926   7.139   3.702
 2543TIP3    H2 7571   5.879   7.026   3.613
 2544TIP3   OH2 7572   5.653   3.929   0.928
 2544TIP3    H1 7573   5.709   3.861   0.890
 2544TIP3    H2 7574   5.618   3.976   0.852
 2545TIP3   OH2 7575   7.412   2.069   1.471
 2545TIP3    H1 7576   7.406   2.163   1.455
 2545TIP3    H2 7577   7.392   2.028   1.387
 2546TIP3   OH2 7578   7.295   1.429   2.231
 2546TIP3    H1 7579   7.374   1.375   2.230
 2546TIP3    H2 7580   7.270   1.436   2.139
 2547TIP3   OH2 7581   2.262   1.127   5.525
 2547TIP3    H1 7582   2.183   1.147   5.576
 2547TIP3    H2 7583   2.241   1.047   5.478
 2548TIP3   OH2 7584   7.751   5.739   1.102
 2548TIP3    H1 7585   7.758   5.814   1.161
 2548TIP3    H2 7586   7.749   5.776   1.015
 2549TIP3   OH2 7587   6.897   1.241   1.934
 2549TIP3    H1 7588   6.972   1.216   1.880
 2549TIP3    H2 7589   6.853   1.158   1.953
 2550TIP3   OH2 7590   1.444   1.621   3.237
 2550TIP3    H1 7591   1.456   1.547   3.178
 2550TIP3    H2 7592   1.419   1.582   3.321
 2551TIP3   OH2 7593   6.333   1.216   1.296
 2551TIP3    H1 7594   6.356   1.219   1.203
 2551TIP3    H2 7595   6.238   1.212   1.297
 2552TIP3   OH2 7596   2.451   6.078   3.107
 2552TIP3    H1 7597   2.534   6.101   3.151
 2552TIP3    H2 7598   2.386   6.133   3.151
 2553TIP3   OH2 7599   7.265   0.794   1.064
 2553TIP3    H1 7600   7.192   0.748   1.024
 2553TIP3    H2 7601   7.282   0.868   1.007
 2554TIP3   OH2 7602   0.285   4.158   4.396
 2554TIP3    H1 7603   0.191   4.145   4.405
 2554TIP3    H2 7604   0.296   4.252   4.384
 2555TIP3   OH2 7605   3.482   7.517   0.999
 2555TIP3    H1 7606   3.403   7.564   0.973
 2555TIP3    H2 7607   3.484   7.525   1.095
 2556TIP3   OH2 7608   8.333   0.209   1.141
 2556TIP3    H1 7609   8.359   0.220   1.232
 2556TIP3    H2 7610   8.312   0.298   1.111
 2557TIP3   OH2 7611   8.046   4.580   5.501
 2557TIP3    H1 7612   8.023   4.549   5.588
 2557TIP3    H2 7613   8.010   4.515   5.441
 2558TIP3   OH2 7614   3.346   2.278   1.794
 2558TIP3    H1 7615   3.409   2.269   1.866
 2558TIP3    H2 7616   3.288   2.203   1.803
 2559TIP3   OH2 7617   1.290   7.538   6.355
 2559TIP3    H1 7618   1.232   7.470   6.389
 2559TIP3    H2 7619   1.280   7.533   6.259
 2560TIP3   OH2 7620   1.719   0.364   0.254
 2560TIP3    H1 7621   1.693   0.455   0.271
 2560TIP3    H2 7622   1.643   0.324   0.212
 2561TIP3   OH2 7623   6.411   2.472   6.376
 2561TIP3    H1 7624   6.347   2.530   6.416
 2561TIP3    H2 7625   6.467   2.442   6.448
 2562TIP3   OH2 7626   2.068   1.168   0.978
 2562TIP3    H1 7627   2.096   1.104   0.912
 2562TIP3    H2 7628   2.001   1.220   0.934
 2563TIP3   OH2 7629   2.542   2.409   4.501
 2563TIP3    H1 7630   2.617   2.457   4.537
 2563TIP3    H2 7631   2.473   2.475   4.492
 2564TIP3   OH2 7632   7.502   0.707   3.466
 2564TIP3    H1 7633   7.482   0.796   3.434
 2564TIP3    H2 7634   7.460   0.702   3.551
 2565TIP3   OH2 7635   3.664   3.916   2.994
 2565TIP3    H1 7636   3.643   3.891   2.904
 2565TIP3    H2 7637   3.580   3.945   3.031
 2566TIP3   OH2 7638   4.203   4.277   3.379
 2566TIP3    H1 7639   4.223   4.191   3.416
 2566TIP3    H2 7640   4.278   4.297   3.323
 2567TIP3   OH2 7641   4.589   4.663   3.019
 2567TIP3    H1 7642   4.630   4.721   2.955
 2567TIP3    H2 7643   4.634   4.579   3.008
 2568TIP3   OH2 7644   2.113   3.746   0.434
 2568TIP3    H1 7645   2.058   3.710   0.365
 2568TIP3    H2 7646   2.065   3.729   0.515
 2569TIP3   OH2 7647   3.024   3.920   1.309
 2569TIP3    H1 7648   3.086   3.849   1.291
 2569TIP3    H2 7649   3.069   3.999   1.278
 2570TIP3   OH2 7650   0.887   3.645   1.895
 2570TIP3    H1 7651   0.847   3.712   1.951
 2570TIP3    H2 7652   0.839   3.652   1.812
 2571TIP3   OH2 7653   0.620   7.910   3.213
 2571TIP3    H1 7654   0.649   7.894   3.123
 2571TIP3    H2 7655   0.643   8.001   3.230
 2572TIP3   OH2 7656   7.385   4.767   2.161
 2572TIP3    H1 7657   7.294   4.780   2.132
 2572TIP3    H2 7658   7.416   4.692   2.110
 2573TIP3   OH2 7659   1.217   1.584   2.175
 2573TIP3    H1 7660   1.175   1.516   2.227
 2573TIP3    H2 7661   1.229   1.657   2.237
 2574TIP3   OH2 7662   2.509   6.168   1.881
 2574TIP3    H1 7663   2.442   6.198   1.942
 2574TIP3    H2 7664   2.591   6.204   1.914
 2575TIP3   OH2 7665   7.725   3.554   4.613
 2575TIP3    H1 7666   7.700   3.622   4.550
 2575TIP3    H2 7667   7.724   3.473   4.563
 2576TIP3   OH2 7668   0.658   2.926   3.603
 2576TIP3    H1 7669   0.590   2.993   3.596
 2576TIP3    H2 7670   0.716   2.957   3.672
 2577TIP3   OH2 7671   0.855   3.497   3.155
 2577TIP3    H1 7672   0.785   3.437   3.179
 2577TIP3    H2 7673   0.867   3.553   3.232
 2578TIP3   OH2 7674   0.530   3.672   0.203
 2578TIP3    H1 7675   0.555   3.579   0.199
 2578TIP3    H2 7676   0.445   3.676   0.159
 2579TIP3   OH2 7677   1.545   4.445   6.545
 2579TIP3    H1 7678   1.465   4.421   6.499
 2579TIP3    H2 7679   1.613   4.444   6.478
 2580TIP3   OH2 7680   0.867   7.805   5.709
 2580TIP3    H1 7681   0.783   7.830   5.748
 2580TIP3    H2 7682   0.869   7.850   5.625
 2581TIP3   OH2 7683   4.998   7.061   6.730
 2581TIP3    H1 7684   4.966   6.971   6.727
 2581TIP3    H2 7685   5.010   7.080   6.823
 2582TIP3   OH2 7686   4.961   5.160   2.372
 2582TIP3    H1 7687   5.022   5.199   2.309
 2582TIP3    H2 7688   4.954   5.069   2.343
 2583TIP3   OH2 7689   1.251   5.033   5.426
 2583TIP3    H1 7690   1.334   4.986   5.432
 2583TIP3    H2 7691   1.233   5.040   5.332
 2584TIP3   OH2 7692   7.329   0.863   2.165
 2584TIP3    H1 7693   7.387   0.932   2.132
 2584TIP3    H2 7694   7.263   0.853   2.097
 2585TIP3   OH2 7695   2.242   3.546   5.992
 2585TIP3    H1 7696   2.313   3.528   6.053
 2585TIP3    H2 7697   2.230   3.641   5.997
 2586TIP3   OH2 7698   6.571   4.767   4.649
 2586TIP3    H1 7699   6.539   4.832   4.586
 2586TIP3    H2 7700   6.666   4.767   4.637
 2587TIP3   OH2 7701   2.418   1.174   1.983
 2587TIP3    H1 7702   2.439   1.156   1.892
 2587TIP3    H2 7703   2.378   1.261   1.982
 2588TIP3   OH2 7704   2.625   6.020   1.151
 2588TIP3    H1 7705   2.717   6.003   1.171
 2588TIP3    H2 7706   2.607   5.964   1.076
 2589TIP3   OH2 7707   4.925   1.657   5.216
 2589TIP3    H1 7708   4.949   1.671   5.125
 2589TIP3    H2 7709   4.837   1.619   5.212
 2590TIP3   OH2 7710   4.869   5.188   6.675
 2590TIP3    H1 7711   4.919   5.209   6.755
 2590TIP3    H2 7712   4.839   5.098   6.689
 2591TIP3   OH2 7713   6.066   4.118   3.183
 2591TIP3    H1 7714   6.030   4.150   3.265
 2591TIP3    H2 7715   5.990   4.091   3.132
 2592TIP3   OH2 7716   1.074   0.453   0.208
 2592TIP3    H1 7717   1.031   0.372   0.234
 2592TIP3    H2 7718   1.008   0.521   0.224
 2593TIP3   OH2 7719   6.970   3.957   3.532
 2593TIP3    H1 7720   6.977   3.866   3.500
 2593TIP3    H2 7721   6.902   3.996   3.477
 2594TIP3   OH2 7722   4.088   1.359   3.826
 2594TIP3    H1 7723   4.046   1.275   3.807
 2594TIP3    H2 7724   4.038   1.394   3.900
 2595TIP3   OH2 7725   8.296   4.329   4.593
 2595TIP3    H1 7726   8.269   4.263   4.657
 2595TIP3    H2 7727   8.298   4.411   4.643
 2596TIP3   OH2 7728   1.252   0.798   0.383
 2596TIP3    H1 7729   1.265   0.705   0.401
 2596TIP3    H2 7730   1.339   0.836   0.387
 2597TIP3   OH2 7731   7.392   0.366   0.422
 2597TIP3    H1 7732   7.369   0.457   0.441
 2597TIP3    H2 7733   7.486   0.361   0.441
 2598TIP3   OH2 7734   0.343   2.777   2.325
 2598TIP3    H1 7735   0.317   2.806   2.237
 2598TIP3    H2 7736   0.292   2.833   2.384
 2599TIP3   OH2 7737   1.428   5.052   3.876
 2599TIP3    H1 7738   1.403   5.093   3.793
 2599TIP3    H2 7739   1.487   5.115   3.917
 2600TIP3   OH2 7740   5.635   6.156   4.479
 2600TIP3    H1 7741   5.691   6.181   4.406
 2600TIP3    H2 7742   5.696   6.133   4.549
 2601TIP3   OH2 7743   7.230   5.946   1.996
 2601TIP3    H1 7744   7.306   5.961   2.051
 2601TIP3    H2 7745   7.252   5.987   1.912
 2602TIP3   OH2 7746   6.620   0.689   3.891
 2602TIP3    H1 7747   6.697   0.722   3.936
 2602TIP3    H2 7748   6.577   0.631   3.954
 2603TIP3   OH2 7749   5.625   3.587   4.359
 2603TIP3    H1 7750   5.710   3.626   4.376
 2603TIP3    H2 7751   5.644   3.496   4.337
 2604TIP3   OH2 7752   1.576   5.495   2.719
 2604TIP3    H1 7753   1.590   5.400   2.708
 2604TIP3    H2 7754   1.481   5.505   2.716
 2605TIP3   OH2 7755   2.591   2.255   0.689
 2605TIP3    H1 7756   2.587   2.189   0.757
 2605TIP3    H2 7757   2.676   2.298   0.701
 2606TIP3   OH2 7758   0.756   6.279   2.480
 2606TIP3    H1 7759   0.796   6.231   2.552
 2606TIP3    H2 7760   0.664   6.255   2.483
 2607TIP3   OH2 7761   0.325   6.859   6.480
 2607TIP3    H1 7762   0.406   6.836   6.525
 2607TIP3    H2 7763   0.346   6.851   6.387
 2608TIP3   OH2 7764   1.145   6.270   0.837
 2608TIP3    H1 7765   1.123   6.245   0.927
 2608TIP3    H2 7766   1.241   6.266   0.834
 2609TIP3   OH2 7767   5.475   3.924   2.657
 2609TIP3    H1 7768   5.397   3.868   2.657
 2609TIP3    H2 7769   5.506   3.923   2.567
 2610TIP3   OH2 7770   0.525   5.583   1.745
 2610TIP3    H1 7771   0.461   5.638   1.700
 2610TIP3    H2 7772   0.552   5.635   1.820
 2611TIP3   OH2 7773   1.311   0.198   3.494
 2611TIP3    H1 7774   1.347   0.172   3.579
 2611TIP3    H2 7775   1.246   0.265   3.514
 2612TIP3   OH2 7776   2.458   3.712   2.292
 2612TIP3    H1 7777   2.370   3.674   2.297
 2612TIP3    H2 7778   2.444   3.804   2.272
 2613TIP3   OH2 7779   5.284   1.996   6.083
 2613TIP3    H1 7780   5.269   2.088   6.103
 2613TIP3    H2 7781   5.376   1.992   6.056
 2614TIP3   OH2 7782   6.945   0.878   1.704
 2614TIP3    H1 7783   7.004   0.871   1.629
 2614TIP3    H2 7784   6.884   0.806   1.694
 2615TIP3   OH2 7785   0.045   2.510   2.336
 2615TIP3    H1 7786   0.053   2.428   2.385
 2615TIP3    H2 7787   0.122   2.511   2.279
 2616TIP3   OH2 7788   0.440   1.644   4.203
 2616TIP3    H1 7789   0.410   1.557   4.231
 2616TIP3    H2 7790   0.521   1.658   4.253
 2617TIP3   OH2 7791   1.165   0.572   0.560
 2617TIP3    H1 7792   1.115   0.622   0.624
 2617TIP3    H2 7793   1.117   0.489   0.553
 2618TIP3   OH2 7794   5.296   3.092   0.095
 2618TIP3    H1 7795   5.385   3.056   0.086
 2618TIP3    H2 7796   5.284   3.146   0.017
 2619TIP3   OH2 7797   2.147   3.202   1.082
 2619TIP3    H1 7798   2.144   3.107   1.070
 2619TIP3    H2 7799   2.125   3.238   0.996
 2620TIP3   OH2 7800   5.142   5.370   4.854
 2620TIP3    H1 7801   5.076   5.414   4.909
 2620TIP3    H2 7802   5.151   5.283   4.892
 2621TIP3   OH2 7803   6.692   7.339   5.668
 2621TIP3    H1 7804   6.632   7.372   5.601
 2621TIP3    H2 7805   6.636   7.290   5.729
 2622TIP3   OH2 7806   3.387   6.886   4.199
 2622TIP3    H1 7807   3.449   6.890   4.127
 2622TIP3    H2 7808   3.311   6.840   4.163
 2623TIP3   OH2 7809   1.476   1.353   3.135
 2623TIP3    H1 7810   1.533   1.286   3.097
 2623TIP3    H2 7811   1.387   1.321   3.117
 2624TIP3   OH2 7812   1.162   5.916   6.857
 2624TIP3    H1 7813   1.157   5.965   6.775
 2624TIP3    H2 7814   1.111   5.837   6.841
 2625TIP3   OH2 7815   3.540   7.760   5.613
 2625TIP3    H1 7816   3.479   7.814   5.664
 2625TIP3    H2 7817   3.559   7.813   5.535
 2626TIP3   OH2 7818   2.951   3.877   4.128
 2626TIP3    H1 7819   2.880   3.864   4.191
 2626TIP3    H2 7820   2.906   3.880   4.043
 2627TIP3   OH2 7821   1.762   0.536   4.499
 2627TIP3    H1 7822   1.795   0.465   4.444
 2627TIP3    H2 7823   1.832   0.601   4.501
 2628TIP3   OH2 7824   0.143   5.574   2.694
 2628TIP3    H1 7825   0.161   5.508   2.762
 2628TIP3    H2 7826   0.067   5.539   2.647
 2629TIP3   OH2 7827   2.151   3.760   3.948
 2629TIP3    H1 7828   2.156   3.856   3.949
 2629TIP3    H2 7829   2.238   3.732   3.919
 2630TIP3   OH2 7830   7.066   2.838   3.754
 2630TIP3    H1 7831   7.159   2.846   3.775
 2630TIP3    H2 7832   7.061   2.765   3.693
 2631TIP3   OH2 7833   8.299   1.948   2.870
 2631TIP3    H1 7834   8.208   1.922   2.851
 2631TIP3    H2 7835   8.345   1.938   2.787
 2632TIP3   OH2 7836   7.354   4.433   3.026
 2632TIP3    H1 7837   7.428   4.399   2.976
 2632TIP3    H2 7838   7.361   4.391   3.112
 2633TIP3   OH2 7839   4.337   3.281   3.166
 2633TIP3    H1 7840   4.281   3.254   3.239
 2633TIP3    H2 7841   4.310   3.226   3.093
 2634TIP3   OH2 7842   6.341   2.873   1.947
 2634TIP3    H1 7843   6.351   2.862   2.042
 2634TIP3    H2 7844   6.359   2.786   1.911
 2635TIP3   OH2 7845   2.612   3.976   6.527
 2635TIP3    H1 7846   2.695   4.002   6.486
 2635TIP3    H2 7847   2.545   4.014   6.471
 2636TIP3   OH2 7848   4.206   3.011   6.403
 2636TIP3    H1 7849   4.214   3.036   6.311
 2636TIP3    H2 7850   4.242   3.085   6.451
 2637TIP3   OH2 7851   7.454   2.068   0.483
 2637TIP3    H1 7852   7.467   2.029   0.397
 2637TIP3    H2 7853   7.370   2.113   0.477
 2638TIP3   OH2 7854   5.435   6.707   1.562
 2638TIP3    H1 7855   5.371   6.638   1.549
 2638TIP3    H2 7856   5.511   6.680   1.511
 2639TIP3   OH2 7857   1.072   7.202   2.878
 2639TIP3    H1 7858   1.125   7.165   2.949
 2639TIP3    H2 7859   1.056   7.128   2.820
 2640TIP3   OH2 7860   7.840   7.705   2.489
 2640TIP3    H1 7861   7.854   7.678   2.580
 2640TIP3    H2 7862   7.914   7.666   2.442
 2641TIP3   OH2 7863   2.190   7.693   3.368
 2641TIP3    H1 7864   2.173   7.757   3.299
 2641TIP3    H2 7865   2.126   7.624   3.354
 2642TIP3   OH2 7866   7.912   0.077   4.984
 2642TIP3    H1 7867   7.927  -0.006   5.028
 2642TIP3    H2 7868   7.919   0.056   4.891
 2643TIP3   OH2 7869   1.588   0.350   5.328
 2643TIP3    H1 7870   1.517   0.348   5.391
 2643TIP3    H2 7871   1.546   0.332   5.244
 2644TIP3   OH2 7872   2.769   2.518   0.948
 2644TIP3    H1 7873   2.761   2.423   0.942
 2644TIP3    H2 7874   2.860   2.532   0.975
 2645TIP3   OH2 7875   6.021   7.080   3.135
 2645TIP3    H1 7876   6.080   7.148   3.102
 2645TIP3    H2 7877   6.051   6.999   3.093
 2646TIP3   OH2 7878   6.532   2.549   0.239
 2646TIP3    H1 7879   6.503   2.507   0.158
 2646TIP3    H2 7880   6.470   2.518   0.305
 2647TIP3   OH2 7881   2.046   3.809   6.786
 2647TIP3    H1 7882   2.047   3.885   6.844
 2647TIP3    H2 7883   2.118   3.754   6.817
 2648TIP3   OH2 7884   1.010   6.414   2.598
 2648TIP3    H1 7885   0.929   6.442   2.641
 2648TIP3    H2 7886   1.006   6.454   2.511
 2649TIP3   OH2 7887   7.247   6.182   6.489
 2649TIP3    H1 7888   7.299   6.177   6.569
 2649TIP3    H2 7889   7.225   6.091   6.469
 2650TIP3   OH2 7890   3.960   1.836   2.033
 2650TIP3    H1 7891   3.941   1.823   2.126
 2650TIP3    H2 7892   4.025   1.769   2.012
 2651TIP3   OH2 7893   3.099   6.736   5.166
 2651TIP3    H1 7894   3.017   6.761   5.124
 2651TIP3    H2 7895   3.131   6.662   5.114
 2652TIP3   OH2 7896   4.113   6.763   2.979
 2652TIP3    H1 7897   4.021   6.791   2.979
 2652TIP3    H2 7898   4.125   6.718   3.062
 2653TIP3   OH2 7899   8.320   5.173   3.729
 2653TIP3    H1 7900   8.315   5.084   3.697
 2653TIP3    H2 7901   8.229   5.201   3.737
 2654TIP3   OH2 7902   4.089   0.625   0.194
 2654TIP3    H1 7903   4.156   0.557   0.203
 2654TIP3    H2 7904   4.013   0.579   0.157
 2655TIP3   OH2 7905   1.879   1.282   0.834
 2655TIP3    H1 7906   1.783   1.274   0.835
 2655TIP3    H2 7907   1.896   1.366   0.876
 2656TIP3   OH2 7908   7.687   3.845   2.769
 2656TIP3    H1 7909   7.747   3.894   2.824
 2656TIP3    H2 7910   7.604   3.891   2.776
 2657TIP3   OH2 7911   8.285   7.557   2.373
 2657TIP3    H1 7912   8.363   7.514   2.407
 2657TIP3    H2 7913   8.289   7.646   2.405
 2658TIP3   OH2 7914   1.414   0.098   2.206
 2658TIP3    H1 7915   1.409   0.019   2.260
 2658TIP3    H2 7916   1.361   0.079   2.129
 2659TIP3   OH2 7917   3.875   0.939   0.806
 2659TIP3    H1 7918   3.953   0.994   0.798
 2659TIP3    H2 7919   3.882   0.877   0.734
 2660TIP3   OH2 7920   7.763   1.885   5.738
 2660TIP3    H1 7921   7.854   1.860   5.724
 2660TIP3    H2 7922   7.761   1.919   5.827
 2661TIP3   OH2 7923   7.772   5.627   4.108
 2661TIP3    H1 7924   7.687   5.610   4.148
 2661TIP3    H2 7925   7.751   5.670   4.025
 2662TIP3   OH2 7926   8.238   3.168   4.223
 2662TIP3    H1 7927   8.223   3.245   4.169
 2662TIP3    H2 7928   8.316   3.189   4.274
 2663TIP3   OH2 7929   4.763   4.420   3.240
 2663TIP3    H1 7930   4.693   4.378   3.189
 2663TIP3    H2 7931   4.841   4.410   3.186
 2664TIP3   OH2 7932   8.005   5.926   0.680
 2664TIP3    H1 7933   8.000   5.872   0.601
 2664TIP3    H2 7934   8.010   6.016   0.647
 2665TIP3   OH2 7935   5.208   5.113   4.970
 2665TIP3    H1 7936   5.199   5.024   4.936
 2665TIP3    H2 7937   5.143   5.118   5.040
 2666TIP3   OH2 7938   2.278   1.577   6.779
 2666TIP3    H1 7939   2.213   1.529   6.727
 2666TIP3    H2 7940   2.227   1.618   6.849
 2667TIP3   OH2 7941   0.915   6.011   3.192
 2667TIP3    H1 7942   0.931   6.100   3.222
 2667TIP3    H2 7943   0.981   5.958   3.237
 2668TIP3   OH2 7944   4.174   6.693   2.397
 2668TIP3    H1 7945   4.111   6.692   2.469
 2668TIP3    H2 7946   4.120   6.684   2.318
 2669TIP3   OH2 7947   7.839   2.710   0.671
 2669TIP3    H1 7948   7.769   2.646   0.683
 2669TIP3    H2 7949   7.855   2.712   0.577
 2670TIP3   OH2 7950   6.667   6.619   4.110
 2670TIP3    H1 7951   6.745   6.618   4.166
 2670TIP3    H2 7952   6.593   6.619   4.172
 2671TIP3   OH2 7953   3.210   3.516   1.152
 2671TIP3    H1 7954   3.227   3.495   1.061
 2671TIP3    H2 7955   3.226   3.610   1.158
 2672TIP3   OH2 7956   6.690   1.661   6.212
 2672TIP3    H1 7957   6.716   1.721   6.282
 2672TIP3    H2 7958   6.696   1.574   6.252
 2673TIP3   OH2 7959   0.289   6.169   0.522
 2673TIP3    H1 7960   0.338   6.088   0.537
 2673TIP3    H2 7961   0.197   6.143   0.532
 2674TIP3   OH2 7962   7.255   7.008   0.923
 2674TIP3    H1 7963   7.235   7.078   0.862
 2674TIP3    H2 7964   7.319   7.046   0.984
 2675TIP3   OH2 7965   3.738   6.533   3.696
 2675TIP3    H1 7966   3.667   6.495   3.747
 2675TIP3    H2 7967   3.798   6.569   3.761
 2676TIP3   OH2 7968   2.733   1.935   0.615
 2676TIP3    H1 7969   2.687   1.907   0.536
 2676TIP3    H2 7970   2.791   1.862   0.637
 2677TIP3   OH2 7971   8.098   2.093   1.311
 2677TIP3    H1 7972   8.061   2.127   1.229
 2677TIP3    H2 7973   8.030   2.109   1.376
 2678TIP3   OH2 7974   3.255   3.618   5.605
 2678TIP3    H1 7975   3.266   3.650   5.515
 2678TIP3    H2 7976   3.226   3.695   5.654
 2679TIP3   OH2 7977   2.408   7.547   6.127
 2679TIP3    H1 7978   2.475   7.554   6.195
 2679TIP3    H2 7979   2.408   7.634   6.085
 2680TIP3   OH2 7980   1.207   2.859   2.815
 2680TIP3    H1 7981   1.266   2.930   2.842
 2680TIP3    H2 7982   1.265   2.792   2.779
 2681TIP3   OH2 7983   2.112   2.711   5.307
 2681TIP3    H1 7984   2.177   2.645   5.283
 2681TIP3    H2 7985   2.031   2.681   5.266
 2682TIP3   OH2 7986   2.770   5.830   3.053
 2682TIP3    H1 7987   2.804   5.910   3.093
 2682TIP3    H2 7988   2.699   5.861   2.996
 2683TIP3   OH2 7989   4.697   3.384   1.984
 2683TIP3    H1 7990   4.626   3.334   1.945
 2683TIP3    H2 7991   4.705   3.462   1.928
 2684TIP3   OH2 7992   6.476   1.514   6.806
 2684TIP3    H1 7993   6.420   1.444   6.840
 2684TIP3    H2 7994   6.419   1.589   6.798
 2685TIP3   OH2 7995   5.199   4.630   0.765
 2685TIP3    H1 7996   5.186   4.677   0.683
 2685TIP3    H2 7997   5.165   4.542   0.749
 2686TIP3   OH2 7998   4.107   1.082   6.359
 2686TIP3    H1 7999   4.154   1.164   6.371
 2686TIP3    H2 8000   4.084   1.080   6.266
 2687TIP3   OH2 8001   1.296   6.852   3.566
 2687TIP3    H1 8002   1.318   6.817   3.480
 2687TIP3    H2 8003   1.379   6.853   3.614
 2688TIP3   OH2 8004   5.089   5.229   1.925
 2688TIP3    H1 8005   5.060   5.138   1.921
 2688TIP3    H2 8006   5.169   5.232   1.872
 2689TIP3   OH2 8007   0.021   4.780   6.518
 2689TIP3    H1 8008  -0.058   4.729   6.501
 2689TIP3    H2 8009   0.077   4.721   6.570
 2690TIP3   OH2 8010   4.206   3.872   4.463
 2690TIP3    H1 8011   4.278   3.882   4.399
 2690TIP3    H2 8012   4.212   3.780   4.490
 2691TIP3   OH2 8013   1.699   6.914   1.565
 2691TIP3    H1 8014   1.710   6.988   1.626
 2691TIP3    H2 8015   1.783   6.870   1.565
 2692TIP3   OH2 8016   2.569   6.515   5.929
 2692TIP3    H1 8017   2.627   6.454   5.975
 2692TIP3    H2 8018   2.535   6.465   5.855
 2693TIP3   OH2 8019   0.061   4.361   4.160
 2693TIP3    H1 8020   0.006   4.310   4.221
 2693TIP3    H2 8021   0.002   4.380   4.087
 2694TIP3   OH2 8022   0.826   6.476   1.430
 2694TIP3    H1 8023   0.730   6.477   1.437
 2694TIP3    H2 8024   0.847   6.553   1.377
 2695TIP3   OH2 8025   5.263   2.740   3.308
 2695TIP3    H1 8026   5.312   2.781   3.380
 2695TIP3    H2 8027   5.230   2.814   3.257
 2696TIP3   OH2 8028   3.256   0.280   6.905
 2696TIP3    H1 8029   3.304   0.361   6.924
 2696TIP3    H2 8030   3.191   0.305   6.839
 2697TIP3   OH2 8031   8.058   1.563   5.767
 2697TIP3    H1 8032   7.976   1.515   5.765
 2697TIP3    H2 8033   8.079   1.579   5.675
 2698TIP3   OH2 8034   2.184   0.183   4.927
 2698TIP3    H1 8035   2.220   0.102   4.889
 2698TIP3    H2 8036   2.163   0.160   5.017
 2699TIP3   OH2 8037   2.751   2.432   1.272
 2699TIP3    H1 8038   2.793   2.355   1.232
 2699TIP3    H2 8039   2.821   2.496   1.280
 2700TIP3   OH2 8040   4.281   7.552   4.512
 2700TIP3    H1 8041   4.347   7.561   4.581
 2700TIP3    H2 8042   4.317   7.600   4.438
 2701TIP3   OH2 8043   7.825   4.439   5.390
 2701TIP3    H1 8044   7.743   4.401   5.421
 2701TIP3    H2 8045   7.800   4.524   5.354
 2702TIP3   OH2 8046   2.908   7.166   3.512
 2702TIP3    H1 8047   2.845   7.198   3.448
 2702TIP3    H2 8048   2.855   7.133   3.584
 2703TIP3   OH2 8049   5.766   4.727   2.150
 2703TIP3    H1 8050   5.848   4.680   2.164
 2703TIP3    H2 8051   5.790   4.820   2.153
 2704TIP3   OH2 8052   4.480   7.885   3.650
 2704TIP3    H1 8053   4.397   7.911   3.611
 2704TIP3    H2 8054   4.476   7.789   3.651
 2705TIP3   OH2 8055   1.769   4.251   2.953
 2705TIP3    H1 8056   1.851   4.254   3.002
 2705TIP3    H2 8057   1.701   4.247   3.019
 2706TIP3   OH2 8058   5.937   2.883   2.021
 2706TIP3    H1 8059   5.892   2.830   2.087
 2706TIP3    H2 8060   5.875   2.888   1.948
 2707TIP3   OH2 8061   1.498   1.874   6.716
 2707TIP3    H1 8062   1.486   1.919   6.800
 2707TIP3    H2 8063   1.542   1.792   6.739
 2708TIP3   OH2 8064   4.912   3.750   2.272
 2708TIP3    H1 8065   4.969   3.674   2.261
 2708TIP3    H2 8066   4.939   3.810   2.202
 2709TIP3   OH2 8067   6.493   7.637   2.346
 2709TIP3    H1 8068   6.414   7.691   2.345
 2709TIP3    H2 8069   6.464   7.552   2.378
 2710TIP3   OH2 8070   0.157   3.560   1.893
 2710TIP3    H1 8071   0.147   3.582   1.985
 2710TIP3    H2 8072   0.251   3.549   1.880
 2711TIP3   OH2 8073   5.222   7.216   1.415
 2711TIP3    H1 8074   5.249   7.283   1.478
 2711TIP3    H2 8075   5.270   7.137   1.441
 2712TIP3   OH2 8076   6.810   7.468   6.317
 2712TIP3    H1 8077   6.736   7.407   6.316
 2712TIP3    H2 8078   6.868   7.435   6.386
 2713TIP3   OH2 8079   3.079   2.253   1.633
 2713TIP3    H1 8080   3.112   2.342   1.621
 2713TIP3    H2 8081   3.158   2.198   1.636
 2714TIP3   OH2 8082   1.159   7.524   4.572
 2714TIP3    H1 8083   1.232   7.527   4.634
 2714TIP3    H2 8084   1.088   7.569   4.617
 2715TIP3   OH2 8085   0.841   4.180   4.095
 2715TIP3    H1 8086   0.788   4.257   4.076
 2715TIP3    H2 8087   0.797   4.138   4.169
 2716TIP3   OH2 8088   6.666   1.594   1.585
 2716TIP3    H1 8089   6.730   1.659   1.613
 2716TIP3    H2 8090   6.690   1.514   1.632
 2717TIP3   OH2 8091   8.370   6.708   0.522
 2717TIP3    H1 8092   8.367   6.645   0.594
 2717TIP3    H2 8093   8.437   6.674   0.463
 2718TIP3   OH2 8094   0.349   2.554   6.028
 2718TIP3    H1 8095   0.267   2.576   5.983
 2718TIP3    H2 8096   0.417   2.593   5.974
 2719TIP3   OH2 8097   3.385   5.533   0.002
 2719TIP3    H1 8098   3.324   5.596  -0.037
 2719TIP3    H2 8099   3.460   5.586   0.028
 2720TIP3   OH2 8100   3.742   2.366   2.292
 2720TIP3    H1 8101   3.771   2.308   2.362
 2720TIP3    H2 8102   3.725   2.450   2.336
 2721TIP3   OH2 8103   7.796   7.746   0.087
 2721TIP3    H1 8104   7.723   7.700   0.047
 2721TIP3    H2 8105   7.797   7.716   0.178
 2722TIP3   OH2 8106   6.356   2.936   6.758
 2722TIP3    H1 8107   6.268   2.966   6.781
 2722TIP3    H2 8108   6.396   2.912   6.842
 2723TIP3   OH2 8109   8.355   0.808   0.067
 2723TIP3    H1 8110   8.271   0.803   0.021
 2723TIP3    H2 8111   8.353   0.733   0.128
 2724TIP3   OH2 8112   3.810   7.718   6.589
 2724TIP3    H1 8113   3.753   7.700   6.664
 2724TIP3    H2 8114   3.832   7.632   6.554
 2725TIP3   OH2 8115   4.811   5.775   5.594
 2725TIP3    H1 8116   4.860   5.770   5.512
 2725TIP3    H2 8117   4.774   5.863   5.594
 2726TIP3   OH2 8118   5.054   1.941   4.964
 2726TIP3    H1 8119   4.980   1.917   5.020
 2726TIP3    H2 8120   5.017   2.001   4.900
 2727TIP3   OH2 8121   1.655   1.031   0.510
 2727TIP3    H1 8122   1.592   1.014   0.439
 2727TIP3    H2 8123   1.643   0.957   0.570
 2728TIP3   OH2 8124   4.117   2.049   5.168
 2728TIP3    H1 8125   4.210   2.072   5.174
 2728TIP3    H2 8126   4.116   1.974   5.108
 2729TIP3   OH2 8127   6.541   3.782   0.136
 2729TIP3    H1 8128   6.588   3.829   0.067
 2729TIP3    H2 8129   6.501   3.850   0.190
 2730TIP3   OH2 8130   1.134   3.151   1.267
 2730TIP3    H1 8131   1.189   3.115   1.198
 2730TIP3    H2 8132   1.085   3.221   1.224
 2731TIP3   OH2 8133   6.186   3.898   1.560
 2731TIP3    H1 8134   6.112   3.888   1.499
 2731TIP3    H2 8135   6.259   3.924   1.504
 2732TIP3   OH2 8136   1.883   7.520   5.833
 2732TIP3    H1 8137   1.854   7.483   5.916
 2732TIP3    H2 8138   1.947   7.587   5.857
 2733TIP3   OH2 8139   1.742   6.453   5.227
 2733TIP3    H1 8140   1.802   6.527   5.230
 2733TIP3    H2 8141   1.691   6.460   5.308
 2734TIP3   OH2 8142   7.954   6.150   2.843
 2734TIP3    H1 8143   8.007   6.166   2.921
 2734TIP3    H2 8144   7.877   6.206   2.855
 2735TIP3   OH2 8145   5.365   2.492   3.593
 2735TIP3    H1 8146   5.318   2.503   3.676
 2735TIP3    H2 8147   5.299   2.511   3.526
 2736TIP3   OH2 8148   7.215  -0.018   2.785
 2736TIP3    H1 8149   7.309  -0.032   2.771
 2736TIP3    H2 8150   7.210   0.060   2.839
 2737TIP3   OH2 8151   2.920   7.865   0.370
 2737TIP3    H1 8152   2.866   7.870   0.291
 2737TIP3    H2 8153   2.987   7.799   0.349
 2738TIP3   OH2 8154   4.537   1.353   2.791
 2738TIP3    H1 8155   4.561   1.306   2.870
 2738TIP3    H2 8156   4.597   1.320   2.724
 2739TIP3   OH2 8157   5.450   5.597   1.459
 2739TIP3    H1 8158   5.527   5.615   1.513
 2739TIP3    H2 8159   5.481   5.611   1.369
 2740TIP3   OH2 8160   5.313   7.162   4.393
 2740TIP3    H1 8161   5.328   7.105   4.318
 2740TIP3    H2 8162   5.219   7.156   4.409
 2741TIP3   OH2 8163   2.889   4.736   3.685
 2741TIP3    H1 8164   2.895   4.696   3.599
 2741TIP3    H2 8165   2.965   4.702   3.733
 2742TIP3   OH2 8166   5.836   4.946   0.514
 2742TIP3    H1 8167   5.757   4.999   0.500
 2742TIP3    H2 8168   5.879   4.986   0.589
 2743TIP3   OH2 8169   3.741   2.359   0.335
 2743TIP3    H1 8170   3.765   2.372   0.427
 2743TIP3    H2 8171   3.646   2.363   0.334
 2744TIP3   OH2 8172   4.352   5.223   2.473
 2744TIP3    H1 8173   4.361   5.317   2.490
 2744TIP3    H2 8174   4.297   5.192   2.545
 2745TIP3   OH2 8175   7.538   3.123   1.400
 2745TIP3    H1 8176   7.543   3.133   1.305
 2745TIP3    H2 8177   7.539   3.213   1.434
 2746TIP3   OH2 8178   6.300   4.113   0.377
 2746TIP3    H1 8179   6.256   4.089   0.458
 2746TIP3    H2 8180   6.317   4.207   0.385
 2747TIP3   OH2 8181   0.459   2.223   5.850
 2747TIP3    H1 8182   0.500   2.308   5.837
 2747TIP3    H2 8183   0.381   2.225   5.795
 2748TIP3   OH2 8184   7.066   6.769   0.418
 2748TIP3    H1 8185   7.121   6.748   0.494
 2748TIP3    H2 8186   7.116   6.735   0.344
 2749TIP3   OH2 8187   6.698   7.351   2.699
 2749TIP3    H1 8188   6.694   7.275   2.641
 2749TIP3    H2 8189   6.708   7.425   2.640
 2750TIP3   OH2 8190   2.488   3.506   1.506
 2750TIP3    H1 8191   2.546   3.471   1.439
 2750TIP3    H2 8192   2.499   3.601   1.500
 2751TIP3   OH2 8193   4.900   0.875   4.851
 2751TIP3    H1 8194   4.965   0.907   4.913
 2751TIP3    H2 8195   4.949   0.863   4.769
 2752TIP3   OH2 8196   6.988   7.714   2.573
 2752TIP3    H1 8197   6.954   7.763   2.648
 2752TIP3    H2 8198   6.918   7.653   2.550
 2753TIP3   OH2 8199   2.694   1.573   3.933
 2753TIP3    H1 8200   2.613   1.532   3.963
 2753TIP3    H2 8201   2.754   1.563   4.006
 2754TIP3   OH2 8202   1.892   3.417   1.417
 2754TIP3    H1 8203   1.984   3.396   1.403
 2754TIP3    H2 8204   1.844   3.352   1.365
 2755TIP3   OH2 8205   4.259   6.116   5.195
 2755TIP3    H1 8206   4.224   6.124   5.284
 2755TIP3    H2 8207   4.241   6.026   5.170
 2756TIP3   OH2 8208   0.996   4.154   3.707
 2756TIP3    H1 8209   0.991   4.249   3.703
 2756TIP3    H2 8210   1.089   4.134   3.703
 2757TIP3   OH2 8211   6.825   6.750   0.746
 2757TIP3    H1 8212   6.808   6.738   0.840
 2757TIP3    H2 8213   6.921   6.749   0.740
 2758TIP3   OH2 8214   0.455   1.557   4.560
 2758TIP3    H1 8215   0.440   1.520   4.647
 2758TIP3    H2 8216   0.380   1.529   4.508
 2759TIP3   OH2 8217   5.063   1.599   2.176
 2759TIP3    H1 8218   5.065   1.593   2.271
 2759TIP3    H2 8219   5.108   1.681   2.155
 2760TIP3   OH2 8220   4.002   7.524   1.637
 2760TIP3    H1 8221   4.028   7.616   1.631
 2760TIP3    H2 8222   4.053   7.488   1.709
 2761TIP3   OH2 8223   2.701   1.880   2.970
 2761TIP3    H1 8224   2.724   1.823   2.896
 2761TIP3    H2 8225   2.619   1.921   2.944
 2762TIP3   OH2 8226   8.114   7.497  -0.029
 2762TIP3    H1 8227   8.152   7.410  -0.047
 2762TIP3    H2 8228   8.124   7.508   0.065
 2763TIP3   OH2 8229   6.332   2.924   5.733
 2763TIP3    H1 8230   6.240   2.917   5.707
 2763TIP3    H2 8231   6.379   2.942   5.652
 2764TIP3   OH2 8232   2.619   0.494   3.150
 2764TIP3    H1 8233   2.597   0.569   3.094
 2764TIP3    H2 8234   2.565   0.506   3.228
 2765TIP3   OH2 8235   4.655   1.955   6.188
 2765TIP3    H1 8236   4.684   1.922   6.273
 2765TIP3    H2 8237   4.602   2.031   6.209
 2766TIP3   OH2 8238   7.479   7.466   1.563
 2766TIP3    H1 8239   7.512   7.421   1.641
 2766TIP3    H2 8240   7.544   7.534   1.545
 2767TIP3   OH2 8241   4.278   2.288   3.306
 2767TIP3    H1 8242   4.217   2.329   3.245
 2767TIP3    H2 8243   4.296   2.356   3.372
 2768TIP3   OH2 8244   6.841   5.982   0.753
 2768TIP3    H1 8245   6.908   6.006   0.818
 2768TIP3    H2 8246   6.841   6.054   0.690
 2769TIP3   OH2 8247   7.834   5.282   2.127
 2769TIP3    H1 8248   7.855   5.191   2.147
 2769TIP3    H2 8249   7.740   5.283   2.109
 2770TIP3   OH2 8250   4.369   5.497   4.042
 2770TIP3    H1 8251   4.379   5.483   4.136
 2770TIP3    H2 8252   4.309   5.427   4.014
 2771TIP3   OH2 8253   2.947   1.348   4.541
 2771TIP3    H1 8254   2.894   1.413   4.495
 2771TIP3    H2 8255   2.963   1.386   4.627
 2772TIP3   OH2 8256   7.414   5.066   1.755
 2772TIP3    H1 8257   7.471   4.990   1.756
 2772TIP3    H2 8258   7.474   5.141   1.758
 2773TIP3   OH2 8259   2.810   0.087   5.225
 2773TIP3    H1 8260   2.738   0.120   5.170
 2773TIP3    H2 8261   2.766   0.052   5.303
 2774TIP3   OH2 8262   2.049   1.874   3.042
 2774TIP3    H1 8263   2.113   1.861   3.112
 2774TIP3    H2 8264   2.008   1.789   3.031
 2775TIP3   OH2 8265   0.893   6.182   1.361
 2775TIP3    H1 8266   0.895   6.269   1.401
 2775TIP3    H2 8267   0.886   6.200   1.267
 2776TIP3   OH2 8268   4.422   6.765   0.567
 2776TIP3    H1 8269   4.407   6.715   0.487
 2776TIP3    H2 8270   4.517   6.778   0.570
 2777TIP3   OH2 8271   4.546   2.332   4.507
 2777TIP3    H1 8272   4.471   2.298   4.556
 2777TIP3    H2 8273   4.574   2.259   4.452
 2778TIP3   OH2 8274   6.255   3.880   5.281
 2778TIP3    H1 8275   6.194   3.820   5.237
 2778TIP3    H2 8276   6.314   3.822   5.329
 2779TIP3   OH2 8277   0.549   0.476   0.044
 2779TIP3    H1 8278   0.492   0.505   0.115
 2779TIP3    H2 8279   0.498   0.491  -0.036
 2780TIP3   OH2 8280   6.505   5.181   0.029
 2780TIP3    H1 8281   6.591   5.174  -0.012
 2780TIP3    H2 8282   6.505   5.112   0.095
 2781TIP3   OH2 8283   5.665   4.463   1.200
 2781TIP3    H1 8284   5.713   4.385   1.228
 2781TIP3    H2 8285   5.717   4.499   1.129
 2782TIP3   OH2 8286   3.074   0.903   2.435
 2782TIP3    H1 8287   3.058   0.809   2.437
 2782TIP3    H2 8288   2.989   0.942   2.415
 2783TIP3   OH2 8289   7.750   7.001   3.860
 2783TIP3    H1 8290   7.744   7.043   3.946
 2783TIP3    H2 8291   7.821   7.047   3.816
 2784TIP3   OH2 8292   5.628   4.599   1.689
 2784TIP3    H1 8293   5.559   4.567   1.631
 2784TIP3    H2 8294   5.588   4.671   1.737
 2785TIP3   OH2 8295   6.813   2.072   6.079
 2785TIP3    H1 8296   6.752   2.133   6.122
 2785TIP3    H2 8297   6.896   2.119   6.077
 2786TIP3   OH2 8298   6.093   7.335   0.094
 2786TIP3    H1 8299   6.083   7.240   0.105
 2786TIP3    H2 8300   6.094   7.348  -0.001
 2787TIP3   OH2 8301   8.212   1.358   4.576
 2787TIP3    H1 8302   8.183   1.413   4.503
 2787TIP3    H2 8303   8.268   1.292   4.534
 2788TIP3   OH2 8304   0.873   2.467   0.921
 2788TIP3    H1 8305   0.967   2.451   0.935
 2788TIP3    H2 8306   0.830   2.396   0.969
 2789TIP3   OH2 8307   1.811   5.537   3.236
 2789TIP3    H1 8308   1.793   5.533   3.142
 2789TIP3    H2 8309   1.871   5.465   3.253
 2790TIP3   OH2 8310   3.661   4.705   5.221
 2790TIP3    H1 8311   3.601   4.662   5.160
 2790TIP3    H2 8312   3.742   4.654   5.216
 2791TIP3   OH2 8313   6.261   5.030   0.200
 2791TIP3    H1 8314   6.225   5.047   0.112
 2791TIP3    H2 8315   6.189   5.049   0.259
 2792TIP3   OH2 8316   8.284   3.811   3.614
 2792TIP3    H1 8317   8.342   3.887   3.613
 2792TIP3    H2 8318   8.203   3.843   3.655
 2793TIP3   OH2 8319   2.577   0.129   5.086
 2793TIP3    H1 8320   2.565   0.076   5.008
 2793TIP3    H2 8321   2.530   0.081   5.155
 2794TIP3   OH2 8322   0.502   2.721   1.643
 2794TIP3    H1 8323   0.574   2.660   1.626
 2794TIP3    H2 8324   0.455   2.727   1.560
 2795TIP3   OH2 8325   5.755   5.283   3.410
 2795TIP3    H1 8326   5.675   5.237   3.385
 2795TIP3    H2 8327   5.731   5.330   3.490
 2796TIP3   OH2 8328   0.724   0.326   3.714
 2796TIP3    H1 8329   0.642   0.353   3.755
 2796TIP3    H2 8330   0.781   0.303   3.787
 2797TIP3   OH2 8331   1.659   5.919   3.725
 2797TIP3    H1 8332   1.589   5.985   3.728
 2797TIP3    H2 8333   1.637   5.864   3.650
 2798TIP3   OH2 8334   3.580   7.890   5.365
 2798TIP3    H1 8335   3.653   7.951   5.374
 2798TIP3    H2 8336   3.587   7.857   5.276
 2799TIP3   OH2 8337   4.169   3.957   2.771
 2799TIP3    H1 8338   4.174   3.897   2.696
 2799TIP3    H2 8339   4.087   3.934   2.814
 2800TIP3   OH2 8340   7.506   4.117   0.568
 2800TIP3    H1 8341   7.525   4.077   0.483
 2800TIP3    H2 8342   7.590   4.154   0.596
 2801TIP3   OH2 8343   5.426   2.230   5.854
 2801TIP3    H1 8344   5.408   2.140   5.883
 2801TIP3    H2 8345   5.463   2.272   5.931
 2802TIP3   OH2 8346   3.129   4.407   1.883
 2802TIP3    H1 8347   3.186   4.457   1.942
 2802TIP3    H2 8348   3.170   4.416   1.797
 2803TIP3   OH2 8349   0.248   3.306   1.118
 2803TIP3    H1 8350   0.172   3.277   1.068
 2803TIP3    H2 8351   0.256   3.399   1.098
 2804TIP3   OH2 8352   2.219   5.537   2.695
 2804TIP3    H1 8353   2.226   5.623   2.736
 2804TIP3    H2 8354   2.273   5.480   2.749
 2805TIP3   OH2 8355   5.813   0.441   3.249
 2805TIP3    H1 8356   5.810   0.393   3.332
 2805TIP3    H2 8357   5.780   0.378   3.184
 2806TIP3   OH2 8358   6.377   5.137   0.731
 2806TIP3    H1 8359   6.349   5.125   0.640
 2806TIP3    H2 8360   6.299   5.168   0.776
 2807TIP3   OH2 8361   6.288   3.939   4.954
 2807TIP3    H1 8362   6.340   3.996   5.010
 2807TIP3    H2 8363   6.197   3.965   4.971
 2808TIP3   OH2 8364   7.618   4.348   2.975
 2808TIP3    H1 8365   7.683   4.361   2.905
 2808TIP3    H2 8366   7.650   4.270   3.021
 2809TIP3   OH2 8367   6.921   0.456   2.259
 2809TIP3    H1 8368   6.932   0.410   2.342
 2809TIP3    H2 8369   6.869   0.533   2.282
 2810TIP3   OH2 8370   1.203   4.035   4.625
 2810TIP3    H1 8371   1.178   4.073   4.709
 2810TIP3    H2 8372   1.121   4.000   4.590
 2811TIP3   OH2 8373   1.749   6.866   1.075
 2811TIP3    H1 8374   1.742   6.954   1.037
 2811TIP3    H2 8375   1.814   6.876   1.145
 2812TIP3   OH2 8376   8.067   2.017   4.513
 2812TIP3    H1 8377   8.142   2.076   4.516
 2812TIP3    H2 8378   7.996   2.068   4.475
 2813TIP3   OH2 8379   1.939   4.595   0.043
 2813TIP3    H1 8380   1.938   4.501   0.021
 2813TIP3    H2 8381   1.859   4.608   0.093
 2814TIP3   OH2 8382   5.927   7.028   2.555
 2814TIP3    H1 8383   5.922   7.007   2.462
 2814TIP3    H2 8384   5.864   6.970   2.597
 2815TIP3   OH2 8385   3.891   2.032   2.675
 2815TIP3    H1 8386   3.945   2.053   2.751
 2815TIP3    H2 8387   3.902   2.107   2.616
 2816TIP3   OH2 8388   0.350   0.656   5.018
 2816TIP3    H1 8389   0.380   0.614   4.937
 2816TIP3    H2 8390   0.331   0.746   4.992
 2817TIP3   OH2 8391   2.191   7.971   0.833
 2817TIP3    H1 8392   2.102   7.935   0.829
 2817TIP3    H2 8393   2.248   7.899   0.806
 2818TIP3   OH2 8394   1.500   1.323   4.543
 2818TIP3    H1 8395   1.556   1.272   4.601
 2818TIP3    H2 8396   1.420   1.338   4.593
 2819TIP3   OH2 8397   7.413   4.385   4.131
 2819TIP3    H1 8398   7.477   4.322   4.097
 2819TIP3    H2 8399   7.458   4.429   4.203
 2820TIP3   OH2 8400   6.050   3.547   3.675
 2820TIP3    H1 8401   6.036   3.637   3.705
 2820TIP3    H2 8402   5.978   3.497   3.713
 2821TIP3   OH2 8403   7.655   2.543   0.519
 2821TIP3    H1 8404   7.645   2.461   0.568
 2821TIP3    H2 8405   7.720   2.523   0.452
 2822TIP3   OH2 8406   7.989   7.160   6.408
 2822TIP3    H1 8407   7.896   7.163   6.387
 2822TIP3    H2 8408   8.006   7.070   6.434
 2823TIP3   OH2 8409   2.148   4.750   4.793
 2823TIP3    H1 8410   2.190   4.787   4.716
 2823TIP3    H2 8411   2.063   4.794   4.797
 2824TIP3   OH2 8412   0.022   1.973   1.092
 2824TIP3    H1 8413   0.028   2.024   1.173
 2824TIP3    H2 8414   0.091   2.009   1.036
 2825TIP3   OH2 8415   6.469   3.614   5.273
 2825TIP3    H1 8416   6.446   3.528   5.238
 2825TIP3    H2 8417   6.420   3.620   5.355
 2826TIP3   OH2 8418   0.283   0.978   5.883
 2826TIP3    H1 8419   0.219   0.996   5.951
 2826TIP3    H2 8420   0.233   0.976   5.802
 2827TIP3   OH2 8421   2.869   2.987   2.244
 2827TIP3    H1 8422   2.824   2.936   2.176
 2827TIP3    H2 8423   2.887   3.071   2.202
 2828TIP3   OH2 8424   3.857   3.084   5.021
 2828TIP3    H1 8425   3.776   3.066   4.973
 2828TIP3    H2 8426   3.926   3.080   4.955
 2829TIP3   OH2 8427   5.905   0.805   1.932
 2829TIP3    H1 8428   5.968   0.762   1.874
 2829TIP3    H2 8429   5.840   0.844   1.873
 2830TIP3   OH2 8430   4.899   6.990   2.402
 2830TIP3    H1 8431   4.983   6.953   2.372
 2830TIP3    H2 8432   4.868   6.928   2.468
 2831TIP3   OH2 8433   1.256   6.967   4.543
 2831TIP3    H1 8434   1.334   6.993   4.495
 2831TIP3    H2 8435   1.286   6.898   4.603
 2832TIP3   OH2 8436   7.975   0.932   5.768
 2832TIP3    H1 8437   8.026   1.007   5.740
 2832TIP3    H2 8438   7.906   0.968   5.823
 2833TIP3   OH2 8439   6.230   6.023   0.700
 2833TIP3    H1 8440   6.228   6.119   0.696
 2833TIP3    H2 8441   6.318   5.999   0.672
 2834TIP3   OH2 8442   1.550   5.001   1.673
 2834TIP3    H1 8443   1.503   5.076   1.638
 2834TIP3    H2 8444   1.549   5.015   1.768
 2835TIP3   OH2 8445   3.917   2.816   0.909
 2835TIP3    H1 8446   3.925   2.734   0.958
 2835TIP3    H2 8447   3.827   2.816   0.877
 2836TIP3   OH2 8448   7.849   3.875   1.154
 2836TIP3    H1 8449   7.851   3.809   1.085
 2836TIP3    H2 8450   7.811   3.830   1.229
 2837TIP3   OH2 8451   4.338   5.081   3.258
 2837TIP3    H1 8452   4.397   5.024   3.209
 2837TIP3    H2 8453   4.392   5.116   3.329
 2838TIP3   OH2 8454   3.626   2.501   1.132
 2838TIP3    H1 8455   3.542   2.511   1.088
 2838TIP3    H2 8456   3.605   2.504   1.225
 2839TIP3   OH2 8457   6.173   6.482   2.698
 2839TIP3    H1 8458   6.253   6.440   2.731
 2839TIP3    H2 8459   6.154   6.437   2.616
 2840TIP3   OH2 8460   0.548   4.348   3.887
 2840TIP3    H1 8461   0.459   4.383   3.892
 2840TIP3    H2 8462   0.536   4.255   3.869
 2841TIP3   OH2 8463   3.009   4.149   0.139
 2841TIP3    H1 8464   3.056   4.074   0.175
 2841TIP3    H2 8465   3.065   4.180   0.067
 2842TIP3   OH2 8466   7.720   0.985   1.968
 2842TIP3    H1 8467   7.705   1.070   2.008
 2842TIP3    H2 8468   7.643   0.971   1.912
 2843TIP3   OH2 8469   3.846   1.408   1.709
 2843TIP3    H1 8470   3.797   1.329   1.732
 2843TIP3    H2 8471   3.779   1.471   1.682
 2844TIP3   OH2 8472   2.522   3.165   0.275
 2844TIP3    H1 8473   2.585   3.208   0.218
 2844TIP3    H2 8474   2.573   3.099   0.322
 2845TIP3   OH2 8475   5.368   6.619   4.725
 2845TIP3    H1 8476   5.451   6.578   4.748
 2845TIP3    H2 8477   5.392   6.697   4.675
 2846TIP3   OH2 8478   1.551   0.135   6.760
 2846TIP3    H1 8479   1.574   0.226   6.743
 2846TIP3    H2 8480   1.471   0.140   6.813
 2847TIP3   OH2 8481   4.507   2.255   0.858
 2847TIP3    H1 8482   4.521   2.349   0.853
 2847TIP3    H2 8483   4.471   2.241   0.945
 2848TIP3   OH2 8484   4.083   7.718   5.397
 2848TIP3    H1 8485   4.130   7.638   5.373
 2848TIP3    H2 8486   3.991   7.692   5.396
 2849TIP3   OH2 8487   4.087   0.097   2.637
 2849TIP3    H1 8488   4.127   0.119   2.552
 2849TIP3    H2 8489   4.141   0.143   2.701
 2850TIP3   OH2 8490   2.300   0.384   1.738
 2850TIP3    H1 8491   2.210   0.393   1.769
 2850TIP3    H2 8492   2.300   0.427   1.652
 2851TIP3   OH2 8493   1.475   7.246   1.666
 2851TIP3    H1 8494   1.403   7.222   1.724
 2851TIP3    H2 8495   1.457   7.198   1.585
 2852TIP3   OH2 8496   4.045   5.129   4.568
 2852TIP3    H1 8497   4.026   5.135   4.475
 2852TIP3    H2 8498   3.996   5.052   4.597
 2853TIP3   OH2 8499   1.746   5.919   4.710
 2853TIP3    H1 8500   1.747   6.003   4.757
 2853TIP3    H2 8501   1.813   5.867   4.754
 2854TIP3   OH2 8502   7.800   7.504   4.130
 2854TIP3    H1 8503   7.845   7.499   4.046
 2854TIP3    H2 8504   7.847   7.572   4.179
 2855TIP3   OH2 8505   0.554   6.504   5.841
 2855TIP3    H1 8506   0.527   6.430   5.895
 2855TIP3    H2 8507   0.639   6.531   5.878
 2856TIP3   OH2 8508   7.841   0.881   6.802
 2856TIP3    H1 8509   7.813   0.798   6.764
 2856TIP3    H2 8510   7.868   0.860   6.891
 2857TIP3   OH2 8511   6.512   6.278   5.907
 2857TIP3    H1 8512   6.478   6.271   5.996
 2857TIP3    H2 8513   6.435   6.298   5.853
 2858TIP3   OH2 8514   7.554   3.433   6.046
 2858TIP3    H1 8515   7.557   3.410   6.138
 2858TIP3    H2 8516   7.593   3.358   6.001
 2859TIP3   OH2 8517   7.825   6.826   2.106
 2859TIP3    H1 8518   7.831   6.741   2.150
 2859TIP3    H2 8519   7.731   6.846   2.108
 2860TIP3   OH2 8520   0.448   0.384   0.568
 2860TIP3    H1 8521   0.470   0.469   0.604
 2860TIP3    H2 8522   0.367   0.359   0.613
 2861TIP3   OH2 8523   7.084   1.550   1.770
 2861TIP3    H1 8524   7.150   1.492   1.732
 2861TIP3    H2 8525   7.017   1.491   1.805
 2862TIP3   OH2 8526   3.860   2.082   6.182
 2862TIP3    H1 8527   3.908   2.001   6.196
 2862TIP3    H2 8528   3.801   2.063   6.109
 2863TIP3   OH2 8529   6.577   5.006   3.490
 2863TIP3    H1 8530   6.531   5.090   3.489
 2863TIP3    H2 8531   6.541   4.959   3.565
 2864TIP3   OH2 8532   5.032   6.128   2.936
 2864TIP3    H1 8533   5.054   6.138   3.029
 2864TIP3    H2 8534   5.106   6.166   2.889
 2865TIP3   OH2 8535   5.078   2.905   6.072
 2865TIP3    H1 8536   5.009   2.948   6.022
 2865TIP3    H2 8537   5.159   2.925   6.025
 2866TIP3   OH2 8538   4.402   7.878   0.465
 2866TIP3    H1 8539   4.488   7.881   0.506
 2866TIP3    H2 8540   4.398   7.793   0.421
 2867TIP3   OH2 8541   7.653   7.122   2.793
 2867TIP3    H1 8542   7.674   7.036   2.756
 2867TIP3    H2 8543   7.572   7.107   2.842
 2868TIP3   OH2 8544   1.210   0.890   1.678
 2868TIP3    H1 8545   1.240   0.912   1.766
 2868TIP3    H2 8546   1.210   0.974   1.631
 2869TIP3   OH2 8547   5.391   0.353   2.701
 2869TIP3    H1 8548   5.314   0.388   2.657
 2869TIP3    H2 8549   5.398   0.263   2.669
 2870TIP3   OH2 8550   3.419   5.796   6.775
 2870TIP3    H1 8551   3.353   5.831   6.835
 2870TIP3    H2 8552   3.370   5.764   6.700
 2871TIP3   OH2 8553   7.392   4.266   5.829
 2871TIP3    H1 8554   7.330   4.256   5.901
 2871TIP3    H2 8555   7.341   4.244   5.751
 2872TIP3   OH2 8556   3.053   2.580   0.772
 2872TIP3    H1 8557   3.064   2.619   0.859
 2872TIP3    H2 8558   3.090   2.492   0.781
 2873TIP3   OH2 8559   6.402   5.487   1.356
 2873TIP3    H1 8560   6.481   5.483   1.301
 2873TIP3    H2 8561   6.429   5.535   1.434
 2874TIP3   OH2 8562   5.075   4.696   5.204
 2874TIP3    H1 8563   5.099   4.755   5.133
 2874TIP3    H2 8564   5.001   4.739   5.248
 2875TIP3   OH2 8565   5.713   0.137   2.329
 2875TIP3    H1 8566   5.807   0.135   2.345
 2875TIP3    H2 8567   5.677   0.185   2.404
 2876TIP3   OH2 8568   2.123   1.233   5.937
 2876TIP3    H1 8569   2.054   1.228   6.003
 2876TIP3    H2 8570   2.187   1.167   5.963
 2877TIP3   OH2 8571   7.782   5.904   1.776
 2877TIP3    H1 8572   7.722   5.831   1.761
 2877TIP3    H2 8573   7.775   5.957   1.696
 2878TIP3   OH2 8574   7.105   1.530   2.408
 2878TIP3    H1 8575   7.074   1.605   2.358
 2878TIP3    H2 8576   7.187   1.505   2.365
 2879TIP3   OH2 8577   7.967   6.762   3.762
 2879TIP3    H1 8578   7.873   6.765   3.743
 2879TIP3    H2 8579   7.972   6.748   3.857
 2880TIP3   OH2 8580   6.580   0.054   5.875
 2880TIP3    H1 8581   6.495   0.011   5.886
 2880TIP3    H2 8582   6.582   0.121   5.943
 2881TIP3   OH2 8583   2.881   2.100   2.318
 2881TIP3    H1 8584   2.826   2.152   2.259
 2881TIP3    H2 8585   2.966   2.096   2.274
 2882TIP3   OH2 8586   5.947   3.195   4.964
 2882TIP3    H1 8587   5.996   3.157   4.892
 2882TIP3    H2 8588   5.889   3.125   4.993
 2883TIP3   OH2 8589   6.600   3.758   4.398
 2883TIP3    H1 8590   6.595   3.789   4.308
 2883TIP3    H2 8591   6.675   3.805   4.435
 2884TIP3   OH2 8592   6.357   4.215   4.010
 2884TIP3    H1 8593   6.362   4.240   4.102
 2884TIP3    H2 8594   6.269   4.177   4.000
 2885TIP3   OH2 8595   6.128   7.847   4.261
 2885TIP3    H1 8596   6.063   7.895   4.210
 2885TIP3    H2 8597   6.078   7.778   4.305
 2886TIP3   OH2 8598   2.681   2.045   5.870
 2886TIP3    H1 8599   2.685   1.987   5.794
 2886TIP3    H2 8600   2.607   2.011   5.921
 2887TIP3   OH2 8601   7.140   1.159   6.729
 2887TIP3    H1 8602   7.108   1.158   6.820
 2887TIP3    H2 8603   7.223   1.112   6.732
 2888TIP3   OH2 8604   6.559   1.801   4.672
 2888TIP3    H1 8605   6.523   1.888   4.685
 2888TIP3    H2 8606   6.653   1.811   4.685
 2889TIP3   OH2 8607   1.300   2.831   0.154
 2889TIP3    H1 8608   1.370   2.796   0.209
 2889TIP3    H2 8609   1.342   2.845   0.069
 2890TIP3   OH2 8610   0.613   6.391   2.820
 2890TIP3    H1 8611   0.677   6.337   2.868
 2890TIP3    H2 8612   0.666   6.451   2.769
 2891TIP3   OH2 8613   5.973   3.430   2.905
 2891TIP3    H1 8614   6.022   3.347   2.899
 2891TIP3    H2 8615   5.902   3.411   2.966
 2892TIP3   OH2 8616   7.759   4.424   4.729
 2892TIP3    H1 8617   7.756   4.519   4.719
 2892TIP3    H2 8618   7.821   4.410   4.801
 2893TIP3   OH2 8619   4.016   4.729   4.328
 2893TIP3    H1 8620   4.085   4.762   4.269
 2893TIP3    H2 8621   3.938   4.778   4.304
 2894TIP3   OH2 8622   6.766   0.109   3.529
 2894TIP3    H1 8623   6.754   0.140   3.439
 2894TIP3    H2 8624   6.685   0.133   3.574
 2895TIP3   OH2 8625   1.957   3.848   1.523
 2895TIP3    H1 8626   1.973   3.820   1.433
 2895TIP3    H2 8627   1.867   3.820   1.541
 2896TIP3   OH2 8628   0.798   0.092   5.307
 2896TIP3    H1 8629   0.882   0.053   5.332
 2896TIP3    H2 8630   0.823   0.170   5.257
 2897TIP3   OH2 8631   3.659   1.209   1.770
 2897TIP3    H1 8632   3.586   1.268   1.752
 2897TIP3    H2 8633   3.652   1.142   1.702
 2898TIP3   OH2 8634   8.295   4.439   2.606
 2898TIP3    H1 8635   8.350   4.384   2.663
 2898TIP3    H2 8636   8.297   4.525   2.648
 2899TIP3   OH2 8637   5.091   4.140   0.112
 2899TIP3    H1 8638   5.155   4.183   0.169
 2899TIP3    H2 8639   5.020   4.204   0.103
 2900TIP3   OH2 8640   2.498   0.690   2.290
 2900TIP3    H1 8641   2.488   0.612   2.234
 2900TIP3    H2 8642   2.548   0.752   2.237
 2901TIP3   OH2 8643   5.318   1.498   5.910
 2901TIP3    H1 8644   5.357   1.531   5.991
 2901TIP3    H2 8645   5.379   1.526   5.842
 2902TIP3   OH2 8646   2.814   0.092   1.416
 2902TIP3    H1 8647   2.800   0.045   1.334
 2902TIP3    H2 8648   2.899   0.134   1.406
 2903TIP3   OH2 8649   5.338   3.776   6.074
 2903TIP3    H1 8650   5.267   3.732   6.120
 2903TIP3    H2 8651   5.294   3.831   6.009
 2904TIP3   OH2 8652   3.306   3.076   3.375
 2904TIP3    H1 8653   3.356   2.998   3.398
 2904TIP3    H2 8654   3.215   3.051   3.387
 2905TIP3   OH2 8655   0.863   5.456   5.476
 2905TIP3    H1 8656   0.902   5.497   5.399
 2905TIP3    H2 8657   0.935   5.407   5.516
 2906TIP3   OH2 8658   7.695   1.698   6.042
 2906TIP3    H1 8659   7.623   1.678   5.982
 2906TIP3    H2 8660   7.718   1.789   6.021
 2907TIP3   OH2 8661   2.900   4.022   6.811
 2907TIP3    H1 8662   2.953   3.981   6.743
 2907TIP3    H2 8663   2.956   4.021   6.889
 2908TIP3   OH2 8664   1.043   4.629   1.501
 2908TIP3    H1 8665   1.138   4.639   1.491
 2908TIP3    H2 8666   1.032   4.607   1.594
 2909TIP3   OH2 8667   8.260   5.126   0.185
 2909TIP3    H1 8668   8.247   5.208   0.232
 2909TIP3    H2 8669   8.351   5.130   0.154
 2910TIP3   OH2 8670   3.592   3.178   3.059
 2910TIP3    H1 8671   3.539   3.102   3.084
 2910TIP3    H2 8672   3.532   3.233   3.008
 2911TIP3   OH2 8673   4.029   5.615   2.503
 2911TIP3    H1 8674   4.116   5.623   2.462
 2911TIP3    H2 8675   3.968   5.617   2.430
 2912TIP3   OH2 8676   7.284   2.153   6.546
 2912TIP3    H1 8677   7.201   2.177   6.589
 2912TIP3    H2 8678   7.257   2.101   6.471
 2913TIP3   OH2 8679   4.200   3.480   6.730
 2913TIP3    H1 8680   4.148   3.453   6.805
 2913TIP3    H2 8681   4.260   3.546   6.765
 2914TIP3   OH2 8682   2.846   0.231   1.685
 2914TIP3    H1 8683   2.818   0.187   1.605
 2914TIP3    H2 8684   2.883   0.314   1.656
 2915TIP3   OH2 8685   7.957   2.396   2.474
 2915TIP3    H1 8686   7.950   2.450   2.395
 2915TIP3    H2 8687   7.874   2.409   2.520
 2916TIP3   OH2 8688   0.094   2.997   1.117
 2916TIP3    H1 8689   0.057   3.075   1.158
 2916TIP3    H2 8690   0.025   2.931   1.125
 2917TIP3   OH2 8691   7.929   4.696   5.081
 2917TIP3    H1 8692   7.869   4.702   5.156
 2917TIP3    H2 8693   7.872   4.703   5.005
 2918TIP3   OH2 8694   5.395   6.017   0.936
 2918TIP3    H1 8695   5.460   5.991   0.871
 2918TIP3    H2 8696   5.425   5.977   1.017
 2919TIP3   OH2 8697   8.064   6.545   1.587
 2919TIP3    H1 8698   7.979   6.588   1.579
 2919TIP3    H2 8699   8.092   6.564   1.676
 2920TIP3   OH2 8700   4.361   6.074   5.682
 2920TIP3    H1 8701   4.343   6.010   5.752
 2920TIP3    H2 8702   4.291   6.059   5.618
 2921TIP3   OH2 8703   2.228   5.277   3.119
 2921TIP3    H1 8704   2.133   5.283   3.130
 2921TIP3    H2 8705   2.241   5.196   3.070
 2922TIP3   OH2 8706   3.664   1.702   4.096
 2922TIP3    H1 8707   3.630   1.631   4.041
 2922TIP3    H2 8708   3.665   1.778   4.038
 2923TIP3   OH2 8709   0.292   3.894   2.562
 2923TIP3    H1 8710   0.303   3.802   2.584
 2923TIP3    H2 8711   0.314   3.900   2.469
 2924TIP3   OH2 8712   4.399   2.584   0.416
 2924TIP3    H1 8713   4.330   2.532   0.458
 2924TIP3    H2 8714   4.438   2.525   0.352
 2925TIP3   OH2 8715   8.404   0.348   3.104
 2925TIP3    H1 8716   8.311   0.360   3.124
 2925TIP3    H2 8717   8.432   0.277   3.162
 2926TIP3   OH2 8718   0.642   3.435   3.320
 2926TIP3    H1 8719   0.598   3.379   3.384
 2926TIP3    H2 8720   0.628   3.524   3.353
 2927TIP3   OH2 8721   5.386   5.642   1.157
 2927TIP3    H1 8722   5.390   5.552   1.189
 2927TIP3    H2 8723   5.395   5.634   1.062
 2928TIP3   OH2 8724   0.491   0.466   1.379
 2928TIP3    H1 8725   0.518   0.475   1.471
 2928TIP3    H2 8726   0.527   0.382   1.352
 2929TIP3   OH2 8727   2.875   4.991   5.640
 2929TIP3    H1 8728   2.968   4.969   5.647
 2929TIP3    H2 8729   2.829   4.909   5.656
 2930TIP3   OH2 8730   6.207   1.846   6.556
 2930TIP3    H1 8731   6.123   1.847   6.509
 2930TIP3    H2 8732   6.188   1.892   6.638
 2931TIP3   OH2 8733   6.158   5.548   0.534
 2931TIP3    H1 8734   6.073   5.511   0.508
 2931TIP3    H2 8735   6.163   5.631   0.486
 2932TIP3   OH2 8736   2.900   3.544   5.287
 2932TIP3    H1 8737   2.832   3.546   5.218
 2932TIP3    H2 8738   2.959   3.473   5.260
 2933TIP3   OH2 8739   0.909   3.522   5.942
 2933TIP3    H1 8740   0.954   3.468   6.007
 2933TIP3    H2 8741   0.851   3.461   5.897
 2934TIP3   OH2 8742   2.966   0.471   1.465
 2934TIP3    H1 8743   2.937   0.528   1.394
 2934TIP3    H2 8744   2.937   0.516   1.545
 2935TIP3   OH2 8745   4.197   4.113   0.126
 2935TIP3    H1 8746   4.162   4.195   0.091
 2935TIP3    H2 8747   4.119   4.059   0.143
 2936TIP3   OH2 8748   2.537   0.854   4.463
 2936TIP3    H1 8749   2.581   0.777   4.427
 2936TIP3    H2 8750   2.572   0.927   4.412
 2937TIP3   OH2 8751   2.303   0.555   4.550
 2937TIP3    H1 8752   2.307   0.612   4.473
 2937TIP3    H2 8753   2.218   0.512   4.543
 2938TIP3   OH2 8754   2.854   4.523   2.632
 2938TIP3    H1 8755   2.944   4.507   2.661
 2938TIP3    H2 8756   2.863   4.553   2.541
 2939TIP3   OH2 8757   1.970   0.179   5.441
 2939TIP3    H1 8758   1.899   0.159   5.502
 2939TIP3    H2 8759   2.040   0.215   5.495
 2940TIP3   OH2 8760   5.070   0.381   4.332
 2940TIP3    H1 8761   4.988   0.354   4.374
 2940TIP3    H2 8762   5.088   0.312   4.268
 2941TIP3   OH2 8763   2.521   7.001   4.257
 2941TIP3    H1 8764   2.500   7.094   4.246
 2941TIP3    H2 8765   2.505   6.963   4.171
 2942TIP3   OH2 8766   6.138   6.074   5.908
 2942TIP3    H1 8767   6.124   6.141   5.841
 2942TIP3    H2 8768   6.089   5.998   5.876
 2943TIP3   OH2 8769   1.366   3.368   3.023
 2943TIP3    H1 8770   1.336   3.333   3.107
 2943TIP3    H2 8771   1.306   3.441   3.005
 2944TIP3   OH2 8772   5.640   5.480   6.327
 2944TIP3    H1 8773   5.563   5.430   6.353
 2944TIP3    H2 8774   5.712   5.417   6.334
 2945TIP3   OH2 8775   0.233   2.244   2.527
 2945TIP3    H1 8776   0.169   2.215   2.462
 2945TIP3    H2 8777   0.184   2.300   2.586
 2946TIP3   OH2 8778   6.122   5.669   2.435
 2946TIP3    H1 8779   6.185   5.609   2.477
 2946TIP3    H2 8780   6.103   5.628   2.351
 2947TIP3   OH2 8781   6.905   7.189   5.086
 2947TIP3    H1 8782   6.922   7.260   5.025
 2947TIP3    H2 8783   6.927   7.225   5.172
 2948TIP3   OH2 8784   3.849   6.264   2.268
 2948TIP3    H1 8785   3.763   6.246   2.230
 2948TIP3    H2 8786   3.900   6.298   2.196
 2949TIP3   OH2 8787   4.562   0.043   2.654
 2949TIP3    H1 8788   4.498   0.061   2.586
 2949TIP3    H2 8789   4.529   0.090   2.731
 2950TIP3   OH2 8790   1.677   2.516   1.101
 2950TIP3    H1 8791   1.694   2.596   1.149
 2950TIP3    H2 8792   1.734   2.521   1.024
 2951TIP3   OH2 8793   5.891   7.035   2.856
 2951TIP3    H1 8794   5.981   7.002   2.850
 2951TIP3    H2 8795   5.843   6.985   2.790
 2952TIP3   OH2 8796   6.064   7.513   0.928
 2952TIP3    H1 8797   6.045   7.607   0.925
 2952TIP3    H2 8798   5.978   7.471   0.935
 2953TIP3   OH2 8799   6.609   5.311   1.684
 2953TIP3    H1 8800   6.595   5.249   1.613
 2953TIP3    H2 8801   6.535   5.372   1.677
 2954TIP3   OH2 8802   7.176   1.032   3.336
 2954TIP3    H1 8803   7.162   1.122   3.364
 2954TIP3    H2 8804   7.137   1.028   3.248
 2955TIP3   OH2 8805   1.883   3.197   0.208
 2955TIP3    H1 8806   1.888   3.290   0.232
 2955TIP3    H2 8807   1.793   3.172   0.229
 2956TIP3   OH2 8808   2.564   0.666   1.527
 2956TIP3    H1 8809   2.585   0.631   1.440
 2956TIP3    H2 8810   2.531   0.591   1.576
 2957TIP3   OH2 8811   5.766   6.838   0.620
 2957TIP3    H1 8812   5.718   6.773   0.671
 2957TIP3    H2 8813   5.853   6.841   0.660
 2958TIP3   OH2 8814   2.798   7.366   4.854
 2958TIP3    H1 8815   2.726   7.310   4.883
 2958TIP3    H2 8816   2.876   7.325   4.890
 2959TIP3   OH2 8817   6.126   5.486   5.922
 2959TIP3    H1 8818   6.170   5.413   5.965
 2959TIP3    H2 8819   6.194   5.553   5.914
 2960TIP3   OH2 8820   6.708   7.577   2.550
 2960TIP3    H1 8821   6.670   7.537   2.471
 2960TIP3    H2 8822   6.648   7.649   2.571
 2961TIP3   OH2 8823   0.812   6.260   2.944
 2961TIP3    H1 8824   0.797   6.290   3.034
 2961TIP3    H2 8825   0.806   6.165   2.949
 2962TIP3   OH2 8826   4.340   2.771   6.382
 2962TIP3    H1 8827   4.305   2.860   6.373
 2962TIP3    H2 8828   4.285   2.731   6.450
 2963TIP3   OH2 8829   6.513   4.258   1.894
 2963TIP3    H1 8830   6.604   4.261   1.924
 2963TIP3    H2 8831   6.476   4.181   1.937
 2964TIP3   OH2 8832   3.424   5.451   6.367
 2964TIP3    H1 8833   3.353   5.437   6.303
 2964TIP3    H2 8834   3.461   5.536   6.342
 2965TIP3   OH2 8835   0.689   2.686   4.309
 2965TIP3    H1 8836   0.622   2.755   4.310
 2965TIP3    H2 8837   0.639   2.604   4.308
 2966TIP3   OH2 8838   6.271   6.388   4.301
 2966TIP3    H1 8839   6.354   6.415   4.262
 2966TIP3    H2 8840   6.210   6.459   4.279
 2967TIP3   OH2 8841   6.345   7.831   1.395
 2967TIP3    H1 8842   6.384   7.744   1.405
 2967TIP3    H2 8843   6.396   7.873   1.326
 2968TIP3   OH2 8844   0.249   2.312   0.801
 2968TIP3    H1 8845   0.200   2.352   0.872
 2968TIP3    H2 8846   0.341   2.328   0.822
 2969TIP3   OH2 8847   2.683   0.537   3.729
 2969TIP3    H1 8848   2.686   0.605   3.662
 2969TIP3    H2 8849   2.633   0.466   3.689
 2970TIP3   OH2 8850   2.296   5.303   2.514
 2970TIP3    H1 8851   2.235   5.373   2.491
 2970TIP3    H2 8852   2.369   5.347   2.558
 2971TIP3   OH2 8853   3.613   6.176   2.169
 2971TIP3    H1 8854   3.608   6.082   2.184
 2971TIP3    H2 8855   3.600   6.187   2.075
 2972TIP3   OH2 8856   0.227   7.347   1.437
 2972TIP3    H1 8857   0.197   7.318   1.351
 2972TIP3    H2 8858   0.203   7.440   1.441
 2973TIP3   OH2 8859   6.638   6.192   1.653
 2973TIP3    H1 8860   6.559   6.221   1.609
 2973TIP3    H2 8861   6.678   6.273   1.686
 2974TIP3   OH2 8862   0.204   4.676   1.587
 2974TIP3    H1 8863   0.197   4.585   1.557
 2974TIP3    H2 8864   0.194   4.728   1.508
 2975TIP3   OH2 8865   7.023   5.426   3.445
 2975TIP3    H1 8866   7.097   5.380   3.485
 2975TIP3    H2 8867   7.041   5.518   3.460
 2976TIP3   OH2 8868   5.415   2.857   1.042
 2976TIP3    H1 8869   5.446   2.786   1.098
 2976TIP3    H2 8870   5.421   2.935   1.097
 2977TIP3   OH2 8871   6.940   0.923   4.277
 2977TIP3    H1 8872   6.944   0.828   4.283
 2977TIP3    H2 8873   7.024   0.953   4.312
 2978TIP3   OH2 8874   1.255   6.608   5.412
 2978TIP3    H1 8875   1.194   6.611   5.485
 2978TIP3    H2 8876   1.312   6.533   5.430
 2979TIP3   OH2 8877   2.372   6.235   4.916
 2979TIP3    H1 8878   2.300   6.259   4.858
 2979TIP3    H2 8879   2.445   6.216   4.857
 2980TIP3   OH2 8880   5.733   1.939   1.575
 2980TIP3    H1 8881   5.789   1.911   1.502
 2980TIP3    H2 8882   5.705   2.028   1.551
 2981TIP3   OH2 8883   2.645   4.954   3.211
 2981TIP3    H1 8884   2.662   4.930   3.119
 2981TIP3    H2 8885   2.667   5.047   3.216
 2982TIP3   OH2 8886   7.219   0.782   6.758
 2982TIP3    H1 8887   7.151   0.827   6.707
 2982TIP3    H2 8888   7.194   0.795   6.849
 2983TIP3   OH2 8889   4.981   6.701   6.030
 2983TIP3    H1 8890   4.928   6.667   5.958
 2983TIP3    H2 8891   5.072   6.687   6.002
 2984TIP3   OH2 8892   3.203   6.147   0.488
 2984TIP3    H1 8893   3.270   6.145   0.419
 2984TIP3    H2 8894   3.186   6.055   0.507
 2985TIP3   OH2 8895   4.023   4.724   5.745
 2985TIP3    H1 8896   4.079   4.650   5.720
 2985TIP3    H2 8897   4.082   4.786   5.788
 2986TIP3   OH2 8898   6.240   1.952   6.130
 2986TIP3    H1 8899   6.285   2.028   6.167
 2986TIP3    H2 8900   6.267   1.878   6.185
 2987TIP3   OH2 8901   6.828   1.567   3.556
 2987TIP3    H1 8902   6.865   1.652   3.533
 2987TIP3    H2 8903   6.746   1.562   3.507
 2988TIP3   OH2 8904   3.724   3.956   1.494
 2988TIP3    H1 8905   3.774   3.934   1.416
 2988TIP3    H2 8906   3.790   3.986   1.557
 2989TIP3   OH2 8907   4.089   5.963   1.726
 2989TIP3    H1 8908   4.156   5.931   1.786
 2989TIP3    H2 8909   4.010   5.973   1.780
 2990TIP3   OH2 8910   7.183   2.552   1.124
 2990TIP3    H1 8911   7.227   2.577   1.206
 2990TIP3    H2 8912   7.141   2.632   1.093
 2991TIP3   OH2 8913   7.181   6.308   5.428
 2991TIP3    H1 8914   7.218   6.384   5.383
 2991TIP3    H2 8915   7.152   6.343   5.512
 2992TIP3   OH2 8916   2.254   3.604   5.197
 2992TIP3    H1 8917   2.235   3.694   5.223
 2992TIP3    H2 8918   2.316   3.573   5.263
 2993TIP3   OH2 8919   1.725   0.107   4.677
 2993TIP3    H1 8920   1.663   0.066   4.617
 2993TIP3    H2 8921   1.670   0.158   4.737
 2994TIP3   OH2 8922   8.371   3.757   6.682
 2994TIP3    H1 8923   8.334   3.691   6.624
 2994TIP3    H2 8924   8.418   3.707   6.749
 2995TIP3   OH2 8925   7.754   0.796   0.322
 2995TIP3    H1 8926   7.841   0.780   0.286
 2995TIP3    H2 8927   7.743   0.891   0.316
 2996TIP3   OH2 8928   6.085   4.462   4.626
 2996TIP3    H1 8929   6.052   4.380   4.589
 2996TIP3    H2 8930   6.035   4.530   4.580
 2997TIP3   OH2 8931   5.402   4.101   4.982
 2997TIP3    H1 8932   5.426   4.114   4.891
 2997TIP3    H2 8933   5.403   4.189   5.020
 2998TIP3   OH2 8934   7.433   2.702   3.532
 2998TIP3    H1 8935   7.522   2.668   3.542
 2998TIP3    H2 8936   7.415   2.749   3.613
 2999TIP3   OH2 8937   5.152   3.694   1.324
 2999TIP3    H1 8938   5.097   3.767   1.354
 2999TIP3    H2 8939   5.175   3.717   1.234
 3000TIP3   OH2 8940   6.219   6.050   4.865
 3000TIP3    H1 8941   6.173   6.010   4.791
 3000TIP3    H2 8942   6.291   5.989   4.884
 3001TIP3   OH2 8943   5.716   3.254   0.123
 3001TIP3    H1 8944   5.630   3.274   0.162
 3001TIP3    H2 8945   5.712   3.160   0.104
 3002TIP3   OH2 8946   6.207   5.758   6.493
 3002TIP3    H1 8947   6.120   5.796   6.506
 3002TIP3    H2 8948   6.195   5.695   6.423
 3003TIP3   OH2 8949   1.487   1.950   2.158
 3003TIP3    H1 8950   1.580   1.939   2.176
 3003TIP3    H2 8951   1.477   2.043   2.134
 3004TIP3   OH2 8952   6.321   1.592   2.944
 3004TIP3    H1 8953   6.324   1.676   2.898
 3004TIP3    H2 8954   6.411   1.562   2.945
 3005TIP3   OH2 8955   6.361   6.220   0.347
 3005TIP3    H1 8956   6.363   6.305   0.302
 3005TIP3    H2 8957   6.446   6.181   0.326
 3006TIP3   OH2 8958   2.062   5.166   6.536
 3006TIP3    H1 8959   2.084   5.212   6.455
 3006TIP3    H2 8960   2.058   5.235   6.602
 3007TIP3   OH2 8961   5.036   7.915   5.355
 3007TIP3    H1 8962   5.126   7.918   5.388
 3007TIP3    H2 8963   4.982   7.909   5.434
 3008TIP3   OH2 8964   2.843   6.512   4.664
 3008TIP3    H1 8965   2.833   6.547   4.575
 3008TIP3    H2 8966   2.874   6.423   4.651
 3009TIP3   OH2 8967   8.353   6.306   3.439
 3009TIP3    H1 8968   8.333   6.306   3.345
 3009TIP3    H2 8969   8.304   6.381   3.473
 3010TIP3   OH2 8970   0.570   2.066   5.661
 3010TIP3    H1 8971   0.665   2.079   5.657
 3010TIP3    H2 8972   0.544   2.105   5.745
 3011TIP3   OH2 8973   4.950   1.695   3.113
 3011TIP3    H1 8974   4.911   1.773   3.151
 3011TIP3    H2 8975   4.913   1.689   3.025
 3012TIP3   OH2 8976   6.357   1.642   1.143
 3012TIP3    H1 8977   6.390   1.617   1.229
 3012TIP3    H2 8978   6.353   1.560   1.094
 3013TIP3   OH2 8979   5.521   4.595   5.009
 3013TIP3    H1 8980   5.614   4.609   4.992
 3013TIP3    H2 8981   5.501   4.653   5.082
 3014TIP3   OH2 8982   4.670   2.858   1.409
 3014TIP3    H1 8983   4.763   2.878   1.403
 3014TIP3    H2 8984   4.664   2.794   1.480
 3015TIP3   OH2 8985   6.759   5.203   0.584
 3015TIP3    H1 8986   6.740   5.225   0.493
 3015TIP3    H2 8987   6.806   5.279   0.618
 3016TIP3   OH2 8988   7.918   3.455   3.483
 3016TIP3    H1 8989   7.835   3.482   3.445
 3016TIP3    H2 8990   7.900   3.370   3.523
 3017TIP3   OH2 8991   4.814   3.580   6.670
 3017TIP3    H1 8992   4.765   3.498   6.669
 3017TIP3    H2 8993   4.890   3.561   6.725
 3018TIP3   OH2 8994   0.700   4.902   2.464
 3018TIP3    H1 8995   0.701   4.851   2.545
 3018TIP3    H2 8996   0.792   4.910   2.439
 3019TIP3   OH2 8997   7.702   7.585   0.524
 3019TIP3    H1 8998   7.727   7.562   0.613
 3019TIP3    H2 8999   7.615   7.548   0.512
 3020TIP3   OH2 9000   4.412   5.102   2.232
 3020TIP3    H1 9001   4.378   5.143   2.312
 3020TIP3    H2 9002   4.507   5.105   2.243
 3021TIP3   OH2 9003   0.435   5.580   6.007
 3021TIP3    H1 9004   0.357   5.537   5.973
 3021TIP3    H2 9005   0.402   5.640   6.074
 3022TIP3   OH2 9006   5.201   5.160   2.171
 3022TIP3    H1 9007   5.276   5.213   2.198
 3022TIP3    H2 9008   5.172   5.200   2.089
 3023TIP3   OH2 9009   1.923   0.784   6.023
 3023TIP3    H1 9010   1.872   0.726   6.080
 3023TIP3    H2 9011   1.892   0.872   6.044
 3024TIP3   OH2 9012   6.817   7.714   1.885
 3024TIP3    H1 9013   6.809   7.707   1.790
 3024TIP3    H2 9014   6.758   7.646   1.919
 3025TIP3   OH2 9015   8.278   6.405   0.412
 3025TIP3    H1 9016   8.266   6.437   0.502
 3025TIP3    H2 9017   8.372   6.397   0.402
 3026TIP3   OH2 9018   6.738   4.986   1.205
 3026TIP3    H1 9019   6.782   4.913   1.250
 3026TIP3    H2 9020   6.789   5.000   1.125
 3027TIP3   OH2 9021   0.870   6.056   2.000
 3027TIP3    H1 9022   0.947   6.113   1.994
 3027TIP3    H2 9023   0.831   6.078   2.084
 3028TIP3   OH2 9024   7.216   1.215   6.218
 3028TIP3    H1 9025   7.244   1.291   6.166
 3028TIP3    H2 9026   7.156   1.252   6.282
 3029TIP3   OH2 9027   4.063   2.343   2.140
 3029TIP3    H1 9028   3.982   2.385   2.111
 3029TIP3    H2 9029   4.071   2.369   2.232
 3030TIP3   OH2 9030   1.436   6.720   5.218
 3030TIP3    H1 9031   1.390   6.673   5.288
 3030TIP3    H2 9032   1.526   6.730   5.251
 3031TIP3   OH2 9033   0.445   7.149   2.549
 3031TIP3    H1 9034   0.484   7.069   2.514
 3031TIP3    H2 9035   0.402   7.190   2.474
 3032TIP3   OH2 9036   1.961   3.209   2.653
 3032TIP3    H1 9037   1.869   3.215   2.628
 3032TIP3    H2 9038   1.978   3.290   2.701
 3033TIP3   OH2 9039   6.239   1.933   3.152
 3033TIP3    H1 9040   6.177   1.935   3.080
 3033TIP3    H2 9041   6.319   1.973   3.116
 3034TIP3   OH2 9042   1.887   4.073   6.340
 3034TIP3    H1 9043   1.965   4.018   6.330
 3034TIP3    H2 9044   1.871   4.076   6.434
 3035TIP3   OH2 9045   2.155   1.188   0.079
 3035TIP3    H1 9046   2.108   1.137   0.146
 3035TIP3    H2 9047   2.247   1.175   0.100
 3036TIP3   OH2 9048   6.207   5.206   6.447
 3036TIP3    H1 9049   6.211   5.250   6.362
 3036TIP3    H2 9050   6.209   5.113   6.425
 3037TIP3   OH2 9051   5.389   3.449   6.291
 3037TIP3    H1 9052   5.439   3.368   6.279
 3037TIP3    H2 9053   5.301   3.420   6.314
 3038TIP3   OH2 9054   4.906   5.693   0.968
 3038TIP3    H1 9055   4.960   5.697   0.889
 3038TIP3    H2 9056   4.964   5.723   1.038
 3039TIP3   OH2 9057   4.832   4.653   3.389
 3039TIP3    H1 9058   4.784   4.583   3.345
 3039TIP3    H2 9059   4.905   4.673   3.330
 3040TIP3   OH2 9060   2.634   6.511   0.729
 3040TIP3    H1 9061   2.543   6.510   0.702
 3040TIP3    H2 9062   2.631   6.516   0.825
 3041TIP3   OH2 9063   3.548   2.878   6.075
 3041TIP3    H1 9064   3.615   2.880   6.007
 3041TIP3    H2 9065   3.510   2.791   6.070
 3042TIP3   OH2 9066   4.574   6.936   1.381
 3042TIP3    H1 9067   4.548   6.854   1.422
 3042TIP3    H2 9068   4.658   6.917   1.340
 3043TIP3   OH2 9069   0.683   5.538   3.392
 3043TIP3    H1 9070   0.606   5.574   3.349
 3043TIP3    H2 9071   0.721   5.611   3.440
 3044TIP3   OH2 9072   7.676   4.562   3.578
 3044TIP3    H1 9073   7.634   4.537   3.496
 3044TIP3    H2 9074   7.626   4.515   3.645
 3045TIP3   OH2 9075   1.426   6.410   0.437
 3045TIP3    H1 9076   1.338   6.382   0.461
 3045TIP3    H2 9077   1.412   6.487   0.381
 3046TIP3   OH2 9078   4.138   4.230   2.883
 3046TIP3    H1 9079   4.146   4.151   2.830
 3046TIP3    H2 9080   4.142   4.198   2.974
 3047TIP3   OH2 9081   6.717   6.221   0.087
 3047TIP3    H1 9082   6.690   6.310   0.067
 3047TIP3    H2 9083   6.790   6.203   0.029
 3048TIP3   OH2 9084   3.825   6.124   0.619
 3048TIP3    H1 9085   3.870   6.114   0.703
 3048TIP3    H2 9086   3.895   6.119   0.554
 3049TIP3   OH2 9087   1.448   7.640   1.573
 3049TIP3    H1 9088   1.415   7.574   1.512
 3049TIP3    H2 9089   1.373   7.697   1.590
 3050TIP3   OH2 9090   7.110   7.202   0.799
 3050TIP3    H1 9091   7.017   7.210   0.818
 3050TIP3    H2 9092   7.121   7.245   0.714
 3051TIP3   OH2 9093   4.235   0.383   5.503
 3051TIP3    H1 9094   4.191   0.447   5.447
 3051TIP3    H2 9095   4.297   0.339   5.444
 3052TIP3   OH2 9096   1.634   3.004   2.856
 3052TIP3    H1 9097   1.693   2.929   2.850
 3052TIP3    H2 9098   1.569   2.989   2.787
 3053TIP3   OH2 9099   1.984   2.541   6.346
 3053TIP3    H1 9100   2.053   2.607   6.353
 3053TIP3    H2 9101   1.990   2.492   6.429
 3054TIP3   OH2 9102   3.607   0.920   3.568
 3054TIP3    H1 9103   3.679   0.980   3.550
 3054TIP3    H2 9104   3.549   0.968   3.627
 3055TIP3   OH2 9105   7.523   2.403   0.131
 3055TIP3    H1 9106   7.456   2.356   0.181
 3055TIP3    H2 9107   7.481   2.487   0.109
 3056TIP3   OH2 9108   3.927   6.839   6.363
 3056TIP3    H1 9109   4.017   6.872   6.362
 3056TIP3    H2 9110   3.874   6.913   6.332
 3057TIP3   OH2 9111   5.679   1.777  -0.044
 3057TIP3    H1 9112   5.635   1.745   0.034
 3057TIP3    H2 9113   5.762   1.811  -0.013
 3058TIP3   OH2 9114   7.885   5.168   3.268
 3058TIP3    H1 9115   7.858   5.107   3.200
 3058TIP3    H2 9116   7.816   5.235   3.269
 3059TIP3   OH2 9117   6.827   1.647   0.551
 3059TIP3    H1 9118   6.840   1.554   0.569
 3059TIP3    H2 9119   6.755   1.672   0.608
 3060TIP3   OH2 9120   3.880   4.052   5.815
 3060TIP3    H1 9121   3.974   4.068   5.813
 3060TIP3    H2 9122   3.861   4.011   5.730
 3061TIP3   OH2 9123   6.176   3.200   4.318
 3061TIP3    H1 9124   6.233   3.270   4.349
 3061TIP3    H2 9125   6.155   3.149   4.397
 3062TIP3   OH2 9126   2.581   4.167   4.069
 3062TIP3    H1 9127   2.506   4.129   4.114
 3062TIP3    H2 9128   2.543   4.231   4.008
 3063TIP3   OH2 9129   2.966   6.394   3.922
 3063TIP3    H1 9130   2.899   6.460   3.907
 3063TIP3    H2 9131   2.966   6.381   4.017
 3064TIP3   OH2 9132   6.074   0.553   6.364
 3064TIP3    H1 9133   6.083   0.568   6.458
 3064TIP3    H2 9134   6.156   0.509   6.339
 3065TIP3   OH2 9135   7.159   0.594   2.130
 3065TIP3    H1 9136   7.107   0.514   2.124
 3065TIP3    H2 9137   7.099   0.663   2.101
 3066TIP3   OH2 9138   3.717   2.368   5.234
 3066TIP3    H1 9139   3.745   2.450   5.193
 3066TIP3    H2 9140   3.794   2.312   5.231
 3067TIP3   OH2 9141   0.761   2.253   1.009
 3067TIP3    H1 9142   0.802   2.234   1.094
 3067TIP3    H2 9143   0.744   2.168   0.970
 3068TIP3   OH2 9144   4.567   1.073   2.605
 3068TIP3    H1 9145   4.523   1.058   2.689
 3068TIP3    H2 9146   4.635   1.138   2.626
 3069TIP3   OH2 9147   5.351   7.342   0.996
 3069TIP3    H1 9148   5.268   7.320   1.039
 3069TIP3    H2 9149   5.387   7.257   0.969
 3070TIP3   OH2 9150   5.429   3.737   6.412
 3070TIP3    H1 9151   5.445   3.656   6.364
 3070TIP3    H2 9152   5.335   3.737   6.430
 3071TIP3   OH2 9153   1.032   6.998   2.713
 3071TIP3    H1 9154   0.973   6.925   2.694
 3071TIP3    H2 9155   1.092   7.000   2.638
 3072TIP3   OH2 9156   2.367   5.586   0.994
 3072TIP3    H1 9157   2.391   5.496   0.969
 3072TIP3    H2 9158   2.450   5.630   1.008
 3073TIP3   OH2 9159   7.159   0.849   5.906
 3073TIP3    H1 9160   7.118   0.927   5.943
 3073TIP3    H2 9161   7.169   0.870   5.813
 3074TIP3   OH2 9162   4.954   4.980   1.861
 3074TIP3    H1 9163   4.884   5.043   1.842
 3074TIP3    H2 9164   4.911   4.910   1.910
 3075TIP3   OH2 9165   6.067   7.069   0.130
 3075TIP3    H1 9166   6.147   7.036   0.089
 3075TIP3    H2 9167   6.030   6.992   0.174
 3076TIP3   OH2 9168   5.172   3.970   4.469
 3076TIP3    H1 9169   5.207   3.962   4.380
 3076TIP3    H2 9170   5.140   4.060   4.474
 3077TIP3   OH2 9171   7.181   4.025   2.288
 3077TIP3    H1 9172   7.202   4.052   2.378
 3077TIP3    H2 9173   7.185   4.106   2.238
 3078TIP3   OH2 9174   5.352   4.825   3.316
 3078TIP3    H1 9175   5.430   4.834   3.372
 3078TIP3    H2 9176   5.364   4.890   3.248
 3079TIP3   OH2 9177   0.159   7.139   0.046
 3079TIP3    H1 9178   0.196   7.051   0.046
 3079TIP3    H2 9179   0.232   7.197   0.065
 3080TIP3   OH2 9180   3.960   4.408   3.236
 3080TIP3    H1 9181   4.019   4.352   3.286
 3080TIP3    H2 9182   3.963   4.493   3.280
 3081TIP3   OH2 9183   0.222   5.776   0.366
 3081TIP3    H1 9184   0.160   5.759   0.294
 3081TIP3    H2 9185   0.216   5.698   0.421
 3082TIP3   OH2 9186   4.067   2.376   4.160
 3082TIP3    H1 9187   4.053   2.304   4.098
 3082TIP3    H2 9188   4.026   2.346   4.241
 3083TIP3   OH2 9189   4.577   6.702   2.086
 3083TIP3    H1 9190   4.591   6.778   2.141
 3083TIP3    H2 9191   4.530   6.639   2.142
 3084TIP3   OH2 9192   5.644   4.699   3.959
 3084TIP3    H1 9193   5.602   4.699   3.874
 3084TIP3    H2 9194   5.682   4.612   3.968
 3085TIP3   OH2 9195   5.951   4.295   4.219
 3085TIP3    H1 9196   6.004   4.215   4.229
 3085TIP3    H2 9197   5.993   4.359   4.277
 3086TIP3   OH2 9198   3.371   2.993   3.732
 3086TIP3    H1 9199   3.344   3.048   3.659
 3086TIP3    H2 9200   3.295   2.990   3.790
 3087TIP3   OH2 9201   8.140   2.849   2.084
 3087TIP3    H1 9202   8.049   2.873   2.102
 3087TIP3    H2 9203   8.141   2.825   1.991
 3088TIP3   OH2 9204   4.055   7.401   6.242
 3088TIP3    H1 9205   4.088   7.473   6.295
 3088TIP3    H2 9206   4.127   7.381   6.182
 3089TIP3   OH2 9207   4.270   4.212   1.808
 3089TIP3    H1 9208   4.242   4.165   1.887
 3089TIP3    H2 9209   4.341   4.158   1.772
 3090TIP3   OH2 9210   5.177   6.591   0.448
 3090TIP3    H1 9211   5.139   6.593   0.360
 3090TIP3    H2 9212   5.172   6.682   0.478
 3091TIP3   OH2 9213   6.541   0.543   5.815
 3091TIP3    H1 9214   6.549   0.637   5.799
 3091TIP3    H2 9215   6.579   0.501   5.738
 3092TIP3   OH2 9216   0.428   7.974   0.523
 3092TIP3    H1 9217   0.499   7.945   0.467
 3092TIP3    H2 9218   0.363   7.904   0.518
 3093TIP3   OH2 9219   0.757   4.056   2.555
 3093TIP3    H1 9220   0.736   4.008   2.475
 3093TIP3    H2 9221   0.676   4.057   2.606
 3094TIP3   OH2 9222   4.318   5.992   3.793
 3094TIP3    H1 9223   4.312   5.960   3.883
 3094TIP3    H2 9224   4.231   5.973   3.756
 3095TIP3   OH2 9225   2.863   7.656   3.745
 3095TIP3    H1 9226   2.840   7.749   3.735
 3095TIP3    H2 9227   2.870   7.624   3.655
 3096TIP3   OH2 9228   2.375   1.749   4.745
 3096TIP3    H1 9229   2.456   1.794   4.767
 3096TIP3    H2 9230   2.321   1.816   4.703
 3097TIP3   OH2 9231   0.039   2.256   4.136
 3097TIP3    H1 9232   0.100   2.329   4.126
 3097TIP3    H2 9233  -0.027   2.290   4.197
 3098TIP3   OH2 9234   3.747   3.761   6.450
 3098TIP3    H1 9235   3.767   3.678   6.493
 3098TIP3    H2 9236   3.654   3.775   6.466
 3099TIP3   OH2 9237   6.672   2.368   0.928
 3099TIP3    H1 9238   6.588   2.347   0.887
 3099TIP3    H2 9239   6.728   2.294   0.906
 3100TIP3   OH2 9240   2.545   2.878   5.954
 3100TIP3    H1 9241   2.600   2.829   5.892
 3100TIP3    H2 9242   2.473   2.911   5.901
 3101TIP3   OH2 9243   2.504   1.547   0.350
 3101TIP3    H1 9244   2.591   1.568   0.317
 3101TIP3    H2 9245   2.444   1.573   0.280
 3102TIP3   OH2 9246   1.089   4.404   6.629
 3102TIP3    H1 9247   1.055   4.332   6.682
 3102TIP3    H2 9248   1.177   4.420   6.664
 3103TIP3   OH2 9249   2.605   0.779   1.198
 3103TIP3    H1 9250   2.671   0.794   1.266
 3103TIP3    H2 9251   2.542   0.719   1.239
 3104TIP3   OH2 9252   5.417   0.584   6.019
 3104TIP3    H1 9253   5.508   0.587   6.048
 3104TIP3    H2 9254   5.403   0.669   5.977
 3105TIP3   OH2 9255   1.966   5.718   1.248
 3105TIP3    H1 9256   2.023   5.656   1.294
 3105TIP3    H2 9257   1.950   5.788   1.312
 3106TIP3   OH2 9258   7.343   5.916   3.818
 3106TIP3    H1 9259   7.388   5.889   3.897
 3106TIP3    H2 9260   7.273   5.974   3.848
 3107TIP3   OH2 9261   7.546   6.089   4.456
 3107TIP3    H1 9262   7.558   6.161   4.518
 3107TIP3    H2 9263   7.528   6.131   4.372
 3108TIP3   OH2 9264   0.511   1.634   5.011
 3108TIP3    H1 9265   0.528   1.621   5.105
 3108TIP3    H2 9266   0.564   1.710   4.987
 3109TIP3   OH2 9267   4.099   1.289   2.299
 3109TIP3    H1 9268   4.022   1.233   2.305
 3109TIP3    H2 9269   4.068   1.369   2.256
 3110TIP3   OH2 9270   1.487   0.904   5.050
 3110TIP3    H1 9271   1.419   0.865   5.106
 3110TIP3    H2 9272   1.569   0.883   5.094
 3111TIP3   OH2 9273   1.372   0.958   3.013
 3111TIP3    H1 9274   1.424   1.005   2.949
 3111TIP3    H2 9275   1.429   0.888   3.045
 3112TIP3   OH2 9276   7.994   6.467   6.839
 3112TIP3    H1 9277   7.899   6.467   6.842
 3112TIP3    H2 9278   8.016   6.388   6.788
 3113TIP3   OH2 9279   6.671   7.817   6.409
 3113TIP3    H1 9280   6.601   7.753   6.399
 3113TIP3    H2 9281   6.656   7.879   6.337
 3114TIP3   OH2 9282   2.087   7.226   0.808
 3114TIP3    H1 9283   2.116   7.136   0.818
 3114TIP3    H2 9284   2.112   7.249   0.718
 3115TIP3   OH2 9285   1.580   6.589   4.704
 3115TIP3    H1 9286   1.616   6.672   4.673
 3115TIP3    H2 9287   1.563   6.539   4.624
 3116TIP3   OH2 9288   6.570   2.612   4.367
 3116TIP3    H1 9289   6.560   2.622   4.461
 3116TIP3    H2 9290   6.665   2.609   4.353
 3117TIP3   OH2 9291   2.856   3.046   1.877
 3117TIP3    H1 9292   2.832   3.054   1.785
 3117TIP3    H2 9293   2.774   3.020   1.921
 3118TIP3   OH2 9294   6.766   4.244   1.065
 3118TIP3    H1 9295   6.751   4.208   0.978
 3118TIP3    H2 9296   6.856   4.220   1.086
 3119TIP3   OH2 9297   5.343   3.373   2.061
 3119TIP3    H1 9298   5.331   3.408   2.149
 3119TIP3    H2 9299   5.397   3.438   2.016
 3120TIP3   OH2 9300   8.255   7.078   2.942
 3120TIP3    H1 9301   8.215   7.139   3.004
 3120TIP3    H2 9302   8.292   7.135   2.874
 3121TIP3   OH2 9303   3.555   5.111   2.547
 3121TIP3    H1 9304   3.522   5.179   2.488
 3121TIP3    H2 9305   3.548   5.150   2.634
 3122TIP3   OH2 9306   6.867   3.142   1.266
 3122TIP3    H1 9307   6.947   3.146   1.318
 3122TIP3    H2 9308   6.820   3.222   1.289
 3123TIP3   OH2 9309   4.622   1.090   3.707
 3123TIP3    H1 9310   4.708   1.130   3.694
 3123TIP3    H2 9311   4.640   1.008   3.752
 3124TIP3   OH2 9312   5.244   5.537   6.584
 3124TIP3    H1 9313   5.152   5.516   6.576
 3124TIP3    H2 9314   5.248   5.632   6.570
 3125TIP3   OH2 9315   1.580   7.240   6.455
 3125TIP3    H1 9316   1.566   7.154   6.494
 3125TIP3    H2 9317   1.588   7.224   6.361
 3126TIP3   OH2 9318   7.886   7.627   2.761
 3126TIP3    H1 9319   7.933   7.709   2.777
 3126TIP3    H2 9320   7.929   7.563   2.818
 3127TIP3   OH2 9321   7.161   3.342   1.229
 3127TIP3    H1 9322   7.133   3.341   1.320
 3127TIP3    H2 9323   7.180   3.250   1.209
 3128TIP3   OH2 9324   7.800   3.313   3.849
 3128TIP3    H1 9325   7.893   3.301   3.828
 3128TIP3    H2 9326   7.761   3.345   3.767
 3129TIP3   OH2 9327   1.933   7.372   6.519
 3129TIP3    H1 9328   1.999   7.368   6.588
 3129TIP3    H2 9329   1.982   7.351   6.439
 3130TIP3   OH2 9330   3.668   7.487   3.224
 3130TIP3    H1 9331   3.731   7.459   3.157
 3130TIP3    H2 9332   3.694   7.439   3.302
 3131TIP3   OH2 9333   0.781   5.800   4.652
 3131TIP3    H1 9334   0.807   5.850   4.574
 3131TIP3    H2 9335   0.863   5.785   4.699
 3132TIP3   OH2 9336   1.443   2.480   5.914
 3132TIP3    H1 9337   1.470   2.572   5.919
 3132TIP3    H2 9338   1.359   2.482   5.869
 3133TIP3   OH2 9339   1.522   6.861   5.577
 3133TIP3    H1 9340   1.550   6.810   5.502
 3133TIP3    H2 9341   1.596   6.918   5.597
 3134TIP3   OH2 9342   1.063   2.015   3.026
 3134TIP3    H1 9343   1.009   2.094   3.033
 3134TIP3    H2 9344   1.058   1.975   3.113
 3135TIP3   OH2 9345   1.363   6.746   4.706
 3135TIP3    H1 9346   1.425   6.674   4.700
 3135TIP3    H2 9347   1.324   6.737   4.793
 3136TIP3   OH2 9348   5.828   3.292   0.820
 3136TIP3    H1 9349   5.801   3.277   0.730
 3136TIP3    H2 9350   5.747   3.307   0.868
 3137TIP3   OH2 9351   6.047   7.686   3.531
 3137TIP3    H1 9352   6.009   7.604   3.560
 3137TIP3    H2 9353   5.972   7.739   3.502
 3138TIP3   OH2 9354   5.507   5.242   2.022
 3138TIP3    H1 9355   5.525   5.148   2.022
 3138TIP3    H2 9356   5.451   5.255   1.946
 3139TIP3   OH2 9357   1.614   3.913   1.276
 3139TIP3    H1 9358   1.539   3.933   1.331
 3139TIP3    H2 9359   1.611   3.819   1.264
 3140TIP3   OH2 9360   2.029   1.488   5.460
 3140TIP3    H1 9361   2.018   1.461   5.369
 3140TIP3    H2 9362   2.034   1.406   5.510
 3141TIP3   OH2 9363   6.368   0.242   0.378
 3141TIP3    H1 9364   6.363   0.179   0.306
 3141TIP3    H2 9365   6.294   0.301   0.362
 3142TIP3   OH2 9366   2.946   5.145   3.018
 3142TIP3    H1 9367   2.884   5.207   3.055
 3142TIP3    H2 9368   3.002   5.197   2.961
 3143TIP3   OH2 9369   3.405   4.711   3.982
 3143TIP3    H1 9370   3.415   4.620   4.009
 3143TIP3    H2 9371   3.317   4.736   4.011
 3144TIP3   OH2 9372   3.497   4.411   5.439
 3144TIP3    H1 9373   3.506   4.424   5.344
 3144TIP3    H2 9374   3.516   4.496   5.477
 3145TIP3   OH2 9375   4.366   3.883   3.235
 3145TIP3    H1 9376   4.290   3.863   3.289
 3145TIP3    H2 9377   4.360   3.823   3.161
 3146TIP3   OH2 9378   2.098   1.189   3.428
 3146TIP3    H1 9379   2.053   1.273   3.434
 3146TIP3    H2 9380   2.182   1.210   3.386
 3147TIP3   OH2 9381   1.852   6.810   0.756
 3147TIP3    H1 9382   1.939   6.775   0.739
 3147TIP3    H2 9383   1.865   6.874   0.826
 3148TIP3   OH2 9384   4.709   1.126   0.501
 3148TIP3    H1 9385   4.671   1.038   0.493
 3148TIP3    H2 9386   4.665   1.165   0.576
 3149TIP3   OH2 9387   5.523   3.244   2.850
 3149TIP3    H1 9388   5.584   3.231   2.778
 3149TIP3    H2 9389   5.454   3.300   2.813
 3150TIP3   OH2 9390   5.362   5.472   6.183
 3150TIP3    H1 9391   5.338   5.415   6.256
 3150TIP3    H2 9392   5.299   5.452   6.114
 3151TIP3   OH2 9393   1.834  -0.026   0.084
 3151TIP3    H1 9394   1.885   0.042   0.040
 3151TIP3    H2 9395   1.752  -0.029   0.035
 3152TIP3   OH2 9396   7.835   1.403   0.528
 3152TIP3    H1 9397   7.839   1.498   0.531
 3152TIP3    H2 9398   7.846   1.381   0.436
 3153TIP3   OH2 9399   7.188   5.169   6.024
 3153TIP3    H1 9400   7.178   5.200   5.934
 3153TIP3    H2 9401   7.230   5.242   6.070
 3154TIP3   OH2 9402   8.260   5.729   3.862
 3154TIP3    H1 9403   8.339   5.747   3.810
 3154TIP3    H2 9404   8.198   5.694   3.799
 3155TIP3   OH2 9405   3.856   6.757   5.044
 3155TIP3    H1 9406   3.769   6.795   5.028
 3155TIP3    H2 9407   3.862   6.753   5.140
 3156TIP3   OH2 9408   5.356   1.650   0.809
 3156TIP3    H1 9409   5.333   1.742   0.796
 3156TIP3    H2 9410   5.388   1.647   0.899
 3157TIP3   OH2 9411   7.348   7.862   6.761
 3157TIP3    H1 9412   7.285   7.930   6.784
 3157TIP3    H2 9413   7.429   7.908   6.742
 3158TIP3   OH2 9414   1.261   6.254   1.366
 3158TIP3    H1 9415   1.251   6.296   1.451
 3158TIP3    H2 9416   1.286   6.164   1.385
 3159TIP3   OH2 9417   1.419   4.831   3.577
 3159TIP3    H1 9418   1.510   4.809   3.558
 3159TIP3    H2 9419   1.370   4.752   3.555
 3160TIP3   OH2 9420   5.653   5.939   2.724
 3160TIP3    H1 9421   5.714   5.905   2.789
 3160TIP3    H2 9422   5.705   6.002   2.673
 3161TIP3   OH2 9423   5.430   1.232   5.794
 3161TIP3    H1 9424   5.424   1.282   5.713
 3161TIP3    H2 9425   5.340   1.218   5.822
 3162TIP3   OH2 9426   4.068   2.399   4.660
 3162TIP3    H1 9427   4.115   2.316   4.668
 3162TIP3    H2 9428   4.135   2.462   4.633
 3163TIP3   OH2 9429   8.253   1.810   5.185
 3163TIP3    H1 9430   8.183   1.745   5.179
 3163TIP3    H2 9431   8.258   1.848   5.097
 3164TIP3   OH2 9432   2.124   6.080   4.131
 3164TIP3    H1 9433   2.202   6.033   4.103
 3164TIP3    H2 9434   2.149   6.120   4.215
 3165TIP3   OH2 9435   7.035   6.063   5.377
 3165TIP3    H1 9436   6.982   6.093   5.452
 3165TIP3    H2 9437   7.094   6.136   5.359
 3166TIP3   OH2 9438   6.070   4.012   2.884
 3166TIP3    H1 9439   5.983   4.013   2.925
 3166TIP3    H2 9440   6.076   4.096   2.839
 3167TIP3   OH2 9441   2.623   3.277   2.194
 3167TIP3    H1 9442   2.695   3.225   2.158
 3167TIP3    H2 9443   2.654   3.303   2.281
 3168TIP3   OH2 9444   1.319   5.182   0.740
 3168TIP3    H1 9445   1.336   5.277   0.736
 3168TIP3    H2 9446   1.283   5.168   0.828
 3169TIP3   OH2 9447   3.697   3.791   2.731
 3169TIP3    H1 9448   3.769   3.851   2.708
 3169TIP3    H2 9449   3.734   3.704   2.719
 3170TIP3   OH2 9450   4.951   4.081   4.131
 3170TIP3    H1 9451   4.928   4.165   4.171
 3170TIP3    H2 9452   4.868   4.034   4.125
 3171TIP3   OH2 9453   5.177   3.911   4.221
 3171TIP3    H1 9454   5.221   3.865   4.149
 3171TIP3    H2 9455   5.108   3.962   4.179
 3172TIP3   OH2 9456   1.134   4.299   3.978
 3172TIP3    H1 9457   1.054   4.281   4.027
 3172TIP3    H2 9458   1.104   4.343   3.898
 3173TIP3   OH2 9459   6.862   5.446   2.605
 3173TIP3    H1 9460   6.845   5.468   2.514
 3173TIP3    H2 9461   6.877   5.352   2.605
 3174TIP3   OH2 9462   8.277   0.564   1.852
 3174TIP3    H1 9463   8.366   0.569   1.818
 3174TIP3    H2 9464   8.221   0.589   1.778
 3175TIP3   OH2 9465   0.412   2.464   1.229
 3175TIP3    H1 9466   0.400   2.541   1.173
 3175TIP3    H2 9467   0.492   2.423   1.197
 3176TIP3   OH2 9468   7.905   0.072   1.666
 3176TIP3    H1 9469   7.935   0.073   1.757
 3176TIP3    H2 9470   7.934  -0.013   1.633
 3177TIP3   OH2 9471   2.899   7.088   1.793
 3177TIP3    H1 9472   2.902   7.184   1.789
 3177TIP3    H2 9473   2.831   7.068   1.857
 3178TIP3   OH2 9474   2.307   7.847   6.341
 3178TIP3    H1 9475   2.313   7.751   6.350
 3178TIP3    H2 9476   2.274   7.861   6.252
 3179TIP3   OH2 9477   2.672   4.826   5.570
 3179TIP3    H1 9478   2.588   4.820   5.616
 3179TIP3    H2 9479   2.655   4.884   5.496
 3180TIP3   OH2 9480   1.888   6.635   2.225
 3180TIP3    H1 9481   1.816   6.620   2.285
 3180TIP3    H2 9482   1.889   6.558   2.168
 3181TIP3   OH2 9483   0.437   1.052   6.225
 3181TIP3    H1 9484   0.375   1.089   6.162
 3181TIP3    H2 9485   0.414   1.092   6.309
 3182TIP3   OH2 9486   7.225   2.449   4.316
 3182TIP3    H1 9487   7.243   2.463   4.223
 3182TIP3    H2 9488   7.155   2.384   4.318
 3183TIP3   OH2 9489   0.406   6.278   3.672
 3183TIP3    H1 9490   0.484   6.280   3.729
 3183TIP3    H2 9491   0.401   6.187   3.642
 3184TIP3   OH2 9492   2.565   3.406   0.551
 3184TIP3    H1 9493   2.608   3.335   0.504
 3184TIP3    H2 9494   2.492   3.432   0.495
 3185TIP3   OH2 9495   1.441   3.732   2.174
 3185TIP3    H1 9496   1.439   3.819   2.134
 3185TIP3    H2 9497   1.488   3.744   2.256
 3186TIP3   OH2 9498   0.050   1.414   1.066
 3186TIP3    H1 9499  -0.006   1.492   1.076
 3186TIP3    H2 9500   0.112   1.421   1.138
 3187TIP3   OH2 9501   2.813   0.957   0.795
 3187TIP3    H1 9502   2.780   1.036   0.839
 3187TIP3    H2 9503   2.737   0.921   0.749
 3188TIP3   OH2 9504   6.631   5.921   3.050
 3188TIP3    H1 9505   6.695   5.986   3.021
 3188TIP3    H2 9506   6.665   5.889   3.133
 3189TIP3   OH2 9507   4.162   3.080   1.823
 3189TIP3    H1 9508   4.125   3.156   1.868
 3189TIP3    H2 9509   4.191   3.022   1.894
 3190TIP3   OH2 9510   1.751   4.873   3.308
 3190TIP3    H1 9511   1.771   4.804   3.245
 3190TIP3    H2 9512   1.808   4.853   3.383
 3191TIP3   OH2 9513   2.502   6.328   5.319
 3191TIP3    H1 9514   2.445   6.402   5.297
 3191TIP3    H2 9515   2.452   6.279   5.385
 3192TIP3   OH2 9516   0.447   3.325   2.961
 3192TIP3    H1 9517   0.447   3.343   2.867
 3192TIP3    H2 9518   0.470   3.409   3.002
 3193TIP3   OH2 9519   2.998   7.362   0.283
 3193TIP3    H1 9520   3.026   7.388   0.371
 3193TIP3    H2 9521   3.056   7.411   0.224
 3194TIP3   OH2 9522   0.143   1.186   4.606
 3194TIP3    H1 9523   0.053   1.153   4.609
 3194TIP3    H2 9524   0.145   1.241   4.527
 3195TIP3   OH2 9525   0.363   4.643   2.787
 3195TIP3    H1 9526   0.454   4.645   2.755
 3195TIP3    H2 9527   0.311   4.621   2.710
 3196TIP3   OH2 9528   5.863   3.819   5.601
 3196TIP3    H1 9529   5.832   3.862   5.521
 3196TIP3    H2 9530   5.807   3.854   5.670
 3197TIP3   OH2 9531   4.697   0.241   1.218
 3197TIP3    H1 9532   4.741   0.159   1.240
 3197TIP3    H2 9533   4.767   0.300   1.194
 3198TIP3   OH2 9534   8.021   7.647   0.611
 3198TIP3    H1 9535   7.968   7.692   0.545
 3198TIP3    H2 9536   8.015   7.703   0.688
 3199TIP3   OH2 9537   4.894   0.397   2.138
 3199TIP3    H1 9538   4.908   0.309   2.173
 3199TIP3    H2 9539   4.868   0.449   2.214
 3200TIP3   OH2 9540   1.887   3.629   5.133
 3200TIP3    H1 9541   1.959   3.689   5.153
 3200TIP3    H2 9542   1.808   3.683   5.144
 3201TIP3   OH2 9543   2.161   6.890   1.924
 3201TIP3    H1 9544   2.128   6.801   1.914
 3201TIP3    H2 9545   2.110   6.928   1.995
 3202TIP3   OH2 9546   5.586   3.027   5.352
 3202TIP3    H1 9547   5.546   2.982   5.277
 3202TIP3    H2 9548   5.671   2.984   5.362
 3203TIP3   OH2 9549   3.524   6.426   0.368
 3203TIP3    H1 9550   3.546   6.388   0.453
 3203TIP3    H2 9551   3.551   6.517   0.375
 3204TIP3   OH2 9552   3.438   7.018   1.880
 3204TIP3    H1 9553   3.349   7.039   1.905
 3204TIP3    H2 9554   3.478   6.985   1.961
 3205TIP3   OH2 9555   2.435   0.541   3.375
 3205TIP3    H1 9556   2.404   0.632   3.373
 3205TIP3    H2 9557   2.377   0.497   3.437
 3206TIP3   OH2 9558   6.736   6.604   4.699
 3206TIP3    H1 9559   6.645   6.592   4.728
 3206TIP3    H2 9560   6.753   6.697   4.710
 3207TIP3   OH2 9561   0.757   7.182   1.828
 3207TIP3    H1 9562   0.832   7.185   1.768
 3207TIP3    H2 9563   0.681   7.198   1.772
 3208TIP3   OH2 9564   5.202   1.299   4.754
 3208TIP3    H1 9565   5.238   1.332   4.671
 3208TIP3    H2 9566   5.110   1.281   4.734
 3209TIP3   OH2 9567   5.504   2.945   2.297
 3209TIP3    H1 9568   5.579   2.978   2.248
 3209TIP3    H2 9569   5.483   3.016   2.359
 3210TIP3   OH2 9570   2.487   2.410   1.352
 3210TIP3    H1 9571   2.490   2.344   1.422
 3210TIP3    H2 9572   2.579   2.421   1.327
 3211TIP3   OH2 9573   0.945   4.531   2.157
 3211TIP3    H1 9574   1.028   4.517   2.112
 3211TIP3    H2 9575   0.878   4.503   2.095
 3212TIP3   OH2 9576   1.407   1.892   6.202
 3212TIP3    H1 9577   1.476   1.924   6.144
 3212TIP3    H2 9578   1.365   1.972   6.236
 3213TIP3   OH2 9579   6.822   4.750   3.540
 3213TIP3    H1 9580   6.862   4.712   3.462
 3213TIP3    H2 9581   6.730   4.762   3.516
 3214TIP3   OH2 9582   5.165   3.240   3.021
 3214TIP3    H1 9583   5.093   3.178   3.010
 3214TIP3    H2 9584   5.170   3.254   3.115
 3215TIP3   OH2 9585   5.744   6.289   2.396
 3215TIP3    H1 9586   5.833   6.324   2.398
 3215TIP3    H2 9587   5.754   6.201   2.360
 3216TIP3   OH2 9588   3.002   6.295   4.514
 3216TIP3    H1 9589   3.074   6.235   4.532
 3216TIP3    H2 9590   3.004   6.307   4.419
 3217TIP3   OH2 9591   2.237   2.068   2.152
 3217TIP3    H1 9592   2.259   1.985   2.109
 3217TIP3    H2 9593   2.145   2.081   2.132
 3218TIP3   OH2 9594   2.357   1.489   3.584
 3218TIP3    H1 9595   2.290   1.449   3.638
 3218TIP3    H2 9596   2.316   1.500   3.498
 3219TIP3   OH2 9597   2.538   4.028   6.052
 3219TIP3    H1 9598   2.599   3.973   6.003
 3219TIP3    H2 9599   2.483   4.068   5.984
 3220TIP3   OH2 9600   1.130   5.006   6.271
 3220TIP3    H1 9601   1.218   4.984   6.300
 3220TIP3    H2 9602   1.113   5.093   6.306
 3221TIP3   OH2 9603   0.940   3.922   4.253
 3221TIP3    H1 9604   0.878   3.993   4.271
 3221TIP3    H2 9605   1.024   3.966   4.243
 3222TIP3   OH2 9606   4.250   6.898   6.064
 3222TIP3    H1 9607   4.241   6.881   6.158
 3222TIP3    H2 9608   4.175   6.853   6.024
 3223TIP3   OH2 9609   4.757   6.539   3.581
 3223TIP3    H1 9610   4.773   6.495   3.665
 3223TIP3    H2 9611   4.841   6.535   3.535
 3224TIP3   OH2 9612   0.177   6.106   6.073
 3224TIP3    H1 9613   0.087   6.136   6.089
 3224TIP3    H2 9614   0.218   6.107   6.159
 3225TIP3   OH2 9615   3.430   4.323   0.718
 3225TIP3    H1 9616   3.422   4.229   0.701
 3225TIP3    H2 9617   3.354   4.345   0.772
 3226TIP3   OH2 9618   6.858   0.369   5.569
 3226TIP3    H1 9619   6.813   0.290   5.599
 3226TIP3    H2 9620   6.792   0.438   5.578
 3227TIP3   OH2 9621   5.015   4.793   1.361
 3227TIP3    H1 9622   5.049   4.794   1.271
 3227TIP3    H2 9623   5.056   4.868   1.403
 3228TIP3   OH2 9624   3.214   4.147   1.924
 3228TIP3    H1 9625   3.200   4.237   1.892
 3228TIP3    H2 9626   3.130   4.122   1.962
 3229TIP3   OH2 9627   6.720   5.052   3.161
 3229TIP3    H1 9628   6.782   5.023   3.094
 3229TIP3    H2 9629   6.774   5.080   3.234
 3230TIP3   OH2 9630   4.299   1.369   0.507
 3230TIP3    H1 9631   4.284   1.367   0.602
 3230TIP3    H2 9632   4.279   1.460   0.483
 3231TIP3   OH2 9633   4.073   2.791   4.338
 3231TIP3    H1 9634   4.087   2.866   4.396
 3231TIP3    H2 9635   3.999   2.817   4.284
 3232TIP3   OH2 9636   5.838   4.135   4.001
 3232TIP3    H1 9637   5.809   4.054   4.042
 3232TIP3    H2 9638   5.850   4.195   4.075
 3233TIP3   OH2 9639   7.204   2.103   5.332
 3233TIP3    H1 9640   7.120   2.108   5.378
 3233TIP3    H2 9641   7.255   2.175   5.368
 3234TIP3   OH2 9642   8.369   4.684   4.759
 3234TIP3    H1 9643   8.282   4.663   4.793
 3234TIP3    H2 9644   8.353   4.748   4.690
 3235TIP3   OH2 9645   2.558   0.790   4.728
 3235TIP3    H1 9646   2.633   0.844   4.751
 3235TIP3    H2 9647   2.533   0.819   4.641
 3236TIP3   OH2 9648   5.127   6.767   5.611
 3236TIP3    H1 9649   5.194   6.721   5.560
 3236TIP3    H2 9650   5.045   6.728   5.582
 3237TIP3   OH2 9651   6.777   0.196   0.007
 3237TIP3    H1 9652   6.820   0.195   0.093
 3237TIP3    H2 9653   6.830   0.255  -0.046
 3238TIP3   OH2 9654   3.618   1.996   4.023
 3238TIP3    H1 9655   3.655   1.973   3.938
 3238TIP3    H2 9656   3.538   2.044   4.002
 3239TIP3   OH2 9657   5.350   0.616   6.408
 3239TIP3    H1 9658   5.353   0.557   6.333
 3239TIP3    H2 9659   5.339   0.559   6.484
 3240TIP3   OH2 9660   5.565   4.202   5.309
 3240TIP3    H1 9661   5.565   4.110   5.286
 3240TIP3    H2 9662   5.654   4.219   5.341
 3241TIP3   OH2 9663   7.537   6.128   3.463
 3241TIP3    H1 9664   7.551   6.068   3.536
 3241TIP3    H2 9665   7.468   6.188   3.493
 3242TIP3   OH2 9666   2.067   6.591   5.727
 3242TIP3    H1 9667   2.091   6.535   5.801
 3242TIP3    H2 9668   2.121   6.669   5.738
 3243TIP3   OH2 9669   2.091   3.143   1.923
 3243TIP3    H1 9670   2.143   3.203   1.976
 3243TIP3    H2 9671   2.001   3.172   1.935
 3244TIP3   OH2 9672   2.127   1.001   3.901
 3244TIP3    H1 9673   2.066   1.062   3.861
 3244TIP3    H2 9674   2.086   0.915   3.889
 3245TIP3   OH2 9675   3.941   1.082   4.965
 3245TIP3    H1 9676   3.917   1.083   5.057
 3245TIP3    H2 9677   3.859   1.068   4.918
 3246TIP3   OH2 9678   2.296   4.311   3.013
 3246TIP3    H1 9679   2.317   4.367   2.938
 3246TIP3    H2 9680   2.225   4.357   3.058
 3247TIP3   OH2 9681   5.805   4.219   4.741
 3247TIP3    H1 9682   5.811   4.146   4.802
 3247TIP3    H2 9683   5.842   4.186   4.659
 3248TIP3   OH2 9684   4.302   6.816   4.229
 3248TIP3    H1 9685   4.373   6.774   4.279
 3248TIP3    H2 9686   4.346   6.886   4.181
 3249TIP3   OH2 9687   2.887   3.989   6.007
 3249TIP3    H1 9688   2.955   4.043   6.048
 3249TIP3    H2 9689   2.877   4.025   5.919
 3250TIP3   OH2 9690   4.027   6.752   3.290
 3250TIP3    H1 9691   3.943   6.705   3.291
 3250TIP3    H2 9692   4.092   6.684   3.272
 3251TIP3   OH2 9693   4.158   0.572   6.591
 3251TIP3    H1 9694   4.201   0.584   6.506
 3251TIP3    H2 9695   4.133   0.661   6.617
 3252TIP3   OH2 9696   0.344   5.984   1.694
 3252TIP3    H1 9697   0.347   5.903   1.642
 3252TIP3    H2 9698   0.271   5.970   1.755
 3253TIP3   OH2 9699   1.761   3.678   6.834
 3253TIP3    H1 9700   1.847   3.689   6.792
 3253TIP3    H2 9701   1.780   3.630   6.914
 3254TIP3   OH2 9702   5.694   4.293   2.262
 3254TIP3    H1 9703   5.670   4.201   2.272
 3254TIP3    H2 9704   5.748   4.295   2.182
 3255TIP3   OH2 9705   1.538   6.244   5.939
 3255TIP3    H1 9706   1.580   6.163   5.909
 3255TIP3    H2 9707   1.550   6.245   6.033
 3256TIP3   OH2 9708   5.455   5.785   4.693
 3256TIP3    H1 9709   5.543   5.749   4.703
 3256TIP3    H2 9710   5.429   5.813   4.781
 3257TIP3   OH2 9711   7.068   1.882   6.371
 3257TIP3    H1 9712   6.992   1.828   6.349
 3257TIP3    H2 9713   7.074   1.878   6.466
 3258TIP3   OH2 9714   7.908   2.935   5.397
 3258TIP3    H1 9715   7.927   3.009   5.455
 3258TIP3    H2 9716   7.818   2.950   5.368
 3259TIP3   OH2 9717   7.708   5.942   0.002
 3259TIP3    H1 9718   7.803   5.954   0.005
 3259TIP3    H2 9719   7.673   6.030  -0.004
 3260TIP3   OH2 9720   8.148   2.385   3.049
 3260TIP3    H1 9721   8.145   2.290   3.060
 3260TIP3    H2 9722   8.058   2.409   3.026
 3261TIP3   OH2 9723   2.907   4.586   6.259
 3261TIP3    H1 9724   2.961   4.626   6.328
 3261TIP3    H2 9725   2.964   4.585   6.182
 3262TIP3   OH2 9726   6.450   5.676   0.463
 3262TIP3    H1 9727   6.421   5.646   0.549
 3262TIP3    H2 9728   6.377   5.727   0.429
 3263TIP3   OH2 9729   0.347   5.141   1.627
 3263TIP3    H1 9730   0.337   5.222   1.678
 3263TIP3    H2 9731   0.258   5.106   1.620
 3264TIP3   OH2 9732   8.282   2.400   0.530
 3264TIP3    H1 9733   8.298   2.481   0.481
 3264TIP3    H2 9734   8.315   2.417   0.617
 3265TIP3   OH2 9735   7.982   6.041   4.789
 3265TIP3    H1 9736   8.043   6.109   4.760
 3265TIP3    H2 9737   7.896   6.083   4.786
 3266TIP3   OH2 9738   6.220   7.450   2.618
 3266TIP3    H1 9739   6.203   7.525   2.675
 3266TIP3    H2 9740   6.139   7.400   2.620
 3267TIP3   OH2 9741   1.853   5.130   5.179
 3267TIP3    H1 9742   1.914   5.204   5.178
 3267TIP3    H2 9743   1.892   5.066   5.119
 3268TIP3   OH2 9744   0.752   2.557   1.575
 3268TIP3    H1 9745   0.753   2.463   1.553
 3268TIP3    H2 9746   0.756   2.559   1.670
 3269TIP3   OH2 9747   6.742   6.146   2.933
 3269TIP3    H1 9748   6.739   6.233   2.972
 3269TIP3    H2 9749   6.755   6.162   2.839
 3270TIP3   OH2 9750   3.206   1.058   0.760
 3270TIP3    H1 9751   3.175   0.979   0.715
 3270TIP3    H2 9752   3.161   1.057   0.844
 3271TIP3   OH2 9753   7.127   1.528   3.428
 3271TIP3    H1 9754   7.143   1.598   3.491
 3271TIP3    H2 9755   7.208   1.521   3.377
 3272TIP3   OH2 9756   0.397   5.047   0.485
 3272TIP3    H1 9757   0.484   5.013   0.464
 3272TIP3    H2 9758   0.411   5.104   0.561
 3273TIP3   OH2 9759   8.405   5.373   1.076
 3273TIP3    H1 9760   8.425   5.464   1.097
 3273TIP3    H2 9761   8.337   5.379   1.008
 3274TIP3   OH2 9762   0.529   0.573   2.502
 3274TIP3    H1 9763   0.471   0.626   2.557
 3274TIP3    H2 9764   0.616   0.582   2.543
 3275TIP3   OH2 9765   0.974   0.642   3.933
 3275TIP3    H1 9766   1.019   0.559   3.945
 3275TIP3    H2 9767   0.963   0.677   4.021
 3276TIP3   OH2 9768   3.577   2.824   3.788
 3276TIP3    H1 9769   3.497   2.876   3.777
 3276TIP3    H2 9770   3.613   2.854   3.871
 3277TIP3   OH2 9771   7.765   6.429   1.336
 3277TIP3    H1 9772   7.832   6.440   1.269
 3277TIP3    H2 9773   7.755   6.516   1.376
 3278TIP3   OH2 9774   3.695   1.885   4.861
 3278TIP3    H1 9775   3.678   1.967   4.909
 3278TIP3    H2 9776   3.611   1.863   4.821
 3279TIP3   OH2 9777   2.255   2.002   0.784
 3279TIP3    H1 9778   2.262   2.052   0.866
 3279TIP3    H2 9779   2.204   2.058   0.726
 3280TIP3   OH2 9780   0.283   5.421   2.419
 3280TIP3    H1 9781   0.276   5.371   2.500
 3280TIP3    H2 9782   0.376   5.417   2.396
 3281TIP3   OH2 9783   3.956   1.022   1.227
 3281TIP3    H1 9784   3.883   0.961   1.228
 3281TIP3    H2 9785   4.012   0.993   1.155
 3282TIP3   OH2 9786   0.417   1.714   1.801
 3282TIP3    H1 9787   0.428   1.793   1.749
 3282TIP3    H2 9788   0.325   1.717   1.829
 3283TIP3   OH2 9789   3.743   0.559   6.294
 3283TIP3    H1 9790   3.838   0.575   6.296
 3283TIP3    H2 9791   3.728   0.492   6.360
 3284TIP3   OH2 9792   0.277   3.237   2.522
 3284TIP3    H1 9793   0.307   3.289   2.448
 3284TIP3    H2 9794   0.299   3.289   2.599
 3285TIP3   OH2 9795   2.995   6.802   2.108
 3285TIP3    H1 9796   3.047   6.759   2.176
 3285TIP3    H2 9797   2.948   6.871   2.154
 3286TIP3   OH2 9798   6.464   7.280   6.537
 3286TIP3    H1 9799   6.513   7.349   6.581
 3286TIP3    H2 9800   6.384   7.270   6.588
 3287TIP3   OH2 9801   0.888   0.933   5.578
 3287TIP3    H1 9802   0.976   0.961   5.601
 3287TIP3    H2 9803   0.853   0.894   5.658
 3288TIP3   OH2 9804   3.641   2.522   3.234
 3288TIP3    H1 9805   3.673   2.511   3.323
 3288TIP3    H2 9806   3.570   2.458   3.225
 3289TIP3   OH2 9807   7.176   7.708   1.084
 3289TIP3    H1 9808   7.216   7.756   1.156
 3289TIP3    H2 9809   7.186   7.766   1.008
 3290TIP3   OH2 9810   6.200   1.166   4.779
 3290TIP3    H1 9811   6.261   1.224   4.733
 3290TIP3    H2 9812   6.228   1.169   4.870
 3291TIP3   OH2 9813   1.451   0.247   2.694
 3291TIP3    H1 9814   1.485   0.300   2.767
 3291TIP3    H2 9815   1.472   0.298   2.616
 3292TIP3   OH2 9816   3.691   0.888   4.653
 3292TIP3    H1 9817   3.716   0.948   4.722
 3292TIP3    H2 9818   3.596   0.881   4.660
 3293TIP3   OH2 9819   7.665   6.166   5.001
 3293TIP3    H1 9820   7.752   6.203   4.992
 3293TIP3    H2 9821   7.606   6.237   4.975
 3294TIP3   OH2 9822   8.181   3.109   6.497
 3294TIP3    H1 9823   8.150   3.026   6.534
 3294TIP3    H2 9824   8.158   3.174   6.563
 3295TIP3   OH2 9825   4.691   6.461   5.617
 3295TIP3    H1 9826   4.691   6.422   5.530
 3295TIP3    H2 9827   4.627   6.410   5.666
 3296TIP3   OH2 9828   6.179   4.385   1.639
 3296TIP3    H1 9829   6.084   4.379   1.627
 3296TIP3    H2 9830   6.198   4.321   1.708
 3297TIP3   OH2 9831   2.752   4.400   1.685
 3297TIP3    H1 9832   2.795   4.482   1.659
 3297TIP3    H2 9833   2.659   4.421   1.685
 3298TIP3   OH2 9834   2.324   0.696   4.302
 3298TIP3    H1 9835   2.307   0.610   4.263
 3298TIP3    H2 9836   2.326   0.756   4.228
 3299TIP3   OH2 9837   5.471   5.394   4.476
 3299TIP3    H1 9838   5.473   5.407   4.381
 3299TIP3    H2 9839   5.422   5.469   4.510
 3300TIP3   OH2 9840   1.950   6.786   1.585
 3300TIP3    H1 9841   1.990   6.873   1.581
 3300TIP3    H2 9842   2.020   6.729   1.616
 3301TIP3   OH2 9843   6.131   2.525   0.721
 3301TIP3    H1 9844   6.132   2.550   0.628
 3301TIP3    H2 9845   6.080   2.593   0.764
 3302TIP3   OH2 9846   4.470   2.585   4.175
 3302TIP3    H1 9847   4.382   2.567   4.210
 3302TIP3    H2 9848   4.522   2.607   4.252
 3303TIP3   OH2 9849   1.796   4.416   6.718
 3303TIP3    H1 9850   1.861   4.346   6.717
 3303TIP3    H2 9851   1.714   4.373   6.744
 3304TIP3   OH2 9852   3.886   3.361   3.900
 3304TIP3    H1 9853   3.840   3.323   3.975
 3304TIP3    H2 9854   3.950   3.294   3.875
 3305TIP3   OH2 9855   2.836   4.918   6.311
 3305TIP3    H1 9856   2.888   4.854   6.359
 3305TIP3    H2 9857   2.805   4.979   6.378
 3306TIP3   OH2 9858   0.680   7.375   2.924
 3306TIP3    H1 9859   0.702   7.466   2.902
 3306TIP3    H2 9860   0.754   7.344   2.976
 3307TIP3   OH2 9861   7.833   4.493   0.273
 3307TIP3    H1 9862   7.879   4.500   0.189
 3307TIP3    H2 9863   7.759   4.554   0.265
 3308TIP3   OH2 9864   6.169   4.431   4.330
 3308TIP3    H1 9865   6.236   4.491   4.363
 3308TIP3    H2 9866   6.214   4.347   4.321
 3309TIP3   OH2 9867   2.725   7.395   3.406
 3309TIP3    H1 9868   2.726   7.332   3.334
 3309TIP3    H2 9869   2.655   7.456   3.384
 3310TIP3   OH2 9870   4.334   0.775   0.650
 3310TIP3    H1 9871   4.265   0.773   0.584
 3310TIP3    H2 9872   4.321   0.695   0.701
 3311TIP3   OH2 9873   6.586   0.320   3.662
 3311TIP3    H1 9874   6.516   0.376   3.627
 3311TIP3    H2 9875   6.540   0.246   3.701
 3312TIP3   OH2 9876   0.666   3.001   2.425
 3312TIP3    H1 9877   0.761   3.010   2.420
 3312TIP3    H2 9878   0.652   2.919   2.473
 3313TIP3   OH2 9879   8.288   1.196   3.028
 3313TIP3    H1 9880   8.233   1.140   2.974
 3313TIP3    H2 9881   8.335   1.136   3.086
 3314TIP3   OH2 9882   2.103   6.730   3.960
 3314TIP3    H1 9883   2.100   6.748   4.054
 3314TIP3    H2 9884   2.099   6.634   3.954
 3315TIP3   OH2 9885   0.055   6.279   0.915
 3315TIP3    H1 9886   0.121   6.299   0.848
 3315TIP3    H2 9887   0.003   6.359   0.922
 3316TIP3   OH2 9888   4.050   4.619   1.057
 3316TIP3    H1 9889   4.015   4.689   1.112
 3316TIP3    H2 9890   3.990   4.614   0.983
 3317TIP3   OH2 9891   4.445   1.587   2.903
 3317TIP3    H1 9892   4.476   1.512   2.853
 3317TIP3    H2 9893   4.448   1.558   2.994
 3318TIP3   OH2 9894   5.911   0.390   0.181
 3318TIP3    H1 9895   5.893   0.328   0.111
 3318TIP3    H2 9896   5.870   0.472   0.151
 3319TIP3   OH2 9897   7.020   2.387   3.809
 3319TIP3    H1 9898   7.067   2.387   3.892
 3319TIP3    H2 9899   7.042   2.471   3.769
 3320TIP3   OH2 9900   6.554   1.803   0.979
 3320TIP3    H1 9901   6.503   1.878   1.008
 3320TIP3    H2 9902   6.514   1.728   1.022
 3321TIP3   OH2 9903   0.126   2.801   5.154
 3321TIP3    H1 9904   0.039   2.819   5.190
 3321TIP3    H2 9905   0.146   2.712   5.183
 3322TIP3   OH2 9906   8.238   3.108   5.256
 3322TIP3    H1 9907   8.151   3.148   5.258
 3322TIP3    H2 9908   8.295   3.170   5.301
 3323TIP3   OH2 9909   6.462   5.584   6.089
 3323TIP3    H1 9910   6.524   5.624   6.027
 3323TIP3    H2 9911   6.503   5.598   6.175
 3324TIP3   OH2 9912   0.258   3.577   1.141
 3324TIP3    H1 9913   0.315   3.587   1.064
 3324TIP3    H2 9914   0.251   3.665   1.177
 3325TIP3   OH2 9915   1.239   3.558   3.760
 3325TIP3    H1 9916   1.267   3.644   3.792
 3325TIP3    H2 9917   1.298   3.496   3.803
 3326TIP3   OH2 9918   5.491   6.864   0.337
 3326TIP3    H1 9919   5.583   6.890   0.327
 3326TIP3    H2 9920   5.443   6.947   0.339
 3327TIP3   OH2 9921   1.071   2.002   4.537
 3327TIP3    H1 9922   1.102   2.086   4.504
 3327TIP3    H2 9923   1.078   1.943   4.463
 3328TIP3   OH2 9924   0.764   1.536   1.824
 3328TIP3    H1 9925   0.784   1.602   1.757
 3328TIP3    H2 9926   0.670   1.521   1.814
 3329TIP3   OH2 9927   4.386   3.495   3.559
 3329TIP3    H1 9928   4.323   3.435   3.598
 3329TIP3    H2 9929   4.334   3.550   3.500
 3330TIP3   OH2 9930   0.306   6.672   5.636
 3330TIP3    H1 9931   0.261   6.725   5.571
 3330TIP3    H2 9932   0.337   6.596   5.587
 3331TIP3   OH2 9933   6.189   7.206   6.164
 3331TIP3    H1 9934   6.104   7.201   6.208
 3331TIP3    H2 9935   6.247   7.154   6.220
 3332TIP3   OH2 9936   1.196   3.621   1.845
 3332TIP3    H1 9937   1.232   3.703   1.878
 3332TIP3    H2 9938   1.102   3.629   1.855
 3333TIP3   OH2 9939   5.238   4.239   3.104
 3333TIP3    H1 9940   5.281   4.162   3.067
 3333TIP3    H2 9941   5.259   4.236   3.197
 3334TIP3   OH2 9942   7.771   4.145   4.273
 3334TIP3    H1 9943   7.705   4.171   4.209
 3334TIP3    H2 9944   7.757   4.205   4.346
 3335TIP3   OH2 9945   7.619   2.494   2.872
 3335TIP3    H1 9946   7.574   2.535   2.946
 3335TIP3    H2 9947   7.582   2.406   2.868
 3336TIP3   OH2 9948   2.852   6.901   0.280
 3336TIP3    H1 9949   2.896   6.935   0.358
 3336TIP3    H2 9950   2.835   6.978   0.226
 3337TIP3   OH2 9951   4.825   4.686   4.549
 3337TIP3    H1 9952   4.896   4.741   4.580
 3337TIP3    H2 9953   4.856   4.596   4.562
 3338TIP3   OH2 9954   5.677   1.219   3.426
 3338TIP3    H1 9955   5.584   1.200   3.438
 3338TIP3    H2 9956   5.705   1.255   3.510
 3339TIP3   OH2 9957   6.843   1.431   2.776
 3339TIP3    H1 9958   6.930   1.449   2.741
 3339TIP3    H2 9959   6.842   1.337   2.793
 3340TIP3   OH2 9960   3.784   2.955   3.612
 3340TIP3    H1 9961   3.803   2.954   3.706
 3340TIP3    H2 9962   3.826   2.876   3.579
 3341TIP3   OH2 9963   0.567   2.496   0.543
 3341TIP3    H1 9964   0.633   2.538   0.599
 3341TIP3    H2 9965   0.609   2.489   0.458
 3342TIP3   OH2 9966   6.123   1.077   1.783
 3342TIP3    H1 9967   6.100   1.057   1.874
 3342TIP3    H2 9968   6.175   1.001   1.755
 3343TIP3   OH2 9969   2.832   4.194   3.897
 3343TIP3    H1 9970   2.744   4.231   3.904
 3343TIP3    H2 9971   2.838   4.132   3.969
 3344TIP3   OH2 9972   2.153   7.063   4.934
 3344TIP3    H1 9973   2.202   7.145   4.927
 3344TIP3    H2 9974   2.063   7.086   4.908
 3345TIP3   OH2 9975   2.946   1.848   4.257
 3345TIP3    H1 9976   3.021   1.823   4.311
 3345TIP3    H2 9977   2.958   1.799   4.176
 3346TIP3   OH2 9978   2.235   6.514   5.529
 3346TIP3    H1 9979   2.208   6.436   5.479
 3346TIP3    H2 9980   2.156   6.539   5.578
 3347TIP3   OH2 9981   6.435   3.059   3.837
 3347TIP3    H1 9982   6.453   2.967   3.820
 3347TIP3    H2 9983   6.436   3.066   3.933
 3348TIP3   OH2 9984   5.180   5.613   3.914
 3348TIP3    H1 9985   5.266   5.603   3.874
 3348TIP3    H2 9986   5.175   5.539   3.976
 3349TIP3   OH2 9987   5.278   7.479   5.695
 3349TIP3    H1 9988   5.317   7.400   5.733
 3349TIP3    H2 9989   5.201   7.495   5.750
 3350TIP3   OH2 9990   4.590   0.478   3.757
 3350TIP3    H1 9991   4.561   0.548   3.699
 3350TIP3    H2 9992   4.514   0.422   3.768
 3351TIP3   OH2 9993   8.343   3.117   4.764
 3351TIP3    H1 9994   8.341   3.066   4.846
 3351TIP3    H2 9995   8.251   3.132   4.743
 3352TIP3   OH2 9996   7.932   6.283   0.800
 3352TIP3    H1 9997   7.875   6.360   0.805
 3352TIP3    H2 9998   7.877   6.210   0.826
 3353TIP3   OH2 9999   6.091   6.731   5.406
 3353TIP3    H110000   6.061   6.822   5.416
 3353TIP3    H210001   6.186   6.739   5.398
 3354TIP3   OH210002   3.439   6.199   6.229
 3354TIP3    H110003   3.449   6.125   6.169
 3354TIP3    H210004   3.431   6.159   6.316
 3355TIP3   OH210005   0.153   3.790   6.197
 3355TIP3    H110006   0.202   3.857   6.151
 3355TIP3    H210007   0.143   3.824   6.286
 3356TIP3   OH210008   5.895   5.365   2.626
 3356TIP3    H110009   5.916   5.452   2.662
 3356TIP3    H210010   5.978   5.317   2.630
 3357TIP3   OH210011   6.684   2.699   3.524
 3357TIP3    H110012   6.611   2.711   3.464
 3357TIP3    H210013   6.709   2.607   3.514
 3358TIP3   OH210014   7.772   0.814   3.392
 3358TIP3    H110015   7.697   0.788   3.446
 3358TIP3    H210016   7.826   0.867   3.451
 3359TIP3   OH210017   7.659   4.683   0.199
 3359TIP3    H110018   7.584   4.724   0.157
 3359TIP3    H210019   7.734   4.710   0.146
 3360TIP3   OH210020   5.740   1.835   3.545
 3360TIP3    H110021   5.753   1.744   3.573
 3360TIP3    H210022   5.828   1.869   3.533
 3361TIP3   OH210023   6.914   0.261   0.256
 3361TIP3    H110024   6.977   0.323   0.293
 3361TIP3    H210025   6.838   0.268   0.313
 3362TIP3   OH210026   0.864   7.107   4.438
 3362TIP3    H110027   0.799   7.071   4.499
 3362TIP3    H210028   0.842   7.200   4.432
 3363TIP3   OH210029   3.128   3.949   1.567
 3363TIP3    H110030   3.096   3.927   1.480
 3363TIP3    H210031   3.086   4.032   1.588
 3364TIP3   OH210032   8.132   4.209   1.416
 3364TIP3    H110033   8.129   4.139   1.351
 3364TIP3    H210034   8.128   4.164   1.500
 3365TIP3   OH210035   3.021   5.733   0.515
 3365TIP3    H110036   3.036   5.652   0.563
 3365TIP3    H210037   3.051   5.802   0.575
 3366TIP3   OH210038   3.508   7.495   2.228
 3366TIP3    H110039   3.439   7.533   2.281
 3366TIP3    H210040   3.462   7.441   2.164
 3367TIP3   OH210041   7.359   1.402   1.168
 3367TIP3    H110042   7.393   1.491   1.157
 3367TIP3    H210043   7.339   1.373   1.079
 3368TIP3   OH210044   4.231   1.371   5.765
 3368TIP3    H110045   4.310   1.422   5.750
 3368TIP3    H210046   4.159   1.432   5.748
 3369TIP3   OH210047   3.359   6.173   2.307
 3369TIP3    H110048   3.449   6.178   2.275
 3369TIP3    H210049   3.305   6.198   2.233
 3370TIP3   OH210050   6.864   4.150   6.486
 3370TIP3    H110051   6.902   4.143   6.399
 3370TIP3    H210052   6.785   4.096   6.483
 3371TIP3   OH210053   3.736   3.996   5.307
 3371TIP3    H110054   3.761   3.926   5.247
 3371TIP3    H210055   3.765   4.076   5.264
 3372TIP3   OH210056   0.841   0.747   3.315
 3372TIP3    H110057   0.790   0.788   3.245
 3372TIP3    H210058   0.782   0.682   3.353
 3373TIP3   OH210059   4.729   2.777   2.633
 3373TIP3    H110060   4.635   2.762   2.627
 3373TIP3    H210061   4.755   2.808   2.546
 3374TIP3   OH210062   1.130   0.104   1.458
 3374TIP3    H110063   1.170   0.020   1.435
 3374TIP3    H210064   1.056   0.113   1.398
 3375TIP3   OH210065   5.771   7.615   6.678
 3375TIP3    H110066   5.706   7.545   6.672
 3375TIP3    H210067   5.758   7.666   6.598
 3376TIP3   OH210068   4.581   7.276   4.539
 3376TIP3    H110069   4.555   7.243   4.626
 3376TIP3    H210070   4.575   7.200   4.482
 3377TIP3   OH210071   7.628  -0.017   0.579
 3377TIP3    H110072   7.689  -0.005   0.652
 3377TIP3    H210073   7.541  -0.015   0.620
 3378TIP3   OH210074   8.360   5.709   1.908
 3378TIP3    H110075   8.273   5.747   1.897
 3378TIP3    H210076   8.344   5.619   1.937
 3379TIP3   OH210077   1.303   1.108   0.430
 3379TIP3    H110078   1.367   1.060   0.378
 3379TIP3    H210079   1.222   1.057   0.422
 3380TIP3   OH210080   7.677   5.351   1.421
 3380TIP3    H110081   7.628   5.293   1.364
 3380TIP3    H210082   7.725   5.408   1.362
 3381TIP3   OH210083   7.607   2.676   6.455
 3381TIP3    H110084   7.683   2.656   6.400
 3381TIP3    H210085   7.620   2.624   6.534
 3382TIP3   OH210086   8.066   0.756   4.200
 3382TIP3    H110087   8.016   0.826   4.158
 3382TIP3    H210088   8.139   0.740   4.141
 3383TIP3   OH210089   4.661   2.831   3.371
 3383TIP3    H110090   4.569   2.813   3.351
 3383TIP3    H210091   4.710   2.791   3.299
 3384TIP3   OH210092   7.893   2.475   4.206
 3384TIP3    H110093   7.920   2.448   4.118
 3384TIP3    H210094   7.882   2.393   4.254
 3385TIP3   OH210095   0.203   7.069   2.112
 3385TIP3    H110096   0.291   7.105   2.109
 3385TIP3    H210097   0.206   7.003   2.182
 3386TIP3   OH210098   5.777   3.574   1.290
 3386TIP3    H110099   5.824   3.626   1.226
 3386TIP3    H210100   5.845   3.525   1.337
 3387TIP3   OH210101   6.926   3.454   3.691
 3387TIP3    H110102   7.007   3.425   3.734
 3387TIP3    H210103   6.867   3.380   3.701
 3388TIP3   OH210104   5.416   6.353   1.928
 3388TIP3    H110105   5.496   6.327   1.882
 3388TIP3    H210106   5.377   6.420   1.872
 3389TIP3   OH210107   1.209   0.328   4.208
 3389TIP3    H110108   1.250   0.262   4.263
 3389TIP3    H210109   1.270   0.401   4.207
 3390TIP3   OH210110   5.731   2.144   3.911
 3390TIP3    H110111   5.797   2.173   3.848
 3390TIP3    H210112   5.662   2.211   3.907
 3391TIP3   OH210113   2.089   4.961   5.291
 3391TIP3    H110114   2.091   5.014   5.371
 3391TIP3    H210115   2.179   4.930   5.281
 3392TIP3   OH210116   7.548   5.226   0.298
 3392TIP3    H110117   7.620   5.167   0.275
 3392TIP3    H210118   7.579   5.312   0.272
 3393TIP3   OH210119   4.086   5.385   6.283
 3393TIP3    H110120   4.134   5.428   6.211
 3393TIP3    H210121   4.075   5.295   6.253
 3394TIP3   OH210122   1.820   3.578   3.520
 3394TIP3    H110123   1.891   3.612   3.575
 3394TIP3    H210124   1.825   3.628   3.439
 3395TIP3   OH210125   6.139   6.409   5.261
 3395TIP3    H110126   6.078   6.354   5.212
 3395TIP3    H210127   6.190   6.453   5.194
 3396TIP3   OH210128   3.519   1.474   4.665
 3396TIP3    H110129   3.444   1.471   4.606
 3396TIP3    H210130   3.595   1.481   4.607
 3397TIP3   OH210131   1.470   5.819   5.394
 3397TIP3    H110132   1.404   5.787   5.333
 3397TIP3    H210133   1.420   5.864   5.461
 3398TIP3   OH210134   6.898   4.799   5.155
 3398TIP3    H110135   6.938   4.752   5.228
 3398TIP3    H210136   6.907   4.739   5.081
 3399TIP3   OH210137   4.155   3.081   1.046
 3399TIP3    H110138   4.187   3.163   1.008
 3399TIP3    H210139   4.069   3.104   1.082
 3400TIP3   OH210140   3.009   4.727   1.796
 3400TIP3    H110141   3.091   4.679   1.802
 3400TIP3    H210142   2.945   4.661   1.768
 3401TIP3   OH210143   2.378   3.717   0.208
 3401TIP3    H110144   2.423   3.751   0.131
 3401TIP3    H210145   2.329   3.642   0.177
 3402TIP3   OH210146   4.237   6.220   4.469
 3402TIP3    H110147   4.289   6.300   4.477
 3402TIP3    H210148   4.193   6.228   4.385
 3403TIP3   OH210149   6.646   1.973   3.928
 3403TIP3    H110150   6.718   2.008   3.981
 3403TIP3    H210151   6.690   1.923   3.859
 3404TIP3   OH210152   7.222   3.193   0.807
 3404TIP3    H110153   7.208   3.268   0.865
 3404TIP3    H210154   7.177   3.216   0.726
 3405TIP3   OH210155   2.390   0.443   4.807
 3405TIP3    H110156   2.417   0.467   4.719
 3405TIP3    H210157   2.295   0.432   4.801
 3406TIP3   OH210158   0.788   6.183   0.850
 3406TIP3    H110159   0.860   6.156   0.907
 3406TIP3    H210160   0.751   6.101   0.817
 3407TIP3   OH210161   1.094   3.275   5.278
 3407TIP3    H110162   1.006   3.236   5.267
 3407TIP3    H210163   1.104   3.282   5.373
 3408TIP3   OH210164   6.667   5.043   2.051
 3408TIP3    H110165   6.673   5.052   2.146
 3408TIP3    H210166   6.753   5.068   2.018
 3409TIP3   OH210167   6.910   2.607   5.949
 3409TIP3    H110168   6.899   2.602   6.044
 3409TIP3    H210169   6.821   2.598   5.914
 3410TIP3   OH210170   0.780   0.075   6.268
 3410TIP3    H110171   0.731   0.121   6.200
 3410TIP3    H210172   0.849   0.028   6.220
 3411TIP3   OH210173   0.817   2.578   0.661
 3411TIP3    H110174   0.824   2.567   0.756
 3411TIP3    H210175   0.852   2.496   0.625
 3412TIP3   OH210176   4.722   4.203   1.986
 3412TIP3    H110177   4.719   4.144   1.910
 3412TIP3    H210178   4.631   4.209   2.014
 3413TIP3   OH210179   6.095   2.172   3.982
 3413TIP3    H110180   6.077   2.125   3.900
 3413TIP3    H210181   6.138   2.107   4.037
 3414TIP3   OH210182   4.725   1.610   4.595
 3414TIP3    H110183   4.771   1.675   4.647
 3414TIP3    H210184   4.773   1.528   4.611
 3415TIP3   OH210185   3.072   2.815   0.607
 3415TIP3    H110186   3.054   2.759   0.682
 3415TIP3    H210187   3.149   2.775   0.566
 3416TIP3   OH210188   6.345   2.340   3.462
 3416TIP3    H110189   6.309   2.255   3.435
 3416TIP3    H210190   6.319   2.348   3.554
 3417TIP3   OH210191   2.513   1.786   2.119
 3417TIP3    H110192   2.601   1.797   2.157
 3417TIP3    H210193   2.529   1.753   2.031
 3418TIP3   OH210194   3.314   7.105   6.674
 3418TIP3    H110195   3.289   7.057   6.752
 3418TIP3    H210196   3.339   7.192   6.706
 3419TIP3   OH210197   5.388   4.545   3.916
 3419TIP3    H110198   5.317   4.490   3.950
 3419TIP3    H210199   5.374   4.630   3.958
 3420TIP3   OH210200   2.635   4.265   6.663
 3420TIP3    H110201   2.605   4.174   6.655
 3420TIP3    H210202   2.730   4.260   6.651
 3421TIP3   OH210203   1.946   5.431   2.131
 3421TIP3    H110204   1.853   5.445   2.150
 3421TIP3    H210205   1.948   5.404   2.039
 3422TIP3   OH210206   7.259   2.005   5.690
 3422TIP3    H110207   7.329   1.965   5.638
 3422TIP3    H210208   7.179   1.964   5.657
 3423TIP3   OH210209   6.898   7.563   2.907
 3423TIP3    H110210   6.821   7.591   2.956
 3423TIP3    H210211   6.960   7.635   2.916
 3424TIP3   OH210212   3.741   1.313   0.276
 3424TIP3    H110213   3.662   1.340   0.324
 3424TIP3    H210214   3.805   1.295   0.345
 3425TIP3   OH210215   0.812   3.786   0.723
 3425TIP3    H110216   0.737   3.781   0.664
 3425TIP3    H210217   0.852   3.699   0.717
 3426TIP3   OH210218   8.280   1.153   5.002
 3426TIP3    H110219   8.306   1.152   4.910
 3426TIP3    H210220   8.215   1.083   5.009
 3427TIP3   OH210221   6.731   1.859   4.325
 3427TIP3    H110222   6.699   1.802   4.255
 3427TIP3    H210223   6.655   1.909   4.352
 3428TIP3   OH210224   4.660   1.330   0.131
 3428TIP3    H110225   4.714   1.409   0.134
 3428TIP3    H210226   4.621   1.324   0.218
 3429TIP3   OH210227   6.845   4.660   6.694
 3429TIP3    H110228   6.941   4.668   6.700
 3429TIP3    H210229   6.830   4.604   6.618
 3430TIP3   OH210230   0.287   5.040   1.284
 3430TIP3    H110231   0.274   5.125   1.326
 3430TIP3    H210232   0.377   5.016   1.306
 3431TIP3   OH210233   3.528   1.881   5.182
 3431TIP3    H110234   3.574   1.836   5.252
 3431TIP3    H210235   3.578   1.962   5.168
 3432TIP3   OH210236   2.538   1.554   6.479
 3432TIP3    H110237   2.551   1.631   6.534
 3432TIP3    H210238   2.545   1.480   6.540
 3433TIP3   OH210239   6.270   6.323   3.060
 3433TIP3    H110240   6.263   6.285   2.972
 3433TIP3    H210241   6.355   6.294   3.092
 3434TIP3   OH210242   7.529   4.542   0.505
 3434TIP3    H110243   7.546   4.479   0.435
 3434TIP3    H210244   7.567   4.502   0.583
 3435TIP3   OH210245   2.063   7.173   1.849
 3435TIP3    H110246   2.011   7.116   1.906
 3435TIP3    H210247   2.152   7.136   1.855
 3436TIP3   OH210248   4.279   3.818   4.798
 3436TIP3    H110249   4.201   3.842   4.748
 3436TIP3    H210250   4.277   3.875   4.875
 3437TIP3   OH210251   2.662   5.351   4.789
 3437TIP3    H110252   2.745   5.388   4.819
 3437TIP3    H210253   2.609   5.427   4.765
 3438TIP3   OH210254   3.882   4.039   0.302
 3438TIP3    H110255   3.794   4.074   0.288
 3438TIP3    H210256   3.884   3.958   0.252
 3439TIP3   OH210257   4.364   1.921   4.739
 3439TIP3    H110258   4.395   1.838   4.776
 3439TIP3    H210259   4.437   1.982   4.751
 3440TIP3   OH210260   2.750   7.537   4.288
 3440TIP3    H110261   2.845   7.539   4.303
 3440TIP3    H210262   2.738   7.471   4.220
 3441TIP3   OH210263   5.865   1.920   4.771
 3441TIP3    H110264   5.772   1.898   4.763
 3441TIP3    H210265   5.872   1.963   4.856
 3442TIP3   OH210266   4.182   1.824   5.664
 3442TIP3    H110267   4.250   1.792   5.605
 3442TIP3    H210268   4.230   1.856   5.741
 3443TIP3   OH210269   3.780   0.501   2.355
 3443TIP3    H110270   3.757   0.525   2.445
 3443TIP3    H210271   3.857   0.445   2.364
 3444TIP3   OH210272   3.005   7.559   4.326
 3444TIP3    H110273   3.060   7.631   4.294
 3444TIP3    H210274   3.068   7.491   4.352
 3445TIP3   OH210275   4.642   6.834   0.337
 3445TIP3    H110276   4.607   6.921   0.316
 3445TIP3    H210277   4.735   6.850   0.355
 3446TIP3   OH210278   0.599   5.794   2.768
 3446TIP3    H110279   0.686   5.756   2.753
 3446TIP3    H210280   0.553   5.783   2.685
 3447TIP3   OH210281   5.494   3.972   4.358
 3447TIP3    H110282   5.555   4.044   4.344
 3447TIP3    H210283   5.421   4.012   4.406
 3448TIP3   OH210284   0.090   6.876   4.674
 3448TIP3    H110285   0.024   6.926   4.723
 3448TIP3    H210286   0.046   6.795   4.650
 3449TIP3   OH210287   7.952   3.675   0.694
 3449TIP3    H110288   8.047   3.682   0.693
 3449TIP3    H210289   7.921   3.745   0.637
 3450TIP3   OH210290   5.934   7.442   2.576
 3450TIP3    H110291   5.929   7.361   2.525
 3450TIP3    H210292   5.985   7.502   2.522
 3451TIP3   OH210293   0.133   6.845   5.458
 3451TIP3    H110294   0.104   6.912   5.519
 3451TIP3    H210295   0.052   6.803   5.428
 3452TIP3   OH210296   2.935   1.599   2.876
 3452TIP3    H110297   2.907   1.678   2.830
 3452TIP3    H210298   2.856   1.564   2.916
 3453TIP3   OH210299   2.904   5.164   5.072
 3453TIP3    H110300   2.971   5.169   5.005
 3453TIP3    H210301   2.952   5.164   5.155
 3454TIP3   OH210302   5.797   7.096   0.801
 3454TIP3    H110303   5.828   7.032   0.736
 3454TIP3    H210304   5.724   7.139   0.758
 3455TIP3   OH210305   6.887   5.456   1.524
 3455TIP3    H110306   6.874   5.546   1.555
 3455TIP3    H210307   6.877   5.401   1.602
 3456TIP3   OH210308   4.301   7.602   2.239
 3456TIP3    H110309   4.222   7.594   2.186
 3456TIP3    H210310   4.274   7.655   2.314
 3457TIP3   OH210311   4.025   1.952   4.418
 3457TIP3    H110312   3.947   1.996   4.453
 3457TIP3    H210313   3.990   1.886   4.358
 3458TIP3   OH210314   6.286   3.924   0.169
 3458TIP3    H110315   6.318   4.002   0.212
 3458TIP3    H210316   6.237   3.956   0.093
 3459TIP3   OH210317   7.970   5.798   0.445
 3459TIP3    H110318   7.953   5.867   0.381
 3459TIP3    H210319   7.887   5.750   0.452
 3460TIP3   OH210320   3.205   1.131   2.133
 3460TIP3    H110321   3.118   1.160   2.104
 3460TIP3    H210322   3.202   1.036   2.126
 3461TIP3   OH210323   7.835   4.080   0.365
 3461TIP3    H110324   7.812   4.146   0.430
 3461TIP3    H210325   7.810   4.119   0.281
 3462TIP3   OH210326   2.904   1.567   1.715
 3462TIP3    H110327   2.997   1.569   1.737
 3462TIP3    H210328   2.900   1.589   1.622
 3463TIP3   OH210329   5.509   1.769   4.021
 3463TIP3    H110330   5.558   1.741   4.098
 3463TIP3    H210331   5.483   1.688   3.977
 3464TIP3   OH210332   3.269   0.398   5.564
 3464TIP3    H110333   3.268   0.309   5.598
 3464TIP3    H210334   3.280   0.454   5.641
 3465TIP3   OH210335   5.088   7.467   4.586
 3465TIP3    H110336   5.074   7.550   4.631
 3465TIP3    H210337   5.142   7.415   4.646
 3466TIP3   OH210338   4.770   1.754   0.087
 3466TIP3    H110339   4.706   1.733   0.019
 3466TIP3    H210340   4.732   1.828   0.134
 3467TIP3   OH210341   0.723   7.790   6.170
 3467TIP3    H110342   0.810   7.750   6.165
 3467TIP3    H210343   0.735   7.867   6.226
 3468TIP3   OH210344   3.891   3.113   2.113
 3468TIP3    H110345   3.826   3.093   2.180
 3468TIP3    H210346   3.952   3.173   2.155
 3469TIP3   OH210347   1.749   7.647   4.246
 3469TIP3    H110348   1.803   7.726   4.241
 3469TIP3    H210349   1.759   7.607   4.159
 3470TIP3   OH210350   0.708   3.600   1.319
 3470TIP3    H110351   0.734   3.508   1.323
 3470TIP3    H210352   0.613   3.597   1.330
 3471TIP3   OH210353   5.548   1.479   0.330
 3471TIP3    H110354   5.628   1.431   0.349
 3471TIP3    H210355   5.543   1.545   0.400
 3472TIP3   OH210356   5.828   2.366   4.364
 3472TIP3    H110357   5.802   2.391   4.452
 3472TIP3    H210358   5.773   2.420   4.307
 3473TIP3   OH210359   1.487   4.420   0.374
 3473TIP3    H110360   1.536   4.436   0.455
 3473TIP3    H210361   1.454   4.506   0.350
 3474TIP3   OH210362   5.993   6.832   0.258
 3474TIP3    H110363   6.080   6.851   0.294
 3474TIP3    H210364   5.939   6.812   0.335
 3475TIP3   OH210365   3.987   4.689   6.408
 3475TIP3    H110366   4.040   4.768   6.401
 3475TIP3    H210367   4.033   4.624   6.356
 3476TIP3   OH210368   4.740   5.113   3.346
 3476TIP3    H110369   4.662   5.152   3.384
 3476TIP3    H210370   4.773   5.054   3.413
 3477TIP3   OH210371   6.084   2.340   4.499
 3477TIP3    H110372   6.151   2.293   4.449
 3477TIP3    H210373   6.001   2.301   4.471
 3478TIP3   OH210374   1.823   6.887   3.555
 3478TIP3    H110375   1.867   6.955   3.503
 3478TIP3    H210376   1.879   6.875   3.632
 3479TIP3   OH210377   1.511   0.529   1.629
 3479TIP3    H110378   1.582   0.565   1.577
 3479TIP3    H210379   1.534   0.437   1.642
 3480TIP3   OH210380   6.695   2.894   4.049
 3480TIP3    H110381   6.778   2.919   4.090
 3480TIP3    H210382   6.718   2.875   3.958
 3481TIP3   OH210383   6.614   1.243   4.495
 3481TIP3    H110384   6.702   1.229   4.531
 3481TIP3    H210385   6.556   1.237   4.572
 3482TIP3   OH210386   7.494   7.908   1.785
 3482TIP3    H110387   7.527   7.821   1.809
 3482TIP3    H210388   7.423   7.891   1.723
 3483TIP3   OH210389   5.765   4.819   6.069
 3483TIP3    H110390   5.682   4.773   6.054
 3483TIP3    H210391   5.818   4.797   5.992
 3484TIP3   OH210392   5.356   1.247   1.608
 3484TIP3    H110393   5.411   1.317   1.573
 3484TIP3    H210394   5.338   1.274   1.698
 3485TIP3   OH210395   3.908   3.099   4.336
 3485TIP3    H110396   3.868   3.013   4.332
 3485TIP3    H210397   3.948   3.103   4.424
 3486TIP3   OH210398   7.647   4.534   2.498
 3486TIP3    H110399   7.666   4.480   2.420
 3486TIP3    H210400   7.725   4.588   2.509
 3487TIP3   OH210401   6.036   3.554   2.302
 3487TIP3    H110402   6.077   3.589   2.223
 3487TIP3    H210403   5.942   3.562   2.286
 3488TIP3   OH210404   5.628   4.470   0.269
 3488TIP3    H110405   5.610   4.402   0.334
 3488TIP3    H210406   5.585   4.439   0.189
 3489TIP3   OH210407   8.098   3.448   4.389
 3489TIP3    H110408   8.168   3.457   4.453
 3489TIP3    H210409   8.066   3.359   4.400
 3490TIP3   OH210410   2.818   6.439   1.549
 3490TIP3    H110411   2.791   6.509   1.490
 3490TIP3    H210412   2.839   6.365   1.491
 3491TIP3   OH210413   7.955   2.710   3.474
 3491TIP3    H110414   7.998   2.702   3.389
 3491TIP3    H210415   8.010   2.660   3.534
 3492TIP3   OH210416   1.295   3.444   4.278
 3492TIP3    H110417   1.337   3.513   4.227
 3492TIP3    H210418   1.320   3.462   4.369
 3493TIP3   OH210419   3.481   5.782   1.330
 3493TIP3    H110420   3.397   5.752   1.296
 3493TIP3    H210421   3.532   5.805   1.252
 3494TIP3   OH210422   3.248   6.431   3.831
 3494TIP3    H110423   3.158   6.401   3.817
 3494TIP3    H210424   3.261   6.497   3.763
 3495TIP3   OH210425   3.763   6.828   3.605
 3495TIP3    H110426   3.705   6.876   3.664
 3495TIP3    H210427   3.735   6.737   3.612
 3496TIP3   OH210428   7.278   2.670   2.007
 3496TIP3    H110429   7.216   2.601   2.033
 3496TIP3    H210430   7.351   2.661   2.069
 3497TIP3   OH210431   4.761   4.349   2.362
 3497TIP3    H110432   4.825   4.420   2.360
 3497TIP3    H210433   4.678   4.391   2.339
 3498TIP3   OH210434   3.683   2.001   6.006
 3498TIP3    H110435   3.675   2.069   5.940
 3498TIP3    H210436   3.592   1.979   6.029
 3499TIP3   OH210437   1.541   5.552   5.039
 3499TIP3    H110438   1.571   5.484   5.101
 3499TIP3    H210439   1.594   5.629   5.062
 3500TIP3   OH210440   7.695   0.520   5.182
 3500TIP3    H110441   7.724   0.603   5.145
 3500TIP3    H210442   7.733   0.518   5.270
 3501TIP3   OH210443   1.336   2.324   6.479
 3501TIP3    H110444   1.368   2.312   6.390
 3501TIP3    H210445   1.347   2.418   6.496
 3502TIP3   OH210446   0.537   1.184   4.444
 3502TIP3    H110447   0.540   1.135   4.526
 3502TIP3    H210448   0.594   1.259   4.458
 3503TIP3   OH210449   2.442   2.685   0.187
 3503TIP3    H110450   2.364   2.651   0.143
 3503TIP3    H210451   2.431   2.661   0.279
 3504TIP3   OH210452   4.871   0.065   3.729
 3504TIP3    H110453   4.851   0.155   3.705
 3504TIP3    H210454   4.856   0.015   3.648
 3505TIP3   OH210455   0.419   4.681   4.929
 3505TIP3    H110456   0.330   4.649   4.911
 3505TIP3    H210457   0.406   4.760   4.981
 3506TIP3   OH210458   0.728   3.713   3.404
 3506TIP3    H110459   0.684   3.701   3.489
 3506TIP3    H210460   0.820   3.726   3.427
 3507TIP3   OH210461   7.062   7.666   5.667
 3507TIP3    H110462   6.979   7.656   5.715
 3507TIP3    H210463   7.064   7.759   5.643
 3508TIP3   OH210464   3.379   2.804   0.750
 3508TIP3    H110465   3.465   2.788   0.790
 3508TIP3    H210466   3.379   2.750   0.671
 3509TIP3   OH210467   7.224   5.723   0.982
 3509TIP3    H110468   7.195   5.760   0.898
 3509TIP3    H210469   7.318   5.710   0.971
 3510TIP3   OH210470   5.921   0.785   5.420
 3510TIP3    H110471   5.958   0.815   5.503
 3510TIP3    H210472   5.967   0.836   5.353
 3511TIP3   OH210473   2.687   2.836   0.193
 3511TIP3    H110474   2.606   2.785   0.193
 3511TIP3    H210475   2.746   2.789   0.251
 3512TIP3   OH210476   6.558   2.973   2.309
 3512TIP3    H110477   6.610   2.892   2.309
 3512TIP3    H210478   6.600   3.028   2.375
 3513TIP3   OH210479   1.358   4.613   0.219
 3513TIP3    H110480   1.343   4.541   0.158
 3513TIP3    H210481   1.411   4.675   0.169
 3514TIP3   OH210482   7.592   2.745   5.801
 3514TIP3    H110483   7.560   2.798   5.874
 3514TIP3    H210484   7.541   2.665   5.804
 3515TIP3   OH210485   0.574   1.502   3.561
 3515TIP3    H110486   0.536   1.535   3.479
 3515TIP3    H210487   0.568   1.407   3.554
 3516TIP3   OH210488   7.353   1.115   6.441
 3516TIP3    H110489   7.343   1.175   6.367
 3516TIP3    H210490   7.309   1.035   6.413
 3517TIP3   OH210491   7.951   0.381   1.207
 3517TIP3    H110492   7.991   0.435   1.275
 3517TIP3    H210493   7.958   0.291   1.240
 3518TIP3   OH210494   1.340   7.197   6.614
 3518TIP3    H110495   1.339   7.214   6.708
 3518TIP3    H210496   1.361   7.282   6.575
 3519TIP3   OH210497   7.621   7.357   0.827
 3519TIP3    H110498   7.643   7.448   0.809
 3519TIP3    H210499   7.564   7.361   0.904
 3520TIP3   OH210500   4.393   6.316   0.534
 3520TIP3    H110501   4.347   6.384   0.584
 3520TIP3    H210502   4.485   6.325   0.561
 3521TIP3   OH210503   0.371   6.211   5.944
 3521TIP3    H110504   0.352   6.222   5.851
 3521TIP3    H210505   0.290   6.175   5.980
 3522TIP3   OH210506   4.629   1.402   5.486
 3522TIP3    H110507   4.685   1.388   5.563
 3522TIP3    H210508   4.617   1.314   5.449
 3523TIP3   OH210509   1.161   6.580   3.539
 3523TIP3    H110510   1.228   6.517   3.563
 3523TIP3    H210511   1.209   6.661   3.522
 3524TIP3   OH210512   2.996   1.083   1.490
 3524TIP3    H110513   2.944   1.100   1.568
 3524TIP3    H210514   3.045   1.004   1.511
 3525TIP3   OH210515   4.035   7.288   0.673
 3525TIP3    H110516   3.955   7.316   0.628
 3525TIP3    H210517   4.051   7.200   0.641
 3526TIP3   OH210518   4.176   6.890   5.632
 3526TIP3    H110519   4.182   6.816   5.693
 3526TIP3    H210520   4.218   6.962   5.679
 3527TIP3   OH210521   0.505   5.199   4.579
 3527TIP3    H110522   0.453   5.239   4.649
 3527TIP3    H210523   0.595   5.204   4.611
 3528TIP3   OH210524   2.380   7.860   4.221
 3528TIP3    H110525   2.422   7.941   4.249
 3528TIP3    H210526   2.379   7.866   4.125
 3529TIP3   OH210527   0.577   6.839   6.646
 3529TIP3    H110528   0.561   6.917   6.699
 3529TIP3    H210529   0.563   6.766   6.707
 3530TIP3   OH210530   8.341   7.798   4.060
 3530TIP3    H110531   8.399   7.737   4.107
 3530TIP3    H210532   8.360   7.782   3.968
 3531TIP3   OH210533   3.285   7.522   4.629
 3531TIP3    H110534   3.224   7.594   4.611
 3531TIP3    H210535   3.229   7.449   4.655
 3532TIP3   OH210536   6.043   6.708   6.294
 3532TIP3    H110537   5.982   6.748   6.233
 3532TIP3    H210538   6.125   6.703   6.245
 3533TIP3   OH210539   6.458   6.735   1.393
 3533TIP3    H110540   6.374   6.732   1.347
 3533TIP3    H210541   6.486   6.644   1.399
 3534TIP3   OH210542   3.634   0.884   2.348
 3534TIP3    H110543   3.682   0.887   2.430
 3534TIP3    H210544   3.677   0.816   2.297
 3535TIP3   OH210545   4.336   1.643   1.310
 3535TIP3    H110546   4.426   1.613   1.322
 3535TIP3    H210547   4.328   1.720   1.365
 3536TIP3   OH210548   2.947   6.680   4.228
 3536TIP3    H110549   2.955   6.719   4.315
 3536TIP3    H210550   2.970   6.588   4.240
 3537TIP3   OH210551   5.411   0.056   3.173
 3537TIP3    H110552   5.372  -0.031   3.167
 3537TIP3    H210553   5.452   0.070   3.087
 3538TIP3   OH210554   3.437   7.172   0.640
 3538TIP3    H110555   3.460   7.241   0.577
 3538TIP3    H210556   3.515   7.161   0.693
 3539TIP3   OH210557   2.607   7.290   2.805
 3539TIP3    H110558   2.568   7.272   2.890
 3539TIP3    H210559   2.546   7.351   2.763
 3540TIP3   OH210560   7.575   0.067   0.983
 3540TIP3    H110561   7.647   0.103   1.034
 3540TIP3    H210562   7.602  -0.023   0.963
 3541TIP3   OH210563   5.186   3.105   0.365
 3541TIP3    H110564   5.235   3.144   0.437
 3541TIP3    H210565   5.243   3.113   0.289
 3542TIP3   OH210566   1.466   0.016   5.602
 3542TIP3    H110567   1.415   0.064   5.667
 3542TIP3    H210568   1.463   0.070   5.523
 3543TIP3   OH210569   0.429   5.219   6.307
 3543TIP3    H110570   0.477   5.299   6.284
 3543TIP3    H210571   0.346   5.226   6.260
 3544TIP3   OH210572   6.234   5.844   2.897
 3544TIP3    H110573   6.321   5.858   2.860
 3544TIP3    H210574   6.204   5.763   2.856
 3545TIP3   OH210575   0.409   6.417   4.377
 3545TIP3    H110576   0.420   6.326   4.351
 3545TIP3    H210577   0.448   6.421   4.465
 3546TIP3   OH210578   1.822   4.627   0.488
 3546TIP3    H110579   1.795   4.623   0.579
 3546TIP3    H210580   1.877   4.549   0.476
 3547TIP3   OH210581   4.214   7.119   4.522
 3547TIP3    H110582   4.161   7.186   4.565
 3547TIP3    H210583   4.188   7.124   4.430
 3548TIP3   OH210584   7.349   6.229   4.106
 3548TIP3    H110585   7.292   6.164   4.146
 3548TIP3    H210586   7.332   6.310   4.154
 3549TIP3   OH210587   0.080   6.353   1.813
 3549TIP3    H110588   0.007   6.333   1.872
 3549TIP3    H210589   0.129   6.271   1.806
 3550TIP3   OH210590   6.108   2.880   2.465
 3550TIP3    H110591   6.160   2.924   2.398
 3550TIP3    H210592   6.153   2.899   2.547
 3551TIP3   OH210593   4.939   3.335   5.842
 3551TIP3    H110594   5.012   3.393   5.862
 3551TIP3    H210595   4.928   3.341   5.747
 3552TIP3   OH210596   3.057   4.197   4.827
 3552TIP3    H110597   2.975   4.149   4.838
 3552TIP3    H210598   3.037   4.285   4.861
 3553TIP3   OH210599   5.075   6.255   5.560
 3553TIP3    H110600   5.089   6.298   5.476
 3553TIP3    H210601   4.987   6.219   5.555
 3554TIP3   OH210602   3.666   1.055   4.881
 3554TIP3    H110603   3.597   1.115   4.852
 3554TIP3    H210604   3.638   1.026   4.968
 3555TIP3   OH210605   4.718   0.080   5.218
 3555TIP3    H110606   4.769   0.126   5.151
 3555TIP3    H210607   4.703  -0.007   5.182
 3556TIP3   OH210608   4.968   1.179   5.666
 3556TIP3    H110609   4.932   1.227   5.741
 3556TIP3    H210610   5.005   1.248   5.610
 3557TIP3   OH210611   2.681   1.157   0.933
 3557TIP3    H110612   2.752   1.219   0.951
 3557TIP3    H210613   2.606   1.212   0.911
 3558TIP3   OH210614   7.745   5.958   1.254
 3558TIP3    H110615   7.780   5.935   1.340
 3558TIP3    H210616   7.715   6.048   1.263
 3559TIP3   OH210617   7.243   5.992   0.253
 3559TIP3    H110618   7.235   5.911   0.303
 3559TIP3    H210619   7.288   5.967   0.172
 3560TIP3   OH210620   4.476   5.287   0.522
 3560TIP3    H110621   4.451   5.338   0.599
 3560TIP3    H210622   4.394   5.246   0.494
 3561TIP3   OH210623   3.050   2.170   0.145
 3561TIP3    H110624   3.137   2.201   0.120
 3561TIP3    H210625   2.990   2.238   0.112
 3562TIP3   OH210626   1.154   5.347   6.319
 3562TIP3    H110627   1.213   5.421   6.329
 3562TIP3    H210628   1.193   5.277   6.372
 3563TIP3   OH210629   7.478   5.248   1.264
 3563TIP3    H110630   7.465   5.262   1.170
 3563TIP3    H210631   7.484   5.153   1.273
 3564TIP3   OH210632   8.013   5.134   4.321
 3564TIP3    H110633   8.044   5.046   4.298
 3564TIP3    H210634   8.092   5.188   4.322
 3565TIP3   OH210635   4.085   7.697   6.237
 3565TIP3    H110636   4.148   7.751   6.190
 3565TIP3    H210637   4.038   7.649   6.169
 3566TIP3   OH210638   7.768   1.459   3.188
 3566TIP3    H110639   7.712   1.382   3.196
 3566TIP3    H210640   7.854   1.429   3.218
 3567TIP3   OH210641   5.625   1.337   1.329
 3567TIP3    H110642   5.597   1.327   1.420
 3567TIP3    H210643   5.623   1.432   1.314
 3568TIP3   OH210644   3.414   5.687   1.759
 3568TIP3    H110645   3.454   5.606   1.727
 3568TIP3    H210646   3.336   5.699   1.705
 3569TIP3   OH210647   6.891   5.948   4.792
 3569TIP3    H110648   6.856   5.962   4.704
 3569TIP3    H210649   6.861   6.023   4.843
 3570TIP3   OH210650   7.242   4.777   4.477
 3570TIP3    H110651   7.266   4.866   4.500
 3570TIP3    H210652   7.325   4.729   4.473
 3571TIP3   OH210653   3.936   1.542   4.352
 3571TIP3    H110654   4.028   1.515   4.359
 3571TIP3    H210655   3.938   1.620   4.297
 3572TIP3   OH210656   2.535   3.342   5.258
 3572TIP3    H110657   2.511   3.431   5.282
 3572TIP3    H210658   2.604   3.319   5.321
 3573TIP3   OH210659   3.157   2.859   3.056
 3573TIP3    H110660   3.202   2.831   2.976
 3573TIP3    H210661   3.124   2.778   3.095
 3574TIP3   OH210662   3.435   2.416   3.625
 3574TIP3    H110663   3.346   2.423   3.658
 3574TIP3    H210664   3.477   2.353   3.682
 3575TIP3   OH210665   4.752   1.559   1.176
 3575TIP3    H110666   4.689   1.576   1.246
 3575TIP3    H210667   4.715   1.484   1.128
 3576TIP3   OH210668   6.542   7.167   2.267
 3576TIP3    H110669   6.594   7.215   2.203
 3576TIP3    H210670   6.454   7.204   2.259
 3577TIP3   OH210671   1.441   7.629   0.586
 3577TIP3    H110672   1.358   7.652   0.628
 3577TIP3    H210673   1.491   7.710   0.584
 3578TIP3   OH210674   2.215   0.892   5.378
 3578TIP3    H110675   2.182   0.823   5.436
 3578TIP3    H210676   2.237   0.846   5.297
 3579TIP3   OH210677   3.917   3.360   0.036
 3579TIP3    H110678   3.978   3.295   0.001
 3579TIP3    H210679   3.974   3.427   0.075
 3580TIP3   OH210680   7.873   0.865   4.713
 3580TIP3    H110681   7.850   0.871   4.620
 3580TIP3    H210682   7.876   0.771   4.731
 3581TIP3   OH210683   7.465   4.672   3.325
 3581TIP3    H110684   7.524   4.660   3.251
 3581TIP3    H210685   7.497   4.752   3.368
 3582TIP3   OH210686   8.092   4.704   6.651
 3582TIP3    H110687   8.022   4.653   6.609
 3582TIP3    H210688   8.083   4.792   6.615
 3583TIP3   OH210689   4.326   7.826   5.497
 3583TIP3    H110690   4.244   7.777   5.496
 3583TIP3    H210691   4.301   7.912   5.531
 3584TIP3   OH210692   4.840   1.765   2.828
 3584TIP3    H110693   4.881   1.708   2.762
 3584TIP3    H210694   4.748   1.767   2.803
 3585TIP3   OH210695   7.930   4.480   4.036
 3585TIP3    H110696   7.962   4.521   4.116
 3585TIP3    H210697   7.985   4.402   4.026
 3586TIP3   OH210698   1.564   6.333   3.258
 3586TIP3    H110699   1.531   6.278   3.187
 3586TIP3    H210700   1.595   6.271   3.324
 3587TIP3   OH210701   1.792   0.327   1.956
 3587TIP3    H110702   1.753   0.276   2.027
 3587TIP3    H210703   1.797   0.416   1.991
 3588TIP3   OH210704   6.726   6.744   1.025
 3588TIP3    H110705   6.644   6.700   1.045
 3588TIP3    H210706   6.730   6.817   1.086
 3589TIP3   OH210707   2.100   2.768   4.400
 3589TIP3    H110708   2.146   2.810   4.328
 3589TIP3    H210709   2.012   2.752   4.366
 3590TIP3   OH210710   0.948   2.894   3.989
 3590TIP3    H110711   1.026   2.948   3.974
 3590TIP3    H210712   0.973   2.807   3.958
 3591TIP3   OH210713   1.361   7.047   5.710
 3591TIP3    H110714   1.413   6.972   5.678
 3591TIP3    H210715   1.274   7.033   5.672
 3592TIP3   OH210716   7.601   5.688   4.461
 3592TIP3    H110717   7.673   5.733   4.505
 3592TIP3    H210718   7.523   5.733   4.492
 3593TIP3   OH210719   6.276   1.765   5.415
 3593TIP3    H110720   6.224   1.776   5.335
 3593TIP3    H210721   6.345   1.703   5.390
 3594TIP3   OH210722   7.512   4.520   6.325
 3594TIP3    H110723   7.527   4.531   6.418
 3594TIP3    H210724   7.446   4.586   6.303
 3595TIP3   OH210725   0.796   2.713   1.950
 3595TIP3    H110726   0.738   2.639   1.931
 3595TIP3    H210727   0.763   2.784   1.895
 3596TIP3   OH210728   7.992   2.451   0.567
 3596TIP3    H110729   8.069   2.499   0.598
 3596TIP3    H210730   8.019   2.359   0.567
 3597TIP3   OH210731   2.617   6.806   0.088
 3597TIP3    H110732   2.646   6.873   0.026
 3597TIP3    H210733   2.664   6.727   0.061
 3598TIP3   OH210734   3.324   5.163   5.267
 3598TIP3    H110735   3.375   5.183   5.189
 3598TIP3    H210736   3.333   5.240   5.323
 3599TIP3   OH210737   0.108   5.637   6.458
 3599TIP3    H110738   0.147   5.721   6.481
 3599TIP3    H210739   0.169   5.572   6.492
 3600TIP3   OH210740   1.784   4.293   1.000
 3600TIP3    H110741   1.782   4.321   1.092
 3600TIP3    H210742   1.862   4.238   0.994
 3601TIP3   OH210743   0.297   4.837   5.660
 3601TIP3    H110744   0.224   4.878   5.613
 3601TIP3    H210745   0.320   4.761   5.608
 3602TIP3   OH210746   5.271   6.049   1.931
 3602TIP3    H110747   5.273   6.100   2.012
 3602TIP3    H210748   5.362   6.021   1.919
 3603TIP3   OH210749   3.377   6.009   2.901
 3603TIP3    H110750   3.414   6.086   2.944
 3603TIP3    H210751   3.354   5.951   2.974
 3604TIP3   OH210752   4.469   7.600   0.692
 3604TIP3    H110753   4.429   7.585   0.777
 3604TIP3    H210754   4.402   7.575   0.629
 3605TIP3   OH210755   1.794   4.376   5.110
 3605TIP3    H110756   1.746   4.399   5.031
 3605TIP3    H210757   1.834   4.291   5.090
 3606TIP3   OH210758   0.858   6.652   6.801
 3606TIP3    H110759   0.819   6.622   6.719
 3606TIP3    H210760   0.918   6.581   6.826
 3607TIP3   OH210761   2.134   0.661   6.261
 3607TIP3    H110762   2.104   0.709   6.184
 3607TIP3    H210763   2.210   0.612   6.230
 3608TIP3   OH210764   6.262   6.784   5.891
 3608TIP3    H110765   6.184   6.741   5.856
 3608TIP3    H210766   6.317   6.711   5.920
 3609TIP3   OH210767   6.479   3.304   3.143
 3609TIP3    H110768   6.493   3.268   3.056
 3609TIP3    H210769   6.519   3.240   3.202
 3610TIP3   OH210770   7.733   1.739   5.060
 3610TIP3    H110771   7.799   1.680   5.025
 3610TIP3    H210772   7.670   1.682   5.105
 3611TIP3   OH210773   2.959   6.689   3.484
 3611TIP3    H110774   2.910   6.760   3.444
 3611TIP3    H210775   2.926   6.684   3.573
 3612TIP3   OH210776   1.767   3.529   3.869
 3612TIP3    H110777   1.848   3.523   3.919
 3612TIP3    H210778   1.795   3.564   3.784
 3613TIP3   OH210779   7.165   6.086   3.912
 3613TIP3    H110780   7.122   6.157   3.960
 3613TIP3    H210781   7.092   6.035   3.875
 3614TIP3   OH210782   0.652   2.785   2.584
 3614TIP3    H110783   0.584   2.766   2.648
 3614TIP3    H210784   0.734   2.774   2.632
 3615TIP3   OH210785   8.300   6.954   1.283
 3615TIP3    H110786   8.375   6.925   1.231
 3615TIP3    H210787   8.314   6.913   1.368
 3616TIP3   OH210788   3.400   1.201   0.663
 3616TIP3    H110789   3.392   1.221   0.570
 3616TIP3    H210790   3.321   1.151   0.684
 3617TIP3   OH210791   7.381   7.424   4.585
 3617TIP3    H110792   7.355   7.515   4.599
 3617TIP3    H210793   7.427   7.399   4.664
 3618TIP3   OH210794   8.419   5.145   2.456
 3618TIP3    H110795   8.338   5.099   2.433
 3618TIP3    H210796   8.390   5.226   2.498
 3619TIP3   OH210797   5.627   3.141   3.079
 3619TIP3    H110798   5.571   3.158   3.003
 3619TIP3    H210799   5.687   3.074   3.050
 3620TIP3   OH210800   2.250   3.872   5.314
 3620TIP3    H110801   2.251   3.819   5.394
 3620TIP3    H210802   2.287   3.956   5.340
 3621TIP3   OH210803   6.386   2.743   1.347
 3621TIP3    H110804   6.390   2.774   1.256
 3621TIP3    H210805   6.466   2.690   1.357
 3622TIP3   OH210806   5.283   4.738   0.330
 3622TIP3    H110807   5.210   4.713   0.388
 3622TIP3    H210808   5.255   4.710   0.243
 3623TIP3   OH210809   6.758   5.305   5.920
 3623TIP3    H110810   6.822   5.339   5.983
 3623TIP3    H210811   6.678   5.294   5.971
 3624TIP3   OH210812   2.690   7.810   5.523
 3624TIP3    H110813   2.751   7.872   5.562
 3624TIP3    H210814   2.646   7.859   5.454
 3625TIP3   OH210815   2.060   2.081   4.478
 3625TIP3    H110816   2.144   2.067   4.522
 3625TIP3    H210817   2.067   2.168   4.439
 3626TIP3   OH210818   4.103   7.828   5.893
 3626TIP3    H110819   4.033   7.892   5.907
 3626TIP3    H210820   4.169   7.851   5.958
 3627TIP3   OH210821   0.213   0.361   2.047
 3627TIP3    H110822   0.195   0.287   2.104
 3627TIP3    H210823   0.152   0.351   1.973
 3628TIP3   OH210824   2.497   2.749   4.219
 3628TIP3    H110825   2.581   2.712   4.191
 3628TIP3    H210826   2.515   2.842   4.231
 3629TIP3   OH210827   1.866   0.999   5.419
 3629TIP3    H110828   1.883   0.912   5.455
 3629TIP3    H210829   1.826   1.048   5.491
 3630TIP3   OH210830   1.757   4.398   3.353
 3630TIP3    H110831   1.783   4.487   3.378
 3630TIP3    H210832   1.816   4.374   3.282
 3631TIP3   OH210833   0.107   7.386   0.843
 3631TIP3    H110834   0.087   7.408   0.934
 3631TIP3    H210835   0.117   7.290   0.843
 3632TIP3   OH210836   1.596   5.153   2.100
 3632TIP3    H110837   1.658   5.225   2.117
 3632TIP3    H210838   1.544   5.147   2.180
 3633TIP3   OH210839   0.292   1.925   5.712
 3633TIP3    H110840   0.268   1.936   5.804
 3633TIP3    H210841   0.293   2.015   5.677
 3634TIP3   OH210842   0.500   1.119   5.221
 3634TIP3    H110843   0.545   1.177   5.159
 3634TIP3    H210844   0.571   1.076   5.269
 3635TIP3   OH210845   1.589   5.794   2.033
 3635TIP3    H110846   1.667   5.847   2.015
 3635TIP3    H210847   1.550   5.779   1.947
 3636TIP3   OH210848   7.751   7.023   5.247
 3636TIP3    H110849   7.785   7.027   5.337
 3636TIP3    H210850   7.805   6.958   5.204
 3637TIP3   OH210851   6.651   0.805   0.462
 3637TIP3    H110852   6.713   0.747   0.506
 3637TIP3    H210853   6.641   0.880   0.521
 3638TIP3   OH210854   7.133   1.685   1.089
 3638TIP3    H110855   7.120   1.618   1.156
 3638TIP3    H210856   7.190   1.750   1.131
 3639TIP3   OH210857   1.824   6.074   1.663
 3639TIP3    H110858   1.871   6.157   1.665
 3639TIP3    H210859   1.872   6.021   1.599
 3640TIP3   OH210860   0.024   3.259   0.977
 3640TIP3    H110861  -0.053   3.221   1.019
 3640TIP3    H210862  -0.009   3.295   0.895
 3641TIP3   OH210863   7.267   1.358   1.690
 3641TIP3    H110864   7.257   1.348   1.596
 3641TIP3    H210865   7.351   1.401   1.701
 3642TIP3   OH210866   0.448   1.692   2.422
 3642TIP3    H110867   0.385   1.621   2.430
 3642TIP3    H210868   0.452   1.731   2.509
 3643TIP3   OH210869   3.120   1.407   0.265
 3643TIP3    H110870   3.104   1.495   0.231
 3643TIP3    H210871   3.125   1.352   0.187
 3644TIP3   OH210872   4.355   6.250   1.311
 3644TIP3    H110873   4.352   6.206   1.226
 3644TIP3    H210874   4.351   6.178   1.375
 3645TIP3   OH210875   5.614   1.716   5.496
 3645TIP3    H110876   5.662   1.799   5.496
 3645TIP3    H210877   5.579   1.709   5.407
 3646TIP3   OH210878   2.517   4.081   0.387
 3646TIP3    H110879   2.499   4.037   0.470
 3646TIP3    H210880   2.452   4.046   0.326
 3647TIP3   OH210881   4.890   2.095   6.405
 3647TIP3    H110882   4.947   2.173   6.397
 3647TIP3    H210883   4.936   2.028   6.355
 3648TIP3   OH210884   2.969   7.000   0.529
 3648TIP3    H110885   3.051   7.035   0.496
 3648TIP3    H210886   2.994   6.941   0.601
 3649TIP3   OH210887   5.944   2.167   6.543
 3649TIP3    H110888   6.006   2.179   6.471
 3649TIP3    H210889   5.927   2.073   6.543
 3650TIP3   OH210890   0.373   4.071   1.773
 3650TIP3    H110891   0.408   3.982   1.767
 3650TIP3    H210892   0.335   4.075   1.861
 3651TIP3   OH210893   3.466   4.564   2.684
 3651TIP3    H110894   3.538   4.603   2.733
 3651TIP3    H210895   3.509   4.505   2.622
 3652TIP3   OH210896   5.122   4.994   6.737
 3652TIP3    H110897   5.100   5.076   6.780
 3652TIP3    H210898   5.207   4.969   6.774
 3653TIP3   OH210899   5.552   7.450   5.079
 3653TIP3    H110900   5.507   7.516   5.133
 3653TIP3    H210901   5.554   7.372   5.135
 3654TIP3   OH210902   0.147   6.358   3.948
 3654TIP3    H110903   0.069   6.413   3.955
 3654TIP3    H210904   0.218   6.412   3.984
 3655TIP3   OH210905   4.421   6.184   2.477
 3655TIP3    H110906   4.457   6.232   2.552
 3655TIP3    H210907   4.344   6.234   2.450
 3656TIP3   OH210908   2.951   4.790   3.109
 3656TIP3    H110909   2.984   4.714   3.156
 3656TIP3    H210910   2.875   4.756   3.061
 3657TIP3   OH210911   0.187   1.379   6.649
 3657TIP3    H110912   0.196   1.308   6.713
 3657TIP3    H210913   0.256   1.441   6.672
 3658TIP3   OH210914   3.461   7.423   3.943
 3658TIP3    H110915   3.442   7.388   3.856
 3658TIP3    H210916   3.461   7.518   3.932
 3659TIP3   OH210917   7.224   7.021   1.537
 3659TIP3    H110918   7.231   7.038   1.443
 3659TIP3    H210919   7.191   6.931   1.542
 3660TIP3   OH210920   5.580   7.102   3.589
 3660TIP3    H110921   5.658   7.156   3.608
 3660TIP3    H210922   5.520   7.162   3.544
 3661TIP3   OH210923   8.208   1.693   3.708
 3661TIP3    H110924   8.237   1.606   3.681
 3661TIP3    H210925   8.241   1.752   3.639
 3662TIP3   OH210926   7.622   4.038   5.229
 3662TIP3    H110927   7.601   4.034   5.136
 3662TIP3    H210928   7.594   3.953   5.263
 3663TIP3   OH210929   7.350   5.035   2.069
 3663TIP3    H110930   7.325   5.025   1.977
 3663TIP3    H210931   7.395   4.953   2.091
 3664TIP3   OH210932   5.333   5.007   3.103
 3664TIP3    H110933   5.261   5.012   3.039
 3664TIP3    H210934   5.411   4.988   3.051
 3665TIP3   OH210935   5.229   2.437   1.943
 3665TIP3    H110936   5.219   2.527   1.974
 3665TIP3    H210937   5.291   2.397   2.004
 3666TIP3   OH210938   0.114   2.964   4.268
 3666TIP3    H110939   0.148   3.039   4.219
 3666TIP3    H210940   0.099   2.998   4.356
 3667TIP3   OH210941   4.449   0.927   0.852
 3667TIP3    H110942   4.502   0.893   0.924
 3667TIP3    H210943   4.449   0.858   0.786
 3668TIP3   OH210944   0.161   0.069   5.892
 3668TIP3    H110945   0.125   0.141   5.944
 3668TIP3    H210946   0.255   0.090   5.885
 3669TIP3   OH210947   6.332   0.038   6.304
 3669TIP3    H110948   6.279  -0.043   6.307
 3669TIP3    H210949   6.414   0.011   6.262
 3670TIP3   OH210950   1.867   0.594   1.970
 3670TIP3    H110951   1.854   0.688   1.966
 3670TIP3    H210952   1.925   0.580   2.045
 3671TIP3   OH210953   2.666   7.440   2.483
 3671TIP3    H110954   2.637   7.358   2.442
 3671TIP3    H210955   2.594   7.464   2.542
 3672TIP3   OH210956   7.982   2.616   4.835
 3672TIP3    H110957   7.890   2.600   4.811
 3672TIP3    H210958   8.015   2.675   4.768
 3673TIP3   OH210959   1.910   2.768   6.752
 3673TIP3    H110960   1.900   2.777   6.657
 3673TIP3    H210961   1.825   2.736   6.782
 3674TIP3   OH210962   0.990   5.111   2.146
 3674TIP3    H110963   1.029   5.041   2.092
 3674TIP3    H210964   0.910   5.135   2.099
 3675TIP3   OH210965   7.457   0.057   6.377
 3675TIP3    H110966   7.381   0.002   6.396
 3675TIP3    H210967   7.503   0.064   6.461
 3676TIP3   OH210968   1.843   4.199   2.152
 3676TIP3    H110969   1.917   4.194   2.213
 3676TIP3    H210970   1.799   4.281   2.174
 3677TIP3   OH210971   4.803   4.521   5.341
 3677TIP3    H110972   4.893   4.546   5.362
 3677TIP3    H210973   4.781   4.454   5.405
 3678TIP3   OH210974   2.815   5.858   2.250
 3678TIP3    H110975   2.876   5.925   2.219
 3678TIP3    H210976   2.830   5.783   2.192
 3679TIP3   OH210977   2.923   1.075   4.340
 3679TIP3    H110978   3.013   1.106   4.332
 3679TIP3    H210979   2.914   1.052   4.433
 3680TIP3   OH210980   2.036   4.450   6.169
 3680TIP3    H110981   2.025   4.415   6.257
 3680TIP3    H210982   2.120   4.416   6.140
 3681TIP3   OH210983   5.109   1.795   6.041
 3681TIP3    H110984   5.124   1.785   5.947
 3681TIP3    H210985   5.165   1.868   6.066
 3682TIP3   OH210986   7.445   1.510   6.182
 3682TIP3    H110987   7.499   1.575   6.228
 3682TIP3    H210988   7.387   1.476   6.250
 3683TIP3   OH210989   8.371   1.469   1.627
 3683TIP3    H110990   8.454   1.429   1.651
 3683TIP3    H210991   8.383   1.498   1.537
 3684TIP3   OH210992   5.556   5.042   4.850
 3684TIP3    H110993   5.557   5.136   4.831
 3684TIP3    H210994   5.609   5.032   4.929
 3685TIP3   OH210995   5.132   5.685   5.392
 3685TIP3    H110996   5.080   5.763   5.413
 3685TIP3    H210997   5.165   5.654   5.477
 3686TIP3   OH210998   2.803   3.552   4.048
 3686TIP3    H110999   2.885   3.505   4.060
 3686TIP3    H211000   2.793   3.558   3.953
 3687TIP3   OH211001   0.976   5.802   1.895
 3687TIP3    H111002   0.925   5.851   1.960
 3687TIP3    H211003   0.920   5.799   1.818
 3688TIP3   OH211004   6.852   7.913   6.654
 3688TIP3    H111005   6.933   7.916   6.602
 3688TIP3    H211006   6.786   7.879   6.593
 3689TIP3   OH211007   7.028   2.785   1.116
 3689TIP3    H111008   6.988   2.756   1.197
 3689TIP3    H211009   6.982   2.866   1.094
 3690TIP3   OH211010   0.249   2.044   0.935
 3690TIP3    H111011   0.232   2.100   0.859
 3690TIP3    H211012   0.325   1.991   0.909
 3691TIP3   OH211013   5.869   4.361   5.835
 3691TIP3    H111014   5.908   4.320   5.912
 3691TIP3    H211015   5.784   4.319   5.826
 3692TIP3   OH211016   0.953   5.793   5.607
 3692TIP3    H111017   0.990   5.707   5.625
 3692TIP3    H211018   0.959   5.841   5.689
 3693TIP3   OH211019   6.610   3.156   0.982
 3693TIP3    H111020   6.678   3.219   0.957
 3693TIP3    H211021   6.555   3.203   1.044
 3694TIP3   OH211022   7.146   4.436   1.060
 3694TIP3    H111023   7.187   4.446   1.146
 3694TIP3    H211024   7.074   4.499   1.060
 3695TIP3   OH211025   8.299   6.095   0.104
 3695TIP3    H111026   8.223   6.132   0.060
 3695TIP3    H211027   8.284   6.001   0.103
 3696TIP3   OH211028   1.591   0.308   4.001
 3696TIP3    H111029   1.665   0.275   3.949
 3696TIP3    H211030   1.537   0.230   4.016
 3697TIP3   OH211031   0.674   0.963   3.627
 3697TIP3    H111032   0.701   0.881   3.668
 3697TIP3    H211033   0.603   0.996   3.682
 3698TIP3   OH211034   4.788   2.314   4.654
 3698TIP3    H111035   4.797   2.409   4.658
 3698TIP3    H211036   4.714   2.299   4.596
 3699TIP3   OH211037   4.989   4.517   6.578
 3699TIP3    H111038   5.069   4.538   6.530
 3699TIP3    H211039   4.991   4.421   6.586
 3700TIP3   OH211040   1.793   7.517   0.143
 3700TIP3    H111041   1.823   7.542   0.055
 3700TIP3    H211042   1.804   7.597   0.195
 3701TIP3   OH211043   2.438   3.230   2.782
 3701TIP3    H111044   2.379   3.154   2.783
 3701TIP3    H211045   2.409   3.283   2.856
 3702TIP3   OH211046   1.741   0.500   0.930
 3702TIP3    H111047   1.675   0.474   0.866
 3702TIP3    H211048   1.804   0.428   0.931
 3703TIP3   OH211049   2.660   5.548   3.671
 3703TIP3    H111050   2.695   5.506   3.592
 3703TIP3    H211051   2.717   5.516   3.741
 3704TIP3   OH211052   6.408   7.418   5.313
 3704TIP3    H111053   6.432   7.415   5.406
 3704TIP3    H211054   6.321   7.457   5.312
 3705TIP3   OH211055   2.127   3.431   2.747
 3705TIP3    H111056   2.188   3.449   2.818
 3705TIP3    H211057   2.065   3.504   2.748
 3706TIP3   OH211058   7.636   7.766   2.333
 3706TIP3    H111059   7.712   7.725   2.374
 3706TIP3    H211060   7.576   7.784   2.406
 3707TIP3   OH211061   5.942   6.142   1.379
 3707TIP3    H111062   5.903   6.228   1.368
 3707TIP3    H211063   5.956   6.110   1.290
 3708TIP3   OH211064   4.106   7.053   0.355
 3708TIP3    H111065   4.079   7.025   0.442
 3708TIP3    H211066   4.195   7.019   0.345
 3709TIP3   OH211067   3.129   1.552   1.476
 3709TIP3    H111068   3.200   1.491   1.499
 3709TIP3    H211069   3.174   1.634   1.457
 3710TIP3   OH211070   5.440   6.524   3.705
 3710TIP3    H111071   5.378   6.459   3.738
 3710TIP3    H211072   5.509   6.472   3.664
 3711TIP3   OH211073   6.287   7.746   5.650
 3711TIP3    H111074   6.340   7.796   5.712
 3711TIP3    H211075   6.220   7.704   5.704
 3712TIP3   OH211076   2.695   2.244   1.788
 3712TIP3    H111077   2.771   2.249   1.847
 3712TIP3    H211078   2.626   2.205   1.840
 3713TIP3   OH211079   3.674   7.897   0.484
 3713TIP3    H111080   3.750   7.867   0.434
 3713TIP3    H211081   3.639   7.971   0.434
 3714TIP3   OH211082   2.382   1.277   0.886
 3714TIP3    H111083   2.334   1.351   0.849
 3714TIP3    H211084   2.320   1.204   0.880
 3715TIP3   OH211085   4.938   5.272   1.589
 3715TIP3    H111086   4.908   5.198   1.641
 3715TIP3    H211087   4.935   5.346   1.650
 3716TIP3   OH211088   2.482   4.356   0.247
 3716TIP3    H111089   2.447   4.294   0.311
 3716TIP3    H211090   2.558   4.312   0.210
 3717TIP3   OH211091   7.177   1.423   2.923
 3717TIP3    H111092   7.094   1.386   2.956
 3717TIP3    H211093   7.179   1.399   2.831
 3718TIP3   OH211094   6.956   4.680   3.321
 3718TIP3    H111095   7.037   4.718   3.287
 3718TIP3    H211096   6.893   4.689   3.250
 3719TIP3   OH211097   5.540   3.388   5.943
 3719TIP3    H111098   5.625   3.345   5.942
 3719TIP3    H211099   5.483   3.327   5.988
 3720TIP3   OH211100   6.425   6.974   5.782
 3720TIP3    H111101   6.477   6.925   5.719
 3720TIP3    H211102   6.361   6.911   5.814
 3721TIP3   OH211103   6.064   0.566   6.658
 3721TIP3    H111104   6.099   0.501   6.719
 3721TIP3    H211105   5.971   0.570   6.678
 3722TIP3   OH211106   7.900   0.905   1.334
 3722TIP3    H111107   7.869   0.870   1.418
 3722TIP3    H211108   7.827   0.895   1.274
 3723TIP3   OH211109   8.249   3.633   3.378
 3723TIP3    H111110   8.273   3.677   3.297
 3723TIP3    H211111   8.255   3.701   3.445
 3724TIP3   OH211112   6.041   5.134   2.830
 3724TIP3    H111113   6.102   5.170   2.765
 3724TIP3    H211114   6.098   5.093   2.895
 3725TIP3   OH211115   5.887   1.629   5.035
 3725TIP3    H111116   5.809   1.618   4.980
 3725TIP3    H211117   5.950   1.674   4.979
 3726TIP3   OH211118   0.862   6.324   1.113
 3726TIP3    H111119   0.950   6.291   1.094
 3726TIP3    H211120   0.867   6.418   1.096
 3727TIP3   OH211121   5.436   6.051   2.886
 3727TIP3    H111122   5.518   6.022   2.847
 3727TIP3    H211123   5.455   6.137   2.923
 3728TIP3   OH211124   0.955   2.608   0.048
 3728TIP3    H111125   0.909   2.691   0.031
 3728TIP3    H211126   1.042   2.621   0.011
 3729TIP3   OH211127   8.247   6.111   3.589
 3729TIP3    H111128   8.203   6.161   3.658
 3729TIP3    H211129   8.298   6.175   3.540
 3730TIP3   OH211130   7.315   5.053   6.256
 3730TIP3    H111131   7.222   5.030   6.245
 3730TIP3    H211132   7.342   5.085   6.170
 3731TIP3   OH211133   4.451   0.429   6.608
 3731TIP3    H111134   4.376   0.372   6.590
 3731TIP3    H211135   4.437   0.505   6.552
 3732TIP3   OH211136   7.862   7.222   0.789
 3732TIP3    H111137   7.793   7.269   0.835
 3732TIP3    H211138   7.906   7.288   0.736
 3733TIP3   OH211139   7.711   0.606   5.476
 3733TIP3    H111140   7.723   0.609   5.571
 3733TIP3    H211141   7.654   0.531   5.462
 3734TIP3   OH211142   6.062   5.367   1.683
 3734TIP3    H111143   6.058   5.423   1.605
 3734TIP3    H211144   5.977   5.380   1.726
 3735TIP3   OH211145   5.152   2.079   0.487
 3735TIP3    H111146   5.235   2.125   0.478
 3735TIP3    H211147   5.119   2.107   0.572
 3736TIP3   OH211148   0.698   0.826   3.074
 3736TIP3    H111149   0.615   0.779   3.068
 3736TIP3    H211150   0.674   0.918   3.084
 3737TIP3   OH211151   6.798   1.787   2.424
 3737TIP3    H111152   6.883   1.796   2.380
 3737TIP3    H211153   6.776   1.695   2.414
 3738TIP3   OH211154   4.297   1.342   5.016
 3738TIP3    H111155   4.367   1.329   5.080
 3738TIP3    H211156   4.332   1.307   4.934
 3739TIP3   OH211157   5.306   7.698   4.826
 3739TIP3    H111158   5.223   7.682   4.871
 3739TIP3    H211159   5.356   7.617   4.841
 3740TIP3   OH211160   3.319   6.164   4.222
 3740TIP3    H111161   3.235   6.120   4.209
 3740TIP3    H211162   3.315   6.240   4.164
 3741TIP3   OH211163   4.541   1.340   0.372
 3741TIP3    H111164   4.447   1.323   0.384
 3741TIP3    H211165   4.584   1.267   0.416
 3742TIP3   OH211166   7.136   3.019   5.789
 3742TIP3    H111167   7.192   3.087   5.827
 3742TIP3    H211168   7.189   2.940   5.792
 3743TIP3   OH211169   8.368   2.076   4.415
 3743TIP3    H111170   8.362   2.165   4.451
 3743TIP3    H211171   8.450   2.076   4.366
 3744TIP3   OH211172   7.429   7.762   2.504
 3744TIP3    H111173   7.473   7.739   2.586
 3744TIP3    H211174   7.351   7.811   2.532
 3745TIP3   OH211175   8.336   4.789   5.323
 3745TIP3    H111176   8.304   4.813   5.236
 3745TIP3    H211177   8.269   4.821   5.383
 3746TIP3   OH211178   2.714   5.110   6.490
 3746TIP3    H111179   2.803   5.135   6.514
 3746TIP3    H211180   2.685   5.178   6.430
 3747TIP3   OH211181   1.385   1.675   5.415
 3747TIP3    H111182   1.320   1.741   5.392
 3747TIP3    H211183   1.437   1.663   5.335
 3748TIP3   OH211184   6.314   7.607   3.543
 3748TIP3    H111185   6.222   7.633   3.533
 3748TIP3    H211186   6.331   7.550   3.468
 3749TIP3   OH211187   7.161   3.887   1.667
 3749TIP3    H111188   7.200   3.806   1.633
 3749TIP3    H211189   7.169   3.880   1.762
 3750TIP3   OH211190   3.933   6.741   0.972
 3750TIP3    H111191   3.868   6.707   1.033
 3750TIP3    H211192   3.882   6.798   0.913
 3751TIP3   OH211193   5.719   1.180   5.228
 3751TIP3    H111194   5.716   1.254   5.288
 3751TIP3    H211195   5.804   1.140   5.243
 3752TIP3   OH211196   5.076   0.725   6.101
 3752TIP3    H111197   5.031   0.648   6.136
 3752TIP3    H211198   5.131   0.755   6.173
 3753TIP3   OH211199   6.195   0.876   4.959
 3753TIP3    H111200   6.251   0.847   5.031
 3753TIP3    H211201   6.139   0.942   4.998
 3754TIP3   OH211202   3.145   5.254   1.932
 3754TIP3    H111203   3.197   5.333   1.936
 3754TIP3    H211204   3.196   5.194   1.877
 3755TIP3   OH211205   0.993   3.356   1.139
 3755TIP3    H111206   1.068   3.378   1.084
 3755TIP3    H211207   0.916   3.377   1.086
 3756TIP3   OH211208   3.998   2.439   0.732
 3756TIP3    H111209   4.019   2.347   0.744
 3756TIP3    H211210   3.938   2.460   0.803
 3757TIP3   OH211211   5.047   0.247   0.585
 3757TIP3    H111212   5.057   0.178   0.650
 3757TIP3    H211213   5.039   0.200   0.502
 3758TIP3   OH211214   8.077   2.904   1.213
 3758TIP3    H111215   8.055   2.923   1.304
 3758TIP3    H211216   7.998   2.925   1.164
 3759TIP3   OH211217   4.368   7.808   0.946
 3759TIP3    H111218   4.446   7.756   0.967
 3759TIP3    H211219   4.401   7.898   0.941
 3760TIP3   OH211220   7.532   2.349   1.067
 3760TIP3    H111221   7.586   2.281   1.027
 3760TIP3    H211222   7.554   2.428   1.019
 3761TIP3   OH211223   3.989   2.104   1.295
 3761TIP3    H111224   3.962   2.169   1.359
 3761TIP3    H211225   3.922   2.036   1.300
 3762TIP3   OH211226   2.784   5.416   6.104
 3762TIP3    H111227   2.750   5.329   6.081
 3762TIP3    H211228   2.872   5.399   6.138
 3763TIP3   OH211229   3.862   5.664   6.790
 3763TIP3    H111230   3.824   5.713   6.863
 3763TIP3    H211231   3.805   5.588   6.780
 3764TIP3   OH211232   6.903   7.005   2.938
 3764TIP3    H111233   6.872   7.096   2.942
 3764TIP3    H211234   6.894   6.973   3.027
 3765TIP3   OH211235   4.528   5.015   6.809
 3765TIP3    H111236   4.508   4.921   6.817
 3765TIP3    H211237   4.619   5.017   6.779
 3766TIP3   OH211238   1.569   4.882   6.629
 3766TIP3    H111239   1.628   4.807   6.616
 3766TIP3    H211240   1.571   4.897   6.724
 3767TIP3   OH211241   5.457   4.922   1.736
 3767TIP3    H111242   5.407   4.853   1.779
 3767TIP3    H211243   5.543   4.920   1.777
 3768TIP3   OH211244   7.500   1.505   1.663
 3768TIP3    H111245   7.584   1.463   1.647
 3768TIP3    H211246   7.517   1.566   1.736
 3769TIP3   OH211247   4.456   6.883   1.076
 3769TIP3    H111248   4.498   6.891   0.990
 3769TIP3    H211249   4.478   6.964   1.122
 3770TIP3   OH211250   6.678   5.740   6.035
 3770TIP3    H111251   6.725   5.715   5.955
 3770TIP3    H211252   6.738   5.715   6.106
 3771TIP3   OH211253   2.725   5.659   0.037
 3771TIP3    H111254   2.797   5.656   0.100
 3771TIP3    H211255   2.697   5.751   0.037
 3772TIP3   OH211256   5.172   0.694   2.209
 3772TIP3    H111257   5.135   0.671   2.294
 3772TIP3    H211258   5.221   0.774   2.224
 3773TIP3   OH211259   0.527   6.872   5.408
 3773TIP3    H111260   0.546   6.871   5.314
 3773TIP3    H211261   0.604   6.834   5.449
 3774TIP3   OH211262   0.526   6.728   1.630
 3774TIP3    H111263   0.542   6.711   1.722
 3774TIP3    H211264   0.569   6.812   1.613
 3775TIP3   OH211265   3.147   5.720   4.509
 3775TIP3    H111266   3.124   5.632   4.478
 3775TIP3    H211267   3.116   5.778   4.440
 3776TIP3   OH211268   1.296   0.461   4.700
 3776TIP3    H111269   1.255   0.546   4.714
 3776TIP3    H211270   1.356   0.475   4.626
 3777TIP3   OH211271   8.173   2.062   0.328
 3777TIP3    H111272   8.113   2.092   0.396
 3777TIP3    H211273   8.178   1.967   0.340
 3778TIP3   OH211274   2.471   5.505   4.696
 3778TIP3    H111275   2.491   5.536   4.608
 3778TIP3    H211276   2.395   5.448   4.685
 3779TIP3   OH211277   7.955   4.169   5.474
 3779TIP3    H111278   7.916   4.191   5.559
 3779TIP3    H211279   7.936   4.244   5.419
 3780TIP3   OH211280   4.650   7.081   4.841
 3780TIP3    H111281   4.567   7.110   4.804
 3780TIP3    H211282   4.714   7.145   4.810
 3781TIP3   OH211283   6.227   1.706   4.695
 3781TIP3    H111284   6.295   1.664   4.747
 3781TIP3    H211285   6.203   1.641   4.629
 3782TIP3   OH211286   1.406   5.495   1.149
 3782TIP3    H111287   1.437   5.573   1.196
 3782TIP3    H211288   1.322   5.474   1.190
 3783TIP3   OH211289   3.104   3.076   4.473
 3783TIP3    H111290   3.047   3.111   4.404
 3783TIP3    H211291   3.051   3.080   4.552
 3784TIP3   OH211292   7.870   3.081   6.823
 3784TIP3    H111293   7.818   3.099   6.745
 3784TIP3    H211294   7.821   3.015   6.870
 3785TIP3   OH211295   6.129   7.095   4.307
 3785TIP3    H111296   6.189   7.031   4.271
 3785TIP3    H211297   6.042   7.059   4.289
 3786TIP3   OH211298   2.610   4.439   4.479
 3786TIP3    H111299   2.565   4.365   4.438
 3786TIP3    H211300   2.539   4.493   4.514
 3787TIP3   OH211301   0.511   2.703   5.882
 3787TIP3    H111302   0.561   2.784   5.874
 3787TIP3    H211303   0.537   2.651   5.805
 3788TIP3   OH211304   2.838   6.058   5.350
 3788TIP3    H111305   2.783   6.015   5.284
 3788TIP3    H211306   2.897   5.989   5.381
 3789TIP3   OH211307   6.242   4.022   0.943
 3789TIP3    H111308   6.268   4.114   0.943
 3789TIP3    H211309   6.278   3.987   1.025
 3790TIP3   OH211310   4.286   6.033   1.476
 3790TIP3    H111311   4.335   5.987   1.544
 3790TIP3    H211312   4.210   6.069   1.522
 3791TIP3   OH211313   1.924   4.912   4.767
 3791TIP3    H111314   1.938   4.935   4.675
 3791TIP3    H211315   1.857   4.973   4.797
 3792TIP3   OH211316   5.341   7.205   6.301
 3792TIP3    H111317   5.281   7.204   6.375
 3792TIP3    H211318   5.298   7.261   6.236
 3793TIP3   OH211319   0.138   5.246   2.240
 3793TIP3    H111320   0.174   5.320   2.289
 3793TIP3    H211321   0.105   5.187   2.308
 3794TIP3   OH211322   4.699   4.656   1.190
 3794TIP3    H111323   4.744   4.572   1.202
 3794TIP3    H211324   4.606   4.632   1.181
 3795TIP3   OH211325   1.357   6.357   3.496
 3795TIP3    H111326   1.388   6.427   3.438
 3795TIP3    H211327   1.347   6.281   3.439
 3796TIP3   OH211328   2.787   6.632   1.358
 3796TIP3    H111329   2.754   6.719   1.335
 3796TIP3    H211330   2.849   6.611   1.288
 3797TIP3   OH211331   5.426   5.086   5.340
 3797TIP3    H111332   5.439   5.137   5.260
 3797TIP3    H211333   5.331   5.087   5.354
 3798TIP3   OH211334   2.381   7.380   1.726
 3798TIP3    H111335   2.429   7.305   1.691
 3798TIP3    H211336   2.350   7.426   1.648
 3799TIP3   OH211337   7.494   1.521   5.441
 3799TIP3    H111338   7.469   1.440   5.486
 3799TIP3    H211339   7.495   1.587   5.511
 3800TIP3   OH211340   0.086   6.802   0.761
 3800TIP3    H111341   0.155   6.747   0.799
 3800TIP3    H211342   0.113   6.813   0.669
 3801TIP3   OH211343   5.054   3.901   2.475
 3801TIP3    H111344   4.991   3.835   2.446
 3801TIP3    H211345   5.132   3.886   2.423
 3802TIP3   OH211346   2.704   1.156   0.552
 3802TIP3    H111347   2.678   1.228   0.611
 3802TIP3    H211348   2.670   1.077   0.595
 3803TIP3   OH211349   1.575   4.817   0.174
 3803TIP3    H111350   1.547   4.845   0.261
 3803TIP3    H211351   1.651   4.761   0.190
 3804TIP3   OH211352   5.938   4.120   0.278
 3804TIP3    H111353   5.982   4.166   0.207
 3804TIP3    H211354   5.974   4.158   0.358
 3805TIP3   OH211355   7.230   1.678   6.595
 3805TIP3    H111356   7.286   1.658   6.670
 3805TIP3    H211357   7.164   1.739   6.629
 3806TIP3   OH211358   5.666   2.222   2.632
 3806TIP3    H111359   5.725   2.148   2.618
 3806TIP3    H211360   5.724   2.298   2.636
 3807TIP3   OH211361   8.305   1.361   5.610
 3807TIP3    H111362   8.344   1.337   5.525
 3807TIP3    H211363   8.253   1.439   5.591
 3808TIP3   OH211364   4.769   1.728   6.818
 3808TIP3    H111365   4.851   1.680   6.801
 3808TIP3    H211366   4.795   1.820   6.822
 3809TIP3   OH211367   0.230   4.296   3.228
 3809TIP3    H111368   0.137   4.278   3.240
 3809TIP3    H211369   0.240   4.309   3.134
 3810TIP3   OH211370   2.143   2.950   1.733
 3810TIP3    H111371   2.153   3.019   1.798
 3810TIP3    H211372   2.093   2.990   1.662
 3811TIP3   OH211373   7.161   0.724   0.344
 3811TIP3    H111374   7.146   0.635   0.374
 3811TIP3    H211375   7.232   0.756   0.400
 3812TIP3   OH211376   1.421   6.149   3.065
 3812TIP3    H111377   1.341   6.156   3.012
 3812TIP3    H211378   1.484   6.105   3.009
 3813TIP3   OH211379   4.991   5.199   5.137
 3813TIP3    H111380   4.922   5.151   5.091
 3813TIP3    H211381   4.954   5.286   5.152
 3814TIP3   OH211382   6.551   2.421   6.643
 3814TIP3    H111383   6.487   2.368   6.691
 3814TIP3    H211384   6.550   2.506   6.686
 3815TIP3   OH211385   3.283   0.965   3.252
 3815TIP3    H111386   3.206   0.966   3.309
 3815TIP3    H211387   3.255   0.915   3.175
 3816TIP3   OH211388   0.370   4.966   1.909
 3816TIP3    H111389   0.422   5.046   1.915
 3816TIP3    H211390   0.289   4.992   1.866
 3817TIP3   OH211391   4.060   6.412   1.791
 3817TIP3    H111392   4.128   6.473   1.761
 3817TIP3    H211393   4.108   6.339   1.829
 3818TIP3   OH211394   1.901   7.294   2.969
 3818TIP3    H111395   1.865   7.356   3.033
 3818TIP3    H211396   1.927   7.349   2.895
 3819TIP3   OH211397   0.557   6.459   1.546
 3819TIP3    H111398   0.527   6.550   1.549
 3819TIP3    H211399   0.558   6.431   1.638
 3820TIP3   OH211400   5.731   2.515   6.684
 3820TIP3    H111401   5.757   2.423   6.692
 3820TIP3    H211402   5.640   2.516   6.712
 3821TIP3   OH211403   5.240   4.571   5.845
 3821TIP3    H111404   5.253   4.594   5.753
 3821TIP3    H211405   5.146   4.582   5.859
 3822TIP3   OH211406   4.477   6.638   0.324
 3822TIP3    H111407   4.548   6.700   0.311
 3822TIP3    H211408   4.521   6.553   0.333
 3823TIP3   OH211409   2.587   7.896   3.744
 3823TIP3    H111410   2.561   7.984   3.716
 3823TIP3    H211411   2.681   7.892   3.728
 3824TIP3   OH211412   7.783   4.747   4.298
 3824TIP3    H111413   7.711   4.716   4.244
 3824TIP3    H211414   7.851   4.679   4.289
 3825TIP3   OH211415   2.242   1.205   2.579
 3825TIP3    H111416   2.311   1.239   2.523
 3825TIP3    H211417   2.160   1.226   2.533
 3826TIP3   OH211418   4.206   4.214   5.616
 3826TIP3    H111419   4.166   4.175   5.538
 3826TIP3    H211420   4.300   4.210   5.598
 3827TIP3   OH211421   5.240   0.434   3.721
 3827TIP3    H111422   5.213   0.450   3.630
 3827TIP3    H211423   5.276   0.517   3.751
 3828TIP3   OH211424   3.347   1.090   6.775
 3828TIP3    H111425   3.347   1.039   6.694
 3828TIP3    H211426   3.433   1.131   6.778
 3829TIP3   OH211427   1.614   3.593   3.075
 3829TIP3    H111428   1.546   3.556   3.019
 3829TIP3    H211429   1.597   3.555   3.161
 3830TIP3   OH211430   1.651   4.575   4.141
 3830TIP3    H111431   1.693   4.546   4.222
 3830TIP3    H211432   1.695   4.525   4.072
 3831TIP3   OH211433   1.496   0.679   2.877
 3831TIP3    H111434   1.440   0.756   2.864
 3831TIP3    H211435   1.532   0.690   2.965
 3832TIP3   OH211436   3.058   5.202   5.965
 3832TIP3    H111437   2.979   5.186   6.017
 3832TIP3    H211438   3.121   5.137   5.995
 3833TIP3   OH211439   7.311   0.687   5.477
 3833TIP3    H111440   7.356   0.645   5.550
 3833TIP3    H211441   7.372   0.754   5.447
 3834TIP3   OH211442   4.183   1.951   2.599
 3834TIP3    H111443   4.102   1.901   2.616
 3834TIP3    H211444   4.245   1.885   2.567
 3835TIP3   OH211445   7.582   1.079   4.453
 3835TIP3    H111446   7.653   1.064   4.515
 3835TIP3    H211447   7.523   1.004   4.466
 3836TIP3   OH211448   1.366   2.057   4.648
 3836TIP3    H111449   1.275   2.030   4.653
 3836TIP3    H211450   1.416   1.978   4.668
 3837TIP3   OH211451   4.360   4.791   5.041
 3837TIP3    H111452   4.394   4.782   4.951
 3837TIP3    H211453   4.292   4.857   5.034
 3838TIP3   OH211454   1.134   5.110   3.435
 3838TIP3    H111455   1.166   5.197   3.411
 3838TIP3    H211456   1.092   5.077   3.355
 3839TIP3   OH211457   5.937   2.780   2.272
 3839TIP3    H111458   5.855   2.780   2.322
 3839TIP3    H211459   6.005   2.796   2.337
 3840TIP3   OH211460   8.115   6.668   6.138
 3840TIP3    H111461   8.140   6.754   6.103
 3840TIP3    H211462   8.177   6.652   6.209
 3841TIP3   OH211463   7.264   0.765   1.671
 3841TIP3    H111464   7.304   0.695   1.722
 3841TIP3    H211465   7.228   0.721   1.594
 3842TIP3   OH211466   3.224   7.909   3.933
 3842TIP3    H111467   3.166   7.834   3.945
 3842TIP3    H211468   3.191   7.975   3.994
 3843TIP3   OH211469   6.402   3.475   0.417
 3843TIP3    H111470   6.368   3.563   0.404
 3843TIP3    H211471   6.472   3.466   0.353
 3844TIP3   OH211472   1.427   0.631   5.908
 3844TIP3    H111473   1.380   0.705   5.946
 3844TIP3    H211474   1.511   0.667   5.880
 3845TIP3   OH211475   0.216   4.297   6.185
 3845TIP3    H111476   0.154   4.228   6.158
 3845TIP3    H211477   0.239   4.341   6.103
 3846TIP3   OH211478   4.530   7.456   4.067
 3846TIP3    H111479   4.624   7.439   4.063
 3846TIP3    H211480   4.494   7.383   4.117
 3847TIP3   OH211481   3.536   1.634   0.140
 3847TIP3    H111482   3.508   1.552   0.182
 3847TIP3    H211483   3.622   1.613   0.103
 3848TIP3   OH211484   0.364   7.396   0.711
 3848TIP3    H111485   0.301   7.412   0.781
 3848TIP3    H211486   0.345   7.307   0.681
 3849TIP3   OH211487   1.626   7.358   3.178
 3849TIP3    H111488   1.620   7.445   3.216
 3849TIP3    H211489   1.680   7.308   3.240
 3850TIP3   OH211490   4.628   5.150   6.516
 3850TIP3    H111491   4.707   5.167   6.568
 3850TIP3    H211492   4.631   5.056   6.498
 3851TIP3   OH211493   8.017   6.751   2.472
 3851TIP3    H111494   7.988   6.841   2.458
 3851TIP3    H211495   7.992   6.732   2.562
 3852TIP3   OH211496   2.105   2.987   4.573
 3852TIP3    H111497   2.098   2.922   4.503
 3852TIP3    H211498   2.198   2.991   4.593
 3853TIP3   OH211499   1.801   2.480   4.092
 3853TIP3    H111500   1.755   2.411   4.043
 3853TIP3    H211501   1.823   2.545   4.025
 3854TIP3   OH211502   1.511   1.650   4.321
 3854TIP3    H111503   1.579   1.634   4.255
 3854TIP3    H211504   1.545   1.610   4.401
 3855TIP3   OH211505   4.609   3.720   4.885
 3855TIP3    H111506   4.669   3.784   4.846
 3855TIP3    H211507   4.542   3.706   4.818
 3856TIP3   OH211508   6.019   5.831   5.798
 3856TIP3    H111509   6.102   5.792   5.824
 3856TIP3    H211510   6.003   5.797   5.710
 3857TIP3   OH211511   7.258   6.563   2.083
 3857TIP3    H111512   7.164   6.557   2.072
 3857TIP3    H211513   7.277   6.508   2.159
 3858TIP3   OH211514   3.665   6.401   4.098
 3858TIP3    H111515   3.619   6.476   4.060
 3858TIP3    H211516   3.723   6.440   4.164
 3859TIP3   OH211517   1.072   5.897   5.373
 3859TIP3    H111518   1.145   5.835   5.373
 3859TIP3    H211519   1.014   5.867   5.443
 3860TIP3   OH211520   4.469   2.024   1.984
 3860TIP3    H111521   4.413   1.951   2.012
 3860TIP3    H211522   4.427   2.102   2.020
 3861TIP3   OH211523   0.133   3.280   3.399
 3861TIP3    H111524   0.178   3.282   3.315
 3861TIP3    H211525   0.187   3.222   3.453
 3862TIP3   OH211526   0.787   4.469   1.930
 3862TIP3    H111527   0.711   4.453   1.874
 3862TIP3    H211528   0.839   4.533   1.881
 3863TIP3   OH211529   5.273   5.291   0.914
 3863TIP3    H111530   5.340   5.353   0.886
 3863TIP3    H211531   5.269   5.300   1.009
 3864TIP3   OH211532   2.000   5.842   4.762
 3864TIP3    H111533   2.017   5.772   4.699
 3864TIP3    H211534   2.080   5.846   4.815
 3865TIP3   OH211535   4.825   2.390   0.728
 3865TIP3    H111536   4.917   2.393   0.700
 3865TIP3    H211537   4.821   2.447   0.804
 3866TIP3   OH211538   3.853   3.316   0.312
 3866TIP3    H111539   3.806   3.233   0.316
 3866TIP3    H211540   3.882   3.322   0.221
 3867TIP3   OH211541   3.993   6.089   6.409
 3867TIP3    H111542   4.077   6.082   6.364
 3867TIP3    H211543   3.981   6.005   6.452
 3868TIP3   OH211544   1.498   7.771   0.307
 3868TIP3    H111545   1.559   7.819   0.363
 3868TIP3    H211546   1.456   7.839   0.254
 3869TIP3   OH211547   0.686   0.321   2.844
 3869TIP3    H111548   0.711   0.327   2.751
 3869TIP3    H211549   0.592   0.340   2.845
 3870TIP3   OH211550   6.681   1.618   2.898
 3870TIP3    H111551   6.667   1.693   2.841
 3870TIP3    H211552   6.759   1.575   2.863
 3871TIP3   OH211553   4.650   2.530   3.263
 3871TIP3    H111554   4.566   2.574   3.271
 3871TIP3    H211555   4.703   2.589   3.210
 3872TIP3   OH211556   3.160   1.443   2.877
 3872TIP3    H111557   3.078   1.486   2.900
 3872TIP3    H211558   3.166   1.451   2.782
 3873TIP3   OH211559   7.365   4.754   6.266
 3873TIP3    H111560   7.357   4.749   6.171
 3873TIP3    H211561   7.382   4.846   6.284
 3874TIP3   OH211562   4.243   5.656   2.018
 3874TIP3    H111563   4.185   5.641   1.943
 3874TIP3    H211564   4.220   5.587   2.080
 3875TIP3   OH211565   5.521   6.610   6.835
 3875TIP3    H111566   5.563   6.536   6.878
 3875TIP3    H211567   5.516   6.677   6.903
 3876TIP3   OH211568   5.715   4.937   5.749
 3876TIP3    H111569   5.746   5.012   5.698
 3876TIP3    H211570   5.692   4.974   5.834
 3877TIP3   OH211571   5.823   6.917   6.523
 3877TIP3    H111572   5.747   6.971   6.544
 3877TIP3    H211573   5.791   6.827   6.529
 3878TIP3   OH211574   7.334   4.904   5.711
 3878TIP3    H111575   7.388   4.860   5.777
 3878TIP3    H211576   7.279   4.835   5.675
 3879TIP3   OH211577   8.346   7.119   2.028
 3879TIP3    H111578   8.354   7.089   1.937
 3879TIP3    H211579   8.427   7.090   2.070
 3880TIP3   OH211580   2.018   7.363   6.056
 3880TIP3    H111581   2.031   7.457   6.067
 3880TIP3    H211582   2.064   7.342   5.974
 3881TIP3   OH211583   5.205   6.246   4.255
 3881TIP3    H111584   5.183   6.195   4.177
 3881TIP3    H211585   5.173   6.335   4.236
 3882TIP3   OH211586   6.654   1.768   3.755
 3882TIP3    H111587   6.581   1.709   3.737
 3882TIP3    H211588   6.679   1.802   3.669
 3883TIP3   OH211589   3.384   4.482   4.137
 3883TIP3    H111590   3.298   4.445   4.118
 3883TIP3    H211591   3.379   4.507   4.229
 3884TIP3   OH211592   0.793   1.213   3.766
 3884TIP3    H111593   0.701   1.236   3.772
 3884TIP3    H211594   0.798   1.150   3.694
 3885TIP3   OH211595   5.392   3.644   4.899
 3885TIP3    H111596   5.298   3.634   4.883
 3885TIP3    H211597   5.415   3.726   4.855
 3886TIP3   OH211598   4.355   7.471   1.203
 3886TIP3    H111599   4.295   7.450   1.274
 3886TIP3    H211600   4.375   7.564   1.215
 3887TIP3   OH211601   7.456   4.841   1.019
 3887TIP3    H111602   7.479   4.863   0.929
 3887TIP3    H211603   7.398   4.765   1.011
 3888TIP3   OH211604   8.422   1.011   5.969
 3888TIP3    H111605   8.409   1.073   5.898
 3888TIP3    H211606   8.344   0.955   5.967
 3889TIP3   OH211607   4.799   6.420   0.202
 3889TIP3    H111608   4.813   6.467   0.119
 3889TIP3    H211609   4.836   6.479   0.268
 3890TIP3   OH211610   3.753   5.281   3.186
 3890TIP3    H111611   3.689   5.350   3.170
 3890TIP3    H211612   3.828   5.305   3.131
 3891TIP3   OH211613   4.987   7.532   6.182
 3891TIP3    H111614   4.898   7.525   6.148
 3891TIP3    H211615   4.983   7.603   6.246
 3892TIP3   OH211616   6.685   4.493   0.578
 3892TIP3    H111617   6.637   4.569   0.611
 3892TIP3    H211618   6.748   4.530   0.515
 3893TIP3   OH211619   0.613   3.334   2.194
 3893TIP3    H111620   0.667   3.255   2.188
 3893TIP3    H211621   0.537   3.315   2.140
 3894TIP3   OH211622   0.666   7.569   0.444
 3894TIP3    H111623   0.593   7.563   0.506
 3894TIP3    H211624   0.683   7.663   0.437
 3895TIP3   OH211625   3.827   1.067   3.494
 3895TIP3    H111626   3.792   1.117   3.421
 3895TIP3    H211627   3.919   1.052   3.472
 3896TIP3   OH211628   8.367   0.501   4.301
 3896TIP3    H111629   8.416   0.582   4.317
 3896TIP3    H211630   8.323   0.483   4.384
 3897TIP3   OH211631   6.842   2.663   1.907
 3897TIP3    H111632   6.759   2.672   1.860
 3897TIP3    H211633   6.878   2.751   1.909
 3898TIP3   OH211634   6.287   0.899   4.065
 3898TIP3    H111635   6.199   0.863   4.073
 3898TIP3    H211636   6.293   0.963   4.137
 3899TIP3   OH211637   8.054   3.241   0.656
 3899TIP3    H111638   8.062   3.149   0.679
 3899TIP3    H211639   7.976   3.271   0.702
 3900TIP3   OH211640   2.796   1.962   3.920
 3900TIP3    H111641   2.707   1.973   3.888
 3900TIP3    H211642   2.794   1.995   4.009
 3901TIP3   OH211643   3.748   4.798   1.030
 3901TIP3    H111644   3.676   4.812   0.968
 3901TIP3    H211645   3.721   4.721   1.080
 3902TIP3   OH211646   0.046   2.018   3.984
 3902TIP3    H111647   0.025   1.944   4.040
 3902TIP3    H211648   0.016   2.095   4.033
 3903TIP3   OH211649   3.518   6.291   3.747
 3903TIP3    H111650   3.443   6.288   3.806
 3903TIP3    H211651   3.505   6.371   3.696
 3904TIP3   OH211652   7.562   0.410   0.082
 3904TIP3    H111653   7.480   0.376   0.120
 3904TIP3    H211654   7.599   0.466   0.151
 3905TIP3   OH211655   6.065   1.810   2.473
 3905TIP3    H111656   6.161   1.811   2.474
 3905TIP3    H211657   6.040   1.901   2.456
 3906TIP3   OH211658   5.379   2.620   2.408
 3906TIP3    H111659   5.325   2.549   2.442
 3906TIP3    H211660   5.458   2.618   2.462
 3907TIP3   OH211661   1.889   2.880   6.477
 3907TIP3    H111662   1.929   2.966   6.471
 3907TIP3    H211663   1.871   2.855   6.387
 3908TIP3   OH211664   1.242   1.949   0.952
 3908TIP3    H111665   1.246   1.977   0.860
 3908TIP3    H211666   1.163   1.990   0.986
 3909TIP3   OH211667   3.445   2.124   5.789
 3909TIP3    H111668   3.536   2.151   5.779
 3909TIP3    H211669   3.413   2.112   5.700
 3910TIP3   OH211670   7.651   7.881   6.582
 3910TIP3    H111671   7.674   7.973   6.574
 3910TIP3    H211672   7.704   7.849   6.655
 3911TIP3   OH211673   0.664   0.775   4.315
 3911TIP3    H111674   0.672   0.775   4.410
 3911TIP3    H211675   0.669   0.683   4.291
 3912TIP3   OH211676   2.213   4.733   6.208
 3912TIP3    H111677   2.289   4.681   6.232
 3912TIP3    H211678   2.207   4.800   6.275
 3913TIP3   OH211679   7.592   1.563   4.064
 3913TIP3    H111680   7.591   1.597   4.153
 3913TIP3    H211681   7.636   1.631   4.013
 3914TIP3   OH211682   0.697   6.256   3.845
 3914TIP3    H111683   0.678   6.336   3.796
 3914TIP3    H211684   0.787   6.268   3.876
 3915TIP3   OH211685   6.865   3.169   2.166
 3915TIP3    H111686   6.842   3.174   2.259
 3915TIP3    H211687   6.960   3.184   2.165
 3916TIP3   OH211688   2.277   1.227   1.447
 3916TIP3    H111689   2.346   1.207   1.384
 3916TIP3    H211690   2.221   1.149   1.446
 3917TIP3   OH211691   2.626   1.056   4.267
 3917TIP3    H111692   2.614   1.012   4.183
 3917TIP3    H211693   2.715   1.092   4.264
 3918TIP3   OH211694   7.479   5.060   3.213
 3918TIP3    H111695   7.393   5.043   3.175
 3918TIP3    H211696   7.538   4.998   3.171
 3919TIP3   OH211697   4.842   7.098   0.580
 3919TIP3    H111698   4.890   7.119   0.500
 3919TIP3    H211699   4.909   7.069   0.642
 3920TIP3   OH211700   3.841   7.092   5.551
 3920TIP3    H111701   3.822   7.183   5.575
 3920TIP3    H211702   3.774   7.069   5.488
 3921TIP3   OH211703   3.356   1.694   3.892
 3921TIP3    H111704   3.290   1.763   3.908
 3921TIP3    H211705   3.327   1.652   3.811
 3922TIP3   OH211706   4.491   0.444   2.680
 3922TIP3    H111707   4.484   0.408   2.591
 3922TIP3    H211708   4.517   0.535   2.667
 3923TIP3   OH211709   7.438   7.236   6.524
 3923TIP3    H111710   7.508   7.293   6.558
 3923TIP3    H211711   7.422   7.267   6.436
 3924TIP3   OH211712   5.897   3.626   3.917
 3924TIP3    H111713   5.944   3.568   3.978
 3924TIP3    H211714   5.810   3.635   3.955
 3925TIP3   OH211715   4.293   1.246   2.882
 3925TIP3    H111716   4.327   1.326   2.843
 3925TIP3    H211717   4.231   1.276   2.948
 3926TIP3   OH211718   8.165   0.877   0.357
 3926TIP3    H111719   8.114   0.809   0.313
 3926TIP3    H211720   8.211   0.922   0.287
 3927TIP3   OH211721   1.651   3.868   1.658
 3927TIP3    H111722   1.689   3.796   1.608
 3927TIP3    H211723   1.682   3.855   1.747
 3928TIP3   OH211724   6.493   1.356   2.560
 3928TIP3    H111725   6.457   1.337   2.473
 3928TIP3    H211726   6.499   1.271   2.603
 3929TIP3   OH211727   7.862   3.876   6.357
 3929TIP3    H111728   7.882   3.952   6.301
 3929TIP3    H211729   7.874   3.801   6.299
 3930TIP3   OH211730   4.544   7.240   2.633
 3930TIP3    H111731   4.596   7.188   2.695
 3930TIP3    H211732   4.577   7.214   2.547
 3931TIP3   OH211733   1.072   3.695   0.171
 3931TIP3    H111734   1.114   3.653   0.095
 3931TIP3    H211735   1.063   3.624   0.235
 3932TIP3   OH211736   8.328   4.263   5.209
 3932TIP3    H111737   8.240   4.227   5.195
 3932TIP3    H211738   8.317   4.325   5.281
 3933TIP3   OH211739   3.870   1.120   0.487
 3933TIP3    H111740   3.838   1.143   0.575
 3933TIP3    H211741   3.963   1.101   0.500
 3934TIP3   OH211742   3.406   3.559   4.732
 3934TIP3    H111743   3.391   3.545   4.639
 3934TIP3    H211744   3.501   3.549   4.743
 3935TIP3   OH211745   1.225   3.958   0.631
 3935TIP3    H111746   1.215   3.910   0.713
 3935TIP3    H211747   1.308   4.006   0.642
 3936TIP3   OH211748   1.565   5.861   4.483
 3936TIP3    H111749   1.634   5.855   4.549
 3936TIP3    H211750   1.485   5.836   4.530
 3937TIP3   OH211751   5.748   6.670   1.511
 3937TIP3    H111752   5.736   6.729   1.437
 3937TIP3    H211753   5.825   6.705   1.557
 3938TIP3   OH211754   8.025   3.847   4.036
 3938TIP3    H111755   7.977   3.782   4.088
 3938TIP3    H211756   8.117   3.825   4.050
 3939TIP3   OH211757   1.365   2.829   1.209
 3939TIP3    H111758   1.448   2.878   1.207
 3939TIP3    H211759   1.299   2.896   1.226
 3940TIP3   OH211760   8.099   3.803   5.559
 3940TIP3    H111761   8.091   3.855   5.640
 3940TIP3    H211762   8.015   3.816   5.515
 3941TIP3   OH211763   1.229   1.964   0.691
 3941TIP3    H111764   1.270   1.916   0.619
 3941TIP3    H211765   1.145   1.994   0.656
 3942TIP3   OH211766   2.551   7.677   5.736
 3942TIP3    H111767   2.511   7.604   5.689
 3942TIP3    H211768   2.601   7.724   5.669
 3943TIP3   OH211769   5.717   3.885   5.356
 3943TIP3    H111770   5.661   3.836   5.296
 3943TIP3    H211771   5.740   3.965   5.308
 3944TIP3   OH211772   8.204   0.864   5.913
 3944TIP3    H111773   8.152   0.790   5.943
 3944TIP3    H211774   8.154   0.901   5.840
 3945TIP3   OH211775   8.039   3.098   3.961
 3945TIP3    H111776   8.045   3.170   4.024
 3945TIP3    H211777   8.101   3.120   3.892
 3946TIP3   OH211778   0.916   5.225   6.595
 3946TIP3    H111779   0.954   5.272   6.521
 3946TIP3    H211780   0.960   5.140   6.594
 3947TIP3   OH211781   7.426   0.907   4.118
 3947TIP3    H111782   7.417   0.932   4.026
 3947TIP3    H211783   7.410   0.988   4.167
 3948TIP3   OH211784   4.557   3.446   1.095
 3948TIP3    H111785   4.538   3.415   1.183
 3948TIP3    H211786   4.634   3.504   1.105
 3949TIP3   OH211787   0.641   1.254   4.981
 3949TIP3    H111788   0.584   1.329   4.964
 3949TIP3    H211789   0.708   1.259   4.914
 3950TIP3   OH211790   5.938   1.376   2.678
 3950TIP3    H111791   6.029   1.354   2.698
 3950TIP3    H211792   5.887   1.320   2.736
 3951TIP3   OH211793   6.022   0.917   0.606
 3951TIP3    H111794   6.074   0.949   0.532
 3951TIP3    H211795   5.996   0.828   0.580
 3952TIP3   OH211796   1.011   7.420   2.402
 3952TIP3    H111797   1.061   7.346   2.369
 3952TIP3    H211798   0.948   7.382   2.463
 3953TIP3   OH211799   7.578   4.583   2.000
 3953TIP3    H111800   7.649   4.647   2.009
 3953TIP3    H211801   7.595   4.540   1.917
 3954TIP3   OH211802   3.840   7.382   3.044
 3954TIP3    H111803   3.875   7.469   3.024
 3954TIP3    H211804   3.824   7.343   2.958
 3955TIP3   OH211805   6.186   4.532   5.242
 3955TIP3    H111806   6.264   4.497   5.201
 3955TIP3    H211807   6.187   4.495   5.331
 3956TIP3   OH211808   8.086   1.184   5.691
 3956TIP3    H111809   8.076   1.236   5.771
 3956TIP3    H211810   8.133   1.242   5.631
 3957TIP3   OH211811   6.875   2.089   4.047
 3957TIP3    H111812   6.933   2.019   4.016
 3957TIP3    H211813   6.922   2.128   4.120
 3958TIP3   OH211814   4.569   3.162   5.155
 3958TIP3    H111815   4.554   3.256   5.162
 3958TIP3    H211816   4.663   3.154   5.141
 3959TIP3   OH211817   5.052   6.677   5.118
 3959TIP3    H111818   5.133   6.640   5.083
 3959TIP3    H211819   5.071   6.770   5.130
 3960TIP3   OH211820   7.630   0.334   3.028
 3960TIP3    H111821   7.643   0.426   3.004
 3960TIP3    H211822   7.693   0.319   3.099
 3961TIP3   OH211823   7.409   5.480   5.626
 3961TIP3    H111824   7.316   5.459   5.617
 3961TIP3    H211825   7.423   5.553   5.567
 3962TIP3   OH211826   1.043   3.864   2.188
 3962TIP3    H111827   1.096   3.868   2.108
 3962TIP3    H211828   0.988   3.787   2.176
 3963TIP3   OH211829   2.933   6.354   6.004
 3963TIP3    H111830   2.986   6.275   6.017
 3963TIP3    H211831   2.925   6.362   5.909
 3964TIP3   OH211832   3.674   4.335   6.761
 3964TIP3    H111833   3.629   4.386   6.829
 3964TIP3    H211834   3.658   4.244   6.785
 3965TIP3   OH211835   4.065   0.976   6.819
 3965TIP3    H111836   4.150   0.998   6.780
 3965TIP3    H211837   4.051   1.044   6.886
 3966TIP3   OH211838   3.713   5.923   2.503
 3966TIP3    H111839   3.655   5.976   2.557
 3966TIP3    H211840   3.683   5.940   2.413
 3967TIP3   OH211841   0.125   7.194   1.231
 3967TIP3    H111842   0.042   7.153   1.207
 3967TIP3    H211843   0.176   7.192   1.151
 3968TIP3   OH211844   0.825   5.619   5.999
 3968TIP3    H111845   0.885   5.630   6.073
 3968TIP3    H211846   0.877   5.644   5.922
 3969TIP3   OH211847   3.174   5.491   3.455
 3969TIP3    H111848   3.179   5.580   3.490
 3969TIP3    H211849   3.265   5.465   3.444
 3970TIP3   OH211850   7.199   2.299   4.705
 3970TIP3    H111851   7.287   2.311   4.741
 3970TIP3    H211852   7.204   2.335   4.617
 3971TIP3   OH211853   7.850   5.552   1.960
 3971TIP3    H111854   7.855   5.506   2.044
 3971TIP3    H211855   7.765   5.527   1.924
 3972TIP3   OH211856   0.083   1.866   0.146
 3972TIP3    H111857   0.102   1.958   0.162
 3972TIP3    H211858   0.085   1.826   0.233
 3973TIP3   OH211859   4.531   6.178   5.141
 3973TIP3    H111860   4.441   6.167   5.171
 3973TIP3    H211861   4.555   6.093   5.103
 3974TIP3   OH211862   0.099   7.216   6.191
 3974TIP3    H111863   0.126   7.300   6.153
 3974TIP3    H211864   0.162   7.153   6.156
 3975TIP3   OH211865   3.797   4.897   1.726
 3975TIP3    H111866   3.800   4.976   1.780
 3975TIP3    H211867   3.820   4.826   1.785
 3976TIP3   OH211868   0.612   2.945   5.458
 3976TIP3    H111869   0.634   3.005   5.530
 3976TIP3    H211870   0.528   2.976   5.425
 3977TIP3   OH211871   7.701   2.281   2.334
 3977TIP3    H111872   7.734   2.322   2.254
 3977TIP3    H211873   7.761   2.209   2.352
 3978TIP3   OH211874   5.867   4.130   5.271
 3978TIP3    H111875   5.908   4.216   5.280
 3978TIP3    H211876   5.936   4.075   5.233
 3979TIP3   OH211877   1.159   5.553   0.954
 3979TIP3    H111878   1.124   5.591   1.034
 3979TIP3    H211879   1.237   5.604   0.935
 3980TIP3   OH211880   6.612   3.792   2.754
 3980TIP3    H111881   6.540   3.831   2.804
 3980TIP3    H211882   6.585   3.799   2.663
 3981TIP3   OH211883   7.523   1.368   4.615
 3981TIP3    H111884   7.566   1.382   4.699
 3981TIP3    H211885   7.529   1.274   4.600
 3982TIP3   OH211886   6.300   0.380   3.925
 3982TIP3    H111887   6.384   0.392   3.969
 3982TIP3    H211888   6.316   0.405   3.834
 3983TIP3   OH211889   5.827   4.731   3.021
 3983TIP3    H111890   5.921   4.732   3.007
 3983TIP3    H211891   5.799   4.820   2.996
 3984TIP3   OH211892   2.465   7.061   0.296
 3984TIP3    H111893   2.490   7.120   0.367
 3984TIP3    H211894   2.522   7.085   0.223
 3985TIP3   OH211895   7.700   1.616   3.709
 3985TIP3    H111896   7.754   1.546   3.672
 3985TIP3    H211897   7.616   1.608   3.664
 3986TIP3   OH211898   0.389   4.721   1.271
 3986TIP3    H111899   0.295   4.707   1.267
 3986TIP3    H211900   0.414   4.742   1.181
 3987TIP3   OH211901   6.376   5.357   2.798
 3987TIP3    H111902   6.419   5.430   2.753
 3987TIP3    H211903   6.446   5.293   2.810
 3988TIP3   OH211904   0.435   3.540   1.791
 3988TIP3    H111905   0.441   3.461   1.736
 3988TIP3    H211906   0.511   3.535   1.848
 3989TIP3   OH211907   5.736   1.495   5.592
 3989TIP3    H111908   5.695   1.566   5.542
 3989TIP3    H211909   5.827   1.522   5.601
 3990TIP3   OH211910   4.512   3.315   5.805
 3990TIP3    H111911   4.530   3.225   5.834
 3990TIP3    H211912   4.531   3.369   5.882
 3991TIP3   OH211913   0.132   0.403   2.416
 3991TIP3    H111914   0.124   0.415   2.511
 3991TIP3    H211915   0.042   0.397   2.385
 3992TIP3   OH211916   8.128   5.597   0.387
 3992TIP3    H111917   8.097   5.685   0.407
 3992TIP3    H211918   8.060   5.539   0.421
 3993TIP3   OH211919   5.973   2.802   3.658
 3993TIP3    H111920   5.921   2.881   3.670
 3993TIP3    H211921   6.036   2.824   3.589
 3994TIP3   OH211922   7.249   2.583   3.332
 3994TIP3    H111923   7.313   2.606   3.399
 3994TIP3    H211924   7.181   2.649   3.339
 3995TIP3   OH211925   2.033   5.674   5.511
 3995TIP3    H111926   2.079   5.620   5.446
 3995TIP3    H211927   1.983   5.737   5.459
 3996TIP3   OH211928   3.850   1.339   4.836
 3996TIP3    H111929   3.861   1.287   4.916
 3996TIP3    H211930   3.884   1.425   4.858
 3997TIP3   OH211931   1.491   4.898   2.468
 3997TIP3    H111932   1.559   4.833   2.449
 3997TIP3    H211933   1.468   4.883   2.560
 3998TIP3   OH211934   5.566   1.396   4.547
 3998TIP3    H111935   5.621   1.393   4.469
 3998TIP3    H211936   5.562   1.488   4.571
 3999TIP3   OH211937   8.085   1.202   5.304
 3999TIP3    H111938   8.156   1.143   5.326
 3999TIP3    H211939   8.011   1.145   5.283
 4000TIP3   OH211940   1.259   0.357   1.513
 4000TIP3    H111941   1.213   0.276   1.487
 4000TIP3    H211942   1.242   0.364   1.606
 4001TIP3   OH211943   5.260   5.141   6.505
 4001TIP3    H111944   5.348   5.105   6.493
 4001TIP3    H211945   5.239   5.124   6.597
 4002TIP3   OH211946   6.649   7.097   2.555
 4002TIP3    H111947   6.565   7.095   2.600
 4002TIP3    H211948   6.627   7.100   2.462
 4003TIP3   OH211949   7.306   5.405   6.179
 4003TIP3    H111950   7.385   5.353   6.173
 4003TIP3    H211951   7.336   5.496   6.171
 4004TIP3   OH211952   7.448   0.201   6.669
 4004TIP3    H111953   7.393   0.262   6.620
 4004TIP3    H211954   7.386   0.152   6.724
 4005TIP3   OH211955   5.143   5.716   4.872
 4005TIP3    H111956   5.213   5.755   4.924
 4005TIP3    H211957   5.131   5.629   4.910
 4006TIP3   OH211958   1.296   7.487   1.415
 4006TIP3    H111959   1.218   7.461   1.465
 4006TIP3    H211960   1.327   7.406   1.375
 4007TIP3   OH211961   6.356   6.969   6.246
 4007TIP3    H111962   6.442   6.994   6.212
 4007TIP3    H211963   6.362   6.875   6.260
 4008TIP3   OH211964   0.939   2.547   2.964
 4008TIP3    H111965   1.034   2.541   2.969
 4008TIP3    H211966   0.920   2.640   2.973
 4009TIP3   OH211967   5.329   5.185   1.780
 4009TIP3    H111968   5.392   5.116   1.758
 4009TIP3    H211969   5.333   5.246   1.706
 4010TIP3   OH211970   2.263   2.277   0.992
 4010TIP3    H111971   2.356   2.289   1.006
 4010TIP3    H211972   2.252   2.285   0.897
 4011TIP3   OH211973   3.388   0.504   3.507
 4011TIP3    H111974   3.415   0.581   3.457
 4011TIP3    H211975   3.297   0.490   3.482
 4012TIP3   OH211976   5.632   5.126   2.320
 4012TIP3    H111977   5.595   5.088   2.240
 4012TIP3    H211978   5.562   5.181   2.355
 4013TIP3   OH211979   1.729   1.970   1.917
 4013TIP3    H111980   1.779   1.915   1.858
 4013TIP3    H211981   1.720   2.053   1.870
 4014TIP3   OH211982   4.367   2.109   3.553
 4014TIP3    H111983   4.336   2.161   3.479
 4014TIP3    H211984   4.373   2.172   3.626
 4015TIP3   OH211985   2.238   3.790   5.605
 4015TIP3    H111986   2.164   3.842   5.575
 4015TIP3    H211987   2.203   3.737   5.678
 4016TIP3   OH211988   8.148   3.645   2.837
 4016TIP3    H111989   8.144   3.550   2.833
 4016TIP3    H211990   8.240   3.665   2.854
 4017TIP3   OH211991   8.187   4.875   5.115
 4017TIP3    H111992   8.101   4.834   5.109
 4017TIP3    H211993   8.225   4.862   5.027
 4018TIP3   OH211994   1.462   0.496   5.132
 4018TIP3    H111995   1.544   0.464   5.094
 4018TIP3    H211996   1.395   0.469   5.068
 4019TIP3   OH211997   4.544   2.207   1.586
 4019TIP3    H111998   4.554   2.179   1.677
 4019TIP3    H211999   4.565   2.300   1.587
 4020TIP3   OH212000   0.232   0.879   3.741
 4020TIP3    H112001   0.181   0.959   3.755
 4020TIP3    H212002   0.323   0.908   3.746
 4021TIP3   OH212003   0.049   3.908   0.829
 4021TIP3    H112004   0.043   3.820   0.790
 4021TIP3    H212005   0.142   3.918   0.850
 4022TIP3   OH212006   2.271   6.747   5.963
 4022TIP3    H112007   2.348   6.796   5.993
 4022TIP3    H212008   2.245   6.791   5.882
 4023TIP3   OH212009   6.641   7.422   0.609
 4023TIP3    H112010   6.671   7.513   0.613
 4023TIP3    H212011   6.722   7.371   0.603
 4024TIP3   OH212012   7.945   1.019   2.568
 4024TIP3    H112013   7.981   1.108   2.565
 4024TIP3    H212014   7.921   1.000   2.478
 4025TIP3   OH212015   7.496   3.896   5.470
 4025TIP3    H112016   7.522   3.833   5.403
 4025TIP3    H212017   7.402   3.883   5.480
 4026TIP3   OH212018   7.916   3.203   1.567
 4026TIP3    H112019   7.992   3.242   1.612
 4026TIP3    H212020   7.844   3.262   1.588
 4027TIP3   OH212021   7.141   1.117   2.124
 4027TIP3    H112022   7.236   1.112   2.116
 4027TIP3    H212023   7.109   1.044   2.072
 4028TIP3   OH212024   8.129   7.173   3.381
 4028TIP3    H112025   8.155   7.257   3.419
 4028TIP3    H212026   8.136   7.186   3.287
 4029TIP3   OH212027   3.016   6.564   2.963
 4029TIP3    H112028   3.000   6.497   3.029
 4029TIP3    H212029   3.069   6.520   2.896
 4030TIP3   OH212030   3.910   1.930   1.604
 4030TIP3    H112031   3.969   1.872   1.557
 4030TIP3    H212032   3.872   1.875   1.673
 4031TIP3   OH212033   0.322   2.075   1.766
 4031TIP3    H112034   0.240   2.121   1.788
 4031TIP3    H212035   0.332   2.089   1.672
 4032TIP3   OH212036   6.553   3.333   4.931
 4032TIP3    H112037   6.630   3.378   4.896
 4032TIP3    H212038   6.589   3.264   4.987
 4033TIP3   OH212039   3.150   6.750   0.360
 4033TIP3    H112040   3.150   6.715   0.449
 4033TIP3    H212041   3.153   6.845   0.371
 4034TIP3   OH212042   5.304   7.784   2.874
 4034TIP3    H112043   5.299   7.877   2.893
 4034TIP3    H212044   5.232   7.745   2.924
 4035TIP3   OH212045   7.755   3.572   6.467
 4035TIP3    H112046   7.678   3.617   6.433
 4035TIP3    H212047   7.828   3.607   6.416
 4036TIP3   OH212048   6.011   5.453   5.639
 4036TIP3    H112049   6.007   5.478   5.731
 4036TIP3    H212050   5.962   5.371   5.634
 4037TIP3   OH212051   0.923   5.883   6.177
 4037TIP3    H112052   1.012   5.900   6.207
 4037TIP3    H212053   0.870   5.950   6.220
 4038TIP3   OH212054   7.319   6.047   2.668
 4038TIP3    H112055   7.226   6.027   2.674
 4038TIP3    H212056   7.354   5.981   2.608
 4039TIP3   OH212057   1.110   1.657   3.352
 4039TIP3    H112058   1.093   1.637   3.261
 4039TIP3    H212059   1.185   1.602   3.376
 4040TIP3   OH212060   5.410   0.661   5.286
 4040TIP3    H112061   5.380   0.689   5.200
 4040TIP3    H212062   5.406   0.740   5.340
 4041TIP3   OH212063   6.452   0.216   3.357
 4041TIP3    H112064   6.515   0.168   3.303
 4041TIP3    H212065   6.488   0.305   3.363
 4042TIP3   OH212066   6.837   6.184   0.548
 4042TIP3    H112067   6.825   6.275   0.573
 4042TIP3    H212068   6.862   6.188   0.455
 4043TIP3   OH212069   2.847   7.433   1.341
 4043TIP3    H112070   2.814   7.509   1.389
 4043TIP3    H212071   2.892   7.469   1.266
 4044TIP3   OH212072   5.250   6.890   0.030
 4044TIP3    H112073   5.297   6.820  -0.016
 4044TIP3    H212074   5.318   6.951   0.058
 4045TIP3   OH212075   0.441   4.625   6.801
 4045TIP3    H112076   0.475   4.609   6.889
 4045TIP3    H212077   0.439   4.538   6.760
 4046TIP3   OH212078   0.244   0.378   4.254
 4046TIP3    H112079   0.281   0.457   4.215
 4046TIP3    H212080   0.206   0.407   4.336
 4047TIP3   OH212081   7.455   2.545   2.220
 4047TIP3    H112082   7.534   2.598   2.230
 4047TIP3    H212083   7.486   2.462   2.183
 4048TIP3   OH212084   0.419   4.355   6.669
 4048TIP3    H112085   0.491   4.378   6.609
 4048TIP3    H212086   0.374   4.283   6.625
 4049TIP3   OH212087   1.444   1.958   5.023
 4049TIP3    H112088   1.354   1.941   5.049
 4049TIP3    H212089   1.453   1.915   4.938
 4050TIP3   OH212090   1.821   2.140   5.634
 4050TIP3    H112091   1.731   2.142   5.601
 4050TIP3    H212092   1.853   2.230   5.620
 4051TIP3   OH212093   2.200   0.529   0.063
 4051TIP3    H112094   2.180   0.599   0.002
 4051TIP3    H212095   2.272   0.481   0.021
 4052TIP3   OH212096   1.176   4.955   3.940
 4052TIP3    H112097   1.141   4.975   3.853
 4052TIP3    H212098   1.271   4.963   3.929
 4053TIP3   OH212099   0.323   6.055   3.512
 4053TIP3    H112100   0.389   6.026   3.449
 4053TIP3    H212101   0.239   6.039   3.468
 4054TIP3   OH212102   6.779   5.709   5.768
 4054TIP3    H112103   6.791   5.775   5.700
 4054TIP3    H212104   6.770   5.627   5.721
 4055TIP3   OH212105   4.917   2.393   4.298
 4055TIP3    H112106   4.917   2.435   4.212
 4055TIP3    H212107   4.978   2.320   4.290
 4056TIP3   OH212108   1.363   7.794   6.399
 4056TIP3    H112109   1.391   7.783   6.490
 4056TIP3    H212110   1.334   7.707   6.372
 4057TIP3   OH212111   0.717   4.503   5.835
 4057TIP3    H112112   0.741   4.591   5.807
 4057TIP3    H212113   0.648   4.517   5.901
 4058TIP3   OH212114   8.049   2.735   5.705
 4058TIP3    H112115   7.958   2.746   5.678
 4058TIP3    H212116   8.073   2.647   5.675
 4059TIP3   OH212117   2.984   5.856   1.788
 4059TIP3    H112118   3.006   5.918   1.857
 4059TIP3    H212119   2.899   5.820   1.813
 4060TIP3   OH212120   2.955   3.931   5.092
 4060TIP3    H112121   2.878   3.978   5.058
 4060TIP3    H212122   2.970   3.970   5.178
 4061TIP3   OH212123   0.522   1.217   4.075
 4061TIP3    H112124   0.535   1.142   4.134
 4061TIP3    H212125   0.589   1.280   4.101
 4062TIP3   OH212126   2.003   3.443   5.504
 4062TIP3    H112127   2.046   3.424   5.587
 4062TIP3    H212128   2.020   3.536   5.488
 4063TIP3   OH212129   6.763   1.764   1.288
 4063TIP3    H112130   6.792   1.698   1.226
 4063TIP3    H212131   6.735   1.715   1.365
 4064TIP3   OH212132   1.647   7.621   3.240
 4064TIP3    H112133   1.608   7.692   3.189
 4064TIP3    H212134   1.648   7.655   3.330
 4065TIP3   OH212135   4.333   3.592   1.219
 4065TIP3    H112136   4.391   3.602   1.144
 4065TIP3    H212137   4.353   3.504   1.253
 4066TIP3   OH212138   8.155   0.831   2.608
 4066TIP3    H112139   8.115   0.773   2.673
 4066TIP3    H212140   8.090   0.899   2.592
 4067TIP3   OH212141   5.956   0.317   2.118
 4067TIP3    H112142   6.019   0.382   2.089
 4067TIP3    H212143   5.951   0.329   2.213
 4068TIP3   OH212144   4.583   3.999   5.775
 4068TIP3    H112145   4.625   3.921   5.811
 4068TIP3    H212146   4.559   3.975   5.686
 4069TIP3   OH212147   3.735   6.624   6.576
 4069TIP3    H112148   3.727   6.661   6.488
 4069TIP3    H212149   3.758   6.699   6.632
 4070TIP3   OH212150   1.609   0.607   5.447
 4070TIP3    H112151   1.701   0.581   5.450
 4070TIP3    H212152   1.566   0.535   5.401
 4071TIP3   OH212153   6.680   1.007   5.858
 4071TIP3    H112154   6.663   0.913   5.854
 4071TIP3    H212155   6.622   1.039   5.926
 4072TIP3   OH212156   4.602   0.647   4.430
 4072TIP3    H112157   4.645   0.590   4.367
 4072TIP3    H212158   4.668   0.712   4.453
 4073TIP3   OH212159   1.844   1.368   3.528
 4073TIP3    H112160   1.765   1.381   3.476
 4073TIP3    H212161   1.818   1.391   3.617
 4074TIP3   OH212162   8.020   1.148   0.434
 4074TIP3    H112163   8.078   1.117   0.364
 4074TIP3    H212164   7.997   1.237   0.409
 4075TIP3   OH212165   6.588   5.566   0.003
 4075TIP3    H112166   6.632   5.651   0.003
 4075TIP3    H212167   6.575   5.545   0.095
 4076TIP3   OH212168   3.121   2.393   6.309
 4076TIP3    H112169   3.127   2.371   6.216
 4076TIP3    H212170   3.030   2.376   6.332
 4077TIP3   OH212171   2.631   6.344   1.359
 4077TIP3    H112172   2.574   6.346   1.436
 4077TIP3    H212173   2.699   6.280   1.380
 4078TIP3   OH212174   0.622   6.569   4.119
 4078TIP3    H112175   0.693   6.620   4.157
 4078TIP3    H212176   0.645   6.478   4.136
 4079TIP3   OH212177   3.099   2.743   6.168
 4079TIP3    H112178   3.004   2.732   6.160
 4079TIP3    H212179   3.112   2.777   6.257
 4080TIP3   OH212180   2.542   7.306   5.441
 4080TIP3    H112181   2.619   7.363   5.435
 4080TIP3    H212182   2.569   7.236   5.501
 4081TIP3   OH212183   7.427   0.393   4.177
 4081TIP3    H112184   7.414   0.325   4.111
 4081TIP3    H212185   7.518   0.422   4.164
 4082TIP3   OH212186   0.709   3.454   5.708
 4082TIP3    H112187   0.740   3.380   5.760
 4082TIP3    H212188   0.679   3.518   5.773
 4083TIP3   OH212189   8.189   7.241   4.417
 4083TIP3    H112190   8.149   7.173   4.362
 4083TIP3    H212191   8.159   7.220   4.506
 4084TIP3   OH212192   5.646   5.842   3.114
 4084TIP3    H112193   5.730   5.804   3.140
 4084TIP3    H212194   5.598   5.768   3.076
 4085TIP3   OH212195   1.779   7.846   6.400
 4085TIP3    H112196   1.762   7.837   6.494
 4085TIP3    H212197   1.853   7.787   6.383
 4086TIP3   OH212198   3.477   0.808   5.202
 4086TIP3    H112199   3.469   0.864   5.279
 4086TIP3    H212200   3.570   0.808   5.181
 4087TIP3   OH212201   4.012   5.092   5.710
 4087TIP3    H112202   3.983   5.044   5.631
 4087TIP3    H212203   3.933   5.138   5.740
 4088TIP3   OH212204   2.152   4.525   3.375
 4088TIP3    H112205   2.129   4.549   3.285
 4088TIP3    H212206   2.246   4.543   3.380
 4089TIP3   OH212207   4.913   3.535   0.848
 4089TIP3    H112208   4.858   3.477   0.795
 4089TIP3    H212209   4.862   3.550   0.928
 4090TIP3   OH212210   8.150   3.643   4.972
 4090TIP3    H112211   8.107   3.567   5.012
 4090TIP3    H212212   8.225   3.606   4.926
 4091TIP3   OH212213   4.616   0.386   0.537
 4091TIP3    H112214   4.654   0.365   0.451
 4091TIP3    H212215   4.539   0.330   0.543
 4092TIP3   OH212216   6.985   1.390   0.578
 4092TIP3    H112217   7.021   1.301   0.572
 4092TIP3    H212218   7.063   1.446   0.578
 4093TIP3   OH212219   5.603   1.915   5.019
 4093TIP3    H112220   5.646   1.967   5.087
 4093TIP3    H212221   5.515   1.900   5.053
 4094TIP3   OH212222   4.593   3.122   4.681
 4094TIP3    H112223   4.628   3.193   4.736
 4094TIP3    H212224   4.587   3.047   4.740
 4095TIP3   OH212225   2.445   3.629   5.003
 4095TIP3    H112226   2.364   3.634   5.055
 4095TIP3    H212227   2.448   3.539   4.972
 4096TIP3   OH212228   4.064   1.000   4.695
 4096TIP3    H112229   4.015   1.007   4.777
 4096TIP3    H212230   4.013   0.939   4.641
 4097TIP3   OH212231   8.098   6.892   2.037
 4097TIP3    H112232   8.145   6.836   2.099
 4097TIP3    H212233   8.006   6.876   2.055
 4098TIP3   OH212234   7.500   1.622   0.657
 4098TIP3    H112235   7.494   1.681   0.732
 4098TIP3    H212236   7.582   1.646   0.614
 4099TIP3   OH212237   1.449   4.476   1.250
 4099TIP3    H112238   1.377   4.538   1.260
 4099TIP3    H212239   1.457   4.464   1.155
 4100TIP3   OH212240   1.931   5.931   3.885
 4100TIP3    H112241   1.898   6.016   3.857
 4100TIP3    H212242   1.951   5.885   3.804
 4101TIP3   OH212243   5.740   5.179   5.232
 4101TIP3    H112244   5.763   5.262   5.273
 4101TIP3    H212245   5.647   5.168   5.250
 4102TIP3   OH212246   6.038   2.139   1.498
 4102TIP3    H112247   5.981   2.088   1.440
 4102TIP3    H212248   6.046   2.085   1.577
 4103TIP3   OH212249   6.324   6.983   1.437
 4103TIP3    H112250   6.352   7.049   1.373
 4103TIP3    H212251   6.368   6.903   1.409
 4104TIP3   OH212252   3.124   7.539   6.357
 4104TIP3    H112253   3.098   7.577   6.440
 4104TIP3    H212254   3.215   7.513   6.371
 4105TIP3   OH212255   2.884   6.197   1.383
 4105TIP3    H112256   2.910   6.106   1.393
 4105TIP3    H212257   2.880   6.211   1.288
 4106TIP3   OH212258   6.710   4.378   6.620
 4106TIP3    H112259   6.748   4.438   6.556
 4106TIP3    H212260   6.734   4.291   6.588
 4107TIP3   OH212261   4.010   0.970   6.118
 4107TIP3    H112262   4.009   1.048   6.063
 4107TIP3    H212263   3.918   0.951   6.134
 4108TIP3   OH212264   0.880   1.532   3.761
 4108TIP3    H112265   0.874   1.436   3.763
 4108TIP3    H212266   0.790   1.562   3.772
 4109TIP3   OH212267   3.851   1.963   3.022
 4109TIP3    H112268   3.763   1.955   2.984
 4109TIP3    H212269   3.845   1.917   3.106
 4110TIP3   OH212270   6.944   7.769   5.379
 4110TIP3    H112271   6.944   7.761   5.474
 4110TIP3    H212272   6.937   7.864   5.364
 4111TIP3   OH212273   5.083   3.929   5.508
 4111TIP3    H112274   5.111   4.019   5.526
 4111TIP3    H212275   5.134   3.902   5.432
 4112TIP3   OH212276   7.482   2.913   6.449
 4112TIP3    H112277   7.527   2.830   6.437
 4112TIP3    H212278   7.512   2.967   6.376
 4113TIP3   OH212279   1.744   4.392   6.357
 4113TIP3    H112280   1.729   4.417   6.266
 4113TIP3    H212281   1.834   4.360   6.358
 4114TIP3   OH212282   6.605   3.786   5.095
 4114TIP3    H112283   6.545   3.747   5.158
 4114TIP3    H212284   6.557   3.786   5.013
 4115TIP3   OH212285   5.797   3.539   5.781
 4115TIP3    H112286   5.725   3.590   5.816
 4115TIP3    H212287   5.797   3.559   5.687
 4116TIP3   OH212288   2.175   4.837   2.525
 4116TIP3    H112289   2.083   4.815   2.513
 4116TIP3    H212290   2.174   4.927   2.557
 4117TIP3   OH212291   2.469   6.736   6.348
 4117TIP3    H112292   2.534   6.784   6.400
 4117TIP3    H212293   2.473   6.647   6.382
 4118TIP3   OH212294   0.555   7.623   5.476
 4118TIP3    H112295   0.640   7.605   5.516
 4118TIP3    H212296   0.512   7.683   5.537
 4119TIP3   OH212297   5.856   7.928   4.227
 4119TIP3    H112298   5.810   7.852   4.192
 4119TIP3    H212299   5.788   7.994   4.239
 4120TIP3   OH212300   2.855   0.764   1.316
 4120TIP3    H112301   2.925   0.817   1.354
 4120TIP3    H212302   2.862   0.779   1.222
 4121TIP3   OH212303   6.137   7.159   2.661
 4121TIP3    H112304   6.157   7.126   2.748
 4121TIP3    H212305   6.056   7.115   2.636
 4122TIP3   OH212306   3.774   6.530   1.791
 4122TIP3    H112307   3.778   6.625   1.787
 4122TIP3    H212308   3.861   6.501   1.764
 4123TIP3   OH212309   1.696   5.752   5.146
 4123TIP3    H112310   1.717   5.824   5.087
 4123TIP3    H212311   1.614   5.778   5.188
 4124TIP3   OH212312   8.212   0.976   2.339
 4124TIP3    H112313   8.200   0.945   2.428
 4124TIP3    H212314   8.261   0.907   2.295
 4125TIP3   OH212315   5.734   0.608   0.093
 4125TIP3    H112316   5.727   0.703   0.102
 4125TIP3    H212317   5.670   0.573   0.155
 4126TIP3   OH212318   3.944   7.492   2.113
 4126TIP3    H112319   3.889   7.504   2.191
 4126TIP3    H212320   3.892   7.437   2.055
 4127TIP3   OH212321   0.641   0.371   5.663
 4127TIP3    H112322   0.607   0.459   5.676
 4127TIP3    H212323   0.572   0.313   5.696
 4128TIP3   OH212324   1.243   7.075   3.317
 4128TIP3    H112325   1.148   7.086   3.321
 4128TIP3    H212326   1.275   7.157   3.279
 4129TIP3   OH212327   3.909   3.962   1.691
 4129TIP3    H112328   3.910   4.058   1.692
 4129TIP3    H212329   4.001   3.938   1.680
 4130TIP3   OH212330   7.667   3.950   1.557
 4130TIP3    H112331   7.738   3.995   1.602
 4130TIP3    H212332   7.710   3.874   1.517
 4131TIP3   OH212333   6.525   3.032   5.293
 4131TIP3    H112334   6.467   2.956   5.282
 4131TIP3    H212335   6.489   3.079   5.368
 4132TIP3   OH212336   3.019   4.898   0.552
 4132TIP3    H112337   2.941   4.892   0.608
 4132TIP3    H212338   3.084   4.843   0.596
 4133TIP3   OH212339   6.616   0.088   1.249
 4133TIP3    H112340   6.531   0.045   1.239
 4133TIP3    H212341   6.595   0.176   1.280
 4134TIP3   OH212342   3.286   4.175   6.287
 4134TIP3    H112343   3.352   4.124   6.240
 4134TIP3    H212344   3.306   4.161   6.379
 4135TIP3   OH212345   3.691   1.323   0.614
 4135TIP3    H112346   3.642   1.347   0.693
 4135TIP3    H212347   3.762   1.387   0.609
 4136TIP3   OH212348   2.984   2.078   4.558
 4136TIP3    H112349   3.048   2.020   4.518
 4136TIP3    H212350   3.033   2.124   4.626
 4137TIP3   OH212351   7.560   3.957   4.955
 4137TIP3    H112352   7.495   3.912   4.900
 4137TIP3    H212353   7.643   3.913   4.936
 4138TIP3   OH212354   0.218   3.792   1.295
 4138TIP3    H112355   0.125   3.772   1.302
 4138TIP3    H212356   0.239   3.837   1.377
 4139TIP3   OH212357   5.829   3.064   1.211
 4139TIP3    H112358   5.837   2.977   1.250
 4139TIP3    H212359   5.889   3.062   1.136
 4140TIP3   OH212360   4.891   4.465   1.267
 4140TIP3    H112361   4.959   4.530   1.282
 4140TIP3    H212362   4.901   4.439   1.175
 4141TIP3   OH212363   4.292   1.454   2.131
 4141TIP3    H112364   4.303   1.437   2.225
 4141TIP3    H212365   4.253   1.375   2.096
 4142TIP3   OH212366   2.583   1.349   0.720
 4142TIP3    H112367   2.578   1.444   0.722
 4142TIP3    H212368   2.510   1.320   0.776
 4143TIP3   OH212369   7.051   0.333   0.704
 4143TIP3    H112370   7.142   0.357   0.722
 4143TIP3    H212371   7.056   0.278   0.626
 4144TIP3   OH212372   2.633   6.567   6.621
 4144TIP3    H112373   2.626   6.556   6.526
 4144TIP3    H212374   2.693   6.497   6.649
 4145TIP3   OH212375   3.866   3.484   2.338
 4145TIP3    H112376   3.949   3.436   2.341
 4145TIP3    H212377   3.877   3.547   2.267
 4146TIP3   OH212378   6.458   4.471   4.622
 4146TIP3    H112379   6.473   4.562   4.649
 4146TIP3    H212380   6.424   4.477   4.533
 4147TIP3   OH212381   8.042   4.974   1.778
 4147TIP3    H112382   7.952   4.960   1.805
 4147TIP3    H212383   8.038   4.988   1.684
 4148TIP3   OH212384   5.836   4.000   3.054
 4148TIP3    H112385   5.765   3.990   3.117
 4148TIP3    H212386   5.794   3.989   2.968
 4149TIP3   OH212387   1.463   6.429   2.848
 4149TIP3    H112388   1.552   6.465   2.845
 4149TIP3    H212389   1.422   6.476   2.921
 4150TIP3   OH212390   5.655   7.634   0.057
 4150TIP3    H112391   5.715   7.676  -0.004
 4150TIP3    H212392   5.708   7.618   0.135
 4151TIP3   OH212393   7.336   3.929   5.727
 4151TIP3    H112394   7.419   3.948   5.771
 4151TIP3    H212395   7.295   4.015   5.713
 4152TIP3   OH212396   8.032   0.484   3.679
 4152TIP3    H112397   8.065   0.565   3.718
 4152TIP3    H212398   8.011   0.508   3.589
 4153TIP3   OH212399   1.052   2.106   0.170
 4153TIP3    H112400   1.136   2.127   0.210
 4153TIP3    H212401   1.030   2.184   0.118
 4154TIP3   OH212402   5.214   5.679   4.404
 4154TIP3    H112403   5.157   5.683   4.480
 4154TIP3    H212404   5.155   5.681   4.329
 4155TIP3   OH212405   2.140   6.515   3.699
 4155TIP3    H112406   2.188   6.445   3.742
 4155TIP3    H212407   2.047   6.492   3.711
 4156TIP3   OH212408   0.670   4.044   2.998
 4156TIP3    H112409   0.587   4.075   2.962
 4156TIP3    H212410   0.648   4.013   3.086
 4157TIP3   OH212411   8.158   5.117   5.257
 4157TIP3    H112412   8.184   5.034   5.216
 4157TIP3    H212413   8.148   5.178   5.184
 4158TIP3   OH212414   5.768   0.900   4.218
 4158TIP3    H112415   5.673   0.894   4.216
 4158TIP3    H212416   5.787   0.953   4.295
 4159TIP3   OH212417   1.082   6.313   4.724
 4159TIP3    H112418   1.019   6.380   4.749
 4159TIP3    H212419   1.162   6.336   4.772
 4160TIP3   OH212420   2.676   0.167   2.099
 4160TIP3    H112421   2.710   0.171   2.010
 4160TIP3    H212422   2.629   0.249   2.110
 4161TIP3   OH212423   2.574   6.924   5.539
 4161TIP3    H112424   2.548   6.910   5.448
 4161TIP3    H212425   2.609   6.840   5.567
 4162TIP3   OH212426   4.133   2.255   1.637
 4162TIP3    H112427   4.218   2.295   1.658
 4162TIP3    H212428   4.114   2.200   1.712
 4163TIP3   OH212429   0.708   7.501   3.837
 4163TIP3    H112430   0.727   7.563   3.907
 4163TIP3    H212431   0.674   7.555   3.766
 4164TIP3   OH212432   1.677   3.924   6.778
 4164TIP3    H112433   1.582   3.909   6.774
 4164TIP3    H212434   1.714   3.836   6.789
 4165TIP3   OH212435   1.956   4.587   5.786
 4165TIP3    H112436   1.861   4.597   5.797
 4165TIP3    H212437   1.992   4.602   5.874
 4166TIP3   OH212438   4.903   6.700   0.815
 4166TIP3    H112439   4.911   6.625   0.756
 4166TIP3    H212440   4.922   6.665   0.902
 4167TIP3   OH212441   1.499   2.937   2.616
 4167TIP3    H112442   1.415   2.949   2.572
 4167TIP3    H212443   1.542   2.867   2.567
 4168TIP3   OH212444   6.831   4.116   0.229
 4168TIP3    H112445   6.795   4.077   0.149
 4168TIP3    H212446   6.757   4.157   0.272
 4169TIP3   OH212447   8.398   1.714   0.999
 4169TIP3    H112448   8.310   1.688   1.027
 4169TIP3    H212449   8.405   1.806   1.021
 4170TIP3   OH212450   5.336   7.085   0.381
 4170TIP3    H112451   5.415   7.138   0.370
 4170TIP3    H212452   5.265   7.148   0.384
 4171TIP3   OH212453   0.188   4.645   6.681
 4171TIP3    H112454   0.132   4.591   6.735
 4171TIP3    H212455   0.255   4.679   6.741
 4172TIP3   OH212456   2.029   6.080   5.280
 4172TIP3    H112457   1.963   6.111   5.218
 4172TIP3    H212458   2.078   6.158   5.305
 4173TIP3   OH212459   7.068   2.934   5.385
 4173TIP3    H112460   6.984   2.914   5.427
 4173TIP3    H212461   7.129   2.869   5.420
 4174TIP3   OH212462   1.308   6.030   5.568
 4174TIP3    H112463   1.303   6.110   5.517
 4174TIP3    H212464   1.402   6.018   5.585
 4175TIP3   OH212465   6.674   5.679   6.506
 4175TIP3    H112466   6.681   5.713   6.595
 4175TIP3    H212467   6.610   5.608   6.512
 4176TIP3   OH212468   4.734   3.735   0.530
 4176TIP3    H112469   4.677   3.750   0.606
 4176TIP3    H212470   4.789   3.813   0.527
 4177TIP3   OH212471   1.921   4.624   3.519
 4177TIP3    H112472   1.994   4.596   3.464
 4177TIP3    H212473   1.962   4.667   3.594
 4178TIP3   OH212474   0.896   6.566  -0.025
 4178TIP3    H112475   0.923   6.652   0.006
 4178TIP3    H212476   0.862   6.522   0.054
 4179TIP3   OH212477   3.837   0.371   3.823
 4179TIP3    H112478   3.823   0.457   3.782
 4179TIP3    H212479   3.827   0.308   3.752
 4180TIP3   OH212480   7.559   1.438   2.800
 4180TIP3    H112481   7.631   1.382   2.832
 4180TIP3    H212482   7.491   1.428   2.866
 4181TIP3   OH212483   4.661   3.299   4.869
 4181TIP3    H112484   4.731   3.245   4.905
 4181TIP3    H212485   4.678   3.386   4.905
 4182TIP3   OH212486   0.939   5.397   6.171
 4182TIP3    H112487   0.858   5.417   6.219
 4182TIP3    H212488   1.004   5.380   6.238
 4183TIP3   OH212489   0.254   1.873   3.140
 4183TIP3    H112490   0.169   1.909   3.113
 4183TIP3    H212491   0.288   1.937   3.204
 4184TIP3   OH212492   2.470   3.189   3.805
 4184TIP3    H112493   2.469   3.105   3.759
 4184TIP3    H212494   2.445   3.167   3.895
 4185TIP3   OH212495   6.943   6.099   2.358
 4185TIP3    H112496   6.948   6.008   2.327
 4185TIP3    H212497   6.880   6.140   2.300
 4186TIP3   OH212498   2.470   4.181   1.079
 4186TIP3    H112499   2.433   4.102   1.118
 4186TIP3    H212500   2.464   4.166   0.984
 4187TIP3   OH212501   5.903   1.483   6.702
 4187TIP3    H112502   5.918   1.578   6.693
 4187TIP3    H212503   5.812   1.471   6.675
 4188TIP3   OH212504   7.055   5.800   2.401
 4188TIP3    H112505   7.059   5.802   2.306
 4188TIP3    H212506   7.069   5.708   2.424
 4189TIP3   OH212507   4.240   1.303   6.443
 4189TIP3    H112508   4.325   1.343   6.459
 4189TIP3    H212509   4.237   1.228   6.503
 4190TIP3   OH212510   6.314   6.321   3.822
 4190TIP3    H112511   6.335   6.369   3.742
 4190TIP3    H212512   6.256   6.379   3.871
 4191TIP3   OH212513   2.066   6.272   1.055
 4191TIP3    H112514   1.982   6.257   1.098
 4191TIP3    H212515   2.048   6.338   0.989
 4192TIP3   OH212516   3.654   5.907   6.460
 4192TIP3    H112517   3.716   5.854   6.411
 4192TIP3    H212518   3.681   5.898   6.552
 4193TIP3   OH212519   8.151   4.782   4.605
 4193TIP3    H112520   8.118   4.866   4.635
 4193TIP3    H212521   8.157   4.791   4.510
 4194TIP3   OH212522   7.595   4.988   0.528
 4194TIP3    H112523   7.688   4.972   0.507
 4194TIP3    H212524   7.548   4.928   0.470
 4195TIP3   OH212525   6.599   6.492   3.568
 4195TIP3    H112526   6.504   6.491   3.573
 4195TIP3    H212527   6.628   6.474   3.658
 4196TIP3   OH212528   1.816   4.162   3.495
 4196TIP3    H112529   1.812   4.112   3.576
 4196TIP3    H212530   1.908   4.187   3.486
 4197TIP3   OH212531   7.797   4.250   1.417
 4197TIP3    H112532   7.883   4.260   1.376
 4197TIP3    H212533   7.791   4.323   1.478
 4198TIP3   OH212534   4.498   5.160   2.942
 4198TIP3    H112535   4.511   5.090   3.006
 4198TIP3    H212536   4.420   5.206   2.973
 4199TIP3   OH212537   6.336   3.792   4.488
 4199TIP3    H112538   6.355   3.759   4.576
 4199TIP3    H212539   6.406   3.756   4.434
 4200TIP3   OH212540   3.465   7.647   3.553
 4200TIP3    H112541   3.381   7.648   3.507
 4200TIP3    H212542   3.529   7.666   3.485
 4201TIP3   OH212543   1.065   4.823   4.153
 4201TIP3    H112544   1.074   4.731   4.125
 4201TIP3    H212545   1.082   4.874   4.074
 4202TIP3   OH212546   2.774   0.592   1.881
 4202TIP3    H112547   2.716   0.554   1.814
 4202TIP3    H212548   2.816   0.516   1.921
 4203TIP3   OH212549   4.161   3.630   1.658
 4203TIP3    H112550   4.104   3.553   1.645
 4203TIP3    H212551   4.246   3.593   1.682
 4204TIP3   OH212552   2.265   4.768   1.485
 4204TIP3    H112553   2.240   4.705   1.417
 4204TIP3    H212554   2.182   4.800   1.520
 4205TIP3   OH212555   7.773   0.592   1.646
 4205TIP3    H112556   7.727   0.604   1.563
 4205TIP3    H212557   7.751   0.503   1.674
 4206TIP3   OH212558   2.502   5.369   4.008
 4206TIP3    H112559   2.488   5.295   4.066
 4206TIP3    H212560   2.559   5.335   3.939
 4207TIP3   OH212561   4.719   6.767   3.886
 4207TIP3    H112562   4.804   6.810   3.873
 4207TIP3    H212563   4.655   6.835   3.868
 4208TIP3   OH212564   1.400   4.637   2.293
 4208TIP3    H112565   1.485   4.680   2.292
 4208TIP3    H212566   1.416   4.554   2.339
 4209TIP3   OH212567   2.860   5.900   1.242
 4209TIP3    H112568   2.856   5.838   1.314
 4209TIP3    H212569   2.953   5.913   1.226
 4210TIP3   OH212570   7.987   5.354   4.648
 4210TIP3    H112571   7.921   5.295   4.613
 4210TIP3    H212572   8.046   5.371   4.575
 4211TIP3   OH212573   5.338   4.457   0.041
 4211TIP3    H112574   5.396   4.518  -0.005
 4211TIP3    H212575   5.265   4.512   0.071
 4212TIP3   OH212576   3.695   3.974   2.148
 4212TIP3    H112577   3.614   3.973   2.096
 4212TIP3    H212578   3.679   3.912   2.219
 4213TIP3   OH212579   2.477   0.969   5.062
 4213TIP3    H112580   2.479   1.051   5.111
 4213TIP3    H212581   2.545   0.980   4.996
 4214TIP3   OH212582   1.231   2.302   4.715
 4214TIP3    H112583   1.147   2.267   4.686
 4214TIP3    H212584   1.213   2.394   4.738
 4215TIP3   OH212585   1.004   6.999   6.032
 4215TIP3    H112586   1.025   7.090   6.012
 4215TIP3    H212587   1.023   6.990   6.125
 4216TIP3   OH212588   0.215   2.320   3.118
 4216TIP3    H112589   0.229   2.304   3.024
 4216TIP3    H212590   0.301   2.307   3.158
 4217TIP3   OH212591   4.739   7.653   0.563
 4217TIP3    H112592   4.667   7.666   0.623
 4217TIP3    H212593   4.780   7.739   0.554
 4218TIP3   OH212594   4.674   6.503   4.857
 4218TIP3    H112595   4.596   6.490   4.912
 4218TIP3    H212596   4.733   6.555   4.911
 4219TIP3   OH212597   8.139   2.577   3.961
 4219TIP3    H112598   8.078   2.648   3.941
 4219TIP3    H212599   8.103   2.501   3.914
 4220TIP3   OH212600   4.620   6.415   6.017
 4220TIP3    H112601   4.622   6.320   6.011
 4220TIP3    H212602   4.527   6.437   6.016
 4221TIP3   OH212603   3.612   7.559   6.249
 4221TIP3    H112604   3.688   7.501   6.257
 4221TIP3    H212605   3.621   7.599   6.163
 4222TIP3   OH212606   4.729   6.328   0.850
 4222TIP3    H112607   4.638   6.355   0.861
 4222TIP3    H212608   4.734   6.294   0.761
 4223TIP3   OH212609   2.651   6.500   6.343
 4223TIP3    H112610   2.734   6.532   6.307
 4223TIP3    H212611   2.646   6.409   6.314
 4224TIP3   OH212612   2.386   7.713   1.839
 4224TIP3    H112613   2.452   7.769   1.879
 4224TIP3    H212614   2.377   7.640   1.901
 4225TIP3   OH212615   0.826   0.794   0.044
 4225TIP3    H112616   0.876   0.769   0.122
 4225TIP3    H212617   0.863   0.877   0.017
 4226TIP3   OH212618   5.912   6.375   1.218
 4226TIP3    H112619   5.874   6.450   1.173
 4226TIP3    H212620   6.007   6.390   1.215
 4227TIP3   OH212621   3.821   6.251   0.254
 4227TIP3    H112622   3.886   6.205   0.307
 4227TIP3    H212623   3.873   6.303   0.192
 4228TIP3   OH212624   1.989   0.302   0.169
 4228TIP3    H112625   1.897   0.319   0.193
 4228TIP3    H212626   2.037   0.377   0.204
 4229TIP3   OH212627   0.124   0.899   2.809
 4229TIP3    H112628   0.138   0.991   2.831
 4229TIP3    H212629   0.078   0.863   2.884
 4230TIP3   OH212630   2.353   6.485   2.558
 4230TIP3    H112631   2.359   6.403   2.510
 4230TIP3    H212632   2.259   6.495   2.575
 4231TIP3   OH212633   3.337   4.623   5.258
 4231TIP3    H112634   3.245   4.598   5.270
 4231TIP3    H212635   3.376   4.550   5.210
 4232TIP3   OH212636   4.421   3.972   6.412
 4232TIP3    H112637   4.382   3.893   6.376
 4232TIP3    H212638   4.351   4.013   6.462
 4233TIP3   OH212639   7.609   3.449   2.295
 4233TIP3    H112640   7.587   3.363   2.260
 4233TIP3    H212641   7.596   3.441   2.389
 4234TIP3   OH212642   1.280   2.617   1.705
 4234TIP3    H112643   1.190   2.590   1.724
 4234TIP3    H212644   1.281   2.632   1.611
 4235TIP3   OH212645   7.901   4.936   3.430
 4235TIP3    H112646   7.912   5.013   3.374
 4235TIP3    H212647   7.884   4.973   3.517
 4236TIP3   OH212648   4.550   2.510   0.925
 4236TIP3    H112649   4.474   2.544   0.973
 4236TIP3    H212650   4.599   2.589   0.900
 4237TIP3   OH212651   8.311   3.781   2.553
 4237TIP3    H112652   8.236   3.722   2.558
 4237TIP3    H212653   8.353   3.773   2.638
 4238TIP3   OH212654   7.557   1.309   3.412
 4238TIP3    H112655   7.571   1.228   3.461
 4238TIP3    H212656   7.614   1.301   3.336
 4239TIP3   OH212657   4.682   0.202   6.392
 4239TIP3    H112658   4.595   0.163   6.382
 4239TIP3    H212659   4.738   0.151   6.334
 4240TIP3   OH212660   0.645   5.979   0.725
 4240TIP3    H112661   0.572   5.940   0.676
 4240TIP3    H212662   0.713   5.911   0.725
 4241TIP3   OH212663   4.917   6.228   4.536
 4241TIP3    H112664   4.875   6.193   4.615
 4241TIP3    H212665   4.974   6.157   4.506
 4242TIP3   OH212666   4.977   7.842   2.758
 4242TIP3    H112667   5.005   7.768   2.812
 4242TIP3    H212668   4.970   7.915   2.820
 4243TIP3   OH212669   2.416   1.215   4.875
 4243TIP3    H112670   2.411   1.196   4.969
 4243TIP3    H212671   2.342   1.167   4.837
 4244TIP3   OH212672   0.211   0.804   0.397
 4244TIP3    H112673   0.244   0.889   0.370
 4244TIP3    H212674   0.188   0.815   0.490
 4245TIP3   OH212675   7.032   1.039   6.082
 4245TIP3    H112676   7.068   1.102   6.144
 4245TIP3    H212677   6.984   1.092   6.018
 4246TIP3   OH212678   6.238   6.594   0.460
 4246TIP3    H112679   6.183   6.516   0.473
 4246TIP3    H212680   6.327   6.563   0.477
 4247TIP3   OH212681   5.994   4.835   6.222
 4247TIP3    H112682   5.918   4.808   6.171
 4247TIP3    H212683   6.069   4.802   6.172
 4248TIP3   OH212684   1.553   5.094   6.386
 4248TIP3    H112685   1.528   5.030   6.452
 4248TIP3    H212686   1.603   5.044   6.322
 4249TIP3   OH212687   1.562   2.055   1.627
 4249TIP3    H112688   1.497   2.125   1.636
 4249TIP3    H212689   1.636   2.083   1.681
 4250TIP3   OH212690   6.824   7.842   5.953
 4250TIP3    H112691   6.789   7.807   5.871
 4250TIP3    H212692   6.838   7.765   6.007
 4251TIP3   OH212693   2.888   7.235   6.566
 4251TIP3    H112694   2.947   7.276   6.503
 4251TIP3    H212695   2.913   7.142   6.564
 4252TIP3   OH212696   5.370   3.992   3.847
 4252TIP3    H112697   5.422   4.073   3.840
 4252TIP3    H212698   5.387   3.945   3.765
 4253TIP3   OH212699   2.757   4.676   3.288
 4253TIP3    H112700   2.799   4.621   3.354
 4253TIP3    H212701   2.784   4.765   3.310
 4254TIP3   OH212702   6.798   2.664   2.938
 4254TIP3    H112703   6.822   2.603   3.008
 4254TIP3    H212704   6.882   2.700   2.907
 4255TIP3   OH212705   1.724   7.305   0.308
 4255TIP3    H112706   1.670   7.347   0.374
 4255TIP3    H212707   1.747   7.376   0.247
 4256TIP3   OH212708   3.650   4.212   5.566
 4256TIP3    H112709   3.727   4.264   5.589
 4256TIP3    H212710   3.594   4.273   5.517
 4257TIP3   OH212711   4.187   3.891   0.632
 4257TIP3    H112712   4.189   3.801   0.598
 4257TIP3    H212713   4.210   3.944   0.556
 4258TIP3   OH212714   3.791   0.093   2.295
 4258TIP3    H112715   3.796   0.112   2.389
 4258TIP3    H212716   3.850   0.019   2.283
 4259TIP3   OH212717   5.608   4.955   0.741
 4259TIP3    H112718   5.585   4.921   0.827
 4259TIP3    H212719   5.667   5.029   0.759
 4260TIP3   OH212720   7.302   2.294   0.269
 4260TIP3    H112721   7.235   2.227   0.254
 4260TIP3    H212722   7.283   2.328   0.356
 4261TIP3   OH212723   0.780   0.290   2.587
 4261TIP3    H112724   0.849   0.353   2.608
 4261TIP3    H212725   0.791   0.271   2.494
 4262TIP3   OH212726   5.134   1.431   5.613
 4262TIP3    H112727   5.081   1.460   5.539
 4262TIP3    H212728   5.192   1.365   5.577
 4263TIP3   OH212729   3.894   6.261   1.643
 4263TIP3    H112730   3.923   6.267   1.552
 4263TIP3    H212731   3.963   6.307   1.693
 4264TIP3   OH212732   1.624   4.009   4.168
 4264TIP3    H112733   1.562   4.081   4.179
 4264TIP3    H212734   1.627   3.965   4.253
 4265TIP3   OH212735   8.298   2.666   0.431
 4265TIP3    H112736   8.255   2.706   0.355
 4265TIP3    H212737   8.267   2.718   0.505
 4266TIP3   OH212738   2.769   5.892   6.358
 4266TIP3    H112739   2.857   5.928   6.349
 4266TIP3    H212740   2.783   5.798   6.373
 4267TIP3   OH212741   6.675   4.008   5.838
 4267TIP3    H112742   6.674   3.933   5.778
 4267TIP3    H212743   6.712   3.973   5.919
 4268TIP3   OH212744   6.042   6.747   0.715
 4268TIP3    H112745   6.082   6.817   0.663
 4268TIP3    H212746   6.067   6.666   0.669
 4269TIP3   OH212747   6.519   6.996   2.048
 4269TIP3    H112748   6.539   7.048   2.125
 4269TIP3    H212749   6.474   7.056   1.989
 4270TIP3   OH212750   7.783   0.340   1.863
 4270TIP3    H112751   7.813   0.431   1.872
 4270TIP3    H212752   7.862   0.288   1.875
 4271TIP3   OH212753   5.065   5.701   0.693
 4271TIP3    H112754   5.124   5.639   0.735
 4271TIP3    H212755   5.092   5.702   0.601
 4272TIP3   OH212756   1.960   4.244   3.172
 4272TIP3    H112757   1.998   4.237   3.260
 4272TIP3    H212758   2.005   4.318   3.132
 4273TIP3   OH212759   8.016   7.757   3.131
 4273TIP3    H112760   8.102   7.730   3.165
 4273TIP3    H212761   8.037   7.801   3.048
 4274TIP3   OH212762   0.737   6.064   1.756
 4274TIP3    H112763   0.746   5.970   1.745
 4274TIP3    H212764   0.809   6.088   1.814
 4275TIP3   OH212765   4.120   1.886   0.000
 4275TIP3    H112766   4.135   1.927   0.086
 4275TIP3    H212767   4.031   1.852   0.006
 4276TIP3   OH212768   4.817   6.535   1.606
 4276TIP3    H112769   4.882   6.599   1.635
 4276TIP3    H212770   4.868   6.466   1.562
 4277TIP3   OH212771   5.313   3.553   3.308
 4277TIP3    H112772   5.326   3.622   3.374
 4277TIP3    H212773   5.221   3.529   3.317
 4278TIP3   OH212774   5.780   5.540   1.411
 4278TIP3    H112775   5.711   5.544   1.344
 4278TIP3    H212776   5.860   5.526   1.361
 4279TIP3   OH212777   0.269   5.738   3.234
 4279TIP3    H112778   0.265   5.696   3.147
 4279TIP3    H212779   0.290   5.666   3.294
 4280TIP3   OH212780   0.665   7.080   3.628
 4280TIP3    H112781   0.597   7.017   3.604
 4280TIP3    H212782   0.632   7.164   3.595
 4281TIP3   OH212783   6.367   1.057   0.653
 4281TIP3    H112784   6.350   0.964   0.666
 4281TIP3    H212785   6.462   1.064   0.649
 4282TIP3   OH212786   4.754   5.174   5.787
 4282TIP3    H112787   4.729   5.262   5.761
 4282TIP3    H212788   4.771   5.128   5.704
 4283TIP3   OH212789   4.577   5.723   3.440
 4283TIP3    H112790   4.501   5.764   3.481
 4283TIP3    H212791   4.596   5.777   3.364
 4284TIP3   OH212792   3.276   0.438   6.483
 4284TIP3    H112793   3.216   0.474   6.417
 4284TIP3    H212794   3.318   0.364   6.439
 4285TIP3   OH212795   5.256   7.294   5.255
 4285TIP3    H112796   5.267   7.222   5.316
 4285TIP3    H212797   5.259   7.373   5.310
 4286TIP3   OH212798   7.043   6.386   1.449
 4286TIP3    H112799   7.049   6.291   1.441
 4286TIP3    H212800   7.114   6.409   1.509
 4287TIP3   OH212801   4.578   7.094   4.304
 4287TIP3    H112802   4.671   7.116   4.300
 4287TIP3    H212803   4.553   7.078   4.213
 4288TIP3   OH212804   6.341   3.492   4.881
 4288TIP3    H112805   6.300   3.520   4.964
 4288TIP3    H212806   6.418   3.443   4.909
 4289TIP3   OH212807   4.944   1.104   3.637
 4289TIP3    H112808   4.943   1.022   3.685
 4289TIP3    H212809   4.994   1.164   3.692
 4290TIP3   OH212810   1.408   0.913   6.796
 4290TIP3    H112811   1.475   0.965   6.749
 4290TIP3    H212812   1.458   0.845   6.841
 4291TIP3   OH212813   2.370   5.193   6.394
 4291TIP3    H112814   2.450   5.243   6.382
 4291TIP3    H212815   2.300   5.253   6.366
 4292TIP3   OH212816   0.686   5.577   4.334
 4292TIP3    H112817   0.650   5.579   4.245
 4292TIP3    H212818   0.682   5.485   4.360
 4293TIP3   OH212819   5.019   0.034   6.579
 4293TIP3    H112820   5.036  -0.014   6.498
 4293TIP3    H212821   5.050   0.123   6.562
 4294TIP3   OH212822   3.312   6.011   3.390
 4294TIP3    H112823   3.297   6.063   3.469
 4294TIP3    H212824   3.233   6.022   3.338
 4295TIP3   OH212825   4.662   6.796   3.599
 4295TIP3    H112826   4.708   6.712   3.588
 4295TIP3    H212827   4.629   6.792   3.689
 4296TIP3   OH212828   5.038   1.213   0.099
 4296TIP3    H112829   5.082   1.234   0.017
 4296TIP3    H212830   5.066   1.282   0.160
 4297TIP3   OH212831   4.528   3.038   5.880
 4297TIP3    H112832   4.527   2.987   5.961
 4297TIP3    H212833   4.581   2.986   5.820
 4298TIP3   OH212834   7.016   5.584   1.071
 4298TIP3    H112835   7.083   5.642   1.034
 4298TIP3    H212836   7.020   5.505   1.017
 4299TIP3   OH212837   3.332   2.490   3.190
 4299TIP3    H112838   3.270   2.421   3.215
 4299TIP3    H212839   3.372   2.516   3.273
 4300TIP3   OH212840   3.463   5.708   4.679
 4300TIP3    H112841   3.478   5.760   4.600
 4300TIP3    H212842   3.372   5.680   4.672
 4301TIP3   OH212843   2.080   1.051   0.291
 4301TIP3    H112844   2.160   1.056   0.344
 4301TIP3    H212845   2.041   1.138   0.298
 4302TIP3   OH212846   5.776   7.848   0.743
 4302TIP3    H112847   5.828   7.771   0.718
 4302TIP3    H212848   5.685   7.819   0.737
 4303TIP3   OH212849   1.000   1.351   1.788
 4303TIP3    H112850   0.974   1.275   1.736
 4303TIP3    H212851   0.921   1.406   1.791
 4304TIP3   OH212852   4.931   3.106   4.726
 4304TIP3    H112853   4.888   3.131   4.645
 4304TIP3    H212854   5.018   3.074   4.699
 4305TIP3   OH212855   8.207   2.471   1.450
 4305TIP3    H112856   8.254   2.390   1.427
 4305TIP3    H212857   8.132   2.441   1.500
 4306TIP3   OH212858   5.714   7.691   6.423
 4306TIP3    H112859   5.789   7.663   6.371
 4306TIP3    H212860   5.645   7.628   6.402
 4307TIP3   OH212861   3.526   2.071   1.968
 4307TIP3    H112862   3.535   1.999   2.031
 4307TIP3    H212863   3.539   2.150   2.021
 4308TIP3   OH212864   0.637   0.784   1.959
 4308TIP3    H112865   0.657   0.872   1.927
 4308TIP3    H212866   0.567   0.797   2.023
 4309TIP3   OH212867   3.401   4.193   2.607
 4309TIP3    H112868   3.390   4.105   2.643
 4309TIP3    H212869   3.391   4.252   2.682
 4310TIP3   OH212870   7.354   6.306   2.597
 4310TIP3    H112871   7.359   6.210   2.597
 4310TIP3    H212872   7.356   6.329   2.690
 4311TIP3   OH212873   0.387   0.523   1.877
 4311TIP3    H112874   0.451   0.497   1.943
 4311TIP3    H212875   0.310   0.469   1.895
 4312TIP3   OH212876   6.446   5.501   6.484
 4312TIP3    H112877   6.376   5.487   6.421
 4312TIP3    H212878   6.501   5.423   6.477
 4313TIP3   OH212879   6.321   4.470   1.889
 4313TIP3    H112880   6.371   4.509   1.961
 4313TIP3    H212881   6.371   4.392   1.864
 4314TIP3   OH212882   7.273   6.975   6.707
 4314TIP3    H112883   7.235   6.926   6.780
 4314TIP3    H212884   7.285   7.064   6.741
 4315TIP3   OH212885   6.394   4.157   1.634
 4315TIP3    H112886   6.309   4.150   1.678
 4315TIP3    H212887   6.450   4.203   1.697
 4316TIP3   OH212888   3.862   3.119   1.465
 4316TIP3    H112889   3.910   3.050   1.511
 4316TIP3    H212890   3.916   3.197   1.476
 4317TIP3   OH212891   2.579   0.252   3.934
 4317TIP3    H112892   2.520   0.304   3.988
 4317TIP3    H212893   2.656   0.237   3.989
 4318TIP3   OH212894   3.080   5.523   6.855
 4318TIP3    H112895   3.124   5.520   6.770
 4318TIP3    H212896   3.011   5.588   6.843
 4319TIP3   OH212897   3.838   6.814   0.445
 4319TIP3    H112898   3.801   6.896   0.477
 4319TIP3    H212899   3.813   6.750   0.512
 4320TIP3   OH212900   8.289   2.165   2.029
 4320TIP3    H112901   8.364   2.117   1.997
 4320TIP3    H212902   8.312   2.257   2.018
 4321TIP3   OH212903   0.712   7.497   5.872
 4321TIP3    H112904   0.805   7.520   5.878
 4321TIP3    H212905   0.684   7.488   5.963
 4322TIP3   OH212906   6.384   1.844   6.334
 4322TIP3    H112907   6.450   1.910   6.312
 4322TIP3    H212908   6.342   1.877   6.414
 4323TIP3   OH212909   1.865   1.406   6.327
 4323TIP3    H112910   1.933   1.426   6.392
 4323TIP3    H212911   1.861   1.485   6.272
 4324TIP3   OH212912   3.054   4.188   3.551
 4324TIP3    H112913   3.038   4.256   3.616
 4324TIP3    H212914   3.083   4.112   3.602
 4325TIP3   OH212915   4.479   3.453   2.776
 4325TIP3    H112916   4.454   3.545   2.764
 4325TIP3    H212917   4.536   3.454   2.852
 4326TIP3   OH212918   5.260   5.848   4.033
 4326TIP3    H112919   5.261   5.827   4.126
 4326TIP3    H212920   5.215   5.775   3.992
 4327TIP3   OH212921   3.207   6.340   2.489
 4327TIP3    H112922   3.206   6.423   2.442
 4327TIP3    H212923   3.244   6.278   2.427
 4328TIP3   OH212924   1.806  -0.059   0.369
 4328TIP3    H112925   1.789  -0.042   0.277
 4328TIP3    H212926   1.899  -0.039   0.380
 4329TIP3   OH212927   5.423   2.971   6.633
 4329TIP3    H112928   5.507   2.999   6.597
 4329TIP3    H212929   5.447   2.918   6.709
 4330TIP3   OH212930   4.078   3.636   1.171
 4330TIP3    H112931   4.170   3.613   1.180
 4330TIP3    H212932   4.031   3.574   1.227
 4331TIP3   OH212933   1.077   5.133   4.723
 4331TIP3    H112934   1.145   5.174   4.777
 4331TIP3    H212935   1.085   5.040   4.742
 4332TIP3   OH212936   2.084   6.907   0.097
 4332TIP3    H112937   2.041   6.855   0.165
 4332TIP3    H212938   2.022   6.904   0.023
 4333TIP3   OH212939   8.099   1.189   1.235
 4333TIP3    H112940   8.149   1.125   1.285
 4333TIP3    H212941   8.015   1.196   1.280
 4334TIP3   OH212942   3.168   2.611   5.012
 4334TIP3    H112943   3.138   2.553   5.082
 4334TIP3    H212944   3.263   2.605   5.015
 4335TIP3   OH212945   2.746   1.762   5.765
 4335TIP3    H112946   2.713   1.707   5.836
 4335TIP3    H212947   2.732   1.710   5.685
 4336TIP3   OH212948   7.312   1.815   3.155
 4336TIP3    H112949   7.288   1.881   3.221
 4336TIP3    H212950   7.404   1.832   3.136
 4337TIP3   OH212951   3.608   7.737   3.341
 4337TIP3    H112952   3.679   7.742   3.405
 4337TIP3    H212953   3.625   7.657   3.292
 4338TIP3   OH212954   5.408   0.358   5.629
 4338TIP3    H112955   5.431   0.451   5.628
 4338TIP3    H212956   5.312   0.358   5.621
 4339TIP3   OH212957   5.692   0.480   1.756
 4339TIP3    H112958   5.604   0.443   1.745
 4339TIP3    H212959   5.692   0.513   1.846
 4340TIP3   OH212960   0.829   0.425   5.301
 4340TIP3    H112961   0.734   0.418   5.287
 4340TIP3    H212962   0.867   0.376   5.228
 4341TIP3   OH212963   5.678   0.607   5.326
 4341TIP3    H112964   5.583   0.607   5.332
 4341TIP3    H212965   5.696   0.603   5.232
 4342TIP3   OH212966   1.621   2.091   2.854
 4342TIP3    H112967   1.550   2.143   2.891
 4342TIP3    H212968   1.615   2.007   2.899
 4343TIP3   OH212969   6.252   2.147   0.828
 4343TIP3    H112970   6.319   2.215   0.818
 4343TIP3    H212971   6.282   2.095   0.903
 4344TIP3   OH212972   3.365   5.427   1.952
 4344TIP3    H112973   3.403   5.404   1.867
 4344TIP3    H212974   3.410   5.370   2.014
 4345TIP3   OH212975   6.344   6.798   2.144
 4345TIP3    H112976   6.412   6.859   2.116
 4345TIP3    H212977   6.281   6.852   2.191
 4346TIP3   OH212978   6.300   0.730   3.243
 4346TIP3    H112979   6.205   0.740   3.235
 4346TIP3    H212980   6.324   0.784   3.318
 4347TIP3   OH212981   6.112   6.174   5.478
 4347TIP3    H112982   6.107   6.238   5.407
 4347TIP3    H212983   6.076   6.093   5.440
 4348TIP3   OH212984   8.178   6.255   1.075
 4348TIP3    H112985   8.174   6.180   1.135
 4348TIP3    H212986   8.263   6.295   1.092
 4349TIP3   OH212987   8.422   0.748   3.021
 4349TIP3    H112988   8.456   0.753   3.110
 4349TIP3    H212989   8.330   0.771   3.028
 4350TIP3   OH212990   5.146   3.587   4.336
 4350TIP3    H112991   5.219   3.645   4.317
 4350TIP3    H212992   5.166   3.506   4.290
 4351TIP3   OH212993   1.360   5.423   2.210
 4351TIP3    H112994   1.298   5.352   2.230
 4351TIP3    H212995   1.354   5.481   2.286
 4352TIP3   OH212996   2.153   2.489   2.706
 4352TIP3    H112997   2.093   2.435   2.654
 4352TIP3    H212998   2.113   2.492   2.793
 4353TIP3   OH212999   1.985   0.784   3.897
 4353TIP3    H113000   1.988   0.720   3.826
 4353TIP3    H213001   1.985   0.731   3.977
 4354TIP3   OH213002   2.399   2.918   0.549
 4354TIP3    H113003   2.369   2.988   0.607
 4354TIP3    H213004   2.322   2.895   0.497
 4355TIP3   OH213005   1.898   0.897   1.996
 4355TIP3    H113006   1.983   0.907   2.039
 4355TIP3    H213007   1.908   0.942   1.912
 4356TIP3   OH213008   2.216   5.517   1.803
 4356TIP3    H113009   2.207   5.533   1.897
 4356TIP3    H213010   2.139   5.466   1.779
 4357TIP3   OH213011   0.322   2.260   0.538
 4357TIP3    H113012   0.278   2.273   0.622
 4357TIP3    H213013   0.278   2.184   0.499
 4358TIP3   OH213014   2.051   3.828   2.093
 4358TIP3    H113015   1.956   3.841   2.100
 4358TIP3    H213016   2.068   3.832   1.999
 4359TIP3   OH213017   5.599   6.954   4.336
 4359TIP3    H113018   5.517   6.970   4.288
 4359TIP3    H213019   5.643   6.885   4.286
 4360TIP3   OH213020   4.494   4.981   5.781
 4360TIP3    H113021   4.477   5.011   5.692
 4360TIP3    H213022   4.509   5.062   5.831
 4361TIP3   OH213023   0.642   0.397   4.881
 4361TIP3    H113024   0.560   0.413   4.834
 4361TIP3    H213025   0.691   0.337   4.825
 4362TIP3   OH213026   6.170   2.525   3.004
 4362TIP3    H113027   6.122   2.577   2.940
 4362TIP3    H213028   6.124   2.441   3.007
 4363TIP3   OH213029   2.160   3.574   3.049
 4363TIP3    H113030   2.070   3.604   3.036
 4363TIP3    H213031   2.190   3.621   3.126
 4364TIP3   OH213032   4.859   1.780   3.971
 4364TIP3    H113033   4.949   1.798   3.943
 4364TIP3    H213034   4.805   1.830   3.910
 4365TIP3   OH213035   1.135   4.904   0.045
 4365TIP3    H113036   1.226   4.928   0.059
 4365TIP3    H213037   1.085   4.971   0.092
 4366TIP3   OH213038   5.230   4.564   4.464
 4366TIP3    H113039   5.170   4.610   4.524
 4366TIP3    H213040   5.231   4.618   4.385
 4367TIP3   OH213041   0.951   5.944   2.324
 4367TIP3    H113042   1.002   6.018   2.292
 4367TIP3    H213043   1.007   5.904   2.390
 4368TIP3   OH213044   5.345   0.941   3.795
 4368TIP3    H113045   5.440   0.937   3.787
 4368TIP3    H213046   5.317   0.849   3.800
 4369TIP3   OH213047   7.418   4.563   4.857
 4369TIP3    H113048   7.502   4.584   4.898
 4369TIP3    H213049   7.355   4.619   4.902
 4370TIP3   OH213050   3.888   3.655   0.331
 4370TIP3    H113051   3.875   3.742   0.367
 4370TIP3    H213052   3.805   3.609   0.346
 4371TIP3   OH213053   6.383   2.204   1.601
 4371TIP3    H113054   6.300   2.215   1.648
 4371TIP3    H213055   6.408   2.293   1.576
 4372TIP3   OH213056   2.420   2.557   1.691
 4372TIP3    H113057   2.388   2.635   1.736
 4372TIP3    H213058   2.344   2.500   1.685
 4373TIP3   OH213059   0.891   1.695   1.207
 4373TIP3    H113060   0.937   1.759   1.260
 4373TIP3    H213061   0.891   1.615   1.259
 4374TIP3   OH213062   6.157   5.015   1.364
 4374TIP3    H113063   6.158   5.010   1.460
 4374TIP3    H213064   6.096   5.087   1.345
 4375TIP3   OH213065   7.935   2.113   6.854
 4375TIP3    H113066   7.999   2.102   6.784
 4375TIP3    H213067   7.853   2.080   6.817
 4376TIP3   OH213068   3.021   3.647   5.905
 4376TIP3    H113069   3.049   3.722   5.853
 4376TIP3    H213070   3.064   3.659   5.990
 4377TIP3   OH213071   1.465   2.127   2.408
 4377TIP3    H113072   1.478   2.067   2.335
 4377TIP3    H213073   1.454   2.071   2.485
 4378TIP3   OH213074   3.652   5.296   5.246
 4378TIP3    H113075   3.575   5.261   5.200
 4378TIP3    H213076   3.726   5.272   5.190
 4379TIP3   OH213077   2.504   4.405   5.873
 4379TIP3    H113078   2.499   4.465   5.947
 4379TIP3    H213079   2.592   4.367   5.879
 4380TIP3   OH213080   4.004   6.635   2.202
 4380TIP3    H113081   4.035   6.567   2.143
 4380TIP3    H213082   3.970   6.703   2.145
 4381TIP3   OH213083   3.758   2.351   6.176
 4381TIP3    H113084   3.767   2.257   6.193
 4381TIP3    H213085   3.695   2.381   6.241
 4382TIP3   OH213086   4.417   1.939   1.720
 4382TIP3    H113087   4.418   2.024   1.677
 4382TIP3    H213088   4.448   1.956   1.809
 4383TIP3   OH213089   4.209   2.063   3.991
 4383TIP3    H113090   4.128   2.114   3.999
 4383TIP3    H213091   4.202   1.997   4.061
 4384TIP3   OH213092   4.115   1.307   5.237
 4384TIP3    H113093   4.139   1.391   5.275
 4384TIP3    H213094   4.147   1.309   5.148
 4385TIP3   OH213095   7.483   6.703   4.556
 4385TIP3    H113096   7.492   6.654   4.638
 4385TIP3    H213097   7.472   6.794   4.584
 4386TIP3   OH213098   5.183   3.958   4.775
 4386TIP3    H113099   5.129   3.927   4.702
 4386TIP3    H213100   5.130   3.940   4.853
 4387TIP3   OH213101   8.393   2.202   0.339
 4387TIP3    H113102   8.307   2.160   0.344
 4387TIP3    H213103   8.388   2.274   0.403
 4388TIP3   OH213104   2.559   0.467   1.708
 4388TIP3    H113105   2.580   0.399   1.644
 4388TIP3    H213106   2.477   0.439   1.747
 4389TIP3   OH213107   5.958   3.770   6.492
 4389TIP3    H113108   5.888   3.778   6.556
 4389TIP3    H213109   6.035   3.807   6.536
 4390TIP3   OH213110   6.787   6.154   5.954
 4390TIP3    H113111   6.711   6.102   5.982
 4390TIP3    H213112   6.839   6.093   5.901
 4391TIP3   OH213113   5.356   0.557   0.045
 4391TIP3    H113114   5.324   0.468   0.062
 4391TIP3    H213115   5.403   0.551  -0.038
 4392TIP3   OH213116   8.365   2.421   2.034
 4392TIP3    H113117   8.296   2.470   1.990
 4392TIP3    H213118   8.380   2.467   2.117
 4393TIP3   OH213119   5.475   5.591   0.490
 4393TIP3    H113120   5.547   5.621   0.434
 4393TIP3    H213121   5.407   5.657   0.479
 4394TIP3   OH213122   6.122   0.173   6.609
 4394TIP3    H113123   6.156   0.235   6.673
 4394TIP3    H213124   6.179   0.097   6.616
 4395TIP3   OH213125   5.183   1.459   0.155
 4395TIP3    H113126   5.131   1.526   0.200
 4395TIP3    H213127   5.213   1.502   0.075
 4396TIP3   OH213128   3.604   7.014   2.951
 4396TIP3    H113129   3.617   7.056   3.036
 4396TIP3    H213130   3.660   7.064   2.891
 4397TIP3   OH213131   3.955   1.131   0.000
 4397TIP3    H113132   4.000   1.208   0.036
 4397TIP3    H213133   3.937   1.076   0.076
 4398TIP3   OH213134   1.132   1.660   5.802
 4398TIP3    H113135   1.189   1.618   5.739
 4398TIP3    H213136   1.144   1.754   5.788
 4399TIP3   OH213137  -0.004   7.779   0.684
 4399TIP3    H113138   0.018   7.761   0.775
 4399TIP3    H213139  -0.055   7.861   0.688
 4400TIP3   OH213140   4.581   7.509   3.276
 4400TIP3    H113141   4.525   7.585   3.295
 4400TIP3    H213142   4.622   7.488   3.359
 4401TIP3   OH213143   3.666   3.749   3.603
 4401TIP3    H113144   3.734   3.723   3.542
 4401TIP3    H213145   3.713   3.787   3.677
 4402TIP3   OH213146   4.427   4.824   2.118
 4402TIP3    H113147   4.441   4.896   2.179
 4402TIP3    H213148   4.448   4.860   2.032
 4403TIP3   OH213149   2.775   7.359   5.168
 4403TIP3    H113150   2.705   7.320   5.116
 4403TIP3    H213151   2.817   7.286   5.212
 4404TIP3   OH213152   6.171   2.908   3.506
 4404TIP3    H113153   6.176   2.914   3.602
 4404TIP3    H213154   6.191   2.997   3.476
 4405TIP3   OH213155   6.653   3.249   2.402
 4405TIP3    H113156   6.668   3.285   2.489
 4405TIP3    H213157   6.677   3.320   2.342
 4406TIP3   OH213158   2.684   7.591   2.860
 4406TIP3    H113159   2.617   7.552   2.803
 4406TIP3    H213160   2.708   7.673   2.816
 4407TIP3   OH213161   0.344   5.021   2.482
 4407TIP3    H113162   0.366   4.938   2.525
 4407TIP3    H213163   0.249   5.020   2.476
 4408TIP3   OH213164   6.907   2.177   5.017
 4408TIP3    H113165   6.967   2.106   4.995
 4408TIP3    H213166   6.831   2.164   4.959
 4409TIP3   OH213167   0.735   4.919   1.621
 4409TIP3    H113168   0.738   4.824   1.608
 4409TIP3    H213169   0.706   4.954   1.537
 4410TIP3   OH213170   7.844   4.866   4.026
 4410TIP3    H113171   7.824   4.960   4.022
 4410TIP3    H213172   7.933   4.862   4.060
 4411TIP3   OH213173   1.986   3.709   0.655
 4411TIP3    H113174   1.937   3.789   0.672
 4411TIP3    H213175   2.001   3.671   0.741
 4412TIP3   OH213176   2.427   4.604   4.564
 4412TIP3    H113177   2.379   4.556   4.631
 4412TIP3    H213178   2.431   4.694   4.597
 4413TIP3   OH213179   6.108   7.232   0.471
 4413TIP3    H113180   6.194   7.234   0.429
 4413TIP3    H213181   6.112   7.300   0.538
 4414TIP3   OH213182   2.722   6.400   2.787
 4414TIP3    H113183   2.680   6.321   2.753
 4414TIP3    H213184   2.779   6.428   2.715
 4415TIP3   OH213185   8.431   2.401   2.639
 4415TIP3    H113186   8.412   2.455   2.715
 4415TIP3    H213187   8.358   2.338   2.635
 4416TIP3   OH213188   6.838   5.190   3.376
 4416TIP3    H113189   6.881   5.264   3.420
 4416TIP3    H213190   6.900   5.118   3.384
 4417TIP3   OH213191   2.951   6.473   3.325
 4417TIP3    H113192   2.865   6.457   3.287
 4417TIP3    H213193   2.937   6.543   3.389
 4418TIP3   OH213194   3.542   4.231   0.398
 4418TIP3    H113195   3.567   4.141   0.421
 4418TIP3    H213196   3.447   4.230   0.396
 4419TIP3   OH213197   6.845   6.471   0.311
 4419TIP3    H113198   6.882   6.494   0.225
 4419TIP3    H213199   6.921   6.451   0.365
 4420TIP3   OH213200   2.457   0.306   1.088
 4420TIP3    H113201   2.400   0.271   1.156
 4420TIP3    H213202   2.524   0.239   1.075
 4421TIP3   OH213203   1.039   7.813   6.703
 4421TIP3    H113204   0.951   7.776   6.710
 4421TIP3    H213205   1.057   7.816   6.609
 4422TIP3   OH213206   6.052   2.511   0.145
 4422TIP3    H113207   6.089   2.461   0.217
 4422TIP3    H213208   6.004   2.447   0.093
 4423TIP3   OH213209   5.985   1.962   3.852
 4423TIP3    H113210   5.968   2.002   3.767
 4423TIP3    H213211   5.898   1.940   3.886
 4424TIP3   OH213212   5.982   2.710   1.736
 4424TIP3    H113213   6.048   2.647   1.764
 4424TIP3    H213214   5.915   2.707   1.805
 4425TIP3   OH213215   7.412   4.666   2.489
 4425TIP3    H113216   7.498   4.630   2.510
 4425TIP3    H213217   7.422   4.698   2.399
 4426TIP3   OH213218   5.117   4.451   5.111
 4426TIP3    H113219   5.056   4.385   5.144
 4426TIP3    H213220   5.082   4.534   5.143
 4427TIP3   OH213221   0.220   0.719   0.841
 4427TIP3    H113222   0.135   0.701   0.882
 4427TIP3    H213223   0.200   0.778   0.769
 4428TIP3   OH213224   3.101   3.967   3.697
 4428TIP3    H113225   3.092   3.874   3.677
 4428TIP3    H213226   3.142   3.969   3.784
 4429TIP3   OH213227   4.147   0.908   1.042
 4429TIP3    H113228   4.155   0.813   1.034
 4429TIP3    H213229   4.125   0.937   0.953
 4430TIP3   OH213230   0.250   6.515   6.495
 4430TIP3    H113231   0.194   6.557   6.430
 4430TIP3    H213232   0.217   6.425   6.500
 4431TIP3   OH213233   4.472   1.050   2.850
 4431TIP3    H113234   4.443   1.025   2.938
 4431TIP3    H213235   4.436   1.138   2.838
 4432TIP3   OH213236   0.724   3.355   5.214
 4432TIP3    H113237   0.684   3.315   5.291
 4432TIP3    H213238   0.744   3.281   5.157
 4433TIP3   OH213239   1.142   5.838   2.744
 4433TIP3    H113240   1.159   5.893   2.667
 4433TIP3    H213241   1.125   5.900   2.814
 4434TIP3   OH213242   0.733   7.172   2.749
 4434TIP3    H113243   0.806   7.195   2.691
 4434TIP3    H213244   0.722   7.249   2.805
 4435TIP3   OH213245   6.532   6.822   0.696
 4435TIP3    H113246   6.530   6.866   0.611
 4435TIP3    H213247   6.625   6.808   0.714
 4436TIP3   OH213248   2.850   5.142   4.690
 4436TIP3    H113249   2.891   5.228   4.681
 4436TIP3    H213250   2.800   5.131   4.609
 4437TIP3   OH213251   3.027   0.985   5.552
 4437TIP3    H113252   2.997   0.899   5.522
 4437TIP3    H213253   2.947   1.033   5.571
 4438TIP3   OH213254   7.332   5.688   2.407
 4438TIP3    H113255   7.420   5.682   2.445
 4438TIP3    H213256   7.278   5.635   2.466
 4439TIP3   OH213257   3.235   2.296   5.425
 4439TIP3    H113258   3.262   2.212   5.463
 4439TIP3    H213259   3.316   2.346   5.418
 4440TIP3   OH213260   0.556   3.601   5.415
 4440TIP3    H113261   0.595   3.641   5.493
 4440TIP3    H213262   0.470   3.641   5.408
 4441TIP3   OH213263   5.171   1.706   5.041
 4441TIP3    H113264   5.109   1.769   5.005
 4441TIP3    H213265   5.188   1.645   4.969
 4442TIP3   OH213266   0.106   1.800   4.404
 4442TIP3    H113267   0.147   1.746   4.472
 4442TIP3    H213268   0.047   1.858   4.452
 4443TIP3   OH213269   2.701   7.535   4.561
 4443TIP3    H113270   2.722   7.537   4.467
 4443TIP3    H213271   2.688   7.442   4.581
 4444TIP3   OH213272   1.436   2.727   0.944
 4444TIP3    H113273   1.503   2.671   0.904
 4444TIP3    H213274   1.413   2.683   1.026
 4445TIP3   OH213275   4.114   6.320   5.072
 4445TIP3    H113276   4.156   6.234   5.072
 4445TIP3    H213277   4.185   6.382   5.087
 4446TIP3   OH213278   5.673   1.587   4.882
 4446TIP3    H113279   5.694   1.610   4.792
 4446TIP3    H213280   5.588   1.628   4.898
 4447TIP3   OH213281   4.306   6.986   3.323
 4447TIP3    H113282   4.252   6.911   3.347
 4447TIP3    H213283   4.276   7.010   3.235
 4448TIP3   OH213284   2.476   1.475   4.693
 4448TIP3    H113285   2.544   1.420   4.732
 4448TIP3    H213286   2.473   1.552   4.750
 4449TIP3   OH213287   5.129   4.081   0.582
 4449TIP3    H113288   5.052   4.066   0.527
 4449TIP3    H213289   5.132   4.005   0.640
 4450TIP3   OH213290   5.503   5.477   4.208
 4450TIP3    H113291   5.593   5.488   4.178
 4450TIP3    H213292   5.475   5.394   4.170
 4451TIP3   OH213293   5.699   6.205   3.761
 4451TIP3    H113294   5.778   6.237   3.805
 4451TIP3    H213295   5.627   6.232   3.818
 4452TIP3   OH213296   6.136   6.310   4.911
 4452TIP3    H113297   6.070   6.322   4.978
 4452TIP3    H213298   6.153   6.215   4.911
 4453TIP3   OH213299   5.677   4.023   0.558
 4453TIP3    H113300   5.595   4.009   0.606
 4453TIP3    H213301   5.707   4.109   0.587
 4454TIP3   OH213302   3.905   4.434   2.861
 4454TIP3    H113303   3.891   4.447   2.767
 4454TIP3    H213304   3.870   4.348   2.880
 4455TIP3   OH213305   3.914   2.151   0.541
 4455TIP3    H113306   3.874   2.177   0.624
 4455TIP3    H213307   3.988   2.096   0.565
 4456TIP3   OH213308   1.716   1.586   3.046
 4456TIP3    H113309   1.669   1.667   3.063
 4456TIP3    H213310   1.704   1.570   2.953
 4457TIP3   OH213311   7.755   6.959   0.051
 4457TIP3    H113312   7.720   6.928  -0.033
 4457TIP3    H213313   7.698   7.032   0.075
 4458TIP3   OH213314   3.300   3.536   0.903
 4458TIP3    H113315   3.327   3.477   0.832
 4458TIP3    H213316   3.333   3.621   0.876
 4459TIP3   OH213317   5.728   0.860   4.565
 4459TIP3    H113318   5.652   0.899   4.608
 4459TIP3    H213319   5.767   0.933   4.516
 4460TIP3   OH213320   4.680   0.405   4.679
 4460TIP3    H113321   4.606   0.467   4.680
 4460TIP3    H213322   4.643   0.324   4.644
 4461TIP3   OH213323   4.058   3.882   4.219
 4461TIP3    H113324   4.092   3.889   4.308
 4461TIP3    H213325   4.059   3.788   4.200
 4462TIP3   OH213326   1.224   3.875   5.737
 4462TIP3    H113327   1.187   3.790   5.762
 4462TIP3    H213328   1.201   3.934   5.809
 4463TIP3   OH213329   7.144   3.863   6.417
 4463TIP3    H113330   7.105   3.775   6.415
 4463TIP3    H213331   7.101   3.907   6.490
 4464TIP3   OH213332   0.593   7.382   2.566
 4464TIP3    H113333   0.562   7.380   2.475
 4464TIP3    H213334   0.568   7.297   2.601
 4465TIP3   OH213335   7.521   5.126   2.708
 4465TIP3    H113336   7.553   5.183   2.638
 4465TIP3    H213337   7.471   5.183   2.765
 4466TIP3   OH213338   4.475   6.489   1.915
 4466TIP3    H113339   4.504   6.549   1.984
 4466TIP3    H213340   4.437   6.415   1.963
 4467TIP3   OH213341   3.839   1.299   1.069
 4467TIP3    H113342   3.792   1.245   1.006
 4467TIP3    H213343   3.896   1.238   1.116
 4468TIP3   OH213344   6.370   7.482   0.930
 4468TIP3    H113345   6.318   7.559   0.903
 4468TIP3    H213346   6.319   7.407   0.900
 4469TIP3   OH213347   7.631   1.362   4.884
 4469TIP3    H113348   7.663   1.302   4.951
 4469TIP3    H213349   7.700   1.427   4.874
 4470TIP3   OH213350   3.226   0.358   1.150
 4470TIP3    H113351   3.172   0.413   1.095
 4470TIP3    H213352   3.267   0.418   1.212
 4471TIP3   OH213353   7.122   6.474   3.674
 4471TIP3    H113354   7.117   6.535   3.600
 4471TIP3    H213355   7.083   6.522   3.747
 4472TIP3   OH213356   2.216   6.961   0.364
 4472TIP3    H113357   2.171   6.957   0.280
 4472TIP3    H213358   2.299   7.006   0.344
 4473TIP3   OH213359   0.410   7.514   3.408
 4473TIP3    H113360   0.469   7.525   3.333
 4473TIP3    H213361   0.325   7.543   3.375
 4474TIP3   OH213362   0.038   2.205   2.323
 4474TIP3    H113363  -0.058   2.210   2.317
 4474TIP3    H213364   0.062   2.134   2.263
 4475TIP3   OH213365   8.008   2.818   3.991
 4475TIP3    H113366   7.932   2.804   4.048
 4475TIP3    H213367   8.017   2.913   3.986
 4476TIP3   OH213368   1.745   1.403   4.330
 4476TIP3    H113369   1.672   1.343   4.342
 4476TIP3    H213370   1.784   1.378   4.246
 4477TIP3   OH213371   6.920   0.260   1.859
 4477TIP3    H113372   6.857   0.258   1.932
 4477TIP3    H213373   6.952   0.351   1.858
 4478TIP3   OH213374   6.901   4.529   6.459
 4478TIP3    H113375   6.868   4.486   6.381
 4478TIP3    H213376   6.993   4.548   6.439
 4479TIP3   OH213377   5.397   7.117   6.819
 4479TIP3    H113378   5.341   7.056   6.868
 4479TIP3    H213379   5.378   7.203   6.857
 4480TIP3   OH213380   0.970   1.741   0.947
 4480TIP3    H113381   1.061   1.729   0.974
 4480TIP3    H213382   0.919   1.694   1.012
 4481TIP3   OH213383   1.796   6.199   3.932
 4481TIP3    H113384   1.845   6.203   4.014
 4481TIP3    H213385   1.705   6.188   3.959
 4482TIP3   OH213386   7.597   5.498   4.660
 4482TIP3    H113387   7.599   5.528   4.569
 4482TIP3    H213388   7.688   5.505   4.689
 4483TIP3   OH213389   5.349   5.514   3.395
 4483TIP3    H113390   5.421   5.576   3.402
 4483TIP3    H213391   5.324   5.516   3.303
 4484TIP3   OH213392   2.938   2.570   5.894
 4484TIP3    H113393   3.013   2.628   5.905
 4484TIP3    H213394   2.927   2.564   5.799
 4485TIP3   OH213395   3.360   0.927   6.544
 4485TIP3    H113396   3.428   0.944   6.479
 4485TIP3    H213397   3.365   0.832   6.559
 4486TIP3   OH213398   3.663   6.982   0.596
 4486TIP3    H113399   3.603   6.910   0.580
 4486TIP3    H213400   3.607   7.059   0.605
 4487TIP3   OH213401   6.612   1.370   4.235
 4487TIP3    H113402   6.592   1.364   4.328
 4487TIP3    H213403   6.674   1.298   4.218
 4488TIP3   OH213404   5.280   7.547   3.948
 4488TIP3    H113405   5.193   7.584   3.958
 4488TIP3    H213406   5.273   7.459   3.984
 4489TIP3   OH213407   5.104   1.054   3.919
 4489TIP3    H113408   5.190   1.022   3.891
 4489TIP3    H213409   5.096   1.141   3.881
 4490TIP3   OH213410   4.527   5.040   3.884
 4490TIP3    H113411   4.533   4.945   3.875
 4490TIP3    H213412   4.586   5.074   3.816
 4491TIP3   OH213413   2.752   3.162   0.470
 4491TIP3    H113414   2.726   3.101   0.538
 4491TIP3    H213415   2.836   3.129   0.437
 4492TIP3   OH213416   6.987   3.347   6.033
 4492TIP3    H113417   6.923   3.416   6.013
 4492TIP3    H213418   6.955   3.270   5.986
 4493TIP3   OH213419   5.661   2.586   4.503
 4493TIP3    H113420   5.747   2.617   4.473
 4493TIP3    H213421   5.599   2.632   4.447
 4494TIP3   OH213422   4.599   5.513   6.306
 4494TIP3    H113423   4.526   5.557   6.263
 4494TIP3    H213424   4.600   5.550   6.394
 4495TIP3   OH213425   7.174   3.151   4.230
 4495TIP3    H113426   7.179   3.057   4.212
 4495TIP3    H213427   7.143   3.157   4.320
 4496TIP3   OH213428   6.348   4.844   0.778
 4496TIP3    H113429   6.438   4.838   0.748
 4496TIP3    H213430   6.341   4.930   0.820
 4497TIP3   OH213431   2.599   4.458   2.795
 4497TIP3    H113432   2.662   4.469   2.724
 4497TIP3    H213433   2.631   4.514   2.865
 4498TIP3   OH213434   1.339   2.045   5.526
 4498TIP3    H113435   1.428   2.032   5.494
 4498TIP3    H213436   1.339   2.134   5.561
 4499TIP3   OH213437   3.863   3.574   0.765
 4499TIP3    H113438   3.920   3.579   0.688
 4499TIP3    H213439   3.870   3.661   0.806
 4500TIP3   OH213440   6.754   4.558   3.767
 4500TIP3    H113441   6.783   4.610   3.691
 4500TIP3    H213442   6.828   4.561   3.827
 4501TIP3   OH213443   0.466   6.005   1.957
 4501TIP3    H113444   0.506   5.921   1.981
 4501TIP3    H213445   0.458   6.001   1.862
 4502TIP3   OH213446   2.730   7.156   0.531
 4502TIP3    H113447   2.702   7.177   0.442
 4502TIP3    H213448   2.822   7.131   0.523
 4503TIP3   OH213449   4.411   0.855   4.962
 4503TIP3    H113450   4.399   0.869   4.868
 4503TIP3    H213451   4.335   0.896   5.003
 4504TIP3   OH213452   5.434   5.057   4.443
 4504TIP3    H113453   5.419   5.151   4.448
 4504TIP3    H213454   5.392   5.022   4.522
 4505TIP3   OH213455   6.764   7.618   2.253
 4505TIP3    H113456   6.673   7.635   2.278
 4505TIP3    H213457   6.782   7.531   2.287
 4506TIP3   OH213458   0.614   5.340   4.987
 4506TIP3    H113459   0.586   5.259   5.030
 4506TIP3    H213460   0.620   5.404   5.057
 4507TIP3   OH213461   2.833   1.454   1.955
 4507TIP3    H113462   2.831   1.497   1.870
 4507TIP3    H213463   2.745   1.466   1.990
 4508TIP3   OH213464   3.811   2.121   2.147
 4508TIP3    H113465   3.892   2.114   2.096
 4508TIP3    H213466   3.834   2.178   2.220
 4509TIP3   OH213467   6.088   0.882   5.240
 4509TIP3    H113468   6.053   0.944   5.176
 4509TIP3    H213469   6.153   0.931   5.289
 4510TIP3   OH213470   8.205   7.034   2.313
 4510TIP3    H113471   8.215   7.032   2.217
 4510TIP3    H213472   8.122   6.989   2.329
 4511TIP3   OH213473   6.043   3.261   2.277
 4511TIP3    H113474   6.016   3.223   2.361
 4511TIP3    H213475   6.057   3.354   2.297
 4512TIP3   OH213476   0.704   1.387   4.270
 4512TIP3    H113477   0.656   1.464   4.300
 4512TIP3    H213478   0.746   1.415   4.189
 4513TIP3   OH213479   1.228   3.783   3.962
 4513TIP3    H113480   1.148   3.735   3.983
 4513TIP3    H213481   1.202   3.846   3.896
 4514TIP3   OH213482   3.152   7.263   2.642
 4514TIP3    H113483   3.143   7.288   2.734
 4514TIP3    H213484   3.062   7.265   2.608
 4515TIP3   OH213485   7.813   1.921   0.402
 4515TIP3    H113486   7.870   1.890   0.331
 4515TIP3    H213487   7.794   2.012   0.379
 4516TIP3   OH213488   0.676   6.882   0.912
 4516TIP3    H113489   0.609   6.905   0.977
 4516TIP3    H213490   0.632   6.820   0.854
 4517TIP3   OH213491   3.398   7.352   2.545
 4517TIP3    H113492   3.331   7.287   2.567
 4517TIP3    H213493   3.459   7.349   2.618
 4518TIP3   OH213494   2.833   6.096   3.032
 4518TIP3    H113495   2.853   6.182   2.996
 4518TIP3    H213496   2.779   6.114   3.109
 4519TIP3   OH213497   6.927   5.191   2.593
 4519TIP3    H113498   6.965   5.125   2.536
 4519TIP3    H213499   6.836   5.164   2.606
 4520TIP3   OH213500   4.514   6.392   3.676
 4520TIP3    H113501   4.502   6.470   3.731
 4520TIP3    H213502   4.427   6.353   3.670
 4521TIP3   OH213503   0.339   7.430   5.534
 4521TIP3    H113504   0.406   7.498   5.536
 4521TIP3    H213505   0.363   7.374   5.460
 4522TIP3   OH213506   1.334   0.653   3.880
 4522TIP3    H113507   1.299   0.596   3.948
 4522TIP3    H213508   1.401   0.602   3.837
 4523TIP3   OH213509   2.573   2.684   1.125
 4523TIP3    H113510   2.516   2.694   1.049
 4523TIP3    H213511   2.638   2.618   1.097
 4524TIP3   OH213512   5.970   0.596   4.350
 4524TIP3    H113513   5.989   0.688   4.331
 4524TIP3    H213514   6.055   0.559   4.373
 4525TIP3   OH213515   1.261   4.660   4.350
 4525TIP3    H113516   1.271   4.755   4.342
 4525TIP3    H213517   1.170   4.648   4.377
 4526TIP3   OH213518   5.447   3.058   1.224
 4526TIP3    H113519   5.496   3.102   1.294
 4526TIP3    H213520   5.435   3.125   1.157
 4527TIP3   OH213521   2.665   2.918   0.585
 4527TIP3    H113522   2.578   2.887   0.561
 4527TIP3    H213523   2.689   2.865   0.661
 4528TIP3   OH213524   2.691   6.917   5.107
 4528TIP3    H113525   2.658   6.873   5.185
 4528TIP3    H213526   2.614   6.935   5.054
 4529TIP3   OH213527   2.415   1.888   1.482
 4529TIP3    H113528   2.342   1.849   1.530
 4529TIP3    H213529   2.406   1.855   1.393
 4530TIP3   OH213530   5.494   3.467   5.087
 4530TIP3    H113531   5.446   3.385   5.082
 4530TIP3    H213532   5.444   3.528   5.033
 4531TIP3   OH213533   7.089   4.696   5.608
 4531TIP3    H113534   7.166   4.644   5.629
 4531TIP3    H213535   7.057   4.726   5.693
 4532TIP3   OH213536   1.631   5.009   1.228
 4532TIP3    H113537   1.613   5.093   1.271
 4532TIP3    H213538   1.715   4.981   1.265
 4533TIP3   OH213539   4.843   2.822   2.894
 4533TIP3    H113540   4.810   2.800   2.806
 4533TIP3    H213541   4.938   2.827   2.883
 4534TIP3   OH213542   4.418   1.896   1.426
 4534TIP3    H113543   4.423   1.891   1.522
 4534TIP3    H213544   4.486   1.958   1.401
 4535TIP3   OH213545   6.282   5.589   5.048
 4535TIP3    H113546   6.346   5.519   5.066
 4535TIP3    H213547   6.330   5.670   5.066
 4536TIP3   OH213548   3.704   4.561   1.163
 4536TIP3    H113549   3.751   4.477   1.160
 4536TIP3    H213550   3.630   4.544   1.221
 4537TIP3   OH213551   1.756   0.442   4.195
 4537TIP3    H113552   1.746   0.378   4.124
 4537TIP3    H213553   1.705   0.405   4.267
 4538TIP3   OH213554   2.567   5.725   5.194
 4538TIP3    H113555   2.485   5.676   5.204
 4538TIP3    H213556   2.634   5.666   5.227
 4539TIP3   OH213557   6.294   5.323   3.939
 4539TIP3    H113558   6.211   5.359   3.970
 4539TIP3    H213559   6.357   5.345   4.007
 4540TIP3   OH213560   7.603   2.599   6.752
 4540TIP3    H113561   7.651   2.516   6.746
 4540TIP3    H213562   7.517   2.575   6.787
 4541TIP3   OH213563   5.470   6.324   2.932
 4541TIP3    H113564   5.563   6.346   2.931
 4541TIP3    H213565   5.437   6.363   3.012
 4542TIP3   OH213566   7.985   5.385   0.461
 4542TIP3    H113567   8.059   5.367   0.520
 4542TIP3    H213568   7.914   5.332   0.495
 4543TIP3   OH213569   4.820   0.738   0.941
 4543TIP3    H113570   4.820   0.815   0.885
 4543TIP3    H213571   4.911   0.728   0.968
 4544TIP3   OH213572   5.175   7.621   3.314
 4544TIP3    H113573   5.219   7.539   3.291
 4544TIP3    H213574   5.086   7.595   3.337
 4545TIP3   OH213575   7.491   2.455   4.375
 4545TIP3    H113576   7.478   2.462   4.469
 4545TIP3    H213577   7.403   2.469   4.338
 4546TIP3   OH213578   4.523   7.604   6.544
 4546TIP3    H113579   4.496   7.569   6.628
 4546TIP3    H213580   4.592   7.544   6.514
 4547TIP3   OH213581   7.566   4.000   3.951
 4547TIP3    H113582   7.516   3.918   3.953
 4547TIP3    H213583   7.594   4.008   3.860
 4548TIP3   OH213584   5.755   1.987   5.791
 4548TIP3    H113585   5.811   1.911   5.779
 4548TIP3    H213586   5.812   2.054   5.828
 4549TIP3   OH213587   4.550   5.563   1.020
 4549TIP3    H113588   4.599   5.488   0.985
 4549TIP3    H213589   4.558   5.554   1.115
 4550TIP3   OH213590   4.834   0.105   4.010
 4550TIP3    H113591   4.859   0.093   3.919
 4550TIP3    H213592   4.758   0.164   4.007
 4551TIP3   OH213593   0.562   1.947   1.700
 4551TIP3    H113594   0.651   1.979   1.713
 4551TIP3    H213595   0.507   2.005   1.754
 4552TIP3   OH213596   7.226   7.468   1.192
 4552TIP3    H113597   7.183   7.488   1.275
 4552TIP3    H213598   7.204   7.542   1.135
 4553TIP3   OH213599   1.498   3.520   3.346
 4553TIP3    H113600   1.514   3.428   3.327
 4553TIP3    H213601   1.412   3.522   3.388
 4554TIP3   OH213602   7.105   2.003   4.903
 4554TIP3    H113603   7.190   1.977   4.940
 4554TIP3    H213604   7.113   1.983   4.810
 4555TIP3   OH213605   1.587   5.008   5.163
 4555TIP3    H113606   1.622   4.988   5.250
 4555TIP3    H213607   1.663   5.000   5.105
 4556TIP3   OH213608   5.543   7.570   3.853
 4556TIP3    H113609   5.453   7.589   3.881
 4556TIP3    H213610   5.588   7.546   3.934
 4557TIP3   OH213611   7.587   4.260   3.375
 4557TIP3    H113612   7.647   4.242   3.448
 4557TIP3    H213613   7.638   4.240   3.297
 4558TIP3   OH213614   3.698   0.823   0.368
 4558TIP3    H113615   3.665   0.784   0.288
 4558TIP3    H213616   3.634   0.891   0.390
 4559TIP3   OH213617   6.738   4.854   4.920
 4559TIP3    H113618   6.757   4.830   5.010
 4559TIP3    H213619   6.707   4.773   4.879
 4560TIP3   OH213620   4.675   7.372   5.173
 4560TIP3    H113621   4.664   7.279   5.155
 4560TIP3    H213622   4.587   7.404   5.194
 4561TIP3   OH213623   2.672   2.314   0.154
 4561TIP3    H113624   2.633   2.280   0.074
 4561TIP3    H213625   2.602   2.362   0.197
 4562TIP3   OH213626   0.618   0.091   5.009
 4562TIP3    H113627   0.567   0.076   4.929
 4562TIP3    H213628   0.554   0.123   5.072
 4563TIP3   OH213629   0.468   2.328   4.068
 4563TIP3    H113630   0.475   2.359   3.978
 4563TIP3    H213631   0.432   2.239   4.061
 4564TIP3   OH213632   2.965   4.406   5.045
 4564TIP3    H113633   2.998   4.420   5.134
 4564TIP3    H213634   2.956   4.495   5.009
 4565TIP3   OH213635   2.917   1.593   6.501
 4565TIP3    H113636   2.866   1.513   6.491
 4565TIP3    H213637   2.883   1.633   6.581
 4566TIP3   OH213638   0.042   6.947   1.812
 4566TIP3    H113639   0.045   6.854   1.834
 4566TIP3    H213640   0.124   6.964   1.767
 4567TIP3   OH213641   7.903   0.982   0.988
 4567TIP3    H113642   7.814   1.017   0.990
 4567TIP3    H213643   7.958   1.055   1.014
 4568TIP3   OH213644   3.442   0.195   0.341
 4568TIP3    H113645   3.349   0.210   0.323
 4568TIP3    H213646   3.487   0.227   0.264
 4569TIP3   OH213647   6.120   2.445   3.635
 4569TIP3    H113648   6.091   2.493   3.557
 4569TIP3    H213649   6.159   2.512   3.691
 4570TIP3   OH213650   3.533   7.878   0.718
 4570TIP3    H113651   3.586   7.861   0.640
 4570TIP3    H213652   3.443   7.876   0.687
 4571TIP3   OH213653   0.474   4.239   6.185
 4571TIP3    H113654   0.460   4.324   6.226
 4571TIP3    H213655   0.386   4.204   6.171
 4572TIP3   OH213656   6.583   7.113   1.065
 4572TIP3    H113657   6.559   7.204   1.047
 4572TIP3    H213658   6.670   7.118   1.103
 4573TIP3   OH213659   7.781   1.082   5.577
 4573TIP3    H113660   7.711   1.131   5.622
 4573TIP3    H213661   7.850   1.076   5.642
 4574TIP3   OH213662   5.237   4.386   6.861
 4574TIP3    H113663   5.285   4.401   6.779
 4574TIP3    H213664   5.295   4.330   6.912
 4575TIP3   OH213665   2.299   2.925   5.846
 4575TIP3    H113666   2.299   2.954   5.755
 4575TIP3    H213667   2.239   2.986   5.890
 4576TIP3   OH213668   5.781   2.154   4.216
 4576TIP3    H113669   5.771   2.186   4.127
 4576TIP3    H213670   5.793   2.233   4.269
 4577TIP3   OH213671   2.290   5.846   3.169
 4577TIP3    H113672   2.339   5.923   3.142
 4577TIP3    H213673   2.273   5.860   3.263
 4578TIP3   OH213674   3.718   1.495   4.490
 4578TIP3    H113675   3.737   1.406   4.520
 4578TIP3    H213676   3.796   1.520   4.440
 4579TIP3   OH213677   6.690   4.347   4.082
 4579TIP3    H113678   6.751   4.366   4.153
 4579TIP3    H213679   6.638   4.426   4.073
 4580TIP3   OH213680   0.305   5.404   4.556
 4580TIP3    H113681   0.340   5.493   4.547
 4580TIP3    H213682   0.324   5.381   4.647
 4581TIP3   OH213683   7.729   1.236   2.908
 4581TIP3    H113684   7.683   1.230   2.992
 4581TIP3    H213685   7.820   1.216   2.928
 4582TIP3   OH213686   6.113   2.598   1.297
 4582TIP3    H113687   6.178   2.644   1.350
 4582TIP3    H213688   6.054   2.558   1.360
 4583TIP3   OH213689   1.428   0.237   1.298
 4583TIP3    H113690   1.390   0.316   1.336
 4583TIP3    H213691   1.511   0.266   1.259
 4584TIP3   OH213692   1.804   6.602   6.737
 4584TIP3    H113693   1.801   6.515   6.697
 4584TIP3    H213694   1.738   6.599   6.807
 4585TIP3   OH213695   0.523   3.776   1.135
 4585TIP3    H113696   0.509   3.717   1.061
 4585TIP3    H213697   0.616   3.768   1.155
 4586TIP3   OH213698   1.008   4.782   2.086
 4586TIP3    H113699   0.977   4.711   2.142
 4586TIP3    H213700   0.941   4.790   2.019
 4587TIP3   OH213701   8.348   7.009   6.620
 4587TIP3    H113702   8.426   6.965   6.653
 4587TIP3    H213703   8.378   7.054   6.541
 4588TIP3   OH213704   2.982   3.029   0.362
 4588TIP3    H113705   2.954   2.950   0.315
 4588TIP3    H213706   3.044   3.072   0.302
 4589TIP3   OH213707   3.485   3.531   5.965
 4589TIP3    H113708   3.562   3.548   6.020
 4589TIP3    H213709   3.489   3.437   5.946
 4590TIP3   OH213710   0.312   3.032   4.719
 4590TIP3    H113711   0.376   2.966   4.745
 4590TIP3    H213712   0.315   3.097   4.789
 4591TIP3   OH213713   4.790   1.903   3.160
 4591TIP3    H113714   4.704   1.927   3.124
 4591TIP3    H213715   4.847   1.976   3.136
 4592TIP3   OH213716   5.964   4.129   3.443
 4592TIP3    H113717   5.928   4.217   3.457
 4592TIP3    H213718   5.899   4.070   3.482
 4593TIP3   OH213719   2.911   1.866   0.309
 4593TIP3    H113720   2.957   1.948   0.326
 4593TIP3    H213721   2.824   1.892   0.282
 4594TIP3   OH213722   0.763   1.122   6.042
 4594TIP3    H113723   0.832   1.163   5.990
 4594TIP3    H213724   0.683   1.137   5.993
 4595TIP3   OH213725   3.269   7.031   1.381
 4595TIP3    H113726   3.200   7.032   1.315
 4595TIP3    H213727   3.223   7.023   1.464
 4596TIP3   OH213728   1.381   6.183   2.746
 4596TIP3    H113729   1.442   6.198   2.673
 4596TIP3    H213730   1.394   6.259   2.803
 4597TIP3   OH213731   8.198   7.808   4.403
 4597TIP3    H113732   8.225   7.895   4.434
 4597TIP3    H213733   8.280   7.762   4.387
 4598TIP3   OH213734   7.065   5.962   2.679
 4598TIP3    H113735   7.057   5.922   2.592
 4598TIP3    H213736   6.979   6.001   2.695
 4599TIP3   OH213737   6.715   2.370   3.522
 4599TIP3    H113738   6.786   2.315   3.488
 4599TIP3    H213739   6.663   2.311   3.577
 4600TIP3   OH213740   2.114   5.568   4.974
 4600TIP3    H113741   2.196   5.522   4.994
 4600TIP3    H213742   2.138   5.660   4.967
 4601TIP3   OH213743   4.229   4.066   6.172
 4601TIP3    H113744   4.229   3.970   6.173
 4601TIP3    H213745   4.319   4.090   6.193
 4602TIP3   OH213746   3.649   1.606   2.479
 4602TIP3    H113747   3.730   1.566   2.448
 4602TIP3    H213748   3.660   1.614   2.573
 4603TIP3   OH213749   1.943   7.156   3.502
 4603TIP3    H113750   1.956   7.138   3.409
 4603TIP3    H213751   1.862   7.207   3.505
 4604TIP3   OH213752   3.098   0.903   3.989
 4604TIP3    H113753   3.002   0.905   3.984
 4604TIP3    H213754   3.127   0.932   3.903
 4605TIP3   OH213755   4.681   2.199   5.097
 4605TIP3    H113756   4.699   2.279   5.047
 4605TIP3    H213757   4.756   2.191   5.157
 4606TIP3   OH213758   2.006   4.133   2.485
 4606TIP3    H113759   2.083   4.190   2.492
 4606TIP3    H213760   1.937   4.181   2.530
 4607TIP3   OH213761   2.010   5.567   5.777
 4607TIP3    H113762   2.014   5.618   5.696
 4607TIP3    H213763   1.920   5.535   5.782
 4608TIP3   OH213764   6.618   1.116   5.306
 4608TIP3    H113765   6.595   1.053   5.374
 4608TIP3    H213766   6.600   1.202   5.345
 4609TIP3   OH213767   2.964   2.185   4.997
 4609TIP3    H113768   3.039   2.139   5.035
 4609TIP3    H213769   2.909   2.208   5.071
 4610TIP3   OH213770   2.839   7.917   0.866
 4610TIP3    H113771   2.764   7.861   0.847
 4610TIP3    H213772   2.877   7.937   0.780
 4611TIP3   OH213773   0.561   1.631   2.048
 4611TIP3    H113774   0.498   1.559   2.056
 4611TIP3    H213775   0.527   1.685   1.977
 4612TIP3   OH213776   2.518   5.383   2.158
 4612TIP3    H113777   2.430   5.356   2.134
 4612TIP3    H213778   2.513   5.400   2.252
 4613TIP3   OH213779   2.910   1.620   6.146
 4613TIP3    H113780   2.923   1.704   6.102
 4613TIP3    H213781   2.854   1.641   6.221
 4614TIP3   OH213782   6.808   0.127   1.559
 4614TIP3    H113783   6.792   0.191   1.629
 4614TIP3    H213784   6.724   0.122   1.512
 4615TIP3   OH213785   3.566   3.579   1.027
 4615TIP3    H113786   3.598   3.600   0.940
 4615TIP3    H213787   3.477   3.547   1.013
 4616TIP3   OH213788   4.722   1.318   2.600
 4616TIP3    H113789   4.809   1.307   2.639
 4616TIP3    H213790   4.717   1.411   2.579
 4617TIP3   OH213791   5.909   5.060   0.020
 4617TIP3    H113792   5.936   5.120   0.089
 4617TIP3    H213793   5.991   5.030  -0.018
 4618TIP3   OH213794   1.939   4.896   4.165
 4618TIP3    H113795   1.860   4.906   4.112
 4618TIP3    H213796   1.963   4.804   4.155
 4619TIP3   OH213797   1.418   6.523   0.714
 4619TIP3    H113798   1.437   6.531   0.620
 4619TIP3    H213799   1.437   6.432   0.735
 4620TIP3   OH213800   7.296   3.144   1.603
 4620TIP3    H113801   7.348   3.172   1.528
 4620TIP3    H213802   7.360   3.124   1.671
 4621TIP3   OH213803   6.468   5.794   0.794
 4621TIP3    H113804   6.500   5.841   0.871
 4621TIP3    H213805   6.477   5.856   0.723
 4622TIP3   OH213806   3.061   7.030   1.564
 4622TIP3    H113807   3.036   7.111   1.519
 4622TIP3    H213808   3.009   7.030   1.644
 4623TIP3   OH213809   3.093   6.856   2.723
 4623TIP3    H113810   3.055   6.924   2.668
 4623TIP3    H213811   3.019   6.801   2.749
 4624TIP3   OH213812   5.114   0.524   5.568
 4624TIP3    H113813   5.193   0.575   5.554
 4624TIP3    H213814   5.042   0.582   5.543
 4625TIP3   OH213815   7.047   4.185   6.193
 4625TIP3    H113816   7.121   4.161   6.247
 4625TIP3    H213817   7.081   4.183   6.103
 4626TIP3   OH213818   2.458   7.819   3.421
 4626TIP3    H113819   2.385   7.784   3.371
 4626TIP3    H213820   2.429   7.907   3.446
 4627TIP3   OH213821   3.911   2.258   5.813
 4627TIP3    H113822   3.939   2.281   5.901
 4627TIP3    H213823   3.981   2.291   5.756
 4628TIP3   OH213824   2.057   3.361   4.797
 4628TIP3    H113825   2.028   3.330   4.710
 4628TIP3    H213826   2.142   3.319   4.810
 4629TIP3   OH213827   0.040   2.004   3.562
 4629TIP3    H113828   0.013   2.069   3.627
 4629TIP3    H213829   0.132   1.987   3.581
 4630TIP3   OH213830   5.861   2.635   3.864
 4630TIP3    H113831   5.793   2.575   3.834
 4630TIP3    H213832   5.889   2.680   3.784
 4631TIP3   OH213833   1.708   3.275   6.461
 4631TIP3    H113834   1.683   3.255   6.371
 4631TIP3    H213835   1.719   3.370   6.463
 4632TIP3   OH213836   1.781   5.095   0.297
 4632TIP3    H113837   1.719   5.032   0.333
 4632TIP3    H213838   1.842   5.113   0.368
 4633TIP3   OH213839   2.419   2.956   5.364
 4633TIP3    H113840   2.476   2.936   5.289
 4633TIP3    H213841   2.401   2.871   5.404
 4634TIP3   OH213842   3.171   4.826   2.074
 4634TIP3    H113843   3.166   4.741   2.119
 4634TIP3    H213844   3.151   4.806   1.983
 4635TIP3   OH213845   5.899   0.675   0.582
 4635TIP3    H113846   5.950   0.601   0.616
 4635TIP3    H213847   5.816   0.671   0.629
 4636TIP3   OH213848   6.124   7.348   5.785
 4636TIP3    H113849   6.103   7.369   5.694
 4636TIP3    H213850   6.101   7.256   5.794
 4637TIP3   OH213851   5.871   6.674   5.272
 4637TIP3    H113852   5.952   6.659   5.321
 4637TIP3    H213853   5.838   6.586   5.253
 4638TIP3   OH213854   0.792   0.230   6.001
 4638TIP3    H113855   0.761   0.217   5.912
 4638TIP3    H213856   0.848   0.308   5.996
 4639TIP3   OH213857   3.742   6.568   2.567
 4639TIP3    H113858   3.654   6.562   2.603
 4639TIP3    H213859   3.776   6.479   2.571
 4640TIP3   OH213860   0.810   4.240   5.453
 4640TIP3    H113861   0.862   4.181   5.508
 4640TIP3    H213862   0.771   4.301   5.515
 4641TIP3   OH213863   0.662   5.250   3.967
 4641TIP3    H113864   0.710   5.313   4.020
 4641TIP3    H213865   0.653   5.173   4.024
 4642TIP3   OH213866   8.049   0.645   5.044
 4642TIP3    H113867   8.074   0.710   5.110
 4642TIP3    H213868   8.063   0.561   5.088
 4643TIP3   OH213869   0.921   3.961   4.672
 4643TIP3    H113870   0.880   4.017   4.738
 4643TIP3    H213871   0.847   3.926   4.622
 4644TIP3   OH213872   6.135   2.018   6.817
 4644TIP3    H113873   6.100   1.968   6.891
 4644TIP3    H213874   6.118   2.110   6.840
 4645TIP3   OH213875   7.216   7.200   0.408
 4645TIP3    H113876   7.130   7.160   0.425
 4645TIP3    H213877   7.279   7.139   0.446
 4646TIP3   OH213878   6.614   6.285   4.613
 4646TIP3    H113879   6.705   6.314   4.606
 4646TIP3    H213880   6.563   6.366   4.610
 4647TIP3   OH213881   6.138   5.393   0.923
 4647TIP3    H113882   6.176   5.424   1.005
 4647TIP3    H213883   6.065   5.453   0.907
 4648TIP3   OH213884   2.918   1.902   5.271
 4648TIP3    H113885   2.938   1.817   5.230
 4648TIP3    H213886   3.002   1.933   5.304
 4649TIP3   OH213887   4.578   1.162   4.389
 4649TIP3    H113888   4.588   1.235   4.328
 4649TIP3    H213889   4.496   1.180   4.435
 4650TIP3   OH213890   0.286   1.921   2.672
 4650TIP3    H113891   0.312   1.834   2.703
 4650TIP3    H213892   0.303   1.919   2.577
 4651TIP3   OH213893   1.696   6.765   5.331
 4651TIP3    H113894   1.747   6.839   5.300
 4651TIP3    H213895   1.759   6.710   5.378
 4652TIP3   OH213896   6.702   7.099   4.563
 4652TIP3    H113897   6.632   7.035   4.574
 4652TIP3    H213898   6.665   7.181   4.596
 4653TIP3   OH213899   6.146   2.625   6.337
 4653TIP3    H113900   6.156   2.715   6.306
 4653TIP3    H213901   6.160   2.571   6.259
 4654TIP3   OH213902   3.066   4.550   2.853
 4654TIP3    H113903   3.044   4.486   2.921
 4654TIP3    H213904   3.135   4.604   2.891
 4655TIP3   OH213905   5.341   3.393   0.290
 4655TIP3    H113906   5.387   3.310   0.287
 4655TIP3    H213907   5.367   3.433   0.373
 4656TIP3   OH213908   8.030   6.336   5.558
 4656TIP3    H113909   7.969   6.381   5.616
 4656TIP3    H213910   8.114   6.379   5.574
 4657TIP3   OH213911   3.221   5.231   1.533
 4657TIP3    H113912   3.177   5.149   1.556
 4657TIP3    H213913   3.299   5.203   1.484
 4658TIP3   OH213914   2.234   4.381   5.003
 4658TIP3    H113915   2.308   4.368   5.063
 4658TIP3    H213916   2.169   4.429   5.054
 4659TIP3   OH213917   3.169   3.574   3.884
 4659TIP3    H113918   3.262   3.588   3.866
 4659TIP3    H213919   3.125   3.600   3.803
 4660TIP3   OH213920   2.511   0.409   5.142
 4660TIP3    H113921   2.523   0.332   5.086
 4660TIP3    H213922   2.543   0.482   5.089
 4661TIP3   OH213923   2.265   3.951   6.548
 4661TIP3    H113924   2.319   3.961   6.470
 4661TIP3    H213925   2.188   3.902   6.517
 4662TIP3   OH213926   6.357   1.867   4.945
 4662TIP3    H113927   6.373   1.932   4.877
 4662TIP3    H213928   6.427   1.802   4.934
 4663TIP3   OH213929   5.002   1.672   0.221
 4663TIP3    H113930   4.917   1.665   0.177
 4663TIP3    H213931   5.002   1.759   0.261
 4664TIP3   OH213932   7.712   3.256   5.877
 4664TIP3    H113933   7.769   3.179   5.885
 4664TIP3    H213934   7.742   3.298   5.796
 4665TIP3   OH213935   3.656   3.710   4.949
 4665TIP3    H113936   3.662   3.804   4.937
 4665TIP3    H213937   3.661   3.674   4.860
 4666TIP3   OH213938   0.434   3.530   1.344
 4666TIP3    H113939   0.397   3.568   1.424
 4666TIP3    H213940   0.366   3.543   1.278
 4667TIP3   OH213941   2.074   6.935   2.696
 4667TIP3    H113942   2.124   6.983   2.630
 4667TIP3    H213943   1.987   6.923   2.657
 4668TIP3   OH213944   8.284   2.987   5.015
 4668TIP3    H113945   8.304   3.045   5.089
 4668TIP3    H213946   8.210   2.935   5.044
 4669TIP3   OH213947   0.934   4.993   2.382
 4669TIP3    H113948   0.931   5.022   2.291
 4669TIP3    H213949   1.008   4.932   2.385
 4670TIP3   OH213950   0.438   6.386   0.451
 4670TIP3    H113951   0.522   6.372   0.495
 4670TIP3    H213952   0.385   6.310   0.475
 4671TIP3   OH213953   8.348   3.806   1.555
 4671TIP3    H113954   8.419   3.865   1.532
 4671TIP3    H213955   8.363   3.784   1.647
 4672TIP3   OH213956   4.494   6.901   3.807
 4672TIP3    H113957   4.490   6.948   3.724
 4672TIP3    H213958   4.403   6.898   3.837
 4673TIP3   OH213959   1.297   2.651   2.413
 4673TIP3    H113960   1.216   2.642   2.463
 4673TIP3    H213961   1.308   2.746   2.402
 4674TIP3   OH213962   5.844   5.899   1.996
 4674TIP3    H113963   5.829   5.984   2.038
 4674TIP3    H213964   5.900   5.919   1.921
 4675TIP3   OH213965   4.008   6.667   2.611
 4675TIP3    H113966   3.918   6.649   2.585
 4675TIP3    H213967   4.040   6.583   2.645
 4676TIP3   OH213968   1.533   6.219   4.645
 4676TIP3    H113969   1.450   6.170   4.645
 4676TIP3    H213970   1.514   6.298   4.595
 4677TIP3   OH213971   7.532   7.217   2.089
 4677TIP3    H113972   7.587   7.180   2.020
 4677TIP3    H213973   7.465   7.266   2.042
 4678TIP3   OH213974   3.747   1.246   2.581
 4678TIP3    H113975   3.652   1.245   2.573
 4678TIP3    H213976   3.767   1.170   2.635
 4679TIP3   OH213977   2.079   5.153   3.388
 4679TIP3    H113978   2.068   5.248   3.388
 4679TIP3    H213979   2.163   5.139   3.431
 4680TIP3   OH213980   4.178   1.986   3.293
 4680TIP3    H113981   4.199   2.078   3.280
 4680TIP3    H213982   4.255   1.939   3.260
 4681TIP3   OH213983   2.800   6.563   5.426
 4681TIP3    H113984   2.889   6.597   5.437
 4681TIP3    H213985   2.814   6.472   5.399
 4682TIP3   OH213986   6.143   6.929   2.872
 4682TIP3    H113987   6.228   6.906   2.835
 4682TIP3    H213988   6.088   6.853   2.855
 4683TIP3   OH213989   6.807   3.052   6.596
 4683TIP3    H113990   6.803   3.082   6.687
 4683TIP3    H213991   6.833   2.960   6.602
 4684TIP3   OH213992   8.155   0.947   1.379
 4684TIP3    H113993   8.199   0.918   1.299
 4684TIP3    H213994   8.063   0.922   1.365
 4685TIP3   OH213995   0.104   5.715   5.524
 4685TIP3    H113996   0.094   5.672   5.439
 4685TIP3    H213997   0.038   5.783   5.524
 4686TIP3   OH213998   6.433   7.605   1.501
 4686TIP3    H113999   6.426   7.514   1.529
 4686TIP3    H214000   6.525   7.616   1.477
 4687TIP3   OH214001   7.897   5.206   4.049
 4687TIP3    H114002   7.918   5.181   4.139
 4687TIP3    H214003   7.965   5.270   4.026
 4688TIP3   OH214004   0.622   7.509   6.134
 4688TIP3    H114005   0.531   7.531   6.113
 4688TIP3    H214006   0.650   7.578   6.194
 4689TIP3   OH214007   8.099   0.408   2.478
 4689TIP3    H114008   8.174   0.389   2.422
 4689TIP3    H214009   8.129   0.387   2.567
 4690TIP3   OH214010   3.876   7.727   4.204
 4690TIP3    H114011   3.884   7.822   4.203
 4690TIP3    H214012   3.879   7.701   4.112
 4691TIP3   OH214013   8.369   3.912   4.761
 4691TIP3    H114014   8.364   4.000   4.800
 4691TIP3    H214015   8.457   3.907   4.725
 4692TIP3   OH214016   5.093   0.226   4.125
 4692TIP3    H114017   5.024   0.163   4.105
 4692TIP3    H214018   5.151   0.224   4.049
 4693TIP3   OH214019   5.717   1.516   5.888
 4693TIP3    H114020   5.656   1.454   5.928
 4693TIP3    H214021   5.696   1.514   5.794
 4694TIP3   OH214022   3.192   2.247   3.179
 4694TIP3    H114023   3.103   2.236   3.212
 4694TIP3    H214024   3.190   2.212   3.090
 4695TIP3   OH214025   1.518   2.747   5.916
 4695TIP3    H114026   1.580   2.763   5.845
 4695TIP3    H214027   1.515   2.829   5.965
 4696TIP3   OH214028   1.052   4.296   6.382
 4696TIP3    H114029   1.059   4.333   6.470
 4696TIP3    H214030   0.986   4.349   6.338
 4697TIP3   OH214031   0.654   5.519   1.032
 4697TIP3    H114032   0.574   5.570   1.018
 4697TIP3    H214033   0.704   5.570   1.096
 4698TIP3   OH214034   0.799   7.401   4.426
 4698TIP3    H114035   0.831   7.459   4.495
 4698TIP3    H214036   0.711   7.432   4.408
 4699TIP3   OH214037   1.514   3.999   2.132
 4699TIP3    H114038   1.511   4.033   2.221
 4699TIP3    H214039   1.565   4.064   2.084
 4700TIP3   OH214040   0.627   0.929   2.633
 4700TIP3    H114041   0.538   0.963   2.632
 4700TIP3    H214042   0.656   0.938   2.723
 4701TIP3   OH214043   5.407   6.739   6.401
 4701TIP3    H114044   5.438   6.747   6.311
 4701TIP3    H214045   5.364   6.823   6.419
 4702TIP3   OH214046   7.059   7.374   4.440
 4702TIP3    H114047   6.988   7.437   4.429
 4702TIP3    H214048   7.025   7.312   4.504
 4703TIP3   OH214049   6.505   3.168   2.911
 4703TIP3    H114050   6.472   3.085   2.943
 4703TIP3    H214051   6.594   3.149   2.883
 4704TIP3   OH214052   1.265   2.851   5.764
 4704TIP3    H114053   1.334   2.874   5.702
 4704TIP3    H214054   1.311   2.839   5.848
 4705TIP3   OH214055   6.224   7.559   0.453
 4705TIP3    H114056   6.296   7.607   0.494
 4705TIP3    H214057   6.189   7.504   0.522
 4706TIP3   OH214058   1.997   0.247   3.929
 4706TIP3    H114059   2.057   0.250   3.855
 4706TIP3    H214060   1.918   0.205   3.895
 4707TIP3   OH214061   2.572   7.476   0.684
 4707TIP3    H114062   2.488   7.469   0.728
 4707TIP3    H214063   2.595   7.569   0.691
 4708TIP3   OH214064   0.898   7.299   3.078
 4708TIP3    H114065   0.936   7.332   3.159
 4708TIP3    H214066   0.972   7.293   3.017
 4709TIP3   OH214067   0.599   7.285   1.155
 4709TIP3    H114068   0.576   7.267   1.246
 4709TIP3    H214069   0.578   7.378   1.144
 4710TIP3   OH214070   0.985   1.038  -0.009
 4710TIP3    H114071   1.077   1.018   0.011
 4710TIP3    H214072   0.973   1.128   0.020
 4711TIP3   OH214073   2.612   0.211   0.319
 4711TIP3    H114074   2.597   0.214   0.225
 4711TIP3    H214075   2.561   0.137   0.350
 4712TIP3   OH214076   4.863   0.635   4.927
 4712TIP3    H114077   4.900   0.722   4.910
 4712TIP3    H214078   4.939   0.577   4.931
 4713TIP3   OH214079   4.963   3.327   2.792
 4713TIP3    H114080   4.878   3.284   2.801
 4713TIP3    H214081   5.027   3.259   2.813
 4714TIP3   OH214082   5.692   5.549   4.961
 4714TIP3    H114083   5.726   5.592   4.882
 4714TIP3    H214084   5.725   5.603   5.033
 4715TIP3   OH214085   5.240   1.836   3.730
 4715TIP3    H114086   5.184   1.857   3.805
 4715TIP3    H214087   5.262   1.920   3.692
 4716TIP3   OH214088   3.911   7.861   5.055
 4716TIP3    H114089   3.960   7.896   5.129
 4716TIP3    H214090   3.947   7.906   4.979
 4717TIP3   OH214091   4.941   6.205   6.503
 4717TIP3    H114092   4.879   6.207   6.430
 4717TIP3    H214093   4.963   6.297   6.519
 4718TIP3   OH214094   3.618   6.130   4.155
 4718TIP3    H114095   3.523   6.118   4.158
 4718TIP3    H214096   3.630   6.221   4.128
 4719TIP3   OH214097   4.803   6.159   0.439
 4719TIP3    H114098   4.765   6.073   0.460
 4719TIP3    H214099   4.874   6.170   0.502
 4720TIP3   OH214100   3.034   7.345   1.722
 4720TIP3    H114101   3.058   7.312   1.636
 4720TIP3    H214102   3.073   7.433   1.726
 4721TIP3   OH214103   5.756   3.257   5.569
 4721TIP3    H114104   5.759   3.345   5.532
 4721TIP3    H214105   5.764   3.199   5.494
 4722TIP3   OH214106   3.516   3.884   3.366
 4722TIP3    H114107   3.451   3.845   3.425
 4722TIP3    H214108   3.558   3.952   3.418
 4723TIP3   OH214109   0.466   6.369   0.992
 4723TIP3    H114110   0.550   6.396   0.955
 4723TIP3    H214111   0.488   6.328   1.075
 4724TIP3   OH214112   0.923   6.367   4.235
 4724TIP3    H114113   1.005   6.345   4.192
 4724TIP3    H214114   0.945   6.436   4.297
 4725TIP3   OH214115   7.675   4.357   1.101
 4725TIP3    H114116   7.674   4.271   1.143
 4725TIP3    H214117   7.596   4.358   1.047
 4726TIP3   OH214118   1.260   1.532   5.600
 4726TIP3    H114119   1.318   1.587   5.548
 4726TIP3    H214120   1.287   1.442   5.579
 4727TIP3   OH214121   5.089   5.799   6.514
 4727TIP3    H114122   5.002   5.766   6.491
 4727TIP3    H214123   5.099   5.878   6.460
 4728TIP3   OH214124   4.005   6.944   3.489
 4728TIP3    H114125   3.924   6.908   3.525
 4728TIP3    H214126   4.040   6.873   3.434
 4729TIP3   OH214127   5.701   2.510   5.262
 4729TIP3    H114128   5.717   2.559   5.342
 4729TIP3    H214129   5.700   2.576   5.193
 4730TIP3   OH214130   2.631   6.387   3.899
 4730TIP3    H114131   2.605   6.379   3.807
 4730TIP3    H214132   2.658   6.478   3.908
 4731TIP3   OH214133   0.455   6.946   3.425
 4731TIP3    H114134   0.503   6.937   3.343
 4731TIP3    H214135   0.363   6.937   3.400
 4732TIP3   OH214136   7.218   6.079   5.650
 4732TIP3    H114137   7.276   6.152   5.674
 4732TIP3    H214138   7.263   6.036   5.577
 4733TIP3   OH214139   5.517   6.035   3.597
 4733TIP3    H114140   5.474   6.110   3.556
 4733TIP3    H214141   5.575   6.074   3.663
 4734TIP3   OH214142   0.001   4.290   2.802
 4734TIP3    H114143  -0.001   4.272   2.896
 4734TIP3    H214144   0.069   4.232   2.768
 4735TIP3   OH214145   0.636   3.021   0.531
 4735TIP3    H114146   0.557   3.008   0.583
 4735TIP3    H214147   0.667   2.932   0.513
 4736TIP3   OH214148   4.868   1.429   3.207
 4736TIP3    H114149   4.868   1.373   3.130
 4736TIP3    H214150   4.888   1.517   3.172
 4737TIP3   OH214151   5.741   3.082   4.707
 4737TIP3    H114152   5.752   2.992   4.739
 4737TIP3    H214153   5.675   3.120   4.764
 4738TIP3   OH214154   2.297   3.278   5.995
 4738TIP3    H114155   2.388   3.258   5.973
 4738TIP3    H214156   2.289   3.372   5.982
 4739TIP3   OH214157   0.358   5.869   3.722
 4739TIP3    H114158   0.405   5.915   3.791
 4739TIP3    H214159   0.320   5.939   3.668
 4740TIP3   OH214160   6.503   7.536   5.818
 4740TIP3    H114161   6.559   7.489   5.879
 4740TIP3    H214162   6.488   7.621   5.859
 4741TIP3   OH214163   6.074   2.601   0.467
 4741TIP3    H114164   5.989   2.645   0.462
 4741TIP3    H214165   6.058   2.514   0.430
 4742TIP3   OH214166   5.339   0.902   5.396
 4742TIP3    H114167   5.265   0.951   5.433
 4742TIP3    H214168   5.416   0.952   5.422
 4743TIP3   OH214169   3.714   0.133   5.554
 4743TIP3    H114170   3.805   0.151   5.578
 4743TIP3    H214171   3.712   0.143   5.459
 4744TIP3   OH214172   2.592   3.524   2.866
 4744TIP3    H114173   2.547   3.546   2.784
 4744TIP3    H214174   2.559   3.438   2.889
 4745TIP3   OH214175   3.416   3.710   3.824
 4745TIP3    H114176   3.497   3.664   3.801
 4745TIP3    H214177   3.442   3.775   3.889
 4746TIP3   OH214178   3.885   1.434   6.671
 4746TIP3    H114179   3.830   1.474   6.738
 4746TIP3    H214180   3.966   1.413   6.716
 4747TIP3   OH214181   7.187   0.478   3.437
 4747TIP3    H114182   7.171   0.573   3.440
 4747TIP3    H214183   7.281   0.471   3.422
 4748TIP3   OH214184   4.244   3.289   5.040
 4748TIP3    H114185   4.279   3.367   4.998
 4748TIP3    H214186   4.152   3.307   5.054
 4749TIP3   OH214187   6.559   5.342   3.319
 4749TIP3    H114188   6.573   5.345   3.224
 4749TIP3    H214189   6.636   5.296   3.353
 4750TIP3   OH214190   8.092   6.512   2.242
 4750TIP3    H114191   8.154   6.582   2.263
 4750TIP3    H214192   8.103   6.449   2.314
 4751TIP3   OH214193   6.010   0.972   0.860
 4751TIP3    H114194   6.017   0.943   0.770
 4751TIP3    H214195   5.991   0.893   0.910
 4752TIP3   OH214196   6.576   2.259   4.639
 4752TIP3    H114197   6.564   2.314   4.715
 4752TIP3    H214198   6.660   2.287   4.601
 4753TIP3   OH214199   5.454   5.987   0.073
 4753TIP3    H114200   5.391   5.964   0.142
 4753TIP3    H214201   5.535   5.945   0.100
 4754TIP3   OH214202   3.617   5.821   1.096
 4754TIP3    H114203   3.564   5.764   1.041
 4754TIP3    H214204   3.618   5.905   1.051
 4755TIP3   OH214205   4.602   5.888   5.887
 4755TIP3    H114206   4.670   5.841   5.837
 4755TIP3    H214207   4.520   5.858   5.849
 4756TIP3   OH214208   6.824   0.627   5.685
 4756TIP3    H114209   6.763   0.684   5.637
 4756TIP3    H214210   6.809   0.648   5.777
 4757TIP3   OH214211   4.599   3.291   3.266
 4757TIP3    H114212   4.610   3.319   3.357
 4757TIP3    H214213   4.505   3.277   3.257
 4758TIP3   OH214214   7.032   3.251   6.291
 4758TIP3    H114215   6.996   3.292   6.212
 4758TIP3    H214216   6.971   3.275   6.361
 4759TIP3   OH214217   6.522   4.019   2.955
 4759TIP3    H114218   6.432   4.030   2.986
 4759TIP3    H214219   6.560   3.956   3.016
 4760TIP3   OH214220   3.817   0.183   1.502
 4760TIP3    H114221   3.857   0.110   1.455
 4760TIP3    H214222   3.892   0.237   1.530
 4761TIP3   OH214223   6.364   7.909   4.728
 4761TIP3    H114224   6.452   7.946   4.728
 4761TIP3    H214225   6.364   7.849   4.802
 4762TIP3   OH214226   5.010   2.817   0.992
 4762TIP3    H114227   4.993   2.911   0.994
 4762TIP3    H214228   5.090   2.808   0.940
 4763TIP3   OH214229   7.457   7.546   5.750
 4763TIP3    H114230   7.484   7.631   5.714
 4763TIP3    H214231   7.481   7.482   5.683
 4764TIP3   OH214232   6.996   0.131   4.973
 4764TIP3    H114233   7.022   0.223   4.978
 4764TIP3    H214234   6.924   0.130   4.911
 4765TIP3   OH214235   4.428   1.353   4.741
 4765TIP3    H114236   4.439   1.448   4.752
 4765TIP3    H214237   4.514   1.323   4.712
 4766TIP3   OH214238   1.400   3.902   6.795
 4766TIP3    H114239   1.409   3.895   6.890
 4766TIP3    H214240   1.319   3.953   6.783
 4767TIP3   OH214241   7.386   7.747   5.471
 4767TIP3    H114242   7.439   7.767   5.548
 4767TIP3    H214243   7.335   7.826   5.456
 4768TIP3   OH214244   2.828   6.807   6.176
 4768TIP3    H114245   2.876   6.728   6.202
 4768TIP3    H214246   2.786   6.784   6.093
 4769TIP3   OH214247   5.386   3.699   4.361
 4769TIP3    H114248   5.475   3.661   4.362
 4769TIP3    H214249   5.398   3.790   4.386
 4770TIP3   OH214250   2.233   0.446   4.240
 4770TIP3    H114251   2.248   0.351   4.243
 4770TIP3    H214252   2.191   0.460   4.155
 4771TIP3   OH214253   6.617   1.387   6.303
 4771TIP3    H114254   6.573   1.400   6.387
 4771TIP3    H214255   6.689   1.327   6.324
 4772TIP3   OH214256   2.374   6.334   4.527
 4772TIP3    H114257   2.436   6.403   4.552
 4772TIP3    H214258   2.304   6.341   4.592
 4773TIP3   OH214259   7.909   3.294   3.049
 4773TIP3    H114260   7.851   3.257   3.115
 4773TIP3    H214261   7.976   3.228   3.035
 4774TIP3   OH214262   8.302   4.926   3.611
 4774TIP3    H114263   8.233   4.863   3.589
 4774TIP3    H214264   8.380   4.871   3.628
 4775TIP3   OH214265   6.602   5.975   1.836
 4775TIP3    H114266   6.684   5.930   1.817
 4775TIP3    H214267   6.592   6.038   1.764
 4776TIP3   OH214268   4.737   2.141   2.359
 4776TIP3    H114269   4.675   2.068   2.368
 4776TIP3    H214270   4.783   2.145   2.443
 4777TIP3   OH214271   6.544   2.053   5.807
 4777TIP3    H114272   6.452   2.080   5.816
 4777TIP3    H214273   6.539   1.963   5.773
 4778TIP3   OH214274   7.114   0.334   3.689
 4778TIP3    H114275   7.111   0.404   3.754
 4778TIP3    H214276   7.049   0.360   3.623
 4779TIP3   OH214277   0.592   0.524   5.941
 4779TIP3    H114278   0.642   0.561   6.014
 4779TIP3    H214279   0.507   0.568   5.946
 4780TIP3   OH214280   2.288   0.933   6.473
 4780TIP3    H114281   2.209   0.926   6.418
 4780TIP3    H214282   2.292   1.025   6.498
 4781TIP3   OH214283   2.741   1.336   2.286
 4781TIP3    H114284   2.820   1.334   2.340
 4781TIP3    H214285   2.688   1.406   2.324
 4782TIP3   OH214286   1.821   3.213   0.605
 4782TIP3    H114287   1.750   3.275   0.621
 4782TIP3    H214288   1.798   3.136   0.657
 4783TIP3   OH214289   5.214   6.861   0.495
 4783TIP3    H114290   5.252   6.936   0.450
 4783TIP3    H214291   5.154   6.898   0.559
 4784TIP3   OH214292   2.955   2.094   0.793
 4784TIP3    H114293   3.049   2.073   0.796
 4784TIP3    H214294   2.929   2.077   0.703
 4785TIP3   OH214295   4.754   1.532   2.374
 4785TIP3    H114296   4.825   1.474   2.403
 4785TIP3    H214297   4.702   1.478   2.314
 4786TIP3   OH214298   5.206   1.344   3.293
 4786TIP3    H114299   5.151   1.416   3.262
 4786TIP3    H214300   5.282   1.387   3.332
 4787TIP3   OH214301   8.101   1.372   4.824
 4787TIP3    H114302   8.089   1.278   4.831
 4787TIP3    H214303   8.146   1.385   4.741
 4788TIP3   OH214304   6.166   0.219   5.632
 4788TIP3    H114305   6.076   0.222   5.663
 4788TIP3    H214306   6.165   0.270   5.551
 4789TIP3   OH214307   7.140   2.004   0.834
 4789TIP3    H114308   7.060   2.056   0.824
 4789TIP3    H214309   7.165   2.017   0.926
 4790TIP3   OH214310   3.831   4.248   0.044
 4790TIP3    H114311   3.749   4.279   0.082
 4790TIP3    H214312   3.804   4.177  -0.015
 4791TIP3   OH214313   4.619   2.540   6.530
 4791TIP3    H114314   4.574   2.613   6.573
 4791TIP3    H214315   4.608   2.557   6.436
 4792TIP3   OH214316   6.969   6.035   5.778
 4792TIP3    H114317   7.053   6.071   5.751
 4792TIP3    H214318   6.936   5.990   5.699
 4793TIP3   OH214319   4.926   5.762   6.055
 4793TIP3    H114320   4.884   5.676   6.049
 4793TIP3    H214321   5.004   5.755   5.999
 4794TIP3   OH214322   7.594   7.785   5.622
 4794TIP3    H114323   7.653   7.852   5.656
 4794TIP3    H214324   7.626   7.766   5.534
 4795TIP3   OH214325   6.172   7.850   6.415
 4795TIP3    H114326   6.246   7.907   6.397
 4795TIP3    H214327   6.111   7.867   6.344
 4796TIP3   OH214328   0.944   6.975   4.108
 4796TIP3    H114329   1.001   6.934   4.172
 4796TIP3    H214330   0.955   6.922   4.029
 4797TIP3   OH214331   5.598   0.331   4.398
 4797TIP3    H114332   5.507   0.323   4.424
 4797TIP3    H214333   5.644   0.358   4.478
 4798TIP3   OH214334   2.698   6.447   3.220
 4798TIP3    H114335   2.614   6.482   3.253
 4798TIP3    H214336   2.692   6.353   3.235
 4799TIP3   OH214337   2.342   1.728   6.347
 4799TIP3    H114338   2.389   1.707   6.428
 4799TIP3    H214339   2.404   1.776   6.294
 4800TIP3   OH214340   6.934   0.761   1.174
 4800TIP3    H114341   6.985   0.728   1.100
 4800TIP3    H214342   6.887   0.837   1.139
 4801TIP3   OH214343   5.015   2.965   4.075
 4801TIP3    H114344   5.065   3.033   4.029
 4801TIP3    H214345   5.081   2.903   4.107
 4802TIP3   OH214346   0.568   6.112   3.130
 4802TIP3    H114347   0.609   6.185   3.177
 4802TIP3    H214348   0.485   6.148   3.099
 4803TIP3   OH214349   8.211   1.011   5.464
 4803TIP3    H114350   8.147   1.046   5.526
 4803TIP3    H214351   8.234   0.925   5.500
 4804TIP3   OH214352   1.863   1.681   2.269
 4804TIP3    H114353   1.827   1.745   2.208
 4804TIP3    H214354   1.957   1.699   2.270
 4805TIP3   OH214355   4.319   0.311   0.540
 4805TIP3    H114356   4.225   0.316   0.559
 4805TIP3    H214357   4.355   0.258   0.610
 4806TIP3   OH214358   8.150   0.390   2.021
 4806TIP3    H114359   8.167   0.482   2.001
 4806TIP3    H214360   8.100   0.392   2.102
 4807TIP3   OH214361   0.395   4.907   5.099
 4807TIP3    H114362   0.340   4.887   5.174
 4807TIP3    H214363   0.460   4.969   5.132
 4808TIP3   OH214364   7.531   2.036   1.182
 4808TIP3    H114365   7.609   2.079   1.218
 4808TIP3    H214366   7.551   2.022   1.090
 4809TIP3   OH214367   1.412   2.676   3.455
 4809TIP3    H114368   1.502   2.676   3.423
 4809TIP3    H214369   1.386   2.583   3.453
 4810TIP3   OH214370   6.577   1.956   2.835
 4810TIP3    H114371   6.504   1.896   2.819
 4810TIP3    H214372   6.637   1.940   2.762
 4811TIP3   OH214373   0.884   1.454   5.293
 4811TIP3    H114374   0.935   1.472   5.214
 4811TIP3    H214375   0.903   1.528   5.352
 4812TIP3   OH214376   4.396   1.777   2.546
 4812TIP3    H114377   4.349   1.693   2.546
 4812TIP3    H214378   4.444   1.778   2.464
 4813TIP3   OH214379   8.063   0.259   5.913
 4813TIP3    H114380   8.003   0.245   5.839
 4813TIP3    H214381   8.150   0.245   5.876
 4814TIP3   OH214382   1.966   2.447   5.887
 4814TIP3    H114383   2.000   2.536   5.878
 4814TIP3    H214384   1.900   2.439   5.818
 4815TIP3   OH214385   8.118   5.987   4.193
 4815TIP3    H114386   8.201   5.947   4.166
 4815TIP3    H214387   8.052   5.936   4.146
 4816TIP3   OH214388   3.328   1.006   2.483
 4816TIP3    H114389   3.385   0.929   2.484
 4816TIP3    H214390   3.241   0.971   2.465
 4817TIP3   OH214391   1.636   0.030   2.583
 4817TIP3    H114392   1.575   0.088   2.628
 4817TIP3    H214393   1.717   0.080   2.576
 4818TIP3   OH214394   1.033   6.444   2.948
 4818TIP3    H114395   0.982   6.384   2.893
 4818TIP3    H214396   0.967   6.503   2.987
 4819TIP3   OH214397   6.830   2.057   1.728
 4819TIP3    H114398   6.749   2.006   1.723
 4819TIP3    H214399   6.802   2.148   1.726
 4820TIP3   OH214400   4.970   4.401   4.694
 4820TIP3    H114401   5.013   4.333   4.746
 4820TIP3    H214402   4.877   4.381   4.700
 4821TIP3   OH214403   4.836   6.586   0.446
 4821TIP3    H114404   4.871   6.544   0.524
 4821TIP3    H214405   4.866   6.676   0.450
 4822TIP3   OH214406   7.624   3.366   6.320
 4822TIP3    H114407   7.680   3.289   6.328
 4822TIP3    H214408   7.666   3.432   6.376
 4823TIP3   OH214409   0.907   6.103   5.358
 4823TIP3    H114410   0.977   6.047   5.325
 4823TIP3    H214411   0.840   6.041   5.388
 4824TIP3   OH214412   7.823   1.795   3.517
 4824TIP3    H114413   7.782   1.728   3.572
 4824TIP3    H214414   7.830   1.755   3.431
 4825TIP3   OH214415   4.110   0.626   1.714
 4825TIP3    H114416   4.082   0.535   1.723
 4825TIP3    H214417   4.047   0.665   1.654
 4826TIP3   OH214418   0.974   3.702   2.691
 4826TIP3    H114419   1.023   3.656   2.759
 4826TIP3    H214420   0.884   3.705   2.722
 4827TIP3   OH214421   5.749   0.950   3.044
 4827TIP3    H114422   5.695   0.880   3.080
 4827TIP3    H214423   5.757   1.013   3.116
 4828TIP3   OH214424   0.220   7.725   3.022
 4828TIP3    H114425   0.156   7.747   2.954
 4828TIP3    H214426   0.303   7.721   2.975
 4829TIP3   OH214427   3.935   0.464   5.983
 4829TIP3    H114428   3.948   0.558   5.987
 4829TIP3    H214429   4.022   0.427   5.970
 4830TIP3   OH214430   8.055   5.695   1.861
 4830TIP3    H114431   7.986   5.634   1.889
 4830TIP3    H214432   8.067   5.677   1.768
 4831TIP3   OH214433   1.020   0.903   5.082
 4831TIP3    H114434   1.101   0.945   5.054
 4831TIP3    H214435   1.032   0.890   5.176
 4832TIP3   OH214436   8.186   6.829   0.812
 4832TIP3    H114437   8.276   6.802   0.795
 4832TIP3    H214438   8.132   6.756   0.781
 4833TIP3   OH214439   1.002   4.971   6.653
 4833TIP3    H114440   0.970   4.951   6.741
 4833TIP3    H214441   1.059   4.898   6.631
 4834TIP3   OH214442   3.169   2.588   2.993
 4834TIP3    H114443   3.116   2.509   2.979
 4834TIP3    H214444   3.213   2.573   3.076
 4835TIP3   OH214445   4.919   2.274   6.836
 4835TIP3    H114446   4.993   2.244   6.784
 4835TIP3    H214447   4.957   2.334   6.900
 4836TIP3   OH214448   1.636   1.660   6.816
 4836TIP3    H114449   1.613   1.572   6.845
 4836TIP3    H214450   1.719   1.649   6.769
 4837TIP3   OH214451   6.666   4.967   3.986
 4837TIP3    H114452   6.754   4.994   4.013
 4837TIP3    H214453   6.610   5.043   4.003
 4838TIP3   OH214454   4.230   0.839   1.377
 4838TIP3    H114455   4.242   0.871   1.466
 4838TIP3    H214456   4.314   0.801   1.354
 4839TIP3   OH214457   0.843   3.053   1.333
 4839TIP3    H114458   0.874   3.066   1.422
 4839TIP3    H214459   0.787   2.976   1.337
 4840TIP3   OH214460   0.531   0.890   0.883
 4840TIP3    H114461   0.472   0.912   0.955
 4840TIP3    H214462   0.491   0.930   0.806
 4841TIP3   OH214463   1.146   1.609   4.513
 4841TIP3    H114464   1.073   1.547   4.510
 4841TIP3    H214465   1.152   1.635   4.605
 4842TIP3   OH214466   3.202   1.941   5.370
 4842TIP3    H114467   3.263   2.014   5.366
 4842TIP3    H214468   3.220   1.890   5.291
 4843TIP3   OH214469   5.205   3.130   6.550
 4843TIP3    H114470   5.266   3.062   6.574
 4843TIP3    H214471   5.183   3.112   6.458
 4844TIP3   OH214472   0.264   6.809   2.291
 4844TIP3    H114473   0.304   6.724   2.308
 4844TIP3    H214474   0.338   6.869   2.281
 4845TIP3   OH214475   4.154   2.921   3.632
 4845TIP3    H114476   4.126   2.991   3.691
 4845TIP3    H214477   4.078   2.864   3.625
 4846TIP3   OH214478   3.918   4.201   6.456
 4846TIP3    H114479   3.901   4.279   6.509
 4846TIP3    H214480   3.952   4.234   6.373
 4847TIP3   OH214481   8.128   4.859   4.039
 4847TIP3    H114482   8.160   4.779   3.997
 4847TIP3    H214483   8.129   4.925   3.970
 4848TIP3   OH214484   5.199   0.712   1.588
 4848TIP3    H114485   5.292   0.720   1.569
 4848TIP3    H214486   5.178   0.790   1.639
 4849TIP3   OH214487   1.286   1.923   3.544
 4849TIP3    H114488   1.216   1.867   3.512
 4849TIP3    H214489   1.359   1.906   3.485
 4850TIP3   OH214490   6.022   2.414   1.542
 4850TIP3    H114491   6.034   2.321   1.524
 4850TIP3    H214492   6.077   2.430   1.618
 4851TIP3   OH214493   7.788   2.208   5.546
 4851TIP3    H114494   7.818   2.254   5.467
 4851TIP3    H214495   7.730   2.140   5.512
 4852TIP3   OH214496   3.471   3.938   2.707
 4852TIP3    H114497   3.554   3.892   2.691
 4852TIP3    H214498   3.415   3.871   2.747
 4853TIP3   OH214499   6.919   0.794   4.528
 4853TIP3    H114500   6.834   0.750   4.516
 4853TIP3    H214501   6.984   0.727   4.507
 4854TIP3   OH214502   6.088   3.322   1.229
 4854TIP3    H114503   6.008   3.374   1.224
 4854TIP3    H214504   6.122   3.338   1.317
 4855TIP3   OH214505   7.282   1.915   1.140
 4855TIP3    H114506   7.230   1.994   1.147
 4855TIP3    H214507   7.372   1.945   1.153
 4856TIP3   OH214508   3.278   1.291   3.548
 4856TIP3    H114509   3.299   1.311   3.457
 4856TIP3    H214510   3.345   1.228   3.575
 4857TIP3   OH214511   7.461   1.553   1.998
 4857TIP3    H114512   7.375   1.572   2.034
 4857TIP3    H214513   7.476   1.622   1.933
 4858TIP3   OH214514   3.312   0.366   5.290
 4858TIP3    H114515   3.316   0.393   5.382
 4858TIP3    H214516   3.273   0.442   5.245
 4859TIP3   OH214517   5.799   4.215   3.738
 4859TIP3    H114518   5.832   4.152   3.801
 4859TIP3    H214519   5.802   4.299   3.783
 4860TIP3   OH214520   2.930   0.388   2.934
 4860TIP3    H114521   2.855   0.370   2.991
 4860TIP3    H214522   2.943   0.482   2.941
 4861TIP3   OH214523   4.332   3.294   2.609
 4861TIP3    H114524   4.389   3.298   2.532
 4861TIP3    H214525   4.385   3.332   2.679
 4862TIP3   OH214526   0.265   1.720   0.840
 4862TIP3    H114527   0.188   1.763   0.877
 4862TIP3    H214528   0.316   1.693   0.916
 4863TIP3   OH214529   1.254   5.556   3.788
 4863TIP3    H114530   1.223   5.468   3.767
 4863TIP3    H214531   1.349   5.549   3.786
 4864TIP3   OH214532   1.026   7.434   6.407
 4864TIP3    H114533   0.992   7.451   6.319
 4864TIP3    H214534   0.960   7.378   6.447
 4865TIP3   OH214535   1.083   0.395   4.513
 4865TIP3    H114536   1.076   0.319   4.455
 4865TIP3    H214537   1.158   0.376   4.569
 4866TIP3   OH214538   3.791   6.796   1.749
 4866TIP3    H114539   3.839   6.826   1.672
 4866TIP3    H214540   3.699   6.807   1.726
 4867TIP3   OH214541   0.734   5.824   0.336
 4867TIP3    H114542   0.777   5.900   0.376
 4867TIP3    H214543   0.675   5.791   0.404
 4868TIP3   OH214544   0.941   7.639   4.280
 4868TIP3    H114545   0.987   7.689   4.348
 4868TIP3    H214546   0.876   7.587   4.328
 4869TIP3   OH214547   5.625   2.455   4.186
 4869TIP3    H114548   5.549   2.513   4.193
 4869TIP3    H214549   5.589   2.367   4.176
 4870TIP3   OH214550   3.527   7.596   4.736
 4870TIP3    H114551   3.447   7.557   4.701
 4870TIP3    H214552   3.594   7.529   4.720
 4871TIP3   OH214553   1.293   5.236   1.583
 4871TIP3    H114554   1.283   5.206   1.673
 4871TIP3    H214555   1.212   5.284   1.564
 4872TIP3   OH214556   2.485   1.215   3.842
 4872TIP3    H114557   2.578   1.219   3.866
 4872TIP3    H214558   2.482   1.152   3.770
 4873TIP3   OH214559   4.543   1.825   2.286
 4873TIP3    H114560   4.590   1.759   2.235
 4873TIP3    H214561   4.475   1.857   2.226
 4874TIP3   OH214562   7.367   0.246   3.749
 4874TIP3    H114563   7.360   0.183   3.822
 4874TIP3    H214564   7.277   0.255   3.717
 4875TIP3   OH214565   7.867   7.866   4.847
 4875TIP3    H114566   7.961   7.877   4.833
 4875TIP3    H214567   7.852   7.773   4.832
 4876TIP3   OH214568   2.783   6.621   4.002
 4876TIP3    H114569   2.694   6.647   4.024
 4876TIP3    H214570   2.832   6.631   4.084
 4877TIP3   OH214571   0.858   5.530   1.456
 4877TIP3    H114572   0.820   5.554   1.371
 4877TIP3    H214573   0.934   5.588   1.465
 4878TIP3   OH214574   5.736   1.228   5.585
 4878TIP3    H114575   5.771   1.220   5.674
 4878TIP3    H214576   5.702   1.318   5.581
 4879TIP3   OH214577   0.135   7.143   5.400
 4879TIP3    H114578   0.215   7.189   5.376
 4879TIP3    H214579   0.066   7.189   5.351
 4880TIP3   OH214580   4.075   4.341   0.030
 4880TIP3    H114581   4.059   4.417   0.085
 4880TIP3    H214582   3.999   4.285   0.044
 4881TIP3   OH214583   5.729   5.815   1.217
 4881TIP3    H114584   5.760   5.901   1.187
 4881TIP3    H214585   5.781   5.797   1.295
 4882TIP3   OH214586   5.098   1.285   5.186
 4882TIP3    H114587   5.066   1.201   5.219
 4882TIP3    H214588   5.021   1.327   5.147
 4883TIP3   OH214589   7.101   4.190   4.774
 4883TIP3    H114590   7.068   4.192   4.684
 4883TIP3    H214591   7.162   4.264   4.778
 4884TIP3   OH214592   5.355   4.984   0.621
 4884TIP3    H114593   5.391   4.970   0.534
 4884TIP3    H214594   5.427   4.965   0.681
 4885TIP3   OH214595   5.852   0.144   6.383
 4885TIP3    H114596   5.910   0.207   6.426
 4885TIP3    H214597   5.841   0.074   6.448
 4886TIP3   OH214598   7.142   3.834   3.763
 4886TIP3    H114599   7.093   3.834   3.681
 4886TIP3    H214600   7.158   3.926   3.782
 4887TIP3   OH214601   3.530   4.511   5.056
 4887TIP3    H114602   3.577   4.430   5.036
 4887TIP3    H214603   3.449   4.505   5.006
 4888TIP3   OH214604   2.616   1.069   2.989
 4888TIP3    H114605   2.546   1.133   2.976
 4888TIP3    H214606   2.628   1.029   2.903
 4889TIP3   OH214607   3.869   1.641   1.397
 4889TIP3    H114608   3.893   1.558   1.438
 4889TIP3    H214609   3.923   1.647   1.318
 4890TIP3   OH214610   7.071   0.082   1.458
 4890TIP3    H114611   7.068   0.147   1.388
 4890TIP3    H214612   6.982   0.081   1.494
 4891TIP3   OH214613   1.464   1.133   4.880
 4891TIP3    H114614   1.539   1.154   4.824
 4891TIP3    H214615   1.500   1.074   4.946
 4892TIP3   OH214616   1.543   2.117   5.760
 4892TIP3    H114617   1.606   2.153   5.822
 4892TIP3    H214618   1.458   2.152   5.788
 4893TIP3   OH214619   0.149   7.865   6.469
 4893TIP3    H114620   0.129   7.779   6.431
 4893TIP3    H214621   0.158   7.848   6.563
 4894TIP3   OH214622   1.808   6.962   0.494
 4894TIP3    H114623   1.718   6.997   0.491
 4894TIP3    H214624   1.827   6.955   0.588
 4895TIP3   OH214625   4.359   3.595   3.131
 4895TIP3    H114626   4.372   3.503   3.152
 4895TIP3    H214627   4.420   3.612   3.059
 4896TIP3   OH214628   4.379   6.448   6.684
 4896TIP3    H114629   4.288   6.420   6.686
 4896TIP3    H214630   4.398   6.461   6.591
 4897TIP3   OH214631   2.695   6.902   1.356
 4897TIP3    H114632   2.768   6.913   1.295
 4897TIP3    H214633   2.625   6.957   1.319
 4898TIP3   OH214634   1.949   3.124   2.930
 4898TIP3    H114635   1.887   3.196   2.919
 4898TIP3    H214636   1.991   3.114   2.845
 4899TIP3   OH214637   6.378   4.324   4.853
 4899TIP3    H114638   6.405   4.384   4.784
 4899TIP3    H214639   6.350   4.245   4.807
 4900TIP3   OH214640   7.234   2.370   3.524
 4900TIP3    H114641   7.318   2.335   3.497
 4900TIP3    H214642   7.205   2.311   3.595
 4901TIP3   OH214643   0.460   4.795   5.877
 4901TIP3    H114644   0.394   4.809   5.809
 4901TIP3    H214645   0.542   4.783   5.828
 4902TIP3   OH214646   6.086   3.230   0.844
 4902TIP3    H114647   6.098   3.180   0.925
 4902TIP3    H214648   5.996   3.263   0.849
 4903TIP3   OH214649   4.680   0.114   5.760
 4903TIP3    H114650   4.710   0.024   5.770
 4903TIP3    H214651   4.612   0.110   5.693
 4904TIP3   OH214652   7.494   5.327   0.540
 4904TIP3    H114653   7.432   5.264   0.578
 4904TIP3    H214654   7.501   5.301   0.448
 4905TIP3   OH214655   2.606   1.928   6.388
 4905TIP3    H114656   2.548   1.969   6.452
 4905TIP3    H214657   2.686   1.981   6.391
 4906TIP3   OH214658   3.825   7.138   0.297
 4906TIP3    H114659   3.908   7.122   0.342
 4906TIP3    H214660   3.795   7.222   0.332
 4907TIP3   OH214661   4.288   4.041   3.479
 4907TIP3    H114662   4.292   4.014   3.571
 4907TIP3    H214663   4.362   3.998   3.437
 4908TIP3   OH214664   7.564   4.476   4.332
 4908TIP3    H114665   7.492   4.500   4.390
 4908TIP3    H214666   7.582   4.556   4.282
 4909TIP3   OH214667   8.235   0.073   1.458
 4909TIP3    H114668   8.246  -0.009   1.409
 4909TIP3    H214669   8.324   0.107   1.469
 4910TIP3   OH214670   0.617   7.057   3.902
 4910TIP3    H114671   0.627   7.084   3.811
 4910TIP3    H214672   0.628   6.962   3.900
 4911TIP3   OH214673   3.409   3.237   6.223
 4911TIP3    H114674   3.390   3.329   6.240
 4911TIP3    H214675   3.437   3.235   6.131
 4912TIP3   OH214676   7.740   1.795   2.661
 4912TIP3    H114677   7.689   1.874   2.680
 4912TIP3    H214678   7.686   1.745   2.599
 4913TIP3   OH214679   3.346   1.529   0.739
 4913TIP3    H114680   3.317   1.472   0.667
 4913TIP3    H214681   3.431   1.492   0.765
 4914TIP3   OH214682   1.233   7.165   1.786
 4914TIP3    H114683   1.158   7.123   1.829
 4914TIP3    H214684   1.201   7.189   1.700
 4915TIP3   OH214685   0.647   7.174   2.227
 4915TIP3    H114686   0.614   7.257   2.261
 4915TIP3    H214687   0.739   7.172   2.253
 4916TIP3   OH214688   7.853   2.062   3.600
 4916TIP3    H114689   7.764   2.090   3.619
 4916TIP3    H214690   7.844   1.973   3.567
 4917TIP3   OH214691   1.613   7.041   3.642
 4917TIP3    H114692   1.666   6.980   3.592
 4917TIP3    H214693   1.650   7.039   3.730
 4918TIP3   OH214694   2.180   6.354   3.073
 4918TIP3    H114695   2.232   6.413   3.018
 4918TIP3    H214696   2.093   6.393   3.073
 4919TIP3   OH214697   5.432   1.251   6.376
 4919TIP3    H114698   5.396   1.339   6.384
 4919TIP3    H214699   5.527   1.264   6.373
 4920TIP3   OH214700   7.877   4.239   5.747
 4920TIP3    H114701   7.789   4.278   5.744
 4920TIP3    H214702   7.903   4.247   5.839
 4921TIP3   OH214703   4.221   4.742   2.427
 4921TIP3    H114704   4.314   4.761   2.413
 4921TIP3    H214705   4.195   4.800   2.498
 4922TIP3   OH214706   3.376   2.442   1.551
 4922TIP3    H114707   3.287   2.455   1.586
 4922TIP3    H214708   3.420   2.390   1.618
 4923TIP3   OH214709   6.556   0.164   1.805
 4923TIP3    H114710   6.547   0.225   1.878
 4923TIP3    H214711   6.551   0.077   1.844
 4924TIP3   OH214712   5.566   7.003   2.175
 4924TIP3    H114713   5.541   7.053   2.097
 4924TIP3    H214714   5.662   6.996   2.169
 4925TIP3   OH214715   4.224   1.213   6.022
 4925TIP3    H114716   4.197   1.247   5.937
 4925TIP3    H214717   4.299   1.157   6.003
 4926TIP3   OH214718   3.417   7.830   2.055
 4926TIP3    H114719   3.425   7.746   2.009
 4926TIP3    H214720   3.328   7.828   2.091
 4927TIP3   OH214721   5.458   7.871   1.200
 4927TIP3    H114722   5.454   7.947   1.142
 4927TIP3    H214723   5.551   7.863   1.224
 4928TIP3   OH214724   2.345   6.729   3.638
 4928TIP3    H114725   2.264   6.679   3.648
 4928TIP3    H214726   2.379   6.738   3.727
 4929TIP3   OH214727   0.441   3.529   0.951
 4929TIP3    H114728   0.472   3.439   0.961
 4929TIP3    H214729   0.427   3.539   0.856
 4930TIP3   OH214730   7.459   4.725   2.779
 4930TIP3    H114731   7.427   4.725   2.689
 4930TIP3    H214732   7.411   4.654   2.822
 4931TIP3   OH214733   4.633   2.558   4.398
 4931TIP3    H114734   4.604   2.477   4.439
 4931TIP3    H214735   4.658   2.614   4.471
 4932TIP3   OH214736   6.619   7.804   4.845
 4932TIP3    H114737   6.689   7.755   4.889
 4932TIP3    H214738   6.623   7.891   4.884
 4933TIP3   OH214739   5.954   2.437   1.892
 4933TIP3    H114740   5.950   2.520   1.938
 4933TIP3    H214741   6.046   2.430   1.864
 4934TIP3   OH214742   6.122   4.508   3.604
 4934TIP3    H114743   6.057   4.549   3.662
 4934TIP3    H214744   6.190   4.574   3.594
 4935TIP3   OH214745   4.229   2.256   5.930
 4935TIP3    H114746   4.150   2.273   5.981
 4935TIP3    H214747   4.200   2.255   5.839
 4936TIP3   OH214748   1.795   6.209   4.498
 4936TIP3    H114749   1.854   6.179   4.568
 4936TIP3    H214750   1.708   6.206   4.537
 4937TIP3   OH214751   0.237   4.729   0.013
 4937TIP3    H114752   0.305   4.790  -0.017
 4937TIP3    H214753   0.158   4.757  -0.034
 4938TIP3   OH214754   7.906   5.397   6.365
 4938TIP3    H114755   7.877   5.316   6.405
 4938TIP3    H214756   7.976   5.371   6.306
 4939TIP3   OH214757   2.900   6.826   4.950
 4939TIP3    H114758   2.850   6.802   4.871
 4939TIP3    H214759   2.841   6.885   4.997
 4940TIP3   OH214760   7.765   2.667   4.068
 4940TIP3    H114761   7.805   2.677   4.154
 4940TIP3    H214762   7.749   2.573   4.060
 4941TIP3   OH214763   0.183   3.570   2.506
 4941TIP3    H114764   0.231   3.514   2.446
 4941TIP3    H214765   0.149   3.641   2.451
 4942TIP3   OH214766   0.362   1.167   1.465
 4942TIP3    H114767   0.451   1.196   1.485
 4942TIP3    H214768   0.362   1.148   1.372
 4943TIP3   OH214769   1.285   4.442   4.859
 4943TIP3    H114770   1.316   4.489   4.937
 4943TIP3    H214771   1.263   4.512   4.797
 4944TIP3   OH214772   6.277   7.096   3.298
 4944TIP3    H114773   6.243   7.025   3.352
 4944TIP3    H214774   6.371   7.098   3.316
 4945TIP3   OH214775   2.139   4.476   4.518
 4945TIP3    H114776   2.083   4.554   4.523
 4945TIP3    H214777   2.204   4.489   4.587
 4946TIP3   OH214778   0.647   6.668   2.190
 4946TIP3    H114779   0.566   6.617   2.184
 4946TIP3    H214780   0.653   6.715   2.107
 4947TIP3   OH214781   3.032   2.336   2.429
 4947TIP3    H114782   2.985   2.306   2.506
 4947TIP3    H214783   2.975   2.402   2.390
 4948TIP3   OH214784   6.603   4.216   4.971
 4948TIP3    H114785   6.562   4.159   5.036
 4948TIP3    H214786   6.533   4.273   4.940
 4949TIP3   OH214787   3.385   0.156   1.078
 4949TIP3    H114788   3.363   0.173   0.986
 4949TIP3    H214789   3.341   0.227   1.126
 4950TIP3   OH214790   8.119   4.648   2.123
 4950TIP3    H114791   8.031   4.680   2.138
 4950TIP3    H214792   8.117   4.556   2.150
 4951TIP3   OH214793   6.294   7.216   0.862
 4951TIP3    H114794   6.353   7.186   0.930
 4951TIP3    H214795   6.213   7.167   0.877
 4952TIP3   OH214796   1.652   3.653   1.220
 4952TIP3    H114797   1.651   3.558   1.213
 4952TIP3    H214798   1.745   3.676   1.217
 4953TIP3   OH214799   6.978   2.805   5.047
 4953TIP3    H114800   6.919   2.735   5.074
 4953TIP3    H214801   6.952   2.825   4.957
 4954TIP3   OH214802   6.452   4.302   2.229
 4954TIP3    H114803   6.456   4.221   2.177
 4954TIP3    H214804   6.469   4.371   2.165
 4955TIP3   OH214805   1.589   1.226   6.120
 4955TIP3    H114806   1.586   1.312   6.079
 4955TIP3    H214807   1.584   1.244   6.214
 4956TIP3   OH214808   1.776   6.885   2.179
 4956TIP3    H114809   1.825   6.807   2.202
 4956TIP3    H214810   1.698   6.882   2.234
 4957TIP3   OH214811   6.851   7.419   1.266
 4957TIP3    H114812   6.895   7.480   1.207
 4957TIP3    H214813   6.922   7.363   1.299
 4958TIP3   OH214814   0.674   7.434   1.610
 4958TIP3    H114815   0.658   7.342   1.591
 4958TIP3    H214816   0.699   7.436   1.702
 4959TIP3   OH214817   8.327   0.244   0.107
 4959TIP3    H114818   8.391   0.192   0.058
 4959TIP3    H214819   8.379   0.306   0.157
 4960TIP3   OH214820   4.811   5.762   3.155
 4960TIP3    H114821   4.847   5.703   3.222
 4960TIP3    H214822   4.723   5.781   3.185
 4961TIP3   OH214823   7.915   4.454   3.672
 4961TIP3    H114824   7.945   4.539   3.705
 4961TIP3    H214825   7.848   4.475   3.607
 4962TIP3   OH214826   8.135   0.023   0.198
 4962TIP3    H114827   8.104   0.113   0.207
 4962TIP3    H214828   8.157   0.015   0.105
 4963TIP3   OH214829   5.050   3.540   3.982
 4963TIP3    H114830   4.967   3.567   4.021
 4963TIP3    H214831   5.114   3.604   4.015
 4964TIP3   OH214832   0.591   3.838   6.100
 4964TIP3    H114833   0.573   3.748   6.075
 4964TIP3    H214834   0.669   3.834   6.154
 4965TIP3   OH214835   3.209   3.429   6.469
 4965TIP3    H114836   3.251   3.438   6.383
 4965TIP3    H214837   3.127   3.383   6.450
 4966TIP3   OH214838   3.449   7.352   1.601
 4966TIP3    H114839   3.427   7.300   1.524
 4966TIP3    H214840   3.371   7.404   1.618
 4967TIP3   OH214841   2.234   2.329   1.414
 4967TIP3    H114842   2.308   2.382   1.383
 4967TIP3    H214843   2.190   2.384   1.478
 4968TIP3   OH214844   3.439   2.273   5.102
 4968TIP3    H114845   3.507   2.221   5.059
 4968TIP3    H214846   3.488   2.332   5.160
 4969TIP3   OH214847   5.621   2.172   1.147
 4969TIP3    H114848   5.576   2.254   1.127
 4969TIP3    H214849   5.609   2.118   1.069
 4970TIP3   OH214850   4.706   5.653   2.175
 4970TIP3    H114851   4.740   5.696   2.097
 4970TIP3    H214852   4.621   5.694   2.190
 4971TIP3   OH214853   6.311   1.286   3.915
 4971TIP3    H114854   6.246   1.350   3.886
 4971TIP3    H214855   6.345   1.322   3.997
 4972TIP3   OH214856   8.128   4.502   1.375
 4972TIP3    H114857   8.126   4.411   1.347
 4972TIP3    H214858   8.188   4.504   1.449
 4973TIP3   OH214859   3.662   2.938   2.191
 4973TIP3    H114860   3.621   2.927   2.277
 4973TIP3    H214861   3.743   2.888   2.196
 4974TIP3   OH214862   4.464   5.758   2.172
 4974TIP3    H114863   4.415   5.736   2.093
 4974TIP3    H214864   4.425   5.840   2.202
 4975TIP3   OH214865   3.527   2.791   5.296
 4975TIP3    H114866   3.512   2.828   5.383
 4975TIP3    H214867   3.550   2.866   5.242
 4976TIP3   OH214868   5.382   2.374   1.392
 4976TIP3    H114869   5.368   2.373   1.487
 4976TIP3    H214870   5.420   2.288   1.373
 4977TIP3   OH214871   6.558   6.738   6.324
 4977TIP3    H114872   6.583   6.820   6.367
 4977TIP3    H214873   6.632   6.718   6.267
 4978TIP3   OH214874   4.370   2.751   3.641
 4978TIP3    H114875   4.434   2.771   3.709
 4978TIP3    H214876   4.303   2.818   3.650
 4979TIP3   OH214877  -0.013   0.276   0.427
 4979TIP3    H114878  -0.028   0.199   0.482
 4979TIP3    H214879   0.017   0.343   0.488
 4980TIP3   OH214880   2.882   5.623   6.355
 4980TIP3    H114881   2.978   5.624   6.352
 4980TIP3    H214882   2.856   5.584   6.272
 4981TIP3   OH214883   6.774   1.044   4.630
 4981TIP3    H114884   6.834   1.103   4.674
 4981TIP3    H214885   6.831   0.988   4.576
 4982TIP3   OH214886   4.039   1.292   0.786
 4982TIP3    H114887   4.019   1.369   0.732
 4982TIP3    H214888   3.981   1.301   0.862
 4983TIP3   OH214889   6.306   6.664   6.244
 4983TIP3    H114890   6.389   6.673   6.291
 4983TIP3    H214891   6.331   6.622   6.161
 4984TIP3   OH214892   5.955   1.769   6.684
 4984TIP3    H114893   5.908   1.817   6.753
 4984TIP3    H214894   5.952   1.828   6.608
 4985TIP3   OH214895   7.403   4.044   1.587
 4985TIP3    H114896   7.338   3.977   1.611
 4985TIP3    H214897   7.481   3.994   1.564
 4986TIP3   OH214898   6.185   5.662   3.741
 4986TIP3    H114899   6.149   5.705   3.663
 4986TIP3    H214900   6.274   5.696   3.748
 4987TIP3   OH214901   1.691   3.462   4.731
 4987TIP3    H114902   1.730   3.545   4.703
 4987TIP3    H214903   1.704   3.403   4.657
 4988TIP3   OH214904   3.049   2.927   6.882
 4988TIP3    H114905   3.086   2.878   6.956
 4988TIP3    H214906   3.026   2.859   6.818
 4989TIP3   OH214907   5.978   1.707   3.249
 4989TIP3    H114908   6.068   1.696   3.218
 4989TIP3    H214909   5.974   1.658   3.331
 4990TIP3   OH214910   2.036   3.576   0.877
 4990TIP3    H114911   2.111   3.524   0.905
 4990TIP3    H214912   1.960   3.520   0.894
 4991TIP3   OH214913   5.413   0.241   4.763
 4991TIP3    H114914   5.450   0.176   4.703
 4991TIP3    H214915   5.325   0.257   4.730
 4992TIP3   OH214916   3.493   6.587   1.847
 4992TIP3    H114917   3.572   6.535   1.860
 4992TIP3    H214918   3.426   6.543   1.899
 4993TIP3   OH214919   2.585   4.527   6.578
 4993TIP3    H114920   2.598   4.443   6.623
 4993TIP3    H214921   2.619   4.512   6.490
 4994TIP3   OH214922   6.041   7.172   2.105
 4994TIP3    H114923   6.089   7.241   2.059
 4994TIP3    H214924   6.103   7.100   2.112
 4995TIP3   OH214925   3.871   2.198   5.060
 4995TIP3    H114926   3.930   2.142   5.110
 4995TIP3    H214927   3.929   2.255   5.009
 4996TIP3   OH214928   4.307   1.838   4.220
 4996TIP3    H114929   4.297   1.818   4.313
 4996TIP3    H214930   4.392   1.881   4.214
 4997TIP3   OH214931   1.054   5.701   2.444
 4997TIP3    H114932   1.149   5.699   2.460
 4997TIP3    H214933   1.015   5.673   2.526
 4998TIP3   OH214934   1.242   0.375   4.945
 4998TIP3    H114935   1.274   0.387   4.856
 4998TIP3    H214936   1.184   0.449   4.960
 4999TIP3   OH214937   1.838   0.376   3.634
 4999TIP3    H114938   1.816   0.469   3.639
 4999TIP3    H214939   1.757   0.333   3.607
 5000TIP3   OH214940   0.508   6.790   2.934
 5000TIP3    H114941   0.439   6.725   2.920
 5000TIP3    H214942   0.518   6.793   3.029
 5001TIP3   OH214943   0.802   7.392   3.433
 5001TIP3    H114944   0.717   7.389   3.389
 5001TIP3    H214945   0.784   7.368   3.523
 5002TIP3   OH214946   5.593   4.263   4.349
 5002TIP3    H114947   5.685   4.260   4.373
 5002TIP3    H214948   5.561   4.345   4.387
 5003TIP3   OH214949   8.243   6.996   3.761
 5003TIP3    H114950   8.284   6.924   3.712
 5003TIP3    H214951   8.284   7.075   3.727
 5004TIP3   OH214952   2.687   4.910   2.942
 5004TIP3    H114953   2.734   4.851   2.883
 5004TIP3    H214954   2.697   4.996   2.902
 5005TIP3   OH214955   7.245   1.875   1.833
 5005TIP3    H114956   7.157   1.898   1.862
 5005TIP3    H214957   7.240   1.873   1.737
 5006TIP3   OH214958   7.822   3.536   1.904
 5006TIP3    H114959   7.764   3.577   1.967
 5006TIP3    H214960   7.875   3.475   1.956
 5007TIP3   OH214961   5.295   2.229   3.715
 5007TIP3    H114962   5.227   2.162   3.719
 5007TIP3    H214963   5.324   2.227   3.623
 5008TIP3   OH214964   2.218   4.574   1.318
 5008TIP3    H114965   2.180   4.564   1.231
 5008TIP3    H214966   2.238   4.485   1.346
 5009TIP3   OH214967   7.473   5.846   0.349
 5009TIP3    H114968   7.555   5.875   0.310
 5009TIP3    H214969   7.455   5.761   0.307
 5010TIP3   OH214970   0.164   3.086   2.124
 5010TIP3    H114971   0.259   3.089   2.119
 5010TIP3    H214972   0.143   3.129   2.207
 5011TIP3   OH214973   2.296   0.158   1.248
 5011TIP3    H114974   2.253   0.100   1.184
 5011TIP3    H214975   2.354   0.100   1.297
 5012TIP3   OH214976   1.232   5.673   5.345
 5012TIP3    H114977   1.276   5.612   5.404
 5012TIP3    H214978   1.173   5.618   5.294
 5013TIP3   OH214979   6.250   0.650   1.104
 5013TIP3    H114980   6.298   0.600   1.038
 5013TIP3    H214981   6.286   0.622   1.188
 5014TIP3   OH214982   0.295   5.903   0.827
 5014TIP3    H114983   0.202   5.923   0.839
 5014TIP3    H214984   0.340   5.964   0.887
 5015TIP3   OH214985   0.845   6.001   5.923
 5015TIP3    H114986   0.842   5.947   6.002
 5015TIP3    H214987   0.933   5.987   5.888
 5016TIP3   OH214988   6.314   4.163   6.582
 5016TIP3    H114989   6.288   4.254   6.569
 5016TIP3    H214990   6.283   4.117   6.505
 5017TIP3   OH214991   4.921   1.987   5.834
 5017TIP3    H114992   4.888   2.035   5.910
 5017TIP3    H214993   4.909   1.895   5.857
 5018TIP3   OH214994   7.727   2.450   5.968
 5018TIP3    H114995   7.804   2.396   5.948
 5018TIP3    H214996   7.680   2.455   5.885
 5019TIP3   OH214997   2.911   6.487   0.753
 5019TIP3    H114998   2.932   6.412   0.698
 5019TIP3    H214999   2.816   6.496   0.746
 5020TIP3   OH215000   2.945   0.824   2.122
 5020TIP3    H115001   2.996   0.763   2.176
 5020TIP3    H215002   2.995   0.831   2.041
 5021TIP3   OH215003   8.361   3.485   4.842
 5021TIP3    H115004   8.292   3.419   4.844
 5021TIP3    H215005   8.406   3.470   4.758
 5022TIP3   OH215006   3.164   3.289   3.899
 5022TIP3    H115007   3.080   3.269   3.857
 5022TIP3    H215008   3.148   3.372   3.945
 5023TIP3   OH215009   3.363   2.750   4.125
 5023TIP3    H115010   3.405   2.835   4.107
 5023TIP3    H215011   3.276   2.773   4.157
 5024TIP3   OH215012   1.025   5.449   0.743
 5024TIP3    H115013   1.078   5.503   0.802
 5024TIP3    H215014   0.977   5.390   0.801
 5025TIP3   OH215015   7.279   0.638   3.945
 5025TIP3    H115016   7.266   0.676   4.032
 5025TIP3    H215017   7.198   0.590   3.928
 5026TIP3   OH215018   5.983   6.317   2.844
 5026TIP3    H115019   6.043   6.243   2.854
 5026TIP3    H215020   6.029   6.379   2.788
 5027TIP3   OH215021   3.434   3.973   2.026
 5027TIP3    H115022   3.365   3.976   2.092
 5027TIP3    H215023   3.400   4.026   1.954
 5028TIP3   OH215024   5.340   4.332   4.228
 5028TIP3    H115025   5.305   4.384   4.299
 5028TIP3    H215026   5.431   4.315   4.253
 5029TIP3   OH215027   5.742   6.310   5.775
 5029TIP3    H115028   5.683   6.380   5.746
 5029TIP3    H215029   5.686   6.233   5.780
 5030TIP3   OH215030   2.560   5.369   0.309
 5030TIP3    H115031   2.641   5.323   0.285
 5030TIP3    H215032   2.505   5.301   0.348
 5031TIP3   OH215033   8.089   4.227   0.394
 5031TIP3    H115034   8.078   4.255   0.484
 5031TIP3    H215035   8.007   4.184   0.372
 5032TIP3   OH215036   2.806   5.974   6.041
 5032TIP3    H115037   2.796   5.879   6.033
 5032TIP3    H215038   2.856   5.986   6.123
 5033TIP3   OH215039   1.779   3.242   1.239
 5033TIP3    H115040   1.766   3.154   1.203
 5033TIP3    H215041   1.709   3.295   1.199
 5034TIP3   OH215042   5.820   1.070   2.308
 5034TIP3    H115043   5.814   0.986   2.353
 5034TIP3    H215044   5.861   1.128   2.372
 5035TIP3   OH215045   4.087   5.566   0.751
 5035TIP3    H115046   4.138   5.617   0.814
 5035TIP3    H215047   4.021   5.522   0.804
 5036TIP3   OH215048   2.692   5.595   3.322
 5036TIP3    H115049   2.779   5.619   3.290
 5036TIP3    H215050   2.652   5.678   3.348
 5037TIP3   OH215051   3.370   1.836   5.795
 5037TIP3    H115052   3.391   1.924   5.827
 5037TIP3    H215053   3.281   1.842   5.762
 5038TIP3   OH215054   2.720   6.106   0.903
 5038TIP3    H115055   2.722   6.119   0.808
 5038TIP3    H215056   2.627   6.105   0.926
 5039TIP3   OH215057   2.271   3.743   3.574
 5039TIP3    H115058   2.325   3.769   3.649
 5039TIP3    H215059   2.206   3.813   3.566
 5040TIP3   OH215060   7.582   1.249   4.254
 5040TIP3    H115061   7.579   1.186   4.326
 5040TIP3    H215062   7.614   1.330   4.294
 5041TIP3   OH215063   1.793   6.638   6.394
 5041TIP3    H115064   1.743   6.558   6.378
 5041TIP3    H215065   1.741   6.686   6.459
 5042TIP3   OH215066   1.332   5.958   3.992
 5042TIP3    H115067   1.285   5.976   4.074
 5042TIP3    H215068   1.338   5.863   3.988
 5043TIP3   OH215069   0.228   1.132   4.135
 5043TIP3    H115070   0.304   1.189   4.135
 5043TIP3    H215071   0.262   1.046   4.110
 5044TIP3   OH215072   0.853   5.331   0.544
 5044TIP3    H115073   0.921   5.357   0.606
 5044TIP3    H215074   0.871   5.384   0.466
 5045TIP3   OH215075   8.107   2.588   6.191
 5045TIP3    H115076   8.142   2.633   6.114
 5045TIP3    H215077   8.083   2.658   6.252
 5046TIP3   OH215078   2.822   6.748   2.881
 5046TIP3    H115079   2.908   6.715   2.909
 5046TIP3    H215080   2.759   6.701   2.936
 5047TIP3   OH215081   2.627   0.839   1.889
 5047TIP3    H115082   2.669   0.755   1.876
 5047TIP3    H215083   2.648   0.864   1.979
 5048TIP3   OH215084   5.559   7.235   0.346
 5048TIP3    H115085   5.597   7.315   0.382
 5048TIP3    H215086   5.635   7.182   0.321
 5049TIP3   OH215087   1.051   3.235   3.736
 5049TIP3    H115088   1.003   3.291   3.798
 5049TIP3    H215089   1.058   3.288   3.657
 5050TIP3   OH215090   6.005   5.710   4.484
 5050TIP3    H115091   5.945   5.637   4.502
 5050TIP3    H215092   5.947   5.783   4.463
 5051TIP3   OH215093   2.266   3.665   1.172
 5051TIP3    H115094   2.250   3.601   1.102
 5051TIP3    H215095   2.324   3.730   1.131
 5052TIP3   OH215096   2.747   6.572   4.386
 5052TIP3    H115097   2.710   6.619   4.312
 5052TIP3    H215098   2.800   6.503   4.346
 5053TIP3   OH215099   3.573   6.694   0.327
 5053TIP3    H115100   3.665   6.700   0.300
 5053TIP3    H215101   3.571   6.736   0.413
 5054TIP3   OH215102   0.809   7.363   0.758
 5054TIP3    H115103   0.877   7.401   0.814
 5054TIP3    H215104   0.817   7.269   0.772
 5055TIP3   OH215105   0.678   7.141   3.053
 5055TIP3    H115106   0.650   7.158   2.963
 5055TIP3    H215107   0.770   7.167   3.055
 5056TIP3   OH215108   5.817   5.628   2.418
 5056TIP3    H115109   5.722   5.636   2.422
 5056TIP3    H215110   5.842   5.671   2.336
 5057TIP3   OH215111   7.481   0.978   1.775
 5057TIP3    H115112   7.419   0.904   1.773
 5057TIP3    H215113   7.457   1.031   1.699
 5058TIP3   OH215114   5.446   1.133   6.732
 5058TIP3    H115115   5.451   1.074   6.808
 5058TIP3    H215116   5.366   1.183   6.746
 5059TIP3   OH215117   0.000   7.562   5.702
 5059TIP3    H115118   0.038   7.584   5.787
 5059TIP3    H215119   0.029   7.473   5.684
 5060TIP3   OH215120   4.302   5.123   6.644
 5060TIP3    H115121   4.326   5.108   6.552
 5060TIP3    H215122   4.367   5.074   6.694
 5061TIP3   OH215123   4.035   7.209   6.453
 5061TIP3    H115124   4.098   7.243   6.390
 5061TIP3    H215125   3.973   7.159   6.400
 5062TIP3   OH215126   1.410   4.139   6.531
 5062TIP3    H115127   1.474   4.162   6.598
 5062TIP3    H215128   1.382   4.223   6.494
 5063TIP3   OH215129   3.912   6.896   3.848
 5063TIP3    H115130   3.942   6.853   3.928
 5063TIP3    H215131   3.887   6.825   3.789
 5064TIP3   OH215132   3.190   0.783   3.521
 5064TIP3    H115133   3.141   0.704   3.496
 5064TIP3    H215134   3.281   0.763   3.498
 5065TIP3   OH215135   0.277   3.236   3.171
 5065TIP3    H115136   0.337   3.164   3.192
 5065TIP3    H215137   0.326   3.290   3.109
 5066TIP3   OH215138   5.604   7.054   6.207
 5066TIP3    H115139   5.626   7.134   6.160
 5066TIP3    H215140   5.540   7.081   6.273
 5067TIP3   OH215141   6.472   3.034   0.662
 5067TIP3    H115142   6.449   2.952   0.617
 5067TIP3    H215143   6.400   3.047   0.724
 5068TIP3   OH215144   1.080   7.003   1.045
 5068TIP3    H115145   1.060   6.940   0.976
 5068TIP3    H215146   0.995   7.037   1.072
 5069TIP3   OH215147   2.047   0.397   1.810
 5069TIP3    H115148   1.985   0.368   1.877
 5069TIP3    H215149   2.013   0.483   1.783
 5070TIP3   OH215150   5.527   7.463   0.715
 5070TIP3    H115151   5.502   7.544   0.670
 5070TIP3    H215152   5.565   7.493   0.798
 5071TIP3   OH215153   6.037   1.571   2.254
 5071TIP3    H115154   6.034   1.661   2.288
 5071TIP3    H215155   6.052   1.582   2.160
 5072TIP3   OH215156   1.704   1.937   1.275
 5072TIP3    H115157   1.670   1.880   1.344
 5072TIP3    H215158   1.760   1.881   1.222
 5073TIP3   OH215159   3.309   7.634   4.177
 5073TIP3    H115160   3.252   7.608   4.105
 5073TIP3    H215161   3.398   7.619   4.144
 5074TIP3   OH215162   7.138   4.946   6.516
 5074TIP3    H115163   7.164   5.033   6.548
 5074TIP3    H215164   7.043   4.944   6.530
 5075TIP3   OH215165   4.463   4.018   0.601
 5075TIP3    H115166   4.456   4.110   0.577
 5075TIP3    H215167   4.388   3.976   0.558
 5076TIP3   OH215168   5.162   7.195   6.555
 5076TIP3    H115169   5.158   7.287   6.585
 5076TIP3    H215170   5.103   7.149   6.615
 5077TIP3   OH215171   0.919   4.242   0.207
 5077TIP3    H115172   0.986   4.308   0.228
 5077TIP3    H215173   0.865   4.237   0.286
 5078TIP3   OH215174   0.314   1.784   2.132
 5078TIP3    H115175   0.404   1.789   2.102
 5078TIP3    H215176   0.317   1.730   2.211
 5079TIP3   OH215177   6.181   2.522   1.035
 5079TIP3    H115178   6.110   2.457   1.029
 5079TIP3    H215179   6.166   2.566   1.118
 5080TIP3   OH215180   7.323   7.806   2.244
 5080TIP3    H115181   7.237   7.773   2.269
 5080TIP3    H215182   7.383   7.772   2.311
 5081TIP3   OH215183   7.954   2.580   2.280
 5081TIP3    H115184   7.914   2.550   2.198
 5081TIP3    H215185   8.043   2.604   2.256
 5082TIP3   OH215186   4.183   6.429   2.566
 5082TIP3    H115187   4.191   6.425   2.471
 5082TIP3    H215188   4.177   6.337   2.593
 5083TIP3   OH215189   2.764   4.644   0.865
 5083TIP3    H115190   2.818   4.628   0.787
 5083TIP3    H215191   2.704   4.714   0.838
 5084TIP3   OH215192   4.486   5.106   5.110
 5084TIP3    H115193   4.476   5.095   5.205
 5084TIP3    H215194   4.411   5.060   5.073
 5085TIP3   OH215195   1.458   2.386   3.711
 5085TIP3    H115196   1.447   2.294   3.690
 5085TIP3    H215197   1.542   2.410   3.670
 5086TIP3   OH215198   3.486   3.562   2.575
 5086TIP3    H115199   3.479   3.539   2.668
 5086TIP3    H215200   3.511   3.481   2.532
 5087TIP3   OH215201   3.847   2.514   6.834
 5087TIP3    H115202   3.788   2.529   6.760
 5087TIP3    H215203   3.856   2.600   6.876
 5088TIP3   OH215204   2.110   4.644   0.708
 5088TIP3    H115205   2.098   4.736   0.686
 5088TIP3    H215206   2.172   4.644   0.781
 5089TIP3   OH215207   0.634   7.391   3.220
 5089TIP3    H115208   0.646   7.484   3.199
 5089TIP3    H215209   0.672   7.345   3.145
 5090TIP3   OH215210   6.419   0.450   1.243
 5090TIP3    H115211   6.352   0.429   1.308
 5090TIP3    H215212   6.382   0.421   1.159
 5091TIP3   OH215213   4.527   2.207   6.201
 5091TIP3    H115214   4.464   2.275   6.225
 5091TIP3    H215215   4.541   2.219   6.107
 5092TIP3   OH215216   4.231   3.736   0.103
 5092TIP3    H115217   4.276   3.779   0.176
 5092TIP3    H215218   4.300   3.720   0.039
 5093TIP3   OH215219   0.696   0.952   5.351
 5093TIP3    H115220   0.778   1.001   5.361
 5093TIP3    H215221   0.697   0.889   5.423
 5094TIP3   OH215222   8.034   7.123   5.422
 5094TIP3    H115223   7.951   7.099   5.462
 5094TIP3    H215224   8.010   7.176   5.346
 5095TIP3   OH215225   2.860   0.105   6.745
 5095TIP3    H115226   2.903   0.190   6.736
 5095TIP3    H215227   2.776   0.126   6.788
 5096TIP3   OH215228   2.139   4.324   5.418
 5096TIP3    H115229   2.051   4.309   5.383
 5096TIP3    H215230   2.141   4.416   5.443
 5097TIP3   OH215231   1.262   2.224   3.847
 5097TIP3    H115232   1.338   2.277   3.824
 5097TIP3    H215233   1.198   2.244   3.779
 5098TIP3   OH215234   0.690   7.835   0.433
 5098TIP3    H115235   0.692   7.921   0.391
 5098TIP3    H215236   0.712   7.852   0.525
 5099TIP3   OH215237   5.800   4.444   5.180
 5099TIP3    H115238   5.706   4.460   5.173
 5099TIP3    H215239   5.831   4.505   5.247
 5100TIP3   OH215240   0.866   3.735  -0.021
 5100TIP3    H115241   0.788   3.753   0.031
 5100TIP3    H215242   0.936   3.725   0.043
 5101TIP3   OH215243   1.047   2.993   6.184
 5101TIP3    H115244   1.103   3.051   6.235
 5101TIP3    H215245   1.034   3.038   6.101
 5102TIP3   OH215246   3.370   1.489   1.631
 5102TIP3    H115247   3.290   1.497   1.682
 5102TIP3    H215248   3.439   1.478   1.697
 5103TIP3   OH215249   5.027   1.875  -0.028
 5103TIP3    H115250   4.974   1.948  -0.060
 5103TIP3    H215251   4.965   1.819   0.018
 5104TIP3   OH215252   7.457   0.943   3.338
 5104TIP3    H115253   7.377   0.996   3.342
 5104TIP3    H215254   7.493   0.960   3.251
 5105TIP3   OH215255   2.759   5.887   1.928
 5105TIP3    H115256   2.770   5.901   2.022
 5105TIP3    H215257   2.713   5.803   1.921
 5106TIP3   OH215258   5.992   2.246   5.025
 5106TIP3    H115259   6.028   2.266   4.939
 5106TIP3    H215260   6.053   2.287   5.087
 5107TIP3   OH215261   7.679   2.441   1.424
 5107TIP3    H115262   7.621   2.517   1.432
 5107TIP3    H215263   7.679   2.402   1.512
 5108TIP3   OH215264   3.799   5.973   4.298
 5108TIP3    H115265   3.889   5.965   4.267
 5108TIP3    H215266   3.758   6.034   4.236
 5109TIP3   OH215267   8.307   4.422   1.000
 5109TIP3    H115268   8.338   4.440   0.911
 5109TIP3    H215269   8.291   4.327   1.001
 5110TIP3   OH215270   4.726   1.645   1.525
 5110TIP3    H115271   4.735   1.647   1.620
 5110TIP3    H215272   4.745   1.735   1.497
 5111TIP3   OH215273   2.674   0.406   2.412
 5111TIP3    H115274   2.641   0.494   2.429
 5111TIP3    H215275   2.604   0.363   2.362
 5112TIP3   OH215276   6.532   4.078   2.098
 5112TIP3    H115277   6.596   4.075   2.168
 5112TIP3    H215278   6.534   3.990   2.060
 5113TIP3   OH215279   4.143   4.366   5.221
 5113TIP3    H115280   4.237   4.347   5.225
 5113TIP3    H215281   4.112   4.318   5.145
 5114TIP3   OH215282   3.319   4.358   4.602
 5114TIP3    H115283   3.295   4.278   4.649
 5114TIP3    H215284   3.241   4.413   4.607
 5115TIP3   OH215285   1.407   3.472   1.821
 5115TIP3    H115286   1.389   3.449   1.730
 5115TIP3    H215287   1.331   3.522   1.849
 5116TIP3   OH215288   0.092   4.377   0.449
 5116TIP3    H115289   0.058   4.320   0.518
 5116TIP3    H215290   0.102   4.320   0.373
 5117TIP3   OH215291   3.518   6.473   1.545
 5117TIP3    H115292   3.549   6.385   1.565
 5117TIP3    H215293   3.532   6.522   1.626
 5118TIP3   OH215294   8.363   0.584   3.575
 5118TIP3    H115295   8.296   0.615   3.636
 5118TIP3    H215296   8.437   0.560   3.631
 5119TIP3   OH215297   1.012   7.874   2.803
 5119TIP3    H115298   1.086   7.896   2.746
 5119TIP3    H215299   1.047   7.882   2.892
 5120TIP3   OH215300   7.935   3.067   0.304
 5120TIP3    H115301   7.953   3.053   0.211
 5120TIP3    H215302   7.856   3.015   0.321
 5121TIP3   OH215303   7.221   7.262   4.124
 5121TIP3    H115304   7.284   7.220   4.066
 5121TIP3    H215305   7.261   7.255   4.211
 5122TIP3   OH215306   1.719   2.460   5.735
 5122TIP3    H115307   1.632   2.450   5.774
 5122TIP3    H215308   1.706   2.438   5.643
 5123TIP3   OH215309   7.878   0.450   6.393
 5123TIP3    H115310   7.789   0.432   6.424
 5123TIP3    H215311   7.878   0.544   6.375
 5124TIP3   OH215312   5.828   5.431   5.327
 5124TIP3    H115313   5.810   5.525   5.316
 5124TIP3    H215314   5.804   5.413   5.418
 5125TIP3   OH215315   5.489   2.664   1.223
 5125TIP3    H115316   5.461   2.606   1.293
 5125TIP3    H215317   5.580   2.639   1.205
 5126TIP3   OH215318   6.792   5.245   1.333
 5126TIP3    H115319   6.827   5.268   1.247
 5126TIP3    H215320   6.810   5.322   1.388
 5127TIP3   OH215321   8.013   2.166   0.513
 5127TIP3    H115322   8.013   2.155   0.608
 5127TIP3    H215323   7.920   2.166   0.489
 5128TIP3   OH215324   4.735   6.476   2.639
 5128TIP3    H115325   4.734   6.396   2.691
 5128TIP3    H215326   4.645   6.508   2.643
 5129TIP3   OH215327   6.770   4.271   2.020
 5129TIP3    H115328   6.776   4.222   2.102
 5129TIP3    H215329   6.829   4.345   2.033
 5130TIP3   OH215330   1.067   4.746   3.468
 5130TIP3    H115331   1.023   4.788   3.393
 5130TIP3    H215332   1.080   4.817   3.530
 5131TIP3   OH215333   1.581   4.384   5.902
 5131TIP3    H115334   1.527   4.396   5.980
 5131TIP3    H215335   1.668   4.362   5.937
 5132TIP3   OH215336   2.819   3.063   0.087
 5132TIP3    H115337   2.756   3.081   0.016
 5132TIP3    H215338   2.783   2.986   0.132
 5133TIP3   OH215339   7.238   1.267   0.393
 5133TIP3    H115340   7.188   1.349   0.389
 5133TIP3    H215341   7.212   1.220   0.314
 5134TIP3   OH215342   5.113   6.462   1.314
 5134TIP3    H115343   5.116   6.413   1.233
 5134TIP3    H215344   5.052   6.413   1.370
 5135TIP3   OH215345   2.469   5.132   0.490
 5135TIP3    H115346   2.497   5.044   0.466
 5135TIP3    H215347   2.375   5.134   0.470
 5136TIP3   OH215348   0.989   2.560   2.477
 5136TIP3    H115349   0.965   2.486   2.533
 5136TIP3    H215350   1.000   2.634   2.536
 5137TIP3   OH215351   0.293   4.347   2.733
 5137TIP3    H115352   0.384   4.348   2.702
 5137TIP3    H215353   0.242   4.381   2.660
 5138TIP3   OH215354   2.119   7.149   1.087
 5138TIP3    H115355   2.207   7.183   1.104
 5138TIP3    H215356   2.096   7.184   1.002
 5139TIP3   OH215357   0.499   5.270   1.092
 5139TIP3    H115358   0.551   5.349   1.082
 5139TIP3    H215359   0.480   5.265   1.186
 5140TIP3   OH215360   3.359   4.013   1.734
 5140TIP3    H115361   3.303   4.078   1.777
 5140TIP3    H215362   3.301   3.969   1.672
 5141TIP3   OH215363   3.651   3.735   5.782
 5141TIP3    H115364   3.564   3.712   5.812
 5141TIP3    H215365   3.640   3.820   5.739
 5142TIP3   OH215366   1.204   4.216   5.513
 5142TIP3    H115367   1.170   4.305   5.501
 5142TIP3    H215368   1.134   4.169   5.558
 5143TIP3   OH215369   1.824   0.117   2.804
 5143TIP3    H115370   1.847   0.153   2.718
 5143TIP3    H215371   1.809   0.194   2.859
 5144TIP3   OH215372   1.259   2.839   5.391
 5144TIP3    H115373   1.302   2.891   5.323
 5144TIP3    H215374   1.329   2.818   5.453
 5145TIP3   OH215375   4.559   7.507   2.760
 5145TIP3    H115376   4.534   7.427   2.712
 5145TIP3    H215377   4.568   7.478   2.851
 5146TIP3   OH215378   2.850   0.546   5.779
 5146TIP3    H115379   2.929   0.599   5.792
 5146TIP3    H215380   2.873   0.460   5.815
 5147TIP3   OH215381   1.380   2.325   4.482
 5147TIP3    H115382   1.444   2.364   4.422
 5147TIP3    H215383   1.296   2.330   4.435
 5148TIP3   OH215384   4.723   5.844   1.126
 5148TIP3    H115385   4.764   5.872   1.044
 5148TIP3    H215386   4.761   5.758   1.144
 5149TIP3   OH215387   1.658   1.306   2.624
 5149TIP3    H115388   1.641   1.229   2.569
 5149TIP3    H215389   1.625   1.380   2.572
 5150TIP3   OH215390   6.708   5.811   2.171
 5150TIP3    H115391   6.664   5.866   2.105
 5150TIP3    H215392   6.745   5.739   2.121
 5151TIP3   OH215393   6.537   4.956   4.461
 5151TIP3    H115394   6.542   5.051   4.477
 5151TIP3    H215395   6.446   4.941   4.435
 5152TIP3   OH215396   0.789   6.610   4.562
 5152TIP3    H115397   0.772   6.621   4.468
 5152TIP3    H215398   0.726   6.669   4.604
 5153TIP3   OH215399   4.800   4.828   2.049
 5153TIP3    H115400   4.832   4.741   2.072
 5153TIP3    H215401   4.776   4.868   2.132
 5154TIP3   OH215402   2.063   5.796   4.134
 5154TIP3    H115403   2.102   5.880   4.160
 5154TIP3    H215404   2.004   5.818   4.062
 5155TIP3   OH215405   3.201   0.128   4.532
 5155TIP3    H115406   3.192   0.092   4.444
 5155TIP3    H215407   3.194   0.223   4.519
 5156TIP3   OH215408   1.877   6.667   2.598
 5156TIP3    H115409   1.802   6.608   2.603
 5156TIP3    H215410   1.852   6.733   2.534
 5157TIP3   OH215411   5.981   7.152   1.768
 5157TIP3    H115412   6.024   7.193   1.692
 5157TIP3    H215413   5.915   7.217   1.795
 5158TIP3   OH215414   4.934   7.783   6.684
 5158TIP3    H115415   4.890   7.821   6.760
 5158TIP3    H215416   5.019   7.826   6.681
 5159TIP3   OH215417   4.319   0.842   6.641
 5159TIP3    H115418   4.407   0.879   6.637
 5159TIP3    H215419   4.308   0.796   6.557
 5160TIP3   OH215420   3.676   2.839   1.866
 5160TIP3    H115421   3.727   2.795   1.797
 5160TIP3    H215422   3.715   2.926   1.872
 5161TIP3   OH215423   8.134   3.251   0.372
 5161TIP3    H115424   8.077   3.175   0.356
 5161TIP3    H215425   8.096   3.293   0.449
 5162TIP3   OH215426   2.547   1.682   4.500
 5162TIP3    H115427   2.527   1.611   4.561
 5162TIP3    H215428   2.461   1.713   4.471
 5163TIP3   OH215429   2.699   6.940   1.936
 5163TIP3    H115430   2.615   6.943   1.890
 5163TIP3    H215431   2.705   6.852   1.971
 5164TIP3   OH215432   1.337   3.023   6.010
 5164TIP3    H115433   1.315   3.061   5.925
 5164TIP3    H215434   1.401   3.083   6.048
 5165TIP3   OH215435   5.962   0.502   5.404
 5165TIP3    H115436   5.997   0.521   5.317
 5165TIP3    H215437   6.021   0.435   5.439
 5166TIP3   OH215438   0.834   0.255   2.332
 5166TIP3    H115439   0.811   0.164   2.311
 5166TIP3    H215440   0.818   0.303   2.251
 5167TIP3   OH215441   4.754   3.349   0.748
 5167TIP3    H115442   4.665   3.343   0.783
 5167TIP3    H215443   4.755   3.290   0.673
 5168TIP3   OH215444   6.766   3.115   5.401
 5168TIP3    H115445   6.681   3.113   5.356
 5168TIP3    H215446   6.784   3.024   5.423
 5169TIP3   OH215447   2.851   0.467   0.566
 5169TIP3    H115448   2.763   0.436   0.587
 5169TIP3    H215449   2.839   0.531   0.496
 5170TIP3   OH215450   0.501   3.986   5.074
 5170TIP3    H115451   0.589   3.952   5.061
 5170TIP3    H215452   0.511   4.055   5.139
 5171TIP3   OH215453   7.278   0.136   4.771
 5171TIP3    H115454   7.359   0.089   4.752
 5171TIP3    H215455   7.210   0.068   4.774
 5172TIP3   OH215456   2.414   5.637   3.604
 5172TIP3    H115457   2.503   5.611   3.628
 5172TIP3    H215458   2.400   5.598   3.517
 5173TIP3   OH215459   3.169   6.674   2.271
 5173TIP3    H115460   3.209   6.692   2.186
 5173TIP3    H215461   3.123   6.591   2.258
 5174TIP3   OH215462   3.639   7.811   1.500
 5174TIP3    H115463   3.598   7.768   1.575
 5174TIP3    H215464   3.622   7.904   1.514
 5175TIP3   OH215465   2.078   2.967   5.212
 5175TIP3    H115466   2.087   2.878   5.246
 5175TIP3    H215467   2.112   3.023   5.280
 5176TIP3   OH215468   0.722   3.185   4.858
 5176TIP3    H115469   0.642   3.192   4.910
 5176TIP3    H215470   0.691   3.167   4.769
 5177TIP3   OH215471   7.916   6.870   1.607
 5177TIP3    H115472   7.844   6.892   1.667
 5177TIP3    H215473   7.988   6.843   1.664
 5178TIP3   OH215474   0.976   0.822   0.276
 5178TIP3    H115475   0.967   0.917   0.275
 5178TIP3    H215476   1.060   0.807   0.320
 5179TIP3   OH215477   5.704   3.453   3.344
 5179TIP3    H115478   5.672   3.466   3.255
 5179TIP3    H215479   5.733   3.362   3.346
 5180TIP3   OH215480   7.670   4.247   6.519
 5180TIP3    H115481   7.597   4.302   6.549
 5180TIP3    H215482   7.658   4.164   6.566
 5181TIP3   OH215483   2.906   4.549   6.583
 5181TIP3    H115484   2.875   4.618   6.641
 5181TIP3    H215485   2.830   4.529   6.528
 5182TIP3   OH215486   6.399   4.636   4.375
 5182TIP3    H115487   6.326   4.697   4.388
 5182TIP3    H215488   6.420   4.645   4.282
 5183TIP3   OH215489   3.934   1.761   4.191
 5183TIP3    H115490   3.989   1.805   4.126
 5183TIP3    H215491   3.844   1.781   4.164
 5184TIP3   OH215492   4.336   2.501   5.581
 5184TIP3    H115493   4.289   2.582   5.564
 5184TIP3    H215494   4.364   2.470   5.495
 5185TIP3   OH215495   5.396   4.172   2.535
 5185TIP3    H115496   5.369   4.112   2.464
 5185TIP3    H215497   5.371   4.259   2.504
 5186TIP3   OH215498   1.105   0.285   3.259
 5186TIP3    H115499   1.019   0.309   3.225
 5186TIP3    H215500   1.167   0.322   3.196
 5187TIP3   OH215501   6.875   0.280   2.957
 5187TIP3    H115502   6.971   0.272   2.957
 5187TIP3    H215503   6.844   0.195   2.988
 5188TIP3   OH215504   5.598   0.772   5.755
 5188TIP3    H115505   5.548   0.848   5.786
 5188TIP3    H215506   5.670   0.765   5.816
 5189TIP3   OH215507   3.559   5.565   0.455
 5189TIP3    H115508   3.485   5.593   0.400
 5189TIP3    H215509   3.572   5.472   0.432
 5190TIP3   OH215510   7.964   4.203   3.236
 5190TIP3    H115511   7.955   4.108   3.238
 5190TIP3    H215512   7.976   4.229   3.327
 5191TIP3   OH215513   1.265   1.166   4.346
 5191TIP3    H115514   1.271   1.203   4.434
 5191TIP3    H215515   1.304   1.234   4.290
 5192TIP3   OH215516   6.609   4.184   6.176
 5192TIP3    H115517   6.558   4.265   6.174
 5192TIP3    H215518   6.550   4.118   6.141
 5193TIP3   OH215519   0.138   6.223   4.408
 5193TIP3    H115520   0.190   6.183   4.338
 5193TIP3    H215521   0.202   6.243   4.476
 5194TIP3   OH215522   4.212   3.523   5.884
 5194TIP3    H115523   4.170   3.608   5.897
 5194TIP3    H215524   4.144   3.470   5.842
 5195TIP3   OH215525   8.260   5.732   1.372
 5195TIP3    H115526   8.165   5.725   1.384
 5195TIP3    H215527   8.292   5.766   1.456
 5196TIP3   OH215528   8.306   0.523   0.638
 5196TIP3    H115529   8.216   0.496   0.625
 5196TIP3    H215530   8.306   0.617   0.620
 5197TIP3   OH215531   2.791   2.894   1.074
 5197TIP3    H115532   2.733   2.860   1.142
 5197TIP3    H215533   2.875   2.909   1.119
 5198TIP3   OH215534   6.497   5.771   4.270
 5198TIP3    H115535   6.424   5.762   4.332
 5198TIP3    H215536   6.455   5.769   4.184
 5199TIP3   OH215537   1.282   0.036   1.988
 5199TIP3    H115538   1.192   0.059   2.011
 5199TIP3    H215539   1.276  -0.050   1.948
 5200TIP3   OH215540   3.581   3.975   0.447
 5200TIP3    H115541   3.605   3.960   0.356
 5200TIP3    H215542   3.547   3.890   0.477
 5201TIP3   OH215543   3.050   6.298   0.247
 5201TIP3    H115544   3.087   6.239   0.313
 5201TIP3    H215545   3.124   6.323   0.193
 5202TIP3   OH215546   6.814   1.177   5.122
 5202TIP3    H115547   6.864   1.236   5.179
 5202TIP3    H215548   6.734   1.158   5.172
 5203TIP3   OH215549   0.947   3.988   0.132
 5203TIP3    H115550   0.869   3.981   0.077
 5203TIP3    H215551   0.956   4.082   0.148
 5204TIP3   OH215552   2.189   4.920   2.257
 5204TIP3    H115553   2.181   4.877   2.342
 5204TIP3    H215554   2.195   4.847   2.195
 5205TIP3   OH215555   2.032   7.068   5.193
 5205TIP3    H115556   2.117   7.073   5.236
 5205TIP3    H215557   2.051   7.062   5.100
 5206TIP3   OH215558   8.308   4.532   6.674
 5206TIP3    H115559   8.318   4.501   6.585
 5206TIP3    H215560   8.233   4.592   6.671
 5207TIP3   OH215561   5.225   7.404   1.923
 5207TIP3    H115562   5.310   7.448   1.923
 5207TIP3    H215563   5.244   7.315   1.894
 5208TIP3   OH215564   7.320   3.499   6.474
 5208TIP3    H115565   7.404   3.472   6.511
 5208TIP3    H215566   7.257   3.485   6.545
 5209TIP3   OH215567   6.047   3.079   6.336
 5209TIP3    H115568   6.138   3.092   6.362
 5209TIP3    H215569   6.029   2.987   6.353
 5210TIP3   OH215570   1.132   0.784   1.035
 5210TIP3    H115571   1.114   0.874   1.008
 5210TIP3    H215572   1.218   0.765   0.997
 5211TIP3   OH215573   7.713   6.859   2.381
 5211TIP3    H115574   7.762   6.881   2.461
 5211TIP3    H215575   7.659   6.937   2.364
 5212TIP3   OH215576   5.776   0.316   5.186
 5212TIP3    H115577   5.814   0.229   5.200
 5212TIP3    H215578   5.765   0.322   5.091
 5213TIP3   OH215579   5.964   4.709   5.054
 5213TIP3    H115580   6.028   4.650   5.014
 5213TIP3    H215581   6.011   4.793   5.063
 5214TIP3   OH215582   3.742   1.105   5.157
 5214TIP3    H115583   3.733   1.040   5.226
 5214TIP3    H215584   3.778   1.182   5.201
 5215TIP3   OH215585   1.700   7.110   0.932
 5215TIP3    H115586   1.631   7.084   0.870
 5215TIP3    H215587   1.727   7.197   0.902
 5216TIP3   OH215588   3.998   7.060   3.134
 5216TIP3    H115589   3.937   6.993   3.103
 5216TIP3    H215590   4.066   7.064   3.066
 5217TIP3   OH215591   3.862   4.390   6.009
 5217TIP3    H115592   3.861   4.451   6.083
 5217TIP3    H215593   3.953   4.360   6.005
 5218TIP3   OH215594   4.290   5.522   1.014
 5218TIP3    H115595   4.247   5.569   1.085
 5218TIP3    H215596   4.383   5.543   1.024
 5219TIP3   OH215597   2.672   5.145   5.661
 5219TIP3    H115598   2.686   5.198   5.582
 5219TIP3    H215599   2.754   5.097   5.673
 5220TIP3   OH215600   1.635   0.250   6.211
 5220TIP3    H115601   1.658   0.157   6.208
 5220TIP3    H215602   1.610   0.272   6.121
 5221TIP3   OH215603   6.405   6.639   0.152
 5221TIP3    H115604   6.389   6.611   0.242
 5221TIP3    H215605   6.417   6.557   0.104
 5222TIP3   OH215606   3.133   5.935   2.226
 5222TIP3    H115607   3.106   5.978   2.307
 5222TIP3    H215608   3.165   6.006   2.171
 5223TIP3   OH215609   7.378   3.487   0.991
 5223TIP3    H115610   7.408   3.578   0.992
 5223TIP3    H215611   7.405   3.454   0.905
 5224TIP3   OH215612   1.074   0.936   6.206
 5224TIP3    H115613   0.980   0.939   6.220
 5224TIP3    H215614   1.084   0.917   6.113
 5225TIP3   OH215615   5.907   6.042   2.994
 5225TIP3    H115616   5.870   5.965   2.950
 5225TIP3    H215617   5.996   6.048   2.961
 5226TIP3   OH215618   5.912   4.589   2.607
 5226TIP3    H115619   6.004   4.598   2.584
 5226TIP3    H215620   5.914   4.566   2.700
 5227TIP3   OH215621   3.964   5.872   2.651
 5227TIP3    H115622   3.963   5.776   2.651
 5227TIP3    H215623   3.873   5.897   2.642
 5228TIP3   OH215624   7.158   2.415   6.678
 5228TIP3    H115625   7.157   2.458   6.763
 5228TIP3    H215626   7.171   2.485   6.615
 5229TIP3   OH215627   4.580   2.701   5.058
 5229TIP3    H115628   4.675   2.712   5.059
 5229TIP3    H215629   4.550   2.747   5.136
 5230TIP3   OH215630   5.964   0.692   3.015
 5230TIP3    H115631   5.902   0.765   3.010
 5230TIP3    H215632   5.972   0.673   3.109
 5231TIP3   OH215633   6.436   7.536   1.195
 5231TIP3    H115634   6.405   7.536   1.105
 5231TIP3    H215635   6.443   7.443   1.218
 5232TIP3   OH215636   3.332   6.642   0.183
 5232TIP3    H115637   3.415   6.651   0.231
 5232TIP3    H215638   3.268   6.686   0.238
 5233TIP3   OH215639   6.871   5.878   6.457
 5233TIP3    H115640   6.829   5.792   6.462
 5233TIP3    H215641   6.827   5.930   6.524
 5234TIP3   OH215642   4.252   2.908   1.261
 5234TIP3    H115643   4.221   2.933   1.173
 5234TIP3    H215644   4.310   2.979   1.287
 5235TIP3   OH215645   6.534   3.085   6.596
 5235TIP3    H115646   6.617   3.078   6.644
 5235TIP3    H215647   6.477   3.020   6.637
 5236TIP3   OH215648   3.353   0.978   1.704
 5236TIP3    H115649   3.369   1.036   1.630
 5236TIP3    H215650   3.439   0.969   1.746
 5237TIP3   OH215651   1.424   0.044   3.295
 5237TIP3    H115652   1.385  -0.008   3.224
 5237TIP3    H215653   1.351   0.096   3.329
 5238TIP3   OH215654   4.056   5.127   6.172
 5238TIP3    H115655   4.019   5.040   6.156
 5238TIP3    H215656   4.012   5.183   6.108
 5239TIP3   OH215657   0.391   0.198   0.114
 5239TIP3    H115658   0.420   0.219   0.026
 5239TIP3    H215659   0.327   0.127   0.102
 5240TIP3   OH215660   2.597   3.835   5.125
 5240TIP3    H115661   2.663   3.890   5.167
 5240TIP3    H215662   2.514   3.876   5.146
 5241TIP3   OH215663   2.551   6.227   2.351
 5241TIP3    H115664   2.467   6.272   2.343
 5241TIP3    H215665   2.556   6.172   2.274
 5242TIP3   OH215666   4.155   1.584   3.344
 5242TIP3    H115667   4.228   1.644   3.362
 5242TIP3    H215668   4.142   1.536   3.427
 5243TIP3   OH215669   5.151   6.946   0.948
 5243TIP3    H115670   5.214   6.876   0.934
 5243TIP3    H215671   5.109   6.925   1.031
 5244TIP3   OH215672   7.580   0.379   5.475
 5244TIP3    H115673   7.550   0.350   5.561
 5244TIP3    H215674   7.538   0.318   5.414
 5245TIP3   OH215675   7.842   5.533   0.748
 5245TIP3    H115676   7.752   5.501   0.750
 5245TIP3    H215677   7.896   5.454   0.754
 5246TIP3   OH215678   1.224   7.755   2.596
 5246TIP3    H115679   1.223   7.738   2.690
 5246TIP3    H215680   1.225   7.851   2.589
 5247TIP3   OH215681   4.507   7.753   4.114
 5247TIP3    H115682   4.435   7.770   4.053
 5247TIP3    H215683   4.503   7.659   4.131
 5248TIP3   OH215684   2.961   5.051   4.298
 5248TIP3    H115685   2.880   5.051   4.349
 5248TIP3    H215686   3.031   5.064   4.362
 5249TIP3   OH215687   6.652   3.860   1.115
 5249TIP3    H115688   6.706   3.872   1.036
 5249TIP3    H215689   6.565   3.892   1.089
 5250TIP3   OH215690   4.628   7.176   3.769
 5250TIP3    H115691   4.683   7.156   3.693
 5250TIP3    H215692   4.555   7.226   3.734
 5251TIP3   OH215693   0.537   1.859   3.114
 5251TIP3    H115694   0.446   1.879   3.137
 5251TIP3    H215695   0.551   1.904   3.031
 5252TIP3   OH215696   0.630   1.677   0.825
 5252TIP3    H115697   0.723   1.664   0.803
 5252TIP3    H215698   0.604   1.597   0.870
 5253TIP3   OH215699   4.065   3.375   5.587
 5253TIP3    H115700   4.114   3.419   5.518
 5253TIP3    H215701   4.032   3.295   5.545
 5254TIP3   OH215702   5.500   7.746   0.599
 5254TIP3    H115703   5.522   7.779   0.511
 5254TIP3    H215704   5.412   7.778   0.615
 5255TIP3   OH215705   5.505   4.597   6.189
 5255TIP3    H115706   5.584   4.546   6.205
 5255TIP3    H215707   5.433   4.539   6.215
 5256TIP3   OH215708   2.288   1.218   6.550
 5256TIP3    H115709   2.378   1.243   6.535
 5256TIP3    H215710   2.240   1.300   6.556
 5257TIP3   OH215711   0.588   1.092   1.823
 5257TIP3    H115712   0.513   1.067   1.769
 5257TIP3    H215713   0.551   1.107   1.910
 5258TIP3   OH215714   1.261   5.545   5.004
 5258TIP3    H115715   1.229   5.484   5.070
 5258TIP3    H215716   1.350   5.565   5.031
 5259TIP3   OH215717   1.344   7.281   5.331
 5259TIP3    H115718   1.301   7.202   5.363
 5259TIP3    H215719   1.332   7.345   5.401
 5260TIP3   OH215720   2.840   4.441   4.633
 5260TIP3    H115721   2.755   4.456   4.594
 5260TIP3    H215722   2.886   4.385   4.570
 5261TIP3   OH215723   5.413   5.905   4.937
 5261TIP3    H115724   5.473   5.961   4.987
 5261TIP3    H215725   5.326   5.927   4.969
 5262TIP3   OH215726   2.462   5.742   6.091
 5262TIP3    H115727   2.545   5.707   6.124
 5262TIP3    H215728   2.447   5.695   6.009
 5263TIP3   OH215729   6.412   5.607   5.307
 5263TIP3    H115730   6.483   5.596   5.244
 5263TIP3    H215731   6.431   5.542   5.375
 5264TIP3   OH215732   0.916   0.249   4.164
 5264TIP3    H115733   0.879   0.172   4.207
 5264TIP3    H215734   1.009   0.246   4.186
 5265TIP3   OH215735   7.264   5.376   5.062
 5265TIP3    H115736   7.352   5.402   5.038
 5265TIP3    H215737   7.265   5.280   5.061
 5266TIP3   OH215738   5.332   1.048   1.404
 5266TIP3    H115739   5.279   1.100   1.344
 5266TIP3    H215740   5.324   1.093   1.488
 5267TIP3   OH215741   7.509   4.350   0.293
 5267TIP3    H115742   7.429   4.297   0.300
 5267TIP3    H215743   7.501   4.393   0.208
 5268TIP3   OH215744   1.336   2.739   0.448
 5268TIP3    H115745   1.289   2.657   0.460
 5268TIP3    H215746   1.269   2.806   0.450
 5269TIP3   OH215747   1.416   1.085   0.826
 5269TIP3    H115748   1.332   1.121   0.799
 5269TIP3    H215749   1.403   1.062   0.918
 5270TIP3   OH215750   0.921   5.965   3.856
 5270TIP3    H115751   0.836   5.969   3.811
 5270TIP3    H215752   0.976   5.914   3.797
 5271TIP3   OH215753   0.463   6.090   0.920
 5271TIP3    H115754   0.514   6.127   0.992
 5271TIP3    H215755   0.526   6.082   0.848
 5272TIP3   OH215756   2.914   5.662   2.077
 5272TIP3    H115757   2.877   5.624   1.998
 5272TIP3    H215758   3.008   5.671   2.058
 5273TIP3   OH215759   7.240   3.268   5.841
 5273TIP3    H115760   7.327   3.275   5.802
 5273TIP3    H215761   7.240   3.334   5.911
 5274TIP3   OH215762   0.078   6.337   2.306
 5274TIP3    H115763   0.013   6.315   2.372
 5274TIP3    H215764   0.049   6.292   2.227
 5275TIP3   OH215765   4.960   6.618   2.724
 5275TIP3    H115766   4.883   6.569   2.693
 5275TIP3    H215767   4.963   6.601   2.818
 5276TIP3   OH215768   1.851   5.276   4.390
 5276TIP3    H115769   1.874   5.303   4.301
 5276TIP3    H215770   1.765   5.235   4.380
 5277TIP3   OH215771   5.280   1.215   4.120
 5277TIP3    H115772   5.271   1.305   4.088
 5277TIP3    H215773   5.197   1.173   4.098
 5278TIP3   OH215774   5.726   1.876   3.911
 5278TIP3    H115775   5.718   1.971   3.903
 5278TIP3    H215776   5.636   1.845   3.922
 5279TIP3   OH215777   5.645   3.195   2.609
 5279TIP3    H115778   5.722   3.151   2.575
 5279TIP3    H215779   5.647   3.282   2.570
 5280TIP3   OH215780   4.673   0.601   6.030
 5280TIP3    H115781   4.671   0.669   6.098
 5280TIP3    H215782   4.679   0.519   6.078
 5281TIP3   OH215783   0.174   5.012   6.209
 5281TIP3    H115784   0.241   4.944   6.196
 5281TIP3    H215785   0.178   5.065   6.129
 5282TIP3   OH215786   5.077   4.542   3.636
 5282TIP3    H115787   5.002   4.489   3.609
 5282TIP3    H215788   5.112   4.577   3.554
 5283TIP3   OH215789   8.237   2.625   2.205
 5283TIP3    H115790   8.243   2.721   2.205
 5283TIP3    H215791   8.295   2.597   2.276
 5284TIP3   OH215792   3.991   0.517   3.212
 5284TIP3    H115793   4.081   0.532   3.242
 5284TIP3    H215794   3.951   0.603   3.213
 5285TIP3   OH215795   6.249   1.018   2.423
 5285TIP3    H115796   6.176   0.971   2.462
 5285TIP3    H215797   6.326   0.983   2.468
 5286TIP3   OH215798   4.632   6.152   5.962
 5286TIP3    H115799   4.712   6.187   5.923
 5286TIP3    H215800   4.630   6.061   5.933
 5287TIP3   OH215801   5.836   6.125   3.523
 5287TIP3    H115802   5.777   6.126   3.598
 5287TIP3    H215803   5.791   6.177   3.456
 5288TIP3   OH215804   4.695   3.420   1.637
 5288TIP3    H115805   4.716   3.512   1.650
 5288TIP3    H215806   4.743   3.395   1.559
 5289TIP3   OH215807   1.693   6.861   0.078
 5289TIP3    H115808   1.671   6.954   0.072
 5289TIP3    H215809   1.761   6.848   0.012
 5290TIP3   OH215810   5.799   2.207   3.439
 5290TIP3    H115811   5.718   2.248   3.470
 5290TIP3    H215812   5.774   2.163   3.357
 5291TIP3   OH215813   0.838   2.728   3.729
 5291TIP3    H115814   0.802   2.780   3.657
 5291TIP3    H215815   0.924   2.700   3.697
 5292TIP3   OH215816   7.534   5.948   2.096
 5292TIP3    H115817   7.572   5.860   2.105
 5292TIP3    H215818   7.563   5.995   2.174
 5293TIP3   OH215819   7.742   3.909   2.067
 5293TIP3    H115820   7.670   3.864   2.022
 5293TIP3    H215821   7.739   3.874   2.157
 5294TIP3   OH215822   2.136   0.172   3.699
 5294TIP3    H115823   2.196   0.121   3.753
 5294TIP3    H215824   2.073   0.109   3.666
 5295TIP3   OH215825   2.728   0.323   4.882
 5295TIP3    H115826   2.713   0.265   4.956
 5295TIP3    H215827   2.671   0.289   4.813
 5296TIP3   OH215828   2.767   2.285   0.442
 5296TIP3    H115829   2.682   2.248   0.465
 5296TIP3    H215830   2.757   2.311   0.350
 5297TIP3   OH215831   0.438   6.959   0.265
 5297TIP3    H115832   0.503   6.978   0.197
 5297TIP3    H215833   0.437   7.037   0.320
 5298TIP3   OH215834   2.069   7.267   6.308
 5298TIP3    H115835   2.164   7.267   6.297
 5298TIP3    H215836   2.036   7.303   6.226
 5299TIP3   OH215837   3.206   3.245   5.527
 5299TIP3    H115838   3.287   3.222   5.481
 5299TIP3    H215839   3.201   3.341   5.520
 5300TIP3   OH215840   5.245   0.311   0.856
 5300TIP3    H115841   5.181   0.262   0.908
 5300TIP3    H215842   5.192   0.372   0.804
 5301TIP3   OH215843   3.267   6.659   2.560
 5301TIP3    H115844   3.222   6.742   2.576
 5301TIP3    H215845   3.318   6.674   2.480
 5302TIP3   OH215846   3.370   3.073   4.219
 5302TIP3    H115847   3.449   3.049   4.170
 5302TIP3    H215848   3.362   3.167   4.208
 5303TIP3   OH215849   7.612   4.609   3.095
 5303TIP3    H115850   7.702   4.601   3.128
 5303TIP3    H215851   7.596   4.526   3.051
 5304TIP3   OH215852   3.340   6.433   5.308
 5304TIP3    H115853   3.395   6.358   5.283
 5304TIP3    H215854   3.279   6.443   5.235
 5305TIP3   OH215855   0.082   6.517   1.461
 5305TIP3    H115856   0.010   6.455   1.469
 5305TIP3    H215857   0.132   6.506   1.541
 5306TIP3   OH215858   5.476   0.709   4.042
 5306TIP3    H115859   5.560   0.668   4.062
 5306TIP3    H215860   5.450   0.752   4.124
 5307TIP3   OH215861   6.530   0.445   0.026
 5307TIP3    H115862   6.522   0.539   0.045
 5307TIP3    H215863   6.474   0.431  -0.050
 5308TIP3   OH215864   1.563   0.792   0.526
 5308TIP3    H115865   1.502   0.750   0.587
 5308TIP3    H215866   1.648   0.752   0.546
 5309TIP3   OH215867   3.592   3.141   3.751
 5309TIP3    H115868   3.540   3.099   3.683
 5309TIP3    H215869   3.671   3.087   3.757
 5310TIP3   OH215870   4.073   2.664   0.320
 5310TIP3    H115871   4.106   2.722   0.252
 5310TIP3    H215872   4.053   2.723   0.393
 5311TIP3   OH215873   3.476   0.561   0.883
 5311TIP3    H115874   3.438   0.535   0.799
 5311TIP3    H215875   3.447   0.651   0.897
 5312TIP3   OH215876   4.103   4.435   1.527
 5312TIP3    H115877   4.101   4.500   1.597
 5312TIP3    H215878   4.074   4.354   1.569
 5313TIP3   OH215879   6.345   0.366   2.238
 5313TIP3    H115880   6.277   0.408   2.184
 5313TIP3    H215881   6.380   0.297   2.182
 5314TIP3   OH215882   7.123   1.785   0.166
 5314TIP3    H115883   7.145   1.705   0.214
 5314TIP3    H215884   7.027   1.791   0.173
 5315TIP3   OH215885   8.269   0.778   5.585
 5315TIP3    H115886   8.332   0.764   5.515
 5315TIP3    H215887   8.241   0.690   5.610
 5316TIP3   OH215888   7.447   7.306   5.597
 5316TIP3    H115889   7.362   7.324   5.557
 5316TIP3    H215890   7.429   7.235   5.660
 5317TIP3   OH215891   7.665   2.912   2.929
 5317TIP3    H115892   7.612   2.868   2.995
 5317TIP3    H215893   7.744   2.859   2.922
 5318TIP3   OH215894   0.844   6.812   5.649
 5318TIP3    H115895   0.787   6.820   5.573
 5318TIP3    H215896   0.792   6.846   5.722
 5319TIP3   OH215897   4.618   2.269   5.909
 5319TIP3    H115898   4.561   2.344   5.928
 5319TIP3    H215899   4.706   2.302   5.926
 5320TIP3   OH215900   6.692   3.604   1.255
 5320TIP3    H115901   6.773   3.578   1.299
 5320TIP3    H215902   6.717   3.682   1.204
 5321TIP3   OH215903   6.680   0.468   3.053
 5321TIP3    H115904   6.635   0.496   2.974
 5321TIP3    H215905   6.746   0.406   3.023
 5322TIP3   OH215906   0.394   1.228   3.097
 5322TIP3    H115907   0.320   1.288   3.107
 5322TIP3    H215908   0.457   1.276   3.044
 5323TIP3   OH215909   2.700   6.548   1.937
 5323TIP3    H115910   2.738   6.479   1.990
 5323TIP3    H215911   2.657   6.606   2.000
 5324TIP3   OH215912   5.976   3.982   6.269
 5324TIP3    H115913   5.962   4.073   6.294
 5324TIP3    H215914   5.910   3.933   6.318
 5325TIP3   OH215915   2.306   2.406   5.756
 5325TIP3    H115916   2.400   2.388   5.754
 5325TIP3    H215917   2.285   2.411   5.850
 5326TIP3   OH215918   7.749   2.869   0.288
 5326TIP3    H115919   7.754   2.788   0.236
 5326TIP3    H215920   7.780   2.844   0.375
 5327TIP3   OH215921   3.441   5.372   6.840
 5327TIP3    H115922   3.403   5.390   6.754
 5327TIP3    H215923   3.400   5.290   6.867
 5328TIP3   OH215924   1.412   1.116   5.945
 5328TIP3    H115925   1.364   1.192   5.910
 5328TIP3    H215926   1.470   1.153   6.011
 5329TIP3   OH215927   4.238   5.762   6.412
 5329TIP3    H115928   4.166   5.701   6.427
 5329TIP3    H215929   4.257   5.798   6.499
 5330TIP3   OH215930   1.278   4.413   0.039
 5330TIP3    H115931   1.264   4.452  -0.048
 5330TIP3    H215932   1.348   4.349   0.025
 5331TIP3   OH215933   7.875   7.381   1.040
 5331TIP3    H115934   7.821   7.307   1.066
 5331TIP3    H215935   7.964   7.345   1.033
 5332TIP3   OH215936   4.338   5.796   4.898
 5332TIP3    H115937   4.301   5.722   4.850
 5332TIP3    H215938   4.393   5.841   4.834
 5333TIP3   OH215939   5.122   5.358   1.403
 5333TIP3    H115940   5.041   5.339   1.450
 5333TIP3    H215941   5.093   5.380   1.314
 5334TIP3   OH215942   0.827   3.027   1.069
 5334TIP3    H115943   0.864   3.046   1.155
 5334TIP3    H215944   0.840   3.108   1.019
 5335TIP3   OH215945   7.693   1.492   4.342
 5335TIP3    H115946   7.655   1.568   4.386
 5335TIP3    H215947   7.775   1.524   4.305
 5336TIP3   OH215948   7.328   1.718   0.019
 5336TIP3    H115949   7.253   1.752   0.068
 5336TIP3    H215950   7.373   1.796  -0.013
 5337TIP3   OH215951   6.430   2.937   3.043
 5337TIP3    H115952   6.336   2.932   3.028
 5337TIP3    H215953   6.442   2.905   3.132
 5338TIP3   OH215954   8.084   4.767   3.523
 5338TIP3    H115955   8.038   4.697   3.569
 5338TIP3    H215956   8.016   4.813   3.474
 5339TIP3   OH215957   0.371   0.083   4.496
 5339TIP3    H115958   0.284   0.056   4.525
 5339TIP3    H215959   0.374   0.059   4.403
 5340TIP3   OH215960   0.863   6.144   4.430
 5340TIP3    H115961   0.851   6.191   4.348
 5340TIP3    H215962   0.844   6.053   4.409
 5341TIP3   OH215963   8.173   6.943   1.753
 5341TIP3    H115964   8.142   6.939   1.843
 5341TIP3    H215965   8.265   6.969   1.760
 5342TIP3   OH215966   4.560   5.553   3.165
 5342TIP3    H115967   4.470   5.548   3.132
 5342TIP3    H215968   4.550   5.577   3.257
 5343TIP3   OH215969   3.897   6.910   2.319
 5343TIP3    H115970   3.897   6.869   2.232
 5343TIP3    H215971   3.818   6.877   2.361
 5344TIP3   OH215972   2.736   5.278   3.153
 5344TIP3    H115973   2.785   5.357   3.176
 5344TIP3    H215974   2.652   5.289   3.198
 5345TIP3   OH215975   2.380   2.509   4.094
 5345TIP3    H115976   2.455   2.545   4.142
 5345TIP3    H215977   2.411   2.501   4.004
 5346TIP3   OH215978   3.497   3.365   5.680
 5346TIP3    H115979   3.414   3.385   5.636
 5346TIP3    H215980   3.471   3.323   5.762
 5347TIP3   OH215981   6.735   2.871   6.031
 5347TIP3    H115982   6.784   2.796   6.064
 5347TIP3    H215983   6.712   2.921   6.110
 5348TIP3   OH215984   8.062   7.360   6.566
 5348TIP3    H115985   8.148   7.372   6.525
 5348TIP3    H215986   8.024   7.284   6.522
 5349TIP3   OH215987   0.141   4.818   0.632
 5349TIP3    H115988   0.170   4.743   0.685
 5349TIP3    H215989   0.180   4.894   0.675
 5350TIP3   OH215990   8.057   7.069   4.193
 5350TIP3    H115991   7.973   7.108   4.167
 5350TIP3    H215992   8.071   6.998   4.131
 5351TIP3   OH215993   5.361   2.812   3.559
 5351TIP3    H115994   5.421   2.828   3.633
 5351TIP3    H215995   5.280   2.783   3.600
 5352TIP3   OH215996   4.180   7.326   5.037
 5352TIP3    H115997   4.161   7.411   4.997
 5352TIP3    H215998   4.101   7.304   5.085
 5353TIP3   OH215999   1.195   1.703   4.792
 5353TIP3    H116000   1.163   1.619   4.824
 5353TIP3    H216001   1.264   1.728   4.854
 5354TIP3   OH216002   6.974   1.843   3.989
 5354TIP3    H116003   6.907   1.774   3.990
 5354TIP3    H216004   7.051   1.801   4.027
 5355TIP3   OH216005   4.366   2.939   4.578
 5355TIP3    H116006   4.444   2.964   4.528
 5355TIP3    H216007   4.398   2.926   4.667
 5356TIP3   OH216008   0.754   0.628   6.646
 5356TIP3    H116009   0.813   0.664   6.712
 5356TIP3    H216010   0.783   0.667   6.563
 5357TIP3   OH216011   6.058   7.076   5.155
 5357TIP3    H116012   6.069   7.169   5.178
 5357TIP3    H216013   5.987   7.076   5.091
 5358TIP3   OH216014   5.326   5.375   1.585
 5358TIP3    H116015   5.385   5.445   1.556
 5358TIP3    H216016   5.259   5.371   1.517
 5359TIP3   OH216017   8.178   0.353   4.948
 5359TIP3    H116018   8.151   0.367   5.039
 5359TIP3    H216019   8.164   0.259   4.933
 5360TIP3   OH216020   4.013   3.143   3.748
 5360TIP3    H116021   3.933   3.166   3.701
 5360TIP3    H216022   3.984   3.084   3.818
 5361TIP3   OH216023   4.821   0.019   2.951
 5361TIP3    H116024   4.863   0.007   3.036
 5361TIP3    H216025   4.800  -0.070   2.922
 5362TIP3   OH216026   3.660   5.338   2.757
 5362TIP3    H116027   3.652   5.417   2.811
 5362TIP3    H216028   3.572   5.299   2.759
 5363TIP3   OH216029   7.872   5.151   5.258
 5363TIP3    H116030   7.848   5.194   5.340
 5363TIP3    H216031   7.968   5.147   5.261
 5364TIP3   OH216032   0.353   6.660   4.614
 5364TIP3    H116033   0.361   6.580   4.665
 5364TIP3    H216034   0.262   6.686   4.624
 5365TIP3   OH216035   6.158   5.241   2.618
 5365TIP3    H116036   6.199   5.315   2.573
 5365TIP3    H216037   6.228   5.177   2.628
 5366TIP3   OH216038   5.831   4.830   1.517
 5366TIP3    H116039   5.817   4.783   1.599
 5366TIP3    H216040   5.903   4.890   1.538
 5367TIP3   OH216041   3.019   5.466   3.149
 5367TIP3    H116042   3.000   5.523   3.224
 5367TIP3    H216043   3.114   5.453   3.153
 5368TIP3   OH216044   5.301   3.901   2.342
 5368TIP3    H116045   5.334   3.827   2.292
 5368TIP3    H216046   5.289   3.970   2.277
 5369TIP3   OH216047   2.061   6.626   1.230
 5369TIP3    H116048   2.084   6.708   1.275
 5369TIP3    H216049   2.132   6.566   1.252
 5370TIP3   OH216050   1.672   4.614   3.776
 5370TIP3    H116051   1.635   4.650   3.695
 5370TIP3    H216052   1.611   4.641   3.844
 5371TIP3   OH216053   2.464   7.805   5.999
 5371TIP3    H116054   2.533   7.860   6.036
 5371TIP3    H216055   2.494   7.785   5.910
 5372TIP3   OH216056   7.423   2.386   4.837
 5372TIP3    H116057   7.475   2.400   4.916
 5372TIP3    H216058   7.478   2.330   4.782
 5373TIP3   OH216059   0.331   5.128   3.166
 5373TIP3    H116060   0.318   5.044   3.122
 5373TIP3    H216061   0.424   5.147   3.154
 5374TIP3   OH216062   6.128   3.505   5.402
 5374TIP3    H116063   6.083   3.456   5.333
 5374TIP3    H216064   6.124   3.448   5.478
 5375TIP3   OH216065   5.928   2.391   1.126
 5375TIP3    H116066   5.984   2.336   1.181
 5375TIP3    H216067   5.866   2.330   1.087
 5376TIP3   OH216068   1.651   2.381   6.743
 5376TIP3    H116069   1.657   2.342   6.656
 5376TIP3    H216070   1.647   2.476   6.727
 5377TIP3   OH216071   3.204   3.212   0.169
 5377TIP3    H116072   3.246   3.297   0.157
 5377TIP3    H216073   3.258   3.150   0.120
 5378TIP3   OH216074   7.519   6.875   3.308
 5378TIP3    H116075   7.480   6.962   3.298
 5378TIP3    H216076   7.570   6.881   3.389
 5379TIP3   OH216077   1.288   6.550   3.046
 5379TIP3    H116078   1.258   6.565   3.136
 5379TIP3    H216079   1.217   6.500   3.005
 5380TIP3   OH216080   7.326   6.467   0.453
 5380TIP3    H116081   7.292   6.415   0.379
 5380TIP3    H216082   7.405   6.509   0.418
 5381TIP3   OH216083   1.950   2.017   4.138
 5381TIP3    H116084   1.942   1.955   4.210
 5381TIP3    H216085   1.920   2.100   4.175
 5382TIP3   OH216086   2.715   0.127   2.770
 5382TIP3    H116087   2.639   0.170   2.731
 5382TIP3    H216088   2.729   0.174   2.852
 5383TIP3   OH216089   6.843   4.347   4.977
 5383TIP3    H116090   6.764   4.295   4.965
 5383TIP3    H216091   6.869   4.372   4.888
 5384TIP3   OH216092   0.373   4.663   2.451
 5384TIP3    H116093   0.317   4.714   2.393
 5384TIP3    H216094   0.316   4.593   2.484
 5385TIP3   OH216095   2.713   5.728   1.661
 5385TIP3    H116096   2.751   5.657   1.610
 5385TIP3    H216097   2.682   5.791   1.596
 5386TIP3   OH216098   3.423   1.030   4.314
 5386TIP3    H116099   3.438   0.936   4.326
 5386TIP3    H216100   3.466   1.071   4.390
 5387TIP3   OH216101   3.099   5.505   0.643
 5387TIP3    H116102   3.073   5.436   0.704
 5387TIP3    H216103   3.131   5.576   0.699
 5388TIP3   OH216104   6.495   1.100   6.057
 5388TIP3    H116105   6.424   1.122   5.996
 5388TIP3    H216106   6.482   1.159   6.131
 5389TIP3   OH216107   2.430   1.450   3.980
 5389TIP3    H116108   2.446   1.382   3.915
 5389TIP3    H216109   2.345   1.428   4.018
 5390TIP3   OH216110   6.879   1.917   0.238
 5390TIP3    H116111   6.864   1.935   0.145
 5390TIP3    H216112   6.878   2.003   0.280
 5391TIP3   OH216113   1.597   6.286   4.230
 5391TIP3    H116114   1.569   6.195   4.242
 5391TIP3    H216115   1.679   6.279   4.182
 5392TIP3   OH216116   7.018   6.406   5.173
 5392TIP3    H116117   7.052   6.468   5.237
 5392TIP3    H216118   7.001   6.458   5.095
 5393TIP3   OH216119   5.179   1.999   6.873
 5393TIP3    H116120   5.196   2.051   6.794
 5393TIP3    H216121   5.251   1.937   6.877
 5394TIP3   OH216122   4.399   2.695   3.307
 5394TIP3    H116123   4.394   2.637   3.383
 5394TIP3    H216124   4.312   2.690   3.268
 5395TIP3   OH216125   2.575   5.194   0.979
 5395TIP3    H116126   2.498   5.178   1.034
 5395TIP3    H216127   2.545   5.258   0.914
 5396TIP3   OH216128   5.944   5.215   1.343
 5396TIP3    H116129   5.905   5.226   1.430
 5396TIP3    H216130   5.875   5.177   1.289
 5397TIP3   OH216131   3.145   2.513   1.688
 5397TIP3    H116132   3.135   2.607   1.673
 5397TIP3    H216133   3.080   2.494   1.756
 5398TIP3   OH216134   7.010   1.996   1.926
 5398TIP3    H116135   6.962   1.963   2.002
 5398TIP3    H216136   6.943   2.008   1.858
 5399TIP3   OH216137   4.873   6.660   5.557
 5399TIP3    H116138   4.810   6.588   5.561
 5399TIP3    H216139   4.852   6.705   5.475
 5400TIP3   OH216140   1.425   7.305   0.737
 5400TIP3    H116141   1.434   7.361   0.814
 5400TIP3    H216142   1.437   7.216   0.771
 5401TIP3   OH216143   5.290   4.289   4.549
 5401TIP3    H116144   5.287   4.382   4.529
 5401TIP3    H216145   5.205   4.256   4.520
 5402TIP3   OH216146   8.000   7.376   0.565
 5402TIP3    H116147   8.052   7.325   0.504
 5402TIP3    H216148   8.050   7.458   0.576
 5403TIP3   OH216149   2.521   5.601   3.006
 5403TIP3    H116150   2.562   5.667   3.062
 5403TIP3    H216151   2.584   5.586   2.936
 5404TIP3   OH216152   5.784   2.841   5.410
 5404TIP3    H116153   5.761   2.750   5.390
 5404TIP3    H216154   5.871   2.852   5.374
 5405TIP3   OH216155   0.175   0.310   5.317
 5405TIP3    H116156   0.163   0.390   5.267
 5405TIP3    H216157   0.089   0.267   5.315
 5406TIP3   OH216158   8.058   0.437   5.226
 5406TIP3    H116159   8.136   0.407   5.273
 5406TIP3    H216160   7.987   0.386   5.264
 5407TIP3   OH216161   2.233   7.318   5.034
 5407TIP3    H116162   2.209   7.384   4.969
 5407TIP3    H216163   2.214   7.360   5.118
 5408TIP3   OH216164   0.637   7.883   2.042
 5408TIP3    H116165   0.731   7.887   2.058
 5408TIP3    H216166   0.626   7.809   1.982
 5409TIP3   OH216167   8.364   3.337   5.344
 5409TIP3    H116168   8.370   3.322   5.438
 5409TIP3    H216169   8.304   3.411   5.335
 5410TIP3   OH216170   3.556   5.556   2.289
 5410TIP3    H116171   3.484   5.611   2.257
 5410TIP3    H216172   3.598   5.523   2.210
 5411TIP3   OH216173   6.146   4.556   3.227
 5411TIP3    H116174   6.058   4.591   3.237
 5411TIP3    H216175   6.187   4.570   3.312
 5412TIP3   OH216176   7.824   1.043   0.619
 5412TIP3    H116177   7.845   1.103   0.690
 5412TIP3    H216178   7.876   1.075   0.545
 5413TIP3   OH216179   6.021   4.281   1.047
 5413TIP3    H116180   5.966   4.353   1.017
 5413TIP3    H216181   6.106   4.296   1.004
 5414TIP3   OH216182   5.744   2.931   4.135
 5414TIP3    H116183   5.783   2.844   4.137
 5414TIP3    H216184   5.765   2.969   4.220
 5415TIP3   OH216185   2.188   4.859   4.545
 5415TIP3    H116186   2.178   4.826   4.456
 5415TIP3    H216187   2.134   4.938   4.548
 5416TIP3   OH216188   0.789   1.705   3.278
 5416TIP3    H116189   0.719   1.752   3.233
 5416TIP3    H216190   0.806   1.629   3.223
 5417TIP3   OH216191   1.527   0.276   4.828
 5417TIP3    H116192   1.555   0.367   4.832
 5417TIP3    H216193   1.442   0.278   4.784
 5418TIP3   OH216194   5.166   2.597   2.750
 5418TIP3    H116195   5.247   2.551   2.726
 5418TIP3    H216196   5.104   2.527   2.769
 5419TIP3   OH216197   0.157   3.115   0.483
 5419TIP3    H116198   0.210   3.070   0.549
 5419TIP3    H216199   0.218   3.132   0.411
 5420TIP3   OH216200   6.936   3.191   4.445
 5420TIP3    H116201   6.897   3.224   4.364
 5420TIP3    H216202   6.896   3.105   4.457
 5421TIP3   OH216203   1.989   4.287   4.656
 5421TIP3    H116204   1.900   4.322   4.656
 5421TIP3    H216205   2.040   4.349   4.604
 5422TIP3   OH216206   3.034   5.254   5.691
 5422TIP3    H116207   3.042   5.226   5.782
 5422TIP3    H216208   3.087   5.191   5.642
 5423TIP3   OH216209   4.768   5.472   6.747
 5423TIP3    H116210   4.728   5.385   6.743
 5423TIP3    H216211   4.713   5.521   6.809
 5424TIP3   OH216212   0.427   7.618   2.134
 5424TIP3    H116213   0.343   7.645   2.172
 5424TIP3    H216214   0.406   7.598   2.043
 5425TIP3   OH216215   2.669   4.624   4.027
 5425TIP3    H116216   2.673   4.649   4.119
 5425TIP3    H216217   2.618   4.693   3.985
 5426TIP3   OH216218   1.287   3.575   5.455
 5426TIP3    H116219   1.205   3.581   5.407
 5426TIP3    H216220   1.280   3.493   5.505
 5427TIP3   OH216221   5.503   3.555   3.109
 5427TIP3    H116222   5.487   3.636   3.061
 5427TIP3    H216223   5.431   3.551   3.172
 5428TIP3   OH216224   1.423   7.009   0.829
 5428TIP3    H116225   1.373   6.979   0.904
 5428TIP3    H216226   1.482   6.937   0.808
 5429TIP3   OH216227   8.017   7.577   2.307
 5429TIP3    H116228   8.112   7.587   2.315
 5429TIP3    H216229   8.001   7.486   2.330
 5430TIP3   OH216230   1.889   0.936   2.746
 5430TIP3    H116231   1.936   1.002   2.695
 5430TIP3    H216232   1.797   0.961   2.738
 5431TIP3   OH216233   1.047   5.512   5.235
 5431TIP3    H116234   1.020   5.439   5.180
 5431TIP3    H216235   0.986   5.582   5.214
 5432TIP3   OH216236   2.835   2.801   4.982
 5432TIP3    H116237   2.803   2.713   4.998
 5432TIP3    H216238   2.888   2.794   4.902
 5433TIP3   OH216239   2.673   6.037   1.707
 5433TIP3    H116240   2.735   5.993   1.765
 5433TIP3    H216241   2.604   6.068   1.765
 5434TIP3   OH216242   5.458   4.888   6.488
 5434TIP3    H116243   5.478   4.961   6.547
 5434TIP3    H216244   5.414   4.823   6.543
 5435TIP3   OH216245   5.259   3.865   5.323
 5435TIP3    H116246   5.303   3.862   5.238
 5435TIP3    H216247   5.277   3.779   5.361
 5436TIP3   OH216248   4.396   1.050   5.885
 5436TIP3    H116249   4.329   0.985   5.863
 5436TIP3    H216250   4.474   0.998   5.906
 5437TIP3   OH216251   1.146   6.238   5.449
 5437TIP3    H116252   1.087   6.313   5.437
 5437TIP3    H216253   1.087   6.163   5.462
 5438TIP3   OH216254   1.643   7.032   3.173
 5438TIP3    H116255   1.602   7.091   3.110
 5438TIP3    H216256   1.590   6.952   3.169
 5439TIP3   OH216257   5.910   7.136   4.933
 5439TIP3    H116258   5.981   7.089   4.889
 5439TIP3    H216259   5.897   7.215   4.880
 5440TIP3   OH216260   6.923   1.853   5.268
 5440TIP3    H116261   6.991   1.816   5.324
 5440TIP3    H216262   6.919   1.945   5.293
 5441TIP3   OH216263   6.259   1.853   5.693
 5441TIP3    H116264   6.257   1.769   5.739
 5441TIP3    H216265   6.295   1.831   5.607
 5442TIP3   OH216266   2.435   2.706   1.371
 5442TIP3    H116267   2.405   2.622   1.406
 5442TIP3    H216268   2.478   2.683   1.288
 5443TIP3   OH216269   3.854   6.241   3.988
 5443TIP3    H116270   3.778   6.284   4.027
 5443TIP3    H216271   3.825   6.215   3.900
 5444TIP3   OH216272   2.239   1.772   1.719
 5444TIP3    H116273   2.267   1.689   1.681
 5444TIP3    H216274   2.164   1.798   1.666
 5445TIP3   OH216275   4.916   7.357   2.854
 5445TIP3    H116276   4.883   7.390   2.770
 5445TIP3    H216277   5.011   7.369   2.849
 5446TIP3   OH216278   3.377   7.537   5.669
 5446TIP3    H116279   3.321   7.603   5.709
 5446TIP3    H216280   3.459   7.583   5.650
 5447TIP3   OH216281   0.977   4.613   1.777
 5447TIP3    H116282   0.961   4.707   1.786
 5447TIP3    H216283   1.067   4.600   1.806
 5448TIP3   OH216284   5.412   0.988   0.628
 5448TIP3    H116285   5.384   0.896   0.623
 5448TIP3    H216286   5.341   1.036   0.585
 5449TIP3   OH216287   2.967   7.285   4.020
 5449TIP3    H116288   3.000   7.212   3.967
 5449TIP3    H216289   3.043   7.342   4.032
 5450TIP3   OH216290   6.086   1.705   0.796
 5450TIP3    H116291   6.166   1.754   0.781
 5450TIP3    H216292   6.095   1.626   0.743
 5451TIP3   OH216293   5.159   0.199   0.054
 5451TIP3    H116294   5.115   0.115   0.038
 5451TIP3    H216295   5.135   0.221   0.144
 5452TIP3   OH216296   3.641   6.726   1.067
 5452TIP3    H116297   3.645   6.797   1.002
 5452TIP3    H216298   3.588   6.761   1.138
 5453TIP3   OH216299   5.634   3.684   3.689
 5453TIP3    H116300   5.563   3.625   3.663
 5453TIP3    H216301   5.625   3.692   3.784
 5454TIP3   OH216302   5.446   6.603   1.810
 5454TIP3    H116303   5.537   6.584   1.788
 5454TIP3    H216304   5.406   6.627   1.726
 5455TIP3   OH216305   1.084   3.952   5.203
 5455TIP3    H116306   1.076   4.043   5.176
 5455TIP3    H216307   1.113   3.957   5.295
 5456TIP3   OH216308   4.394   2.106   5.213
 5456TIP3    H116309   4.388   2.107   5.309
 5456TIP3    H216310   4.439   2.188   5.191
 5457TIP3   OH216311   4.550   1.142   6.331
 5457TIP3    H116312   4.576   1.051   6.319
 5457TIP3    H216313   4.467   1.138   6.377
 5458TIP3   OH216314   7.907   3.605   6.207
 5458TIP3    H116315   7.970   3.676   6.195
 5458TIP3    H216316   7.947   3.530   6.164
 5459TIP3   OH216317   2.934   4.126   4.475
 5459TIP3    H116318   2.864   4.139   4.410
 5459TIP3    H216319   2.901   4.056   4.531
 5460TIP3   OH216320   2.867   2.997   2.850
 5460TIP3    H116321   2.837   3.076   2.805
 5460TIP3    H216322   2.854   2.927   2.787
 5461TIP3   OH216323   5.944   5.403   4.385
 5461TIP3    H116324   5.967   5.336   4.320
 5461TIP3    H216325   5.978   5.368   4.468
 5462TIP3   OH216326   3.308   3.364   1.372
 5462TIP3    H116327   3.297   3.401   1.459
 5462TIP3    H216328   3.267   3.427   1.313
 5463TIP3   OH216329   2.383   4.935   3.272
 5463TIP3    H116330   2.471   4.916   3.242
 5463TIP3    H216331   2.336   4.964   3.194
 5464TIP3   OH216332   5.533   0.939   4.727
 5464TIP3    H116333   5.547   0.993   4.804
 5464TIP3    H216334   5.464   0.878   4.753
 5465TIP3   OH216335   2.417   3.633   5.399
 5465TIP3    H116336   2.384   3.657   5.486
 5465TIP3    H216337   2.478   3.703   5.376
 5466TIP3   OH216338   7.381   6.052   2.960
 5466TIP3    H116339   7.387   6.053   2.865
 5466TIP3    H216340   7.326   5.976   2.981
 5467TIP3   OH216341   1.129   0.424   3.536
 5467TIP3    H116342   1.071   0.498   3.551
 5467TIP3    H216343   1.153   0.431   3.443
 5468TIP3   OH216344   8.221   3.959   4.364
 5468TIP3    H116345   8.146   4.011   4.392
 5468TIP3    H216346   8.216   3.879   4.415
 5469TIP3   OH216347   1.935   1.219   2.713
 5469TIP3    H116348   1.842   1.244   2.718
 5469TIP3    H216349   1.965   1.259   2.631
 5470TIP3   OH216350   5.009   7.638   4.891
 5470TIP3    H116351   4.923   7.680   4.882
 5470TIP3    H216352   4.988   7.549   4.921
 5471TIP3   OH216353   1.819   3.472   0.258
 5471TIP3    H116354   1.742   3.504   0.305
 5471TIP3    H216355   1.855   3.550   0.216
 5472TIP3   OH216356   7.981   7.874   5.310
 5472TIP3    H116357   7.944   7.873   5.398
 5472TIP3    H216358   7.951   7.793   5.270
 5473TIP3   OH216359   8.194   1.629   2.204
 5473TIP3    H116360   8.215   1.717   2.175
 5473TIP3    H216361   8.108   1.637   2.245
 5474TIP3   OH216362   7.050   1.805   2.311
 5474TIP3    H116363   7.123   1.857   2.346
 5474TIP3    H216364   7.065   1.804   2.216
 5475TIP3   OH216365   4.366   5.473   2.546
 5475TIP3    H116366   4.325   5.531   2.482
 5475TIP3    H216367   4.346   5.512   2.631
 5476TIP3   OH216368   7.255   4.442   3.879
 5476TIP3    H116369   7.312   4.517   3.865
 5476TIP3    H216370   7.253   4.431   3.975
 5477TIP3   OH216371   7.989   1.374   6.572
 5477TIP3    H116372   7.926   1.308   6.602
 5477TIP3    H216373   8.024   1.339   6.490
 5478TIP3   OH216374   2.243   5.879   0.616
 5478TIP3    H116375   2.312   5.927   0.571
 5478TIP3    H216376   2.193   5.947   0.663
 5479TIP3   OH216377   6.172   0.479   2.021
 5479TIP3    H116378   6.126   0.560   2.044
 5479TIP3    H216379   6.217   0.499   1.939
 5480TIP3   OH216380   4.098   0.452   1.324
 5480TIP3    H116381   4.060   0.533   1.289
 5480TIP3    H216382   4.056   0.441   1.409
 5481TIP3   OH216383   7.569   3.341   3.056
 5481TIP3    H116384   7.635   3.340   2.986
 5481TIP3    H216385   7.603   3.278   3.120
 5482TIP3   OH216386   0.511   6.225   6.347
 5482TIP3    H116387   0.515   6.270   6.431
 5482TIP3    H216388   0.457   6.281   6.292
 5483TIP3   OH216389   7.005   6.921   0.006
 5483TIP3    H116390   6.974   6.895  -0.081
 5483TIP3    H216391   7.039   6.840   0.044
 5484TIP3   OH216392   6.497   2.061   6.143
 5484TIP3    H116393   6.556   2.113   6.088
 5484TIP3    H216394   6.494   1.976   6.101
 5485TIP3   OH216395   5.120   3.396   2.446
 5485TIP3    H116396   5.137   3.302   2.449
 5485TIP3    H216397   5.200   3.434   2.411
 5486TIP3   OH216398   5.908   5.362   2.280
 5486TIP3    H116399   5.892   5.273   2.311
 5486TIP3    H216400   5.905   5.416   2.359
 5487TIP3   OH216401   2.828   1.513   4.152
 5487TIP3    H116402   2.830   1.545   4.242
 5487TIP3    H216403   2.892   1.442   4.150
 5488TIP3   OH216404   7.321   4.616   0.185
 5488TIP3    H116405   7.303   4.535   0.136
 5488TIP3    H216406   7.270   4.683   0.139
 5489TIP3   OH216407   3.661  -0.038   1.647
 5489TIP3    H116408   3.713  -0.039   1.567
 5489TIP3    H216409   3.668   0.052   1.679
 5490TIP3   OH216410   5.572   2.761   0.646
 5490TIP3    H116411   5.490   2.747   0.599
 5490TIP3    H216412   5.555   2.833   0.706
 5491TIP3   OH216413   7.343   6.303   3.563
 5491TIP3    H116414   7.352   6.319   3.657
 5491TIP3    H216415   7.259   6.343   3.540
 5492TIP3   OH216416   4.588   7.208   6.287
 5492TIP3    H116417   4.679   7.194   6.313
 5492TIP3    H216418   4.536   7.165   6.355
 5493TIP3   OH216419   2.631   0.921   6.636
 5493TIP3    H116420   2.643   0.949   6.546
 5493TIP3    H216421   2.675   0.989   6.688
 5494TIP3   OH216422   1.190   7.242   5.083
 5494TIP3    H116423   1.142   7.183   5.141
 5494TIP3    H216424   1.267   7.269   5.134
 5495TIP3   OH216425   0.320   2.671   1.024
 5495TIP3    H116426   0.275   2.705   0.947
 5495TIP3    H216427   0.342   2.749   1.075
 5496TIP3   OH216428   6.622   4.950   6.018
 5496TIP3    H116429   6.650   4.981   5.932
 5496TIP3    H216430   6.683   4.991   6.080
 5497TIP3   OH216431   4.450   4.007   5.043
 5497TIP3    H116432   4.523   3.953   5.072
 5497TIP3    H216433   4.489   4.091   5.019
 5498TIP3   OH216434   1.035   6.746   1.558
 5498TIP3    H116435   1.022   6.686   1.632
 5498TIP3    H216436   1.127   6.734   1.534
 5499TIP3   OH216437   7.460   4.958   2.483
 5499TIP3    H116438   7.464   4.995   2.571
 5499TIP3    H216439   7.388   5.005   2.441
 5500TIP3   OH216440   5.217   1.778   1.245
 5500TIP3    H116441   5.296   1.825   1.270
 5500TIP3    H216442   5.179   1.749   1.328
 5501TIP3   OH216443   3.493   2.935   5.550
 5501TIP3    H116444   3.559   2.989   5.592
 5501TIP3    H216445   3.438   2.997   5.501
 5502TIP3   OH216446   3.309   5.704   2.267
 5502TIP3    H116447   3.351   5.728   2.184
 5502TIP3    H216448   3.265   5.784   2.295
 5503TIP3   OH216449   0.221   7.909   2.492
 5503TIP3    H116450   0.216   7.822   2.453
 5503TIP3    H216451   0.140   7.952   2.465
 5504TIP3   OH216452   4.642   5.380   0.119
 5504TIP3    H116453   4.649   5.431   0.038
 5504TIP3    H216454   4.589   5.435   0.177
 5505TIP3   OH216455   0.594   4.337   4.155
 5505TIP3    H116456   0.548   4.264   4.196
 5505TIP3    H216457   0.559   4.340   4.066
 5506TIP3   OH216458   1.388   3.115   1.120
 5506TIP3    H116459   1.355   3.070   1.042
 5506TIP3    H216460   1.472   3.073   1.138
 5507TIP3   OH216461   6.519   5.248   4.792
 5507TIP3    H116462   6.534   5.190   4.867
 5507TIP3    H216463   6.495   5.332   4.831
 5508TIP3   OH216464   8.315   7.038   0.182
 5508TIP3    H116465   8.307   6.959   0.130
 5508TIP3    H216466   8.396   7.027   0.232
 5509TIP3   OH216467   7.425   3.652   5.059
 5509TIP3    H116468   7.381   3.736   5.047
 5509TIP3    H216469   7.459   3.629   4.973
 5510TIP3   OH216470   1.844   3.051   5.790
 5510TIP3    H116471   1.794   3.127   5.819
 5510TIP3    H216472   1.922   3.049   5.846
 5511TIP3   OH216473   7.386   4.343   1.002
 5511TIP3    H116474   7.303   4.348   1.048
 5511TIP3    H216475   7.363   4.319   0.913
 5512TIP3   OH216476   0.379   0.657   5.462
 5512TIP3    H116477   0.423   0.710   5.395
 5512TIP3    H216478   0.395   0.567   5.435
 5513TIP3   OH216479   6.878   4.036   5.036
 5513TIP3    H116480   6.938   3.966   5.063
 5513TIP3    H216481   6.825   3.996   4.967
 5514TIP3   OH216482   5.005   1.448   1.204
 5514TIP3    H116483   5.043   1.503   1.135
 5514TIP3    H216484   4.919   1.486   1.220
 5515TIP3   OH216485   0.475   0.022   4.752
 5515TIP3    H116486   0.471   0.060   4.664
 5515TIP3    H216487   0.561  -0.018   4.758
 5516TIP3   OH216488   1.718   5.623   6.064
 5516TIP3    H116489   1.673   5.707   6.055
 5516TIP3    H216490   1.809   5.642   6.043
 5517TIP3   OH216491   4.484   2.904   5.249
 5517TIP3    H116492   4.490   2.982   5.194
 5517TIP3    H216493   4.539   2.924   5.325
 5518TIP3   OH216494   7.071   5.432   1.299
 5518TIP3    H116495   7.038   5.467   1.382
 5518TIP3    H216496   7.036   5.491   1.232
 5519TIP3   OH216497   6.996   7.098   4.204
 5519TIP3    H116498   7.005   7.116   4.298
 5519TIP3    H216499   7.077   7.132   4.166
 5520TIP3   OH216500   4.645   5.273   3.993
 5520TIP3    H116501   4.693   5.228   3.923
 5520TIP3    H216502   4.562   5.225   4.000
 5521TIP3   OH216503   3.874   1.240   6.166
 5521TIP3    H116504   3.835   1.289   6.094
 5521TIP3    H216505   3.951   1.291   6.191
 5522TIP3   OH216506   1.993   0.753   3.615
 5522TIP3    H116507   2.053   0.824   3.592
 5522TIP3    H216508   1.916   0.768   3.559
 5523TIP3   OH216509   4.831   7.209   4.240
 5523TIP3    H116510   4.803   7.228   4.150
 5523TIP3    H216511   4.838   7.295   4.282
 5524TIP3   OH216512   7.813   0.696   2.177
 5524TIP3    H116513   7.741   0.758   2.175
 5524TIP3    H216514   7.888   0.746   2.143
 5525TIP3   OH216515   6.034   1.568   1.697
 5525TIP3    H116516   5.939   1.567   1.694
 5525TIP3    H216517   6.061   1.536   1.611
 5526TIP3   OH216518   4.126   3.001   4.053
 5526TIP3    H116519   4.134   2.917   4.098
 5526TIP3    H216520   4.052   2.990   3.994
 5527TIP3   OH216521   3.793   2.267   4.751
 5527TIP3    H116522   3.861   2.323   4.787
 5527TIP3    H216523   3.744   2.325   4.692
 5528TIP3   OH216524   1.742   5.447   5.764
 5528TIP3    H116525   1.674   5.417   5.824
 5528TIP3    H216526   1.695   5.482   5.689
 5529TIP3   OH216527   7.770   6.389   5.313
 5529TIP3    H116528   7.737   6.357   5.397
 5529TIP3    H216529   7.839   6.327   5.289
 5530TIP3   OH216530   4.684   7.980   1.646
 5530TIP3    H116531   4.602   8.004   1.602
 5530TIP3    H216532   4.667   7.892   1.681
 5531TIP3   OH216533   1.656   6.554   6.157
 5531TIP3    H116534   1.687   6.616   6.222
 5531TIP3    H216535   1.562   6.570   6.150
 5532TIP3   OH216536   5.842   4.264   2.045
 5532TIP3    H116537   5.908   4.198   2.023
 5532TIP3    H216538   5.808   4.293   1.960
 5533TIP3   OH216539   2.455   6.724   6.797
 5533TIP3    H116540   2.511   6.648   6.784
 5533TIP3    H216541   2.480   6.783   6.726
 5534TIP3   OH216542   0.901   1.480   4.532
 5534TIP3    H116543   0.917   1.439   4.447
 5534TIP3    H216544   0.816   1.445   4.560
 5535TIP3   OH216545   5.372   4.738   2.428
 5535TIP3    H116546   5.283   4.711   2.454
 5535TIP3    H216547   5.430   4.686   2.484
 5536TIP3   OH216548   7.449   7.413   0.497
 5536TIP3    H116549   7.466   7.394   0.404
 5536TIP3    H216550   7.412   7.333   0.532
 5537TIP3   OH216551   2.879   3.624   0.307
 5537TIP3    H116552   2.968   3.634   0.340
 5537TIP3    H216553   2.880   3.539   0.262
 5538TIP3   OH216554   0.122   4.579   0.764
 5538TIP3    H116555   0.186   4.536   0.707
 5538TIP3    H216556   0.145   4.551   0.852
 5539TIP3   OH216557   6.254   1.717   5.930
 5539TIP3    H116558   6.228   1.638   5.978
 5539TIP3    H216559   6.303   1.769   5.994
 5540TIP3   OH216560   7.922   6.685   0.991
 5540TIP3    H116561   7.976   6.764   0.998
 5540TIP3    H216562   7.855   6.696   1.058
 5541TIP3   OH216563   3.201   6.534   3.551
 5541TIP3    H116564   3.198   6.464   3.487
 5541TIP3    H216565   3.116   6.578   3.542
 5542TIP3   OH216566   3.434   5.892   4.089
 5542TIP3    H116567   3.363   5.829   4.075
 5542TIP3    H216568   3.453   5.886   4.182
 5543TIP3   OH216569   3.046   0.189   0.680
 5543TIP3    H116570   2.994   0.205   0.601
 5543TIP3    H216571   3.130   0.155   0.648
 5544TIP3   OH216572   6.841   0.807   3.191
 5544TIP3    H116573   6.848   0.895   3.228
 5544TIP3    H216574   6.750   0.783   3.204
 5545TIP3   OH216575   6.913   7.009   5.716
 5545TIP3    H116576   6.850   6.966   5.773
 5545TIP3    H216577   6.982   6.945   5.702
 5546TIP3   OH216578   7.324   3.690   0.716
 5546TIP3    H116579   7.269   3.642   0.653
 5546TIP3    H216580   7.262   3.741   0.768
 5547TIP3   OH216581   3.120   7.778   5.136
 5547TIP3    H116582   3.104   7.690   5.101
 5547TIP3    H216583   3.083   7.837   5.070
 5548TIP3   OH216584   0.986   5.510   2.251
 5548TIP3    H116585   1.055   5.444   2.259
 5548TIP3    H216586   1.012   5.578   2.313
 5549TIP3   OH216587   4.152   5.320   1.222
 5549TIP3    H116588   4.169   5.270   1.142
 5549TIP3    H216589   4.235   5.317   1.270
 5550TIP3   OH216590   6.821   2.782   6.658
 5550TIP3    H116591   6.884   2.717   6.626
 5550TIP3    H216592   6.851   2.802   6.747
 5551TIP3   OH216593   4.500   5.577   1.330
 5551TIP3    H116594   4.508   5.502   1.389
 5551TIP3    H216595   4.441   5.637   1.376
 5552TIP3   OH216596   6.925   3.863   6.612
 5552TIP3    H116597   6.903   3.771   6.622
 5552TIP3    H216598   6.846   3.902   6.575
 5553TIP3   OH216599   3.528   7.516   5.988
 5553TIP3    H116600   3.517   7.421   5.983
 5553TIP3    H216601   3.582   7.538   5.912
 5554TIP3   OH216602   3.652   6.835   6.829
 5554TIP3    H116603   3.722   6.867   6.772
 5554TIP3    H216604   3.617   6.914   6.870
 5555TIP3   OH216605   4.228   1.730   3.817
 5555TIP3    H116606   4.287   1.804   3.810
 5555TIP3    H216607   4.142   1.766   3.796
 5556TIP3   OH216608   4.535   1.077   1.170
 5556TIP3    H116609   4.444   1.073   1.199
 5556TIP3    H216610   4.562   0.986   1.161
 5557TIP3   OH216611   6.856   0.068   2.738
 5557TIP3    H116612   6.822   0.011   2.669
 5557TIP3    H216613   6.786   0.132   2.753
 5558TIP3   OH216614   6.848   6.199   5.539
 5558TIP3    H116615   6.873   6.267   5.602
 5558TIP3    H216616   6.762   6.170   5.569
 5559TIP3   OH216617   4.523   0.817   4.082
 5559TIP3    H116618   4.456   0.880   4.108
 5559TIP3    H216619   4.505   0.740   4.137
 5560TIP3   OH216620   1.362   5.621   0.648
 5560TIP3    H116621   1.440   5.654   0.603
 5560TIP3    H216622   1.362   5.667   0.732
 5561TIP3   OH216623   7.507   4.903   4.637
 5561TIP3    H116624   7.421   4.939   4.615
 5561TIP3    H216625   7.542   4.872   4.553
 5562TIP3   OH216626   4.031   5.117   1.020
 5562TIP3    H116627   3.971   5.191   1.014
 5562TIP3    H216628   4.077   5.117   0.936
 5563TIP3   OH216629   3.173   0.879   1.919
 5563TIP3    H116630   3.235   0.940   1.879
 5563TIP3    H216631   3.195   0.794   1.880
 5564TIP3   OH216632   6.089   1.728   2.784
 5564TIP3    H116633   6.022   1.674   2.827
 5564TIP3    H216634   6.076   1.712   2.690
 5565TIP3   OH216635   6.492   2.723   4.124
 5565TIP3    H116636   6.562   2.769   4.078
 5565TIP3    H216637   6.529   2.703   4.210
 5566TIP3   OH216638   3.327   3.089   1.572
 5566TIP3    H116639   3.321   3.184   1.559
 5566TIP3    H216640   3.418   3.074   1.598
 5567TIP3   OH216641   6.108   0.262   5.959
 5567TIP3    H116642   6.056   0.183   5.966
 5567TIP3    H216643   6.183   0.247   6.017
 5568TIP3   OH216644   7.793   1.903   4.156
 5568TIP3    H116645   7.785   1.835   4.089
 5568TIP3    H216646   7.770   1.984   4.111
 5569TIP3   OH216647   2.945   1.337   0.640
 5569TIP3    H116648   2.906   1.423   0.656
 5569TIP3    H216649   2.890   1.299   0.571
 5570TIP3   OH216650   2.619   0.141   5.704
 5570TIP3    H116651   2.572   0.107   5.628
 5570TIP3    H216652   2.606   0.075   5.772
 5571TIP3   OH216653   0.786   2.114   1.795
 5571TIP3    H116654   0.876   2.092   1.819
 5571TIP3    H216655   0.743   2.133   1.879
 5572TIP3   OH216656   0.948   6.521   1.679
 5572TIP3    H116657   0.901   6.476   1.750
 5572TIP3    H216658   0.895   6.504   1.601
 5573TIP3   OH216659   4.225   6.675   5.825
 5573TIP3    H116660   4.300   6.615   5.834
 5573TIP3    H216661   4.159   6.639   5.884
 5574TIP3   OH216662   7.099   6.581   4.742
 5574TIP3    H116663   7.131   6.493   4.720
 5574TIP3    H216664   7.076   6.574   4.835
 5575TIP3   OH216665   6.497   4.445   3.662
 5575TIP3    H116666   6.562   4.500   3.705
 5575TIP3    H216667   6.458   4.393   3.732
 5576TIP3   OH216668   6.352   2.078   2.657
 5576TIP3    H116669   6.285   2.144   2.676
 5576TIP3    H216670   6.435   2.126   2.662
 5577TIP3   OH216671   5.642   3.877   5.747
 5577TIP3    H116672   5.605   3.809   5.803
 5577TIP3    H216673   5.567   3.913   5.700
 5578TIP3   OH216674   2.956   1.248   6.632
 5578TIP3    H116675   2.992   1.219   6.715
 5578TIP3    H216676   2.997   1.193   6.566
 5579TIP3   OH216677   3.481   6.305   2.767
 5579TIP3    H116678   3.496   6.400   2.768
 5579TIP3    H216679   3.413   6.291   2.833
 5580TIP3   OH216680   3.726   0.462   5.154
 5580TIP3    H116681   3.731   0.548   5.112
 5580TIP3    H216682   3.659   0.415   5.105
 5581TIP3   OH216683   8.172   5.389   6.228
 5581TIP3    H116684   8.240   5.326   6.249
 5581TIP3    H216685   8.217   5.473   6.226
 5582TIP3   OH216686   2.583   0.515   1.293
 5582TIP3    H116687   2.640   0.497   1.219
 5582TIP3    H216688   2.495   0.497   1.260
 5583TIP3   OH216689   3.709   5.942   6.729
 5583TIP3    H116690   3.692   5.894   6.810
 5583TIP3    H216691   3.802   5.930   6.713
 5584TIP3   OH216692   3.663   4.726   4.620
 5584TIP3    H116693   3.595   4.789   4.644
 5584TIP3    H216694   3.741   4.779   4.607
 5585TIP3   OH216695   6.489   4.879   0.042
 5585TIP3    H116696   6.403   4.866   0.082
 5585TIP3    H216697   6.499   4.806  -0.019
 5586TIP3   OH216698   3.703   2.587   6.595
 5586TIP3    H116699   3.704   2.505   6.546
 5586TIP3    H216700   3.721   2.654   6.529
 5587TIP3   OH216701   0.015   5.177   0.447
 5587TIP3    H116702   0.075   5.216   0.510
 5587TIP3    H216703  -0.001   5.246   0.382
 5588TIP3   OH216704   2.532   6.582   1.727
 5588TIP3    H116705   2.588   6.654   1.697
 5588TIP3    H216706   2.581   6.542   1.799
 5589TIP3   OH216707   2.708   6.450   2.256
 5589TIP3    H116708   2.636   6.440   2.194
 5589TIP3    H216709   2.687   6.391   2.327
 5590TIP3   OH216710   1.087   2.905   6.607
 5590TIP3    H116711   1.162   2.965   6.607
 5590TIP3    H216712   1.126   2.818   6.611
 5591TIP3   OH216713   3.108   0.633   2.714
 5591TIP3    H116714   3.086   0.646   2.806
 5591TIP3    H216715   3.029   0.594   2.675
 5592TIP3   OH216716   7.864   4.767   0.040
 5592TIP3    H116717   7.956   4.766   0.068
 5592TIP3    H216718   7.849   4.857   0.012
 5593TIP3   OH216719   3.300   0.402   3.741
 5593TIP3    H116720   3.357   0.412   3.817
 5593TIP3    H216721   3.340   0.456   3.673
 5594TIP3   OH216722   7.051   0.016   3.499
 5594TIP3    H116723   7.055   0.090   3.439
 5594TIP3    H216724   6.959   0.006   3.521
 5595TIP3   OH216725   2.594   4.057   2.244
 5595TIP3    H116726   2.652   4.040   2.170
 5595TIP3    H216727   2.508   4.027   2.215
 5596TIP3   OH216728   3.997   0.492   4.379
 5596TIP3    H116729   4.030   0.531   4.298
 5596TIP3    H216730   4.074   0.484   4.435
 5597TIP3   OH216731   5.802   0.055   4.253
 5597TIP3    H116732   5.855   0.001   4.311
 5597TIP3    H216733   5.722   0.005   4.239
 5598TIP3   OH216734   1.904   4.012   4.591
 5598TIP3    H116735   1.933   3.956   4.662
 5598TIP3    H216736   1.944   4.097   4.609
 5599TIP3   OH216737   0.720   6.237   3.528
 5599TIP3    H116738   0.687   6.289   3.601
 5599TIP3    H216739   0.654   6.245   3.460
 5600TIP3   OH216740   3.411   2.637   6.400
 5600TIP3    H116741   3.328   2.631   6.448
 5600TIP3    H216742   3.422   2.730   6.381
 5601TIP3   OH216743   5.289   4.021   5.903
 5601TIP3    H116744   5.335   4.078   5.842
 5601TIP3    H216745   5.269   3.942   5.852
 5602TIP3   OH216746   5.761   5.276   1.560
 5602TIP3    H116747   5.760   5.319   1.645
 5602TIP3    H216748   5.740   5.346   1.498
 5603TIP3   OH216749   1.748   2.099   3.696
 5603TIP3    H116750   1.692   2.022   3.697
 5603TIP3    H216751   1.837   2.064   3.694
 5604TIP3   OH216752   3.736   4.263   5.233
 5604TIP3    H116753   3.781   4.286   5.314
 5604TIP3    H216754   3.736   4.344   5.182
 5605TIP3   OH216755   2.452   6.108   5.156
 5605TIP3    H116756   2.501   6.184   5.186
 5605TIP3    H216757   2.406   6.138   5.078
 5606TIP3   OH216758   8.180   7.653   1.301
 5606TIP3    H116759   8.231   7.607   1.368
 5606TIP3    H216760   8.090   7.625   1.317
 5607TIP3   OH216761   3.528   2.484   2.947
 5607TIP3    H116762   3.535   2.542   2.871
 5607TIP3    H216763   3.448   2.513   2.992
 5608TIP3   OH216764   5.479   6.166   3.974
 5608TIP3    H116765   5.495   6.115   4.054
 5608TIP3    H216766   5.405   6.122   3.933
 5609TIP3   OH216767   2.991   3.422   0.174
 5609TIP3    H116768   2.978   3.354   0.109
 5609TIP3    H216769   3.086   3.436   0.177
 5610TIP3   OH216770   8.303   6.371   6.727
 5610TIP3    H116771   8.322   6.349   6.818
 5610TIP3    H216772   8.222   6.323   6.707
 5611TIP3   OH216773   3.708   4.845   2.808
 5611TIP3    H116774   3.715   4.940   2.800
 5611TIP3    H216775   3.799   4.815   2.811
 5612TIP3   OH216776   5.702   3.533   2.797
 5612TIP3    H116777   5.778   3.589   2.816
 5612TIP3    H216778   5.697   3.473   2.872
 5613TIP3   OH216779   0.186   1.397   3.102
 5613TIP3    H116780   0.191   1.481   3.058
 5613TIP3    H216781   0.126   1.411   3.175
 5614TIP3   OH216782   6.735   5.740   4.181
 5614TIP3    H116783   6.669   5.775   4.240
 5614TIP3    H216784   6.719   5.784   4.097
 5615TIP3   OH216785   3.244   1.534   2.627
 5615TIP3    H116786   3.290   1.611   2.662
 5615TIP3    H216787   3.310   1.487   2.577
 5616TIP3   OH216788   0.781   5.814   6.787
 5616TIP3    H116789   0.795   5.879   6.717
 5616TIP3    H216790   0.724   5.748   6.747
 5617TIP3   OH216791   5.841   5.303   6.370
 5617TIP3    H116792   5.809   5.258   6.449
 5617TIP3    H216793   5.876   5.233   6.315
 5618TIP3   OH216794   7.956   1.027   4.116
 5618TIP3    H116795   7.864   1.013   4.136
 5618TIP3    H216796   7.992   1.066   4.195
 5619TIP3   OH216797   4.164   6.099   6.694
 5619TIP3    H116798   4.138   6.020   6.742
 5619TIP3    H216799   4.212   6.066   6.618
 5620TIP3   OH216800   5.312   5.705   5.169
 5620TIP3    H116801   5.245   5.681   5.233
 5620TIP3    H216802   5.394   5.698   5.217
 5621TIP3   OH216803   6.841   6.818   2.216
 5621TIP3    H116804   6.884   6.816   2.301
 5621TIP3    H216805   6.759   6.770   2.229
 5622TIP3   OH216806   6.000   0.631   4.878
 5622TIP3    H116807   5.939   0.700   4.849
 5622TIP3    H216808   6.081   0.650   4.832
 5623TIP3   OH216809   2.367   5.544   1.494
 5623TIP3    H116810   2.431   5.580   1.433
 5623TIP3    H216811   2.413   5.542   1.578
 5624TIP3   OH216812   3.332   5.111   1.802
 5624TIP3    H116813   3.296   5.061   1.729
 5624TIP3    H216814   3.414   5.146   1.769
 5625TIP3   OH216815   1.874   1.421   4.747
 5625TIP3    H116816   1.875   1.473   4.827
 5625TIP3    H216817   1.963   1.386   4.740
 5626TIP3   OH216818  -0.030   4.429   3.602
 5626TIP3    H116819   0.019   4.360   3.648
 5626TIP3    H216820   0.016   4.440   3.519
 5627TIP3   OH216821   8.063   2.893   5.159
 5627TIP3    H116822   8.009   2.904   5.237
 5627TIP3    H216823   8.089   2.801   5.161
 5628TIP3   OH216824   6.471   1.288   4.742
 5628TIP3    H116825   6.537   1.348   4.777
 5628TIP3    H216826   6.489   1.204   4.784
 5629TIP3   OH216827   5.777   2.978   1.583
 5629TIP3    H116828   5.855   2.948   1.538
 5629TIP3    H216829   5.708   2.974   1.516
 5630TIP3   OH216830   1.568   3.767   3.396
 5630TIP3    H116831   1.516   3.697   3.357
 5630TIP3    H216832   1.656   3.754   3.362
 5631TIP3   OH216833   0.146   2.304   3.663
 5631TIP3    H116834   0.203   2.237   3.703
 5631TIP3    H216835   0.058   2.280   3.691
 5632TIP3   OH216836   3.818   7.653   5.231
 5632TIP3    H116837   3.841   7.582   5.171
 5632TIP3    H216838   3.820   7.732   5.177
 5633TIP3   OH216839   7.061   6.403   3.362
 5633TIP3    H116840   6.967   6.405   3.378
 5633TIP3    H216841   7.094   6.334   3.420
 5634TIP3   OH216842   3.580   5.744   4.293
 5634TIP3    H116843   3.673   5.750   4.272
 5634TIP3    H216844   3.565   5.814   4.357
 5635TIP3   OH216845   1.171   3.475   6.619
 5635TIP3    H116846   1.169   3.424   6.701
 5635TIP3    H216847   1.259   3.462   6.585
 5636TIP3   OH216848   0.070   7.699   0.955
 5636TIP3    H116849   0.143   7.639   0.943
 5636TIP3    H216850   0.082   7.734   1.043
 5637TIP3   OH216851   3.401   3.291   2.871
 5637TIP3    H116852   3.324   3.284   2.927
 5637TIP3    H216853   3.366   3.303   2.782
 5638TIP3   OH216854   7.930   1.597   2.688
 5638TIP3    H116855   7.923   1.557   2.775
 5638TIP3    H216856   7.868   1.670   2.690
 5639TIP3   OH216857   6.528   7.650   4.625
 5639TIP3    H116858   6.554   7.728   4.673
 5639TIP3    H216859   6.452   7.677   4.573
 5640TIP3   OH216860   1.586   6.756   6.838
 5640TIP3    H116861   1.651   6.792   6.778
 5640TIP3    H216862   1.565   6.829   6.897
 5641TIP3   OH216863   2.472   3.942   5.607
 5641TIP3    H116864   2.511   3.888   5.538
 5641TIP3    H216865   2.390   3.898   5.629
 5642TIP3   OH216866   7.426   3.429   4.781
 5642TIP3    H116867   7.343   3.411   4.826
 5642TIP3    H216868   7.405   3.422   4.688
 5643TIP3   OH216869   3.062   4.605   0.027
 5643TIP3    H116870   3.066   4.529   0.086
 5643TIP3    H216871   3.140   4.656   0.050
 5644TIP3   OH216872   5.213   4.157   2.171
 5644TIP3    H116873   5.121   4.175   2.187
 5644TIP3    H216874   5.241   4.224   2.110
 5645TIP3   OH216875   4.564   3.385   2.458
 5645TIP3    H116876   4.571   3.450   2.528
 5645TIP3    H216877   4.645   3.334   2.466
 5646TIP3   OH216878   5.522   1.003   0.290
 5646TIP3    H116879   5.608   1.039   0.271
 5646TIP3    H216880   5.531   0.909   0.273
 5647TIP3   OH216881   1.636   4.196   1.927
 5647TIP3    H116882   1.674   4.278   1.956
 5647TIP3    H216883   1.639   4.200   1.831
 5648TIP3   OH216884   5.578   0.598   3.768
 5648TIP3    H116885   5.590   0.583   3.861
 5648TIP3    H216886   5.592   0.692   3.757
 5649TIP3   OH216887   6.737   1.604   2.007
 5649TIP3    H116888   6.687   1.524   2.023
 5649TIP3    H216889   6.828   1.579   2.023
 5650TIP3   OH216890   3.951   7.641   5.743
 5650TIP3    H116891   4.002   7.608   5.669
 5650TIP3    H216892   4.013   7.696   5.792
 5651TIP3   OH216893   4.315   3.653   0.472
 5651TIP3    H116894   4.358   3.691   0.395
 5651TIP3    H216895   4.364   3.572   0.488
 5652TIP3   OH216896   1.374   4.750   2.957
 5652TIP3    H116897   1.347   4.798   2.878
 5652TIP3    H216898   1.402   4.818   3.018
 5653TIP3   OH216899   0.754   1.925   5.270
 5653TIP3    H116900   0.682   1.915   5.333
 5653TIP3    H216901   0.743   1.852   5.209
 5654TIP3   OH216902   8.076   6.923   6.599
 5654TIP3    H116903   8.073   6.842   6.649
 5654TIP3    H216904   8.167   6.933   6.574
 5655TIP3   OH216905   8.160   7.402   1.880
 5655TIP3    H116906   8.178   7.380   1.971
 5655TIP3    H216907   8.128   7.320   1.842
 5656TIP3   OH216908   8.202   6.247   1.758
 5656TIP3    H116909   8.143   6.299   1.811
 5656TIP3    H216910   8.167   6.158   1.764
 5657TIP3   OH216911   0.856   7.595   2.933
 5657TIP3    H116912   0.913   7.666   2.903
 5657TIP3    H216913   0.881   7.581   3.024
 5658TIP3   OH216914   3.281   4.081   0.383
 5658TIP3    H116915   3.221   4.057   0.454
 5658TIP3    H216916   3.288   4.002   0.330
 5659TIP3   OH216917   3.777   3.316   2.778
 5659TIP3    H116918   3.755   3.356   2.862
 5659TIP3    H216919   3.699   3.265   2.754
 5660TIP3   OH216920   1.012   4.582   4.029
 5660TIP3    H116921   0.918   4.596   4.021
 5660TIP3    H216922   1.042   4.560   3.941
 5661TIP3   OH216923   2.506   0.911   2.513
 5661TIP3    H116924   2.466   0.915   2.426
 5661TIP3    H216925   2.551   0.995   2.522
 5662TIP3   OH216926   6.166   4.579   4.872
 5662TIP3    H116927   6.245   4.631   4.887
 5662TIP3    H216928   6.176   4.546   4.782
 5663TIP3   OH216929   2.397   0.061   3.574
 5663TIP3    H116930   2.383   0.028   3.663
 5663TIP3    H216931   2.312   0.050   3.531
 5664TIP3   OH216932   4.438   6.759   5.581
 5664TIP3    H116933   4.343   6.768   5.590
 5664TIP3    H216934   4.474   6.839   5.619
 5665TIP3   OH216935   0.072   7.455   4.704
 5665TIP3    H116936  -0.015   7.466   4.664
 5665TIP3    H216937   0.091   7.540   4.743
 5666TIP3   OH216938   1.794   0.776   0.822
 5666TIP3    H116939   1.737   0.703   0.848
 5666TIP3    H216940   1.830   0.749   0.738
 5667TIP3   OH216941   7.376   1.522   3.310
 5667TIP3    H116942   7.436   1.447   3.313
 5667TIP3    H216943   7.392   1.563   3.225
 5668TIP3   OH216944   0.028   6.074   1.421
 5668TIP3    H116945   0.023   6.164   1.453
 5668TIP3    H216946   0.011   6.081   1.327
 5669TIP3   OH216947   2.860   4.743   2.775
 5669TIP3    H116948   2.820   4.686   2.709
 5669TIP3    H216949   2.932   4.691   2.811
 5670TIP3   OH216950   6.339   7.918   3.826
 5670TIP3    H116951   6.380   7.852   3.882
 5670TIP3    H216952   6.402   7.930   3.754
 5671TIP3   OH216953   3.570   6.558   5.391
 5671TIP3    H116954   3.552   6.631   5.450
 5671TIP3    H216955   3.485   6.540   5.350
 5672TIP3   OH216956   2.514   2.389   1.065
 5672TIP3    H116957   2.514   2.415   1.157
 5672TIP3    H216958   2.597   2.343   1.052
 5673TIP3   OH216959   6.290   0.782   0.730
 5673TIP3    H116960   6.286   0.706   0.671
 5673TIP3    H216961   6.202   0.818   0.728
 5674TIP3   OH216962   5.417   0.914   5.972
 5674TIP3    H116963   5.341   0.941   5.920
 5674TIP3    H216964   5.392   0.932   6.063
 5675TIP3   OH216965   5.809   1.346   0.429
 5675TIP3    H116966   5.815   1.421   0.488
 5675TIP3    H216967   5.881   1.288   0.456
 5676TIP3   OH216968   5.124   0.838   5.611
 5676TIP3    H116969   5.083   0.804   5.690
 5676TIP3    H216970   5.098   0.778   5.542
 5677TIP3   OH216971   1.309   1.277   1.171
 5677TIP3    H116972   1.245   1.314   1.232
 5677TIP3    H216973   1.362   1.351   1.143
 5678TIP3   OH216974   7.290   0.019   6.802
 5678TIP3    H116975   7.230  -0.049   6.773
 5678TIP3    H216976   7.314  -0.005   6.892
 5679TIP3   OH216977   4.127   6.114   2.014
 5679TIP3    H116978   4.188   6.093   2.084
 5679TIP3    H216979   4.183   6.141   1.941
 5680TIP3   OH216980   5.282   2.652   0.897
 5680TIP3    H116981   5.336   2.584   0.938
 5680TIP3    H216982   5.327   2.733   0.918
 5681TIP3   OH216983   6.694   4.520   2.907
 5681TIP3    H116984   6.768   4.580   2.910
 5681TIP3    H216985   6.714   4.454   2.974
 5682TIP3   OH216986   3.624   2.831   6.721
 5682TIP3    H116987   3.706   2.782   6.727
 5682TIP3    H216988   3.563   2.771   6.678
 5683TIP3   OH216989   7.437   6.863   0.713
 5683TIP3    H116990   7.425   6.906   0.797
 5683TIP3    H216991   7.449   6.771   0.734
 5684TIP3   OH216992   7.501   7.184   4.232
 5684TIP3    H116993   7.441   7.175   4.306
 5684TIP3    H216994   7.535   7.273   4.238
 5685TIP3   OH216995   3.036   7.226   4.983
 5685TIP3    H116996   3.073   7.147   4.943
 5685TIP3    H216997   2.999   7.195   5.066
 5686TIP3   OH216998   1.959   7.612   0.610
 5686TIP3    H116999   1.925   7.693   0.572
 5686TIP3    H217000   2.009   7.571   0.539
 5687TIP3   OH217001   6.727   5.544   3.977
 5687TIP3    H117002   6.713   5.594   4.057
 5687TIP3    H217003   6.686   5.460   3.993
 5688TIP3   OH217004   3.467   7.871   4.084
 5688TIP3    H117005   3.401   7.846   4.019
 5688TIP3    H217006   3.547   7.884   4.034
 5689TIP3   OH217007   0.742   7.512   4.696
 5689TIP3    H117008   0.769   7.506   4.787
 5689TIP3    H217009   0.734   7.606   4.680
 5690TIP3   OH217010   1.340   4.352   6.369
 5690TIP3    H117011   1.336   4.338   6.274
 5690TIP3    H217012   1.250   4.370   6.394
 5691TIP3   OH217013   5.213   7.271   3.955
 5691TIP3    H117014   5.190   7.185   3.991
 5691TIP3    H217015   5.275   7.251   3.885
 5692TIP3   OH217016   6.338   5.498   0.730
 5692TIP3    H117017   6.275   5.503   0.658
 5692TIP3    H217018   6.292   5.450   0.798
 5693TIP3   OH217019   7.958   0.029   6.716
 5693TIP3    H117020   8.024   0.058   6.654
 5693TIP3    H217021   8.005  -0.026   6.779
 5694TIP3   OH217022   8.030   1.863   5.656
 5694TIP3    H117023   8.057   1.952   5.632
 5694TIP3    H217024   8.111   1.817   5.674
 5695TIP3   OH217025   8.306   3.054   2.849
 5695TIP3    H117026   8.244   3.015   2.912
 5695TIP3    H217027   8.368   3.102   2.904
 5696TIP3   OH217028   7.941   5.317   1.148
 5696TIP3    H117029   7.874   5.384   1.156
 5696TIP3    H217030   7.902   5.238   1.184
 5697TIP3   OH217031   3.117   2.998   3.841
 5697TIP3    H117032   3.082   2.934   3.903
 5697TIP3    H217033   3.060   3.074   3.849
 5698TIP3   OH217034   7.881   0.658   3.861
 5698TIP3    H117035   7.916   0.739   3.897
 5698TIP3    H217036   7.936   0.589   3.897
 5699TIP3   OH217037   4.329   4.860   1.604
 5699TIP3    H117038   4.352   4.887   1.515
 5699TIP3    H217039   4.390   4.789   1.623
 5700TIP3   OH217040   5.441   3.203   4.046
 5700TIP3    H117041   5.475   3.207   4.136
 5700TIP3    H217042   5.519   3.208   3.991
 5701TIP3   OH217043   2.323   4.014   6.814
 5701TIP3    H117044   2.310   3.971   6.729
 5701TIP3    H217045   2.254   3.978   6.870
 5702TIP3   OH217046   3.094   7.404   3.279
 5702TIP3    H117047   3.016   7.428   3.230
 5702TIP3    H217048   3.132   7.331   3.230
 5703TIP3   OH217049   6.404   4.023   6.088
 5703TIP3    H117050   6.449   3.942   6.062
 5703TIP3    H217051   6.334   4.033   6.024
 5704TIP3   OH217052   2.259   1.854   3.265
 5704TIP3    H117053   2.354   1.842   3.259
 5704TIP3    H217054   2.245   1.946   3.241
 5705TIP3   OH217055   6.617   1.380   0.163
 5705TIP3    H117056   6.679   1.441   0.204
 5705TIP3    H217057   6.672   1.308   0.132
 5706TIP3   OH217058   8.063   0.949   5.089
 5706TIP3    H117059   7.987   0.961   5.147
 5706TIP3    H217060   8.123   0.895   5.139
 5707TIP3   OH217061   8.192   3.979   0.621
 5707TIP3    H117062   8.116   3.959   0.566
 5707TIP3    H217063   8.263   3.994   0.558
 5708TIP3   OH217064   1.303   2.068   2.877
 5708TIP3    H117065   1.228   2.068   2.937
 5708TIP3    H217066   1.306   2.157   2.842
 5709TIP3   OH217067   1.716   2.224   1.806
 5709TIP3    H117068   1.731   2.281   1.881
 5709TIP3    H217069   1.795   2.234   1.752
 5710TIP3   OH217070   4.250   2.902   2.014
 5710TIP3    H117071   4.222   2.903   2.106
 5710TIP3    H217072   4.333   2.853   2.015
 5711TIP3   OH217073   1.069   0.862   5.373
 5711TIP3    H117074   1.087   0.780   5.418
 5711TIP3    H217075   0.994   0.899   5.420
 5712TIP3   OH217076   3.360   7.027   4.697
 5712TIP3    H117077   3.346   6.959   4.631
 5712TIP3    H217078   3.455   7.036   4.703
 5713TIP3   OH217079   4.398   3.088   3.793
 5713TIP3    H117080   4.476   3.137   3.767
 5713TIP3    H217081   4.333   3.111   3.726
 5714TIP3   OH217082   0.914   6.958   1.445
 5714TIP3    H117083   0.950   6.955   1.357
 5714TIP3    H217084   0.963   6.891   1.493
 5715TIP3   OH217085   1.467   6.899   0.261
 5715TIP3    H117086   1.550   6.879   0.218
 5715TIP3    H217087   1.491   6.955   0.335
 5716TIP3   OH217088   4.461   1.671   6.285
 5716TIP3    H117089   4.428   1.586   6.315
 5716TIP3    H217090   4.553   1.655   6.264
 5717TIP3   OH217091   4.291   0.823   6.129
 5717TIP3    H117092   4.379   0.828   6.166
 5717TIP3    H217093   4.234   0.857   6.198
 5718TIP3   OH217094   3.380   3.405   3.712
 5718TIP3    H117095   3.472   3.417   3.736
 5718TIP3    H217096   3.339   3.370   3.791
 5719TIP3   OH217097   0.503   5.675   5.741
 5719TIP3    H117098   0.494   5.652   5.833
 5719TIP3    H217099   0.452   5.610   5.694
 5720TIP3   OH217100   0.072   3.532   3.479
 5720TIP3    H117101  -0.003   3.567   3.432
 5720TIP3    H217102   0.060   3.437   3.478
 5721TIP3   OH217103   7.945   4.828   1.302
 5721TIP3    H117104   7.962   4.882   1.225
 5721TIP3    H217105   7.931   4.740   1.268
 5722TIP3   OH217106   0.986   2.550   2.202
 5722TIP3    H117107   1.033   2.630   2.179
 5722TIP3    H217108   0.979   2.554   2.298
 5723TIP3   OH217109   2.536   1.636   6.874
 5723TIP3    H117110   2.555   1.728   6.858
 5723TIP3    H217111   2.460   1.617   6.820
 5724TIP3   OH217112   5.722   3.334   4.294
 5724TIP3    H117113   5.753   3.320   4.383
 5724TIP3    H217114   5.675   3.254   4.272
 5725TIP3   OH217115   2.826   4.057   0.753
 5725TIP3    H117116   2.763   3.988   0.773
 5725TIP3    H217117   2.783   4.110   0.686
 5726TIP3   OH217118   5.958   0.224   0.404
 5726TIP3    H117119   5.932   0.293   0.344
 5726TIP3    H217120   5.930   0.255   0.490
 5727TIP3   OH217121   2.777   5.570   5.296
 5727TIP3    H117122   2.796   5.587   5.388
 5727TIP3    H217123   2.846   5.615   5.248
 5728TIP3   OH217124   6.445   7.920   2.464
 5728TIP3    H117125   6.456   7.848   2.525
 5728TIP3    H217126   6.477   7.997   2.512
 5729TIP3   OH217127   4.137   1.439   6.817
 5729TIP3    H117128   4.158   1.531   6.798
 5729TIP3    H217129   4.221   1.395   6.822
 5730TIP3   OH217130   5.032   5.205   5.882
 5730TIP3    H117131   4.939   5.212   5.858
 5730TIP3    H217132   5.048   5.111   5.889
 5731TIP3   OH217133   1.762   3.934   0.985
 5731TIP3    H117134   1.737   3.895   1.068
 5731TIP3    H217135   1.806   4.015   1.008
 5732TIP3   OH217136   4.329   6.240   0.104
 5732TIP3    H117137   4.325   6.327   0.145
 5732TIP3    H217138   4.371   6.256   0.019
 5733TIP3   OH217139   0.976   6.785   0.378
 5733TIP3    H117140   0.941   6.848   0.442
 5733TIP3    H217141   1.046   6.740   0.425
 5734TIP3   OH217142   4.045   2.057   1.840
 5734TIP3    H117143   4.017   2.034   1.751
 5734TIP3    H217144   3.999   1.995   1.896
 5735TIP3   OH217145   1.149   6.829   5.183
 5735TIP3    H117146   1.128   6.834   5.090
 5735TIP3    H217147   1.242   6.848   5.187
 5736TIP3   OH217148   8.342   1.129   2.680
 5736TIP3    H117149   8.433   1.156   2.686
 5736TIP3    H217150   8.342   1.057   2.616
 5737TIP3   OH217151   6.648   7.049   6.184
 5737TIP3    H117152   6.731   7.053   6.136
 5737TIP3    H217153   6.664   7.101   6.263
 5738TIP3   OH217154   3.785   1.413   4.026
 5738TIP3    H117155   3.864   1.452   4.063
 5738TIP3    H217156   3.771   1.334   4.079
 5739TIP3   OH217157   3.677   5.337   4.306
 5739TIP3    H117158   3.703   5.426   4.284
 5739TIP3    H217159   3.749   5.303   4.358
 5740TIP3   OH217160   8.011   3.291   5.322
 5740TIP3    H117161   7.917   3.280   5.331
 5740TIP3    H217162   8.021   3.373   5.274
 5741TIP3   OH217163   2.817   6.278   4.854
 5741TIP3    H117164   2.903   6.238   4.865
 5741TIP3    H217165   2.801   6.324   4.936
 5742TIP3   OH217166   2.560   2.194   2.404
 5742TIP3    H117167   2.648   2.175   2.436
 5742TIP3    H217168   2.513   2.111   2.413
 5743TIP3   OH217169   8.189   0.700   3.772
 5743TIP3    H117170   8.159   0.790   3.774
 5743TIP3    H217171   8.245   0.692   3.849
 5744TIP3   OH217172   2.880   3.131   5.401
 5744TIP3    H117173   2.905   3.145   5.492
 5744TIP3    H217174   2.915   3.045   5.378
 5745TIP3   OH217175   4.684   6.759   1.844
 5745TIP3    H117176   4.688   6.671   1.808
 5745TIP3    H217177   4.645   6.748   1.930
 5746TIP3   OH217178   4.793   0.845   2.697
 5746TIP3    H117179   4.702   0.816   2.705
 5746TIP3    H217180   4.796   0.927   2.746
 5747TIP3   OH217181   0.302   4.404   3.984
 5747TIP3    H117182   0.254   4.445   4.056
 5747TIP3    H217183   0.264   4.316   3.977
 5748TIP3   OH217184   4.252   2.912   3.109
 5748TIP3    H117185   4.157   2.911   3.100
 5748TIP3    H217186   4.284   2.957   3.031
 5749TIP3   OH217187   6.802   4.614   1.975
 5749TIP3    H117188   6.810   4.709   1.973
 5749TIP3    H217189   6.873   4.585   2.033
 5750TIP3   OH217190   6.435   2.370   0.037
 5750TIP3    H117191   6.366   2.349  -0.026
 5750TIP3    H217192   6.459   2.286   0.075
 5751TIP3   OH217193   2.146   7.208   5.713
 5751TIP3    H117194   2.140   7.147   5.787
 5751TIP3    H217195   2.058   7.207   5.674
 5752TIP3   OH217196   4.629   0.559   5.052
 5752TIP3    H117197   4.673   0.513   5.123
 5752TIP3    H217198   4.698   0.577   4.989
 5753TIP3   OH217199   7.620   1.915   0.921
 5753TIP3    H117200   7.539   1.864   0.914
 5753TIP3    H217201   7.624   1.965   0.840
 5754TIP3   OH217202   1.866   7.894   4.253
 5754TIP3    H117203   1.958   7.883   4.276
 5754TIP3    H217204   1.859   7.986   4.227
 5755TIP3   OH217205   7.460   5.515   5.902
 5755TIP3    H117206   7.432   5.443   5.959
 5755TIP3    H217207   7.443   5.483   5.814
 5756TIP3   OH217208   3.204   2.383   1.316
 5756TIP3    H117209   3.263   2.312   1.339
 5756TIP3    H217210   3.141   2.343   1.256
 5757TIP3   OH217211   6.709   3.700   4.736
 5757TIP3    H117212   6.765   3.670   4.808
 5757TIP3    H217213   6.633   3.738   4.780
 5758TIP3   OH217214   3.007   5.179   0.538
 5758TIP3    H117215   2.988   5.224   0.456
 5758TIP3    H217216   3.008   5.086   0.515
 5759TIP3   OH217217   0.859   6.857   0.148
 5759TIP3    H117218   0.889   6.947   0.160
 5759TIP3    H217219   0.897   6.809   0.222
 5760TIP3   OH217220   4.273   7.155   6.214
 5760TIP3    H117221   4.309   7.103   6.143
 5760TIP3    H217222   4.285   7.246   6.186
 5761TIP3   OH217223   4.042   6.882   4.623
 5761TIP3    H117224   3.956   6.919   4.603
 5761TIP3    H217225   4.097   6.959   4.638
 5762TIP3   OH217226   4.250   5.576   2.784
 5762TIP3    H117227   4.163   5.595   2.820
 5762TIP3    H217228   4.305   5.647   2.817
 5763TIP3   OH217229   7.612   6.569   1.121
 5763TIP3    H117230   7.648   6.486   1.092
 5763TIP3    H217231   7.560   6.547   1.199
 5764TIP3   OH217232   0.232   2.213   6.356
 5764TIP3    H117233   0.267   2.299   6.331
 5764TIP3    H217234   0.186   2.230   6.439
 5765TIP3   OH217235   0.528   4.017   2.700
 5765TIP3    H117236   0.460   4.005   2.633
 5765TIP3    H217237   0.486   4.071   2.767
 5766TIP3   OH217238   7.035   3.810   5.148
 5766TIP3    H117239   7.121   3.852   5.153
 5766TIP3    H217240   7.031   3.754   5.226
 5767TIP3   OH217241   5.572   1.368   5.055
 5767TIP3    H117242   5.645   1.309   5.071
 5767TIP3    H217243   5.573   1.384   4.961
 5768TIP3   OH217244   1.414   3.805   2.497
 5768TIP3    H117245   1.364   3.860   2.437
 5768TIP3    H217246   1.353   3.737   2.524
 5769TIP3   OH217247   7.108   0.025   3.184
 5769TIP3    H117248   7.135   0.090   3.119
 5769TIP3    H217249   7.087   0.076   3.262
 5770TIP3   OH217250   5.613   1.618   6.420
 5770TIP3    H117251   5.612   1.671   6.499
 5770TIP3    H217252   5.530   1.571   6.421
 5771TIP3   OH217253   2.441   6.836   3.415
 5771TIP3    H117254   2.408   6.792   3.493
 5771TIP3    H217255   2.364   6.850   3.360
 5772TIP3   OH217256   5.926   0.059   1.287
 5772TIP3    H117257   5.872   0.137   1.302
 5772TIP3    H217258   5.912   0.005   1.365
 5773TIP3   OH217259   4.595   3.446   3.041
 5773TIP3    H117260   4.685   3.476   3.032
 5773TIP3    H217261   4.595   3.389   3.118
 5774TIP3   OH217262   4.204   5.024   4.171
 5774TIP3    H117263   4.142   4.956   4.142
 5774TIP3    H217264   4.246   4.986   4.248
 5775TIP3   OH217265   3.557   1.892   2.978
 5775TIP3    H117266   3.471   1.851   2.983
 5775TIP3    H217267   3.550   1.955   2.906
 5776TIP3   OH217268   1.186   0.951   5.638
 5776TIP3    H117269   1.197   1.037   5.596
 5776TIP3    H217270   1.274   0.914   5.640
 5777TIP3   OH217271   0.880   4.292   5.869
 5777TIP3    H117272   0.826   4.219   5.900
 5777TIP3    H217273   0.824   4.369   5.878
 5778TIP3   OH217274   7.252   5.432   0.803
 5778TIP3    H117275   7.347   5.421   0.808
 5778TIP3    H217276   7.219   5.397   0.886
 5779TIP3   OH217277   7.478   0.538   4.419
 5779TIP3    H117278   7.441   0.486   4.491
 5779TIP3    H217279   7.439   0.500   4.340
 5780TIP3   OH217280   5.167   4.348   2.825
 5780TIP3    H117281   5.227   4.274   2.812
 5780TIP3    H217282   5.216   4.408   2.882
 5781TIP3   OH217283   1.748   7.111   1.756
 5781TIP3    H117284   1.692   7.099   1.833
 5781TIP3    H217285   1.720   7.195   1.719
 5782TIP3   OH217286   7.130   5.534   2.548
 5782TIP3    H117287   7.049   5.487   2.567
 5782TIP3    H217288   7.177   5.535   2.632
 5783TIP3   OH217289   7.693  -0.013   5.625
 5783TIP3    H117290   7.710  -0.086   5.683
 5783TIP3    H217291   7.599  -0.017   5.606
 5784TIP3   OH217292   1.996   0.398   1.142
 5784TIP3    H117293   2.022   0.386   1.233
 5784TIP3    H217294   1.956   0.315   1.117
 5785TIP3   OH217295   2.645   6.949   0.713
 5785TIP3    H117296   2.708   6.895   0.665
 5785TIP3    H217297   2.658   7.038   0.678
 5786TIP3   OH217298   0.792   4.912   6.001
 5786TIP3    H117299   0.778   5.000   6.035
 5786TIP3    H217300   0.842   4.867   6.070
 5787TIP3   OH217301   2.549   0.018   4.808
 5787TIP3    H117302   2.530   0.092   4.751
 5787TIP3    H217303   2.637  -0.009   4.785
 5788TIP3   OH217304   1.967   4.493   3.905
 5788TIP3    H117305   1.894   4.433   3.917
 5788TIP3    H217306   1.984   4.491   3.811
 5789TIP3   OH217307   4.579   4.975   3.168
 5789TIP3    H117308   4.628   4.934   3.096
 5789TIP3    H217309   4.646   5.015   3.223
 5790TIP3   OH217310   2.385   6.830   4.041
 5790TIP3    H117311   2.298   6.808   4.009
 5790TIP3    H217312   2.394   6.924   4.024
 5791TIP3   OH217313   6.470   4.047   5.140
 5791TIP3    H117314   6.545   3.992   5.160
 5791TIP3    H217315   6.404   4.024   5.205
 5792TIP3   OH217316   8.170   1.583   4.393
 5792TIP3    H117317   8.086   1.619   4.366
 5792TIP3    H217318   8.232   1.616   4.329
 5793TIP3   OH217319   7.796   2.656   3.169
 5793TIP3    H117320   7.883   2.635   3.201
 5793TIP3    H217321   7.745   2.576   3.182
 5794TIP3   OH217322   2.989   1.875   1.805
 5794TIP3    H117323   2.920   1.939   1.787
 5794TIP3    H217324   2.975   1.806   1.741
 5795TIP3   OH217325   2.011   7.030   4.317
 5795TIP3    H117326   1.963   7.080   4.251
 5795TIP3    H217327   2.074   7.093   4.353
 5796TIP3   OH217328   3.609   0.511   3.949
 5796TIP3    H117329   3.525   0.557   3.951
 5796TIP3    H217330   3.633   0.502   4.041
 5797TIP3   OH217331   2.367   7.320   1.443
 5797TIP3    H117332   2.278   7.344   1.415
 5797TIP3    H217333   2.425   7.372   1.387
 5798TIP3   OH217334   1.742   1.556   4.543
 5798TIP3    H117335   1.770   1.495   4.611
 5798TIP3    H217336   1.762   1.511   4.461
 5799TIP3   OH217337   6.332   5.454   1.748
 5799TIP3    H117338   6.348   5.386   1.814
 5799TIP3    H217339   6.239   5.445   1.727
 5800TIP3   OH217340   5.497   3.466   3.565
 5800TIP3    H117341   5.440   3.389   3.562
 5800TIP3    H217342   5.538   3.469   3.479
 5801TIP3   OH217343   0.742   6.082   6.233
 5801TIP3    H117344   0.682   6.101   6.306
 5801TIP3    H217345   0.686   6.085   6.155
 5802TIP3   OH217346   2.986   1.746   3.983
 5802TIP3    H117347   2.930   1.793   3.921
 5802TIP3    H217348   2.994   1.658   3.946
 5803TIP3   OH217349   5.054   7.122   4.397
 5803TIP3    H117350   4.965   7.135   4.364
 5803TIP3    H217351   5.044   7.124   4.493
 5804TIP3   OH217352   2.541   0.818   0.364
 5804TIP3    H117353   2.464   0.872   0.344
 5804TIP3    H217354   2.505   0.731   0.382
 5805TIP3   OH217355   3.131   4.436   5.775
 5805TIP3    H117356   3.110   4.476   5.860
 5805TIP3    H217357   3.119   4.342   5.790
 5806TIP3   OH217358   7.034   0.495   1.789
 5806TIP3    H117359   7.124   0.515   1.816
 5806TIP3    H217360   7.037   0.495   1.694
 5807TIP3   OH217361   1.906   4.937   5.916
 5807TIP3    H117362   1.827   4.969   5.959
 5807TIP3    H217363   1.927   4.855   5.962
 5808TIP3   OH217364   4.520   3.457   0.573
 5808TIP3    H117365   4.615   3.460   0.575
 5808TIP3    H217366   4.497   3.397   0.644
 5809TIP3   OH217367   2.682   6.917   6.428
 5809TIP3    H117368   2.756   6.925   6.488
 5809TIP3    H217369   2.719   6.872   6.352
 5810TIP3   OH217370   0.707   3.504   2.451
 5810TIP3    H117371   0.689   3.447   2.376
 5810TIP3    H217372   0.674   3.456   2.527
 5811TIP3   OH217373   0.830   6.937   5.321
 5811TIP3    H117374   0.843   6.852   5.278
 5811TIP3    H217375   0.749   6.971   5.284
 5812TIP3   OH217376   4.312   4.949   5.309
 5812TIP3    H117377   4.224   4.940   5.346
 5812TIP3    H217378   4.345   4.859   5.304
 5813TIP3   OH217379   0.621   6.967   5.135
 5813TIP3    H117380   0.551   7.031   5.152
 5813TIP3    H217381   0.594   6.922   5.055
 5814TIP3   OH217382   1.231   1.663   1.845
 5814TIP3    H117383   1.184   1.739   1.878
 5814TIP3    H217384   1.234   1.603   1.920
 5815TIP3   OH217385   1.525   6.731   1.495
 5815TIP3    H117386   1.584   6.796   1.534
 5815TIP3    H217387   1.566   6.710   1.411
 5816TIP3   OH217388   2.638   4.452   6.313
 5816TIP3    H117389   2.709   4.509   6.284
 5816TIP3    H217390   2.648   4.373   6.260
 5817TIP3   OH217391   6.809   0.861   5.131
 5817TIP3    H117392   6.862   0.816   5.066
 5817TIP3    H217393   6.824   0.954   5.114
 5818TIP3   OH217394   6.038   4.384   5.039
 5818TIP3    H117395   6.060   4.430   4.958
 5818TIP3    H217396   5.944   4.399   5.051
 5819TIP3   OH217397   5.750   1.352   3.663
 5819TIP3    H117398   5.696   1.282   3.699
 5819TIP3    H217399   5.722   1.430   3.710
 5820TIP3   OH217400   0.947   0.743   6.837
 5820TIP3    H117401   0.994   0.696   6.768
 5820TIP3    H217402   1.010   0.808   6.869
 5821TIP3   OH217403   7.257   2.190   3.745
 5821TIP3    H117404   7.278   2.097   3.742
 5821TIP3    H217405   7.221   2.204   3.833
 5822TIP3   OH217406   1.932   1.506   1.737
 5822TIP3    H117407   2.007   1.488   1.681
 5822TIP3    H217408   1.856   1.483   1.684
 5823TIP3   OH217409   5.009   5.658   4.204
 5823TIP3    H117410   5.059   5.584   4.171
 5823TIP3    H217411   4.969   5.697   4.126
 5824TIP3   OH217412   5.646   1.071   5.911
 5824TIP3    H117413   5.597   1.072   5.829
 5824TIP3    H217414   5.603   1.004   5.964
 5825TIP3   OH217415   4.885   1.059   6.291
 5825TIP3    H117416   4.833   1.002   6.235
 5825TIP3    H217417   4.965   1.075   6.241
 5826TIP3   OH217418   5.019   7.849   5.931
 5826TIP3    H117419   5.018   7.944   5.916
 5826TIP3    H217420   4.959   7.836   6.005
 5827TIP3   OH217421   7.567   4.052   5.845
 5827TIP3    H117422   7.508   4.127   5.843
 5827TIP3    H217423   7.599   4.049   5.935
 5828TIP3   OH217424   6.922   2.642   3.368
 5828TIP3    H117425   6.889   2.725   3.333
 5828TIP3    H217426   6.875   2.575   3.320
 5829TIP3   OH217427   5.880   0.374   2.419
 5829TIP3    H117428   5.836   0.309   2.473
 5829TIP3    H217429   5.964   0.388   2.462
 5830TIP3   OH217430   3.219   0.410   2.604
 5830TIP3    H117431   3.272   0.363   2.668
 5830TIP3    H217432   3.193   0.491   2.648
 5831TIP3   OH217433   3.181   6.013   5.887
 5831TIP3    H117434   3.093   6.043   5.862
 5831TIP3    H217435   3.191   6.044   5.978
 5832TIP3   OH217436   3.757   2.919   1.263
 5832TIP3    H117437   3.834   2.934   1.317
 5832TIP3    H217438   3.727   2.831   1.286
 5833TIP3   OH217439   2.287   0.695   0.582
 5833TIP3    H117440   2.259   0.782   0.610
 5833TIP3    H217441   2.206   0.650   0.559
 5834TIP3   OH217442   1.797   2.611   4.526
 5834TIP3    H117443   1.825   2.641   4.440
 5834TIP3    H217444   1.790   2.691   4.578
 5835TIP3   OH217445   7.030   4.230   1.421
 5835TIP3    H117446   6.967   4.291   1.382
 5835TIP3    H217447   7.024   4.152   1.365
 5836TIP3   OH217448   2.951   1.317   0.921
 5836TIP3    H117449   3.037   1.353   0.944
 5836TIP3    H217450   2.955   1.304   0.826
 5837TIP3   OH217451   7.210   3.420   3.697
 5837TIP3    H117452   7.240   3.382   3.779
 5837TIP3    H217453   7.252   3.505   3.692
 5838TIP3   OH217454   2.699   3.812   2.464
 5838TIP3    H117455   2.617   3.793   2.419
 5838TIP3    H217456   2.764   3.817   2.395
 5839TIP3   OH217457   4.839   2.146   5.310
 5839TIP3    H117458   4.758   2.179   5.350
 5839TIP3    H217459   4.884   2.100   5.381
 5840TIP3   OH217460   2.490   6.865   6.097
 5840TIP3    H117461   2.564   6.832   6.046
 5840TIP3    H217462   2.504   6.829   6.185
 5841TIP3   OH217463   0.296   2.674   3.495
 5841TIP3    H117464   0.245   2.706   3.420
 5841TIP3    H217465   0.253   2.713   3.571
 5842TIP3   OH217466   5.697   6.835   1.281
 5842TIP3    H117467   5.616   6.832   1.230
 5842TIP3    H217468   5.682   6.904   1.345
 5843TIP3   OH217469   5.109   4.811   2.653
 5843TIP3    H117470   5.163   4.873   2.605
 5843TIP3    H217471   5.022   4.817   2.613
 5844TIP3   OH217472   0.225   3.879   4.682
 5844TIP3    H117473   0.299   3.935   4.657
 5844TIP3    H217474   0.265   3.808   4.733
 5845TIP3   OH217475   7.046   4.409   2.423
 5845TIP3    H117476   7.084   4.349   2.488
 5845TIP3    H217477   7.083   4.380   2.340
 5846TIP3   OH217478   3.117   2.269   6.077
 5846TIP3    H117479   3.071   2.232   6.001
 5846TIP3    H217480   3.204   2.290   6.044
 5847TIP3   OH217481   4.814   6.877   5.783
 5847TIP3    H117482   4.757   6.873   5.859
 5847TIP3    H217483   4.876   6.805   5.795
 5848TIP3   OH217484   3.014   4.399   5.321
 5848TIP3    H117485   2.929   4.439   5.341
 5848TIP3    H217486   3.074   4.437   5.385
 5849TIP3   OH217487   2.971   5.467   4.447
 5849TIP3    H117488   2.981   5.421   4.530
 5849TIP3    H217489   2.928   5.549   4.471
 5850TIP3   OH217490   6.410   2.381   3.044
 5850TIP3    H117491   6.331   2.433   3.054
 5850TIP3    H217492   6.446   2.372   3.132
 5851TIP3   OH217493   1.602   2.574   6.216
 5851TIP3    H117494   1.687   2.594   6.256
 5851TIP3    H217495   1.594   2.636   6.144
 5852TIP3   OH217496   4.018   7.548   6.822
 5852TIP3    H117497   4.066   7.626   6.796
 5852TIP3    H217498   3.988   7.509   6.740
 5853TIP3   OH217499   2.924   5.995   3.331
 5853TIP3    H117500   2.980   6.073   3.323
 5853TIP3    H217501   2.835   6.030   3.334
 5854TIP3   OH217502   1.012   7.653   4.751
 5854TIP3    H117503   0.960   7.635   4.830
 5854TIP3    H217504   0.949   7.692   4.690
 5855TIP3   OH217505   7.961   0.309   4.359
 5855TIP3    H117506   7.916   0.390   4.380
 5855TIP3    H217507   7.905   0.266   4.295
 5856TIP3   OH217508   0.537   4.352   4.465
 5856TIP3    H117509   0.542   4.442   4.498
 5856TIP3    H217510   0.548   4.360   4.370
 5857TIP3   OH217511   0.207   3.391   5.554
 5857TIP3    H117512   0.219   3.352   5.468
 5857TIP3    H217513   0.282   3.363   5.606
 5858TIP3   OH217514   7.121   6.824   4.564
 5858TIP3    H117515   7.095   6.772   4.489
 5858TIP3    H217516   7.105   6.768   4.640
 5859TIP3   OH217517   3.108   7.880   0.000
 5859TIP3    H117518   3.057   7.958   0.022
 5859TIP3    H217519   3.199   7.907   0.013
 5860TIP3   OH217520   7.823   7.344   2.272
 5860TIP3    H117521   7.771   7.265   2.288
 5860TIP3    H217522   7.761   7.416   2.282
 5861TIP3   OH217523   5.435   3.056   5.575
 5861TIP3    H117524   5.500   3.061   5.504
 5861TIP3    H217525   5.447   3.138   5.624
 5862TIP3   OH217526   5.645   4.169   6.564
 5862TIP3    H117527   5.729   4.140   6.529
 5862TIP3    H217528   5.580   4.131   6.505
 5863TIP3   OH217529   0.774   0.801   5.041
 5863TIP3    H117530   0.854   0.850   5.059
 5863TIP3    H217531   0.804   0.717   5.007
 5864TIP3   OH217532   7.859   7.201   3.307
 5864TIP3    H117533   7.781   7.144   3.304
 5864TIP3    H217534   7.924   7.149   3.355
 5865TIP3   OH217535   4.750   3.154   0.536
 5865TIP3    H117536   4.658   3.154   0.508
 5865TIP3    H217537   4.799   3.158   0.454
 5866TIP3   OH217538   1.244   2.940   4.389
 5866TIP3    H117539   1.182   2.928   4.461
 5866TIP3    H217540   1.314   2.878   4.407
 5867TIP3   OH217541   4.756   0.971   4.240
 5867TIP3    H117542   4.698   0.944   4.169
 5867TIP3    H217543   4.713   1.047   4.279
 5868TIP3   OH217544   6.584   1.444   0.793
 5868TIP3    H117545   6.628   1.527   0.774
 5868TIP3    H217546   6.512   1.441   0.730
 5869TIP3   OH217547   3.814   0.317   4.532
 5869TIP3    H117548   3.744   0.297   4.595
 5869TIP3    H217549   3.820   0.412   4.532
 5870TIP3   OH217550   1.858   7.498   4.017
 5870TIP3    H117551   1.916   7.573   4.002
 5870TIP3    H217552   1.896   7.452   4.092
 5871TIP3   OH217553   5.864   7.735   4.827
 5871TIP3    H117554   5.800   7.732   4.898
 5871TIP3    H217555   5.935   7.789   4.860
 5872TIP3   OH217556   0.536   7.652   5.056
 5872TIP3    H117557   0.481   7.618   5.127
 5872TIP3    H217558   0.597   7.581   5.036
 5873TIP3   OH217559   5.350   4.727   6.680
 5873TIP3    H117560   5.345   4.751   6.772
 5873TIP3    H217561   5.420   4.662   6.676
 5874TIP3   OH217562   0.596   0.753   0.222
 5874TIP3    H117563   0.505   0.722   0.224
 5874TIP3    H217564   0.622   0.745   0.131
 5875TIP3   OH217565   0.579   6.211   4.821
 5875TIP3    H117566   0.633   6.235   4.896
 5875TIP3    H217567   0.602   6.120   4.802
 5876TIP3   OH217568   5.450   7.836   5.959
 5876TIP3    H117569   5.493   7.851   6.043
 5876TIP3    H217570   5.472   7.913   5.906
 5877TIP3   OH217571   2.178   4.197   1.705
 5877TIP3    H117572   2.106   4.141   1.675
 5877TIP3    H217573   2.140   4.250   1.775
 5878TIP3   OH217574   6.157   7.704   3.880
 5878TIP3    H117575   6.222   7.690   3.950
 5878TIP3    H217576   6.199   7.767   3.822
 5879TIP3   OH217577   7.923   7.011   2.543
 5879TIP3    H117578   7.901   7.104   2.550
 5879TIP3    H217579   7.972   6.991   2.622
 5880TIP3   OH217580   6.855   1.859   2.103
 5880TIP3    H117581   6.825   1.769   2.117
 5880TIP3    H217582   6.775   1.909   2.087
 5881TIP3   OH217583   4.026   0.338   1.684
 5881TIP3    H117584   4.054   0.246   1.689
 5881TIP3    H217585   3.940   0.339   1.727
 5882TIP3   OH217586   0.657   6.948   1.532
 5882TIP3    H117587   0.752   6.958   1.528
 5882TIP3    H217588   0.627   7.024   1.582
 5883TIP3   OH217589   7.641   2.987   5.338
 5883TIP3    H117590   7.628   2.947   5.253
 5883TIP3    H217591   7.570   2.953   5.392
 5884TIP3   OH217592   3.111   6.510   1.622
 5884TIP3    H117593   3.019   6.511   1.649
 5884TIP3    H217594   3.148   6.589   1.662
 5885TIP3   OH217595   1.079   7.490   4.996
 5885TIP3    H117596   1.099   7.400   5.022
 5885TIP3    H217597   1.124   7.501   4.912
 5886TIP3   OH217598   7.237   4.395   6.483
 5886TIP3    H117599   7.201   4.373   6.569
 5886TIP3    H217600   7.225   4.490   6.476
 5887TIP3   OH217601   2.615   7.648   6.621
 5887TIP3    H117602   2.526   7.660   6.655
 5887TIP3    H217603   2.642   7.562   6.654
 5888TIP3   OH217604   7.290   5.645   3.194
 5888TIP3    H117605   7.336   5.717   3.237
 5888TIP3    H217606   7.200   5.676   3.185
 5889TIP3   OH217607   3.718   6.295   6.881
 5889TIP3    H117608   3.715   6.391   6.878
 5889TIP3    H217609   3.712   6.268   6.789
 5890TIP3   OH217610   1.537   7.727   3.477
 5890TIP3    H117611   1.550   7.721   3.572
 5890TIP3    H217612   1.473   7.797   3.466
 5891TIP3   OH217613   3.945   3.181   1.190
 5891TIP3    H117614   3.891   3.257   1.172
 5891TIP3    H217615   3.920   3.154   1.278
 5892TIP3   OH217616   5.642   6.696   6.591
 5892TIP3    H117617   5.586   6.673   6.665
 5892TIP3    H217618   5.582   6.732   6.525
 5893TIP3   OH217619   2.260   5.876   4.568
 5893TIP3    H117620   2.322   5.860   4.497
 5893TIP3    H217621   2.313   5.915   4.637
 5894TIP3   OH217622   2.679   5.302   5.115
 5894TIP3    H117623   2.644   5.309   5.026
 5894TIP3    H217624   2.736   5.225   5.111
 5895TIP3   OH217625   7.698   0.482   4.141
 5895TIP3    H117626   7.649   0.548   4.092
 5895TIP3    H217627   7.786   0.485   4.105
 5896TIP3   OH217628   7.505   3.980   2.291
 5896TIP3    H117629   7.464   3.986   2.377
 5896TIP3    H217630   7.591   3.940   2.309
 5897TIP3   OH217631   1.196   5.393   1.299
 5897TIP3    H117632   1.149   5.360   1.376
 5897TIP3    H217633   1.148   5.358   1.224
 5898TIP3   OH217634   2.438   4.931   2.848
 5898TIP3    H117635   2.514   4.919   2.905
 5898TIP3    H217636   2.451   4.867   2.777
 5899TIP3   OH217637   5.063   6.466   6.498
 5899TIP3    H117638   5.115   6.512   6.431
 5899TIP3    H217639   5.053   6.530   6.568
 5900TIP3   OH217640   7.135   0.458   5.592
 5900TIP3    H117641   7.168   0.373   5.563
 5900TIP3    H217642   7.042   0.442   5.611
 5901TIP3   OH217643   6.130   3.046   1.935
 5901TIP3    H117644   6.208   2.992   1.951
 5901TIP3    H217645   6.060   3.003   1.984
 5902TIP3   OH217646   2.992   2.145   3.301
 5902TIP3    H117647   3.018   2.054   3.317
 5902TIP3    H217648   2.896   2.144   3.309
 5903TIP3   OH217649   6.965   6.455   2.883
 5903TIP3    H117650   6.975   6.491   2.971
 5903TIP3    H217651   7.011   6.370   2.887
 5904TIP3   OH217652   5.447   5.940   2.257
 5904TIP3    H117653   5.414   6.029   2.244
 5904TIP3    H217654   5.542   5.951   2.266
 5905TIP3   OH217655   4.989   7.567   1.330
 5905TIP3    H117656   5.025   7.534   1.413
 5905TIP3    H217657   5.064   7.602   1.283
 5906TIP3   OH217658   4.461   4.173   2.124
 5906TIP3    H117659   4.507   4.147   2.203
 5906TIP3    H217660   4.368   4.167   2.146
 5907TIP3   OH217661   1.544   0.283   4.354
 5907TIP3    H117662   1.594   0.204   4.373
 5907TIP3    H217663   1.484   0.292   4.428
 5908TIP3   OH217664   5.371   7.083   2.373
 5908TIP3    H117665   5.423   7.092   2.293
 5908TIP3    H217666   5.335   7.170   2.389
 5909TIP3   OH217667   6.197   0.375   3.200
 5909TIP3    H117668   6.276   0.333   3.234
 5909TIP3    H217669   6.192   0.458   3.247
 5910TIP3   OH217670   2.073   7.629   5.641
 5910TIP3    H117671   2.122   7.695   5.593
 5910TIP3    H217672   2.064   7.665   5.730
 5911TIP3   OH217673   0.360   4.163   3.415
 5911TIP3    H117674   0.300   4.213   3.359
 5911TIP3    H217675   0.411   4.230   3.461
 5912TIP3   OH217676   4.002   3.664   3.893
 5912TIP3    H117677   4.000   3.676   3.988
 5912TIP3    H217678   3.957   3.581   3.877
 5913TIP3   OH217679   1.503   5.472   3.726
 5913TIP3    H117680   1.499   5.381   3.756
 5913TIP3    H217681   1.587   5.479   3.680
 5914TIP3   OH217682   7.135   6.243   6.945
 5914TIP3    H117683   7.129   6.278   6.856
 5914TIP3    H217684   7.121   6.320   7.001
 5915TIP3   OH217685   6.167   1.462   6.030
 5915TIP3    H117686   6.202   1.373   6.022
 5915TIP3    H217687   6.179   1.484   6.122
 5916TIP3   OH217688   0.857   1.016   1.824
 5916TIP3    H117689   0.919   1.026   1.752
 5916TIP3    H217690   0.774   1.046   1.788
 5917TIP3   OH217691   6.697   4.688   0.140
 5917TIP3    H117692   6.777   4.727   0.105
 5917TIP3    H217693   6.631   4.756   0.130
 5918TIP3   OH217694   0.824   0.388   3.100
 5918TIP3    H117695   0.785   0.338   3.028
 5918TIP3    H217696   0.756   0.449   3.127
 5919TIP3   OH217697   5.090   7.134   4.674
 5919TIP3    H117698   5.016   7.135   4.735
 5919TIP3    H217699   5.156   7.189   4.715
 5920TIP3   OH217700   4.033   1.080   5.775
 5920TIP3    H117701   4.114   1.080   5.724
 5920TIP3    H217702   4.044   1.008   5.838
 5921TIP3   OH217703   2.495   2.924   3.175
 5921TIP3    H117704   2.425   2.963   3.122
 5921TIP3    H217705   2.557   2.889   3.111
 5922TIP3   OH217706   3.370   1.657   6.661
 5922TIP3    H117707   3.302   1.590   6.669
 5922TIP3    H217708   3.429   1.623   6.594
 5923TIP3   OH217709   0.974   1.542   0.405
 5923TIP3    H117710   1.055   1.560   0.357
 5923TIP3    H217711   0.936   1.628   0.421
 5924TIP3   OH217712   6.857   4.507   2.611
 5924TIP3    H117713   6.923   4.493   2.543
 5924TIP3    H217714   6.783   4.548   2.566
 5925TIP3   OH217715   1.379   1.413   3.711
 5925TIP3    H117716   1.363   1.323   3.737
 5925TIP3    H217717   1.368   1.464   3.792
 5926TIP3   OH217718   1.365   2.604   4.312
 5926TIP3    H117719   1.413   2.522   4.315
 5926TIP3    H217720   1.278   2.580   4.279
 5927TIP3   OH217721   3.909   7.482   1.279
 5927TIP3    H117722   3.907   7.578   1.277
 5927TIP3    H217723   3.829   7.457   1.325
 5928TIP3   OH217724   0.317   4.208   0.614
 5928TIP3    H117725   0.374   4.271   0.659
 5928TIP3    H217726   0.347   4.209   0.523
 5929TIP3   OH217727   4.285   0.209   5.710
 5929TIP3    H117728   4.324   0.245   5.790
 5929TIP3    H217729   4.257   0.286   5.661
 5930TIP3   OH217730   1.924   1.196   6.174
 5930TIP3    H117731   1.838   1.155   6.169
 5930TIP3    H217732   1.909   1.275   6.227
 5931TIP3   OH217733   7.216   3.621   3.392
 5931TIP3    H117734   7.284   3.678   3.428
 5931TIP3    H217735   7.213   3.644   3.299
 5932TIP3   OH217736   5.893   0.281   5.692
 5932TIP3    H117737   5.810   0.256   5.653
 5932TIP3    H217738   5.869   0.343   5.762
 5933TIP3   OH217739   5.076   4.014   6.813
 5933TIP3    H117740   5.021   3.981   6.742
 5933TIP3    H217741   5.053   3.959   6.888
 5934TIP3   OH217742   6.631   2.226   5.425
 5934TIP3    H117743   6.557   2.257   5.373
 5934TIP3    H217744   6.612   2.134   5.441
 5935TIP3   OH217745   0.307   6.209   4.676
 5935TIP3    H117746   0.274   6.127   4.712
 5935TIP3    H217747   0.395   6.189   4.647
 5936TIP3   OH217748   5.724   0.650   5.013
 5936TIP3    H117749   5.808   0.649   4.967
 5936TIP3    H217750   5.708   0.743   5.032
 5937TIP3   OH217751   2.883   6.246   1.105
 5937TIP3    H117752   2.904   6.338   1.088
 5937TIP3    H217753   2.838   6.216   1.026
 5938TIP3   OH217754   1.299   1.495   1.392
 5938TIP3    H117755   1.387   1.460   1.375
 5938TIP3    H217756   1.292   1.498   1.487
 5939TIP3   OH217757   0.868   1.762   4.993
 5939TIP3    H117758   0.911   1.792   4.913
 5939TIP3    H217759   0.784   1.808   4.994
 5940TIP3   OH217760   0.773   4.917   2.768
 5940TIP3    H117761   0.685   4.909   2.803
 5940TIP3    H217762   0.828   4.865   2.827
 5941TIP3   OH217763   3.762   7.020   1.923
 5941TIP3    H117764   3.701   7.072   1.870
 5941TIP3    H217765   3.731   6.930   1.914
 5942TIP3   OH217766   8.257   6.641   6.358
 5942TIP3    H117767   8.341   6.689   6.358
 5942TIP3    H217768   8.243   6.618   6.450
 5943TIP3   OH217769   2.258   1.277   5.294
 5943TIP3    H117770   2.266   1.248   5.384
 5943TIP3    H217771   2.347   1.298   5.267
 5944TIP3   OH217772   1.767   2.833   0.448
 5944TIP3    H117773   1.696   2.896   0.464
 5944TIP3    H217774   1.847   2.887   0.452
 5945TIP3   OH217775   5.442   7.642   5.246
 5945TIP3    H117776   5.393   7.580   5.299
 5945TIP3    H217777   5.471   7.709   5.308
 5946TIP3   OH217778   5.401   4.892   3.851
 5946TIP3    H117779   5.387   4.983   3.824
 5946TIP3    H217780   5.353   4.840   3.786
 5947TIP3   OH217781   6.606   7.388   4.628
 5947TIP3    H117782   6.598   7.483   4.631
 5947TIP3    H217783   6.613   7.361   4.720
 5948TIP3   OH217784   1.588   7.052   1.959
 5948TIP3    H117785   1.497   7.068   1.982
 5948TIP3    H217786   1.634   7.052   2.043
 5949TIP3   OH217787   3.137   4.703   4.092
 5949TIP3    H117788   3.073   4.759   4.136
 5949TIP3    H217789   3.153   4.631   4.153
 5950TIP3   OH217790   7.836   5.165   4.527
 5950TIP3    H117791   7.874   5.117   4.454
 5950TIP3    H217792   7.752   5.197   4.494
 5951TIP3   OH217793   6.401   0.337   0.655
 5951TIP3    H117794   6.393   0.317   0.562
 5951TIP3    H217795   6.475   0.285   0.685
 5952TIP3   OH217796   1.217   4.661   6.066
 5952TIP3    H117797   1.146   4.695   6.120
 5952TIP3    H217798   1.233   4.731   6.002
 5953TIP3   OH217799   7.986   5.597   6.792
 5953TIP3    H117800   7.923   5.668   6.804
 5953TIP3    H217801   8.059   5.637   6.744
 5954TIP3   OH217802   2.635   2.274   6.814
 5954TIP3    H117803   2.623   2.343   6.879
 5954TIP3    H217804   2.651   2.195   6.865
 5955TIP3   OH217805   6.411   4.411   3.232
 5955TIP3    H117806   6.387   4.465   3.307
 5955TIP3    H217807   6.338   4.420   3.171
 5956TIP3   OH217808   0.859   2.226   5.004
 5956TIP3    H117809   0.843   2.306   5.054
 5956TIP3    H217810   0.792   2.165   5.035
 5957TIP3   OH217811   6.422   2.757   6.538
 5957TIP3    H117812   6.432   2.801   6.622
 5957TIP3    H217813   6.364   2.684   6.555
 5958TIP3   OH217814   2.569   3.675   1.108
 5958TIP3    H117815   2.655   3.704   1.140
 5958TIP3    H217816   2.544   3.604   1.168
 5959TIP3   OH217817   0.077   5.966   2.655
 5959TIP3    H117818   0.095   5.932   2.567
 5959TIP3    H217819  -0.018   5.965   2.662
 5960TIP3   OH217820   4.844   5.525   0.699
 5960TIP3    H117821   4.927   5.522   0.747
 5960TIP3    H217822   4.813   5.615   0.710
 5961TIP3   OH217823   3.592   1.710   6.217
 5961TIP3    H117824   3.558   1.785   6.168
 5961TIP3    H217825   3.520   1.647   6.217
 5962TIP3   OH217826   8.073   4.374   4.452
 5962TIP3    H117827   8.160   4.376   4.493
 5962TIP3    H217828   8.041   4.286   4.469
 5963TIP3   OH217829   2.502   2.038   2.874
 5963TIP3    H117830   2.457   2.120   2.893
 5963TIP3    H217831   2.472   2.013   2.787
 5964TIP3   OH217832   0.759   7.875   2.940
 5964TIP3    H117833   0.815   7.873   2.862
 5964TIP3    H217834   0.693   7.807   2.924
 5965TIP3   OH217835   4.013   2.366   6.045
 5965TIP3    H117836   4.060   2.446   6.070
 5965TIP3    H217837   3.931   2.370   6.094
 5966TIP3   OH217838   2.950   6.709   6.668
 5966TIP3    H117839   3.011   6.648   6.709
 5966TIP3    H217840   2.872   6.707   6.725
 5967TIP3   OH217841   0.199   2.838   3.276
 5967TIP3    H117842   0.142   2.887   3.216
 5967TIP3    H217843   0.215   2.899   3.348
 5968TIP3   OH217844   4.328   3.895   2.179
 5968TIP3    H117845   4.421   3.875   2.192
 5968TIP3    H217846   4.282   3.820   2.217
 5969TIP3   OH217847   2.507   5.066   6.196
 5969TIP3    H117848   2.483   5.078   6.104
 5969TIP3    H217849   2.444   5.119   6.245
 5970TIP3   OH217850   8.221   4.797   6.287
 5970TIP3    H117851   8.220   4.724   6.225
 5970TIP3    H217852   8.241   4.874   6.234
 5971TIP3   OH217853   7.624   4.169   6.817
 5971TIP3    H117854   7.558   4.115   6.774
 5971TIP3    H217855   7.594   4.177   6.908
 5972TIP3   OH217856   4.466   5.079   5.531
 5972TIP3    H117857   4.429   5.162   5.500
 5972TIP3    H217858   4.453   5.019   5.458
 5973TIP3   OH217859   3.093   4.966   3.281
 5973TIP3    H117860   3.186   4.945   3.291
 5973TIP3    H217861   3.059   4.968   3.371
 5974TIP3   OH217862   1.476   1.142   6.489
 5974TIP3    H117863   1.405   1.112   6.431
 5974TIP3    H217864   1.472   1.237   6.484
 5975TIP3   OH217865   4.415   6.523   5.458
 5975TIP3    H117866   4.438   6.449   5.516
 5975TIP3    H217867   4.417   6.599   5.516
 5976TIP3   OH217868   1.696   7.079   3.918
 5976TIP3    H117869   1.748   7.019   3.972
 5976TIP3    H217870   1.622   7.102   3.973
 5977TIP3   OH217871   3.464   6.092   6.778
 5977TIP3    H117872   3.536   6.030   6.783
 5977TIP3    H217873   3.392   6.049   6.824
 5978TIP3   OH217874   0.497   6.661   2.596
 5978TIP3    H117875   0.440   6.737   2.602
 5978TIP3    H217876   0.437   6.586   2.594
 5979TIP3   OH217877   5.406   6.408   4.059
 5979TIP3    H117878   5.437   6.325   4.022
 5979TIP3    H217879   5.411   6.395   4.153
 5980TIP3   OH217880   1.598   3.433   6.764
 5980TIP3    H117881   1.640   3.348   6.780
 5980TIP3    H217882   1.667   3.497   6.780
 5981TIP3   OH217883   5.830   6.036   1.081
 5981TIP3    H117884   5.870   6.050   0.995
 5981TIP3    H217885   5.805   6.123   1.110
 5982TIP3   OH217886   6.625   0.883   4.776
 5982TIP3    H117887   6.574   0.922   4.847
 5982TIP3    H217888   6.687   0.951   4.750
 5983TIP3   OH217889   4.327   5.422   1.724
 5983TIP3    H117890   4.403   5.414   1.667
 5983TIP3    H217891   4.293   5.333   1.732
 5984TIP3   OH217892   2.152   5.563   4.254
 5984TIP3    H117893   2.109   5.642   4.220
 5984TIP3    H217894   2.243   5.571   4.224
 5985TIP3   OH217895   5.701   4.962   6.772
 5985TIP3    H117896   5.729   4.871   6.760
 5985TIP3    H217897   5.697   4.998   6.683
 5986TIP3   OH217898   4.361   6.781   1.668
 5986TIP3    H117899   4.455   6.790   1.681
 5986TIP3    H217900   4.327   6.870   1.681
 5987TIP3   OH217901   8.329   5.467   1.547
 5987TIP3    H117902   8.398   5.523   1.582
 5987TIP3    H217903   8.366   5.429   1.467
 5988TIP3   OH217904   8.068   0.390   0.551
 5988TIP3    H117905   8.081   0.436   0.468
 5988TIP3    H217906   7.989   0.338   0.537
 5989TIP3   OH217907   3.226   1.447   4.529
 5989TIP3    H117908   3.168   1.374   4.508
 5989TIP3    H217909   3.240   1.441   4.623
 5990TIP3   OH217910   2.862   4.882   0.344
 5990TIP3    H117911   2.916   4.873   0.265
 5990TIP3    H217912   2.925   4.872   0.416
 5991TIP3   OH217913   3.435   0.879   4.711
 5991TIP3    H117914   3.364   0.836   4.664
 5991TIP3    H217915   3.435   0.837   4.797
 5992TIP3   OH217916   1.929   1.109   3.187
 5992TIP3    H117917   1.974   1.076   3.109
 5992TIP3    H217918   1.991   1.096   3.259
 5993TIP3   OH217919   3.052   6.649   1.871
 5993TIP3    H117920   3.136   6.685   1.840
 5993TIP3    H217921   3.034   6.697   1.951
 5994TIP3   OH217922   6.709   0.587   2.406
 5994TIP3    H117923   6.636   0.649   2.403
 5994TIP3    H217924   6.667   0.501   2.400
 5995TIP3   OH217925   0.551   1.968   3.502
 5995TIP3    H117926   0.612   1.896   3.519
 5995TIP3    H217927   0.598   2.024   3.439
 5996TIP3   OH217928   0.786   7.557   5.582
 5996TIP3    H117929   0.777   7.577   5.676
 5996TIP3    H217930   0.876   7.579   5.561
 5997TIP3   OH217931   0.887   2.599   5.550
 5997TIP3    H117932   0.976   2.631   5.565
 5997TIP3    H217933   0.883   2.517   5.599
 5998TIP3   OH217934   2.463   2.675   5.418
 5998TIP3    H117935   2.506   2.674   5.503
 5998TIP3    H217936   2.380   2.630   5.432
 5999TIP3   OH217937   2.735   2.794   1.330
 5999TIP3    H117938   2.682   2.754   1.261
 5999TIP3    H217939   2.672   2.836   1.388
 6000TIP3   OH217940   8.031   3.078   2.674
 6000TIP3    H117941   8.099   3.135   2.639
 6000TIP3    H217942   8.078   3.009   2.720
 6001TIP3   OH217943   3.554   4.387   2.485
 6001TIP3    H117944   3.522   4.425   2.403
 6001TIP3    H217945   3.498   4.311   2.499
 6002TIP3   OH217946   1.582   2.923   4.915
 6002TIP3    H117947   1.540   2.894   4.834
 6002TIP3    H217948   1.614   2.843   4.956
 6003TIP3   OH217949   6.555   1.214   3.517
 6003TIP3    H117950   6.556   1.277   3.588
 6003TIP3    H217951   6.488   1.151   3.541
 6004TIP3   OH217952   8.022   1.607   5.213
 6004TIP3    H117953   7.945   1.604   5.156
 6004TIP3    H217954   8.074   1.531   5.185
 6005TIP3   OH217955   6.655   7.812   4.175
 6005TIP3    H117956   6.653   7.846   4.086
 6005TIP3    H217957   6.652   7.717   4.164
 6006TIP3   OH217958   2.958   6.503   1.036
 6006TIP3    H117959   2.961   6.595   1.065
 6006TIP3    H217960   2.948   6.508   0.941
 6007TIP3   OH217961   6.243   3.908   3.352
 6007TIP3    H117962   6.331   3.942   3.369
 6007TIP3    H217963   6.188   3.986   3.347
 6008TIP3   OH217964   7.752   3.628   3.777
 6008TIP3    H117965   7.689   3.590   3.715
 6008TIP3    H217966   7.784   3.707   3.732
 6009TIP3   OH217967   4.534   4.794   2.406
 6009TIP3    H117968   4.571   4.871   2.362
 6009TIP3    H217969   4.537   4.817   2.499
 6010TIP3   OH217970   0.939   6.534   0.707
 6010TIP3    H117971   0.976   6.449   0.682
 6010TIP3    H217972   1.015   6.590   0.721
 6011TIP3   OH217973   5.197   7.812   3.622
 6011TIP3    H117974   5.192   7.830   3.528
 6011TIP3    H217975   5.213   7.898   3.661
 6012TIP3   OH217976   0.983   7.681   6.195
 6012TIP3    H117977   1.058   7.741   6.200
 6012TIP3    H217978   1.001   7.628   6.117
 6013TIP3   OH217979   7.441   5.919   4.111
 6013TIP3    H117980   7.428   6.012   4.092
 6013TIP3    H217981   7.521   5.916   4.163
 6014TIP3   OH217982   3.380   5.565   4.254
 6014TIP3    H117983   3.448   5.630   4.273
 6014TIP3    H217984   3.327   5.564   4.334
 6015TIP3   OH217985   0.704   2.940   1.833
 6015TIP3    H117986   0.623   2.951   1.883
 6015TIP3    H217987   0.757   3.015   1.857
 6016TIP3   OH217988   3.311   6.545   0.986
 6016TIP3    H117989   3.389   6.516   0.938
 6016TIP3    H217990   3.271   6.464   1.018
 6017TIP3   OH217991   2.531   2.131   4.922
 6017TIP3    H117992   2.446   2.106   4.887
 6017TIP3    H217993   2.569   2.049   4.954
 6018TIP3   OH217994   3.613   4.032   2.468
 6018TIP3    H117995   3.560   4.074   2.400
 6018TIP3    H217996   3.564   4.045   2.549
 6019TIP3   OH217997   5.213   3.102   3.935
 6019TIP3    H117998   5.143   3.164   3.918
 6019TIP3    H217999   5.291   3.156   3.947
 6020TIP3   OH218000   5.949   1.100   5.363
 6020TIP3    H118001   5.983   1.189   5.364
 6020TIP3    H218002   5.917   1.086   5.452
 6021TIP3   OH218003   7.505   3.669   0.021
 6021TIP3    H118004   7.495   3.601   0.088
 6021TIP3    H218005   7.569   3.730   0.058
 6022TIP3   OH218006   1.329   2.890   3.871
 6022TIP3    H118007   1.306   2.982   3.858
 6022TIP3    H218008   1.314   2.874   3.964
 6023TIP3   OH218009   2.570   1.715   1.810
 6023TIP3    H118010   2.595   1.626   1.786
 6023TIP3    H218011   2.612   1.770   1.745
 6024TIP3   OH218012   7.536   2.114   4.966
 6024TIP3    H118013   7.558   2.201   5.000
 6024TIP3    H218014   7.460   2.087   5.018
 6025TIP3   OH218015   1.832   6.374   6.615
 6025TIP3    H118016   1.766   6.353   6.550
 6025TIP3    H218017   1.911   6.392   6.564
 6026TIP3   OH218018   2.862   2.397   3.641
 6026TIP3    H118019   2.892   2.420   3.729
 6026TIP3    H218020   2.788   2.457   3.625
 6027TIP3   OH218021   8.157   5.402   2.364
 6027TIP3    H118022   8.160   5.363   2.277
 6027TIP3    H218023   8.176   5.495   2.350
 6028TIP3   OH218024   5.712   5.798   4.481
 6028TIP3    H118025   5.759   5.812   4.399
 6028TIP3    H218026   5.626   5.838   4.466
 6029TIP3   OH218027   8.270   0.110   1.761
 6029TIP3    H118028   8.190   0.130   1.808
 6029TIP3    H218029   8.241   0.076   1.676
 6030TIP3   OH218030   1.138   1.101   0.988
 6030TIP3    H118031   1.133   1.103   0.892
 6030TIP3    H218032   1.204   1.168   1.009
 6031TIP3   OH218033   5.226   1.687   3.139
 6031TIP3    H118034   5.130   1.685   3.141
 6031TIP3    H218035   5.247   1.749   3.069
 6032TIP3   OH218036   4.186   1.347   3.155
 6032TIP3    H118037   4.184   1.309   3.243
 6032TIP3    H218038   4.257   1.411   3.158
 6033TIP3   OH218039   2.685   7.350   0.955
 6033TIP3    H118040   2.683   7.441   0.985
 6033TIP3    H218041   2.620   7.346   0.885
 6034TIP3   OH218042   1.783   0.295   1.469
 6034TIP3    H118043   1.735   0.319   1.548
 6034TIP3    H218044   1.739   0.344   1.399
 6035TIP3   OH218045   2.402   0.538   0.961
 6035TIP3    H118046   2.440   0.509   0.878
 6035TIP3    H218047   2.421   0.467   1.022
 6036TIP3   OH218048   6.226   3.739   1.179
 6036TIP3    H118049   6.294   3.766   1.242
 6036TIP3    H218050   6.271   3.678   1.120
 6037TIP3   OH218051   1.770   3.461   6.001
 6037TIP3    H118052   1.711   3.402   6.048
 6037TIP3    H218053   1.832   3.491   6.068
 6038TIP3   OH218054   4.669   4.897   2.896
 6038TIP3    H118055   4.584   4.897   2.852
 6038TIP3    H218056   4.717   4.969   2.855
 6039TIP3   OH218057   7.406   1.772   0.882
 6039TIP3    H118058   7.320   1.767   0.840
 6039TIP3    H218059   7.390   1.819   0.964
 6040TIP3   OH218060   3.486   3.752   5.157
 6040TIP3    H118061   3.549   3.701   5.106
 6040TIP3    H218062   3.411   3.761   5.099
 6041TIP3   OH218063   5.153   7.003   3.333
 6041TIP3    H118064   5.178   7.004   3.240
 6041TIP3    H218065   5.225   6.959   3.377
 6042TIP3   OH218066   1.520   6.694   0.484
 6042TIP3    H118067   1.481   6.760   0.426
 6042TIP3    H218068   1.567   6.635   0.425
 6043TIP3   OH218069   8.106   3.233   6.731
 6043TIP3    H118070   8.018   3.198   6.748
 6043TIP3    H218071   8.100   3.326   6.754
 6044TIP3   OH218072   6.320   2.176   6.634
 6044TIP3    H118073   6.300   2.120   6.708
 6044TIP3    H218074   6.384   2.126   6.582
 6045TIP3   OH218075   0.195   7.454   2.054
 6045TIP3    H118076   0.182   7.389   2.124
 6045TIP3    H218077   0.135   7.525   2.076
 6046TIP3   OH218078   0.015   3.747   2.819
 6046TIP3    H118079   0.012   3.802   2.898
 6046TIP3    H218080   0.096   3.697   2.827
 6047TIP3   OH218081   4.548   0.200   0.987
 6047TIP3    H118082   4.575   0.213   1.078
 6047TIP3    H218083   4.623   0.231   0.936
 6048TIP3   OH218084   7.588   4.782   5.219
 6048TIP3    H118085   7.673   4.774   5.263
 6048TIP3    H218086   7.609   4.791   5.127
 6049TIP3   OH218087   5.072   6.489   4.180
 6049TIP3    H118088   4.985   6.464   4.150
 6049TIP3    H218089   5.056   6.548   4.254
 6050TIP3   OH218090   0.925   2.536   6.414
 6050TIP3    H118091   0.957   2.558   6.502
 6050TIP3    H218092   0.923   2.620   6.368
 6051TIP3   OH218093   6.991   7.083   4.485
 6051TIP3    H118094   6.900   7.074   4.511
 6051TIP3    H218095   7.033   7.003   4.516
 6052TIP3   OH218096   2.521   3.438   1.994
 6052TIP3    H118097   2.578   3.370   2.029
 6052TIP3    H218098   2.477   3.397   1.919
 6053TIP3   OH218099   3.202   2.165   5.153
 6053TIP3    H118100   3.280   2.197   5.108
 6053TIP3    H218101   3.173   2.239   5.206
 6054TIP3   OH218102   4.546   6.121   1.795
 6054TIP3    H118103   4.592   6.203   1.811
 6054TIP3    H218104   4.577   6.092   1.709
 6055TIP3   OH218105   6.712   2.953   0.080
 6055TIP3    H118106   6.677   2.898   0.150
 6055TIP3    H218107   6.766   3.018   0.124
 6056TIP3   OH218108   2.765   1.396   6.876
 6056TIP3    H118109   2.766   1.482   6.835
 6056TIP3    H218110   2.857   1.377   6.896
 6057TIP3   OH218111   4.331   6.515   1.697
 6057TIP3    H118112   4.324   6.607   1.673
 6057TIP3    H218113   4.390   6.514   1.772
 6058TIP3   OH218114   0.931   7.733   0.310
 6058TIP3    H118115   0.937   7.699   0.221
 6058TIP3    H218116   0.837   7.748   0.323
 6059TIP3   OH218117   7.981   0.751   5.443
 6059TIP3    H118118   8.013   0.735   5.532
 6059TIP3    H218119   7.943   0.668   5.415
 6060TIP3   OH218120   4.926   1.528   4.123
 6060TIP3    H118121   4.893   1.611   4.158
 6060TIP3    H218122   4.884   1.518   4.038
 6061TIP3   OH218123   2.253   3.659   1.446
 6061TIP3    H118124   2.284   3.568   1.442
 6061TIP3    H218125   2.259   3.690   1.356
 6062TIP3   OH218126   6.895   5.665   2.859
 6062TIP3    H118127   6.925   5.612   2.785
 6062TIP3    H218128   6.851   5.740   2.819
 6063TIP3   OH218129   7.656   5.433   2.841
 6063TIP3    H118130   7.577   5.380   2.849
 6063TIP3    H218131   7.672   5.438   2.747
 6064TIP3   OH218132   0.203   7.378   4.955
 6064TIP3    H118133   0.133   7.423   4.908
 6064TIP3    H218134   0.264   7.349   4.887
 6065TIP3   OH218135   6.936   7.432   4.974
 6065TIP3    H118136   6.869   7.448   5.041
 6065TIP3    H218137   7.008   7.490   4.996
 6066TIP3   OH218138   3.152   0.365   4.048
 6066TIP3    H118139   3.154   0.458   4.027
 6066TIP3    H218140   3.245   0.339   4.050
 6067TIP3   OH218141   4.394   2.430   2.434
 6067TIP3    H118142   4.471   2.405   2.384
 6067TIP3    H218143   4.331   2.359   2.417
 6068TIP3   OH218144   0.088   5.800   2.880
 6068TIP3    H118145   0.057   5.840   2.799
 6068TIP3    H218146   0.183   5.794   2.869
 6069TIP3   OH218147   1.010   4.754   6.206
 6069TIP3    H118148   1.035   4.721   6.292
 6069TIP3    H218149   1.016   4.850   6.215
 6070TIP3   OH218150   0.282   5.744   4.620
 6070TIP3    H118151   0.356   5.685   4.631
 6070TIP3    H218152   0.277   5.792   4.703
 6071TIP3   OH218153   4.562   6.493   3.406
 6071TIP3    H118154   4.621   6.521   3.477
 6071TIP3    H218155   4.553   6.399   3.418
 6072TIP3   OH218156   4.288   6.367   3.318
 6072TIP3    H118157   4.363   6.316   3.347
 6072TIP3    H218158   4.326   6.437   3.265
 6073TIP3   OH218159   1.846   1.695   2.552
 6073TIP3    H118160   1.807   1.782   2.549
 6073TIP3    H218161   1.844   1.664   2.462
 6074TIP3   OH218162   0.152   4.241   1.099
 6074TIP3    H118163   0.092   4.219   1.027
 6074TIP3    H218164   0.200   4.160   1.116
 6075TIP3   OH218165   6.762   2.301   3.894
 6075TIP3    H118166   6.836   2.328   3.839
 6075TIP3    H218167   6.792   2.222   3.939
 6076TIP3   OH218168   7.554   2.021   2.673
 6076TIP3    H118169   7.544   2.083   2.601
 6076TIP3    H218170   7.483   1.958   2.662
 6077TIP3   OH218171   3.719   2.812   0.542
 6077TIP3    H118172   3.668   2.756   0.484
 6077TIP3    H218173   3.810   2.786   0.528
 6078TIP3   OH218174   0.765   5.384   5.883
 6078TIP3    H118175   0.753   5.460   5.939
 6078TIP3    H218176   0.859   5.378   5.869
 6079TIP3   OH218177   1.026   7.662   0.050
 6079TIP3    H118178   1.034   7.566   0.053
 6079TIP3    H218179   1.115   7.694   0.063
 6080TIP3   OH218180   5.116   1.312   3.804
 6080TIP3    H118181   5.061   1.380   3.842
 6080TIP3    H218182   5.124   1.336   3.712
 6081TIP3   OH218183   1.277   0.409   3.061
 6081TIP3    H118184   1.361   0.396   3.018
 6081TIP3    H218185   1.212   0.393   2.992
 6082TIP3   OH218186   1.483   4.273   0.779
 6082TIP3    H118187   1.409   4.306   0.728
 6082TIP3    H218188   1.561   4.298   0.729
 6083TIP3   OH218189   2.661   2.924   2.623
 6083TIP3    H118190   2.623   2.913   2.536
 6083TIP3    H218191   2.680   3.017   2.630
 6084TIP3   OH218192   0.213   3.870   5.397
 6084TIP3    H118193   0.207   3.964   5.382
 6084TIP3    H218194   0.142   3.833   5.344
 6085TIP3   OH218195   1.019   1.534   1.440
 6085TIP3    H118196   1.005   1.465   1.375
 6085TIP3    H218197   1.112   1.529   1.462
 6086TIP3   OH218198   0.703   5.058   3.791
 6086TIP3    H118199   0.699   5.129   3.854
 6086TIP3    H218200   0.712   5.101   3.706
 6087TIP3   OH218201   3.617   4.845   0.679
 6087TIP3    H118202   3.643   4.762   0.638
 6087TIP3    H218203   3.616   4.907   0.606
 6088TIP3   OH218204   4.025   7.461   5.560
 6088TIP3    H118205   4.084   7.391   5.589
 6088TIP3    H218206   3.937   7.424   5.571
 6089TIP3   OH218207   2.359   2.868   2.050
 6089TIP3    H118208   2.404   2.833   2.127
 6089TIP3    H218209   2.337   2.958   2.073
 6090TIP3   OH218210   6.303   7.573   0.035
 6090TIP3    H118211   6.225   7.568   0.090
 6090TIP3    H218212   6.282   7.520  -0.042
 6091TIP3   OH218213   3.925   0.072   3.858
 6091TIP3    H118214   3.895   0.102   3.772
 6091TIP3    H218215   3.885  -0.014   3.869
 6092TIP3   OH218216   1.058   3.441   4.119
 6092TIP3    H118217   1.146   3.439   4.157
 6092TIP3    H218218   1.031   3.533   4.126
 6093TIP3   OH218219   3.316   2.647   0.282
 6093TIP3    H118220   3.267   2.601   0.213
 6093TIP3    H218221   3.318   2.585   0.354
 6094TIP3   OH218222   7.538   0.559   3.917
 6094TIP3    H118223   7.519   0.532   3.827
 6094TIP3    H218224   7.455   0.595   3.949
 6095TIP3   OH218225   3.659   3.096   0.595
 6095TIP3    H118226   3.680   3.007   0.565
 6095TIP3    H218227   3.614   3.136   0.521
 6096TIP3   OH218228   0.466   3.104   1.422
 6096TIP3    H118229   0.470   3.197   1.444
 6096TIP3    H218230   0.372   3.083   1.427
 6097TIP3   OH218231   2.478   2.708   2.260
 6097TIP3    H118232   2.430   2.763   2.321
 6097TIP3    H218233   2.470   2.619   2.295
 6098TIP3   OH218234   4.502   0.721   2.668
 6098TIP3    H118235   4.497   0.781   2.593
 6098TIP3    H218236   4.429   0.747   2.724
 6099TIP3   OH218237   3.014   7.255   1.447
 6099TIP3    H118238   3.061   7.224   1.370
 6099TIP3    H218239   2.948   7.316   1.413
 6100TIP3   OH218240   8.417   2.786   4.861
 6100TIP3    H118241   8.352   2.716   4.865
 6100TIP3    H218242   8.398   2.841   4.937
 6101TIP3   OH218243   3.605   3.267   0.083
 6101TIP3    H118244   3.687   3.317   0.083
 6101TIP3    H218245   3.568   3.281  -0.004
 6102TIP3   OH218246   5.089   5.432   3.556
 6102TIP3    H118247   5.173   5.454   3.518
 6102TIP3    H218248   5.063   5.510   3.606
 6103TIP3   OH218249   5.098   1.899   3.951
 6103TIP3    H118250   5.072   1.991   3.944
 6103TIP3    H218251   5.159   1.896   4.025
 6104TIP3   OH218252   0.529   7.286   4.108
 6104TIP3    H118253   0.494   7.367   4.072
 6104TIP3    H218254   0.535   7.227   4.032
 6105TIP3   OH218255   5.051   6.383   4.767
 6105TIP3    H118256   5.001   6.305   4.791
 6105TIP3    H218257   4.986   6.444   4.732
 6106TIP3   OH218258   6.520   0.627   6.528
 6106TIP3    H118259   6.569   0.644   6.447
 6106TIP3    H218260   6.575   0.664   6.597
 6107TIP3   OH218261   4.863   7.253   3.095
 6107TIP3    H118262   4.897   7.329   3.144
 6107TIP3    H218263   4.857   7.284   3.005
 6108TIP3   OH218264   6.663   6.511   1.185
 6108TIP3    H118265   6.589   6.558   1.146
 6108TIP3    H218266   6.624   6.457   1.253
 6109TIP3   OH218267   0.907   7.752   6.458
 6109TIP3    H118268   0.925   7.692   6.386
 6109TIP3    H218269   0.874   7.696   6.529
 6110TIP3   OH218270   7.826   0.110   0.370
 6110TIP3    H118271   7.862   0.022   0.381
 6110TIP3    H218272   7.871   0.145   0.293
 6111TIP3   OH218273   3.613   7.255   1.779
 6111TIP3    H118274   3.538   7.295   1.735
 6111TIP3    H218275   3.687   7.272   1.721
 6112TIP3   OH218276   8.004   1.804   0.208
 6112TIP3    H118277   8.005   1.724   0.156
 6112TIP3    H218278   8.074   1.791   0.272
 6113TIP3   OH218279   3.139   0.031   4.874
 6113TIP3    H118280   3.153  -0.049   4.823
 6113TIP3    H218281   3.089   0.088   4.815
 6114TIP3   OH218282   4.164   4.638   1.705
 6114TIP3    H118283   4.167   4.733   1.690
 6114TIP3    H218284   4.246   4.618   1.750
 6115TIP3   OH218285   5.049   0.640   1.147
 6115TIP3    H118286   5.124   0.639   1.088
 6115TIP3    H218287   5.018   0.549   1.147
 6116TIP3   OH218288   4.596   6.985   5.644
 6116TIP3    H118289   4.661   6.925   5.681
 6116TIP3    H218290   4.604   6.973   5.549
 6117TIP3   OH218291   6.933   6.097   6.223
 6117TIP3    H118292   6.900   6.101   6.133
 6117TIP3    H218293   6.987   6.018   6.225
 6118TIP3   OH218294   3.484   7.866   6.588
 6118TIP3    H118295   3.494   7.865   6.492
 6118TIP3    H218296   3.453   7.777   6.609
 6119TIP3   OH218297   6.501   6.716   4.363
 6119TIP3    H118298   6.474   6.642   4.417
 6119TIP3    H218299   6.586   6.742   4.398
 6120TIP3   OH218300   6.246   1.089   0.931
 6120TIP3    H118301   6.278   1.104   0.842
 6120TIP3    H218302   6.162   1.044   0.919
 6121TIP3   OH218303   5.354   6.992   4.172
 6121TIP3    H118304   5.330   6.905   4.141
 6121TIP3    H218305   5.384   7.039   4.094
 6122TIP3   OH218306   5.442   7.165   3.160
 6122TIP3    H118307   5.499   7.115   3.218
 6122TIP3    H218308   5.501   7.211   3.101
 6123TIP3   OH218309   7.613   4.923   4.412
 6123TIP3    H118310   7.591   4.992   4.349
 6123TIP3    H218311   7.682   4.873   4.369
 6124TIP3   OH218312   7.576   6.616   0.850
 6124TIP3    H118313   7.587   6.668   0.930
 6124TIP3    H218314   7.527   6.539   0.879
 6125TIP3   OH218315   7.951   2.943   3.611
 6125TIP3    H118316   8.047   2.944   3.614
 6125TIP3    H218317   7.930   2.866   3.558
 6126TIP3   OH218318   0.396   3.488   4.606
 6126TIP3    H118319   0.399   3.540   4.686
 6126TIP3    H218320   0.449   3.411   4.625
 6127TIP3   OH218321   2.499   4.395   5.446
 6127TIP3    H118322   2.428   4.385   5.509
 6127TIP3    H218323   2.562   4.327   5.470
 6128TIP3   OH218324   3.551   2.416   6.328
 6128TIP3    H118325   3.502   2.498   6.325
 6128TIP3    H218326   3.507   2.364   6.395
 6129TIP3   OH218327   3.065   1.687   3.157
 6129TIP3    H118328   3.129   1.756   3.141
 6129TIP3    H218329   3.036   1.661   3.069
 6130TIP3   OH218330   0.981   7.377   1.931
 6130TIP3    H118331   0.886   7.362   1.925
 6130TIP3    H218332   1.017   7.295   1.964
 6131TIP3   OH218333   3.107   6.455   4.810
 6131TIP3    H118334   3.167   6.470   4.737
 6131TIP3    H218335   3.023   6.488   4.779
 6132TIP3   OH218336   6.843   1.809   6.008
 6132TIP3    H118337   6.850   1.899   6.039
 6132TIP3    H218338   6.812   1.760   6.084
 6133TIP3   OH218339   3.944   4.885   5.009
 6133TIP3    H118340   3.885   4.842   4.946
 6133TIP3    H218341   3.979   4.813   5.061
 6134TIP3   OH218342   0.999   6.265   5.949
 6134TIP3    H118343   1.001   6.202   5.877
 6134TIP3    H218344   1.041   6.343   5.913
 6135TIP3   OH218345   1.627   7.764   3.967
 6135TIP3    H118346   1.645   7.846   4.012
 6135TIP3    H218347   1.636   7.784   3.874
 6136TIP3   OH218348   6.363   4.769   5.378
 6136TIP3    H118349   6.273   4.770   5.346
 6136TIP3    H218350   6.389   4.677   5.375
 6137TIP3   OH218351   1.395   3.947   4.865
 6137TIP3    H118352   1.373   4.040   4.871
 6137TIP3    H218353   1.485   3.946   4.833
 6138TIP3   OH218354   4.813   3.281   2.474
 6138TIP3    H118355   4.907   3.297   2.459
 6138TIP3    H218356   4.805   3.272   2.569
 6139TIP3   OH218357   7.333   0.180   4.390
 6139TIP3    H118358   7.313   0.091   4.419
 6139TIP3    H218359   7.334   0.175   4.295
 6140TIP3   OH218360   6.197   7.788   5.967
 6140TIP3    H118361   6.164   7.877   5.950
 6140TIP3    H218362   6.163   7.766   6.054
 6141TIP3   OH218363   6.437   0.373   2.747
 6141TIP3    H118364   6.342   0.368   2.745
 6141TIP3    H218365   6.462   0.391   2.657
 6142TIP3   OH218366   6.586   7.639   0.890
 6142TIP3    H118367   6.503   7.597   0.867
 6142TIP3    H218368   6.643   7.621   0.815
 6143TIP3   OH218369   7.240   5.746   1.722
 6143TIP3    H118370   7.301   5.817   1.740
 6143TIP3    H218371   7.239   5.739   1.627
 6144TIP3   OH218372   7.256   4.605   0.606
 6144TIP3    H118373   7.185   4.585   0.545
 6144TIP3    H218374   7.335   4.577   0.560
 6145TIP3   OH218375   4.793   6.677   5.030
 6145TIP3    H118376   4.767   6.665   5.121
 6145TIP3    H218377   4.886   6.700   5.034
 6146TIP3   OH218378   8.038   1.690   3.385
 6146TIP3    H118379   8.016   1.626   3.453
 6146TIP3    H218380   8.122   1.727   3.414
 6147TIP3   OH218381   6.287   5.429   0.022
 6147TIP3    H118382   6.336   5.426   0.104
 6147TIP3    H218383   6.338   5.488  -0.034
 6148TIP3   OH218384   1.659   3.853   0.338
 6148TIP3    H118385   1.660   3.803   0.256
 6148TIP3    H218386   1.712   3.931   0.319
 6149TIP3   OH218387   0.820   5.342   0.916
 6149TIP3    H118388   0.766   5.264   0.908
 6149TIP3    H218389   0.761   5.409   0.952
 6150TIP3   OH218390   7.283   7.237   4.413
 6150TIP3    H118391   7.204   7.290   4.404
 6150TIP3    H218392   7.338   7.286   4.474
 6151TIP3   OH218393   5.027   2.592   3.490
 6151TIP3    H118394   5.043   2.685   3.500
 6151TIP3    H218395   5.019   2.578   3.396
 6152TIP3   OH218396   4.506   4.099   6.152
 6152TIP3    H118397   4.540   4.130   6.069
 6152TIP3    H218398   4.544   4.011   6.163
 6153TIP3   OH218399   3.444   6.185   5.262
 6153TIP3    H118400   3.378   6.157   5.199
 6153TIP3    H218401   3.431   6.127   5.337
 6154TIP3   OH218402   7.212   5.305   0.002
 6154TIP3    H118403   7.286   5.343  -0.045
 6154TIP3    H218404   7.236   5.312   0.095
 6155TIP3   OH218405   8.429   3.776   5.215
 6155TIP3    H118406   8.435   3.791   5.121
 6155TIP3    H218407   8.403   3.685   5.224
 6156TIP3   OH218408   1.702   1.335   2.902
 6156TIP3    H118409   1.663   1.378   2.826
 6156TIP3    H218410   1.702   1.402   2.970
 6157TIP3   OH218411   2.033   4.219   4.938
 6157TIP3    H118412   2.037   4.217   4.842
 6157TIP3    H218413   2.107   4.273   4.964
 6158TIP3   OH218414   8.327   2.002   1.611
 6158TIP3    H118415   8.373   1.996   1.694
 6158TIP3    H218416   8.394   1.984   1.545
 6159TIP3   OH218417   3.663   3.399   2.083
 6159TIP3    H118418   3.712   3.320   2.108
 6159TIP3    H218419   3.608   3.418   2.159
 6160TIP3   OH218420   8.355   4.547   5.091
 6160TIP3    H118421   8.359   4.503   5.176
 6160TIP3    H218422   8.280   4.508   5.047
 6161TIP3   OH218423   0.375   5.544   0.689
 6161TIP3    H118424   0.285   5.526   0.664
 6161TIP3    H218425   0.427   5.483   0.637
 6162TIP3   OH218426   5.904   1.196   4.690
 6162TIP3    H118427   5.900   1.291   4.686
 6162TIP3    H218428   5.976   1.177   4.750
 6163TIP3   OH218429   6.994   0.836   1.441
 6163TIP3    H118430   7.088   0.818   1.430
 6163TIP3    H218431   6.954   0.805   1.360
 6164TIP3   OH218432   7.679   6.378   3.627
 6164TIP3    H118433   7.591   6.399   3.596
 6164TIP3    H218434   7.665   6.319   3.701
 6165TIP3   OH218435   3.973   1.077   3.069
 6165TIP3    H118436   4.006   1.048   2.984
 6165TIP3    H218437   4.038   1.047   3.132
 6166TIP3   OH218438   6.014   0.954   2.664
 6166TIP3    H118439   5.952   0.882   2.675
 6166TIP3    H218440   5.963   1.033   2.680
 6167TIP3   OH218441   7.102   4.545   3.502
 6167TIP3    H118442   7.070   4.459   3.475
 6167TIP3    H218443   7.058   4.606   3.444
 6168TIP3   OH218444   3.632   7.886   3.112
 6168TIP3    H118445   3.727   7.876   3.112
 6168TIP3    H218446   3.603   7.833   3.186
 6169TIP3   OH218447   5.025   6.164   0.590
 6169TIP3    H118448   5.064   6.088   0.634
 6169TIP3    H218449   5.083   6.237   0.613
 6170TIP3   OH218450   2.425   0.109   1.735
 6170TIP3    H118451   2.383   0.023   1.732
 6170TIP3    H218452   2.352   0.171   1.730
 6171TIP3   OH218453   0.139   5.024   1.770
 6171TIP3    H118454   0.086   5.101   1.791
 6171TIP3    H218455   0.113   5.000   1.681
 6172TIP3   OH218456   0.938   1.982   3.745
 6172TIP3    H118457   0.982   1.921   3.804
 6172TIP3    H218458   0.882   1.928   3.690
 6173TIP3   OH218459   5.140   1.655   2.434
 6173TIP3    H118460   5.223   1.608   2.427
 6173TIP3    H218461   5.166   1.748   2.432
 6174TIP3   OH218462   6.147   2.906   1.644
 6174TIP3    H118463   6.104   2.824   1.671
 6174TIP3    H218464   6.106   2.973   1.699
 6175TIP3   OH218465   5.902   3.932   2.161
 6175TIP3    H118466   5.981   3.980   2.183
 6175TIP3    H218467   5.908   3.917   2.067
 6176TIP3   OH218468   2.685   7.001   3.923
 6176TIP3    H118469   2.680   7.085   3.969
 6176TIP3    H218470   2.751   6.952   3.971
 6177TIP3   OH218471   5.385   0.373   3.245
 6177TIP3    H118472   5.398   0.355   3.151
 6177TIP3    H218473   5.375   0.468   3.250
 6178TIP3   OH218474   6.512   7.553   3.741
 6178TIP3    H118475   6.522   7.468   3.698
 6178TIP3    H218476   6.446   7.599   3.689
 6179TIP3   OH218477   4.702   1.106   4.619
 6179TIP3    H118478   4.672   1.019   4.646
 6179TIP3    H218479   4.657   1.122   4.536
 6180TIP3   OH218480   2.355   6.201   2.794
 6180TIP3    H118481   2.441   6.209   2.751
 6180TIP3    H218482   2.340   6.287   2.833
 6181TIP3   OH218483   2.832   2.094   6.406
 6181TIP3    H118484   2.849   2.182   6.371
 6181TIP3    H218485   2.891   2.037   6.357
 6182TIP3   OH218486   0.922   1.172   2.653
 6182TIP3    H118487   0.974   1.095   2.676
 6182TIP3    H218488   0.857   1.179   2.723
 6183TIP3   OH218489   6.865   6.194   2.102
 6183TIP3    H118490   6.813   6.275   2.101
 6183TIP3    H218491   6.947   6.218   2.060
 6184TIP3   OH218492   8.023   1.713   0.667
 6184TIP3    H118493   8.068   1.795   0.687
 6184TIP3    H218494   8.057   1.651   0.731
 6185TIP3   OH218495   2.920   6.401   0.034
 6185TIP3    H118496   2.920   6.365   0.123
 6185TIP3    H218497   2.996   6.359  -0.007
 6186TIP3   OH218498   3.978   2.900   3.207
 6186TIP3    H118499   3.968   2.957   3.284
 6186TIP3    H218500   3.994   2.813   3.244
 6187TIP3   OH218501   2.209   7.262   3.532
 6187TIP3    H118502   2.122   7.229   3.557
 6187TIP3    H218503   2.205   7.271   3.437
 6188TIP3   OH218504   8.218   1.357   0.526
 6188TIP3    H118505   8.187   1.277   0.483
 6188TIP3    H218506   8.204   1.341   0.619
 6189TIP3   OH218507   0.953   7.540   3.647
 6189TIP3    H118508   0.982   7.486   3.574
 6189TIP3    H218509   0.960   7.483   3.724
 6190TIP3   OH218510   7.917   2.816   2.960
 6190TIP3    H118511   7.873   2.756   3.021
 6190TIP3    H218512   8.005   2.780   2.950
 6191TIP3   OH218513   1.442   0.084   6.003
 6191TIP3    H118514   1.467   0.050   6.089
 6191TIP3    H218515   1.374   0.025   5.972
 6192TIP3   OH218516   7.075   0.874   1.976
 6192TIP3    H118517   7.037   0.891   1.890
 6192TIP3    H218518   7.009   0.822   2.022
 6193TIP3   OH218519   0.881   1.693   1.593
 6193TIP3    H118520   0.941   1.634   1.548
 6193TIP3    H218521   0.934   1.770   1.613
 6194TIP3   OH218522   0.005   0.885   5.024
 6194TIP3    H118523   0.046   0.829   5.090
 6194TIP3    H218524   0.033   0.974   5.046
 6195TIP3   OH218525   1.485   2.254   5.064
 6195TIP3    H118526   1.392   2.270   5.049
 6195TIP3    H218527   1.500   2.166   5.031
 6196TIP3   OH218528   0.978   0.661   3.561
 6196TIP3    H118529   1.036   0.734   3.540
 6196TIP3    H218530   0.910   0.664   3.494
 6197TIP3   OH218531   7.702   0.759   2.636
 6197TIP3    H118532   7.757   0.769   2.558
 6197TIP3    H218533   7.672   0.848   2.655
 6198TIP3   OH218534   1.443   1.587   4.640
 6198TIP3    H118535   1.370   1.566   4.582
 6198TIP3    H218536   1.510   1.521   4.620
 6199TIP3   OH218537   6.521   3.824   6.338
 6199TIP3    H118538   6.553   3.734   6.345
 6199TIP3    H218539   6.427   3.817   6.356
 6200TIP3   OH218540   8.032   3.832   2.978
 6200TIP3    H118541   8.110   3.835   3.032
 6200TIP3    H218542   8.037   3.748   2.932
 6201TIP3   OH218543   8.331   6.984   5.204
 6201TIP3    H118544   8.359   7.047   5.138
 6201TIP3    H218545   8.265   7.031   5.255
 6202TIP3   OH218546   7.093   1.488   5.457
 6202TIP3    H118547   7.121   1.498   5.366
 6202TIP3    H218548   7.084   1.577   5.490
 6203TIP3   OH218549   6.348   0.273   6.144
 6203TIP3    H118550   6.327   0.206   6.209
 6203TIP3    H218551   6.381   0.347   6.195
 6204TIP3   OH218552   1.880   1.586   6.771
 6204TIP3    H118553   1.892   1.559   6.680
 6204TIP3    H218554   1.956   1.639   6.792
 6205TIP3   OH218555   1.139   0.359   3.929
 6205TIP3    H118556   1.079   0.290   3.902
 6205TIP3    H218557   1.147   0.348   4.024
 6206TIP3   OH218558   4.736   0.775   5.700
 6206TIP3    H118559   4.726   0.860   5.744
 6206TIP3    H218560   4.673   0.718   5.743
 6207TIP3   OH218561   0.225   0.045   3.087
 6207TIP3    H118562   0.314   0.079   3.096
 6207TIP3    H218563   0.176   0.089   3.156
 6208TIP3   OH218564   2.397   2.451   3.738
 6208TIP3    H118565   2.325   2.506   3.768
 6208TIP3    H218566   2.365   2.413   3.656
 6209TIP3   OH218567   0.600   4.697   1.499
 6209TIP3    H118568   0.540   4.704   1.573
 6209TIP3    H218569   0.543   4.690   1.423
 6210TIP3   OH218570   5.086   0.589   6.473
 6210TIP3    H118571   5.011   0.637   6.438
 6210TIP3    H218572   5.162   0.636   6.439
 6211TIP3   OH218573   2.833   7.119   4.467
 6211TIP3    H118574   2.917   7.100   4.508
 6211TIP3    H218575   2.794   7.188   4.522
 6212TIP3   OH218576   3.198   7.810   4.368
 6212TIP3    H118577   3.239   7.769   4.291
 6212TIP3    H218578   3.269   7.861   4.407
 6213TIP3   OH218579   4.133   0.640   5.654
 6213TIP3    H118580   4.165   0.702   5.588
 6213TIP3    H218581   4.120   0.559   5.605
 6214TIP3   OH218582   6.561   4.394   2.461
 6214TIP3    H118583   6.629   4.329   2.482
 6214TIP3    H218584   6.519   4.361   2.382
 6215TIP3   OH218585   2.410   2.254   5.169
 6215TIP3    H118586   2.458   2.234   5.089
 6215TIP3    H218587   2.325   2.210   5.158
 6216TIP3   OH218588   4.349   6.901   0.210
 6216TIP3    H118589   4.254   6.889   0.210
 6216TIP3    H218590   4.383   6.826   0.260
 6217TIP3   OH218591   5.063   0.347   5.278
 6217TIP3    H118592   5.043   0.299   5.357
 6217TIP3    H218593   5.158   0.364   5.283
 6218TIP3   OH218594   7.581   5.432   1.906
 6218TIP3    H118595   7.562   5.377   1.982
 6218TIP3    H218596   7.570   5.375   1.831
 6219TIP3   OH218597   4.964   2.603   4.472
 6219TIP3    H118598   4.938   2.531   4.414
 6219TIP3    H218599   4.934   2.682   4.428
 6220TIP3   OH218600   2.875   3.834   2.248
 6220TIP3    H118601   2.836   3.896   2.187
 6220TIP3    H218602   2.921   3.771   2.193
 6221TIP3   OH218603   1.542   2.492   5.224
 6221TIP3    H118604   1.453   2.528   5.224
 6221TIP3    H218605   1.537   2.416   5.166
 6222TIP3   OH218606   5.963   3.329   5.746
 6222TIP3    H118607   5.896   3.281   5.699
 6222TIP3    H218608   5.923   3.414   5.765
 6223TIP3   OH218609   6.744   7.624   0.421
 6223TIP3    H118610   6.724   7.538   0.385
 6223TIP3    H218611   6.840   7.630   0.417
 6224TIP3   OH218612   2.915   2.468   1.866
 6224TIP3    H118613   2.852   2.523   1.820
 6224TIP3    H218614   2.913   2.500   1.956
 6225TIP3   OH218615   2.243   7.055   2.536
 6225TIP3    H118616   2.287   7.132   2.501
 6225TIP3    H218617   2.311   7.006   2.582
 6226TIP3   OH218618   1.884   4.777   2.572
 6226TIP3    H118619   1.816   4.758   2.637
 6226TIP3    H218620   1.877   4.872   2.558
 6227TIP3   OH218621   7.044   4.687   1.165
 6227TIP3    H118622   7.071   4.728   1.083
 6227TIP3    H218623   7.087   4.738   1.233
 6228TIP3   OH218624   2.232   5.914   2.073
 6228TIP3    H118625   2.260   5.825   2.095
 6228TIP3    H218626   2.165   5.902   2.005
 6229TIP3   OH218627   6.455   3.742   4.879
 6229TIP3    H118628   6.388   3.806   4.904
 6229TIP3    H218629   6.408   3.660   4.870
 6230TIP3   OH218630   8.232   0.262   5.403
 6230TIP3    H118631   8.259   0.278   5.493
 6230TIP3    H218632   8.257   0.171   5.386
 6231TIP3   OH218633   0.986   3.690   4.987
 6231TIP3    H118634   0.994   3.785   4.997
 6231TIP3    H218635   0.914   3.666   5.045
 6232TIP3   OH218636   7.347   4.304   3.274
 6232TIP3    H118637   7.424   4.284   3.326
 6232TIP3    H218638   7.273   4.270   3.326
 6233TIP3   OH218639   7.441   3.976   0.242
 6233TIP3    H118640   7.506   4.035   0.204
 6233TIP3    H218641   7.364   4.030   0.257
 6234TIP3   OH218642   5.160   7.186   5.572
 6234TIP3    H118643   5.100   7.258   5.592
 6234TIP3    H218644   5.144   7.121   5.640
 6235TIP3   OH218645   6.850   5.272   4.978
 6235TIP3    H118646   6.779   5.313   5.027
 6235TIP3    H218647   6.930   5.313   5.011
 6236TIP3   OH218648   6.213   4.945   3.599
 6236TIP3    H118649   6.211   5.039   3.612
 6236TIP3    H218650   6.133   4.926   3.549
 6237TIP3   OH218651   0.940   2.255   6.540
 6237TIP3    H118652   0.920   2.330   6.484
 6237TIP3    H218653   1.028   2.272   6.573
 6238TIP3   OH218654   5.717   1.920   2.420
 6238TIP3    H118655   5.798   1.926   2.472
 6238TIP3    H218656   5.733   1.977   2.345
 6239TIP3   OH218657   7.231   2.741   5.196
 6239TIP3    H118658   7.156   2.769   5.143
 6239TIP3    H218659   7.280   2.682   5.139
 6240TIP3   OH218660   1.771   2.425   0.438
 6240TIP3    H118661   1.721   2.344   0.438
 6240TIP3    H218662   1.707   2.494   0.456
 6241TIP3   OH218663   0.210   7.798   0.505
 6241TIP3    H118664   0.158   7.768   0.431
 6241TIP3    H218665   0.148   7.804   0.577
 6242TIP3   OH218666   4.037   5.252   5.310
 6242TIP3    H118667   4.013   5.160   5.304
 6242TIP3    H218668   4.072   5.261   5.399
 6243TIP3   OH218669   7.830   7.808   0.466
 6243TIP3    H118670   7.808   7.860   0.543
 6243TIP3    H218671   7.780   7.727   0.476
 6244TIP3   OH218672   3.531   1.353   0.858
 6244TIP3    H118673   3.494   1.278   0.811
 6244TIP3    H218674   3.608   1.317   0.903
 6245TIP3   OH218675   4.573   5.556   3.869
 6245TIP3    H118676   4.540   5.644   3.855
 6245TIP3    H218677   4.512   5.516   3.931
 6246TIP3   OH218678   4.991   4.473   0.361
 6246TIP3    H118679   4.938   4.408   0.408
 6246TIP3    H218680   5.081   4.442   0.370
 6247TIP3   OH218681   8.136   4.416   5.862
 6247TIP3    H118682   8.057   4.423   5.809
 6247TIP3    H218683   8.203   4.384   5.801
 6248TIP3   OH218684   7.893   0.198   3.135
 6248TIP3    H118685   7.942   0.186   3.216
 6248TIP3    H218686   7.855   0.112   3.118
 6249TIP3   OH218687   7.659   1.290   3.995
 6249TIP3    H118688   7.630   1.381   4.001
 6249TIP3    H218689   7.653   1.257   4.085
 6250TIP3   OH218690   4.088   5.888   6.857
 6250TIP3    H118691   4.092   5.812   6.798
 6250TIP3    H218692   4.000   5.883   6.895
 6251TIP3   OH218693   6.352   6.988   6.541
 6251TIP3    H118694   6.268   7.028   6.563
 6251TIP3    H218695   6.376   7.028   6.458
 6252TIP3   OH218696   4.104   3.447   6.483
 6252TIP3    H118697   4.186   3.467   6.438
 6252TIP3    H218698   4.122   3.464   6.575
 6253TIP3   OH218699   8.176   7.157   6.211
 6253TIP3    H118700   8.166   7.213   6.133
 6253TIP3    H218701   8.134   7.207   6.281
 6254TIP3   OH218702   7.530   6.765   5.111
 6254TIP3    H118703   7.499   6.801   5.195
 6254TIP3    H218704   7.524   6.670   5.121
 6255TIP3   OH218705   5.769   1.123   0.238
 6255TIP3    H118706   5.824   1.136   0.161
 6255TIP3    H218707   5.791   1.195   0.297
 6256TIP3   OH218708   3.082   4.565   5.523
 6256TIP3    H118709   3.094   4.516   5.604
 6256TIP3    H218710   2.999   4.610   5.534
 6257TIP3   OH218711   1.747   0.856   6.790
 6257TIP3    H118712   1.682   0.799   6.831
 6257TIP3    H218713   1.709   0.878   6.705
 6258TIP3   OH218714   0.907   3.376   1.963
 6258TIP3    H118715   0.935   3.380   2.054
 6258TIP3    H218716   0.904   3.468   1.935
 6259TIP3   OH218717   5.996   4.544   2.141
 6259TIP3    H118718   6.062   4.475   2.149
 6259TIP3    H218719   5.991   4.561   2.047
 6260TIP3   OH218720   0.577   4.008   0.761
 6260TIP3    H118721   0.646   3.960   0.714
 6260TIP3    H218722   0.582   4.097   0.726
 6261TIP3   OH218723   5.802   6.197   1.663
 6261TIP3    H118724   5.711   6.216   1.687
 6261TIP3    H218725   5.823   6.261   1.596
 6262TIP3   OH218726   0.457   4.789   0.647
 6262TIP3    H118727   0.419   4.862   0.597
 6262TIP3    H218728   0.418   4.711   0.607
 6263TIP3   OH218729   4.562   6.395   2.950
 6263TIP3    H118730   4.650   6.433   2.943
 6263TIP3    H218731   4.521   6.413   2.866
 6264TIP3   OH218732   7.300   5.351   3.167
 6264TIP3    H118733   7.385   5.316   3.196
 6264TIP3    H218734   7.305   5.445   3.188
 6265TIP3   OH218735   5.869   7.550   0.640
 6265TIP3    H118736   5.813   7.495   0.695
 6265TIP3    H218737   5.954   7.506   0.640
 6266TIP3   OH218738   7.319   0.458   3.151
 6266TIP3    H118739   7.335   0.552   3.141
 6266TIP3    H218740   7.352   0.438   3.239
 6267TIP3   OH218741   4.416   4.698   5.271
 6267TIP3    H118742   4.388   4.707   5.180
 6267TIP3    H218743   4.396   4.607   5.293
 6268TIP3   OH218744   0.092   4.555   1.818
 6268TIP3    H118745   0.082   4.602   1.900
 6268TIP3    H218746   0.108   4.623   1.753
 6269TIP3   OH218747   6.415   5.838   5.134
 6269TIP3    H118748   6.446   5.910   5.079
 6269TIP3    H218749   6.381   5.881   5.213
 6270TIP3   OH218750   1.637   1.351   0.185
 6270TIP3    H118751   1.564   1.300   0.150
 6270TIP3    H218752   1.668   1.301   0.260
 6271TIP3   OH218753   6.424   6.895   3.003
 6271TIP3    H118754   6.446   6.884   2.911
 6271TIP3    H218755   6.486   6.961   3.036
 6272TIP3   OH218756   3.494   0.801   1.465
 6272TIP3    H118757   3.445   0.833   1.390
 6272TIP3    H218758   3.558   0.870   1.483
 6273TIP3   OH218759   7.258   4.944   5.170
 6273TIP3    H118760   7.339   4.990   5.193
 6273TIP3    H218761   7.197   5.013   5.144
 6274TIP3   OH218762   7.168   1.411   4.545
 6274TIP3    H118763   7.133   1.484   4.494
 6274TIP3    H218764   7.201   1.452   4.625
 6275TIP3   OH218765   0.641   2.687   5.571
 6275TIP3    H118766   0.732   2.662   5.551
 6275TIP3    H218767   0.635   2.779   5.543
 6276TIP3   OH218768   3.265   6.315   6.848
 6276TIP3    H118769   3.326   6.334   6.919
 6276TIP3    H218770   3.320   6.279   6.778
 6277TIP3   OH218771   3.436   3.484   4.462
 6277TIP3    H118772   3.368   3.523   4.408
 6277TIP3    H218773   3.508   3.465   4.401
 6278TIP3   OH218774   0.986   6.147   3.579
 6278TIP3    H118775   0.956   6.076   3.636
 6278TIP3    H218776   0.907   6.174   3.532
 6279TIP3   OH218777   7.050   1.261   3.431
 6279TIP3    H118778   6.983   1.289   3.369
 6279TIP3    H218779   7.088   1.343   3.464
 6280TIP3   OH218780   3.336   4.370   2.818
 6280TIP3    H118781   3.394   4.444   2.800
 6280TIP3    H218782   3.303   4.387   2.906
 6281TIP3   OH218783   2.116   4.216   0.650
 6281TIP3    H118784   2.116   4.157   0.575
 6281TIP3    H218785   2.206   4.251   0.653
 6282TIP3   OH218786   1.100   0.261   5.980
 6282TIP3    H118787   1.106   0.281   5.887
 6282TIP3    H218788   1.160   0.322   6.022
 6283TIP3   OH218789   2.664   2.445   1.585
 6283TIP3    H118790   2.680   2.365   1.635
 6283TIP3    H218791   2.577   2.474   1.614
 6284TIP3   OH218792   5.047   7.226   0.920
 6284TIP3    H118793   5.077   7.137   0.939
 6284TIP3    H218794   5.042   7.269   1.006
 6285TIP3   OH218795   7.598   5.242   4.465
 6285TIP3    H118796   7.510   5.244   4.427
 6285TIP3    H218797   7.597   5.311   4.531
 6286TIP3   OH218798   2.492   2.757   2.774
 6286TIP3    H118799   2.572   2.768   2.722
 6286TIP3    H218800   2.516   2.790   2.861
 6287TIP3   OH218801   7.026   6.486   1.855
 6287TIP3    H118802   6.933   6.484   1.834
 6287TIP3    H218803   7.034   6.555   1.922
 6288TIP3   OH218804   5.052   2.214   3.908
 6288TIP3    H118805   4.956   2.217   3.906
 6288TIP3    H218806   5.078   2.229   3.817
 6289TIP3   OH218807   4.988   4.823   4.761
 6289TIP3    H118808   5.061   4.865   4.806
 6289TIP3    H218809   4.932   4.790   4.832
 6290TIP3   OH218810   4.717   4.743   0.928
 6290TIP3    H118811   4.630   4.765   0.895
 6290TIP3    H218812   4.701   4.714   1.018
 6291TIP3   OH218813   5.885   0.464   1.164
 6291TIP3    H118814   5.819   0.429   1.105
 6291TIP3    H218815   5.854   0.552   1.185
 6292TIP3   OH218816   4.096   4.354   2.641
 6292TIP3    H118817   4.187   4.382   2.628
 6292TIP3    H218818   4.094   4.322   2.731
 6293TIP3   OH218819   8.109   3.396   4.102
 6293TIP3    H118820   8.095   3.429   4.190
 6293TIP3    H218821   8.066   3.459   4.045
 6294TIP3   OH218822   3.140   4.073   4.210
 6294TIP3    H118823   3.197   4.005   4.244
 6294TIP3    H218824   3.051   4.038   4.223
 6295TIP3   OH218825   2.257   7.777   1.363
 6295TIP3    H118826   2.189   7.710   1.353
 6295TIP3    H218827   2.247   7.808   1.453
 6296TIP3   OH218828   1.829   0.288   5.230
 6296TIP3    H118829   1.877   0.248   5.303
 6296TIP3    H218830   1.743   0.310   5.266
 6297TIP3   OH218831   8.207   7.717   6.116
 6297TIP3    H118832   8.154   7.782   6.163
 6297TIP3    H218833   8.265   7.681   6.184
 6298TIP3   OH218834   5.906   5.634   5.968
 6298TIP3    H118835   5.931   5.717   5.926
 6298TIP3    H218836   5.988   5.585   5.974
 6299TIP3   OH218837   6.369   3.541   1.658
 6299TIP3    H118838   6.450   3.496   1.682
 6299TIP3    H218839   6.396   3.606   1.593
 6300TIP3   OH218840   3.443   1.884   0.827
 6300TIP3    H118841   3.496   1.964   0.827
 6300TIP3    H218842   3.508   1.814   0.821
 6301TIP3   OH218843   4.785   3.645   4.535
 6301TIP3    H118844   4.700   3.612   4.562
 6301TIP3    H218845   4.768   3.737   4.511
 6302TIP3   OH218846   8.013   3.539   3.899
 6302TIP3    H118847   7.924   3.531   3.865
 6302TIP3    H218848   8.067   3.561   3.823
 6303TIP3   OH218849   3.672   3.966   0.723
 6303TIP3    H118850   3.598   3.976   0.664
 6303TIP3    H218851   3.712   4.053   0.727
 6304TIP3   OH218852   3.571   7.221   2.341
 6304TIP3    H118853   3.598   7.279   2.270
 6304TIP3    H218854   3.526   7.279   2.403
 6305TIP3   OH218855   8.121   7.302   6.857
 6305TIP3    H118856   8.081   7.319   6.772
 6305TIP3    H218857   8.049   7.311   6.920
 6306TIP3   OH218858   2.444   6.742   4.792
 6306TIP3    H118859   2.453   6.732   4.697
 6306TIP3    H218860   2.514   6.687   4.829
 6307TIP3   OH218861   6.827   1.868   0.985
 6307TIP3    H118862   6.734   1.865   0.963
 6307TIP3    H218863   6.830   1.917   1.067
 6308TIP3   OH218864   3.478   7.310   4.624
 6308TIP3    H118865   3.395   7.342   4.660
 6308TIP3    H218866   3.460   7.298   4.531
 6309TIP3   OH218867   0.847   3.047   3.756
 6309TIP3    H118868   0.922   3.089   3.712
 6309TIP3    H218869   0.887   2.992   3.823
 6310TIP3   OH218870   7.887   1.825   5.393
 6310TIP3    H118871   7.956   1.843   5.457
 6310TIP3    H218872   7.931   1.779   5.322
 6311TIP3   OH218873   3.125   6.661   5.920
 6311TIP3    H118874   3.158   6.748   5.941
 6311TIP3    H218875   3.051   6.676   5.862
 6312TIP3   OH218876   6.515   1.070   1.886
 6312TIP3    H118877   6.492   1.163   1.894
 6312TIP3    H218878   6.611   1.070   1.878
 6313TIP3   OH218879   5.051   0.475   5.024
 6313TIP3    H118880   5.039   0.431   5.108
 6313TIP3    H218881   5.040   0.406   4.959
 6314TIP3   OH218882   2.301   2.242   4.165
 6314TIP3    H118883   2.321   2.329   4.133
 6314TIP3    H218884   2.268   2.256   4.254
 6315TIP3   OH218885   4.420   2.382   0.616
 6315TIP3    H118886   4.337   2.423   0.640
 6315TIP3    H218887   4.439   2.322   0.688
 6316TIP3   OH218888   3.435   7.246   0.123
 6316TIP3    H118889   3.522   7.284   0.120
 6316TIP3    H218890   3.431   7.186   0.049
 6317TIP3   OH218891   3.883   2.569   2.027
 6317TIP3    H118892   3.958   2.550   1.970
 6317TIP3    H218893   3.901   2.656   2.061
 6318TIP3   OH218894   4.853   1.500   3.823
 6318TIP3    H118895   4.769   1.529   3.859
 6318TIP3    H218896   4.907   1.579   3.821
 6319TIP3   OH218897   5.985   1.980   4.357
 6319TIP3    H118898   5.938   2.053   4.315
 6319TIP3    H218899   6.067   1.972   4.308
 6320TIP3   OH218900   0.875   4.273   4.451
 6320TIP3    H118901   0.823   4.197   4.425
 6320TIP3    H218902   0.906   4.311   4.369
 6321TIP3   OH218903   6.732   1.429   5.733
 6321TIP3    H118904   6.786   1.504   5.757
 6321TIP3    H218905   6.642   1.458   5.748
 6322TIP3   OH218906   7.774   3.421   6.828
 6322TIP3    H118907   7.772   3.371   6.909
 6322TIP3    H218908   7.747   3.360   6.760
 6323TIP3   OH218909   6.225   5.719   3.443
 6323TIP3    H118910   6.299   5.659   3.458
 6323TIP3    H218911   6.174   5.676   3.375
 6324TIP3   OH218912   4.417   0.418   4.948
 6324TIP3    H118913   4.388   0.444   4.861
 6324TIP3    H218914   4.485   0.482   4.971
 6325TIP3   OH218915   0.025   6.001   0.838
 6325TIP3    H118916   0.046   6.093   0.850
 6325TIP3    H218917   0.041   5.984   0.745
 6326TIP3   OH218918   0.482   3.423   0.457
 6326TIP3    H118919   0.565   3.421   0.409
 6326TIP3    H218920   0.417   3.447   0.391
 6327TIP3   OH218921   7.158   1.949   4.616
 6327TIP3    H118922   7.253   1.961   4.607
 6327TIP3    H218923   7.121   1.995   4.541
 6328TIP3   OH218924   6.185   0.738   3.731
 6328TIP3    H118925   6.243   0.806   3.765
 6328TIP3    H218926   6.149   0.696   3.809
 6329TIP3   OH218927   7.850   5.875   2.430
 6329TIP3    H118928   7.831   5.956   2.382
 6329TIP3    H218929   7.891   5.904   2.511
 6330TIP3   OH218930   4.625   2.560   2.851
 6330TIP3    H118931   4.567   2.632   2.875
 6330TIP3    H218932   4.694   2.601   2.798
 6331TIP3   OH218933   4.083   3.602   1.985
 6331TIP3    H118934   4.083   3.677   1.924
 6331TIP3    H218935   3.995   3.604   2.023
 6332TIP3   OH218936   5.191   6.853   4.408
 6332TIP3    H118937   5.236   6.842   4.492
 6332TIP3    H218938   5.126   6.921   4.423
 6333TIP3   OH218939   3.188   2.767   1.548
 6333TIP3    H118940   3.262   2.761   1.607
 6333TIP3    H218941   3.219   2.727   1.466
 6334TIP3   OH218942   2.468   4.969   0.214
 6334TIP3    H118943   2.417   4.892   0.190
 6334TIP3    H218944   2.499   5.004   0.130
 6335TIP3   OH218945   7.587   1.387   2.519
 6335TIP3    H118946   7.683   1.380   2.517
 6335TIP3    H218947   7.566   1.396   2.612
 6336TIP3   OH218948   0.414   0.194   5.933
 6336TIP3    H118949   0.373   0.246   5.863
 6336TIP3    H218950   0.435   0.258   6.001
 6337TIP3   OH218951   5.923   6.600   4.035
 6337TIP3    H118952   5.925   6.692   4.009
 6337TIP3    H218953   6.000   6.561   3.995
 6338TIP3   OH218954   7.132   5.233   2.068
 6338TIP3    H118955   7.187   5.280   2.130
 6338TIP3    H218956   7.176   5.149   2.055
 6339TIP3   OH218957   0.611   7.553   0.799
 6339TIP3    H118958   0.682   7.493   0.777
 6339TIP3    H218959   0.534   7.518   0.754
 6340TIP3   OH218960   4.583   3.511   4.283
 6340TIP3    H118961   4.502   3.482   4.324
 6340TIP3    H218962   4.609   3.439   4.226
 6341TIP3   OH218963   1.002   4.856   4.796
 6341TIP3    H118964   0.986   4.770   4.758
 6341TIP3    H218965   0.916   4.886   4.825
 6342TIP3   OH218966   4.664   4.055   1.762
 6342TIP3    H118967   4.724   3.986   1.789
 6342TIP3    H218968   4.577   4.022   1.784
 6343TIP3   OH218969   0.095   1.371   4.421
 6343TIP3    H118970   0.103   1.449   4.476
 6343TIP3    H218971   0.033   1.395   4.353
 6344TIP3   OH218972   8.300   0.456   1.337
 6344TIP3    H118973   8.296   0.418   1.425
 6344TIP3    H218974   8.222   0.510   1.331
 6345TIP3   OH218975   1.616   3.236   4.340
 6345TIP3    H118976   1.655   3.322   4.326
 6345TIP3    H218977   1.584   3.210   4.254
 6346TIP3   OH218978   2.892   3.579   6.251
 6346TIP3    H118979   2.892   3.616   6.340
 6346TIP3    H218980   2.860   3.651   6.196
 6347TIP3   OH218981   8.024   4.072   2.486
 6347TIP3    H118982   8.014   4.006   2.554
 6347TIP3    H218983   8.022   4.023   2.404
 6348TIP3   OH218984   1.988   1.164   3.714
 6348TIP3    H118985   2.022   1.209   3.637
 6348TIP3    H218986   1.896   1.148   3.694
 6349TIP3   OH218987   1.349   0.408   3.752
 6349TIP3    H118988   1.270   0.430   3.703
 6349TIP3    H218989   1.316   0.363   3.830
 6350TIP3   OH218990   5.542   4.339   0.494
 6350TIP3    H118991   5.479   4.272   0.467
 6350TIP3    H218992   5.494   4.392   0.558
 6351TIP3   OH218993   5.254   0.680   3.901
 6351TIP3    H118994   5.182   0.690   3.964
 6351TIP3    H218995   5.333   0.688   3.954
 6352TIP3   OH218996   4.009   6.715   1.355
 6352TIP3    H118997   4.018   6.798   1.310
 6352TIP3    H218998   4.005   6.738   1.448
 6353TIP3   OH218999   5.117   4.223   5.965
 6353TIP3    H119000   5.163   4.289   6.017
 6353TIP3    H219001   5.170   4.143   5.975
 6354TIP3   OH219002   0.237   6.538   4.961
 6354TIP3    H119003   0.156   6.583   4.986
 6354TIP3    H219004   0.302   6.570   5.024
 6355TIP3   OH219005   1.678   5.794   3.024
 6355TIP3    H119006   1.703   5.830   2.939
 6355TIP3    H219007   1.707   5.703   3.021
 6356TIP3   OH219008   1.837   2.339   4.511
 6356TIP3    H119009   1.816   2.431   4.523
 6356TIP3    H219010   1.895   2.337   4.435
 6357TIP3   OH219011   3.831   5.006   6.576
 6357TIP3    H119012   3.814   4.990   6.669
 6357TIP3    H219013   3.799   4.927   6.532
 6358TIP3   OH219014   7.001   3.381   5.679
 6358TIP3    H119015   7.022   3.301   5.727
 6358TIP3    H219016   7.073   3.440   5.697
 6359TIP3   OH219017   6.686   2.330   6.063
 6359TIP3    H119018   6.736   2.370   6.134
 6359TIP3    H219019   6.749   2.317   5.992
 6360TIP3   OH219020   1.149   3.037   5.560
 6360TIP3    H119021   1.206   2.995   5.624
 6360TIP3    H219022   1.161   2.988   5.479
 6361TIP3   OH219023   8.319   6.815   1.514
 6361TIP3    H119024   8.265   6.814   1.593
 6361TIP3    H219025   8.385   6.747   1.530
 6362TIP3   OH219026   0.346   5.309   2.664
 6362TIP3    H119027   0.281   5.331   2.731
 6362TIP3    H219028   0.427   5.351   2.694
 6363TIP3   OH219029   6.090   2.312   0.387
 6363TIP3    H119030   6.141   2.273   0.316
 6363TIP3    H219031   6.140   2.292   0.466
 6364TIP3   OH219032   4.973   5.974   3.823
 6364TIP3    H119033   5.029   5.938   3.755
 6364TIP3    H219034   4.903   6.019   3.774
 6365TIP3   OH219035   0.717   1.364   0.353
 6365TIP3    H119036   0.757   1.398   0.433
 6365TIP3    H219037   0.792   1.343   0.296
 6366TIP3   OH219038   5.782   2.112   2.947
 6366TIP3    H119039   5.689   2.120   2.968
 6366TIP3    H219040   5.784   2.082   2.856
 6367TIP3   OH219041   8.121   1.553   5.501
 6367TIP3    H119042   8.206   1.591   5.478
 6367TIP3    H219043   8.072   1.553   5.419
 6368TIP3   OH219044   0.563   3.783   0.540
 6368TIP3    H119045   0.549   3.743   0.454
 6368TIP3    H219046   0.477   3.781   0.582
 6369TIP3   OH219047   1.343   7.225   1.114
 6369TIP3    H119048   1.387   7.214   1.198
 6369TIP3    H219049   1.382   7.304   1.076
 6370TIP3   OH219050   3.809   0.352   1.852
 6370TIP3    H119051   3.725   0.312   1.829
 6370TIP3    H219052   3.834   0.309   1.934
 6371TIP3   OH219053   5.614   0.325   6.774
 6371TIP3    H119054   5.590   0.276   6.695
 6371TIP3    H219055   5.664   0.263   6.826
 6372TIP3   OH219056   5.459   6.618   0.461
 6372TIP3    H119057   5.364   6.607   0.466
 6372TIP3    H219058   5.471   6.696   0.406
 6373TIP3   OH219059   5.061   0.580   4.108
 6373TIP3    H119060   5.029   0.490   4.104
 6373TIP3    H219061   5.067   0.599   4.202
 6374TIP3   OH219062   3.418   6.650   4.935
 6374TIP3    H119063   3.509   6.620   4.942
 6374TIP3    H219064   3.421   6.742   4.962
 6375TIP3   OH219065   6.382   1.038   6.710
 6375TIP3    H119066   6.454   1.047   6.648
 6375TIP3    H219067   6.345   0.952   6.691
 6376TIP3   OH219068   1.885   3.008   2.270
 6376TIP3    H119069   1.968   2.995   2.315
 6376TIP3    H219070   1.891   3.096   2.233
 6377TIP3   OH219071   8.309   1.797   3.458
 6377TIP3    H119072   8.364   1.872   3.481
 6377TIP3    H219073   8.363   1.746   3.397
 6378TIP3   OH219074   6.196   6.167   0.963
 6378TIP3    H119075   6.277   6.212   0.939
 6378TIP3    H219076   6.134   6.190   0.894
 6379TIP3   OH219077   1.108   2.372   5.352
 6379TIP3    H119078   1.016   2.389   5.335
 6379TIP3    H219079   1.149   2.370   5.265
 6380TIP3   OH219080   1.142   1.597   3.092
 6380TIP3    H119081   1.210   1.542   3.053
 6380TIP3    H219082   1.132   1.670   3.030
 6381TIP3   OH219083   2.585   0.229   6.827
 6381TIP3    H119084   2.531   0.246   6.750
 6381TIP3    H219085   2.573   0.307   6.881
 6382TIP3   OH219086   4.766   4.180   4.534
 6382TIP3    H119087   4.730   4.267   4.549
 6382TIP3    H219088   4.693   4.128   4.503
 6383TIP3   OH219089   3.436   0.537   4.609
 6383TIP3    H119090   3.416   0.521   4.701
 6383TIP3    H219091   3.523   0.499   4.596
 6384TIP3   OH219092   2.032   3.505   2.321
 6384TIP3    H119093   1.965   3.530   2.258
 6384TIP3    H219094   2.064   3.588   2.356
 6385TIP3   OH219095   1.201   7.756   5.556
 6385TIP3    H119096   1.199   7.783   5.464
 6385TIP3    H219097   1.215   7.837   5.604
 6386TIP3   OH219098   1.282   2.520   6.185
 6386TIP3    H119099   1.262   2.614   6.185
 6386TIP3    H219100   1.373   2.515   6.214
 6387TIP3   OH219101   3.607   0.306   0.113
 6387TIP3    H119102   3.581   0.387   0.070
 6387TIP3    H219103   3.622   0.245   0.041
 6388TIP3   OH219104   6.741   1.367   1.753
 6388TIP3    H119105   6.794   1.328   1.822
 6388TIP3    H219106   6.651   1.360   1.784
 6389TIP3   OH219107   5.369   6.399   0.999
 6389TIP3    H119108   5.453   6.355   1.007
 6389TIP3    H219109   5.347   6.393   0.906
 6390TIP3   OH219110   8.192   4.694   6.009
 6390TIP3    H119111   8.185   4.761   5.941
 6390TIP3    H219112   8.225   4.617   5.963
 6391TIP3   OH219113   6.148   0.604   2.463
 6391TIP3    H119114   6.186   0.648   2.539
 6391TIP3    H219115   6.152   0.511   2.485
 6392TIP3   OH219116   5.210   2.755   4.164
 6392TIP3    H119117   5.303   2.777   4.162
 6392TIP3    H219118   5.206   2.670   4.207
 6393TIP3   OH219119   2.685   7.141   2.577
 6393TIP3    H119120   2.699   7.049   2.598
 6393TIP3    H219121   2.652   7.179   2.659
 6394TIP3   OH219122   5.510   6.591   2.768
 6394TIP3    H119123   5.565   6.528   2.815
 6394TIP3    H219124   5.536   6.676   2.804
 6395TIP3   OH219125   6.577   3.196   0.426
 6395TIP3    H119126   6.511   3.173   0.361
 6395TIP3    H219127   6.549   3.150   0.505
 6396TIP3   OH219128   0.601   2.957   6.304
 6396TIP3    H119129   0.511   2.988   6.314
 6396TIP3    H219130   0.606   2.880   6.361
 6397TIP3   OH219131   3.337   2.392   0.164
 6397TIP3    H119132   3.326   2.461   0.098
 6397TIP3    H219133   3.331   2.310   0.114
 6398TIP3   OH219134   7.337   3.496   2.957
 6398TIP3    H119135   7.354   3.429   3.024
 6398TIP3    H219136   7.421   3.542   2.948
 6399TIP3   OH219137   2.719   2.191   3.416
 6399TIP3    H119138   2.761   2.266   3.457
 6399TIP3    H219139   2.755   2.115   3.462
 6400TIP3   OH219140   7.860   2.218   3.349
 6400TIP3    H119141   7.901   2.178   3.273
 6400TIP3    H219142   7.889   2.164   3.423
 6401TIP3   OH219143   7.142   3.498   0.142
 6401TIP3    H119144   7.225   3.468   0.107
 6401TIP3    H219145   7.135   3.456   0.228
 6402TIP3   OH219146   6.266   3.406   6.762
 6402TIP3    H119147   6.271   3.482   6.704
 6402TIP3    H219148   6.176   3.375   6.753
 6403TIP3   OH219149   4.032   6.650   5.293
 6403TIP3    H119150   3.953   6.599   5.313
 6403TIP3    H219151   4.030   6.722   5.355
 6404TIP3   OH219152   0.506   3.632   2.641
 6404TIP3    H119153   0.551   3.575   2.704
 6404TIP3    H219154   0.567   3.638   2.568
 6405TIP3   OH219155   5.228   6.763   6.712
 6405TIP3    H119156   5.156   6.709   6.745
 6405TIP3    H219157   5.307   6.711   6.730
 6406TIP3   OH219158   0.026   1.219   5.814
 6406TIP3    H119159   0.114   1.219   5.777
 6406TIP3    H219160  -0.021   1.286   5.764
 6407TIP3   OH219161   1.099   0.539   6.710
 6407TIP3    H119162   1.077   0.473   6.644
 6407TIP3    H219163   1.169   0.499   6.762
 6408TIP3   OH219164   3.115   4.122   3.296
 6408TIP3    H119165   3.034   4.075   3.316
 6408TIP3    H219166   3.147   4.152   3.382
 6409TIP3   OH219167   1.824   7.299   3.826
 6409TIP3    H119168   1.756   7.237   3.851
 6409TIP3    H219169   1.806   7.377   3.879
 6410TIP3   OH219170   1.191   3.424   0.269
 6410TIP3    H119171   1.237   3.441   0.187
 6410TIP3    H219172   1.222   3.492   0.329
 6411TIP3   OH219173   1.587   7.724   0.011
 6411TIP3    H119174   1.579   7.815  -0.017
 6411TIP3    H219175   1.594   7.728   0.106
 6412TIP3   OH219176   3.628   4.328   2.097
 6412TIP3    H119177   3.689   4.279   2.042
 6412TIP3    H219178   3.577   4.261   2.142
 6413TIP3   OH219179   4.022   7.152   2.262
 6413TIP3    H119180   3.961   7.088   2.300
 6413TIP3    H219181   4.017   7.227   2.321
 6414TIP3   OH219182   0.481   6.039   5.269
 6414TIP3    H119183   0.544   5.990   5.215
 6414TIP3    H219184   0.425   5.972   5.307
 6415TIP3   OH219185   1.486   7.688   5.462
 6415TIP3    H119186   1.572   7.646   5.453
 6415TIP3    H219187   1.431   7.622   5.504
 6416TIP3   OH219188   3.668   1.008   1.551
 6416TIP3    H119189   3.729   0.954   1.601
 6416TIP3    H219190   3.723   1.073   1.507
 6417TIP3   OH219191   8.004   3.663   2.551
 6417TIP3    H119192   7.983   3.593   2.613
 6417TIP3    H219193   8.059   3.621   2.484
 6418TIP3   OH219194   4.313   4.665   1.158
 6418TIP3    H119195   4.242   4.619   1.113
 6418TIP3    H219196   4.345   4.727   1.093
 6419TIP3   OH219197   2.297   0.513   1.470
 6419TIP3    H119198   2.295   0.574   1.397
 6419TIP3    H219199   2.240   0.441   1.444
 6420TIP3   OH219200   7.522   7.645   1.888
 6420TIP3    H119201   7.546   7.572   1.832
 6420TIP3    H219202   7.553   7.621   1.975
 6421TIP3   OH219203   2.959   2.004   2.858
 6421TIP3    H119204   2.923   1.947   2.790
 6421TIP3    H219205   2.883   2.044   2.900
 6422TIP3   OH219206   0.042   5.603   1.204
 6422TIP3    H119207   0.043   5.667   1.134
 6422TIP3    H219208  -0.026   5.634   1.264
 6423TIP3   OH219209   5.021   1.087   6.809
 6423TIP3    H119210   5.093   1.149   6.802
 6423TIP3    H219211   4.989   1.076   6.720
 6424TIP3   OH219212   3.215   5.764   0.053
 6424TIP3    H119213   3.216   5.848   0.008
 6424TIP3    H219214   3.137   5.720   0.021
 6425TIP3   OH219215   2.965   4.154   1.647
 6425TIP3    H119216   2.986   4.243   1.674
 6425TIP3    H219217   2.893   4.127   1.704
 6426TIP3   OH219218   5.959   1.834   6.132
 6426TIP3    H119219   6.049   1.860   6.116
 6426TIP3    H219220   5.943   1.763   6.070
 6427TIP3   OH219221   6.430   6.101   2.937
 6427TIP3    H119222   6.493   6.146   2.994
 6427TIP3    H219223   6.472   6.017   2.917
 6428TIP3   OH219224   6.596   2.873   0.919
 6428TIP3    H119225   6.587   2.963   0.950
 6428TIP3    H219226   6.530   2.865   0.850
 6429TIP3   OH219227   0.799   2.958   0.750
 6429TIP3    H119228   0.792   2.947   0.655
 6429TIP3    H219229   0.831   3.047   0.762
 6430TIP3   OH219230   1.082   1.418   2.649
 6430TIP3    H119231   1.034   1.501   2.644
 6430TIP3    H219232   1.015   1.352   2.667
 6431TIP3   OH219233   0.882   4.155   1.298
 6431TIP3    H119234   0.941   4.226   1.321
 6431TIP3    H219235   0.806   4.167   1.355
 6432TIP3   OH219236   2.489   6.245   6.542
 6432TIP3    H119237   2.547   6.244   6.618
 6432TIP3    H219238   2.534   6.191   6.477
 6433TIP3   OH219239   6.181   0.273   2.814
 6433TIP3    H119240   6.228   0.218   2.877
 6433TIP3    H219241   6.112   0.316   2.867
 6434TIP3   OH219242   2.219   5.856   3.731
 6434TIP3    H119243   2.201   5.931   3.674
 6434TIP3    H219244   2.292   5.885   3.787
 6435TIP3   OH219245   1.261   1.715   4.274
 6435TIP3    H119246   1.243   1.681   4.362
 6435TIP3    H219247   1.357   1.718   4.269
 6436TIP3   OH219248   8.185   0.349   6.665
 6436TIP3    H119249   8.229   0.343   6.750
 6436TIP3    H219250   8.092   0.342   6.686
 6437TIP3   OH219251   4.107   7.203   5.640
 6437TIP3    H119252   4.049   7.138   5.600
 6437TIP3    H219253   4.139   7.162   5.720
 6438TIP3   OH219254   3.258   7.212   5.373
 6438TIP3    H119255   3.298   7.130   5.345
 6438TIP3    H219256   3.328   7.276   5.370
 6439TIP3   OH219257   5.087   5.430   0.446
 6439TIP3    H119258   5.143   5.355   0.429
 6439TIP3    H219259   5.143   5.506   0.434
 6440TIP3   OH219260   7.810   1.157   6.667
 6440TIP3    H119261   7.714   1.155   6.662
 6440TIP3    H219262   7.835   1.066   6.685
 6441TIP3   OH219263   7.433   3.966   4.492
 6441TIP3    H119264   7.459   3.918   4.571
 6441TIP3    H219265   7.410   3.898   4.430
 6442TIP3   OH219266   6.543   1.593   3.544
 6442TIP3    H119267   6.504   1.671   3.506
 6442TIP3    H219268   6.490   1.576   3.623
 6443TIP3   OH219269   4.027   0.360   6.673
 6443TIP3    H119270   4.099   0.308   6.708
 6443TIP3    H219271   4.065   0.447   6.659
 6444TIP3   OH219272   4.166   2.944   2.303
 6444TIP3    H119273   4.111   3.021   2.318
 6444TIP3    H219274   4.163   2.896   2.386
 6445TIP3   OH219275   7.722   2.207   1.257
 6445TIP3    H119276   7.666   2.283   1.270
 6445TIP3    H219277   7.781   2.232   1.186
 6446TIP3   OH219278   2.811   6.774   4.702
 6446TIP3    H119279   2.852   6.690   4.680
 6446TIP3    H219280   2.767   6.801   4.621
 6447TIP3   OH219281   5.236   2.967   3.159
 6447TIP3    H119282   5.284   2.985   3.078
 6447TIP3    H219283   5.197   3.051   3.183
 6448TIP3   OH219284   0.903   5.506   6.684
 6448TIP3    H119285   0.817   5.546   6.699
 6448TIP3    H219286   0.885   5.413   6.672
 6449TIP3   OH219287   4.239   1.489   1.657
 6449TIP3    H119288   4.230   1.468   1.749
 6449TIP3    H219289   4.330   1.468   1.636
 6450TIP3   OH219290   7.702   4.838   2.623
 6450TIP3    H119291   7.624   4.878   2.585
 6450TIP3    H219292   7.670   4.794   2.701
 6451TIP3   OH219293   1.902   4.594   1.149
 6451TIP3    H119294   1.986   4.561   1.118
 6451TIP3    H219295   1.861   4.519   1.193
 6452TIP3   OH219296   1.661   1.122   3.061
 6452TIP3    H119297   1.682   1.159   2.975
 6452TIP3    H219298   1.745   1.118   3.106
 6453TIP3   OH219299   6.340   2.414   4.901
 6453TIP3    H119300   6.290   2.338   4.870
 6453TIP3    H219301   6.304   2.488   4.853
 6454TIP3   OH219302   3.872   7.655   3.936
 6454TIP3    H119303   3.955   7.611   3.954
 6454TIP3    H219304   3.824   7.593   3.881
 6455TIP3   OH219305   0.303   4.389   1.287
 6455TIP3    H119306   0.246   4.388   1.365
 6455TIP3    H219307   0.247   4.357   1.217
 6456TIP3   OH219308   0.087   1.819   2.380
 6456TIP3    H119309   0.049   1.872   2.310
 6456TIP3    H219310   0.089   1.730   2.345
 6457TIP3   OH219311   2.112   3.105   3.207
 6457TIP3    H119312   2.189   3.157   3.229
 6457TIP3    H219313   2.043   3.169   3.189
 6458TIP3   OH219314   5.006   5.182   2.670
 6458TIP3    H119315   5.081   5.123   2.657
 6458TIP3    H219316   4.964   5.186   2.584
 6459TIP3   OH219317   2.310   4.310   4.069
 6459TIP3    H119318   2.246   4.342   4.132
 6459TIP3    H219319   2.314   4.379   4.002
 6460TIP3   OH219320   6.839   2.512   2.408
 6460TIP3    H119321   6.850   2.424   2.372
 6460TIP3    H219322   6.844   2.500   2.503
 6461TIP3   OH219323   6.621   3.818   3.111
 6461TIP3    H119324   6.558   3.748   3.096
 6461TIP3    H219325   6.643   3.811   3.204
 6462TIP3   OH219326   2.870   5.922   4.934
 6462TIP3    H119327   2.822   5.954   5.010
 6462TIP3    H219328   2.801   5.890   4.875
 6463TIP3   OH219329   2.660   4.935   5.911
 6463TIP3    H119330   2.581   4.924   5.857
 6463TIP3    H219331   2.712   4.856   5.894
 6464TIP3   OH219332   7.157   0.233   0.478
 6464TIP3    H119333   7.239   0.282   0.477
 6464TIP3    H219334   7.183   0.141   0.474
 6465TIP3   OH219335   2.380   0.592   6.136
 6465TIP3    H119336   2.417   0.662   6.189
 6465TIP3    H219337   2.392   0.621   6.046
 6466TIP3   OH219338   3.781   7.350   5.606
 6466TIP3    H119339   3.736   7.397   5.536
 6466TIP3    H219340   3.713   7.337   5.673
 6467TIP3   OH219341   0.471   4.924   4.373
 6467TIP3    H119342   0.503   4.861   4.437
 6467TIP3    H219343   0.550   4.969   4.342
 6468TIP3   OH219344   6.487   0.671   2.571
 6468TIP3    H119345   6.408   0.724   2.569
 6468TIP3    H219346   6.551   0.724   2.620
 6469TIP3   OH219347   7.458   4.314   2.651
 6469TIP3    H119348   7.439   4.354   2.566
 6469TIP3    H219349   7.551   4.334   2.666
 6470TIP3   OH219350   8.068   2.684   5.369
 6470TIP3    H119351   8.015   2.606   5.354
 6470TIP3    H219352   8.015   2.738   5.428
 6471TIP3   OH219353   1.444   6.208   3.881
 6471TIP3    H119354   1.362   6.209   3.832
 6471TIP3    H219355   1.441   6.126   3.931
 6472TIP3   OH219356   5.033   6.704   1.675
 6472TIP3    H119357   5.124   6.675   1.685
 6472TIP3    H219358   5.014   6.751   1.756
 6473TIP3   OH219359   3.845   2.597   5.145
 6473TIP3    H119360   3.924   2.543   5.151
 6473TIP3    H219361   3.846   2.632   5.056
 6474TIP3   OH219362   7.044   0.269   3.361
 6474TIP3    H119363   7.102   0.338   3.394
 6474TIP3    H219364   6.967   0.317   3.329
 6475TIP3   OH219365   4.386   7.821   4.671
 6475TIP3    H119366   4.455   7.755   4.671
 6475TIP3    H219367   4.367   7.838   4.579
 6476TIP3   OH219368   3.559   2.979   4.035
 6476TIP3    H119369   3.652   3.000   4.044
 6476TIP3    H219370   3.525   3.045   3.975
 6477TIP3   OH219371   4.220   5.501   0.242
 6477TIP3    H119372   4.142   5.530   0.290
 6477TIP3    H219373   4.209   5.538   0.154
 6478TIP3   OH219374   6.131   2.816   3.250
 6478TIP3    H119375   6.156   2.724   3.259
 6478TIP3    H219376   6.149   2.855   3.335
 6479TIP3   OH219377   7.689   0.216   1.570
 6479TIP3    H119378   7.620   0.150   1.571
 6479TIP3    H219379   7.766   0.171   1.604
 6480TIP3   OH219380   3.919   2.100   0.108
 6480TIP3    H119381   3.997   2.132   0.152
 6480TIP3    H219382   3.865   2.178   0.094
 6481TIP3   OH219383   2.107   2.920   2.747
 6481TIP3    H119384   2.032   2.947   2.694
 6481TIP3    H219385   2.158   2.864   2.688
 6482TIP3   OH219386   4.769   3.772   3.116
 6482TIP3    H119387   4.820   3.845   3.150
 6482TIP3    H219388   4.834   3.713   3.079
 6483TIP3   OH219389   6.170   3.047   3.753
 6483TIP3    H119390   6.249   3.073   3.801
 6483TIP3    H219391   6.099   3.062   3.815
 6484TIP3   OH219392   3.981   5.355   2.970
 6484TIP3    H119393   3.981   5.357   2.874
 6484TIP3    H219394   4.020   5.438   2.996
 6485TIP3   OH219395   1.068   7.420   6.738
 6485TIP3    H119396   1.128   7.490   6.766
 6485TIP3    H219397   1.104   7.390   6.655
 6486TIP3   OH219398   0.753   1.034   0.218
 6486TIP3    H119399   0.694   0.978   0.167
 6486TIP3    H219400   0.763   1.113   0.165
 6487TIP3   OH219401   1.955   5.400   1.332
 6487TIP3    H119402   1.950   5.471   1.396
 6487TIP3    H219403   2.037   5.415   1.286
 6488TIP3   OH219404   7.354   2.143   1.871
 6488TIP3    H119405   7.326   2.051   1.872
 6488TIP3    H219406   7.274   2.192   1.852
 6489TIP3   OH219407   6.619   3.096   2.042
 6489TIP3    H119408   6.542   3.084   2.098
 6489TIP3    H219409   6.692   3.102   2.104
 6490TIP3   OH219410   3.411   0.554   2.952
 6490TIP3    H119411   3.358   0.630   2.926
 6490TIP3    H219412   3.501   0.579   2.932
 6491TIP3   OH219413   3.354   5.898   0.423
 6491TIP3    H119414   3.386   5.964   0.362
 6491TIP3    H219415   3.426   5.885   0.485
 6492TIP3   OH219416   5.442   2.514   6.778
 6492TIP3    H119417   5.471   2.601   6.804
 6492TIP3    H219418   5.381   2.487   6.846
 6493TIP3   OH219419   0.282   5.309   1.379
 6493TIP3    H119420   0.325   5.342   1.458
 6493TIP3    H219421   0.300   5.375   1.312
 6494TIP3   OH219422   2.682   3.284   4.915
 6494TIP3    H119423   2.749   3.352   4.905
 6494TIP3    H219424   2.729   3.210   4.953
 6495TIP3   OH219425   2.514   4.420   0.861
 6495TIP3    H119426   2.585   4.388   0.917
 6495TIP3    H219427   2.529   4.514   0.853
 6496TIP3   OH219428   4.914   1.640   4.922
 6496TIP3    H119429   5.000   1.626   4.882
 6496TIP3    H219430   4.867   1.696   4.860
 6497TIP3   OH219431   7.183   6.697   0.172
 6497TIP3    H119432   7.258   6.639   0.184
 6497TIP3    H219433   7.121   6.645   0.120
 6498TIP3   OH219434   6.610   6.005   6.076
 6498TIP3    H119435   6.523   5.997   6.036
 6498TIP3    H219436   6.651   5.921   6.061
 6499TIP3   OH219437   3.989   1.483   0.310
 6499TIP3    H119438   4.035   1.407   0.273
 6499TIP3    H219439   3.929   1.511   0.240
 6500TIP3   OH219440   6.251   6.291   0.599
 6500TIP3    H119441   6.324   6.279   0.661
 6500TIP3    H219442   6.289   6.270   0.514
 6501TIP3   OH219443   8.190   6.189   0.775
 6501TIP3    H119444   8.209   6.146   0.858
 6501TIP3    H219445   8.115   6.245   0.795
 6502TIP3   OH219446   4.111   4.476   5.631
 6502TIP3    H119447   4.193   4.524   5.644
 6502TIP3    H219448   4.133   4.386   5.653
 6503TIP3   OH219449   2.221   5.958   1.668
 6503TIP3    H119450   2.265   6.020   1.609
 6503TIP3    H219451   2.291   5.900   1.697
 6504TIP3   OH219452   5.849   6.462   3.172
 6504TIP3    H119453   5.859   6.550   3.136
 6504TIP3    H219454   5.939   6.430   3.183
 6505TIP3   OH219455   7.046   5.716   3.602
 6505TIP3    H119456   7.108   5.768   3.551
 6505TIP3    H219457   6.991   5.781   3.646
 6506TIP3   OH219458   6.338   6.940   1.717
 6506TIP3    H119459   6.324   6.975   1.629
 6506TIP3    H219460   6.271   6.982   1.771
 6507TIP3   OH219461   1.362   4.913   2.716
 6507TIP3    H119462   1.278   4.926   2.672
 6507TIP3    H219463   1.368   4.985   2.779
 6508TIP3   OH219464   2.907   2.389   0.049
 6508TIP3    H119465   2.893   2.373  -0.044
 6508TIP3    H219466   2.822   2.376   0.090
 6509TIP3   OH219467   7.490   1.584   5.924
 6509TIP3    H119468   7.478   1.513   5.987
 6509TIP3    H219469   7.404   1.627   5.919
 6510TIP3   OH219470   2.008   0.548   6.474
 6510TIP3    H119471   2.047   0.592   6.399
 6510TIP3    H219472   1.914   0.566   6.466
 6511TIP3   OH219473   1.737   6.283   0.172
 6511TIP3    H119474   1.650   6.323   0.169
 6511TIP3    H219475   1.721   6.190   0.160
 6512TIP3   OH219476   0.194   1.936   5.378
 6512TIP3    H119477   0.221   1.901   5.293
 6512TIP3    H219478   0.216   1.866   5.440
 6513TIP3   OH219479   0.174   1.836   4.948
 6513TIP3    H119480   0.200   1.816   5.038
 6513TIP3    H219481   0.090   1.792   4.936
 6514TIP3   OH219482   0.778   7.317   0.304
 6514TIP3    H119483   0.814   7.247   0.359
 6514TIP3    H219484   0.788   7.396   0.357
 6515TIP3   OH219485   7.676   2.869   4.685
 6515TIP3    H119486   7.638   2.782   4.694
 6515TIP3    H219487   7.634   2.906   4.607
 6516TIP3   OH219488   5.184   4.832   1.143
 6516TIP3    H119489   5.270   4.861   1.172
 6516TIP3    H219490   5.167   4.882   1.063
 6517TIP3   OH219491   4.958   6.651   1.088
 6517TIP3    H119492   5.023   6.710   1.126
 6517TIP3    H219493   4.958   6.575   1.146
 6518TIP3   OH219494   8.334   0.735   0.942
 6518TIP3    H119495   8.251   0.746   0.896
 6518TIP3    H219496   8.336   0.805   1.006
 6519TIP3   OH219497   8.202   3.143   1.423
 6519TIP3    H119498   8.259   3.142   1.500
 6519TIP3    H219499   8.253   3.190   1.357
 6520TIP3   OH219500   5.617   3.486   6.701
 6520TIP3    H119501   5.522   3.478   6.705
 6520TIP3    H219502   5.649   3.395   6.703
 6521TIP3   OH219503   2.262   7.406   5.306
 6521TIP3    H119504   2.339   7.459   5.327
 6521TIP3    H219505   2.221   7.388   5.390
 6522TIP3   OH219506   5.827   6.265   6.344
 6522TIP3    H119507   5.893   6.322   6.382
 6522TIP3    H219508   5.837   6.275   6.250
 6523TIP3   OH219509   3.141   5.091   2.172
 6523TIP3    H119510   3.133   5.065   2.264
 6523TIP3    H219511   3.156   5.008   2.125
 6524TIP3   OH219512   2.024   0.230   3.117
 6524TIP3    H119513   2.038   0.214   3.210
 6524TIP3    H219514   2.092   0.179   3.073
 6525TIP3   OH219515   6.015   7.881   1.178
 6525TIP3    H119516   6.038   7.871   1.270
 6525TIP3    H219517   6.098   7.899   1.134
 6526TIP3   OH219518   6.419   6.107   6.864
 6526TIP3    H119519   6.475   6.181   6.889
 6526TIP3    H219520   6.413   6.112   6.769
 6527TIP3   OH219521   5.017   0.622   2.446
 6527TIP3    H119522   4.930   0.583   2.442
 6527TIP3    H219523   5.001   0.714   2.467
 6528TIP3   OH219524   6.657   7.685   1.157
 6528TIP3    H119525   6.589   7.622   1.182
 6528TIP3    H219526   6.640   7.704   1.065
 6529TIP3   OH219527   4.733   3.642   2.515
 6529TIP3    H119528   4.827   3.626   2.518
 6529TIP3    H219529   4.700   3.580   2.449
 6530TIP3   OH219530   0.371   7.273   3.299
 6530TIP3    H119531   0.466   7.263   3.302
 6530TIP3    H219532   0.357   7.357   3.255
 6531TIP3   OH219533   2.782   0.986   4.711
 6531TIP3    H119534   2.760   1.007   4.801
 6531TIP3    H219535   2.749   1.060   4.660
 6532TIP3   OH219536   6.221   0.357   6.781
 6532TIP3    H119537   6.313   0.383   6.774
 6532TIP3    H219538   6.205   0.349   6.875
 6533TIP3   OH219539   5.549   7.782   4.316
 6533TIP3    H119540   5.512   7.700   4.349
 6533TIP3    H219541   5.475   7.843   4.316
 6534TIP3   OH219542   3.669   1.129   5.904
 6534TIP3    H119543   3.677   1.213   5.949
 6534TIP3    H219544   3.720   1.139   5.824
 6535TIP3   OH219545   5.550   3.636   5.303
 6535TIP3    H119546   5.644   3.630   5.317
 6535TIP3    H219547   5.537   3.600   5.215
 6536TIP3   OH219548   0.665   6.474   3.661
 6536TIP3    H119549   0.695   6.560   3.691
 6536TIP3    H219550   0.612   6.493   3.583
 6537TIP3   OH219551   6.091   3.180   0.573
 6537TIP3    H119552   6.111   3.223   0.655
 6537TIP3    H219553   6.147   3.223   0.508
 6538TIP3   OH219554   2.424   2.658   0.677
 6538TIP3    H119555   2.343   2.706   0.698
 6538TIP3    H219556   2.458   2.701   0.599
 6539TIP3   OH219557   6.866   5.035   3.637
 6539TIP3    H119558   6.775   5.034   3.607
 6539TIP3    H219559   6.872   5.112   3.693
 6540TIP3   OH219560   6.671   1.467   5.011
 6540TIP3    H119561   6.714   1.441   5.092
 6540TIP3    H219562   6.687   1.395   4.950
 6541TIP3   OH219563   6.984   5.799   1.844
 6541TIP3    H119564   6.956   5.889   1.826
 6541TIP3    H219565   7.077   5.798   1.821
 6542TIP3   OH219566   4.920   5.202   4.548
 6542TIP3    H119567   5.013   5.203   4.567
 6542TIP3    H219568   4.887   5.284   4.583
 6543TIP3   OH219569   0.137   7.854   1.897
 6543TIP3    H119570   0.167   7.792   1.831
 6543TIP3    H219571   0.054   7.888   1.863
 6544TIP3   OH219572   5.515   4.497   4.479
 6544TIP3    H119573   5.435   4.539   4.511
 6544TIP3    H219574   5.577   4.506   4.551
 6545TIP3   OH219575   0.133   5.172   0.130
 6545TIP3    H119576   0.202   5.108   0.150
 6545TIP3    H219577   0.178   5.256   0.125
 6546TIP3   OH219578   1.739   5.111   4.789
 6546TIP3    H119579   1.674   5.052   4.752
 6546TIP3    H219580   1.715   5.197   4.755
 6547TIP3   OH219581   2.148   0.920   1.178
 6547TIP3    H119582   2.153   0.997   1.121
 6547TIP3    H219583   2.059   0.887   1.164
 6548TIP3   OH219584   8.349   7.787   3.784
 6548TIP3    H119585   8.356   7.702   3.742
 6548TIP3    H219586   8.435   7.827   3.773
 6549TIP3   OH219587   7.541   6.980   6.617
 6549TIP3    H119588   7.461   6.945   6.656
 6549TIP3    H219589   7.515   7.063   6.579
 6550TIP3   OH219590   7.302   6.194   3.216
 6550TIP3    H119591   7.325   6.157   3.131
 6550TIP3    H219592   7.254   6.274   3.195
 6551TIP3   OH219593   2.187   5.667   0.798
 6551TIP3    H119594   2.209   5.727   0.727
 6551TIP3    H219595   2.267   5.660   0.850
 6552TIP3   OH219596   6.158   0.304   3.500
 6552TIP3    H119597   6.065   0.304   3.477
 6552TIP3    H219598   6.193   0.229   3.453
 6553TIP3   OH219599   7.214   6.391   0.193
 6553TIP3    H119600   7.295   6.346   0.170
 6553TIP3    H219601   7.155   6.374   0.120
 6554TIP3   OH219602   7.873   3.051   5.752
 6554TIP3    H119603   7.944   3.049   5.688
 6554TIP3    H219604   7.831   2.966   5.744
 6555TIP3   OH219605   6.221   4.012   3.797
 6555TIP3    H119606   6.143   4.053   3.761
 6555TIP3    H219607   6.294   4.057   3.754
 6556TIP3   OH219608   4.969   0.013   3.223
 6556TIP3    H119609   4.962   0.041   3.314
 6556TIP3    H219610   5.039   0.066   3.187
 6557TIP3   OH219611   5.269   6.717   4.180
 6557TIP3    H119612   5.259   6.769   4.260
 6557TIP3    H219613   5.221   6.636   4.198
 6558TIP3   OH219614   0.057   1.072   0.061
 6558TIP3    H119615  -0.009   1.129   0.023
 6558TIP3    H219616   0.009   0.992   0.085
 6559TIP3   OH219617   1.138   2.392   0.981
 6559TIP3    H119618   1.158   2.478   1.018
 6559TIP3    H219619   1.223   2.360   0.949
 6560TIP3   OH219620   7.064   5.017   3.356
 6560TIP3    H119621   7.113   5.028   3.438
 6560TIP3    H219622   7.130   5.023   3.288
 6561TIP3   OH219623   6.980   2.055   5.487
 6561TIP3    H119624   7.006   1.964   5.498
 6561TIP3    H219625   6.923   2.073   5.562
 6562TIP3   OH219626   2.922   7.060   5.726
 6562TIP3    H119627   2.856   7.125   5.752
 6562TIP3    H219628   2.998   7.082   5.779
 6563TIP3   OH219629   3.626   3.459   1.473
 6563TIP3    H119630   3.584   3.394   1.417
 6563TIP3    H219631   3.584   3.448   1.559
 6564TIP3   OH219632   7.200   0.757   3.432
 6564TIP3    H119633   7.173   0.768   3.523
 6564TIP3    H219634   7.177   0.841   3.390
 6565TIP3   OH219635   4.007   3.899   0.074
 6565TIP3    H119636   4.007   3.933  -0.015
 6565TIP3    H219637   4.092   3.856   0.085
 6566TIP3   OH219638   7.006   4.574   3.933
 6566TIP3    H119639   7.003   4.604   4.024
 6566TIP3    H219640   7.099   4.558   3.916
 6567TIP3   OH219641   0.640   0.988   4.878
 6567TIP3    H119642   0.678   0.916   4.928
 6567TIP3    H219643   0.661   1.066   4.929
 6568TIP3   OH219644   1.971   1.312   0.247
 6568TIP3    H119645   2.042   1.338   0.189
 6568TIP3    H219646   1.901   1.376   0.230
 6569TIP3   OH219647   6.423   7.364   3.968
 6569TIP3    H119648   6.329   7.345   3.960
 6569TIP3    H219649   6.447   7.403   3.884
 6570TIP3   OH219650   8.315   0.370   4.709
 6570TIP3    H119651   8.258   0.413   4.645
 6570TIP3    H219652   8.258   0.354   4.784
 6571TIP3   OH219653   3.042   0.329   6.667
 6571TIP3    H119654   2.957   0.363   6.640
 6571TIP3    H219655   3.085   0.303   6.585
 6572TIP3   OH219656   7.540   3.358   0.771
 6572TIP3    H119657   7.467   3.331   0.715
 6572TIP3    H219658   7.584   3.428   0.721
 6573TIP3   OH219659   3.475   3.111   4.936
 6573TIP3    H119660   3.413   3.139   4.869
 6573TIP3    H219661   3.501   3.191   4.980
 6574TIP3   OH219662   3.438   3.764   0.570
 6574TIP3    H119663   3.354   3.717   0.569
 6574TIP3    H219664   3.493   3.715   0.630
 6575TIP3   OH219665   2.284   1.653   2.231
 6575TIP3    H119666   2.217   1.714   2.199
 6575TIP3    H219667   2.366   1.702   2.223
 6576TIP3   OH219668   4.878   3.579   3.395
 6576TIP3    H119669   4.865   3.517   3.323
 6576TIP3    H219670   4.789   3.605   3.420
 6577TIP3   OH219671   0.711   7.057   0.413
 6577TIP3    H119672   0.722   7.009   0.331
 6577TIP3    H219673   0.648   7.126   0.392
 6578TIP3   OH219674   3.907   2.711   3.603
 6578TIP3    H119675   3.835   2.684   3.659
 6578TIP3    H219676   3.943   2.629   3.569
 6579TIP3   OH219677   3.963   4.874   1.160
 6579TIP3    H119678   3.975   4.961   1.123
 6579TIP3    H219679   3.883   4.842   1.119
 6580TIP3   OH219680   4.688   0.857   3.821
 6580TIP3    H119681   4.777   0.841   3.854
 6580TIP3    H219682   4.631   0.812   3.883
 6581TIP3   OH219683   4.147   0.754   3.089
 6581TIP3    H119684   4.204   0.683   3.119
 6581TIP3    H219685   4.094   0.777   3.165
 6582TIP3   OH219686   1.616   0.854   5.816
 6582TIP3    H119687   1.639   0.763   5.794
 6582TIP3    H219688   1.566   0.885   5.740
 6583TIP3   OH219689   0.588   6.786   4.653
 6583TIP3    H119690   0.583   6.807   4.746
 6583TIP3    H219691   0.506   6.741   4.633
 6584TIP3   OH219692   7.407   1.938   4.684
 6584TIP3    H119693   7.480   1.958   4.625
 6584TIP3    H219694   7.448   1.937   4.771
 6585TIP3   OH219695   5.617   6.056   5.078
 6585TIP3    H119696   5.572   6.135   5.109
 6585TIP3    H219697   5.693   6.048   5.135
 6586TIP3   OH219698   8.126   6.807   4.840
 6586TIP3    H119699   8.192   6.856   4.791
 6586TIP3    H219700   8.096   6.869   4.907
 6587TIP3   OH219701   6.980   1.032   4.967
 6587TIP3    H119702   6.979   1.087   4.888
 6587TIP3    H219703   6.929   1.081   5.031
 6588TIP3   OH219704   0.606   1.260   1.605
 6588TIP3    H119705   0.566   1.339   1.641
 6588TIP3    H219706   0.615   1.202   1.680
 6589TIP3   OH219707   3.926   2.199   2.453
 6589TIP3    H119708   3.955   2.125   2.400
 6589TIP3    H219709   3.995   2.265   2.443
 6590TIP3   OH219710   2.270   1.469   6.289
 6590TIP3    H119711   2.211   1.471   6.365
 6590TIP3    H219712   2.307   1.557   6.285
 6591TIP3   OH219713   6.996   6.083   0.276
 6591TIP3    H119714   7.083   6.044   0.275
 6591TIP3    H219715   7.004   6.162   0.222
 6592TIP3   OH219716   1.620   2.149   4.565
 6592TIP3    H119717   1.705   2.193   4.572
 6592TIP3    H219718   1.629   2.091   4.489
 6593TIP3   OH219719   7.095   4.072   3.151
 6593TIP3    H119720   7.055   3.985   3.144
 6593TIP3    H219721   7.065   4.105   3.236
 6594TIP3   OH219722   7.950   0.094   4.646
 6594TIP3    H119723   7.896   0.173   4.637
 6594TIP3    H219724   7.891   0.022   4.626
 6595TIP3   OH219725   2.945   0.483   0.045
 6595TIP3    H119726   2.879   0.433  -0.002
 6595TIP3    H219727   2.949   0.442   0.132
 6596TIP3   OH219728   2.339   7.486   0.269
 6596TIP3    H119729   2.404   7.537   0.222
 6596TIP3    H219730   2.330   7.406   0.218
 6597TIP3   OH219731   3.688   2.830   4.507
 6597TIP3    H119732   3.758   2.778   4.548
 6597TIP3    H219733   3.697   2.813   4.414
 6598TIP3   OH219734   6.621   6.113   0.332
 6598TIP3    H119735   6.690   6.055   0.363
 6598TIP3    H219736   6.658   6.156   0.255
 6599TIP3   OH219737   4.217   5.790   3.335
 6599TIP3    H119738   4.256   5.873   3.308
 6599TIP3    H219739   4.129   5.814   3.365
 6600TIP3   OH219740   2.418   1.793   0.150
 6600TIP3    H119741   2.498   1.825   0.192
 6600TIP3    H219742   2.447   1.717   0.100
 6601TIP3   OH219743   4.005   4.654   0.229
 6601TIP3    H119744   4.074   4.621   0.285
 6601TIP3    H219745   3.928   4.602   0.253
 6602TIP3   OH219746   0.863   4.669   3.730
 6602TIP3    H119747   0.854   4.726   3.806
 6602TIP3    H219748   0.874   4.728   3.656
 6603TIP3   OH219749   6.374   6.765   5.407
 6603TIP3    H119750   6.452   6.776   5.462
 6603TIP3    H219751   6.368   6.846   5.356
 6604TIP3   OH219752   5.718   5.907   0.140
 6604TIP3    H119753   5.784   5.853   0.096
 6604TIP3    H219754   5.758   5.994   0.145
 6605TIP3   OH219755   1.788   1.960   2.175
 6605TIP3    H119756   1.784   1.979   2.081
 6605TIP3    H219757   1.860   2.014   2.207
 6606TIP3   OH219758   4.461   7.597   1.640
 6606TIP3    H119759   4.520   7.626   1.570
 6606TIP3    H219760   4.432   7.510   1.611
 6607TIP3   OH219761   5.514   6.883   2.551
 6607TIP3    H119762   5.494   6.967   2.509
 6607TIP3    H219763   5.448   6.873   2.619
 6608TIP3   OH219764   3.139   2.855   6.410
 6608TIP3    H119765   3.140   2.803   6.491
 6608TIP3    H219766   3.230   2.852   6.379
 6609TIP3   OH219767   2.431   6.838   1.871
 6609TIP3    H119768   2.337   6.834   1.891
 6609TIP3    H219769   2.451   6.752   1.834
 6610TIP3   OH219770   0.261   5.885   6.472
 6610TIP3    H119771   0.248   5.956   6.410
 6610TIP3    H219772   0.357   5.874   6.476
 6611TIP3   OH219773   3.859   6.189   5.406
 6611TIP3    H119774   3.868   6.249   5.332
 6611TIP3    H219775   3.775   6.212   5.444
 6612TIP3   OH219776   3.489   6.389   2.508
 6612TIP3    H119777   3.394   6.383   2.495
 6612TIP3    H219778   3.507   6.329   2.579
 6613TIP3   OH219779   5.901   1.202   5.892
 6613TIP3    H119780   5.905   1.250   5.975
 6613TIP3    H219781   5.820   1.151   5.897
 6614TIP3   OH219782   4.423   4.557   2.117
 6614TIP3    H119783   4.433   4.653   2.116
 6614TIP3    H219784   4.455   4.531   2.203
 6615TIP3   OH219785   7.388   6.226   6.725
 6615TIP3    H119786   7.406   6.312   6.688
 6615TIP3    H219787   7.451   6.217   6.797
 6616TIP3   OH219788   5.457   7.163   2.733
 6616TIP3    H119789   5.516   7.195   2.800
 6616TIP3    H219790   5.393   7.110   2.780
 6617TIP3   OH219791   5.365   6.903   1.911
 6617TIP3    H119792   5.452   6.944   1.911
 6617TIP3    H219793   5.372   6.834   1.844
 6618TIP3   OH219794   8.369   4.151   4.903
 6618TIP3    H119795   8.333   4.165   4.991
 6618TIP3    H219796   8.410   4.235   4.881
 6619TIP3   OH219797   7.863   6.637   0.324
 6619TIP3    H119798   7.955   6.651   0.343
 6619TIP3    H219799   7.818   6.710   0.367
 6620TIP3   OH219800   0.329   0.851   1.072
 6620TIP3    H119801   0.329   0.795   1.149
 6620TIP3    H219802   0.272   0.806   1.010
 6621TIP3   OH219803   1.085   7.863   1.381
 6621TIP3    H119804   1.161   7.806   1.367
 6621TIP3    H219805   1.026   7.844   1.308
 6622TIP3   OH219806   2.542   5.095   1.310
 6622TIP3    H119807   2.481   5.082   1.237
 6622TIP3    H219808   2.498   5.056   1.385
 6623TIP3   OH219809   3.488   6.429   0.832
 6623TIP3    H119810   3.580   6.455   0.840
 6623TIP3    H219811   3.474   6.418   0.738
 6624TIP3   OH219812   5.942   4.281   6.090
 6624TIP3    H119813   5.857   4.239   6.104
 6624TIP3    H219814   5.955   4.336   6.167
 6625TIP3   OH219815   2.724   1.501   2.650
 6625TIP3    H119816   2.750   1.590   2.672
 6625TIP3    H219817   2.672   1.511   2.569
 6626TIP3   OH219818   1.104   0.134   4.955
 6626TIP3    H119819   1.174   0.074   4.983
 6626TIP3    H219820   1.147   0.219   4.950
 6627TIP3   OH219821   8.184   4.445   3.014
 6627TIP3    H119822   8.147   4.369   2.968
 6627TIP3    H219823   8.121   4.463   3.084
 6628TIP3   OH219824   6.932   1.066   3.620
 6628TIP3    H119825   6.988   1.132   3.579
 6628TIP3    H219826   6.892   1.112   3.694
 6629TIP3   OH219827   0.449   3.034   2.173
 6629TIP3    H119828   0.470   2.970   2.105
 6629TIP3    H219829   0.524   3.029   2.234
 6630TIP3   OH219830   8.147   6.010   1.289
 6630TIP3    H119831   8.194   5.982   1.367
 6630TIP3    H219832   8.160   5.939   1.226
 6631TIP3   OH219833   6.475   6.975   4.897
 6631TIP3    H119834   6.524   7.056   4.903
 6631TIP3    H219835   6.489   6.931   4.981
 6632TIP3   OH219836   1.478   5.226   1.395
 6632TIP3    H119837   1.434   5.260   1.317
 6632TIP3    H219838   1.410   5.223   1.462
 6633TIP3   OH219839   1.021   3.353   6.128
 6633TIP3    H119840   1.105   3.380   6.167
 6633TIP3    H219841   0.968   3.325   6.201
 6634TIP3   OH219842   4.397   1.339   2.359
 6634TIP3    H119843   4.370   1.247   2.352
 6634TIP3    H219844   4.358   1.368   2.442
 6635TIP3   OH219845   3.454   4.885   4.717
 6635TIP3    H119846   3.394   4.873   4.791
 6635TIP3    H219847   3.447   4.978   4.695
 6636TIP3   OH219848   3.196   1.429   1.014
 6636TIP3    H119849   3.262   1.472   0.960
 6636TIP3    H219850   3.245   1.392   1.087
 6637TIP3   OH219851   4.753   2.480   1.395
 6637TIP3    H119852   4.753   2.429   1.314
 6637TIP3    H219853   4.661   2.499   1.412
 6638TIP3   OH219854   7.175   2.733   6.721
 6638TIP3    H119855   7.204   2.718   6.631
 6638TIP3    H219856   7.257   2.747   6.770
 6639TIP3   OH219857   6.708   4.969   5.755
 6639TIP3    H119858   6.731   4.882   5.722
 6639TIP3    H219859   6.791   5.018   5.754
 6640TIP3   OH219860   2.299   6.915   5.246
 6640TIP3    H119861   2.251   6.955   5.319
 6640TIP3    H219862   2.380   6.966   5.240
 6641TIP3   OH219863   0.812   1.518   2.762
 6641TIP3    H119864   0.852   1.596   2.723
 6641TIP3    H219865   0.736   1.500   2.706
 6642TIP3   OH219866   2.531   7.914   0.511
 6642TIP3    H119867   2.561   7.829   0.477
 6642TIP3    H219868   2.527   7.970   0.433
 6643TIP3   OH219869   4.466   1.816   0.267
 6643TIP3    H119870   4.489   1.875   0.339
 6643TIP3    H219871   4.426   1.740   0.309
 6644TIP3   OH219872   5.637   7.823   4.066
 6644TIP3    H119873   5.550   7.843   4.032
 6644TIP3    H219874   5.620   7.779   4.149
 6645TIP3   OH219875   1.079   4.740   2.693
 6645TIP3    H119876   1.070   4.738   2.788
 6645TIP3    H219877   1.066   4.832   2.670
 6646TIP3   OH219878   0.242   4.367   4.610
 6646TIP3    H119879   0.319   4.312   4.620
 6646TIP3    H219880   0.244   4.397   4.519
 6647TIP3   OH219881   1.557   1.996   0.987
 6647TIP3    H119882   1.597   2.073   1.028
 6647TIP3    H219883   1.463   2.011   0.997
 6648TIP3   OH219884   3.707   4.606   0.584
 6648TIP3    H119885   3.622   4.566   0.568
 6648TIP3    H219886   3.764   4.571   0.515
 6649TIP3   OH219887   0.726   4.807   5.028
 6649TIP3    H119888   0.716   4.870   4.957
 6649TIP3    H219889   0.731   4.722   4.984
 6650TIP3   OH219890   4.844   3.970   0.194
 6650TIP3    H119891   4.863   3.895   0.138
 6650TIP3    H219892   4.872   4.046   0.143
 6651TIP3   OH219893   2.522   2.698   6.492
 6651TIP3    H119894   2.478   2.669   6.572
 6651TIP3    H219895   2.537   2.792   6.505
 6652TIP3   OH219896   1.682   5.747   2.694
 6652TIP3    H119897   1.771   5.743   2.730
 6652TIP3    H219898   1.654   5.656   2.689
 6653TIP3   OH219899   0.195   5.512   5.920
 6653TIP3    H119900   0.155   5.483   5.838
 6653TIP3    H219901   0.173   5.605   5.925
 6654TIP3   OH219902   8.357   0.051   5.098
 6654TIP3    H119903   8.294   0.056   5.170
 6654TIP3    H219904   8.305   0.063   5.019
 6655TIP3   OH219905   0.529   4.331   0.176
 6655TIP3    H119906   0.451   4.279   0.200
 6655TIP3    H219907   0.572   4.349   0.260
 6656TIP3   OH219908   6.992   7.429   4.151
 6656TIP3    H119909   7.068   7.372   4.140
 6656TIP3    H219910   6.945   7.393   4.226
 6657TIP3   OH219911   5.629   1.612   1.246
 6657TIP3    H119912   5.549   1.595   1.197
 6657TIP3    H219913   5.664   1.693   1.208
 6658TIP3   OH219914   0.274   0.614   2.137
 6658TIP3    H119915   0.250   0.529   2.101
 6658TIP3    H219916   0.221   0.623   2.216
 6659TIP3   OH219917   0.332   7.157   1.042
 6659TIP3    H119918   0.401   7.222   1.052
 6659TIP3    H219919   0.378   7.074   1.033
 6660TIP3   OH219920   5.479   0.705   2.375
 6660TIP3    H119921   5.568   0.740   2.374
 6660TIP3    H219922   5.438   0.748   2.450
 6661TIP3   OH219923   1.947   3.042   0.451
 6661TIP3    H119924   1.903   3.092   0.520
 6661TIP3    H219925   1.941   3.099   0.374
 6662TIP3   OH219926   3.005   6.682   0.599
 6662TIP3    H119927   2.923   6.706   0.556
 6662TIP3    H219928   2.979   6.616   0.663
 6663TIP3   OH219929   0.591   6.764   3.600
 6663TIP3    H119930   0.518   6.798   3.549
 6663TIP3    H219931   0.553   6.742   3.685
 6664TIP3   OH219932   5.253   2.294   4.558
 6664TIP3    H119933   5.197   2.218   4.540
 6664TIP3    H219934   5.342   2.259   4.556
 6665TIP3   OH219935   2.348   3.830   1.853
 6665TIP3    H119936   2.252   3.834   1.850
 6665TIP3    H219937   2.375   3.921   1.862
 6666TIP3   OH219938   7.864   1.401   2.495
 6666TIP3    H119939   7.881   1.457   2.571
 6666TIP3    H219940   7.928   1.331   2.503
 6667TIP3   OH219941   3.067   5.812   4.257
 6667TIP3    H119942   3.095   5.781   4.171
 6667TIP3    H219943   3.005   5.883   4.238
 6668TIP3   OH219944   7.592   3.364   0.102
 6668TIP3    H119945   7.658   3.366   0.171
 6668TIP3    H219946   7.580   3.271   0.083
 6669TIP3   OH219947   2.719   5.361   3.450
 6669TIP3    H119948   2.788   5.313   3.403
 6669TIP3    H219949   2.715   5.446   3.406
 6670TIP3   OH219950   7.567   3.303   1.148
 6670TIP3    H119951   7.493   3.358   1.121
 6670TIP3    H219952   7.538   3.214   1.131
 6671TIP3   OH219953   1.239   4.643   5.508
 6671TIP3    H119954   1.169   4.630   5.444
 6671TIP3    H219955   1.319   4.622   5.461
 6672TIP3   OH219956   0.352   3.031   0.650
 6672TIP3    H119957   0.358   2.956   0.592
 6672TIP3    H219958   0.304   2.999   0.726
 6673TIP3   OH219959   2.388   5.537   3.316
 6673TIP3    H119960   2.462   5.487   3.283
 6673TIP3    H219961   2.393   5.621   3.270
 6674TIP3   OH219962   4.253   6.356   5.594
 6674TIP3    H119963   4.185   6.419   5.573
 6674TIP3    H219964   4.248   6.292   5.523
 6675TIP3   OH219965   4.934   1.620   2.626
 6675TIP3    H119966   4.869   1.670   2.576
 6675TIP3    H219967   5.008   1.610   2.565
 6676TIP3   OH219968   7.453   0.699   4.920
 6676TIP3    H119969   7.509   0.631   4.883
 6676TIP3    H219970   7.504   0.780   4.911
 6677TIP3   OH219971   4.604   7.317   1.097
 6677TIP3    H119972   4.558   7.378   1.040
 6677TIP3    H219973   4.542   7.296   1.166
 6678TIP3   OH219974   4.462   0.585   2.253
 6678TIP3    H119975   4.413   0.629   2.323
 6678TIP3    H219976   4.400   0.581   2.180
 6679TIP3   OH219977   5.160   6.061   4.950
 6679TIP3    H119978   5.204   6.129   4.899
 6679TIP3    H219979   5.095   6.024   4.890
 6680TIP3   OH219980   2.910   7.326   2.574
 6680TIP3    H119981   2.847   7.254   2.578
 6680TIP3    H219982   2.856   7.404   2.560
 6681TIP3   OH219983   5.654   1.616   2.292
 6681TIP3    H119984   5.674   1.523   2.279
 6681TIP3    H219985   5.715   1.643   2.362
 6682TIP3   OH219986   4.021   5.670   2.925
 6682TIP3    H119987   3.956   5.653   2.857
 6682TIP3    H219988   3.969   5.693   3.002
 6683TIP3   OH219989   7.168   4.093   5.963
 6683TIP3    H119990   7.177   4.011   6.011
 6683TIP3    H219991   7.122   4.070   5.882
 6684TIP3   OH219992   7.592   4.606   6.574
 6684TIP3    H119993   7.553   4.548   6.640
 6684TIP3    H219994   7.543   4.688   6.583
 6685TIP3   OH219995   2.485   3.169   1.753
 6685TIP3    H119996   2.448   3.256   1.739
 6685TIP3    H219997   2.522   3.144   1.668
 6686TIP3   OH219998   2.071   0.114   0.356
 6686TIP3    H119999   2.149   0.169   0.361
 6686TIP3    H220000   2.044   0.118   0.264
 6687TIP3   OH220001   0.810   0.095   2.911
 6687TIP3    H120002   0.739   0.032   2.923
 6687TIP3    H220003   0.765   0.177   2.888
 6688TIP3   OH220004   4.645   2.912   0.127
 6688TIP3    H120005   4.621   2.963   0.204
 6688TIP3    H220006   4.563   2.899   0.079
 6689TIP3   OH220007   6.353   5.236   2.380
 6689TIP3    H120008   6.283   5.252   2.316
 6689TIP3    H220009   6.388   5.150   2.356
 6690TIP3   OH220010   3.851   7.760   1.323
 6690TIP3    H120011   3.858   7.842   1.274
 6690TIP3    H220012   3.769   7.767   1.372
 6691TIP3   OH220013   6.092   3.730   6.160
 6691TIP3    H120014   6.101   3.700   6.070
 6691TIP3    H220015   6.023   3.797   6.157
 6692TIP3   OH220016   3.720   6.366   6.002
 6692TIP3    H120017   3.753   6.276   6.008
 6692TIP3    H220018   3.693   6.376   5.911
 6693TIP3   OH220019   2.977   5.830   5.721
 6693TIP3    H120020   3.061   5.796   5.752
 6693TIP3    H220021   2.960   5.907   5.776
 6694TIP3   OH220022   3.102   1.951   3.100
 6694TIP3    H120023   3.049   1.985   3.028
 6694TIP3    H220024   3.177   1.910   3.057
 6695TIP3   OH220025   4.628   4.324   3.618
 6695TIP3    H120026   4.621   4.328   3.713
 6695TIP3    H220027   4.609   4.233   3.596
 6696TIP3   OH220028   8.307   4.780   1.651
 6696TIP3    H120029   8.388   4.825   1.625
 6696TIP3    H220030   8.299   4.799   1.745
 6697TIP3   OH220031   1.773   7.752   1.639
 6697TIP3    H120032   1.751   7.659   1.633
 6697TIP3    H220033   1.869   7.755   1.631
 6698TIP3   OH220034   3.667   1.705   6.656
 6698TIP3    H120035   3.702   1.656   6.581
 6698TIP3    H220036   3.694   1.655   6.732
 6699TIP3   OH220037   8.422   1.602   3.287
 6699TIP3    H120038   8.411   1.663   3.215
 6699TIP3    H220039   8.370   1.525   3.261
 6700TIP3   OH220040   7.769   7.292   4.382
 6700TIP3    H120041   7.731   7.336   4.306
 6700TIP3    H220042   7.859   7.326   4.386
 6701TIP3   OH220043   1.786   2.468  -0.007
 6701TIP3    H120044   1.743   2.396   0.040
 6701TIP3    H220045   1.728   2.486  -0.081
 6702TIP3   OH220046   1.886   2.938   3.106
 6702TIP3    H120047   1.903   2.996   3.032
 6702TIP3    H220048   1.946   2.968   3.174
 6703TIP3   OH220049   6.592   0.695   3.192
 6703TIP3    H120050   6.510   0.645   3.200
 6703TIP3    H220051   6.643   0.647   3.128
 6704TIP3   OH220052   1.267   7.688   3.608
 6704TIP3    H120053   1.250   7.755   3.675
 6704TIP3    H220054   1.285   7.608   3.659
 6705TIP3   OH220055   8.111   5.281   1.358
 6705TIP3    H120056   8.091   5.292   1.265
 6705TIP3    H220057   8.201   5.310   1.367
 6706TIP3   OH220058   5.733   3.442   6.435
 6706TIP3    H120059   5.668   3.377   6.411
 6706TIP3    H220060   5.703   3.477   6.519
 6707TIP3   OH220061   5.444   2.592   5.583
 6707TIP3    H120062   5.456   2.681   5.617
 6707TIP3    H220063   5.533   2.558   5.573
 6708TIP3   OH220064   6.494   4.265   1.138
 6708TIP3    H120065   6.584   4.260   1.106
 6708TIP3    H220066   6.503   4.276   1.233
 6709TIP3   OH220067   5.895   2.268   3.690
 6709TIP3    H120068   5.856   2.281   3.604
 6709TIP3    H220069   5.961   2.336   3.697
 6710TIP3   OH220070   7.609   2.343   0.735
 6710TIP3    H120071   7.657   2.302   0.807
 6710TIP3    H220072   7.584   2.429   0.769
 6711TIP3   OH220073   7.261   3.772   0.085
 6711TIP3    H120074   7.352   3.743   0.088
 6711TIP3    H220075   7.211   3.692   0.067
 6712TIP3   OH220076   3.861   5.699   3.152
 6712TIP3    H120077   3.788   5.760   3.142
 6712TIP3    H220078   3.854   5.669   3.242
 6713TIP3   OH220079   3.027   0.467   1.765
 6713TIP3    H120080   2.995   0.459   1.855
 6713TIP3    H220081   2.998   0.554   1.737
 6714TIP3   OH220082   5.768   0.460   5.866
 6714TIP3    H120083   5.747   0.372   5.897
 6714TIP3    H220084   5.779   0.512   5.946
 6715TIP3   OH220085   3.299   6.863   3.573
 6715TIP3    H120086   3.216   6.856   3.621
 6715TIP3    H220087   3.299   6.953   3.540
 6716TIP3   OH220088   0.450   6.657   3.187
 6716TIP3    H120089   0.373   6.700   3.151
 6716TIP3    H220090   0.432   6.649   3.281
 6717TIP3   OH220091   3.215   4.988   5.085
 6717TIP3    H120092   3.239   5.031   5.167
 6717TIP3    H220093   3.135   4.940   5.105
 6718TIP3   OH220094   5.564   6.888   3.393
 6718TIP3    H120095   5.656   6.890   3.368
 6718TIP3    H220096   5.562   6.921   3.482
 6719TIP3   OH220097   1.809   2.510   1.658
 6719TIP3    H120098   1.759   2.591   1.651
 6719TIP3    H220099   1.830   2.486   1.568
 6720TIP3   OH220100   6.845   4.908   6.585
 6720TIP3    H120101   6.767   4.928   6.533
 6720TIP3    H220102   6.817   4.837   6.643
 6721TIP3   OH220103   2.543   3.789   2.905
 6721TIP3    H120104   2.589   3.827   2.830
 6721TIP3    H220105   2.580   3.702   2.915
 6722TIP3   OH220106   4.658   3.688   1.966
 6722TIP3    H120107   4.639   3.737   2.047
 6722TIP3    H220108   4.611   3.736   1.898
 6723TIP3   OH220109   8.026   7.219   4.672
 6723TIP3    H120110   7.949   7.186   4.625
 6723TIP3    H220111   7.989   7.263   4.749
 6724TIP3   OH220112   1.117   2.443   1.409
 6724TIP3    H120113   1.151   2.530   1.428
 6724TIP3    H220114   1.073   2.452   1.324
 6725TIP3   OH220115   1.253   1.123   2.338
 6725TIP3    H120116   1.262   1.032   2.367
 6725TIP3    H220117   1.314   1.130   2.265
 6726TIP3   OH220118   3.917   1.353   3.016
 6726TIP3    H120119   3.981   1.402   3.069
 6726TIP3    H220120   3.941   1.261   3.030
 6727TIP3   OH220121   4.724   2.383   3.019
 6727TIP3    H120122   4.696   2.442   2.949
 6727TIP3    H220123   4.689   2.422   3.099
 6728TIP3   OH220124   1.362   7.367   6.100
 6728TIP3    H120125   1.351   7.313   6.178
 6728TIP3    H220126   1.353   7.305   6.027
 6729TIP3   OH220127   4.672   6.665   1.390
 6729TIP3    H120128   4.623   6.589   1.360
 6729TIP3    H220129   4.731   6.631   1.457
 6730TIP3   OH220130   7.638   6.317   1.020
 6730TIP3    H120131   7.565   6.261   1.045
 6730TIP3    H220132   7.702   6.258   0.980
 6731TIP3   OH220133   3.477   3.895   5.391
 6731TIP3    H120134   3.572   3.895   5.382
 6731TIP3    H220135   3.447   3.827   5.330
 6732TIP3   OH220136   7.010   7.541   5.251
 6732TIP3    H120137   6.990   7.594   5.329
 6732TIP3    H220138   6.926   7.502   5.227
 6733TIP3   OH220139   6.821   5.640   1.693
 6733TIP3    H120140   6.758   5.608   1.757
 6733TIP3    H220141   6.893   5.676   1.745
 6734TIP3   OH220142   6.277   1.438   5.049
 6734TIP3    H120143   6.261   1.523   5.089
 6734TIP3    H220144   6.347   1.454   4.985
 6735TIP3   OH220145   4.381   5.960   1.916
 6735TIP3    H120146   4.463   6.001   1.889
 6735TIP3    H220147   4.408   5.884   1.968
 6736TIP3   OH220148   3.677   1.409   3.761
 6736TIP3    H120149   3.721   1.434   3.842
 6736TIP3    H220150   3.589   1.383   3.788
 6737TIP3   OH220151   2.804   5.016   1.785
 6737TIP3    H120152   2.765   5.052   1.705
 6737TIP3    H220153   2.753   4.937   1.803
 6738TIP3   OH220154   6.723   2.091   4.805
 6738TIP3    H120155   6.806   2.083   4.759
 6738TIP3    H220156   6.660   2.118   4.738
 6739TIP3   OH220157   4.075   0.069   1.681
 6739TIP3    H120158   4.014  -0.005   1.683
 6739TIP3    H220159   4.160   0.029   1.700
 6740TIP3   OH220160   5.728   3.413   3.042
 6740TIP3    H120161   5.695   3.329   3.074
 6740TIP3    H220162   5.656   3.474   3.056
 6741TIP3   OH220163   3.913   2.698   2.487
 6741TIP3    H120164   3.841   2.680   2.427
 6741TIP3    H220165   3.896   2.643   2.564
 6742TIP3   OH220166   7.435   3.081   4.896
 6742TIP3    H120167   7.357   3.085   4.841
 6742TIP3    H220168   7.464   2.990   4.888
 6743TIP3   OH220169   5.375   5.707   6.356
 6743TIP3    H120170   5.291   5.754   6.357
 6743TIP3    H220171   5.359   5.630   6.302
 6744TIP3   OH220172   0.194   6.076   6.720
 6744TIP3    H120173   0.171   6.037   6.805
 6744TIP3    H220174   0.215   6.001   6.665
 6745TIP3   OH220175   5.748   0.608   5.621
 6745TIP3    H120176   5.702   0.680   5.665
 6745TIP3    H220177   5.765   0.545   5.691
 6746TIP3   OH220178   7.638   2.901   1.549
 6746TIP3    H120179   7.630   2.928   1.640
 6746TIP3    H220180   7.603   2.975   1.499
 6747TIP3   OH220181   7.261   3.478   4.304
 6747TIP3    H120182   7.330   3.412   4.314
 6747TIP3    H220183   7.260   3.498   4.210
 6748TIP3   OH220184   6.195   5.120   0.946
 6748TIP3    H120185   6.119   5.093   0.894
 6748TIP3    H220186   6.170   5.205   0.983
 6749TIP3   OH220187   7.052   3.303   1.800
 6749TIP3    H120188   7.049   3.382   1.854
 6749TIP3    H220189   7.127   3.253   1.835
 6750TIP3   OH220190   6.551   4.580   5.369
 6750TIP3    H120191   6.571   4.513   5.303
 6750TIP3    H220192   6.635   4.624   5.384
 6751TIP3   OH220193   4.182   6.593   1.166
 6751TIP3    H120194   4.178   6.510   1.214
 6751TIP3    H220195   4.136   6.655   1.222
 6752TIP3   OH220196   1.590   6.403   5.729
 6752TIP3    H120197   1.601   6.350   5.808
 6752TIP3    H220198   1.576   6.492   5.762
 6753TIP3   OH220199   4.976   7.179   3.396
 6753TIP3    H120200   4.963   7.261   3.349
 6753TIP3    H220201   5.044   7.134   3.346
 6754TIP3   OH220202   4.938   3.715   3.789
 6754TIP3    H120203   4.930   3.794   3.843
 6754TIP3    H220204   4.988   3.654   3.843
 6755TIP3   OH220205   1.904   6.176   6.799
 6755TIP3    H120206   1.872   6.222   6.721
 6755TIP3    H220207   1.931   6.246   6.858
 6756TIP3   OH220208   5.071   0.631   0.062
 6756TIP3    H120209   5.059   0.536   0.051
 6756TIP3    H220210   5.160   0.647   0.031
 6757TIP3   OH220211   7.642   5.482   3.105
 6757TIP3    H120212   7.652   5.488   3.010
 6757TIP3    H220213   7.687   5.560   3.139
 6758TIP3   OH220214   4.172   7.358   2.175
 6758TIP3    H120215   4.094   7.413   2.162
 6758TIP3    H220216   4.137   7.270   2.188
 6759TIP3   OH220217   0.801   2.138   5.471
 6759TIP3    H120218   0.880   2.105   5.515
 6759TIP3    H220219   0.775   2.067   5.413
 6760TIP3   OH220220   1.827   0.991   1.337
 6760TIP3    H120221   1.859   1.076   1.307
 6760TIP3    H220222   1.733   1.003   1.347
 6761TIP3   OH220223   3.363   7.606   0.269
 6761TIP3    H120224   3.298   7.568   0.209
 6761TIP3    H220225   3.315   7.671   0.319
 6762TIP3   OH220226   5.744   4.726   5.214
 6762TIP3    H120227   5.824   4.718   5.161
 6762TIP3    H220228   5.758   4.805   5.266
 6763TIP3   OH220229   0.108   6.391   4.730
 6763TIP3    H120230   0.154   6.436   4.801
 6763TIP3    H220231   0.160   6.313   4.713
 6764TIP3   OH220232   4.046   4.627   4.704
 6764TIP3    H120233   3.994   4.548   4.690
 6764TIP3    H220234   4.100   4.608   4.780
 6765TIP3   OH220235   2.910   7.644   6.533
 6765TIP3    H120236   2.817   7.648   6.553
 6765TIP3    H220237   2.921   7.700   6.457
 6766TIP3   OH220238   0.158   4.484   2.496
 6766TIP3    H120239   0.069   4.467   2.528
 6766TIP3    H220240   0.151   4.474   2.401
 6767TIP3   OH220241   6.558   2.600   4.693
 6767TIP3    H120242   6.463   2.601   4.702
 6767TIP3    H220243   6.588   2.536   4.757
 6768TIP3   OH220244   6.404   3.126   1.845
 6768TIP3    H120245   6.468   3.127   1.916
 6768TIP3    H220246   6.375   3.035   1.840
 6769TIP3   OH220247   2.004   3.028   6.788
 6769TIP3    H120248   1.995   3.059   6.698
 6769TIP3    H220249   1.989   2.934   6.783
 6770TIP3   OH220250   2.570   7.065   5.918
 6770TIP3    H120251   2.580   7.016   6.000
 6770TIP3    H220252   2.507   7.134   5.940
 6771TIP3   OH220253   3.828   6.547   1.225
 6771TIP3    H120254   3.747   6.597   1.215
 6771TIP3    H220255   3.875   6.593   1.295
 6772TIP3   OH220256   2.113   1.460   3.972
 6772TIP3    H120257   2.047   1.525   3.950
 6772TIP3    H220258   2.145   1.429   3.887
 6773TIP3   OH220259   0.129   4.061   2.751
 6773TIP3    H120260   0.133   4.007   2.829
 6773TIP3    H220261   0.182   4.015   2.687
 6774TIP3   OH220262   6.691   7.917   5.278
 6774TIP3    H120263   6.669   7.828   5.306
 6774TIP3    H220264   6.764   7.906   5.217
 6775TIP3   OH220265   2.439   6.265   3.449
 6775TIP3    H120266   2.514   6.215   3.417
 6775TIP3    H220267   2.438   6.343   3.393
 6776TIP3   OH220268   1.446   0.750   4.241
 6776TIP3    H120269   1.445   0.668   4.193
 6776TIP3    H220270   1.519   0.799   4.203
 6777TIP3   OH220271   2.232   0.241   5.547
 6777TIP3    H120272   2.238   0.266   5.640
 6777TIP3    H220273   2.295   0.297   5.503
 6778TIP3   OH220274   1.461   5.102   4.696
 6778TIP3    H120275   1.466   5.093   4.791
 6778TIP3    H220276   1.482   5.015   4.662
 6779TIP3   OH220277   6.489   0.171   0.118
 6779TIP3    H120278   6.579   0.200   0.103
 6779TIP3    H220279   6.436   0.235   0.071
 6780TIP3   OH220280   0.079   6.454   6.217
 6780TIP3    H120281  -0.014   6.437   6.235
 6780TIP3    H220282   0.079   6.528   6.158
 6781TIP3   OH220283   5.790   6.935   4.708
 6781TIP3    H120284   5.819   6.847   4.732
 6781TIP3    H220285   5.711   6.949   4.761
 6782TIP3   OH220286   0.795   0.351   0.461
 6782TIP3    H120287   0.766   0.432   0.419
 6782TIP3    H220288   0.735   0.284   0.427
 6783TIP3   OH220289   1.854   0.708   0.552
 6783TIP3    H120290   1.881   0.751   0.471
 6783TIP3    H220291   1.915   0.635   0.563
 6784TIP3   OH220292   5.080   2.190   4.284
 6784TIP3    H120293   5.153   2.163   4.228
 6784TIP3    H220294   5.086   2.133   4.360
 6785TIP3   OH220295   2.976   2.497   0.442
 6785TIP3    H120296   2.926   2.451   0.510
 6785TIP3    H220297   3.022   2.427   0.395
 6786TIP3   OH220298   6.909   4.278   5.526
 6786TIP3    H120299   6.910   4.294   5.432
 6786TIP3    H220300   6.948   4.358   5.564
 6787TIP3   OH220301   7.055   0.556   0.109
 6787TIP3    H120302   7.149   0.554   0.092
 6787TIP3    H220303   7.047   0.591   0.197
 6788TIP3   OH220304   3.683   5.928   5.871
 6788TIP3    H120305   3.714   5.963   5.787
 6788TIP3    H220306   3.731   5.977   5.937
 6789TIP3   OH220307   5.688   5.762   5.844
 6789TIP3    H120308   5.754   5.694   5.853
 6789TIP3    H220309   5.614   5.731   5.896
 6790TIP3   OH220310   1.263   1.591   5.059
 6790TIP3    H120311   1.304   1.505   5.063
 6790TIP3    H220312   1.331   1.651   5.089
 6791TIP3   OH220313   7.611   7.128   4.564
 6791TIP3    H120314   7.650   7.196   4.510
 6791TIP3    H220315   7.666   7.051   4.549
 6792TIP3   OH220316   2.765   1.072   5.563
 6792TIP3    H120317   2.686   1.068   5.509
 6792TIP3    H220318   2.742   1.135   5.632
 6793TIP3   OH220319   4.771   4.942   6.698
 6793TIP3    H120320   4.778   4.894   6.616
 6793TIP3    H220321   4.831   4.898   6.757
 6794TIP3   OH220322   1.381   3.369   0.810
 6794TIP3    H120323   1.345   3.307   0.747
 6794TIP3    H220324   1.474   3.348   0.814
 6795TIP3   OH220325   7.159   1.274   5.686
 6795TIP3    H120326   7.134   1.343   5.624
 6795TIP3    H220327   7.146   1.314   5.772
 6796TIP3   OH220328   6.543   1.447   6.058
 6796TIP3    H120329   6.606   1.416   6.123
 6796TIP3    H220330   6.476   1.493   6.109
 6797TIP3   OH220331   5.541   3.167   4.875
 6797TIP3    H120332   5.460   3.210   4.847
 6797TIP3    H220333   5.522   3.132   4.962
 6798TIP3   OH220334   5.242   6.227   2.775
 6798TIP3    H120335   5.316   6.274   2.813
 6798TIP3    H220336   5.278   6.143   2.746
 6799TIP3   OH220337   0.769   0.744   3.793
 6799TIP3    H120338   0.838   0.688   3.828
 6799TIP3    H220339   0.763   0.817   3.855
 6800TIP3   OH220340   2.406   3.081   4.714
 6800TIP3    H120341   2.377   2.990   4.726
 6800TIP3    H220342   2.338   3.134   4.756
 6801TIP3   OH220343   6.989   3.699   3.533
 6801TIP3    H120344   6.959   3.634   3.597
 6801TIP3    H220345   7.054   3.653   3.481
 6802TIP3   OH220346   0.633   5.581   4.051
 6802TIP3    H120347   0.700   5.597   3.984
 6802TIP3    H220348   0.557   5.549   4.003
 6803TIP3   OH220349   3.679   4.706   5.976
 6803TIP3    H120350   3.734   4.694   6.053
 6803TIP3    H220351   3.600   4.656   5.993
 6804TIP3   OH220352   6.181   6.875   6.833
 6804TIP3    H120353   6.275   6.862   6.824
 6804TIP3    H220354   6.158   6.934   6.761
 6805TIP3   OH220355   4.922   5.211   0.552
 6805TIP3    H120356   4.986   5.140   0.547
 6805TIP3    H220357   4.858   5.181   0.616
 6806TIP3   OH220358   7.195   3.214   5.340
 6806TIP3    H120359   7.155   3.129   5.362
 6806TIP3    H220360   7.136   3.279   5.377
 6807TIP3   OH220361   6.187   1.703   5.125
 6807TIP3    H120362   6.120   1.725   5.060
 6807TIP3    H220363   6.265   1.750   5.095
 6808TIP3   OH220364   1.623   4.967   5.752
 6808TIP3    H120365   1.696   4.927   5.703
 6808TIP3    H220366   1.666   5.014   5.824
 6809TIP3   OH220367   1.982   0.975   5.150
 6809TIP3    H120368   1.938   0.892   5.131
 6809TIP3    H220369   2.023   0.961   5.235
 6810TIP3   OH220370   0.058   3.776   4.179
 6810TIP3    H120371   0.060   3.767   4.275
 6810TIP3    H220372  -0.018   3.724   4.152
 6811TIP3   OH220373   3.277   5.444   4.498
 6811TIP3    H120374   3.247   5.355   4.475
 6811TIP3    H220375   3.298   5.439   4.591
 6812TIP3   OH220376   1.004   1.628   5.486
 6812TIP3    H120377   1.065   1.567   5.528
 6812TIP3    H220378   1.035   1.715   5.512
 6813TIP3   OH220379   8.184   6.248   4.747
 6813TIP3    H120380   8.265   6.271   4.792
 6813TIP3    H220381   8.212   6.201   4.668
 6814TIP3   OH220382   6.179   1.375   0.979
 6814TIP3    H120383   6.265   1.391   1.017
 6814TIP3    H220384   6.177   1.281   0.962
 6815TIP3   OH220385   6.450   6.695   1.748
 6815TIP3    H120386   6.386   6.624   1.744
 6815TIP3    H220387   6.401   6.772   1.721
 6816TIP3   OH220388   8.288   4.791   1.922
 6816TIP3    H120389   8.225   4.719   1.924
 6816TIP3    H220390   8.347   4.773   1.995
 6817TIP3   OH220391   7.808   2.397   2.091
 6817TIP3    H120392   7.859   2.332   2.043
 6817TIP3    H220393   7.729   2.410   2.038
 6818TIP3   OH220394   3.876   3.982   5.552
 6818TIP3    H120395   3.959   3.962   5.508
 6818TIP3    H220396   3.810   3.973   5.484
 6819TIP3   OH220397   3.416   0.948   5.418
 6819TIP3    H120398   3.452   1.026   5.461
 6819TIP3    H220399   3.360   0.907   5.485
 6820TIP3   OH220400   4.796   3.571   4.084
 6820TIP3    H120401   4.784   3.555   4.178
 6820TIP3    H220402   4.711   3.603   4.054
 6821TIP3   OH220403   1.769   1.959   5.190
 6821TIP3    H120404   1.775   1.926   5.100
 6821TIP3    H220405   1.795   2.051   5.183
 6822TIP3   OH220406   4.563   3.797   5.331
 6822TIP3    H120407   4.626   3.796   5.403
 6822TIP3    H220408   4.494   3.857   5.360
 6823TIP3   OH220409   7.417   6.215   1.169
 6823TIP3    H120410   7.485   6.251   1.226
 6823TIP3    H220411   7.336   6.259   1.197
 6824TIP3   OH220412   0.166   5.377   2.904
 6824TIP3    H120413   0.186   5.284   2.917
 6824TIP3    H220414   0.070   5.381   2.907
 6825TIP3   OH220415   2.538   5.897   2.921
 6825TIP3    H120416   2.511   5.983   2.954
 6825TIP3    H220417   2.458   5.856   2.890
 6826TIP3   OH220418   1.246   5.376   2.653
 6826TIP3    H120419   1.150   5.379   2.655
 6826TIP3    H220420   1.269   5.371   2.561
 6827TIP3   OH220421   4.759   2.633   4.657
 6827TIP3    H120422   4.831   2.625   4.595
 6827TIP3    H220423   4.784   2.704   4.715
 6828TIP3   OH220424   1.569   4.865   4.608
 6828TIP3    H120425   1.601   4.832   4.523
 6828TIP3    H220426   1.527   4.789   4.648
 6829TIP3   OH220427   1.083   3.364   2.743
 6829TIP3    H120428   0.992   3.378   2.767
 6829TIP3    H220429   1.131   3.433   2.790
 6830TIP3   OH220430   4.156   1.294   0.189
 6830TIP3    H120431   4.203   1.222   0.146
 6830TIP3    H220432   4.204   1.372   0.164
 6831TIP3   OH220433   4.181   3.324   3.635
 6831TIP3    H120434   4.166   3.292   3.546
 6831TIP3    H220435   4.125   3.269   3.690
 6832TIP3   OH220436   1.251   1.378   2.437
 6832TIP3    H120437   1.236   1.292   2.398
 6832TIP3    H220438   1.188   1.383   2.509
 6833TIP3   OH220439   4.975   0.143   2.481
 6833TIP3    H120440   5.046   0.181   2.428
 6833TIP3    H220441   4.993   0.049   2.481
 6834TIP3   OH220442   6.628   0.443   4.693
 6834TIP3    H120443   6.633   0.514   4.758
 6834TIP3    H220444   6.565   0.381   4.730
 6835TIP3   OH220445   3.317   7.716   1.477
 6835TIP3    H120446   3.225   7.742   1.472
 6835TIP3    H220447   3.365   7.799   1.470
 6836TIP3   OH220448   7.879   3.887   5.370
 6836TIP3    H120449   7.929   3.890   5.288
 6836TIP3    H220450   7.886   3.975   5.406
 6837TIP3   OH220451   8.348   5.475   2.072
 6837TIP3    H120452   8.404   5.410   2.031
 6837TIP3    H220453   8.266   5.429   2.091
 6838TIP3   OH220454   4.367   2.434   1.698
 6838TIP3    H120455   4.439   2.494   1.678
 6838TIP3    H220456   4.370   2.423   1.793
 6839TIP3   OH220457   1.854   6.216   5.092
 6839TIP3    H120458   1.841   6.231   4.999
 6839TIP3    H220459   1.845   6.303   5.132
 6840TIP3   OH220460   1.239   7.142   1.487
 6840TIP3    H120461   1.242   7.047   1.478
 6840TIP3    H220462   1.190   7.172   1.410
 6841TIP3   OH220463   1.429   4.844   1.488
 6841TIP3    H120464   1.462   4.887   1.567
 6841TIP3    H220465   1.405   4.917   1.430
 6842TIP3   OH220466   7.854   6.078   4.489
 6842TIP3    H120467   7.931   6.022   4.478
 6842TIP3    H220468   7.854   6.135   4.413
 6843TIP3   OH220469   7.753   3.766   0.153
 6843TIP3    H120470   7.795   3.702   0.096
 6843TIP3    H220471   7.767   3.850   0.110
 6844TIP3   OH220472   0.582   6.199   0.282
 6844TIP3    H120473   0.611   6.195   0.373
 6844TIP3    H220474   0.505   6.141   0.278
 6845TIP3   OH220475   1.113   1.826   2.057
 6845TIP3    H120476   1.159   1.758   2.106
 6845TIP3    H220477   1.141   1.908   2.099
 6846TIP3   OH220478   6.402   6.576   5.968
 6846TIP3    H120479   6.372   6.490   5.937
 6846TIP3    H220480   6.473   6.556   6.029
 6847TIP3   OH220481   5.733   0.626   4.023
 6847TIP3    H120482   5.736   0.722   4.023
 6847TIP3    H220483   5.823   0.599   4.005
 6848TIP3   OH220484   6.698   4.506   3.225
 6848TIP3    H120485   6.617   4.456   3.216
 6848TIP3    H220486   6.669   4.595   3.248
 6849TIP3   OH220487   3.314   6.309   2.983
 6849TIP3    H120488   3.306   6.370   3.056
 6849TIP3    H220489   3.246   6.243   2.999
 6850TIP3   OH220490   5.132   4.946   5.902
 6850TIP3    H120491   5.123   4.857   5.935
 6850TIP3    H220492   5.195   4.940   5.830
 6851TIP3   OH220493   8.033   1.843   4.301
 6851TIP3    H120494   8.025   1.907   4.371
 6851TIP3    H220495   7.967   1.868   4.237
 6852TIP3   OH220496   2.031   0.522   0.545
 6852TIP3    H120497   2.081   0.457   0.595
 6852TIP3    H220498   2.041   0.495   0.454
 6853TIP3   OH220499   5.276   7.913   2.369
 6853TIP3    H120500   5.196   7.934   2.417
 6853TIP3    H220501   5.278   7.818   2.365
 6854TIP3   OH220502   7.613   4.232   4.077
 6854TIP3    H120503   7.606   4.149   4.030
 6854TIP3    H220504   7.648   4.293   4.012
 6855TIP3   OH220505   1.608   3.978   2.603
 6855TIP3    H120506   1.630   3.929   2.682
 6855TIP3    H220507   1.541   3.925   2.560
 6856TIP3   OH220508   1.803   3.523   6.478
 6856TIP3    H120509   1.793   3.611   6.443
 6856TIP3    H220510   1.895   3.501   6.462
 6857TIP3   OH220511   4.649   5.362   2.462
 6857TIP3    H120512   4.618   5.324   2.545
 6857TIP3    H220513   4.569   5.372   2.410
 6858TIP3   OH220514   2.691   3.540   6.679
 6858TIP3    H120515   2.613   3.595   6.667
 6858TIP3    H220516   2.736   3.579   6.753
 6859TIP3   OH220517   4.311   5.953   1.194
 6859TIP3    H120518   4.398   5.916   1.213
 6859TIP3    H220519   4.273   5.969   1.280
 6860TIP3   OH220520   6.778   0.980   1.967
 6860TIP3    H120521   6.818   0.950   1.885
 6860TIP3    H220522   6.800   0.913   2.031
 6861TIP3   OH220523   0.699   0.057   2.073
 6861TIP3    H120524   0.612   0.058   2.112
 6861TIP3    H220525   0.735   0.144   2.092
 6862TIP3   OH220526   3.868   6.436   4.285
 6862TIP3    H120527   3.935   6.430   4.353
 6862TIP3    H220528   3.885   6.361   4.228
 6863TIP3   OH220529   7.380   4.568   3.575
 6863TIP3    H120530   7.421   4.598   3.494
 6863TIP3    H220531   7.289   4.550   3.550
 6864TIP3   OH220532   1.621   4.503   4.898
 6864TIP3    H120533   1.680   4.578   4.897
 6864TIP3    H220534   1.540   4.537   4.937
 6865TIP3   OH220535   1.308   2.729   5.023
 6865TIP3    H120536   1.332   2.754   4.933
 6865TIP3    H220537   1.349   2.795   5.078
 6866TIP3   OH220538   6.681   3.462   2.238
 6866TIP3    H120539   6.677   3.432   2.147
 6866TIP3    H220540   6.768   3.500   2.247
 6867TIP3   OH220541   3.493   6.647   3.042
 6867TIP3    H120542   3.454   6.705   2.977
 6867TIP3    H220543   3.543   6.706   3.099
 6868TIP3   OH220544   2.038   5.274   6.035
 6868TIP3    H120545   1.979   5.245   6.104
 6868TIP3    H220546   1.982   5.281   5.957
 6869TIP3   OH220547   4.026   2.268   2.841
 6869TIP3    H120548   3.937   2.256   2.874
 6869TIP3    H220549   4.081   2.216   2.901
 6870TIP3   OH220550   7.904   1.271   0.754
 6870TIP3    H120551   7.858   1.304   0.678
 6870TIP3    H220552   7.854   1.303   0.829
 6871TIP3   OH220553   0.272   1.312   5.713
 6871TIP3    H120554   0.332   1.361   5.769
 6871TIP3    H220555   0.303   1.328   5.624
 6872TIP3   OH220556   0.932   6.302   0.461
 6872TIP3    H120557   0.887   6.341   0.386
 6872TIP3    H220558   0.905   6.210   0.461
 6873TIP3   OH220559   0.602   2.837   4.991
 6873TIP3    H120560   0.686   2.879   5.009
 6873TIP3    H220561   0.539   2.888   5.041
 6874TIP3   OH220562   8.310   2.780   1.140
 6874TIP3    H120563   8.226   2.825   1.140
 6874TIP3    H220564   8.332   2.770   1.233
 6875TIP3   OH220565   3.708   4.618   4.379
 6875TIP3    H120566   3.698   4.635   4.473
 6875TIP3    H220567   3.716   4.705   4.340
 6876TIP3   OH220568   1.569   0.654   2.162
 6876TIP3    H120569   1.541   0.637   2.071
 6876TIP3    H220570   1.632   0.585   2.181
 6877TIP3   OH220571   2.812   2.518   5.268
 6877TIP3    H120572   2.803   2.604   5.308
 6877TIP3    H220573   2.782   2.530   5.178
 6878TIP3   OH220574   6.480   3.747   6.034
 6878TIP3    H120575   6.566   3.752   6.076
 6878TIP3    H220576   6.445   3.663   6.064
 6879TIP3   OH220577   1.602   1.281   0.845
 6879TIP3    H120578   1.626   1.280   0.938
 6879TIP3    H220579   1.546   1.204   0.833
 6880TIP3   OH220580   8.257   1.383   3.609
 6880TIP3    H120581   8.315   1.313   3.579
 6880TIP3    H220582   8.291   1.408   3.694
 6881TIP3   OH220583   2.771   5.082   1.501
 6881TIP3    H120584   2.830   5.157   1.491
 6881TIP3    H220585   2.693   5.106   1.452
 6882TIP3   OH220586   8.140   4.278   3.449
 6882TIP3    H120587   8.223   4.285   3.401
 6882TIP3    H220588   8.167   4.264   3.540
 6883TIP3   OH220589   0.168   0.433   2.695
 6883TIP3    H120590   0.157   0.344   2.728
 6883TIP3    H220591   0.097   0.483   2.736
 6884TIP3   OH220592   6.915   2.187   0.315
 6884TIP3    H120593   6.850   2.254   0.295
 6884TIP3    H220594   6.942   2.206   0.406
 6885TIP3   OH220595   5.553   6.870   4.847
 6885TIP3    H120596   5.570   6.794   4.902
 6885TIP3    H220597   5.575   6.945   4.902
 6886TIP3   OH220598   2.425   1.209   0.111
 6886TIP3    H120599   2.492   1.181   0.049
 6886TIP3    H220600   2.460   1.288   0.151
 6887TIP3   OH220601   3.411   0.247   3.261
 6887TIP3    H120602   3.491   0.298   3.269
 6887TIP3    H220603   3.342   0.312   3.248
 6888TIP3   OH220604   6.336   5.123   4.632
 6888TIP3    H120605   6.410   5.153   4.686
 6888TIP3    H220606   6.283   5.071   4.692
 6889TIP3   OH220607   7.312   5.495   6.472
 6889TIP3    H120608   7.391   5.527   6.428
 6889TIP3    H220609   7.328   5.401   6.483
 6890TIP3   OH220610   0.311   5.695   2.049
 6890TIP3    H120611   0.400   5.686   2.082
 6890TIP3    H220612   0.256   5.662   2.120
 6891TIP3   OH220613   0.068   0.800   4.384
 6891TIP3    H120614   0.155   0.840   4.383
 6891TIP3    H220615   0.047   0.791   4.477
 6892TIP3   OH220616   7.584   2.026   3.550
 6892TIP3    H120617   7.658   1.971   3.525
 6892TIP3    H220618   7.528   1.969   3.603
 6893TIP3   OH220619   8.292   1.422   2.351
 6893TIP3    H120620   8.259   1.488   2.290
 6893TIP3    H220621   8.295   1.467   2.436
 6894TIP3   OH220622   1.215   4.895   2.318
 6894TIP3    H120623   1.242   4.929   2.232
 6894TIP3    H220624   1.297   4.889   2.367
 6895TIP3   OH220625   7.406   1.311   5.596
 6895TIP3    H120626   7.322   1.326   5.639
 6895TIP3    H220627   7.396   1.226   5.553
 6896TIP3   OH220628   6.239   3.884   3.075
 6896TIP3    H120629   6.256   3.886   3.170
 6896TIP3    H220630   6.162   3.940   3.064
 6897TIP3   OH220631   4.415   7.152   4.718
 6897TIP3    H120632   4.365   7.127   4.797
 6897TIP3    H220633   4.353   7.142   4.646
 6898TIP3   OH220634   1.840   7.070   5.604
 6898TIP3    H120635   1.802   7.119   5.532
 6898TIP3    H220636   1.867   6.987   5.564
 6899TIP3   OH220637   6.435   2.441   3.973
 6899TIP3    H120638   6.357   2.453   4.027
 6899TIP3    H220639   6.500   2.499   4.012
 6900TIP3   OH220640   7.329   6.358   3.839
 6900TIP3    H120641   7.318   6.301   3.915
 6900TIP3    H220642   7.240   6.383   3.816
 6901TIP3   OH220643   5.698   4.650   4.292
 6901TIP3    H120644   5.637   4.609   4.354
 6901TIP3    H220645   5.703   4.742   4.320
 6902TIP3   OH220646   7.035   4.161   0.955
 6902TIP3    H120647   7.063   4.132   0.868
 6902TIP3    H220648   7.058   4.254   0.958
 6903TIP3   OH220649   6.573   7.130   3.360
 6903TIP3    H120650   6.616   7.213   3.383
 6903TIP3    H220651   6.580   7.077   3.440
 6904TIP3   OH220652   4.263   1.088   1.220
 6904TIP3    H120653   4.220   1.008   1.248
 6904TIP3    H220654   4.270   1.079   1.125
 6905TIP3   OH220655   1.684   4.419   2.294
 6905TIP3    H120656   1.725   4.432   2.380
 6905TIP3    H220657   1.590   4.414   2.313
 6906TIP3   OH220658   5.657   1.251   1.626
 6906TIP3    H120659   5.748   1.226   1.643
 6906TIP3    H220660   5.606   1.176   1.655
 6907TIP3   OH220661   6.917   5.417   5.237
 6907TIP3    H120662   6.911   5.340   5.294
 6907TIP3    H220663   6.993   5.465   5.270
 6908TIP3   OH220664   2.882   0.911   2.867
 6908TIP3    H120665   2.884   0.818   2.888
 6908TIP3    H220666   2.973   0.940   2.878
 6909TIP3   OH220667   1.874   5.175   3.643
 6909TIP3    H120668   1.814   5.138   3.578
 6909TIP3    H220669   1.839   5.262   3.661
 6910TIP3   OH220670   7.518   3.373   1.514
 6910TIP3    H120671   7.534   3.414   1.598
 6910TIP3    H220672   7.478   3.441   1.460
 6911TIP3   OH220673   2.404   4.152   1.549
 6911TIP3    H120674   2.366   4.066   1.528
 6911TIP3    H220675   2.339   4.193   1.606
 6912TIP3   OH220676   7.697   6.869   3.073
 6912TIP3    H120677   7.703   6.963   3.056
 6912TIP3    H220678   7.647   6.863   3.155
 6913TIP3   OH220679   5.706   0.284   3.921
 6913TIP3    H120680   5.786   0.242   3.953
 6913TIP3    H220681   5.664   0.317   4.000
 6914TIP3   OH220682   4.203   2.794   0.895
 6914TIP3    H120683   4.263   2.857   0.936
 6914TIP3    H220684   4.120   2.842   0.888
 6915TIP3   OH220685   6.950   3.928   4.046
 6915TIP3    H120686   6.911   3.930   3.959
 6915TIP3    H220687   6.914   3.849   4.087
 6916TIP3   OH220688   0.144   5.108   3.867
 6916TIP3    H120689   0.231   5.114   3.826
 6916TIP3    H220690   0.083   5.113   3.794
 6917TIP3   OH220691   7.177   5.489   4.799
 6917TIP3    H120692   7.106   5.542   4.835
 6917TIP3    H220693   7.226   5.459   4.875
 6918TIP3   OH220694   5.195   4.545   4.810
 6918TIP3    H120695   5.127   4.509   4.753
 6918TIP3    H220696   5.245   4.469   4.838
 6919TIP3   OH220697   1.563   7.967   6.295
 6919TIP3    H120698   1.491   7.930   6.346
 6919TIP3    H220699   1.640   7.921   6.325
 6920TIP3   OH220700   5.490   0.037   6.216
 6920TIP3    H120701   5.525   0.126   6.224
 6920TIP3    H220702   5.543  -0.003   6.146
 6921TIP3   OH220703   0.730   4.191   6.232
 6921TIP3    H120704   0.651   4.196   6.180
 6921TIP3    H220705   0.771   4.277   6.222
 6922TIP3   OH220706   7.002   4.736   5.859
 6922TIP3    H120707   7.049   4.773   5.933
 6922TIP3    H220708   6.940   4.675   5.898
 6923TIP3   OH220709   2.760   4.968   4.904
 6923TIP3    H120710   2.782   5.020   4.827
 6923TIP3    H220711   2.802   5.014   4.977
 6924TIP3   OH220712   0.404   2.028   6.293
 6924TIP3    H120713   0.399   2.039   6.198
 6924TIP3    H220714   0.354   2.102   6.328
 6925TIP3   OH220715   6.054   4.299   6.582
 6925TIP3    H120716   5.979   4.346   6.618
 6925TIP3    H220717   6.088   4.248   6.656
 6926TIP3   OH220718   7.661   7.574   6.329
 6926TIP3    H120719   7.676   7.499   6.272
 6926TIP3    H220720   7.747   7.595   6.365
 6927TIP3   OH220721   7.896   4.803   5.841
 6927TIP3    H120722   7.889   4.779   5.933
 6927TIP3    H220723   7.982   4.846   5.835
 6928TIP3   OH220724   2.960   5.685   3.667
 6928TIP3    H120725   2.982   5.711   3.578
 6928TIP3    H220726   2.878   5.730   3.686
 6929TIP3   OH220727   5.958   3.774   3.213
 6929TIP3    H120728   5.933   3.843   3.151
 6929TIP3    H220729   5.876   3.747   3.253
 6930TIP3   OH220730   2.718   5.609   1.897
 6930TIP3    H120731   2.697   5.516   1.892
 6930TIP3    H220732   2.711   5.640   1.807
 6931TIP3   OH220733   4.792   7.846   4.389
 6931TIP3    H120734   4.877   7.804   4.393
 6931TIP3    H220735   4.782   7.873   4.297
 6932TIP3   OH220736   4.545   6.445   1.279
 6932TIP3    H120737   4.474   6.389   1.309
 6932TIP3    H220738   4.520   6.470   1.190
 6933TIP3   OH220739   7.461   4.836   0.034
 6933TIP3    H120740   7.380   4.788   0.015
 6933TIP3    H220741   7.433   4.912   0.085
 6934TIP3   OH220742   6.070   5.163   4.340
 6934TIP3    H120743   6.048   5.107   4.266
 6934TIP3    H220744   6.166   5.166   4.340
 6935TIP3   OH220745   7.371   7.592   3.810
 6935TIP3    H120746   7.280   7.584   3.782
 6935TIP3    H220747   7.416   7.520   3.766
 6936TIP3   OH220748   6.253   3.801   6.368
 6936TIP3    H120749   6.248   3.896   6.352
 6936TIP3    H220750   6.205   3.763   6.294
 6937TIP3   OH220751   1.399   3.457   4.531
 6937TIP3    H120752   1.362   3.499   4.608
 6937TIP3    H220753   1.383   3.364   4.545
 6938TIP3   OH220754   6.986   2.258   2.679
 6938TIP3    H120755   6.998   2.342   2.634
 6938TIP3    H220756   7.075   2.228   2.697
 6939TIP3   OH220757   6.519   4.118   3.792
 6939TIP3    H120758   6.485   4.155   3.873
 6939TIP3    H220759   6.596   4.171   3.772
 6940TIP3   OH220760   0.134   0.862   5.646
 6940TIP3    H120761   0.143   0.931   5.580
 6940TIP3    H220762   0.040   0.841   5.645
 6941TIP3   OH220763   4.510   1.640   4.778
 6941TIP3    H120764   4.585   1.642   4.719
 6941TIP3    H220765   4.547   1.613   4.862
 6942TIP3   OH220766   6.193   2.059   5.879
 6942TIP3    H120767   6.197   2.037   5.972
 6942TIP3    H220768   6.213   1.977   5.834
 6943TIP3   OH220769   1.025   4.388   1.324
 6943TIP3    H120770   1.065   4.433   1.250
 6943TIP3    H220771   1.016   4.456   1.392
 6944TIP3   OH220772   5.305   6.714   2.415
 6944TIP3    H120773   5.389   6.733   2.457
 6944TIP3    H220774   5.328   6.691   2.325
 6945TIP3   OH220775   5.727   6.393   2.923
 6945TIP3    H120776   5.809   6.371   2.878
 6945TIP3    H220777   5.754   6.419   3.011
 6946TIP3   OH220778   3.259   5.371   1.233
 6946TIP3    H120779   3.212   5.290   1.252
 6946TIP3    H220780   3.229   5.432   1.300
 6947TIP3   OH220781   6.704   2.938   1.420
 6947TIP3    H120782   6.672   2.895   1.341
 6947TIP3    H220783   6.761   3.008   1.387
 6948TIP3   OH220784   6.339   4.259   2.588
 6948TIP3    H120785   6.338   4.167   2.563
 6948TIP3    H220786   6.431   4.284   2.583
 6949TIP3   OH220787   2.167   6.809   4.745
 6949TIP3    H120788   2.253   6.766   4.745
 6949TIP3    H220789   2.176   6.879   4.811
 6950TIP3   OH220790   4.263   4.824   0.511
 6950TIP3    H120791   4.205   4.797   0.582
 6950TIP3    H220792   4.336   4.868   0.555
 6951TIP3   OH220793   0.209   1.662   3.663
 6951TIP3    H120794   0.213   1.758   3.662
 6951TIP3    H220795   0.175   1.641   3.750
 6952TIP3   OH220796   5.666   2.504   0.764
 6952TIP3    H120797   5.672   2.589   0.721
 6952TIP3    H220798   5.724   2.447   0.713
 6953TIP3   OH220799   1.634   1.643   6.412
 6953TIP3    H120800   1.675   1.700   6.478
 6953TIP3    H220801   1.695   1.645   6.338
 6954TIP3   OH220802   0.142   2.331   0.018
 6954TIP3    H120803   0.061   2.377   0.040
 6954TIP3    H220804   0.209   2.374   0.071
 6955TIP3   OH220805   3.713   0.878   1.848
 6955TIP3    H120806   3.738   0.946   1.911
 6955TIP3    H220807   3.649   0.824   1.895
 6956TIP3   OH220808   1.372   3.596   5.773
 6956TIP3    H120809   1.300   3.657   5.757
 6956TIP3    H220810   1.355   3.561   5.860
 6957TIP3   OH220811   2.112   6.156   5.606
 6957TIP3    H120812   2.048   6.206   5.556
 6957TIP3    H220813   2.109   6.193   5.694
 6958TIP3   OH220814   0.394   0.981   1.690
 6958TIP3    H120815   0.387   0.890   1.661
 6958TIP3    H220816   0.346   1.031   1.624
 6959TIP3   OH220817   3.889   1.463   2.221
 6959TIP3    H120818   3.894   1.453   2.316
 6959TIP3    H220819   3.796   1.460   2.201
 6960TIP3   OH220820   2.602   2.674   3.737
 6960TIP3    H120821   2.576   2.639   3.822
 6960TIP3    H220822   2.599   2.600   3.678
 6961TIP3   OH220823   7.383   4.710   5.386
 6961TIP3    H120824   7.343   4.794   5.406
 6961TIP3    H220825   7.460   4.732   5.334
 6962TIP3   OH220826   1.318   2.336   0.018
 6962TIP3    H120827   1.334   2.249  -0.018
 6962TIP3    H220828   1.262   2.379  -0.046
 6963TIP3   OH220829   7.979   0.625   3.444
 6963TIP3    H120830   8.061   0.671   3.429
 6963TIP3    H220831   7.912   0.694   3.444
 6964TIP3   OH220832   7.211   6.796   5.085
 6964TIP3    H120833   7.183   6.872   5.137
 6964TIP3    H220834   7.305   6.808   5.073
 6965TIP3   OH220835   6.644   4.144   0.776
 6965TIP3    H120836   6.591   4.065   0.785
 6965TIP3    H220837   6.580   4.214   0.762
 6966TIP3   OH220838   0.896   0.017   3.210
 6966TIP3    H120839   0.903   0.086   3.143
 6966TIP3    H220840   0.810   0.032   3.250
 6967TIP3   OH220841   0.153   3.392   5.895
 6967TIP3    H120842   0.228   3.332   5.904
 6967TIP3    H220843   0.076   3.334   5.895
 6968TIP3   OH220844   5.358   5.993   2.573
 6968TIP3    H120845   5.409   5.976   2.651
 6968TIP3    H220846   5.355   5.909   2.527
 6969TIP3   OH220847   2.308   2.689   5.678
 6969TIP3    H120848   2.219   2.660   5.658
 6969TIP3    H220849   2.298   2.748   5.752
 6970TIP3   OH220850   5.408   2.345   6.320
 6970TIP3    H120851   5.497   2.323   6.349
 6970TIP3    H220852   5.369   2.389   6.395
 6971TIP3   OH220853   6.776   5.578   2.011
 6971TIP3    H120854   6.808   5.501   2.058
 6971TIP3    H220855   6.683   5.559   1.996
 6972TIP3   OH220856   4.318   5.437   6.460
 6972TIP3    H120857   4.306   5.351   6.422
 6972TIP3    H220858   4.342   5.493   6.386
 6973TIP3   OH220859   2.613   4.534   1.942
 6973TIP3    H120860   2.598   4.606   1.879
 6973TIP3    H220861   2.696   4.496   1.915
 6974TIP3   OH220862   7.918   7.905   3.821
 6974TIP3    H120863   7.974   7.930   3.895
 6974TIP3    H220864   7.856   7.842   3.857
 6975TIP3   OH220865   2.110   2.860   4.141
 6975TIP3    H120866   2.038   2.923   4.147
 6975TIP3    H220867   2.163   2.892   4.068
 6976TIP3   OH220868   4.753   1.608   0.419
 6976TIP3    H120869   4.679   1.603   0.480
 6976TIP3    H220870   4.769   1.517   0.394
 6977TIP3   OH220871   4.789   7.472   6.407
 6977TIP3    H120872   4.853   7.543   6.407
 6977TIP3    H220873   4.836   7.397   6.370
 6978TIP3   OH220874   7.411   6.729   4.229
 6978TIP3    H120875   7.427   6.761   4.140
 6978TIP3    H220876   7.388   6.807   4.278
 6979TIP3   OH220877   5.292   6.945   6.092
 6979TIP3    H120878   5.356   6.879   6.117
 6979TIP3    H220879   5.297   6.949   5.997
 6980TIP3   OH220880   7.966   7.505   4.470
 6980TIP3    H120881   7.880   7.545   4.455
 6980TIP3    H220882   8.010   7.513   4.385
 6981TIP3   OH220883   0.891   2.218   2.454
 6981TIP3    H120884   0.805   2.258   2.438
 6981TIP3    H220885   0.946   2.251   2.384
 6982TIP3   OH220886   7.837   6.947   0.815
 6982TIP3    H120887   7.913   6.915   0.862
 6982TIP3    H220888   7.856   7.040   0.798
 6983TIP3   OH220889   0.168   0.790   6.395
 6983TIP3    H120890   0.125   0.810   6.311
 6983TIP3    H220891   0.098   0.757   6.450
 6984TIP3   OH220892   2.119   7.855   4.365
 6984TIP3    H120893   2.213   7.843   4.352
 6984TIP3    H220894   2.110   7.884   4.456
 6985TIP3   OH220895   4.412   3.761   4.244
 6985TIP3    H120896   4.408   3.667   4.261
 6985TIP3    H220897   4.503   3.785   4.262
 6986TIP3   OH220898   5.930   1.128   2.040
 6986TIP3    H120899   5.999   1.063   2.047
 6986TIP3    H220900   5.880   1.119   2.122
 6987TIP3   OH220901   3.094   5.614   4.771
 6987TIP3    H120902   3.092   5.689   4.831
 6987TIP3    H220903   3.101   5.653   4.684
 6988TIP3   OH220904   3.041   7.661   2.230
 6988TIP3    H120905   3.099   7.593   2.266
 6988TIP3    H220906   2.971   7.670   2.295
 6989TIP3   OH220907   2.207   1.998   4.087
 6989TIP3    H120908   2.227   2.083   4.124
 6989TIP3    H220909   2.111   1.991   4.093
 6990TIP3   OH220910   2.062   3.284   4.097
 6990TIP3    H120911   2.023   3.371   4.104
 6990TIP3    H220912   2.137   3.286   4.156
 6991TIP3   OH220913   6.943   3.594   1.416
 6991TIP3    H120914   7.028   3.551   1.416
 6991TIP3    H220915   6.963   3.687   1.428
 6992TIP3   OH220916   2.012   1.614   1.308
 6992TIP3    H120917   2.102   1.583   1.300
 6992TIP3    H220918   1.961   1.533   1.316
 6993TIP3   OH220919   7.589   0.022   2.262
 6993TIP3    H120920   7.666   0.079   2.265
 6993TIP3    H220921   7.574   0.006   2.169
 6994TIP3   OH220922   0.792   6.883   0.607
 6994TIP3    H120923   0.768   6.946   0.539
 6994TIP3    H220924   0.761   6.923   0.689
 6995TIP3   OH220925   8.060   2.565   1.230
 6995TIP3    H120926   8.102   2.541   1.313
 6995TIP3    H220927   8.040   2.658   1.240
 6996TIP3   OH220928   8.138   4.247   6.102
 6996TIP3    H120929   8.182   4.303   6.167
 6996TIP3    H220930   8.102   4.309   6.038
 6997TIP3   OH220931   1.929   1.636   3.566
 6997TIP3    H120932   1.867   1.682   3.510
 6997TIP3    H220933   1.906   1.544   3.557
 6998TIP3   OH220934   7.149   4.713   2.005
 6998TIP3    H120935   7.136   4.640   1.945
 6998TIP3    H220936   7.064   4.757   2.008
 6999TIP3   OH220937   6.512   0.237   4.844
 6999TIP3    H120938   6.441   0.179   4.872
 6999TIP3    H220939   6.528   0.294   4.919
 7000TIP3   OH220940   7.042   3.903   4.805
 7000TIP3    H120941   7.072   3.873   4.719
 7000TIP3    H220942   7.034   3.998   4.795
 7001TIP3   OH220943   4.848   0.412   0.683
 7001TIP3    H120944   4.904   0.354   0.632
 7001TIP3    H220945   4.762   0.404   0.643
 7002TIP3   OH220946   4.038   4.269   6.218
 7002TIP3    H120947   4.111   4.208   6.223
 7002TIP3    H220948   3.969   4.220   6.174
 7003TIP3   OH220949   3.937   7.817   2.551
 7003TIP3    H120950   3.893   7.743   2.594
 7003TIP3    H220951   3.949   7.788   2.460
 7004TIP3   OH220952   7.945   7.336   2.876
 7004TIP3    H120953   7.881   7.380   2.933
 7004TIP3    H220954   7.894   7.301   2.804
 7005TIP3   OH220955   1.928   6.426   0.474
 7005TIP3    H120956   1.841   6.388   0.485
 7005TIP3    H220957   1.938   6.485   0.549
 7006TIP3   OH220958   3.961   3.125   6.010
 7006TIP3    H120959   3.997   3.098   6.095
 7006TIP3    H220960   3.870   3.147   6.028
 7007TIP3   OH220961   6.119   0.673   0.246
 7007TIP3    H120962   6.088   0.636   0.328
 7007TIP3    H220963   6.062   0.749   0.230
 7008TIP3   OH220964   0.451   3.586   3.823
 7008TIP3    H120965   0.375   3.530   3.814
 7008TIP3    H220966   0.462   3.597   3.917
 7009TIP3   OH220967   0.612   2.900   1.350
 7009TIP3    H120968   0.575   2.985   1.373
 7009TIP3    H220969   0.538   2.840   1.350
 7010TIP3   OH220970   2.893   0.586   6.218
 7010TIP3    H120971   2.880   0.612   6.127
 7010TIP3    H220972   2.805   0.568   6.252
 7011TIP3   OH220973   5.272   0.265   1.607
 7011TIP3    H120974   5.233   0.344   1.643
 7011TIP3    H220975   5.279   0.205   1.682
 7012TIP3   OH220976   7.694   3.227   6.653
 7012TIP3    H120977   7.617   3.280   6.631
 7012TIP3    H220978   7.666   3.137   6.639
 7013TIP3   OH220979   2.149   1.789   6.523
 7013TIP3    H120980   2.145   1.698   6.554
 7013TIP3    H220981   2.179   1.781   6.432
 7014TIP3   OH220982   0.798   1.867   6.434
 7014TIP3    H120983   0.738   1.822   6.494
 7014TIP3    H220984   0.836   1.797   6.382
 7015TIP3   OH220985   0.413   7.877   6.142
 7015TIP3    H120986   0.455   7.807   6.192
 7015TIP3    H220987   0.467   7.954   6.161
 7016TIP3   OH220988   7.669   4.344   5.007
 7016TIP3    H120989   7.588   4.295   4.993
 7016TIP3    H220990   7.649   4.433   4.977
 7017TIP3   OH220991   5.544   6.718   3.183
 7017TIP3    H120992   5.540   6.770   3.263
 7017TIP3    H220993   5.587   6.774   3.119
 7018TIP3   OH220994   1.456   2.897   5.189
 7018TIP3    H120995   1.514   2.892   5.265
 7018TIP3    H220996   1.500   2.956   5.128
 7019TIP3   OH220997   0.412   0.400   5.415
 7019TIP3    H120998   0.330   0.371   5.376
 7019TIP3    H220999   0.477   0.391   5.345
 7020TIP3   OH221000   4.915   1.647   5.597
 7020TIP3    H121001   4.828   1.683   5.619
 7020TIP3    H221002   4.898   1.556   5.572
 7021TIP3   OH221003   2.587   2.012   0.821
 7021TIP3    H121004   2.655   1.991   0.758
 7021TIP3    H221005   2.506   1.980   0.781
 7022TIP3   OH221006   4.645   0.186   6.868
 7022TIP3    H121007   4.557   0.148   6.871
 7022TIP3    H221008   4.633   0.276   6.900
 7023TIP3   OH221009   4.055   3.343   1.469
 7023TIP3    H121010   3.989   3.411   1.485
 7023TIP3    H221011   4.113   3.381   1.402
 7024TIP3   OH221012   5.030   4.187   2.476
 7024TIP3    H121013   5.038   4.095   2.452
 7024TIP3    H221014   4.994   4.185   2.565
 7025TIP3   OH221015   6.801   3.292   0.865
 7025TIP3    H121016   6.761   3.375   0.890
 7025TIP3    H221017   6.857   3.314   0.791
 7026TIP3   OH221018   3.140   4.032   0.621
 7026TIP3    H121019   3.073   4.095   0.598
 7026TIP3    H221020   3.092   3.960   0.662
 7027TIP3   OH221021   3.883   2.984   2.387
 7027TIP3    H121022   3.905   3.036   2.465
 7027TIP3    H221023   3.870   2.896   2.420
 7028TIP3   OH221024   7.331   6.958   0.224
 7028TIP3    H121025   7.315   6.867   0.196
 7028TIP3    H221026   7.348   6.951   0.318
 7029TIP3   OH221027   8.011   1.384   3.212
 7029TIP3    H121028   8.000   1.357   3.303
 7029TIP3    H221029   8.084   1.447   3.215
 7030TIP3   OH221030   3.341   3.865   3.569
 7030TIP3    H121031   3.318   3.941   3.623
 7030TIP3    H221032   3.383   3.805   3.629
 7031TIP3   OH221033   5.503   7.392   2.202
 7031TIP3    H121034   5.556   7.434   2.135
 7031TIP3    H221035   5.567   7.361   2.267
 7032TIP3   OH221036   7.178   6.245   5.002
 7032TIP3    H121037   7.174   6.309   5.072
 7032TIP3    H221038   7.134   6.168   5.037
 7033TIP3   OH221039   6.487   7.587   5.118
 7033TIP3    H121040   6.449   7.540   5.193
 7033TIP3    H221041   6.430   7.663   5.107
 7034TIP3   OH221042   6.994   6.359   4.063
 7034TIP3    H121043   7.020   6.441   4.022
 7034TIP3    H221044   6.962   6.383   4.149
 7035TIP3   OH221045   6.379   0.455   6.385
 7035TIP3    H121046   6.400   0.369   6.423
 7035TIP3    H221047   6.432   0.517   6.436
 7036TIP3   OH221048   1.671   0.117   5.870
 7036TIP3    H121049   1.696   0.025   5.867
 7036TIP3    H221050   1.594   0.119   5.926
 7037TIP3   OH221051   6.803   5.664   3.113
 7037TIP3    H121052   6.861   5.598   3.150
 7037TIP3    H221053   6.818   5.660   3.019
 7038TIP3   OH221054   4.921   4.409   4.254
 7038TIP3    H121055   4.832   4.444   4.247
 7038TIP3    H221056   4.978   4.486   4.251
 7039TIP3   OH221057   2.679   0.620   6.047
 7039TIP3    H121058   2.690   0.714   6.064
 7039TIP3    H221059   2.699   0.610   5.954
 7040TIP3   OH221060   7.264   4.217   0.273
 7040TIP3    H121061   7.241   4.250   0.187
 7040TIP3    H221062   7.181   4.188   0.311
 7041TIP3   OH221063   3.067   1.740   2.492
 7041TIP3    H121064   3.073   1.666   2.553
 7041TIP3    H221065   2.982   1.779   2.510
 7042TIP3   OH221066   0.178   2.705   2.881
 7042TIP3    H121067   0.181   2.649   2.958
 7042TIP3    H221068   0.185   2.794   2.915
 7043TIP3   OH221069   0.749   6.274   2.184
 7043TIP3    H121070   0.776   6.365   2.190
 7043TIP3    H221071   0.714   6.253   2.270
 7044TIP3   OH221072   6.652   1.669   3.176
 7044TIP3    H121073   6.643   1.577   3.202
 7044TIP3    H221074   6.661   1.667   3.081
 7045TIP3   OH221075   0.753   4.771   5.778
 7045TIP3    H121076   0.766   4.815   5.862
 7045TIP3    H221077   0.787   4.833   5.714
 7046TIP3   OH221078   5.657   2.521   5.830
 7046TIP3    H121079   5.741   2.483   5.855
 7046TIP3    H221080   5.596   2.494   5.899
 7047TIP3   OH221081   0.503   7.318   3.545
 7047TIP3    H121082   0.464   7.329   3.632
 7047TIP3    H221083   0.452   7.377   3.489
 7048TIP3   OH221084   5.331   2.429   5.297
 7048TIP3    H121085   5.258   2.371   5.274
 7048TIP3    H221086   5.295   2.484   5.367
 7049TIP3   OH221087   1.109   0.492   5.832
 7049TIP3    H121088   1.044   0.530   5.774
 7049TIP3    H221089   1.076   0.509   5.921
 7050TIP3   OH221090   8.076   5.802   3.180
 7050TIP3    H121091   8.059   5.892   3.209
 7050TIP3    H221092   8.170   5.801   3.160
 7051TIP3   OH221093   0.965   3.165   3.394
 7051TIP3    H121094   0.912   3.210   3.459
 7051TIP3    H221095   0.906   3.100   3.355
 7052TIP3   OH221096   7.164   7.544   1.459
 7052TIP3    H121097   7.253   7.573   1.483
 7052TIP3    H221098   7.110   7.573   1.532
 7053TIP3   OH221099   8.114   4.131   4.716
 7053TIP3    H121100   8.172   4.105   4.787
 7053TIP3    H221101   8.032   4.155   4.759
 7054TIP3   OH221102   7.840   0.160   4.145
 7054TIP3    H121103   7.753   0.176   4.106
 7054TIP3    H221104   7.897   0.144   4.070
 7055TIP3   OH221105   0.260   6.093   3.049
 7055TIP3    H121106   0.298   6.009   3.024
 7055TIP3    H221107   0.169   6.073   3.072
 7056TIP3   OH221108   6.634   0.401   5.041
 7056TIP3    H121109   6.641   0.491   5.008
 7056TIP3    H221110   6.664   0.407   5.132
 7057TIP3   OH221111   6.579   2.331   1.293
 7057TIP3    H121112   6.566   2.423   1.316
 7057TIP3    H221113   6.491   2.301   1.268
 7058TIP3   OH221114   7.959   3.447   2.694
 7058TIP3    H121115   8.034   3.389   2.680
 7058TIP3    H221116   7.883   3.394   2.674
 7059TIP3   OH221117   3.700   1.757   1.746
 7059TIP3    H121118   3.612   1.792   1.761
 7059TIP3    H221119   3.717   1.701   1.822
 7060TIP3   OH221120   4.280   6.492   0.207
 7060TIP3    H121121   4.366   6.519   0.237
 7060TIP3    H221122   4.241   6.447   0.282
 7061TIP3   OH221123   6.195   5.770   5.376
 7061TIP3    H121124   6.228   5.820   5.451
 7061TIP3    H221125   6.274   5.739   5.332
 7062TIP3   OH221126   4.583   0.835   6.567
 7062TIP3    H121127   4.609   0.743   6.570
 7062TIP3    H221128   4.597   0.860   6.476
 7063TIP3   OH221129   1.931   0.178   6.801
 7063TIP3    H121130   1.914   0.270   6.824
 7063TIP3    H221131   1.944   0.179   6.706
 7064TIP3   OH221132   5.420   7.089   0.893
 7064TIP3    H121133   5.500   7.101   0.842
 7064TIP3    H221134   5.381   7.008   0.859
 7065TIP3   OH221135   3.010   4.934   5.267
 7065TIP3    H121136   3.060   4.893   5.337
 7065TIP3    H221137   2.935   4.877   5.254
 7066TIP3   OH221138   0.139   7.032   2.442
 7066TIP3    H121139   0.085   6.953   2.438
 7066TIP3    H221140   0.080   7.101   2.471
 7067TIP3   OH221141   8.200   3.308   2.670
 7067TIP3    H121142   8.188   3.275   2.759
 7067TIP3    H221143   8.294   3.328   2.664
 7068TIP3   OH221144   0.706   7.609   2.601
 7068TIP3    H121145   0.801   7.600   2.609
 7068TIP3    H221146   0.674   7.521   2.582
 7069TIP3   OH221147   2.460   3.067   4.138
 7069TIP3    H121148   2.549   3.088   4.166
 7069TIP3    H221149   2.422   3.019   4.211
 7070TIP3   OH221150   1.755   4.393   1.284
 7070TIP3    H121151   1.820   4.361   1.347
 7070TIP3    H221152   1.671   4.371   1.323
 7071TIP3   OH221153   4.641   4.174   5.269
 7071TIP3    H121154   4.668   4.092   5.226
 7071TIP3    H221155   4.675   4.166   5.358
 7072TIP3   OH221156   0.336   2.404   4.707
 7072TIP3    H121157   0.355   2.320   4.666
 7072TIP3    H221158   0.404   2.463   4.672
 7073TIP3   OH221159   2.361   7.223   6.775
 7073TIP3    H121160   2.369   7.137   6.817
 7073TIP3    H221161   2.386   7.285   6.843
 7074TIP3   OH221162   4.982   3.259   3.616
 7074TIP3    H121163   4.938   3.214   3.543
 7074TIP3    H221164   4.925   3.333   3.636
 7075TIP3   OH221165   0.822   4.642   1.348
 7075TIP3    H121166   0.909   4.642   1.389
 7075TIP3    H221167   0.762   4.664   1.419
 7076TIP3   OH221168   3.100   0.288   6.040
 7076TIP3    H121169   3.132   0.201   6.015
 7076TIP3    H221170   3.161   0.349   5.997
 7077TIP3   OH221171   5.710   5.985   2.285
 7077TIP3    H121172   5.746   5.922   2.348
 7077TIP3    H221173   5.778   5.993   2.218
 7078TIP3   OH221174   3.923   2.147   5.368
 7078TIP3    H121175   3.934   2.057   5.397
 7078TIP3    H221176   3.995   2.161   5.306
 7079TIP3   OH221177   0.700   2.085   0.795
 7079TIP3    H121178   0.782   2.046   0.764
 7079TIP3    H221179   0.666   2.133   0.719
 7080TIP3   OH221180   0.194   0.507   3.242
 7080TIP3    H121181   0.128   0.453   3.198
 7080TIP3    H221182   0.198   0.473   3.331
 7081TIP3   OH221183   5.316   5.669   2.607
 7081TIP3    H121184   5.308   5.706   2.695
 7081TIP3    H221185   5.237   5.617   2.595
 7082TIP3   OH221186   8.056   7.902   1.370
 7082TIP3    H121187   8.116   7.831   1.347
 7082TIP3    H221188   8.020   7.877   1.456
 7083TIP3   OH221189   5.515   3.675   0.375
 7083TIP3    H121190   5.437   3.640   0.417
 7083TIP3    H221191   5.504   3.770   0.377
 7084TIP3   OH221192   3.493   5.988   1.840
 7084TIP3    H121193   3.565   5.927   1.822
 7084TIP3    H221194   3.425   5.963   1.777
 7085TIP3   OH221195   7.039   4.405   0.721
 7085TIP3    H121196   6.960   4.352   0.714
 7085TIP3    H221197   7.044   4.452   0.638
 7086TIP3   OH221198   0.267   4.427   4.338
 7086TIP3    H121199   0.197   4.401   4.279
 7086TIP3    H221200   0.256   4.522   4.348
 7087TIP3   OH221201   5.316   4.198   3.360
 7087TIP3    H121202   5.254   4.213   3.431
 7087TIP3    H221203   5.343   4.107   3.370
 7088TIP3   OH221204   1.188   5.011   4.325
 7088TIP3    H121205   1.128   4.968   4.265
 7088TIP3    H221206   1.191   5.102   4.295
 7089TIP3   OH221207   3.250   3.760   2.369
 7089TIP3    H121208   3.344   3.770   2.379
 7089TIP3    H221209   3.235   3.666   2.368
 7090TIP3   OH221210   6.403   0.834   1.508
 7090TIP3    H121211   6.346   0.893   1.459
 7090TIP3    H221212   6.357   0.749   1.506
 7091TIP3   OH221213   3.100   7.222   6.308
 7091TIP3    H121214   3.157   7.151   6.335
 7091TIP3    H221215   3.105   7.221   6.212
 7092TIP3   OH221216   3.880   3.406   3.401
 7092TIP3    H121217   3.833   3.341   3.351
 7092TIP3    H221218   3.878   3.373   3.491
 7093TIP3   OH221219   2.365   5.381   2.896
 7093TIP3    H121220   2.350   5.309   2.958
 7093TIP3    H221221   2.430   5.436   2.939
 7094TIP3   OH221222   0.086   1.717   2.735
 7094TIP3    H121223   0.006   1.701   2.686
 7094TIP3    H221224   0.115   1.803   2.705
 7095TIP3   OH221225   1.460   2.099   3.182
 7095TIP3    H121226   1.455   2.171   3.120
 7095TIP3    H221227   1.382   2.047   3.165
 7096TIP3   OH221228   4.439   3.894   5.558
 7096TIP3    H121229   4.421   3.824   5.620
 7096TIP3    H221230   4.354   3.913   5.518
 7097TIP3   OH221231   2.622   5.709   4.842
 7097TIP3    H121232   2.667   5.645   4.897
 7097TIP3    H221233   2.595   5.660   4.764
 7098TIP3   OH221234   5.801   1.189   2.794
 7098TIP3    H121235   5.716   1.170   2.834
 7098TIP3    H221236   5.865   1.158   2.859
 7099TIP3   OH221237   2.259   0.964   0.622
 7099TIP3    H121238   2.174   0.981   0.583
 7099TIP3    H221239   2.251   0.995   0.712
 7100TIP3   OH221240   2.440   4.247   4.369
 7100TIP3    H121241   2.432   4.166   4.320
 7100TIP3    H221242   2.414   4.315   4.308
 7101TIP3   OH221243   6.877   0.797   2.127
 7101TIP3    H121244   6.864   0.800   2.222
 7101TIP3    H221245   6.837   0.714   2.100
 7102TIP3   OH221246   0.109   3.497   1.389
 7102TIP3    H121247   0.204   3.490   1.391
 7102TIP3    H221248   0.090   3.537   1.304
 7103TIP3   OH221249   1.061   6.066   0.319
 7103TIP3    H121250   1.044   6.071   0.225
 7103TIP3    H221251   1.091   5.977   0.334
 7104TIP3   OH221252   5.246   3.773   3.996
 7104TIP3    H121253   5.275   3.841   3.935
 7104TIP3    H221254   5.315   3.706   3.992
 7105TIP3   OH221255   7.026   7.247   2.570
 7105TIP3    H121256   6.992   7.163   2.603
 7105TIP3    H221257   7.060   7.291   2.648
 7106TIP3   OH221258   1.402   0.789   0.921
 7106TIP3    H121259   1.463   0.862   0.914
 7106TIP3    H221260   1.405   0.747   0.835
 7107TIP3   OH221261   8.272   1.189   1.563
 7107TIP3    H121262   8.259   1.282   1.579
 7107TIP3    H221263   8.312   1.185   1.477
 7108TIP3   OH221264   1.499   3.799   0.856
 7108TIP3    H121265   1.590   3.797   0.885
 7108TIP3    H221266   1.489   3.885   0.815
 7109TIP3   OH221267   7.976   5.430   4.917
 7109TIP3    H121268   7.993   5.389   4.833
 7109TIP3    H221269   7.882   5.451   4.915
 7110TIP3   OH221270   1.321   5.312   4.607
 7110TIP3    H121271   1.324   5.218   4.591
 7110TIP3    H221272   1.400   5.330   4.659
 7111TIP3   OH221273   0.743   6.344   5.308
 7111TIP3    H121274   0.812   6.278   5.319
 7111TIP3    H221275   0.726   6.376   5.396
 7112TIP3   OH221276   5.408   0.231   1.375
 7112TIP3    H121277   5.392   0.304   1.316
 7112TIP3    H221278   5.370   0.259   1.459
 7113TIP3   OH221279   3.127   0.215   2.866
 7113TIP3    H121280   3.066   0.289   2.866
 7113TIP3    H221281   3.211   0.254   2.842
 7114TIP3   OH221282   1.186   7.531   1.869
 7114TIP3    H121283   1.096   7.500   1.876
 7114TIP3    H221284   1.236   7.470   1.924
 7115TIP3   OH221285   8.105   6.822   3.517
 7115TIP3    H121286   8.060   6.841   3.599
 7115TIP3    H221287   8.037   6.827   3.450
 7116TIP3   OH221288   0.466   6.293   1.339
 7116TIP3    H121289   0.494   6.232   1.408
 7116TIP3    H221290   0.496   6.379   1.369
 7117TIP3   OH221291   5.223   2.925   1.346
 7117TIP3    H121292   5.309   2.965   1.331
 7117TIP3    H221293   5.228   2.892   1.436
 7118TIP3   OH221294   5.625   2.584   3.716
 7118TIP3    H121295   5.577   2.574   3.798
 7118TIP3    H221296   5.569   2.545   3.650
 7119TIP3   OH221297   7.921   5.431   5.375
 7119TIP3    H121298   7.957   5.463   5.458
 7119TIP3    H221299   7.949   5.496   5.310
 7120TIP3   OH221300   7.704   3.877   4.249
 7120TIP3    H121301   7.657   3.873   4.166
 7120TIP3    H221302   7.755   3.957   4.243
 7121TIP3   OH221303   7.011   5.470   3.169
 7121TIP3    H121304   7.089   5.421   3.144
 7121TIP3    H221305   6.994   5.444   3.259
 7122TIP3   OH221306   2.671   7.125   3.331
 7122TIP3    H121307   2.629   7.138   3.416
 7122TIP3    H221308   2.723   7.046   3.341
 7123TIP3   OH221309   4.502   5.572   5.058
 7123TIP3    H121310   4.571   5.620   5.013
 7123TIP3    H221311   4.451   5.532   4.987
 7124TIP3   OH221312   1.773   6.922   6.675
 7124TIP3    H121313   1.812   6.966   6.600
 7124TIP3    H221314   1.845   6.875   6.716
 7125TIP3   OH221315   5.816   4.857   4.805
 7125TIP3    H121316   5.807   4.928   4.741
 7125TIP3    H221317   5.814   4.901   4.890
 7126TIP3   OH221318   6.449   4.759   5.082
 7126TIP3    H121319   6.508   4.696   5.124
 7126TIP3    H221320   6.387   4.784   5.151
 7127TIP3   OH221321   4.757   4.854   6.183
 7127TIP3    H121322   4.731   4.936   6.140
 7127TIP3    H221323   4.852   4.860   6.192
 7128TIP3   OH221324   2.870   4.297   2.228
 7128TIP3    H121325   2.878   4.283   2.322
 7128TIP3    H221326   2.924   4.375   2.211
 7129TIP3   OH221327   3.674   7.552   5.455
 7129TIP3    H121328   3.686   7.625   5.516
 7129TIP3    H221329   3.695   7.589   5.370
 7130TIP3   OH221330   4.464   4.141   1.272
 7130TIP3    H121331   4.435   4.107   1.187
 7130TIP3    H221332   4.403   4.212   1.291
 7131TIP3   OH221333   5.426   7.512   2.926
 7131TIP3    H121334   5.424   7.596   2.880
 7131TIP3    H221335   5.512   7.476   2.905
 7132TIP3   OH221336   3.690   3.224   6.302
 7132TIP3    H121337   3.627   3.286   6.338
 7132TIP3    H221338   3.704   3.253   6.212
 7133TIP3   OH221339   2.126   6.328   1.422
 7133TIP3    H121340   2.204   6.350   1.371
 7133TIP3    H221341   2.119   6.232   1.415
 7134TIP3   OH221342   4.429   5.908   0.462
 7134TIP3    H121343   4.372   5.976   0.499
 7134TIP3    H221344   4.396   5.895   0.373
 7135TIP3   OH221345   5.159   0.417   2.945
 7135TIP3    H121346   5.239   0.445   2.900
 7135TIP3    H221347   5.099   0.394   2.874
 7136TIP3   OH221348   8.249   3.350   2.254
 7136TIP3    H121349   8.219   3.259   2.257
 7136TIP3    H221350   8.335   3.345   2.212
 7137TIP3   OH221351   1.363   3.515   1.345
 7137TIP3    H121352   1.392   3.594   1.391
 7137TIP3    H221353   1.375   3.536   1.252
 7138TIP3   OH221354   3.562   5.167   1.654
 7138TIP3    H121355   3.554   5.134   1.564
 7138TIP3    H221356   3.634   5.116   1.691
 7139TIP3   OH221357   2.881   2.768   0.375
 7139TIP3    H121358   2.816   2.816   0.426
 7139TIP3    H221359   2.896   2.688   0.426
 7140TIP3   OH221360   1.219   3.865   5.461
 7140TIP3    H121361   1.297   3.812   5.444
 7140TIP3    H221362   1.218   3.875   5.556
 7141TIP3   OH221363   1.444   7.578   2.505
 7141TIP3    H121364   1.424   7.485   2.492
 7141TIP3    H221365   1.358   7.620   2.512
 7142TIP3   OH221366   4.436   1.364   6.142
 7142TIP3    H121367   4.361   1.344   6.087
 7142TIP3    H221368   4.462   1.280   6.179
 7143TIP3   OH221369   0.975   4.792   2.959
 7143TIP3    H121370   0.912   4.736   3.005
 7143TIP3    H221371   1.012   4.848   3.027
 7144TIP3   OH221372   7.476   5.665   1.106
 7144TIP3    H121373   7.561   5.694   1.138
 7144TIP3    H221374   7.435   5.622   1.181
 7145TIP3   OH221375   4.080   4.725   5.174
 7145TIP3    H121376   4.168   4.691   5.160
 7145TIP3    H221377   4.072   4.733   5.269
 7146TIP3   OH221378   8.149   7.759   6.531
 7146TIP3    H121379   8.205   7.744   6.607
 7146TIP3    H221380   8.109   7.845   6.547
 7147TIP3   OH221381   2.122   4.043   0.345
 7147TIP3    H121382   2.098   3.956   0.377
 7147TIP3    H221383   2.046   4.074   0.298
 7148TIP3   OH221384   6.760   6.886   3.425
 7148TIP3    H121385   6.733   6.843   3.506
 7148TIP3    H221386   6.712   6.841   3.356
 7149TIP3   OH221387   1.083   5.615   5.790
 7149TIP3    H121388   1.109   5.579   5.874
 7149TIP3    H221389   1.140   5.691   5.777
 7150TIP3   OH221390   2.302   7.561   3.562
 7150TIP3    H121391   2.244   7.602   3.498
 7150TIP3    H221392   2.260   7.479   3.585
 7151TIP3   OH221393   8.131   6.287   3.028
 7151TIP3    H121394   8.224   6.289   3.006
 7151TIP3    H221395   8.121   6.350   3.099
 7152TIP3   OH221396   1.982   3.679   3.701
 7152TIP3    H121397   2.020   3.706   3.785
 7152TIP3    H221398   1.988   3.757   3.646
 7153TIP3   OH221399   5.410   4.146   5.690
 7153TIP3    H121400   5.398   4.079   5.623
 7153TIP3    H221401   5.438   4.224   5.641
 7154TIP3   OH221402   6.298   7.800   5.178
 7154TIP3    H121403   6.247   7.849   5.114
 7154TIP3    H221404   6.338   7.867   5.233
 7155TIP3   OH221405   2.464   3.528   6.198
 7155TIP3    H121406   2.495   3.594   6.260
 7155TIP3    H221407   2.544   3.496   6.155
 7156TIP3   OH221408   5.092   7.483   1.598
 7156TIP3    H121409   5.073   7.389   1.604
 7156TIP3    H221410   5.041   7.523   1.669
 7157TIP3   OH221411   0.850   6.126   2.684
 7157TIP3    H121412   0.944   6.125   2.698
 7157TIP3    H221413   0.813   6.094   2.767
 7158TIP3   OH221414   7.460   5.826   3.289
 7158TIP3    H121415   7.494   5.834   3.379
 7158TIP3    H221416   7.537   5.838   3.234
 7159TIP3   OH221417   0.689   5.089   4.339
 7159TIP3    H121418   0.680   5.165   4.397
 7159TIP3    H221419   0.666   5.122   4.252
 7160TIP3   OH221420   8.319   7.506   0.604
 7160TIP3    H121421   8.388   7.468   0.658
 7160TIP3    H221422   8.338   7.600   0.603
 7161TIP3   OH221423   1.453   4.676   3.249
 7161TIP3    H121424   1.411   4.661   3.164
 7161TIP3    H221425   1.544   4.648   3.236
 7162TIP3   OH221426   3.642   1.612   5.833
 7162TIP3    H121427   3.554   1.611   5.870
 7162TIP3    H221428   3.692   1.670   5.890
 7163TIP3   OH221429   5.087   7.512   5.886
 7163TIP3    H121430   5.090   7.580   5.953
 7163TIP3    H221431   5.048   7.436   5.930
 7164TIP3   OH221432   5.758   1.628   3.792
 7164TIP3    H121433   5.722   1.595   3.874
 7164TIP3    H221434   5.786   1.717   3.814
 7165TIP3   OH221435   1.562   5.645   0.083
 7165TIP3    H121436   1.619   5.716   0.053
 7165TIP3    H221437   1.581   5.637   0.176
 7166TIP3   OH221438   1.279   2.546   2.020
 7166TIP3    H121439   1.261   2.625   2.071
 7166TIP3    H221440   1.262   2.572   1.929
 7167TIP3   OH221441   4.830   5.555   1.682
 7167TIP3    H121442   4.807   5.645   1.660
 7167TIP3    H221443   4.793   5.542   1.769
 7168TIP3   OH221444   5.690   1.750   0.835
 7168TIP3    H121445   5.728   1.820   0.888
 7168TIP3    H221446   5.598   1.774   0.827
 7169TIP3   OH221447   0.231   1.679   6.273
 7169TIP3    H121448   0.183   1.743   6.219
 7169TIP3    H221449   0.164   1.639   6.328
 7170TIP3   OH221450   7.992   0.659   2.781
 7170TIP3    H121451   7.945   0.582   2.811
 7170TIP3    H221452   7.932   0.732   2.798
 7171TIP3   OH221453   7.613   7.750   4.210
 7171TIP3    H121454   7.583   7.721   4.124
 7171TIP3    H221455   7.612   7.846   4.204
 7172TIP3   OH221456   8.162   3.291   1.687
 7172TIP3    H121457   8.215   3.317   1.762
 7172TIP3    H221458   8.166   3.367   1.628
 7173TIP3   OH221459   7.226   5.049   2.380
 7173TIP3    H121460   7.142   5.007   2.400
 7173TIP3    H221461   7.205   5.113   2.312
 7174TIP3   OH221462   4.810   1.513   3.468
 7174TIP3    H121463   4.836   1.501   3.377
 7174TIP3    H221464   4.871   1.460   3.518
 7175TIP3   OH221465   2.009   0.347   3.428
 7175TIP3    H121466   1.968   0.348   3.515
 7175TIP3    H221467   1.946   0.393   3.372
 7176TIP3   OH221468   5.650   0.286   4.904
 7176TIP3    H121469   5.579   0.261   4.845
 7176TIP3    H221470   5.719   0.320   4.846
 7177TIP3   OH221471   7.306   6.204   2.193
 7177TIP3    H121472   7.294   6.130   2.252
 7177TIP3    H221473   7.305   6.281   2.249
 7178TIP3   OH221474   0.196   2.369   4.397
 7178TIP3    H121475   0.159   2.283   4.378
 7178TIP3    H221476   0.202   2.412   4.312
 7179TIP3   OH221477   4.581   4.237   5.924
 7179TIP3    H121478   4.675   4.229   5.939
 7179TIP3    H221479   4.563   4.174   5.854
 7180TIP3   OH221480   2.193   2.365   2.278
 7180TIP3    H121481   2.128   2.432   2.259
 7180TIP3    H221482   2.159   2.286   2.237
 7181TIP3   OH221483   4.341   7.379   3.636
 7181TIP3    H121484   4.248   7.358   3.631
 7181TIP3    H221485   4.377   7.354   3.551
 7182TIP3   OH221486   1.593   0.916   6.560
 7182TIP3    H121487   1.545   0.864   6.495
 7182TIP3    H221488   1.560   1.005   6.549
 7183TIP3   OH221489   2.022   7.659   6.625
 7183TIP3    H121490   1.996   7.750   6.641
 7183TIP3    H221491   2.003   7.615   6.708
 7184TIP3   OH221492   3.233   4.004   3.948
 7184TIP3    H121493   3.279   3.927   3.981
 7184TIP3    H221494   3.191   4.042   4.025
 7185TIP3   OH221495   6.353   2.586   1.949
 7185TIP3    H121496   6.410   2.575   2.025
 7185TIP3    H221497   6.269   2.613   1.985
 7186TIP3   OH221498   6.568   2.726   1.816
 7186TIP3    H121499   6.501   2.671   1.855
 7186TIP3    H221500   6.529   2.759   1.735
 7187TIP3   OH221501   0.498   5.610   1.342
 7187TIP3    H121502   0.463   5.688   1.386
 7187TIP3    H221503   0.421   5.562   1.312
 7188TIP3   OH221504   3.300   1.969   2.103
 7188TIP3    H121505   3.242   1.926   2.166
 7188TIP3    H221506   3.332   2.047   2.148
 7189TIP3   OH221507   5.626   7.268   2.414
 7189TIP3    H121508   5.540   7.301   2.441
 7189TIP3    H221509   5.655   7.216   2.489
 7190TIP3   OH221510   1.508   0.637   1.885
 7190TIP3    H121511   1.541   0.725   1.868
 7190TIP3    H221512   1.501   0.598   1.798
 7191TIP3   OH221513   2.450   1.033   3.598
 7191TIP3    H121514   2.467   1.065   3.509
 7191TIP3    H221515   2.365   0.990   3.592
 7192TIP3   OH221516   2.554   5.614   4.469
 7192TIP3    H121517   2.508   5.679   4.415
 7192TIP3    H221518   2.601   5.560   4.407
 7193TIP3   OH221519   5.713   2.713   2.409
 7193TIP3    H121520   5.691   2.803   2.386
 7193TIP3    H221521   5.737   2.716   2.502
 7194TIP3   OH221522   6.753   1.419   4.698
 7194TIP3    H121523   6.823   1.473   4.736
 7194TIP3    H221524   6.731   1.462   4.616
 7195TIP3   OH221525   0.283   3.654   2.885
 7195TIP3    H121526   0.325   3.644   2.971
 7195TIP3    H221527   0.354   3.682   2.827
 7196TIP3   OH221528   1.068   3.972   3.378
 7196TIP3    H121529   1.132   4.041   3.394
 7196TIP3    H221530   1.007   4.009   3.315
 7197TIP3   OH221531   4.265   1.084   2.336
 7197TIP3    H121532   4.256   1.025   2.261
 7197TIP3    H221533   4.196   1.149   2.324
 7198TIP3   OH221534   6.928   1.786   5.007
 7198TIP3    H121535   6.982   1.860   4.979
 7198TIP3    H221536   6.939   1.785   5.103
 7199TIP3   OH221537   3.433   1.821   1.865
 7199TIP3    H121538   3.403   1.740   1.906
 7199TIP3    H221539   3.402   1.891   1.923
 7200TIP3   OH221540   6.267   5.041   5.553
 7200TIP3    H121541   6.300   5.084   5.474
 7200TIP3    H221542   6.316   4.959   5.558
 7201TIP3   OH221543   6.807   7.419   3.697
 7201TIP3    H121544   6.712   7.431   3.701
 7201TIP3    H221545   6.827   7.362   3.771
 7202TIP3   OH221546   0.508   1.937   0.910
 7202TIP3    H121547   0.521   1.844   0.891
 7202TIP3    H221548   0.583   1.980   0.869
 7203TIP3   OH221549   5.085   6.098  -0.025
 7203TIP3    H121550   5.015   6.090   0.040
 7203TIP3    H221551   5.092   6.192  -0.042
 7204TIP3   OH221552   0.651   6.919   4.172
 7204TIP3    H121553   0.592   6.984   4.134
 7204TIP3    H221554   0.739   6.951   4.152
 7205TIP3   OH221555   2.007   5.463   4.741
 7205TIP3    H121556   2.040   5.490   4.826
 7205TIP3    H221557   2.019   5.539   4.684
 7206TIP3   OH221558   4.142   4.494   2.956
 7206TIP3    H121559   4.180   4.406   2.954
 7206TIP3    H221560   4.048   4.479   2.948
 7207TIP3   OH221561   1.186   1.853   5.377
 7207TIP3    H121562   1.119   1.896   5.323
 7207TIP3    H221563   1.230   1.924   5.423
 7208TIP3   OH221564   0.457   7.373   5.765
 7208TIP3    H121565   0.403   7.377   5.686
 7208TIP3    H221566   0.518   7.446   5.756
 7209TIP3   OH221567   4.071   2.972   4.551
 7209TIP3    H121568   4.165   2.986   4.559
 7209TIP3    H221569   4.042   2.950   4.640
 7210TIP3   OH221570   2.307   3.065   0.134
 7210TIP3    H121571   2.383   3.093   0.184
 7210TIP3    H221572   2.285   2.979   0.171
 7211TIP3   OH221573   5.986   4.488   6.258
 7211TIP3    H121574   6.057   4.516   6.199
 7211TIP3    H221575   5.994   4.545   6.334
 7212TIP3   OH221576   4.215   6.906   6.359
 7212TIP3    H121577   4.223   6.996   6.328
 7212TIP3    H221578   4.301   6.867   6.345
 7213TIP3   OH221579   5.536   3.685   1.221
 7213TIP3    H121580   5.617   3.639   1.244
 7213TIP3    H221581   5.501   3.634   1.147
 7214TIP3   OH221582   1.503   2.870   6.318
 7214TIP3    H121583   1.423   2.840   6.274
 7214TIP3    H221584   1.568   2.876   6.247
 7215TIP3   OH221585   7.948   1.543   2.977
 7215TIP3    H121586   7.931   1.633   3.004
 7215TIP3    H221587   7.905   1.490   3.044
 7216TIP3   OH221588   3.734   5.669   1.801
 7216TIP3    H121589   3.661   5.612   1.825
 7216TIP3    H221590   3.745   5.656   1.707
 7217TIP3   OH221591   5.470   4.150   4.713
 7217TIP3    H121592   5.541   4.213   4.721
 7217TIP3    H221593   5.409   4.190   4.650
 7218TIP3   OH221594   4.473   6.160   6.746
 7218TIP3    H121595   4.430   6.213   6.813
 7218TIP3    H221596   4.511   6.223   6.685
 7219TIP3   OH221597   0.349   3.109   6.303
 7219TIP3    H121598   0.317   3.177   6.362
 7219TIP3    H221599   0.287   3.037   6.313
 7220TIP3   OH221600   5.544   3.194   0.369
 7220TIP3    H121601   5.554   3.217   0.462
 7220TIP3    H221602   5.534   3.099   0.369
 7221TIP3   OH221603   3.561   0.250   1.768
 7221TIP3    H121604   3.517   0.288   1.693
 7221TIP3    H221605   3.491   0.232   1.831
 7222TIP3   OH221606   0.491   5.924   3.335
 7222TIP3    H121607   0.417   5.870   3.308
 7222TIP3    H221608   0.517   5.971   3.256
 7223TIP3   OH221609   1.648   4.343   0.169
 7223TIP3    H121610   1.591   4.345   0.246
 7223TIP3    H221611   1.679   4.253   0.165
 7224TIP3   OH221612   6.224   2.974   2.688
 7224TIP3    H121613   6.286   3.041   2.660
 7224TIP3    H221614   6.214   2.987   2.782
 7225TIP3   OH221615   6.752   3.626   2.907
 7225TIP3    H121616   6.751   3.675   2.989
 7225TIP3    H221617   6.703   3.680   2.845
 7226TIP3   OH221618   2.058   0.401   2.861
 7226TIP3    H121619   2.049   0.492   2.889
 7226TIP3    H221620   2.072   0.352   2.942
 7227TIP3   OH221621   4.951   2.399   3.690
 7227TIP3    H121622   4.952   2.350   3.607
 7227TIP3    H221623   4.975   2.488   3.665
 7228TIP3   OH221624   4.894   3.024   1.147
 7228TIP3    H121625   4.818   3.004   1.093
 7228TIP3    H221626   4.866   3.005   1.237
 7229TIP3   OH221627   6.406   5.512   3.477
 7229TIP3    H121628   6.464   5.453   3.429
 7229TIP3    H221629   6.425   5.494   3.570
 7230TIP3   OH221630   8.229   5.912   4.725
 7230TIP3    H121631   8.233   5.818   4.706
 7230TIP3    H221632   8.135   5.932   4.726
 7231TIP3   OH221633   3.043   1.646   1.152
 7231TIP3    H121634   3.090   1.567   1.125
 7231TIP3    H221635   2.951   1.620   1.152
 7232TIP3   OH221636   6.443   2.903   3.329
 7232TIP3    H121637   6.434   2.973   3.393
 7232TIP3    H221638   6.391   2.831   3.364
 7233TIP3   OH221639   6.408   1.011   5.525
 7233TIP3    H121640   6.367   0.972   5.602
 7233TIP3    H221641   6.422   1.103   5.550
 7234TIP3   OH221642   7.168   4.292   2.203
 7234TIP3    H121643   7.179   4.310   2.110
 7234TIP3    H221644   7.258   4.284   2.236
 7235TIP3   OH221645   7.257   2.650   0.737
 7235TIP3    H121646   7.270   2.737   0.776
 7235TIP3    H221647   7.278   2.662   0.644
 7236TIP3   OH221648   0.370   4.127   4.842
 7236TIP3    H121649   0.304   4.189   4.872
 7236TIP3    H221650   0.398   4.081   4.921
 7237TIP3   OH221651   7.113   2.653   1.555
 7237TIP3    H121652   7.082   2.568   1.526
 7237TIP3    H221653   7.034   2.701   1.577
 7238TIP3   OH221654   6.431   1.337   5.540
 7238TIP3    H121655   6.423   1.376   5.627
 7238TIP3    H221656   6.499   1.271   5.550
 7239TIP3   OH221657   2.997   4.110   2.074
 7239TIP3    H121658   2.940   4.113   1.997
 7239TIP3    H221659   2.963   4.179   2.132
 7240TIP3   OH221660   1.604   6.021   4.260
 7240TIP3    H121661   1.597   5.968   4.340
 7240TIP3    H221662   1.651   5.964   4.198
 7241TIP3   OH221663   4.288   1.274   4.122
 7241TIP3    H121664   4.316   1.346   4.066
 7241TIP3    H221665   4.192   1.281   4.125
 7242TIP3   OH221666   1.116   6.237   1.112
 7242TIP3    H121667   1.165   6.214   1.191
 7242TIP3    H221668   1.159   6.317   1.080
 7243TIP3   OH221669   2.759   3.961   1.300
 7243TIP3    H121670   2.844   3.943   1.340
 7243TIP3    H221671   2.712   3.877   1.302
 7244TIP3   OH221672   3.282   2.658   0.001
 7244TIP3    H121673   3.311   2.743  -0.033
 7244TIP3    H221674   3.195   2.675   0.038
 7245TIP3   OH221675   4.735   1.401   5.739
 7245TIP3    H121676   4.697   1.340   5.803
 7245TIP3    H221677   4.719   1.488   5.776
 7246TIP3   OH221678   2.675   6.079   3.649
 7246TIP3    H121679   2.752   6.128   3.677
 7246TIP3    H221680   2.651   6.119   3.565
 7247TIP3   OH221681   5.805   0.933   3.524
 7247TIP3    H121682   5.867   0.860   3.523
 7247TIP3    H221683   5.859   1.011   3.512
 7248TIP3   OH221684   7.465   2.547   0.885
 7248TIP3    H121685   7.488   2.625   0.936
 7248TIP3    H221686   7.387   2.573   0.836
 7249TIP3   OH221687   8.375   3.255   5.606
 7249TIP3    H121688   8.403   3.203   5.681
 7249TIP3    H221689   8.451   3.308   5.584
 7250TIP3   OH221690   1.848   6.327   5.630
 7250TIP3    H121691   1.762   6.361   5.657
 7250TIP3    H221692   1.884   6.288   5.709
 7251TIP3   OH221693   1.385   2.198   0.659
 7251TIP3    H121694   1.392   2.255   0.736
 7251TIP3    H221695   1.336   2.122   0.690
 7252TIP3   OH221696   3.167   4.920   2.698
 7252TIP3    H121697   3.141   4.983   2.630
 7252TIP3    H221698   3.162   4.835   2.655
 7253TIP3   OH221699   3.381   6.171   4.627
 7253TIP3    H121700   3.397   6.131   4.712
 7253TIP3    H221701   3.400   6.264   4.639
 7254TIP3   OH221702   7.165   3.800   0.930
 7254TIP3    H121703   7.098   3.857   0.968
 7254TIP3    H221704   7.167   3.724   0.988
 7255TIP3   OH221705   0.083   7.258   4.474
 7255TIP3    H121706  -0.005   7.248   4.436
 7255TIP3    H221707   0.072   7.324   4.542
 7256TIP3   OH221708   3.756   6.476   3.025
 7256TIP3    H121709   3.764   6.571   3.011
 7256TIP3    H221710   3.675   6.466   3.075
 7257TIP3   OH221711   4.663   2.410   1.974
 7257TIP3    H121712   4.668   2.344   1.906
 7257TIP3    H221713   4.721   2.480   1.945
 7258TIP3   OH221714   1.537   4.211   3.084
 7258TIP3    H121715   1.545   4.137   3.144
 7258TIP3    H221716   1.455   4.195   3.038
 7259TIP3   OH221717   4.782   7.619   2.145
 7259TIP3    H121718   4.705   7.666   2.177
 7259TIP3    H221719   4.754   7.580   2.063
 7260TIP3   OH221720   6.796   3.936   0.442
 7260TIP3    H121721   6.808   3.858   0.388
 7260TIP3    H221722   6.702   3.949   0.446
 7261TIP3   OH221723   6.880   6.427   4.312
 7261TIP3    H121724   6.784   6.427   4.308
 7261TIP3    H221725   6.900   6.379   4.393
 7262TIP3   OH221726   8.378   2.798   5.973
 7262TIP3    H121727   8.417   2.775   5.889
 7262TIP3    H221728   8.284   2.800   5.955
 7263TIP3   OH221729   7.639   7.560   2.127
 7263TIP3    H121730   7.588   7.487   2.162
 7263TIP3    H221731   7.637   7.627   2.196
 7264TIP3   OH221732   3.052   6.446   5.639
 7264TIP3    H121733   3.053   6.526   5.587
 7264TIP3    H221734   2.964   6.410   5.625
 7265TIP3   OH221735   2.676   7.294   6.186
 7265TIP3    H121736   2.611   7.325   6.248
 7265TIP3    H221737   2.683   7.363   6.120
 7266TIP3   OH221738   2.153   1.477   0.942
 7266TIP3    H121739   2.179   1.385   0.952
 7266TIP3    H221740   2.076   1.487   0.999
 7267TIP3   OH221741   7.277   6.890   2.536
 7267TIP3    H121742   7.237   6.928   2.615
 7267TIP3    H221743   7.258   6.797   2.542
 7268TIP3   OH221744   6.600   6.035   4.680
 7268TIP3    H121745   6.621   6.128   4.689
 7268TIP3    H221746   6.677   5.997   4.639
 7269TIP3   OH221747   3.394   6.142   0.288
 7269TIP3    H121748   3.373   6.128   0.196
 7269TIP3    H221749   3.433   6.229   0.291
 7270TIP3   OH221750   7.155   2.830   4.666
 7270TIP3    H121751   7.181   2.770   4.597
 7270TIP3    H221752   7.232   2.839   4.721
 7271TIP3   OH221753   4.893   1.167   3.353
 7271TIP3    H121754   4.876   1.159   3.447
 7271TIP3    H221755   4.845   1.246   3.327
 7272TIP3   OH221756   1.946   3.062   1.575
 7272TIP3    H121757   1.920   2.983   1.529
 7272TIP3    H221758   1.867   3.091   1.621
 7273TIP3   OH221759   1.338   7.166   3.671
 7273TIP3    H121760   1.415   7.115   3.647
 7273TIP3    H221761   1.296   7.115   3.740
 7274TIP3   OH221762   8.095   3.813   6.214
 7274TIP3    H121763   8.166   3.799   6.151
 7274TIP3    H221764   8.082   3.908   6.214
 7275TIP3   OH221765   6.790   5.293   1.065
 7275TIP3    H121766   6.714   5.259   1.018
 7275TIP3    H221767   6.862   5.283   1.002
 7276TIP3   OH221768   2.147   5.186   4.932
 7276TIP3    H121769   2.080   5.170   4.866
 7276TIP3    H221770   2.105   5.244   4.995
 7277TIP3   OH221771   7.406   6.805   5.815
 7277TIP3    H121772   7.385   6.817   5.908
 7277TIP3    H221773   7.428   6.893   5.784
 7278TIP3   OH221774   2.667   5.339   6.765
 7278TIP3    H121775   2.732   5.371   6.702
 7278TIP3    H221776   2.694   5.376   6.849
 7279TIP3   OH221777   1.327   4.388   3.655
 7279TIP3    H121778   1.317   4.436   3.738
 7279TIP3    H221779   1.308   4.452   3.587
 7280TIP3   OH221780   2.388   3.448   3.896
 7280TIP3    H121781   2.324   3.484   3.835
 7280TIP3    H221782   2.411   3.362   3.859
 7281TIP3   OH221783   5.212   7.753   1.245
 7281TIP3    H121784   5.302   7.786   1.248
 7281TIP3    H221785   5.194   7.740   1.152
 7282TIP3   OH221786   7.202   7.401   0.235
 7282TIP3    H121787   7.190   7.345   0.158
 7282TIP3    H221788   7.220   7.340   0.306
 7283TIP3   OH221789   4.248   0.555   3.902
 7283TIP3    H121790   4.182   0.584   3.965
 7283TIP3    H221791   4.327   0.544   3.955
 7284TIP3   OH221792   4.149   4.601   6.632
 7284TIP3    H121793   4.138   4.560   6.718
 7284TIP3    H221794   4.066   4.586   6.587
 7285TIP3   OH221795   1.351   6.599   0.249
 7285TIP3    H121796   1.415   6.664   0.218
 7285TIP3    H221797   1.327   6.550   0.171
 7286TIP3   OH221798   8.240   5.189   3.252
 7286TIP3    H121799   8.174   5.121   3.259
 7286TIP3    H221800   8.319   5.150   3.289
 7287TIP3   OH221801   4.570   2.899   4.870
 7287TIP3    H121802   4.542   2.817   4.910
 7287TIP3    H221803   4.664   2.889   4.856
 7288TIP3   OH221804   4.361   5.612   6.207
 7288TIP3    H121805   4.305   5.586   6.133
 7288TIP3    H221806   4.302   5.658   6.266
 7289TIP3   OH221807   5.631   6.486   6.250
 7289TIP3    H121808   5.710   6.443   6.285
 7289TIP3    H221809   5.664   6.542   6.180
 7290TIP3   OH221810   3.470   6.523   3.567
 7290TIP3    H121811   3.375   6.525   3.561
 7290TIP3    H221812   3.494   6.611   3.597
 7291TIP3   OH221813   8.320   6.303   1.505
 7291TIP3    H121814   8.281   6.296   1.592
 7291TIP3    H221815   8.253   6.347   1.453
 7292TIP3   OH221816   1.354   0.331   5.471
 7292TIP3    H121817   1.262   0.322   5.445
 7292TIP3    H221818   1.358   0.415   5.516
 7293TIP3   OH221819   4.178   0.879   4.331
 7293TIP3    H121820   4.229   0.819   4.385
 7293TIP3    H221821   4.096   0.891   4.379
 7294TIP3   OH221822   0.039   5.872   3.701
 7294TIP3    H121823   0.009   5.939   3.640
 7294TIP3    H221824   0.060   5.920   3.781
 7295TIP3   OH221825   5.001   2.380   5.701
 7295TIP3    H121826   5.097   2.386   5.699
 7295TIP3    H221827   4.979   2.386   5.793
 7296TIP3   OH221828   4.162   2.304   5.645
 7296TIP3    H121829   4.229   2.372   5.639
 7296TIP3    H221830   4.083   2.345   5.609
 7297TIP3   OH221831   0.676   2.317   3.480
 7297TIP3    H121832   0.672   2.388   3.417
 7297TIP3    H221833   0.615   2.343   3.550
 7298TIP3   OH221834   7.587   1.908   3.093
 7298TIP3    H121835   7.664   1.965   3.085
 7298TIP3    H221836   7.615   1.824   3.055
 7299TIP3   OH221837   4.588   5.222   4.398
 7299TIP3    H121838   4.539   5.155   4.349
 7299TIP3    H221839   4.646   5.261   4.333
 7300TIP3   OH221840   2.025   2.006   0.488
 7300TIP3    H121841   2.064   1.919   0.490
 7300TIP3    H221842   2.005   2.021   0.396
 7301TIP3   OH221843   6.419   3.558   2.744
 7301TIP3    H121844   6.374   3.619   2.686
 7301TIP3    H221845   6.400   3.590   2.832
 7302TIP3   OH221846   1.558   5.251   4.450
 7302TIP3    H121847   1.526   5.220   4.535
 7302TIP3    H221848   1.522   5.339   4.441
 7303TIP3   OH221849   5.419   6.961   2.937
 7303TIP3    H121850   5.392   6.979   3.028
 7303TIP3    H221851   5.514   6.963   2.939
 7304TIP3   OH221852   3.290   3.087   1.263
 7304TIP3    H121853   3.296   3.041   1.347
 7304TIP3    H221854   3.280   3.179   1.287
 7305TIP3   OH221855   4.377   0.985   3.085
 7305TIP3    H121856   4.352   0.991   3.177
 7305TIP3    H221857   4.431   0.906   3.081
 7306TIP3   OH221858   4.449   7.209   5.669
 7306TIP3    H121859   4.418   7.198   5.579
 7306TIP3    H221860   4.509   7.136   5.683
 7307TIP3   OH221861   0.182   2.633   4.507
 7307TIP3    H121862   0.148   2.618   4.596
 7307TIP3    H221863   0.211   2.546   4.478
 7308TIP3   OH221864   6.010   1.375   1.970
 7308TIP3    H121865   5.989   1.285   1.993
 7308TIP3    H221866   6.061   1.368   1.890
 7309TIP3   OH221867   3.448   6.018   2.516
 7309TIP3    H121868   3.371   6.017   2.572
 7309TIP3    H221869   3.426   6.078   2.445
 7310TIP3   OH221870   7.115   5.699   5.626
 7310TIP3    H121871   7.138   5.734   5.540
 7310TIP3    H221872   7.156   5.758   5.689
 7311TIP3   OH221873   8.010   0.397   0.942
 7311TIP3    H121874   7.997   0.377   1.034
 7311TIP3    H221875   8.096   0.361   0.921
 7312TIP3   OH221876   2.288   1.803   5.071
 7312TIP3    H121877   2.368   1.787   5.020
 7312TIP3    H221878   2.249   1.717   5.082
 7313TIP3   OH221879   1.585   1.509   5.756
 7313TIP3    H121880   1.523   1.444   5.723
 7313TIP3    H221881   1.582   1.580   5.692
 7314TIP3   OH221882   6.129   3.932   6.693
 7314TIP3    H121883   6.212   3.893   6.722
 7314TIP3    H221884   6.120   4.011   6.745
 7315TIP3   OH221885   3.898   4.487   3.775
 7315TIP3    H121886   3.988   4.465   3.750
 7315TIP3    H221887   3.846   4.460   3.699
 7316TIP3   OH221888   1.221   3.940   1.694
 7316TIP3    H121889   1.167   3.920   1.618
 7316TIP3    H221890   1.281   4.008   1.663
 7317TIP3   OH221891   6.086   4.950   5.119
 7317TIP3    H121892   6.142   4.993   5.054
 7317TIP3    H221893   6.086   5.011   5.193
 7318TIP3   OH221894   2.721   5.124   4.449
 7318TIP3    H121895   2.737   5.210   4.410
 7318TIP3    H221896   2.625   5.118   4.455
 7319TIP3   OH221897   1.566   2.414   4.289
 7319TIP3    H121898   1.659   2.437   4.287
 7319TIP3    H221899   1.548   2.382   4.200
 7320TIP3   OH221900   7.859   2.028   5.104
 7320TIP3    H121901   7.824   1.940   5.118
 7320TIP3    H221902   7.921   2.042   5.176
 7321TIP3   OH221903   0.746   1.038   2.073
 7321TIP3    H121904   0.713   1.126   2.090
 7321TIP3    H221905   0.787   1.045   1.986
 7322TIP3   OH221906   1.680   0.616   3.932
 7322TIP3    H121907   1.632   0.572   4.002
 7322TIP3    H221908   1.747   0.668   3.978
 7323TIP3   OH221909   0.619   1.907   0.470
 7323TIP3    H121910   0.538   1.866   0.501
 7323TIP3    H221911   0.610   1.999   0.495
 7324TIP3   OH221912   7.944   3.446   5.814
 7324TIP3    H121913   7.873   3.410   5.762
 7324TIP3    H221914   7.919   3.537   5.828
 7325TIP3   OH221915   8.061   7.755   1.620
 7325TIP3    H121916   8.112   7.740   1.700
 7325TIP3    H221917   7.975   7.718   1.640
 7326TIP3   OH221918   1.300   0.101   4.705
 7326TIP3    H121919   1.361   0.029   4.721
 7326TIP3    H221920   1.231   0.089   4.770
 7327TIP3   OH221921   4.524   2.607   6.282
 7327TIP3    H121922   4.488   2.537   6.228
 7327TIP3    H221923   4.452   2.671   6.289
 7328TIP3   OH221924   3.770   0.683   3.491
 7328TIP3    H121925   3.729   0.607   3.532
 7328TIP3    H221926   3.720   0.758   3.525
 7329TIP3   OH221927   3.617   1.705   2.222
 7329TIP3    H121928   3.633   1.662   2.306
 7329TIP3    H221929   3.644   1.640   2.156
 7330TIP3   OH221930   2.623   5.352   6.404
 7330TIP3    H121931   2.673   5.381   6.481
 7330TIP3    H221932   2.638   5.420   6.339
 7331TIP3   OH221933   4.410   1.061   2.009
 7331TIP3    H121934   4.337   1.017   2.051
 7331TIP3    H221935   4.448   0.995   1.951
 7332TIP3   OH221936   2.849   0.004   5.951
 7332TIP3    H121937   2.854  -0.002   6.047
 7332TIP3    H221938   2.775  -0.053   5.927
 7333TIP3   OH221939   1.052   6.613   2.408
 7333TIP3    H121940   1.094   6.677   2.350
 7333TIP3    H221941   1.015   6.665   2.479
 7334TIP3   OH221942   4.187   0.059   0.158
 7334TIP3    H121943   4.253   0.114   0.115
 7334TIP3    H221944   4.108   0.070   0.105
 7335TIP3   OH221945   1.858   4.831   1.270
 7335TIP3    H121946   1.865   4.760   1.207
 7335TIP3    H221947   1.884   4.792   1.353
 7336TIP3   OH221948   2.098   3.948   2.927
 7336TIP3    H121949   2.137   4.034   2.910
 7336TIP3    H221950   2.023   3.944   2.869
 7337TIP3   OH221951   6.555   1.861   0.468
 7337TIP3    H121952   6.608   1.880   0.391
 7337TIP3    H221953   6.467   1.893   0.446
 7338TIP3   OH221954   5.226   2.255   6.153
 7338TIP3    H121955   5.180   2.334   6.126
 7338TIP3    H221956   5.286   2.284   6.221
 7339TIP3   OH221957   3.107   7.823   6.146
 7339TIP3    H121958   3.090   7.877   6.223
 7339TIP3    H221959   3.142   7.741   6.181
 7340TIP3   OH221960   4.589   7.401   3.022
 7340TIP3    H121961   4.504   7.357   3.023
 7340TIP3    H221962   4.610   7.414   3.114
 7341TIP3   OH221963   4.523   1.091   0.024
 7341TIP3    H121964   4.572   1.021   0.066
 7341TIP3    H221965   4.587   1.162   0.014
 7342TIP3   OH221966   6.132   0.077   4.797
 7342TIP3    H121967   6.200   0.010   4.807
 7342TIP3    H221968   6.066   0.054   4.862
 7343TIP3   OH221969   2.881   0.802   3.218
 7343TIP3    H121970   2.897   0.739   3.288
 7343TIP3    H221971   2.928   0.881   3.244
 7344TIP3   OH221972   0.838   0.363   3.475
 7344TIP3    H121973   0.931   0.343   3.490
 7344TIP3    H221974   0.796   0.344   3.559
 7345TIP3   OH221975   3.307   3.561   5.321
 7345TIP3    H121976   3.252   3.614   5.262
 7345TIP3    H221977   3.291   3.470   5.293
 7346TIP3   OH221978   3.930   3.763   0.980
 7346TIP3    H121979   4.000   3.807   0.931
 7346TIP3    H221980   3.975   3.698   1.033
 7347TIP3   OH221981   2.794   1.896   3.501
 7347TIP3    H121982   2.815   1.898   3.408
 7347TIP3    H221983   2.751   1.812   3.515
 7348TIP3   OH221984   2.694   0.244   3.032
 7348TIP3    H121985   2.675   0.156   3.065
 7348TIP3    H221986   2.649   0.302   3.093
 7349TIP3   OH221987   4.840   6.325   2.866
 7349TIP3    H121988   4.874   6.368   2.944
 7349TIP3    H221989   4.890   6.243   2.860
 7350TIP3   OH221990   8.188   0.774   5.273
 7350TIP3    H121991   8.271   0.787   5.319
 7350TIP3    H221992   8.124   0.758   5.342
 7351TIP3   OH221993   8.191   2.720   2.879
 7351TIP3    H121994   8.243   2.685   2.952
 7351TIP3    H221995   8.167   2.642   2.828
 7352TIP3   OH221996   4.115   5.424   1.514
 7352TIP3    H121997   4.205   5.413   1.547
 7352TIP3    H221998   4.104   5.519   1.506
 7353TIP3   OH221999   6.988   0.296   5.338
 7353TIP3    H122000   6.933   0.225   5.304
 7353TIP3    H222001   6.940   0.329   5.414
 7354TIP3   OH222002   8.249   5.759   6.700
 7354TIP3    H122003   8.256   5.691   6.632
 7354TIP3    H222004   8.338   5.771   6.732
 7355TIP3   OH222005   3.499   3.457   1.855
 7355TIP3    H122006   3.497   3.551   1.875
 7355TIP3    H222007   3.588   3.430   1.878
 7356TIP3   OH222008   1.458   7.023   5.168
 7356TIP3    H122009   1.398   7.089   5.204
 7356TIP3    H222010   1.499   6.984   5.245
 7357TIP3   OH222011   2.010   3.900   3.538
 7357TIP3    H122012   1.998   3.894   3.443
 7357TIP3    H222013   2.002   3.993   3.557
 7358TIP3   OH222014   2.296   0.334   6.302
 7358TIP3    H122015   2.345   0.372   6.375
 7358TIP3    H222016   2.338   0.249   6.287
 7359TIP3   OH222017   4.602   2.888   6.331
 7359TIP3    H122018   4.680   2.884   6.387
 7359TIP3    H222019   4.540   2.828   6.372
 7360TIP3   OH222020   6.071   4.071   4.252
 7360TIP3    H122021   6.050   3.993   4.201
 7360TIP3    H222022   6.162   4.058   4.279
 7361TIP3   OH222023   2.041   2.068   3.632
 7361TIP3    H122024   2.109   2.001   3.637
 7361TIP3    H222025   1.998   2.053   3.548
 7362TIP3   OH222026   3.673   7.569   1.925
 7362TIP3    H122027   3.687   7.534   1.837
 7362TIP3    H222028   3.701   7.499   1.984
 7363TIP3   OH222029   7.357   5.581   3.496
 7363TIP3    H122030   7.393   5.606   3.411
 7363TIP3    H222031   7.314   5.660   3.528
 7364TIP3   OH222032   2.185   5.356   6.251
 7364TIP3    H122033   2.111   5.400   6.292
 7364TIP3    H222034   2.161   5.348   6.159
 7365TIP3   OH222035   1.027   2.282   3.705
 7365TIP3    H122036   1.021   2.201   3.654
 7365TIP3    H222037   0.936   2.306   3.722
 7366TIP3   OH222038   2.718   4.718   4.792
 7366TIP3    H122039   2.704   4.809   4.815
 7366TIP3    H222040   2.767   4.721   4.709
 7367TIP3   OH222041   1.645   1.128   3.860
 7367TIP3    H122042   1.572   1.074   3.891
 7367TIP3    H222043   1.714   1.066   3.838
 7368TIP3   OH222044   3.484   3.159   5.366
 7368TIP3    H122045   3.551   3.092   5.349
 7368TIP3    H222046   3.534   3.237   5.388
 7369TIP3   OH222047   1.584   6.609   3.172
 7369TIP3    H122048   1.619   6.601   3.083
 7369TIP3    H222049   1.571   6.518   3.200
 7370TIP3   OH222050   2.724   4.510   0.558
 7370TIP3    H122051   2.671   4.574   0.509
 7370TIP3    H222052   2.813   4.542   0.551
 7371TIP3   OH222053   0.088   3.961   3.375
 7371TIP3    H122054   0.175   3.936   3.345
 7371TIP3    H222055   0.028   3.914   3.317
 7372TIP3   OH222056   2.295   6.389   1.982
 7372TIP3    H122057   2.251   6.472   1.966
 7372TIP3    H222058   2.249   6.326   1.926
 7373TIP3   OH222059   2.446   4.655   1.086
 7373TIP3    H122060   2.535   4.686   1.068
 7373TIP3    H222061   2.457   4.585   1.151
 7374TIP3   OH222062   8.063   1.978   2.676
 7374TIP3    H122063   7.981   2.014   2.641
 7374TIP3    H222064   8.099   1.927   2.603
 7375TIP3   OH222065   2.221   6.472   5.925
 7375TIP3    H122066   2.300   6.418   5.925
 7375TIP3    H222067   2.250   6.557   5.959
 7376TIP3   OH222068   7.061   1.112   0.838
 7376TIP3    H122069   6.971   1.143   0.828
 7376TIP3    H222070   7.076   1.057   0.761
 7377TIP3   OH222071   7.168   0.031   2.511
 7377TIP3    H122072   7.232  -0.035   2.484
 7377TIP3    H222073   7.189   0.048   2.603
 7378TIP3   OH222074   4.285   6.240   1.812
 7378TIP3    H122075   4.358   6.180   1.827
 7378TIP3    H222076   4.321   6.306   1.753
 7379TIP3   OH222077   4.835   0.972   1.668
 7379TIP3    H122078   4.891   1.024   1.612
 7379TIP3    H222079   4.749   0.975   1.627
 7380TIP3   OH222080   6.594   7.694   6.846
 7380TIP3    H122081   6.519   7.728   6.894
 7380TIP3    H222082   6.669   7.714   6.902
 7381TIP3   OH222083   0.560   4.471   1.782
 7381TIP3    H122084   0.527   4.557   1.757
 7381TIP3    H222085   0.481   4.417   1.787
 7382TIP3   OH222086   5.931   7.560   3.846
 7382TIP3    H122087   5.988   7.626   3.886
 7382TIP3    H222088   5.981   7.479   3.853
 7383TIP3   OH222089   4.456   0.708   0.255
 7383TIP3    H122090   4.419   0.754   0.330
 7383TIP3    H222091   4.440   0.615   0.274
 7384TIP3   OH222092   4.419   5.326   4.584
 7384TIP3    H122093   4.452   5.298   4.669
 7384TIP3    H222094   4.479   5.288   4.520
 7385TIP3   OH222095   7.613   5.938   6.265
 7385TIP3    H122096   7.540   5.908   6.319
 7385TIP3    H222097   7.691   5.904   6.309
 7386TIP3   OH222098   6.162   4.139   1.777
 7386TIP3    H122099   6.100   4.076   1.738
 7386TIP3    H222100   6.160   4.119   1.871
 7387TIP3   OH222101   1.783   0.298   3.006
 7387TIP3    H122102   1.858   0.246   3.036
 7387TIP3    H222103   1.719   0.292   3.077
 7388TIP3   OH222104   5.853   5.377   0.716
 7388TIP3    H122105   5.796   5.353   0.642
 7388TIP3    H222106   5.888   5.293   0.747
 7389TIP3   OH222107   2.804   0.046   2.320
 7389TIP3    H122108   2.754   0.085   2.248
 7389TIP3    H222109   2.740  -0.005   2.369
 7390TIP3   OH222110   2.305   4.734   0.184
 7390TIP3    H122111   2.287   4.640   0.180
 7390TIP3    H222112   2.337   4.749   0.273
 7391TIP3   OH222113   6.574   0.124   2.758
 7391TIP3    H122114   6.520   0.104   2.682
 7391TIP3    H222115   6.527   0.193   2.804
 7392TIP3   OH222116   5.462   6.290   4.299
 7392TIP3    H122117   5.494   6.243   4.376
 7392TIP3    H222118   5.368   6.272   4.298
 7393TIP3   OH222119   8.282   2.847   5.341
 7393TIP3    H122120   8.198   2.803   5.332
 7393TIP3    H222121   8.270   2.932   5.299
 7394TIP3   OH222122   1.176   2.513   4.117
 7394TIP3    H122123   1.223   2.573   4.059
 7394TIP3    H222124   1.120   2.463   4.059
 7395TIP3   OH222125   1.846   1.209   2.247
 7395TIP3    H122126   1.817   1.137   2.192
 7395TIP3    H222127   1.784   1.280   2.229
 7396TIP3   OH222128   1.616   0.209   3.206
 7396TIP3    H122129   1.545   0.148   3.225
 7396TIP3    H222130   1.625   0.261   3.285
 7397TIP3   OH222131   4.368   7.671   3.367
 7397TIP3    H122132   4.318   7.618   3.305
 7397TIP3    H222133   4.321   7.755   3.370
 7398TIP3   OH222134   8.006   1.058   1.880
 7398TIP3    H122135   7.918   1.022   1.896
 7398TIP3    H222136   8.019   1.049   1.786
 7399TIP3   OH222137   0.280   2.691   4.881
 7399TIP3    H122138   0.284   2.595   4.878
 7399TIP3    H222139   0.191   2.710   4.909
 7400TIP3   OH222140   6.561   3.438   5.735
 7400TIP3    H122141   6.524   3.365   5.786
 7400TIP3    H222142   6.593   3.397   5.655
 7401TIP3   OH222143   2.642   1.152   2.510
 7401TIP3    H122144   2.602   1.238   2.524
 7401TIP3    H222145   2.729   1.172   2.474
 7402TIP3   OH222146   6.824   3.427   0.216
 7402TIP3    H122147   6.730   3.443   0.208
 7402TIP3    H222148   6.833   3.380   0.299
 7403TIP3   OH222149   3.818   0.361   5.392
 7403TIP3    H122150   3.787   0.394   5.308
 7403TIP3    H222151   3.882   0.293   5.368
 7404TIP3   OH222152   1.318   4.234   5.908
 7404TIP3    H122153   1.370   4.174   5.962
 7404TIP3    H222154   1.241   4.183   5.883
 7405TIP3   OH222155   6.143   4.009   0.568
 7405TIP3    H122156   6.087   3.950   0.518
 7405TIP3    H222157   6.099   4.094   0.563
 7406TIP3   OH222158   1.496   1.215   3.451
 7406TIP3    H122159   1.473   1.267   3.528
 7406TIP3    H222160   1.412   1.196   3.410
 7407TIP3   OH222161   6.756   2.279   2.833
 7407TIP3    H122162   6.843   2.258   2.800
 7407TIP3    H222163   6.763   2.269   2.928
 7408TIP3   OH222164   4.047   5.697   4.002
 7408TIP3    H122165   3.992   5.775   3.997
 7408TIP3    H222166   4.090   5.703   4.087
 7409TIP3   OH222167   2.875   4.140   2.874
 7409TIP3    H122168   2.932   4.175   2.806
 7409TIP3    H222169   2.871   4.046   2.856
 7410TIP3   OH222170   2.306   5.200   1.147
 7410TIP3    H122171   2.265   5.284   1.125
 7410TIP3    H222172   2.233   5.144   1.173
 7411TIP3   OH222173   0.532   5.775   2.209
 7411TIP3    H122174   0.622   5.743   2.199
 7411TIP3    H222175   0.538   5.842   2.277
 7412TIP3   OH222176   1.288   7.779   4.757
 7412TIP3    H122177   1.200   7.792   4.793
 7412TIP3    H222178   1.282   7.811   4.667
 7413TIP3   OH222179   1.068   7.263   5.959
 7413TIP3    H122180   1.055   7.287   5.867
 7413TIP3    H222181   1.115   7.338   5.996
 7414TIP3   OH222182   4.432   5.835   3.017
 7414TIP3    H122183   4.373   5.910   3.015
 7414TIP3    H222184   4.484   5.847   3.096
 7415TIP3   OH222185   6.050   2.924   5.689
 7415TIP3    H122186   5.973   2.981   5.686
 7415TIP3    H222187   6.050   2.889   5.778
 7416TIP3   OH222188   5.838   0.053   3.468
 7416TIP3    H122189   5.754   0.014   3.489
 7416TIP3    H222190   5.890   0.042   3.547
 7417TIP3   OH222191   6.166   6.967   2.264
 7417TIP3    H122192   6.157   7.055   2.300
 7417TIP3    H222193   6.086   6.922   2.290
 7418TIP3   OH222194   3.456   1.105   3.686
 7418TIP3    H122195   3.506   1.160   3.747
 7418TIP3    H222196   3.408   1.044   3.742
 7419TIP3   OH222197   2.156   4.484   1.075
 7419TIP3    H122198   2.122   4.451   0.992
 7419TIP3    H222199   2.250   4.493   1.061
 7420TIP3   OH222200   5.839   5.185   6.607
 7420TIP3    H122201   5.843   5.250   6.677
 7420TIP3    H222202   5.925   5.144   6.606
 7421TIP3   OH222203   5.438   5.207   4.188
 7421TIP3    H122204   5.442   5.170   4.277
 7421TIP3    H222205   5.370   5.157   4.144
 7422TIP3   OH222206   6.301   1.463   4.562
 7422TIP3    H122207   6.360   1.406   4.612
 7422TIP3    H222208   6.358   1.529   4.524
 7423TIP3   OH222209   1.961   0.755   1.386
 7423TIP3    H122210   1.936   0.847   1.400
 7423TIP3    H222211   1.934   0.736   1.297
 7424TIP3   OH222212   1.502   2.237   1.124
 7424TIP3    H122213   1.422   2.203   1.164
 7424TIP3    H222214   1.566   2.235   1.194
 7425TIP3   OH222215   1.391  -0.009   1.192
 7425TIP3    H122216   1.410   0.077   1.230
 7425TIP3    H222217   1.330   0.009   1.120
 7426TIP3   OH222218   2.463   5.504   0.092
 7426TIP3    H122219   2.480   5.444   0.165
 7426TIP3    H222220   2.550   5.540   0.071
 7427TIP3   OH222221   3.155   2.914   4.141
 7427TIP3    H122222   3.229   2.964   4.175
 7427TIP3    H222223   3.085   2.929   4.205
 7428TIP3   OH222224   3.617   2.068   3.744
 7428TIP3    H122225   3.586   2.090   3.656
 7428TIP3    H222226   3.560   2.118   3.802
 7429TIP3   OH222227   4.463   3.758   6.700
 7429TIP3    H122228   4.470   3.844   6.741
 7429TIP3    H222229   4.439   3.699   6.772
 7430TIP3   OH222230   0.401   3.383   3.491
 7430TIP3    H122231   0.339   3.389   3.564
 7430TIP3    H222232   0.364   3.440   3.424
 7431TIP3   OH222233   7.612   7.644   2.779
 7431TIP3    H122234   7.704   7.621   2.791
 7431TIP3    H222235   7.571   7.625   2.863
 7432TIP3   OH222236   7.562   6.273   6.031
 7432TIP3    H122237   7.510   6.352   6.018
 7432TIP3    H222238   7.575   6.269   6.126
 7433TIP3   OH222239   6.755   0.278   6.691
 7433TIP3    H122240   6.796   0.201   6.650
 7433TIP3    H222241   6.815   0.350   6.672
 7434TIP3   OH222242   4.853   6.916   1.546
 7434TIP3    H122243   4.818   6.833   1.515
 7434TIP3    H222244   4.891   6.957   1.468
 7435TIP3   OH222245   2.881   7.459   2.998
 7435TIP3    H122246   2.851   7.516   2.928
 7435TIP3    H222247   2.802   7.436   3.047
 7436TIP3   OH222248   4.823   3.353   1.370
 7436TIP3    H122249   4.903   3.334   1.420
 7436TIP3    H222250   4.833   3.303   1.289
 7437TIP3   OH222251   3.428   6.114   4.873
 7437TIP3    H122252   3.510   6.078   4.906
 7437TIP3    H222253   3.371   6.121   4.950
 7438TIP3   OH222254   2.115   5.074   3.683
 7438TIP3    H122255   2.039   5.121   3.648
 7438TIP3    H222256   2.190   5.111   3.636
 7439TIP3   OH222257   4.180   5.254   4.041
 7439TIP3    H122258   4.184   5.167   4.081
 7439TIP3    H222259   4.180   5.237   3.946
 7440TIP3   OH222260   0.560   4.006   0.272
 7440TIP3    H122261   0.548   3.911   0.265
 7440TIP3    H222262   0.623   4.027   0.204
 7441TIP3   OH222263   1.617   6.638   0.957
 7441TIP3    H122264   1.583   6.668   0.873
 7441TIP3    H222265   1.676   6.708   0.985
 7442TIP3   OH222266   7.819   5.797   0.842
 7442TIP3    H122267   7.814   5.705   0.816
 7442TIP3    H222268   7.892   5.832   0.791
 7443TIP3   OH222269   1.720   0.477   5.020
 7443TIP3    H122270   1.752   0.567   5.010
 7443TIP3    H222271   1.789   0.432   5.068
 7444TIP3   OH222272   0.290   6.299   0.776
 7444TIP3    H122273   0.314   6.253   0.696
 7444TIP3    H222274   0.356   6.274   0.840
 7445TIP3   OH222275   0.902   7.317   6.177
 7445TIP3    H122276   0.847   7.242   6.154
 7445TIP3    H222277   0.971   7.318   6.111
 7446TIP3   OH222278   2.718   7.884   6.763
 7446TIP3    H122279   2.699   7.826   6.689
 7446TIP3    H222280   2.664   7.961   6.749
 7447TIP3   OH222281   1.854   2.644   4.929
 7447TIP3    H122282   1.916   2.695   4.877
 7447TIP3    H222283   1.853   2.558   4.888
 7448TIP3   OH222284   7.413   3.672   6.778
 7448TIP3    H122285   7.410   3.745   6.716
 7448TIP3    H222286   7.323   3.642   6.785
 7449TIP3   OH222287   2.549   6.598   1.223
 7449TIP3    H122288   2.619   6.552   1.269
 7449TIP3    H222289   2.478   6.603   1.286
 7450TIP3   OH222290   0.995   1.887   4.012
 7450TIP3    H122291   1.089   1.884   3.995
 7450TIP3    H222292   0.987   1.947   4.086
 7451TIP3   OH222293   0.864   0.247   5.092
 7451TIP3    H122294   0.940   0.234   5.035
 7451TIP3    H222295   0.796   0.190   5.056
 7452TIP3   OH222296   8.129   0.544   3.165
 7452TIP3    H122297   8.094   0.570   3.250
 7452TIP3    H222298   8.154   0.627   3.124
 7453TIP3   OH222299   6.825   3.618   0.585
 7453TIP3    H122300   6.856   3.619   0.675
 7453TIP3    H222301   6.736   3.582   0.591
 7454TIP3   OH222302   2.240   0.378   5.120
 7454TIP3    H122303   2.324   0.398   5.162
 7454TIP3    H222304   2.262   0.317   5.050
 7455TIP3   OH222305   7.691   2.392   3.176
 7455TIP3    H122306   7.733   2.368   3.258
 7455TIP3    H222307   7.620   2.328   3.166
 7456TIP3   OH222308   2.511   6.081   4.460
 7456TIP3    H122309   2.452   6.157   4.463
 7456TIP3    H222310   2.582   6.109   4.402
 7457TIP3   OH222311   0.971   5.983   2.935
 7457TIP3    H122312   0.978   5.970   3.029
 7457TIP3    H222313   0.879   5.966   2.915
 7458TIP3   OH222314   1.302   1.497   3.427
 7458TIP3    H122315   1.329   1.470   3.515
 7458TIP3    H222316   1.260   1.420   3.390
 7459TIP3   OH222317   6.663   3.151   4.636
 7459TIP3    H122318   6.721   3.086   4.596
 7459TIP3    H222319   6.721   3.221   4.665
 7460TIP3   OH222320   1.288   5.436   5.459
 7460TIP3    H122321   1.355   5.417   5.525
 7460TIP3    H222322   1.207   5.402   5.497
 7461TIP3   OH222323   3.276   1.393   6.637
 7461TIP3    H122324   3.197   1.343   6.651
 7461TIP3    H222325   3.343   1.349   6.689
 7462TIP3   OH222326   3.070   3.396   4.173
 7462TIP3    H122327   3.146   3.356   4.215
 7462TIP3    H222328   3.088   3.490   4.176
 7463TIP3   OH222329   1.187   0.655   6.147
 7463TIP3    H122330   1.136   0.688   6.220
 7463TIP3    H222331   1.207   0.732   6.094
 7464TIP3   OH222332   1.062   5.485   4.253
 7464TIP3    H122333   1.053   5.536   4.172
 7464TIP3    H222334   1.060   5.551   4.323
 7465TIP3   OH222335   8.203   0.177   6.242
 7465TIP3    H122336   8.154   0.251   6.279
 7465TIP3    H222337   8.145   0.102   6.253
 7466TIP3   OH222338   4.954   5.205   3.521
 7466TIP3    H122339   4.941   5.233   3.431
 7466TIP3    H222340   5.011   5.272   3.560
 7467TIP3   OH222341   8.212   5.348   0.660
 7467TIP3    H122342   8.269   5.274   0.677
 7467TIP3    H222343   8.195   5.386   0.746
 7468TIP3   OH222344   5.082   6.858   1.194
 7468TIP3    H122345   5.112   6.845   1.285
 7468TIP3    H222346   4.995   6.896   1.203
 7469TIP3   OH222347   7.861   6.784   3.371
 7469TIP3    H122348   7.831   6.722   3.437
 7469TIP3    H222349   7.806   6.861   3.385
 7470TIP3   OH222350   4.503   1.612   0.531
 7470TIP3    H122351   4.508   1.535   0.474
 7470TIP3    H222352   4.410   1.632   0.535
 7471TIP3   OH222353   0.232   2.232   2.035
 7471TIP3    H122354   0.180   2.292   2.089
 7471TIP3    H222355   0.191   2.237   1.948
 7472TIP3   OH222356   8.022   1.189   4.342
 7472TIP3    H122357   8.116   1.196   4.357
 7472TIP3    H222358   7.983   1.256   4.399
 7473TIP3   OH222359   6.976   0.092   5.654
 7473TIP3    H122360   6.880   0.086   5.650
 7473TIP3    H222361   6.993   0.168   5.708
 7474TIP3   OH222362   6.508   6.467   1.416
 7474TIP3    H122363   6.424   6.439   1.452
 7474TIP3    H222364   6.574   6.420   1.467
 7475TIP3   OH222365   1.416   6.047   6.512
 7475TIP3    H122366   1.328   6.073   6.538
 7475TIP3    H222367   1.443   5.983   6.578
 7476TIP3   OH222368   8.097   7.379   1.245
 7476TIP3    H122369   8.148   7.399   1.323
 7476TIP3    H222370   8.009   7.412   1.263
 7477TIP3   OH222371   3.464   5.328   2.403
 7477TIP3    H122372   3.504   5.391   2.344
 7477TIP3    H222373   3.376   5.363   2.419
 7478TIP3   OH222374   3.022   0.130   0.054
 7478TIP3    H122375   2.935   0.096   0.035
 7478TIP3    H222376   3.006   0.204   0.113
 7479TIP3   OH222377   3.765   7.840   6.173
 7479TIP3    H122378   3.785   7.748   6.156
 7479TIP3    H222379   3.828   7.889   6.121
 7480TIP3   OH222380   7.096   6.120   0.624
 7480TIP3    H122381   7.021   6.132   0.566
 7480TIP3    H222382   7.168   6.094   0.567
 7481TIP3   OH222383   7.238   2.100   2.759
 7481TIP3    H122384   7.258   2.007   2.774
 7481TIP3    H222385   7.187   2.126   2.836
 7482TIP3   OH222386   7.345   7.769   5.890
 7482TIP3    H122387   7.402   7.761   5.967
 7482TIP3    H222388   7.356   7.686   5.843
 7483TIP3   OH222389   7.604   5.983   2.609
 7483TIP3    H122390   7.642   5.917   2.668
 7483TIP3    H222391   7.618   6.066   2.654
 7484TIP3   OH222392   7.097   4.522   3.073
 7484TIP3    H122393   7.158   4.459   3.033
 7484TIP3    H222394   7.152   4.573   3.132
 7485TIP3   OH222395   2.243   1.379   0.636
 7485TIP3    H122396   2.209   1.468   0.627
 7485TIP3    H222397   2.301   1.368   0.561
 7486TIP3   OH222398   3.854   4.234   0.673
 7486TIP3    H122399   3.922   4.227   0.739
 7486TIP3    H222400   3.788   4.291   0.713
 7487TIP3   OH222401   6.748   4.143   2.266
 7487TIP3    H122402   6.739   4.205   2.338
 7487TIP3    H222403   6.802   4.073   2.301
 7488TIP3   OH222404   5.577   3.334   0.943
 7488TIP3    H122405   5.563   3.417   0.988
 7488TIP3    H222406   5.492   3.290   0.947
 7489TIP3   OH222407   0.048   1.212   3.496
 7489TIP3    H122408   0.132   1.180   3.463
 7489TIP3    H222409   0.065   1.301   3.525
 7490TIP3   OH222410   6.556   1.915   3.283
 7490TIP3    H122411   6.567   1.829   3.243
 7490TIP3    H222412   6.547   1.975   3.208
 7491TIP3   OH222413   5.562   0.439   0.226
 7491TIP3    H122414   5.562   0.359   0.175
 7491TIP3    H222415   5.556   0.410   0.317
 7492TIP3   OH222416   5.933   4.173   4.493
 7492TIP3    H122417   5.945   4.172   4.398
 7492TIP3    H222418   5.985   4.098   4.523
 7493TIP3   OH222419   2.025   7.394   2.009
 7493TIP3    H122420   2.088   7.419   2.076
 7493TIP3    H222421   2.046   7.303   1.988
 7494TIP3   OH222422   1.065   2.718   5.251
 7494TIP3    H122423   1.048   2.640   5.304
 7494TIP3    H222424   1.132   2.766   5.300
 7495TIP3   OH222425   0.250   1.264   4.854
 7495TIP3    H122426   0.248   1.212   4.773
 7495TIP3    H222427   0.167   1.311   4.855
 7496TIP3   OH222428   6.007   0.401   2.996
 7496TIP3    H122429   6.015   0.493   2.972
 7496TIP3    H222430   6.064   0.391   3.072
 7497TIP3   OH222431   2.357   2.624   4.445
 7497TIP3    H122432   2.265   2.625   4.418
 7497TIP3    H222433   2.406   2.645   4.365
 7498TIP3   OH222434   3.698   5.065   1.093
 7498TIP3    H122435   3.668   5.059   1.184
 7498TIP3    H222436   3.730   4.978   1.072
 7499TIP3   OH222437   0.903   1.223   0.841
 7499TIP3    H122438   0.858   1.144   0.811
 7499TIP3    H222439   0.987   1.221   0.796
 7500TIP3   OH222440   4.076   5.635   0.480
 7500TIP3    H122441   4.089   5.612   0.572
 7500TIP3    H222442   4.062   5.730   0.480
 7501TIP3   OH222443   4.232   5.984   0.086
 7501TIP3    H122444   4.272   6.069   0.073
 7501TIP3    H222445   4.144   5.992   0.047
 7502TIP3   OH222446   6.112   3.650   5.898
 7502TIP3    H122447   6.038   3.643   5.838
 7502TIP3    H222448   6.189   3.632   5.844
 7503TIP3   OH222449   8.191   5.651   4.106
 7503TIP3    H122450   8.285   5.638   4.119
 7503TIP3    H222451   8.185   5.691   4.020
 7504TIP3   OH222452   7.656   3.786   1.795
 7504TIP3    H122453   7.743   3.750   1.775
 7504TIP3    H222454   7.644   3.857   1.732
 7505TIP3   OH222455   6.481   5.611   1.027
 7505TIP3    H122456   6.423   5.624   0.952
 7505TIP3    H222457   6.533   5.691   1.032
 7506TIP3   OH222458   0.531   5.871   6.398
 7506TIP3    H122459   0.617   5.889   6.436
 7506TIP3    H222460   0.550   5.834   6.312
 7507TIP3   OH222461   3.534   3.842   4.135
 7507TIP3    H122462   3.616   3.888   4.153
 7507TIP3    H222463   3.479   3.861   4.211
 7508TIP3   OH222464   5.516   6.659   3.969
 7508TIP3    H122465   5.454   6.699   3.907
 7508TIP3    H222466   5.473   6.579   3.998
 7509TIP3   OH222467   7.839   4.952   3.098
 7509TIP3    H122468   7.857   4.967   3.006
 7509TIP3    H222469   7.752   4.911   3.100
 7510TIP3   OH222470   5.564   6.062   6.211
 7510TIP3    H122471   5.584   6.034   6.300
 7510TIP3    H222472   5.639   6.033   6.159
 7511TIP3   OH222473   0.989   4.666   4.351
 7511TIP3    H122474   1.004   4.747   4.303
 7511TIP3    H222475   0.973   4.693   4.441
 7512TIP3   OH222476   1.686   4.597   5.800
 7512TIP3    H122477   1.698   4.565   5.710
 7512TIP3    H222478   1.625   4.534   5.840
 7513TIP3   OH222479   1.635   2.985   6.055
 7513TIP3    H122480   1.611   3.059   6.110
 7513TIP3    H222481   1.668   3.025   5.974
 7514TIP3   OH222482   2.930   0.843   6.323
 7514TIP3    H122483   2.945   0.759   6.279
 7514TIP3    H222484   2.973   0.833   6.408
 7515TIP3   OH222485   3.038   5.287   5.312
 7515TIP3    H122486   2.964   5.342   5.341
 7515TIP3    H222487   3.051   5.225   5.383
 7516TIP3   OH222488   0.603   3.660   4.506
 7516TIP3    H122489   0.519   3.621   4.530
 7516TIP3    H222490   0.615   3.638   4.414
 7517TIP3   OH222491   8.117   4.114   6.464
 7517TIP3    H122492   8.092   4.094   6.374
 7517TIP3    H222493   8.048   4.173   6.494
 7518TIP3   OH222494   3.752   4.555   2.255
 7518TIP3    H122495   3.835   4.522   2.290
 7518TIP3    H222496   3.742   4.510   2.171
 7519TIP3   OH222497   7.585   3.576   2.859
 7519TIP3    H122498   7.677   3.579   2.886
 7519TIP3    H222499   7.563   3.668   2.840
 7520TIP3   OH222500   7.893   2.714   6.709
 7520TIP3    H122501   7.942   2.717   6.791
 7520TIP3    H222502   7.803   2.695   6.735
 7521TIP3   OH222503   4.029   7.216   4.031
 7521TIP3    H122504   4.073   7.191   3.950
 7521TIP3    H222505   3.990   7.135   4.063
 7522TIP3   OH222506   0.305   0.309   5.663
 7522TIP3    H122507   0.363   0.332   5.591
 7522TIP3    H222508   0.251   0.387   5.677
 7523TIP3   OH222509   1.029   6.571   3.764
 7523TIP3    H122510   1.088   6.549   3.692
 7523TIP3    H222511   0.948   6.599   3.720
 7524TIP3   OH222512   5.688   4.389   6.221
 7524TIP3    H122513   5.776   4.426   6.233
 7524TIP3    H222514   5.700   4.295   6.234
 7525TIP3   OH222515   5.217   2.134   2.502
 7525TIP3    H122516   5.290   2.072   2.497
 7525TIP3    H222517   5.151   2.099   2.441
 7526TIP3   OH222518   3.069   3.439   4.484
 7526TIP3    H122519   3.048   3.480   4.568
 7526TIP3    H222520   2.985   3.405   4.453
 7527TIP3   OH222521   4.299   4.121   4.256
 7527TIP3    H122522   4.254   4.206   4.256
 7527TIP3    H222523   4.230   4.057   4.240
 7528TIP3   OH222524   7.815   7.265   1.536
 7528TIP3    H122525   7.752   7.221   1.479
 7528TIP3    H222526   7.775   7.350   1.555
 7529TIP3   OH222527   1.098   5.657   6.843
 7529TIP3    H122528   1.098   5.617   6.930
 7529TIP3    H222529   1.030   5.610   6.795
 7530TIP3   OH222530   8.054   4.355   0.620
 7530TIP3    H122531   7.977   4.395   0.660
 7530TIP3    H222532   8.126   4.412   0.646
 7531TIP3   OH222533   1.482   1.816   4.776
 7531TIP3    H122534   1.451   1.743   4.723
 7531TIP3    H222535   1.576   1.820   4.760
 7532TIP3   OH222536   6.008   7.417   3.581
 7532TIP3    H122537   5.996   7.340   3.526
 7532TIP3    H222538   5.963   7.396   3.662
 7533TIP3   OH222539   5.830   6.895   6.149
 7533TIP3    H122540   5.885   6.960   6.105
 7533TIP3    H222541   5.758   6.945   6.187
 7534TIP3   OH222542   7.787   0.702   6.260
 7534TIP3    H122543   7.756   0.776   6.313
 7534TIP3    H222544   7.849   0.742   6.198
 7535TIP3   OH222545   0.192   6.284   5.102
 7535TIP3    H122546   0.218   6.368   5.063
 7535TIP3    H222547   0.236   6.219   5.048
 7536TIP3   OH222548   5.784   0.842   2.731
 7536TIP3    H122549   5.763   0.894   2.808
 7536TIP3    H222550   5.735   0.760   2.744
 7537TIP3   OH222551   6.178   2.629   4.373
 7537TIP3    H122552   6.214   2.566   4.311
 7537TIP3    H222553   6.241   2.701   4.373
 7538TIP3   OH222554   1.257   6.469   1.016
 7538TIP3    H122555   1.286   6.548   1.063
 7538TIP3    H222556   1.239   6.500   0.927
 7539TIP3   OH222557   0.874   1.959   2.184
 7539TIP3    H122558   0.897   1.889   2.123
 7539TIP3    H222559   0.956   2.006   2.199
 7540TIP3   OH222560   5.969   3.801   2.595
 7540TIP3    H122561   5.944   3.778   2.684
 7540TIP3    H222562   6.062   3.781   2.590
 7541TIP3   OH222563   3.426   2.721   2.531
 7541TIP3    H122564   3.381   2.642   2.501
 7541TIP3    H222565   3.386   2.741   2.615
 7542TIP3   OH222566   7.367   0.135   4.050
 7542TIP3    H122567   7.400   0.047   4.029
 7542TIP3    H222568   7.273   0.123   4.063
 7543TIP3   OH222569   3.006   0.982   3.394
 7543TIP3    H122570   3.000   1.071   3.430
 7543TIP3    H222571   3.059   0.934   3.458
 7544TIP3   OH222572   0.320   7.540   4.512
 7544TIP3    H122573   0.289   7.616   4.560
 7544TIP3    H222574   0.376   7.493   4.574
 7545TIP3   OH222575   1.479   7.815   6.687
 7545TIP3    H122576   1.565   7.776   6.675
 7545TIP3    H222577   1.438   7.763   6.756
 7546TIP3   OH222578   5.531   5.995   1.894
 7546TIP3    H122579   5.598   5.972   1.829
 7546TIP3    H222580   5.581   6.031   1.967
 7547TIP3   OH222581   3.882   3.849   1.266
 7547TIP3    H122582   3.930   3.788   1.211
 7547TIP3    H222583   3.791   3.844   1.236
 7548TIP3   OH222584   6.862   4.319   5.833
 7548TIP3    H122585   6.847   4.377   5.908
 7548TIP3    H222586   6.789   4.257   5.836
 7549TIP3   OH222587   1.500   2.751   5.542
 7549TIP3    H122588   1.493   2.656   5.554
 7549TIP3    H222589   1.593   2.769   5.552
 7550TIP3   OH222590   4.895   0.740   3.521
 7550TIP3    H122591   4.962   0.807   3.511
 7550TIP3    H222592   4.939   0.669   3.569
 7551TIP3   OH222593   7.463   7.090   6.206
 7551TIP3    H122594   7.401   7.162   6.217
 7551TIP3    H222595   7.545   7.125   6.242
 7552TIP3   OH222596   3.007   5.947   2.827
 7552TIP3    H122597   2.968   5.861   2.846
 7552TIP3    H222598   2.947   6.010   2.868
 7553TIP3   OH222599   4.312   4.719   2.870
 7553TIP3    H122600   4.390   4.668   2.889
 7553TIP3    H222601   4.243   4.676   2.921
 7554TIP3   OH222602   0.488   1.507   1.351
 7554TIP3    H122603   0.507   1.577   1.414
 7554TIP3    H222604   0.573   1.468   1.332
 7555TIP3   OH222605   2.418   5.485   6.661
 7555TIP3    H122606   2.418   5.503   6.567
 7555TIP3    H222607   2.510   5.489   6.686
 7556TIP3   OH222608   3.782   7.625   0.567
 7556TIP3    H122609   3.753   7.703   0.520
 7556TIP3    H222610   3.714   7.611   0.634
 7557TIP3   OH222611   4.682   4.144   6.441
 7557TIP3    H122612   4.638   4.062   6.418
 7557TIP3    H222613   4.617   4.194   6.490
 7558TIP3   OH222614   1.068   4.396   5.707
 7558TIP3    H122615   0.999   4.362   5.765
 7558TIP3    H222616   1.073   4.489   5.729
 7559TIP3   OH222617   2.303   5.735   0.158
 7559TIP3    H122618   2.342   5.731   0.070
 7559TIP3    H222619   2.311   5.827   0.183
 7560TIP3   OH222620   8.251   5.243   4.804
 7560TIP3    H122621   8.216   5.203   4.724
 7560TIP3    H222622   8.315   5.307   4.773
 7561TIP3   OH222623   4.044   1.473   4.092
 7561TIP3    H122624   4.000   1.516   4.165
 7561TIP3    H222625   4.126   1.521   4.082
 7562TIP3   OH222626   3.686   7.597   5.793
 7562TIP3    H122627   3.780   7.608   5.787
 7562TIP3    H222628   3.650   7.664   5.735
 7563TIP3   OH222629   3.256   2.722   2.182
 7563TIP3    H122630   3.251   2.663   2.257
 7563TIP3    H222631   3.349   2.725   2.160
 7564TIP3   OH222632   3.851   3.036   2.992
 7564TIP3    H122633   3.785   3.101   3.015
 7564TIP3    H222634   3.896   3.018   3.074
 7565TIP3   OH222635   2.056   4.865   3.406
 7565TIP3    H122636   2.078   4.849   3.498
 7565TIP3    H222637   2.069   4.959   3.394
 7566TIP3   OH222638   7.463   7.847   3.807
 7566TIP3    H122639   7.497   7.896   3.732
 7566TIP3    H222640   7.421   7.770   3.768
 7567TIP3   OH222641   7.957   5.984   1.514
 7567TIP3    H122642   7.966   6.070   1.474
 7567TIP3    H222643   8.002   5.925   1.453
 7568TIP3   OH222644   2.055   1.267   5.666
 7568TIP3    H122645   1.963   1.284   5.689
 7568TIP3    H222646   2.101   1.271   5.750
 7569TIP3   OH222647   3.228   5.754   3.517
 7569TIP3    H122648   3.267   5.772   3.603
 7569TIP3    H222649   3.220   5.840   3.476
 7570TIP3   OH222650   4.296   6.136   0.363
 7570TIP3    H122651   4.323   6.212   0.413
 7570TIP3    H222652   4.320   6.157   0.273
 7571TIP3   OH222653   4.556   6.219   4.399
 7571TIP3    H122654   4.645   6.249   4.378
 7571TIP3    H222655   4.515   6.294   4.441
 7572TIP3   OH222656   0.710   0.960   6.895
 7572TIP3    H122657   0.789   0.907   6.904
 7572TIP3    H222658   0.690   0.959   6.802
 7573TIP3   OH222659   3.444   4.515   0.032
 7573TIP3    H122660   3.401   4.599   0.047
 7573TIP3    H222661   3.486   4.524  -0.054
 7574TIP3   OH222662   7.857   6.227   1.724
 7574TIP3    H122663   7.921   6.268   1.665
 7574TIP3    H222664   7.911   6.185   1.791
 7575TIP3   OH222665   6.200   5.213   3.698
 7575TIP3    H122666   6.174   5.287   3.643
 7575TIP3    H222667   6.252   5.252   3.768
 7576TIP3   OH222668   0.306   3.192   0.217
 7576TIP3    H122669   0.384   3.192   0.162
 7576TIP3    H222670   0.255   3.117   0.185
 7577TIP3   OH222671   7.638   0.599   0.840
 7577TIP3    H122672   7.578   0.650   0.786
 7577TIP3    H222673   7.725   0.629   0.815
 7578TIP3   OH222674   2.162   2.805   2.339
 7578TIP3    H122675   2.210   2.789   2.420
 7578TIP3    H222676   2.140   2.898   2.342
 7579TIP3   OH222677   5.995   1.343   4.973
 7579TIP3    H122678   6.079   1.374   5.007
 7579TIP3    H222679   5.952   1.422   4.940
 7580TIP3   OH222680   2.310   7.817   0.641
 7580TIP3    H122681   2.242   7.866   0.594
 7580TIP3    H222682   2.392   7.846   0.601
 7581TIP3   OH222683   6.185   6.767   0.945
 7581TIP3    H122684   6.252   6.833   0.927
 7581TIP3    H222685   6.129   6.768   0.867
 7582TIP3   OH222686   6.809   2.865   5.489
 7582TIP3    H122687   6.781   2.773   5.482
 7582TIP3    H222688   6.809   2.882   5.583
 7583TIP3   OH222689   1.063   6.566   5.942
 7583TIP3    H122690   1.097   6.652   5.918
 7583TIP3    H222691   0.971   6.582   5.964
 7584TIP3   OH222692   4.900   6.830   6.846
 7584TIP3    H122693   4.960   6.756   6.851
 7584TIP3    H222694   4.853   6.828   6.929
 7585TIP3   OH222695   8.233   4.769   0.799
 7585TIP3    H122696   8.224   4.853   0.843
 7585TIP3    H222697   8.317   4.775   0.753
 7586TIP3   OH222698   6.056   5.564   0.103
 7586TIP3    H122699   6.116   5.509   0.052
 7586TIP3    H222700   6.112   5.603   0.171
 7587TIP3   OH222701   6.449   4.887   6.761
 7587TIP3    H122702   6.472   4.949   6.831
 7587TIP3    H222703   6.507   4.911   6.689
 7588TIP3   OH222704   2.979   5.436   0.228
 7588TIP3    H122705   2.961   5.530   0.224
 7588TIP3    H222706   3.047   5.427   0.295
 7589TIP3   OH222707   5.485   2.677   6.302
 7589TIP3    H122708   5.404   2.631   6.280
 7589TIP3    H222709   5.507   2.726   6.223
 7590TIP3   OH222710   7.987   1.781   6.196
 7590TIP3    H122711   8.029   1.800   6.112
 7590TIP3    H222712   7.953   1.692   6.186
 7591TIP3   OH222713   5.330   6.842   2.735
 7591TIP3    H122714   5.235   6.846   2.745
 7591TIP3    H222715   5.365   6.874   2.818
 7592TIP3   OH222716   4.142   5.118   2.650
 7592TIP3    H122717   4.138   5.110   2.745
 7592TIP3    H222718   4.072   5.061   2.619
 7593TIP3   OH222719   8.415   7.862   0.018
 7593TIP3    H122720   8.349   7.827   0.078
 7593TIP3    H222721   8.364   7.888  -0.059
 7594TIP3   OH222722   2.332   2.806   4.696
 7594TIP3    H122723   2.342   2.752   4.618
 7594TIP3    H222724   2.318   2.744   4.767
 7595TIP3   OH222725   6.673   4.236   4.657
 7595TIP3    H122726   6.623   4.182   4.718
 7595TIP3    H222727   6.606   4.280   4.603
 7596TIP3   OH222728   3.967   1.609   3.143
 7596TIP3    H122729   4.049   1.608   3.192
 7596TIP3    H222730   3.922   1.687   3.174
 7597TIP3   OH222731   5.302   5.561   0.740
 7597TIP3    H122732   5.316   5.503   0.665
 7597TIP3    H222733   5.379   5.618   0.741
 7598TIP3   OH222734   5.315   1.917   4.142
 7598TIP3    H122735   5.388   1.875   4.095
 7598TIP3    H222736   5.318   1.879   4.230
 7599TIP3   OH222737   3.150   1.970   6.597
 7599TIP3    H122738   3.067   2.009   6.622
 7599TIP3    H222739   3.192   2.036   6.541
 7600TIP3   OH222740   1.206   6.801   5.910
 7600TIP3    H122741   1.155   6.874   5.945
 7600TIP3    H222742   1.267   6.842   5.848
 7601TIP3   OH222743   3.311   3.918   5.039
 7601TIP3    H122744   3.300   3.956   4.952
 7601TIP3    H222745   3.360   3.984   5.089
 7602TIP3   OH222746   5.835   7.874   3.886
 7602TIP3    H122747   5.836   7.810   3.815
 7602TIP3    H222748   5.774   7.838   3.951
 7603TIP3   OH222749   6.250   6.882   0.032
 7603TIP3    H122750   6.280   6.821   0.099
 7603TIP3    H222751   6.306   6.865  -0.044
 7604TIP3   OH222752   8.156   1.228   6.816
 7604TIP3    H122753   8.203   1.297   6.864
 7604TIP3    H222754   8.208   1.214   6.737
 7605TIP3   OH222755   4.593   3.282   4.125
 7605TIP3    H122756   4.501   3.264   4.106
 7605TIP3    H222757   4.632   3.197   4.145
 7606TIP3   OH222758   3.867   7.427   4.998
 7606TIP3    H122759   3.954   7.459   4.977
 7606TIP3    H222760   3.808   7.495   4.965
 7607TIP3   OH222761   7.099   2.345   6.266
 7607TIP3    H122762   7.193   2.358   6.257
 7607TIP3    H222763   7.088   2.250   6.266
 7608TIP3   OH222764   6.995   4.141   1.691
 7608TIP3    H122765   7.050   4.065   1.670
 7608TIP3    H222766   7.038   4.214   1.646
 7609TIP3   OH222767   5.863   6.409   0.413
 7609TIP3    H122768   5.844   6.496   0.377
 7609TIP3    H222769   5.939   6.423   0.469
 7610TIP3   OH222770   5.285   6.484   1.542
 7610TIP3    H122771   5.230   6.497   1.465
 7610TIP3    H222772   5.272   6.392   1.564
 7611TIP3   OH222773   1.997   4.933   5.049
 7611TIP3    H122774   2.035   4.956   5.134
 7611TIP3    H222775   2.068   4.946   4.987
 7612TIP3   OH222776   7.008   2.795   2.842
 7612TIP3    H122777   7.091   2.748   2.845
 7612TIP3    H222778   7.032   2.887   2.857
 7613TIP3   OH222779   4.977   1.339   2.367
 7613TIP3    H122780   5.049   1.325   2.429
 7613TIP3    H222781   5.020   1.340   2.281
 7614TIP3   OH222782   5.751   1.786   0.285
 7614TIP3    H122783   5.656   1.792   0.275
 7614TIP3    H222784   5.766   1.780   0.379
 7615TIP3   OH222785   5.442   1.510   3.227
 7615TIP3    H122786   5.525   1.534   3.270
 7615TIP3    H222787   5.400   1.594   3.209
 7616TIP3   OH222788   4.129   0.105   2.299
 7616TIP3    H122789   4.104   0.018   2.268
 7616TIP3    H222790   4.155   0.152   2.220
 7617TIP3   OH222791   4.512   5.200   1.107
 7617TIP3    H122792   4.478   5.223   1.020
 7617TIP3    H222793   4.562   5.120   1.093
 7618TIP3   OH222794   4.626   7.416   0.428
 7618TIP3    H122795   4.589   7.348   0.486
 7618TIP3    H222796   4.665   7.479   0.488
 7619TIP3   OH222797   6.195   7.850   3.006
 7619TIP3    H122798   6.168   7.798   3.081
 7619TIP3    H222799   6.155   7.936   3.021
 7620TIP3   OH222800   7.090   2.405   4.995
 7620TIP3    H122801   7.153   2.375   4.929
 7620TIP3    H222802   7.052   2.325   5.031
 7621TIP3   OH222803   5.749   4.820   6.500
 7621TIP3    H122804   5.663   4.862   6.494
 7621TIP3    H222805   5.775   4.805   6.409
 7622TIP3   OH222806   2.579   7.641   4.817
 7622TIP3    H122807   2.571   7.711   4.881
 7622TIP3    H222808   2.669   7.647   4.785
 7623TIP3   OH222809   1.677   3.969   4.890
 7623TIP3    H122810   1.757   3.925   4.861
 7623TIP3    H222811   1.655   4.029   4.819
 7624TIP3   OH222812   1.796   0.927   3.750
 7624TIP3    H122813   1.751   0.872   3.686
 7624TIP3    H222814   1.876   0.880   3.771
 7625TIP3   OH222815   5.972   3.236   3.853
 7625TIP3    H122816   5.910   3.309   3.851
 7625TIP3    H222817   6.020   3.247   3.935
 7626TIP3   OH222818   5.942   0.088   4.577
 7626TIP3    H122819   5.943   0.153   4.507
 7626TIP3    H222820   6.034   0.073   4.597
 7627TIP3   OH222821   5.936   1.254   0.754
 7627TIP3    H122822   5.990   1.263   0.676
 7627TIP3    H222823   5.943   1.161   0.778
 7628TIP3   OH222824   4.040   2.936   0.181
 7628TIP3    H122825   4.070   2.950   0.270
 7628TIP3    H222826   3.975   3.004   0.166
 7629TIP3   OH222827   7.711   7.610   4.417
 7629TIP3    H122828   7.682   7.656   4.338
 7629TIP3    H222829   7.632   7.605   4.472
 7630TIP3   OH222830   6.042   1.150   4.067
 7630TIP3    H122831   6.103   1.180   4.135
 7630TIP3    H222832   6.001   1.230   4.035
 7631TIP3   OH222833   8.441   7.928   4.726
 7631TIP3    H122834   8.482   7.904   4.642
 7631TIP3    H222835   8.464   8.020   4.738
 7632TIP3   OH222836   8.166   3.666   6.471
 7632TIP3    H122837   8.119   3.709   6.543
 7632TIP3    H222838   8.133   3.709   6.392
 7633TIP3   OH222839   1.199   6.575   6.643
 7633TIP3    H122840   1.195   6.670   6.652
 7633TIP3    H222841   1.288   6.552   6.668
 7634TIP3   OH222842   5.026   1.836   1.735
 7634TIP3    H122843   4.961   1.775   1.770
 7634TIP3    H222844   5.002   1.920   1.774
 7635TIP3   OH222845   1.011   0.175   2.026
 7635TIP3    H122846   1.033   0.134   2.110
 7635TIP3    H222847   0.958   0.251   2.051
 7636TIP3   OH222848   6.476   0.424   2.457
 7636TIP3    H122849   6.457   0.514   2.483
 7636TIP3    H222850   6.418   0.408   2.382
 7637TIP3   OH222851   2.190   3.103   6.190
 7637TIP3    H122852   2.228   3.152   6.117
 7637TIP3    H222853   2.211   3.156   6.267
 7638TIP3   OH222854   5.121   0.837   6.353
 7638TIP3    H122855   5.029   0.835   6.378
 7638TIP3    H222856   5.164   0.889   6.422
 7639TIP3   OH222857   4.733   5.899   0.499
 7639TIP3    H122858   4.719   5.867   0.588
 7639TIP3    H222859   4.679   5.842   0.444
 7640TIP3   OH222860   0.043   0.141   3.286
 7640TIP3    H122861   0.058   0.224   3.332
 7640TIP3    H222862  -0.030   0.100   3.333
 7641TIP3   OH222863   3.137   6.215   6.106
 7641TIP3    H122864   3.193   6.220   6.183
 7641TIP3    H222865   3.181   6.269   6.041
 7642TIP3   OH222866   4.522   3.639   4.626
 7642TIP3    H122867   4.434   3.662   4.594
 7642TIP3    H222868   4.518   3.545   4.644
 7643TIP3   OH222869   7.077   4.710   5.341
 7643TIP3    H122870   7.075   4.700   5.436
 7643TIP3    H222871   7.167   4.738   5.323
 7644TIP3   OH222872   7.398   5.995   0.725
 7644TIP3    H122873   7.361   6.046   0.653
 7644TIP3    H222874   7.398   6.056   0.799
 7645TIP3   OH222875   1.743   4.432   1.984
 7645TIP3    H122876   1.817   4.492   1.991
 7645TIP3    H222877   1.691   4.448   2.063
 7646TIP3   OH222878   7.569   0.902   5.953
 7646TIP3    H122879   7.595   0.838   5.886
 7646TIP3    H222880   7.497   0.859   6.000
 7647TIP3   OH222881   7.363   3.271   4.442
 7647TIP3    H122882   7.290   3.266   4.504
 7647TIP3    H222883   7.421   3.199   4.468
 7648TIP3   OH222884   7.444   7.107   1.105
 7648TIP3    H122885   7.494   7.026   1.098
 7648TIP3    H222886   7.506   7.171   1.141
 7649TIP3   OH222887   5.121   5.261   6.305
 7649TIP3    H122888   5.071   5.319   6.363
 7649TIP3    H222889   5.171   5.206   6.365
 7650TIP3   OH222890   7.337   6.113   0.477
 7650TIP3    H122891   7.320   6.067   0.395
 7650TIP3    H222892   7.409   6.173   0.457
 7651TIP3   OH222893   0.709   4.804   1.940
 7651TIP3    H122894   0.665   4.830   2.021
 7651TIP3    H222895   0.638   4.788   1.878
 7652TIP3   OH222896   1.740   2.032   0.527
 7652TIP3    H122897   1.835   2.043   0.529
 7652TIP3    H222898   1.714   2.022   0.618
 7653TIP3   OH222899   2.383   5.194   5.039
 7653TIP3    H122900   2.306   5.186   4.983
 7653TIP3    H222901   2.421   5.278   5.016
 7654TIP3   OH222902   2.246   0.409   3.552
 7654TIP3    H122903   2.258   0.326   3.599
 7654TIP3    H222904   2.168   0.395   3.498
 7655TIP3   OH222905   1.129   3.377   3.211
 7655TIP3    H122906   1.064   3.315   3.244
 7655TIP3    H222907   1.082   3.428   3.144
 7656TIP3   OH222908   5.281   1.999   1.911
 7656TIP3    H122909   5.230   1.964   1.839
 7656TIP3    H222910   5.356   2.042   1.869
 7657TIP3   OH222911   5.105   5.765   3.078
 7657TIP3    H122912   5.181   5.798   3.127
 7657TIP3    H222913   5.109   5.670   3.090
 7658TIP3   OH222914   6.983   5.372   4.109
 7658TIP3    H122915   6.901   5.421   4.098
 7658TIP3    H222916   7.020   5.404   4.191
 7659TIP3   OH222917   2.815   4.255   3.321
 7659TIP3    H122918   2.805   4.173   3.369
 7659TIP3    H222919   2.904   4.251   3.285
 7660TIP3   OH222920   3.073   7.848   1.528
 7660TIP3    H122921   2.986   7.882   1.508
 7660TIP3    H222922   3.092   7.878   1.617
 7661TIP3   OH222923   0.668   5.857   4.066
 7661TIP3    H122924   0.681   5.766   4.040
 7661TIP3    H222925   0.753   5.886   4.099
 7662TIP3   OH222926   4.184   1.694   2.822
 7662TIP3    H122927   4.169   1.774   2.872
 7662TIP3    H222928   4.275   1.672   2.838
 7663TIP3   OH222929   2.586   4.379   3.222
 7663TIP3    H122930   2.670   4.346   3.254
 7663TIP3    H222931   2.566   4.325   3.146
 7664TIP3   OH222932   7.929   1.874   2.913
 7664TIP3    H122933   7.844   1.848   2.878
 7664TIP3    H222934   7.984   1.888   2.836
 7665TIP3   OH222935   0.252   7.476   6.277
 7665TIP3    H122936   0.196   7.470   6.354
 7665TIP3    H222937   0.212   7.544   6.223
 7666TIP3   OH222938   3.562   0.696   6.450
 7666TIP3    H122939   3.634   0.694   6.387
 7666TIP3    H222940   3.484   0.702   6.396
 7667TIP3   OH222941   1.305   0.296   0.489
 7667TIP3    H122942   1.215   0.270   0.511
 7667TIP3    H222943   1.346   0.215   0.458
 7668TIP3   OH222944   4.404   1.341   3.809
 7668TIP3    H122945   4.395   1.249   3.784
 7668TIP3    H222946   4.316   1.377   3.801
 7669TIP3   OH222947   2.554   0.946   0.674
 7669TIP3    H122948   2.541   0.901   0.591
 7669TIP3    H222949   2.467   0.977   0.699
 7670TIP3   OH222950   6.418   3.103   0.207
 7670TIP3    H122951   6.426   3.021   0.159
 7670TIP3    H222952   6.405   3.169   0.139
 7671TIP3   OH222953   4.399   0.704   3.706
 7671TIP3    H122954   4.327   0.646   3.729
 7671TIP3    H222955   4.382   0.784   3.756
 7672TIP3   OH222956   4.123   5.842   5.397
 7672TIP3    H122957   4.171   5.774   5.349
 7672TIP3    H222958   4.058   5.873   5.334
 7673TIP3   OH222959   4.810   5.413   3.786
 7673TIP3    H122960   4.745   5.450   3.845
 7673TIP3    H222961   4.870   5.485   3.768
 7674TIP3   OH222962   3.107   0.537   3.425
 7674TIP3    H122963   3.101   0.485   3.344
 7674TIP3    H222964   3.053   0.489   3.487
 7675TIP3   OH222965   1.573   4.710   6.358
 7675TIP3    H122966   1.586   4.618   6.335
 7675TIP3    H222967   1.630   4.725   6.433
 7676TIP3   OH222968   0.171   5.001   6.490
 7676TIP3    H122969   0.189   5.011   6.396
 7676TIP3    H222970   0.134   4.913   6.497
 7677TIP3   OH222971   4.658   2.314   0.521
 7677TIP3    H122972   4.583   2.373   0.531
 7677TIP3    H222973   4.721   2.344   0.587
 7678TIP3   OH222974   5.941   1.879   1.382
 7678TIP3    H122975   5.899   1.794   1.364
 7678TIP3    H222976   6.022   1.877   1.332
 7679TIP3   OH222977   8.253   5.772   0.806
 7679TIP3    H122978   8.180   5.819   0.766
 7679TIP3    H222979   8.331   5.811   0.766
 7680TIP3   OH222980   0.052   2.286   4.623
 7680TIP3    H122981   0.135   2.320   4.589
 7680TIP3    H222982   0.078   2.222   4.689
 7681TIP3   OH222983   0.201   0.390   0.653
 7681TIP3    H122984   0.146   0.468   0.660
 7681TIP3    H222985   0.180   0.340   0.732
 7682TIP3   OH222986   1.490   3.758   2.770
 7682TIP3    H122987   1.419   3.767   2.833
 7682TIP3    H222988   1.447   3.761   2.685
 7683TIP3   OH222989   7.142   4.916   1.311
 7683TIP3    H122990   7.186   4.972   1.374
 7683TIP3    H222991   7.132   4.971   1.233
 7684TIP3   OH222992   5.658   0.630   0.710
 7684TIP3    H122993   5.681   0.550   0.757
 7684TIP3    H222994   5.565   0.642   0.727
 7685TIP3   OH222995   0.120   4.384   1.525
 7685TIP3    H122996   0.065   4.349   1.595
 7685TIP3    H222997   0.066   4.379   1.447
 7686TIP3   OH222998   7.281   1.126   5.889
 7686TIP3    H122999   7.308   1.211   5.926
 7686TIP3    H223000   7.353   1.067   5.910
 7687TIP3   OH223001   4.963   1.209   2.747
 7687TIP3    H123002   4.981   1.280   2.809
 7687TIP3    H223003   4.901   1.152   2.793
 7688TIP3   OH223004   6.758   3.532   5.121
 7688TIP3    H123005   6.689   3.497   5.177
 7688TIP3    H223006   6.725   3.618   5.094
 7689TIP3   OH223007   0.739   1.351   2.062
 7689TIP3    H123008   0.820   1.356   2.113
 7689TIP3    H223009   0.747   1.422   1.998
 7690TIP3   OH223010   7.953   4.299   1.093
 7690TIP3    H123011   7.859   4.320   1.091
 7690TIP3    H223012   7.996   4.384   1.088
 7691TIP3   OH223013   8.341   7.731   1.554
 7691TIP3    H123014   8.362   7.820   1.525
 7691TIP3    H223015   8.246   7.731   1.564
 7692TIP3   OH223016   1.632   3.050   1.446
 7692TIP3    H123017   1.641   3.037   1.351
 7692TIP3    H223018   1.615   3.144   1.455
 7693TIP3   OH223019   7.676   4.125   0.911
 7693TIP3    H123020   7.614   4.053   0.923
 7693TIP3    H223021   7.708   4.145   0.999
 7694TIP3   OH223022   8.078   3.939   3.752
 7694TIP3    H123023   8.078   4.033   3.737
 7694TIP3    H223024   8.040   3.929   3.839
 7695TIP3   OH223025   5.535   2.618   1.586
 7695TIP3    H123026   5.473   2.548   1.609
 7695TIP3    H223027   5.606   2.573   1.540
 7696TIP3   OH223028   5.822   3.192   3.350
 7696TIP3    H123029   5.737   3.149   3.364
 7696TIP3    H223030   5.876   3.163   3.424
 7697TIP3   OH223031   5.750   7.216   6.804
 7697TIP3    H123032   5.696   7.223   6.725
 7697TIP3    H223033   5.710   7.145   6.854
 7698TIP3   OH223034   6.823   5.628   6.269
 7698TIP3    H123035   6.779   5.603   6.350
 7698TIP3    H223036   6.910   5.657   6.296
 7699TIP3   OH223037   3.223   0.622   5.304
 7699TIP3    H123038   3.305   0.666   5.282
 7699TIP3    H223039   3.156   0.689   5.290
 7700TIP3   OH223040   7.738   3.237   3.246
 7700TIP3    H123041   7.758   3.318   3.294
 7700TIP3    H223042   7.758   3.167   3.308
 7701TIP3   OH223043   5.142   6.239   5.832
 7701TIP3    H123044   5.110   6.321   5.868
 7701TIP3    H223045   5.158   6.258   5.739
 7702TIP3   OH223046   2.734   3.205   2.716
 7702TIP3    H123047   2.652   3.209   2.765
 7702TIP3    H223048   2.741   3.290   2.672
 7703TIP3   OH223049   5.971   2.696   2.845
 7703TIP3    H123050   6.015   2.770   2.887
 7703TIP3    H223051   5.915   2.660   2.913
 7704TIP3   OH223052   3.865   4.071   6.106
 7704TIP3    H123053   3.857   4.081   6.011
 7704TIP3    H223054   3.891   3.980   6.119
 7705TIP3   OH223055   6.381   5.811   4.007
 7705TIP3    H123056   6.435   5.799   3.929
 7705TIP3    H223057   6.372   5.906   4.015
 7706TIP3   OH223058   3.944   6.556   3.924
 7706TIP3    H123059   3.927   6.560   4.018
 7706TIP3    H223060   4.038   6.573   3.916
 7707TIP3   OH223061   2.447   0.067   6.609
 7707TIP3    H123062   2.370   0.041   6.660
 7707TIP3    H223063   2.440   0.162   6.602
 7708TIP3   OH223064   6.320   1.366   3.279
 7708TIP3    H123065   6.313   1.304   3.352
 7708TIP3    H223066   6.414   1.375   3.264
 7709TIP3   OH223067   7.327   2.020   5.116
 7709TIP3    H123068   7.270   2.070   5.173
 7709TIP3    H223069   7.309   1.928   5.137
 7710TIP3   OH223070   5.848   2.025   5.159
 7710TIP3    H123071   5.881   2.086   5.094
 7710TIP3    H223072   5.926   1.982   5.194
 7711TIP3   OH223073   8.274   5.375   5.408
 7711TIP3    H123074   8.223   5.355   5.487
 7711TIP3    H223075   8.267   5.296   5.354
 7712TIP3   OH223076   0.961   5.623   0.349
 7712TIP3    H123077   1.014   5.678   0.408
 7712TIP3    H223078   0.905   5.686   0.303
 7713TIP3   OH223079   4.456   6.288   2.115
 7713TIP3    H123080   4.497   6.206   2.086
 7713TIP3    H223081   4.528   6.338   2.154
 7714TIP3   OH223082   7.651   1.063   1.022
 7714TIP3    H123083   7.572   1.078   0.970
 7714TIP3    H223084   7.642   1.123   1.096
 7715TIP3   OH223085   3.116   7.377   2.882
 7715TIP3    H123086   3.053   7.417   2.943
 7715TIP3    H223087   3.166   7.451   2.847
 7716TIP3   OH223088   0.869   6.020   0.489
 7716TIP3    H123089   0.947   6.033   0.435
 7716TIP3    H223090   0.904   5.991   0.574
 7717TIP3   OH223091   3.800   5.186   0.710
 7717TIP3    H123092   3.747   5.185   0.789
 7717TIP3    H223093   3.792   5.275   0.677
 7718TIP3   OH223094   0.524   7.346   6.494
 7718TIP3    H123095   0.488   7.391   6.570
 7718TIP3    H223096   0.617   7.333   6.516
 7719TIP3   OH223097   7.405   4.209   5.023
 7719TIP3    H123098   7.333   4.234   5.081
 7719TIP3    H223099   7.400   4.114   5.018
 7720TIP3   OH223100   0.526   1.264   3.422
 7720TIP3    H123101   0.530   1.316   3.341
 7720TIP3    H223102   0.588   1.192   3.408
 7721TIP3   OH223103   5.394   3.850   3.613
 7721TIP3    H123104   5.414   3.878   3.523
 7721TIP3    H223105   5.311   3.804   3.605
 7722TIP3   OH223106   7.595   5.694   5.170
 7722TIP3    H123107   7.634   5.680   5.083
 7722TIP3    H223108   7.631   5.778   5.199
 7723TIP3   OH223109   5.333   5.997   3.818
 7723TIP3    H123110   5.312   5.930   3.884
 7723TIP3    H223111   5.411   5.964   3.775
 7724TIP3   OH223112   5.344   5.303   3.552
 7724TIP3    H123113   5.299   5.233   3.504
 7724TIP3    H223114   5.356   5.373   3.488
 7725TIP3   OH223115   5.715   3.817   6.334
 7725TIP3    H123116   5.800   3.798   6.374
 7725TIP3    H223117   5.652   3.767   6.386
 7726TIP3   OH223118   5.708   0.939   0.682
 7726TIP3    H123119   5.803   0.953   0.676
 7726TIP3    H223120   5.696   0.848   0.658
 7727TIP3   OH223121   7.398   3.542   1.326
 7727TIP3    H123122   7.414   3.622   1.277
 7727TIP3    H223123   7.345   3.488   1.266
 7728TIP3   OH223124   3.323   0.657   0.136
 7728TIP3    H123125   3.358   0.631   0.221
 7728TIP3    H223126   3.270   0.735   0.154
 7729TIP3   OH223127   5.374   4.287   0.749
 7729TIP3    H123128   5.292   4.334   0.732
 7729TIP3    H223129   5.440   4.356   0.759
 7730TIP3   OH223130   6.288   2.873   4.880
 7730TIP3    H123131   6.381   2.877   4.902
 7730TIP3    H223132   6.263   2.964   4.863
 7731TIP3   OH223133   5.539   0.018   1.573
 7731TIP3    H123134   5.519   0.100   1.528
 7731TIP3    H223135   5.535   0.040   1.666
 7732TIP3   OH223136   2.152   5.689   0.453
 7732TIP3    H123137   2.057   5.698   0.448
 7732TIP3    H223138   2.180   5.759   0.511
 7733TIP3   OH223139   4.487   5.136   3.475
 7733TIP3    H123140   4.463   5.214   3.525
 7733TIP3    H223141   4.492   5.066   3.540
 7734TIP3   OH223142   7.135   4.019   4.425
 7734TIP3    H123143   7.220   4.054   4.450
 7734TIP3    H223144   7.127   3.938   4.476
 7735TIP3   OH223145   8.288   0.347   0.832
 7735TIP3    H123146   8.373   0.316   0.863
 7735TIP3    H223147   8.308   0.427   0.784
 7736TIP3   OH223148   2.627   4.230   1.419
 7736TIP3    H123149   2.674   4.159   1.376
 7736TIP3    H223150   2.577   4.187   1.489
 7737TIP3   OH223151   1.917   1.264   5.291
 7737TIP3    H123152   1.842   1.292   5.344
 7737TIP3    H223153   1.921   1.169   5.304
 7738TIP3   OH223154   7.210   1.536   0.595
 7738TIP3    H123155   7.178   1.612   0.642
 7738TIP3    H223156   7.305   1.547   0.592
 7739TIP3   OH223157   3.371   4.249   5.988
 7739TIP3    H123158   3.418   4.263   5.906
 7739TIP3    H223159   3.400   4.162   6.017
 7740TIP3   OH223160   7.825   6.989   6.738
 7740TIP3    H123161   7.918   6.980   6.720
 7740TIP3    H223162   7.817   7.070   6.788
 7741TIP3   OH223163   4.840   6.746   4.451
 7741TIP3    H123164   4.893   6.668   4.464
 7741TIP3    H223165   4.851   6.796   4.532
 7742TIP3   OH223166   0.087   1.394   6.050
 7742TIP3    H123167   0.045   1.321   6.005
 7742TIP3    H223168   0.161   1.356   6.096
 7743TIP3   OH223169   3.554   4.058   4.539
 7743TIP3    H123170   3.631   4.095   4.496
 7743TIP3    H223171   3.483   4.069   4.476
 7744TIP3   OH223172   3.189   6.195   3.631
 7744TIP3    H123173   3.100   6.220   3.657
 7744TIP3    H223174   3.231   6.167   3.712
 7745TIP3   OH223175   1.722   1.813   4.619
 7745TIP3    H123176   1.735   1.722   4.594
 7745TIP3    H223177   1.686   1.855   4.541
 7746TIP3   OH223178   5.764   4.287   0.644
 7746TIP3    H123179   5.707   4.334   0.582
 7746TIP3    H223180   5.761   4.340   0.724
 7747TIP3   OH223181   6.331   6.269   3.382
 7747TIP3    H123182   6.263   6.202   3.371
 7747TIP3    H223183   6.390   6.256   3.308
 7748TIP3   OH223184   5.016   0.273   5.581
 7748TIP3    H123185   5.098   0.224   5.568
 7748TIP3    H223186   5.044   0.363   5.598
 7749TIP3   OH223187   2.632   4.257   2.976
 7749TIP3    H123188   2.712   4.216   2.945
 7749TIP3    H223189   2.607   4.317   2.906
 7750TIP3   OH223190   1.497   1.423   4.004
 7750TIP3    H123191   1.532   1.506   4.035
 7750TIP3    H223192   1.562   1.392   3.940
 7751TIP3   OH223193   1.451   0.617   6.434
 7751TIP3    H123194   1.429   0.709   6.418
 7751TIP3    H223195   1.390   0.568   6.380
 7752TIP3   OH223196   0.034   4.996   2.096
 7752TIP3    H123197  -0.013   5.037   2.023
 7752TIP3    H223198   0.039   5.065   2.163
 7753TIP3   OH223199   1.847   6.949   2.509
 7753TIP3    H123200   1.773   7.001   2.539
 7753TIP3    H223201   1.897   7.008   2.452
 7754TIP3   OH223202   1.133   5.482   4.768
 7754TIP3    H123203   1.166   5.510   4.854
 7754TIP3    H223204   1.207   5.436   4.728
 7755TIP3   OH223205   3.759   1.150   4.284
 7755TIP3    H123206   3.710   1.112   4.356
 7755TIP3    H223207   3.838   1.186   4.324
 7756TIP3   OH223208   0.232   3.665   1.573
 7756TIP3    H123209   0.144   3.629   1.577
 7756TIP3    H223210   0.262   3.666   1.665
 7757TIP3   OH223211   3.768   0.835   1.278
 7757TIP3    H123212   3.754   0.753   1.326
 7757TIP3    H223213   3.687   0.849   1.230
 7758TIP3   OH223214   0.614   0.275   4.455
 7758TIP3    H123215   0.552   0.208   4.427
 7758TIP3    H223216   0.693   0.258   4.405
 7759TIP3   OH223217   5.784   3.258   6.028
 7759TIP3    H123218   5.869   3.300   6.029
 7759TIP3    H223219   5.786   3.196   6.101
 7760TIP3   OH223220   1.345   4.842   6.290
 7760TIP3    H123221   1.310   4.760   6.255
 7760TIP3    H223222   1.436   4.821   6.314
 7761TIP3   OH223223   6.819   2.526   2.684
 7761TIP3    H123224   6.785   2.604   2.729
 7761TIP3    H223225   6.773   2.453   2.725
 7762TIP3   OH223226   0.144   4.156   0.223
 7762TIP3    H123227   0.060   4.113   0.242
 7762TIP3    H223228   0.170   4.121   0.138
 7763TIP3   OH223229   5.507   0.833   6.489
 7763TIP3    H123230   5.425   0.877   6.512
 7763TIP3    H223231   5.481   0.744   6.466
 7764TIP3   OH223232   2.845   7.161   2.875
 7764TIP3    H123233   2.901   7.239   2.876
 7764TIP3    H223234   2.767   7.188   2.828
 7765TIP3   OH223235   4.834   3.489   0.411
 7765TIP3    H123236   4.796   3.566   0.453
 7765TIP3    H223237   4.925   3.487   0.441
 7766TIP3   OH223238   1.187   4.541   0.511
 7766TIP3    H123239   1.120   4.609   0.520
 7766TIP3    H223240   1.245   4.573   0.442
 7767TIP3   OH223241   3.655   0.139   2.061
 7767TIP3    H123242   3.704   0.095   1.991
 7767TIP3    H223243   3.690   0.101   2.141
 7768TIP3   OH223244   5.374   1.924   0.791
 7768TIP3    H123245   5.382   2.008   0.746
 7768TIP3    H223246   5.285   1.925   0.827
 7769TIP3   OH223247   1.378   4.594   0.931
 7769TIP3    H123248   1.415   4.655   0.994
 7769TIP3    H223249   1.453   4.555   0.887
 7770TIP3   OH223250   0.588   0.389   1.653
 7770TIP3    H123251   0.653   0.338   1.700
 7770TIP3    H223252   0.504   0.359   1.688
 7771TIP3   OH223253   1.896   3.788   4.078
 7771TIP3    H123254   1.924   3.817   4.165
 7771TIP3    H223255   1.971   3.806   4.022
 7772TIP3   OH223256   2.724   2.793   2.145
 7772TIP3    H123257   2.716   2.744   2.063
 7772TIP3    H223258   2.662   2.752   2.204
 7773TIP3   OH223259   3.753   6.542   0.753
 7773TIP3    H123260   3.793   6.534   0.666
 7773TIP3    H223261   3.813   6.497   0.812
 7774TIP3   OH223262   4.371   7.525   5.559
 7774TIP3    H123263   4.423   7.543   5.480
 7774TIP3    H223264   4.341   7.612   5.588
 7775TIP3   OH223265   4.406   5.293   1.333
 7775TIP3    H123266   4.476   5.289   1.398
 7775TIP3    H223267   4.445   5.257   1.253
 7776TIP3   OH223268   6.709   2.795   3.235
 7776TIP3    H123269   6.704   2.713   3.187
 7776TIP3    H223270   6.618   2.812   3.262
 7777TIP3   OH223271   5.558   6.493   2.207
 7777TIP3    H123272   5.564   6.578   2.163
 7777TIP3    H223273   5.612   6.502   2.286
 7778TIP3   OH223274   2.296   6.406   0.780
 7778TIP3    H123275   2.241   6.479   0.807
 7778TIP3    H223276   2.289   6.406   0.684
 7779TIP3   OH223277   2.654   1.344   4.906
 7779TIP3    H123278   2.664   1.421   4.962
 7779TIP3    H223279   2.561   1.322   4.911
 7780TIP3   OH223280   5.323   7.621   2.306
 7780TIP3    H123281   5.366   7.538   2.289
 7780TIP3    H223282   5.230   7.599   2.313
 7781TIP3   OH223283   2.212   0.723   1.855
 7781TIP3    H123284   2.159   0.715   1.775
 7781TIP3    H223285   2.198   0.813   1.884
 7782TIP3   OH223286   1.890   5.583   4.071
 7782TIP3    H123287   1.965   5.642   4.077
 7782TIP3    H223288   1.912   5.511   4.130
 7783TIP3   OH223289   3.283   4.633   1.775
 7783TIP3    H123290   3.339   4.701   1.812
 7783TIP3    H223291   3.328   4.605   1.695
 7784TIP3   OH223292   3.143   7.247   0.986
 7784TIP3    H123293   3.142   7.216   0.896
 7784TIP3    H223294   3.236   7.245   1.011
 7785TIP3   OH223295  -0.012   5.287   1.333
 7785TIP3    H123296   0.076   5.265   1.364
 7785TIP3    H223297   0.001   5.326   1.247
 7786TIP3   OH223298   3.426   2.147   0.601
 7786TIP3    H123299   3.409   2.147   0.695
 7786TIP3    H223300   3.497   2.209   0.590
 7787TIP3   OH223301   1.063   5.035   3.704
 7787TIP3    H123302   1.108   5.057   3.623
 7787TIP3    H223303   0.972   5.020   3.678
 7788TIP3   OH223304   2.507   3.597   0.729
 7788TIP3    H123305   2.536   3.506   0.724
 7788TIP3    H223306   2.464   3.614   0.646
 7789TIP3   OH223307   0.524   1.896   5.454
 7789TIP3    H123308   0.512   1.806   5.485
 7789TIP3    H223309   0.550   1.945   5.532
 7790TIP3   OH223310   1.855   7.059   6.098
 7790TIP3    H123311   1.893   6.982   6.141
 7790TIP3    H223312   1.818   7.111   6.170
 7791TIP3   OH223313   6.735   6.189   3.646
 7791TIP3    H123314   6.668   6.120   3.641
 7791TIP3    H223315   6.810   6.146   3.687
 7792TIP3   OH223316   1.452   7.116   5.969
 7792TIP3    H123317   1.390   7.112   5.896
 7792TIP3    H223318   1.532   7.077   5.934
 7793TIP3   OH223319   1.345   6.942   1.118
 7793TIP3    H123320   1.387   7.025   1.142
 7793TIP3    H223321   1.254   6.965   1.102
 7794TIP3   OH223322   1.571   3.438   5.060
 7794TIP3    H123323   1.568   3.414   5.152
 7794TIP3    H223324   1.495   3.495   5.047
 7795TIP3   OH223325   2.146   5.176   1.695
 7795TIP3    H123326   2.181   5.222   1.618
 7795TIP3    H223327   2.080   5.117   1.659
 7796TIP3   OH223328   6.064   4.659   4.161
 7796TIP3    H123329   5.979   4.663   4.206
 7796TIP3    H223330   6.095   4.569   4.177
 7797TIP3   OH223331   5.783   2.533   6.126
 7797TIP3    H123332   5.775   2.541   6.221
 7797TIP3    H223333   5.811   2.620   6.097
 7798TIP3   OH223334   0.496   4.006   5.430
 7798TIP3    H123335   0.411   4.049   5.445
 7798TIP3    H223336   0.516   3.963   5.513
 7799TIP3   OH223337   5.033   6.367   2.293
 7799TIP3    H123338   5.125   6.354   2.269
 7799TIP3    H223339   5.028   6.335   2.383
 7800TIP3   OH223340   0.942   1.909   0.726
 7800TIP3    H123341   0.942   1.843   0.657
 7800TIP3    H223342   0.937   1.858   0.808
 7801TIP3   OH223343   5.101   3.695   4.612
 7801TIP3    H123344   5.153   3.769   4.581
 7801TIP3    H223345   5.033   3.683   4.546
 7802TIP3   OH223346   1.630   4.796   6.022
 7802TIP3    H123347   1.661   4.785   5.932
 7802TIP3    H223348   1.569   4.723   6.035
 7803TIP3   OH223349   0.384   1.989   1.464
 7803TIP3    H123350   0.424   1.909   1.496
 7803TIP3    H223351   0.429   2.008   1.382
 7804TIP3   OH223352   1.828   4.913   4.406
 7804TIP3    H123353   1.872   4.909   4.321
 7804TIP3    H223354   1.747   4.961   4.389
 7805TIP3   OH223355   4.768   2.235   3.820
 7805TIP3    H123356   4.697   2.299   3.820
 7805TIP3    H223357   4.835   2.274   3.764
 7806TIP3   OH223358   5.086   4.380   0.707
 7806TIP3    H123359   4.991   4.393   0.708
 7806TIP3    H223360   5.097   4.291   0.674
 7807TIP3   OH223361   0.206   5.136   4.712
 7807TIP3    H123362   0.177   5.083   4.787
 7807TIP3    H223363   0.253   5.209   4.751
 7808TIP3   OH223364   2.103   4.531   0.286
 7808TIP3    H123365   2.011   4.516   0.266
 7808TIP3    H223366   2.149   4.508   0.205
 7809TIP3   OH223367   7.690   3.844   3.583
 7809TIP3    H123368   7.770   3.889   3.556
 7809TIP3    H223369   7.651   3.813   3.501
 7810TIP3   OH223370   2.463   1.695   3.803
 7810TIP3    H123371   2.425   1.622   3.755
 7810TIP3    H223372   2.522   1.655   3.866
 7811TIP3   OH223373   6.469   6.613   0.972
 7811TIP3    H123374   6.425   6.697   0.957
 7811TIP3    H223375   6.508   6.591   0.887
 7812TIP3   OH223376   0.761   3.623   4.728
 7812TIP3    H123377   0.688   3.627   4.666
 7812TIP3    H223378   0.838   3.644   4.676
 7813TIP3   OH223379   4.677   6.688   5.326
 7813TIP3    H123380   4.601   6.633   5.346
 7813TIP3    H223381   4.640   6.776   5.317
 7814TIP3   OH223382   4.813   1.825   4.748
 7814TIP3    H123383   4.839   1.880   4.674
 7814TIP3    H223384   4.747   1.877   4.794
 7815TIP3   OH223385   5.152   0.149   3.799
 7815TIP3    H123386   5.061   0.147   3.770
 7815TIP3    H223387   5.184   0.236   3.773
 7816TIP3   OH223388   7.135   5.295   1.801
 7816TIP3    H123389   7.155   5.388   1.796
 7816TIP3    H223390   7.146   5.273   1.893
 7817TIP3   OH223391   5.091   4.986   0.532
 7817TIP3    H123392   5.069   4.896   0.507
 7817TIP3    H223393   5.180   4.980   0.567
 7818TIP3   OH223394   7.024   1.440   4.858
 7818TIP3    H123395   7.119   1.434   4.857
 7818TIP3    H223396   7.006   1.534   4.846
 7819TIP3   OH223397   6.164   6.456   1.338
 7819TIP3    H123398   6.221   6.464   1.261
 7819TIP3    H223399   6.154   6.362   1.351
 7820TIP3   OH223400   7.575   5.951   3.689
 7820TIP3    H123401   7.589   5.858   3.668
 7820TIP3    H223402   7.484   5.956   3.719
 7821TIP3   OH223403   4.911   0.758   2.068
 7821TIP3    H123404   4.979   0.737   2.132
 7821TIP3    H223405   4.840   0.795   2.120
 7822TIP3   OH223406   6.259   3.287   2.053
 7822TIP3    H123407   6.287   3.234   1.978
 7822TIP3    H223408   6.270   3.228   2.128
 7823TIP3   OH223409   2.267   3.303   5.596
 7823TIP3    H123410   2.279   3.308   5.501
 7823TIP3    H223411   2.355   3.311   5.632
 7824TIP3   OH223412   8.198   1.542   2.621
 7824TIP3    H123413   8.194   1.512   2.712
 7824TIP3    H223414   8.126   1.604   2.613
 7825TIP3   OH223415   7.117   5.820   6.158
 7825TIP3    H123416   7.121   5.751   6.225
 7825TIP3    H223417   7.047   5.791   6.098
 7826TIP3   OH223418   6.162   0.946   1.380
 7826TIP3    H123419   6.216   0.921   1.305
 7826TIP3    H223420   6.093   0.880   1.384
 7827TIP3   OH223421   8.318   3.833   6.053
 7827TIP3    H123422   8.400   3.806   6.095
 7827TIP3    H223423   8.327   3.803   5.962
 7828TIP3   OH223424   2.766   4.454   1.063
 7828TIP3    H123425   2.762   4.515   0.989
 7828TIP3    H223426   2.818   4.380   1.030
 7829TIP3   OH223427   5.548   1.704   1.632
 7829TIP3    H123428   5.637   1.738   1.631
 7829TIP3    H223429   5.535   1.672   1.721
 7830TIP3   OH223430   3.560   6.280   0.593
 7830TIP3    H123431   3.485   6.220   0.592
 7830TIP3    H223432   3.635   6.224   0.613
 7831TIP3   OH223433   4.043   7.786   1.580
 7831TIP3    H123434   4.008   7.777   1.492
 7831TIP3    H223435   4.012   7.871   1.611
 7832TIP3   OH223436   3.377   6.862   2.774
 7832TIP3    H123437   3.396   6.937   2.830
 7832TIP3    H223438   3.284   6.869   2.754
 7833TIP3   OH223439   3.813   0.876   2.548
 7833TIP3    H123440   3.893   0.826   2.562
 7833TIP3    H223441   3.805   0.931   2.627
 7834TIP3   OH223442   0.701   0.637   5.404
 7834TIP3    H123443   0.777   0.593   5.366
 7834TIP3    H223444   0.644   0.655   5.330
 7835TIP3   OH223445   0.716   0.565   0.747
 7835TIP3    H123446   0.631   0.601   0.771
 7835TIP3    H223447   0.695   0.481   0.707
 7836TIP3   OH223448   4.956   0.382   1.186
 7836TIP3    H123449   4.991   0.382   1.275
 7836TIP3    H223450   4.991   0.302   1.146
 7837TIP3   OH223451   1.826   6.128   3.234
 7837TIP3    H123452   1.771   6.173   3.299
 7837TIP3    H223453   1.796   6.163   3.150
 7838TIP3   OH223454   4.436   6.939   1.992
 7838TIP3    H123455   4.483   6.929   2.074
 7838TIP3    H223456   4.498   6.985   1.935
 7839TIP3   OH223457   4.490   1.538   1.968
 7839TIP3    H123458   4.411   1.527   2.021
 7839TIP3    H223459   4.467   1.607   1.906
 7840TIP3   OH223460   5.747   0.597   4.515
 7840TIP3    H123461   5.736   0.691   4.524
 7840TIP3    H223462   5.806   0.586   4.440
 7841TIP3   OH223463   7.238   0.873   0.066
 7841TIP3    H123464   7.186   0.805   0.108
 7841TIP3    H223465   7.315   0.828   0.033
 7842TIP3   OH223466   3.337   5.809   3.755
 7842TIP3    H123467   3.344   5.773   3.844
 7842TIP3    H223468   3.323   5.902   3.769
 7843TIP3   OH223469   5.653   2.620   4.811
 7843TIP3    H123470   5.637   2.537   4.856
 7843TIP3    H223471   5.609   2.609   4.726
 7844TIP3   OH223472   2.583   4.486   4.844
 7844TIP3    H123473   2.638   4.540   4.786
 7844TIP3    H223474   2.497   4.486   4.802
 7845TIP3   OH223475   0.655   0.142   3.323
 7845TIP3    H123476   0.691   0.225   3.356
 7845TIP3    H223477   0.623   0.098   3.402
 7846TIP3   OH223478   4.025   4.656   3.465
 7846TIP3    H123479   3.946   4.702   3.496
 7846TIP3    H223480   4.069   4.628   3.545
 7847TIP3   OH223481   2.225   4.922   4.204
 7847TIP3    H123482   2.129   4.928   4.195
 7847TIP3    H223483   2.259   4.963   4.125
 7848TIP3   OH223484   5.464   2.666   3.088
 7848TIP3    H123485   5.481   2.729   3.158
 7848TIP3    H223486   5.430   2.589   3.133
 7849TIP3   OH223487   1.555   1.823   1.482
 7849TIP3    H123488   1.532   1.747   1.536
 7849TIP3    H223489   1.545   1.898   1.541
 7850TIP3   OH223490   0.195   2.209   5.410
 7850TIP3    H123491   0.200   2.115   5.394
 7850TIP3    H223492   0.286   2.236   5.419
 7851TIP3   OH223493   4.782   6.590   6.393
 7851TIP3    H123494   4.877   6.588   6.407
 7851TIP3    H223495   4.749   6.649   6.461
 7852TIP3   OH223496   0.052   7.677   4.859
 7852TIP3    H123497   0.095   7.697   4.942
 7852TIP3    H223498   0.073   7.751   4.802
 7853TIP3   OH223499   6.841   5.152   6.459
 7853TIP3    H123500   6.892   5.227   6.489
 7853TIP3    H223501   6.852   5.086   6.526
 7854TIP3   OH223502   3.305   6.690   2.011
 7854TIP3    H123503   3.348   6.628   2.070
 7854TIP3    H223504   3.366   6.699   1.937
 7855TIP3   OH223505   5.181   4.786   4.041
 7855TIP3    H123506   5.199   4.857   3.979
 7855TIP3    H223507   5.135   4.720   3.989
 7856TIP3   OH223508   5.925   1.559   0.150
 7856TIP3    H123509   5.865   1.630   0.171
 7856TIP3    H223510   5.873   1.499   0.096
 7857TIP3   OH223511   1.377   5.175   2.449
 7857TIP3    H123512   1.390   5.081   2.452
 7857TIP3    H223513   1.464   5.210   2.428
 7858TIP3   OH223514   3.079   4.340   4.387
 7858TIP3    H123515   3.006   4.281   4.407
 7858TIP3    H223516   3.068   4.362   4.295
 7859TIP3   OH223517   2.083   7.694   4.033
 7859TIP3    H123518   2.149   7.759   4.007
 7859TIP3    H223519   2.039   7.733   4.108
 7860TIP3   OH223520   6.484   4.343   0.683
 7860TIP3    H123521   6.546   4.401   0.640
 7860TIP3    H223522   6.407   4.398   0.700
 7861TIP3   OH223523   1.566   6.685   2.060
 7861TIP3    H123524   1.574   6.762   2.004
 7861TIP3    H223525   1.580   6.719   2.149
 7862TIP3   OH223526   6.060   1.773   4.887
 7862TIP3    H123527   5.994   1.826   4.842
 7862TIP3    H223528   6.139   1.784   4.833
 7863TIP3   OH223529   3.996   3.405   5.061
 7863TIP3    H123530   3.931   3.463   5.022
 7863TIP3    H223531   3.964   3.388   5.149
 7864TIP3   OH223532   1.693   7.477   5.455
 7864TIP3    H123533   1.782   7.501   5.430
 7864TIP3    H223534   1.687   7.499   5.548
 7865TIP3   OH223535   2.628   6.553   2.970
 7865TIP3    H123536   2.668   6.505   2.897
 7865TIP3    H223537   2.649   6.501   3.047
 7866TIP3   OH223538   2.208   0.379   2.273
 7866TIP3    H123539   2.200   0.289   2.303
 7866TIP3    H223540   2.262   0.373   2.193
 7867TIP3   OH223541   4.692   3.264   6.099
 7867TIP3    H123542   4.751   3.201   6.057
 7867TIP3    H223543   4.626   3.210   6.142
 7868TIP3   OH223544   4.237   6.512   0.629
 7868TIP3    H123545   4.186   6.539   0.705
 7868TIP3    H223546   4.314   6.570   0.630
 7869TIP3   OH223547   0.225   4.831   5.319
 7869TIP3    H123548   0.246   4.924   5.319
 7869TIP3    H223549   0.133   4.827   5.344
 7870TIP3   OH223550   1.658   7.647   1.388
 7870TIP3    H123551   1.607   7.685   1.459
 7870TIP3    H223552   1.746   7.683   1.399
 7871TIP3   OH223553   3.818   2.343   0.036
 7871TIP3    H123554   3.791   2.420   0.086
 7871TIP3    H223555   3.812   2.370  -0.056
 7872TIP3   OH223556   4.033   4.794   1.425
 7872TIP3    H123557   4.110   4.850   1.437
 7872TIP3    H223558   4.012   4.802   1.333
 7873TIP3   OH223559   5.166   5.501   3.188
 7873TIP3    H123560   5.101   5.434   3.207
 7873TIP3    H223561   5.187   5.489   3.095
 7874TIP3   OH223562   3.387   1.427   3.324
 7874TIP3    H123563   3.310   1.455   3.276
 7874TIP3    H223564   3.446   1.502   3.321
 7875TIP3   OH223565   3.975   6.406   0.074
 7875TIP3    H123566   4.063   6.404   0.112
 7875TIP3    H223567   3.981   6.353  -0.005
 7876TIP3   OH223568   4.884   2.810   6.311
 7876TIP3    H123569   4.841   2.813   6.397
 7876TIP3    H223570   4.955   2.873   6.318
 7877TIP3   OH223571   4.614   6.516   4.574
 7877TIP3    H123572   4.672   6.580   4.532
 7877TIP3    H223573   4.635   6.523   4.667
 7878TIP3   OH223574   7.910   7.040   2.274
 7878TIP3    H123575   7.890   6.954   2.238
 7878TIP3    H223576   7.832   7.065   2.322
 7879TIP3   OH223577   1.754   5.001   0.004
 7879TIP3    H123578   1.749   5.053   0.085
 7879TIP3    H223579   1.835   4.951   0.013
 7880TIP3   OH223580   6.566   7.101   3.081
 7880TIP3    H123581   6.644   7.125   3.030
 7880TIP3    H223582   6.591   7.115   3.172
 7881TIP3   OH223583   3.100   7.312   1.987
 7881TIP3    H123584   3.013   7.333   2.020
 7881TIP3    H223585   3.089   7.307   1.892
 7882TIP3   OH223586   6.081   0.624   5.152
 7882TIP3    H123587   6.069   0.712   5.190
 7882TIP3    H223588   6.052   0.633   5.061
 7883TIP3   OH223589   3.045   7.827   1.045
 7883TIP3    H123590   3.075   7.894   1.106
 7883TIP3    H223591   2.978   7.871   0.992
 7884TIP3   OH223592   6.045   5.403   4.055
 7884TIP3    H123593   5.998   5.484   4.036
 7884TIP3    H223594   5.976   5.336   4.057
 7885TIP3   OH223595   4.713   5.492   3.529
 7885TIP3    H123596   4.700   5.484   3.623
 7885TIP3    H223597   4.651   5.561   3.502
 7886TIP3   OH223598   7.517   6.500   5.196
 7886TIP3    H123599   7.580   6.468   5.261
 7886TIP3    H223600   7.526   6.441   5.122
 7887TIP3   OH223601   1.754   4.216   2.618
 7887TIP3    H123602   1.774   4.190   2.708
 7887TIP3    H223603   1.670   4.174   2.599
 7888TIP3   OH223604   4.616   6.548   4.114
 7888TIP3    H123605   4.537   6.519   4.160
 7888TIP3    H223606   4.619   6.643   4.129
 7889TIP3   OH223607   5.899   7.221   1.426
 7889TIP3    H123608   5.951   7.141   1.421
 7889TIP3    H223609   5.918   7.269   1.346
 7890TIP3   OH223610   0.248   5.094   4.424
 7890TIP3    H123611   0.265   5.111   4.517
 7890TIP3    H223612   0.334   5.071   4.388
 7891TIP3   OH223613   0.454   1.333   2.609
 7891TIP3    H123614   0.541   1.313   2.575
 7891TIP3    H223615   0.401   1.350   2.530
 7892TIP3   OH223616   3.111   5.824   4.957
 7892TIP3    H123617   3.169   5.900   4.956
 7892TIP3    H223618   3.023   5.862   4.955
 7893TIP3   OH223619   7.359   2.243   6.027
 7893TIP3    H123620   7.386   2.174   6.088
 7893TIP3    H223621   7.390   2.212   5.941
 7894TIP3   OH223622   5.861   1.812   2.065
 7894TIP3    H123623   5.812   1.730   2.066
 7894TIP3    H223624   5.844   1.848   1.978
 7895TIP3   OH223625   0.780   5.885   5.439
 7895TIP3    H123626   0.716   5.814   5.440
 7895TIP3    H223627   0.842   5.862   5.508
 7896TIP3   OH223628   6.390   3.155   4.724
 7896TIP3    H123629   6.378   3.205   4.804
 7896TIP3    H223630   6.473   3.186   4.688
 7897TIP3   OH223631   2.445   6.494   2.160
 7897TIP3    H123632   2.393   6.478   2.239
 7897TIP3    H223633   2.400   6.444   2.092
 7898TIP3   OH223634   0.367   5.634   0.965
 7898TIP3    H123635   0.372   5.585   0.883
 7898TIP3    H223636   0.332   5.720   0.939
 7899TIP3   OH223637   5.355   3.216   3.548
 7899TIP3    H123638   5.308   3.261   3.618
 7899TIP3    H223639   5.416   3.158   3.594
 7900TIP3   OH223640   1.308   7.684   6.091
 7900TIP3    H123641   1.317   7.775   6.064
 7900TIP3    H223642   1.397   7.654   6.107
 7901TIP3   OH223643   3.427  -0.005   1.467
 7901TIP3    H123644   3.488  -0.036   1.534
 7901TIP3    H223645   3.482   0.018   1.393
 7902TIP3   OH223646   6.081   6.551   5.850
 7902TIP3    H123647   6.037   6.519   5.928
 7902TIP3    H223648   6.150   6.486   5.833
 7903TIP3   OH223649   7.195   6.105   6.032
 7903TIP3    H123650   7.227   6.077   6.118
 7903TIP3    H223651   7.185   6.023   5.983
 7904TIP3   OH223652   5.199   3.434   4.584
 7904TIP3    H123653   5.168   3.519   4.613
 7904TIP3    H223654   5.181   3.432   4.490
 7905TIP3   OH223655   4.969   1.465   2.895
 7905TIP3    H123656   4.967   1.527   2.822
 7905TIP3    H223657   5.059   1.469   2.928
 7906TIP3   OH223658   6.125   3.279   1.783
 7906TIP3    H123659   6.134   3.195   1.827
 7906TIP3    H223660   6.206   3.288   1.733
 7907TIP3   OH223661   3.139   6.494   2.720
 7907TIP3    H123662   3.167   6.571   2.671
 7907TIP3    H223663   3.191   6.422   2.684
 7908TIP3   OH223664   7.088   7.684   1.672
 7908TIP3    H123665   7.098   7.610   1.732
 7908TIP3    H223666   7.122   7.759   1.719
 7909TIP3   OH223667   5.615   2.022   0.914
 7909TIP3    H123668   5.529   1.987   0.889
 7909TIP3    H223669   5.650   2.059   0.834
 7910TIP3   OH223670   7.576   2.405   5.073
 7910TIP3    H123671   7.660   2.428   5.033
 7910TIP3    H223672   7.574   2.453   5.155
 7911TIP3   OH223673   3.847   5.463   1.617
 7911TIP3    H123674   3.790   5.467   1.541
 7911TIP3    H223675   3.934   5.442   1.582
 7912TIP3   OH223676   4.091   5.816   5.687
 7912TIP3    H123677   4.067   5.856   5.771
 7912TIP3    H223678   4.024   5.845   5.626
 7913TIP3   OH223679   4.144   5.112   2.911
 7913TIP3    H123680   4.161   5.178   2.978
 7913TIP3    H223681   4.146   5.029   2.958
 7914TIP3   OH223682   7.301   6.793   1.885
 7914TIP3    H123683   7.380   6.767   1.838
 7914TIP3    H223684   7.308   6.751   1.970
 7915TIP3   OH223685   1.756   2.873   4.589
 7915TIP3    H123686   1.803   2.953   4.612
 7915TIP3    H223687   1.672   2.904   4.555
 7916TIP3   OH223688   3.047   2.769   4.775
 7916TIP3    H123689   3.111   2.750   4.706
 7916TIP3    H223690   3.043   2.689   4.827
 7917TIP3   OH223691   2.754   5.528   6.585
 7917TIP3    H123692   2.730   5.600   6.644
 7917TIP3    H223693   2.804   5.570   6.515
 7918TIP3   OH223694   0.436   1.675   3.373
 7918TIP3    H123695   0.351   1.695   3.411
 7918TIP3    H223696   0.487   1.755   3.385
 7919TIP3   OH223697   6.782   4.030   1.326
 7919TIP3    H123698   6.719   4.102   1.327
 7919TIP3    H223699   6.744   3.965   1.268
 7920TIP3   OH223700   2.986   0.154   3.141
 7920TIP3    H123701   2.911   0.096   3.124
 7920TIP3    H223702   3.016   0.181   3.054
 7921TIP3   OH223703   5.528   6.219   6.429
 7921TIP3    H123704   5.484   6.189   6.350
 7921TIP3    H223705   5.603   6.270   6.398
 7922TIP3   OH223706   5.296   0.809   4.807
 7922TIP3    H123707   5.263   0.818   4.896
 7922TIP3    H223708   5.218   0.792   4.754
 7923TIP3   OH223709  -0.001   2.623   3.971
 7923TIP3    H123710  -0.008   2.674   4.051
 7923TIP3    H223711  -0.089   2.590   3.954
 7924TIP3   OH223712   1.275   2.195   5.876
 7924TIP3    H123713   1.237   2.275   5.838
 7924TIP3    H223714   1.241   2.193   5.965
 7925TIP3   OH223715   0.159   5.603   2.264
 7925TIP3    H123716   0.075   5.562   2.243
 7925TIP3    H223717   0.198   5.547   2.331
 7926TIP3   OH223718   7.980   5.619   4.285
 7926TIP3    H123719   7.901   5.598   4.236
 7926TIP3    H223720   8.041   5.652   4.218
 7927TIP3   OH223721   2.170   6.691   6.218
 7927TIP3    H123722   2.209   6.604   6.225
 7927TIP3    H223723   2.207   6.728   6.138
 7928TIP3   OH223724   3.988   4.898   3.722
 7928TIP3    H123725   3.937   4.857   3.652
 7928TIP3    H223726   3.928   4.962   3.761
 7929TIP3   OH223727   1.838   4.077   5.093
 7929TIP3    H123728   1.780   4.067   5.018
 7929TIP3    H223729   1.918   4.115   5.056
 7930TIP3   OH223730   6.766   6.744   0.365
 7930TIP3    H123731   6.767   6.649   0.353
 7930TIP3    H223732   6.852   6.765   0.401
 7931TIP3   OH223733   3.799   0.570   1.431
 7931TIP3    H123734   3.740   0.505   1.394
 7931TIP3    H223735   3.811   0.543   1.522
 7932TIP3   OH223736   6.662   5.454   5.690
 7932TIP3    H123737   6.580   5.404   5.692
 7932TIP3    H223738   6.720   5.408   5.752
 7933TIP3   OH223739   5.666   5.662   1.855
 7933TIP3    H123740   5.728   5.712   1.909
 7933TIP3    H223741   5.585   5.663   1.905
 7934TIP3   OH223742   1.484   2.407   3.366
 7934TIP3    H123743   1.565   2.357   3.353
 7934TIP3    H223744   1.421   2.343   3.399
 7935TIP3   OH223745   7.601   4.921   2.245
 7935TIP3    H123746   7.598   4.909   2.340
 7935TIP3    H223747   7.518   4.883   2.214
 7936TIP3   OH223748   4.653   1.695   5.797
 7936TIP3    H123749   4.583   1.761   5.796
 7936TIP3    H223750   4.717   1.729   5.860
 7937TIP3   OH223751   0.251   0.791   1.915
 7937TIP3    H123752   0.272   0.707   1.956
 7937TIP3    H223753   0.329   0.845   1.928
 7938TIP3   OH223754   4.550   2.079   3.336
 7938TIP3    H123755   4.489   2.043   3.271
 7938TIP3    H223756   4.498   2.086   3.416
 7939TIP3   OH223757   3.963   1.793   2.571
 7939TIP3    H123758   3.914   1.747   2.638
 7939TIP3    H223759   3.934   1.884   2.578
 7940TIP3   OH223760   1.947   1.387   2.021
 7940TIP3    H123761   1.852   1.378   2.007
 7940TIP3    H223762   1.980   1.425   1.939
 7941TIP3   OH223763   0.852   3.219   6.796
 7941TIP3    H123764   0.925   3.228   6.736
 7941TIP3    H223765   0.774   3.236   6.743
 7942TIP3   OH223766   7.849   1.500   6.171
 7942TIP3    H123767   7.798   1.562   6.119
 7942TIP3    H223768   7.787   1.433   6.196
 7943TIP3   OH223769   2.688   6.964   3.029
 7943TIP3    H123770   2.696   7.057   3.012
 7943TIP3    H223771   2.778   6.934   3.041
 7944TIP3   OH223772   6.671   7.507   4.224
 7944TIP3    H123773   6.644   7.423   4.262
 7944TIP3    H223774   6.664   7.494   4.129
 7945TIP3   OH223775   5.322   6.201   1.468
 7945TIP3    H123776   5.415   6.193   1.449
 7945TIP3    H223777   5.278   6.169   1.390
 7946TIP3   OH223778   0.450   4.725   1.730
 7946TIP3    H123779   0.380   4.694   1.673
 7946TIP3    H223780   0.420   4.811   1.759
 7947TIP3   OH223781   0.504   1.463   1.775
 7947TIP3    H123782   0.461   1.548   1.781
 7947TIP3    H223783   0.464   1.411   1.845
 7948TIP3   OH223784   0.540   2.059   6.672
 7948TIP3    H123785   0.634   2.055   6.692
 7948TIP3    H223786   0.526   2.147   6.638
 7949TIP3   OH223787   2.343   4.103   1.930
 7949TIP3    H123788   2.361   4.125   1.838
 7949TIP3    H223789   2.308   4.183   1.968
 7950TIP3   OH223790   5.419   6.761   2.161
 7950TIP3    H123791   5.459   6.822   2.223
 7950TIP3    H223792   5.405   6.813   2.082
 7951TIP3   OH223793   0.321   2.649   0.262
 7951TIP3    H123794   0.331   2.554   0.269
 7951TIP3    H223795   0.256   2.671   0.330
 7952TIP3   OH223796   5.164   3.493   2.876
 7952TIP3    H123797   5.088   3.447   2.842
 7952TIP3    H223798   5.216   3.425   2.918
 7953TIP3   OH223799   1.811   0.896   4.582
 7953TIP3    H123800   1.889   0.841   4.573
 7953TIP3    H223801   1.815   0.955   4.507
 7954TIP3   OH223802   6.835   6.043   6.682
 7954TIP3    H123803   6.876   5.970   6.728
 7954TIP3    H223804   6.746   6.049   6.718
 7955TIP3   OH223805   8.421   6.043   3.171
 7955TIP3    H123806   8.449   6.013   3.257
 7955TIP3    H223807   8.367   5.971   3.137
 7956TIP3   OH223808   5.796   0.543   6.684
 7956TIP3    H123809   5.792   0.617   6.745
 7956TIP3    H223810   5.736   0.478   6.720
 7957TIP3   OH223811   7.548   0.317   0.672
 7957TIP3    H123812   7.612   0.306   0.742
 7957TIP3    H223813   7.600   0.308   0.591
 7958TIP3   OH223814   7.852   0.310   2.507
 7958TIP3    H123815   7.939   0.349   2.501
 7958TIP3    H223816   7.867   0.216   2.496
 7959TIP3   OH223817   6.059   1.203   1.320
 7959TIP3    H123818   6.088   1.118   1.351
 7959TIP3    H223819   5.984   1.184   1.264
 7960TIP3   OH223820   3.153   4.709   3.777
 7960TIP3    H123821   3.184   4.708   3.867
 7960TIP3    H223822   3.160   4.800   3.750
 7961TIP3   OH223823   0.260   3.459   0.302
 7961TIP3    H123824   0.165   3.466   0.308
 7961TIP3    H223825   0.276   3.374   0.261
 7962TIP3   OH223826   0.874   7.010   3.328
 7962TIP3    H123827   0.881   7.093   3.375
 7962TIP3    H223828   0.882   7.035   3.235
 7963TIP3   OH223829   5.460   4.711   2.163
 7963TIP3    H123830   5.547   4.710   2.202
 7963TIP3    H223831   5.401   4.690   2.236
 7964TIP3   OH223832   1.051   2.442   6.004
 7964TIP3    H123833   1.112   2.470   6.073
 7964TIP3    H223834   0.965   2.441   6.047
 7965TIP3   OH223835   5.541   4.390   5.548
 7965TIP3    H123836   5.570   4.344   5.470
 7965TIP3    H223837   5.594   4.470   5.551
 7966TIP3   OH223838   4.547   7.770   2.308
 7966TIP3    H123839   4.479   7.746   2.245
 7966TIP3    H223840   4.513   7.740   2.392
 7967TIP3   OH223841   1.729   7.372   6.848
 7967TIP3    H123842   1.713   7.378   6.754
 7967TIP3    H223843   1.824   7.368   6.856
 7968TIP3   OH223844   2.581   6.758   3.841
 7968TIP3    H123845   2.509   6.768   3.903
 7968TIP3    H223846   2.611   6.847   3.825
 7969TIP3   OH223847   1.935   2.346   2.561
 7969TIP3    H123848   1.878   2.271   2.577
 7969TIP3    H223849   1.905   2.382   2.477
 7970TIP3   OH223850   0.327   1.102   1.209
 7970TIP3    H123851   0.305   1.145   1.126
 7970TIP3    H223852   0.343   1.011   1.184
 7971TIP3   OH223853   3.028   0.785   6.579
 7971TIP3    H123854   2.949   0.749   6.621
 7971TIP3    H223855   3.097   0.723   6.601
 7972TIP3   OH223856   6.828   4.122   3.374
 7972TIP3    H123857   6.755   4.159   3.424
 7972TIP3    H223858   6.880   4.199   3.348
 7973TIP3   OH223859   6.655   0.747   5.309
 7973TIP3    H123860   6.721   0.787   5.252
 7973TIP3    H223861   6.604   0.691   5.250
 7974TIP3   OH223862   6.498   5.261   5.999
 7974TIP3    H123863   6.431   5.323   5.969
 7974TIP3    H223864   6.456   5.175   5.989
 7975TIP3   OH223865   0.558   1.825   0.218
 7975TIP3    H123866   0.583   1.848   0.307
 7975TIP3    H223867   0.575   1.731   0.212
 7976TIP3   OH223868   5.353   0.304   4.024
 7976TIP3    H123869   5.280   0.364   4.042
 7976TIP3    H223870   5.429   0.346   4.063
 7977TIP3   OH223871   4.628   7.417   4.890
 7977TIP3    H123872   4.550   7.388   4.938
 7977TIP3    H223873   4.673   7.475   4.952
 7978TIP3   OH223874   4.119   0.991   2.852
 7978TIP3    H123875   4.209   0.991   2.886
 7978TIP3    H223876   4.128   0.995   2.757
 7979TIP3   OH223877   4.734   6.303   5.355
 7979TIP3    H123878   4.744   6.213   5.383
 7979TIP3    H223879   4.680   6.298   5.276
 7980TIP3   OH223880   1.995   0.050   4.648
 7980TIP3    H123881   1.910   0.092   4.663
 7980TIP3    H223882   1.974  -0.039   4.620
 7981TIP3   OH223883   0.542   2.611   2.978
 7981TIP3    H123884   0.498   2.642   3.057
 7981TIP3    H223885   0.493   2.651   2.906
 7982TIP3   OH223886   6.652   0.061   4.139
 7982TIP3    H123887   6.584   0.120   4.172
 7982TIP3    H223888   6.664   0.086   4.048
 7983TIP3   OH223889   3.549   6.342   0.098
 7983TIP3    H123890   3.534   6.366   0.190
 7983TIP3    H223891   3.644   6.349   0.087
 7984TIP3   OH223892   1.899   0.922   1.027
 7984TIP3    H123893   1.872   0.871   1.103
 7984TIP3    H223894   1.880   0.865   0.952
 7985TIP3   OH223895   5.301   2.834   5.316
 7985TIP3    H123896   5.224   2.781   5.332
 7985TIP3    H223897   5.291   2.909   5.374
 7986TIP3   OH223898   5.775   4.179   1.281
 7986TIP3    H123899   5.722   4.107   1.246
 7986TIP3    H223900   5.846   4.135   1.327
 7987TIP3   OH223901   6.205   3.354   0.058
 7987TIP3    H123902   6.199   3.446   0.086
 7987TIP3    H223903   6.292   3.347   0.019
 7988TIP3   OH223904   4.579   2.436   3.770
 7988TIP3    H123905   4.520   2.491   3.821
 7988TIP3    H223906   4.627   2.498   3.714
 7989TIP3   OH223907   1.819   4.949   0.734
 7989TIP3    H123908   1.748   5.011   0.746
 7989TIP3    H223909   1.820   4.898   0.815
 7990TIP3   OH223910   1.995   1.615   2.945
 7990TIP3    H123911   2.073   1.561   2.938
 7990TIP3    H223912   1.934   1.562   2.997
 7991TIP3   OH223913   5.331   1.759   5.407
 7991TIP3    H123914   5.345   1.766   5.502
 7991TIP3    H223915   5.285   1.675   5.396
 7992TIP3   OH223916   3.231   4.384   1.592
 7992TIP3    H123917   3.295   4.440   1.548
 7992TIP3    H223918   3.208   4.318   1.526
 7993TIP3   OH223919   6.856   6.483   3.144
 7993TIP3    H123920   6.939   6.461   3.185
 7993TIP3    H223921   6.792   6.425   3.184
 7994TIP3   OH223922   5.743   2.537   0.340
 7994TIP3    H123923   5.819   2.542   0.281
 7994TIP3    H223924   5.761   2.602   0.408
 7995TIP3   OH223925   6.536   3.586   4.577
 7995TIP3    H123926   6.608   3.605   4.637
 7995TIP3    H223927   6.562   3.627   4.494
 7996TIP3   OH223928   7.639   1.593   0.973
 7996TIP3    H123929   7.620   1.670   0.919
 7996TIP3    H223930   7.560   1.581   1.026
 7997TIP3   OH223931   4.347   0.747   4.500
 7997TIP3    H123932   4.437   0.727   4.472
 7997TIP3    H223933   4.357   0.814   4.567
 7998TIP3   OH223934   0.129   1.149   5.088
 7998TIP3    H123935   0.190   1.194   5.031
 7998TIP3    H223936   0.045   1.154   5.043
 7999TIP3   OH223937   8.261   6.462   5.667
 7999TIP3    H123938   8.232   6.506   5.747
 7999TIP3    H223939   8.307   6.384   5.697
 8000TIP3   OH223940   5.206   1.035   5.799
 8000TIP3    H123941   5.168   0.984   5.728
 8000TIP3    H223942   5.143   1.104   5.817
 8001TIP3   OH223943   0.082   3.040   4.543
 8001TIP3    H123944   0.173   3.045   4.573
 8001TIP3    H223945   0.030   3.050   4.622
 8002TIP3   OH223946   7.345   4.571   5.743
 8002TIP3    H123947   7.265   4.518   5.742
 8002TIP3    H223948   7.404   4.527   5.682
 8003TIP3   OH223949   7.835   1.267   4.530
 8003TIP3    H123950   7.835   1.266   4.626
 8003TIP3    H223951   7.762   1.324   4.507
 8004TIP3   OH223952   2.207   6.039   2.946
 8004TIP3    H123953   2.260   6.099   2.893
 8004TIP3    H223954   2.215   6.073   3.035
 8005TIP3   OH223955   6.183   7.623   5.419
 8005TIP3    H123956   6.224   7.673   5.348
 8005TIP3    H223957   6.189   7.680   5.495
 8006TIP3   OH223958   2.641   2.632   3.252
 8006TIP3    H123959   2.638   2.697   3.183
 8006TIP3    H223960   2.586   2.560   3.220
 8007TIP3   OH223961   5.570   0.410   4.137
 8007TIP3    H123962   5.580   0.409   4.232
 8007TIP3    H223963   5.620   0.487   4.109
 8008TIP3   OH223964   3.205   5.418   5.154
 8008TIP3    H123965   3.248   5.437   5.237
 8008TIP3    H223966   3.125   5.372   5.179
 8009TIP3   OH223967   4.252   2.824   1.521
 8009TIP3    H123968   4.261   2.853   1.430
 8009TIP3    H223969   4.164   2.853   1.547
 8010TIP3   OH223970   0.280   7.785   5.383
 8010TIP3    H123971   0.316   7.866   5.347
 8010TIP3    H223972   0.317   7.779   5.471
 8011TIP3   OH223973   2.646   1.694   6.256
 8011TIP3    H123974   2.631   1.629   6.325
 8011TIP3    H223975   2.628   1.778   6.297
 8012TIP3   OH223976   2.461   3.427   3.389
 8012TIP3    H123977   2.499   3.363   3.449
 8012TIP3    H223978   2.366   3.415   3.398
 8013TIP3   OH223979   2.823   4.705   5.951
 8013TIP3    H123980   2.810   4.700   6.046
 8013TIP3    H223981   2.917   4.692   5.938
 8014TIP3   OH223982   4.533   4.512   2.358
 8014TIP3    H123983   4.519   4.490   2.450
 8014TIP3    H223984   4.551   4.606   2.358
 8015TIP3   OH223985   7.389   5.314   2.889
 8015TIP3    H123986   7.378   5.299   2.982
 8015TIP3    H223987   7.306   5.353   2.861
 8016TIP3   OH223988   1.620   5.604   0.921
 8016TIP3    H123989   1.702   5.611   0.969
 8016TIP3    H223990   1.579   5.690   0.929
 8017TIP3   OH223991   0.370   3.450   2.347
 8017TIP3    H123992   0.404   3.398   2.274
 8017TIP3    H223993   0.398   3.539   2.327
 8018TIP3   OH223994   6.779   6.154   3.272
 8018TIP3    H123995   6.775   6.072   3.321
 8018TIP3    H223996   6.827   6.214   3.330
 8019TIP3   OH223997   1.382   2.847   3.193
 8019TIP3    H123998   1.456   2.905   3.171
 8019TIP3    H223999   1.420   2.759   3.193
 8020TIP3   OH224000   0.082   6.916   4.379
 8020TIP3    H124001   0.021   6.984   4.350
 8020TIP3    H224002   0.124   6.954   4.457
 8021TIP3   OH224003   0.463   0.067   3.964
 8021TIP3    H124004   0.528   0.030   3.904
 8021TIP3    H224005   0.380   0.031   3.933
 8022TIP3   OH224006   1.898   1.067   6.905
 8022TIP3    H124007   1.914   1.098   6.816
 8022TIP3    H224008   1.845   0.988   6.894
 8023TIP3   OH224009   6.124   7.440   0.675
 8023TIP3    H124010   6.197   7.381   0.693
 8023TIP3    H224011   6.121   7.498   0.750
 8024TIP3   OH224012   6.023   6.945   1.108
 8024TIP3    H124013   5.950   6.940   1.169
 8024TIP3    H224014   6.047   6.854   1.092
 8025TIP3   OH224015   4.494   0.050   0.415
 8025TIP3    H124016   4.560   0.106   0.374
 8025TIP3    H224017   4.498   0.073   0.508
 8026TIP3   OH224018   5.145   2.694   6.235
 8026TIP3    H124019   5.103   2.762   6.182
 8026TIP3    H224020   5.091   2.689   6.314
 8027TIP3   OH224021   5.046   0.276   1.416
 8027TIP3    H124022   5.033   0.357   1.466
 8027TIP3    H224023   5.126   0.238   1.452
 8028TIP3   OH224024   2.681   5.548   0.759
 8028TIP3    H124025   2.700   5.639   0.736
 8028TIP3    H224026   2.742   5.529   0.830
 8029TIP3   OH224027   8.247   4.455   0.357
 8029TIP3    H124028   8.185   4.383   0.369
 8029TIP3    H224029   8.324   4.430   0.408
 8030TIP3   OH224030   0.959   1.367   5.645
 8030TIP3    H124031   0.866   1.347   5.653
 8030TIP3    H224032   0.967   1.458   5.675
 8031TIP3   OH224033   4.342   3.034   4.978
 8031TIP3    H124034   4.433   3.033   4.946
 8031TIP3    H224035   4.331   3.122   5.014
 8032TIP3   OH224036   4.130   7.576   6.487
 8032TIP3    H124037   4.114   7.634   6.412
 8032TIP3    H224038   4.175   7.632   6.551
 8033TIP3   OH224039   2.520   0.354   2.700
 8033TIP3    H124040   2.575   0.401   2.638
 8033TIP3    H224041   2.498   0.420   2.767
 8034TIP3   OH224042   7.885   7.086   4.966
 8034TIP3    H124043   7.919   7.018   5.024
 8034TIP3    H224044   7.796   7.057   4.945
 8035TIP3   OH224045   5.084   5.368   0.726
 8035TIP3    H124046   5.117   5.310   0.658
 8035TIP3    H224047   5.156   5.373   0.790
 8036TIP3   OH224048   5.039   1.446   0.473
 8036TIP3    H124049   5.040   1.539   0.447
 8036TIP3    H224050   5.123   1.433   0.517
 8037TIP3   OH224051   1.659   5.972   5.951
 8037TIP3    H124052   1.593   5.932   6.008
 8037TIP3    H224053   1.743   5.946   5.990
 8038TIP3   OH224054   5.446   3.869   4.699
 8038TIP3    H124055   5.355   3.876   4.727
 8038TIP3    H224056   5.477   3.959   4.693
 8039TIP3   OH224057   6.007   5.938   6.197
 8039TIP3    H124058   6.094   5.937   6.158
 8039TIP3    H224059   6.019   5.898   6.284
 8040TIP3   OH224060   6.566   7.423   4.910
 8040TIP3    H124061   6.563   7.482   4.986
 8040TIP3    H224062   6.474   7.407   4.889
 8041TIP3   OH224063   1.626   2.264   0.166
 8041TIP3    H124064   1.636   2.169   0.180
 8041TIP3    H224065   1.596   2.297   0.251
 8042TIP3   OH224066   2.256   4.364   5.982
 8042TIP3    H124067   2.328   4.408   5.937
 8042TIP3    H224068   2.200   4.332   5.912
 8043TIP3   OH224069   6.487   6.932   4.626
 8043TIP3    H124070   6.437   6.872   4.571
 8043TIP3    H224071   6.466   6.905   4.715
 8044TIP3   OH224072   0.575   5.686   0.538
 8044TIP3    H124073   0.653   5.668   0.590
 8044TIP3    H224074   0.502   5.659   0.592
 8045TIP3   OH224075   7.330   1.569   3.973
 8045TIP3    H124076   7.320   1.495   3.913
 8045TIP3    H224077   7.418   1.559   4.008
 8046TIP3   OH224078   0.288   4.351   5.920
 8046TIP3    H124079   0.224   4.283   5.896
 8046TIP3    H224080   0.342   4.362   5.841
 8047TIP3   OH224081   7.767   5.941   2.875
 8047TIP3    H124082   7.761   5.891   2.794
 8047TIP3    H224083   7.838   6.004   2.859
 8048TIP3   OH224084   6.587   1.739   6.540
 8048TIP3    H124085   6.641   1.662   6.559
 8048TIP3    H224086   6.514   1.705   6.489
 8049TIP3   OH224087   3.357   4.945   3.242
 8049TIP3    H124088   3.439   4.931   3.194
 8049TIP3    H224089   3.358   5.038   3.265
 8050TIP3   OH224090   0.100   0.006   4.592
 8050TIP3    H124091   0.067  -0.006   4.503
 8050TIP3    H224092   0.024  -0.006   4.648
 8051TIP3   OH224093   1.521   6.719   4.348
 8051TIP3    H124094   1.576   6.736   4.271
 8051TIP3    H224095   1.569   6.758   4.421
 8052TIP3   OH224096   7.642   1.720   1.374
 8052TIP3    H124097   7.564   1.733   1.428
 8052TIP3    H224098   7.693   1.800   1.387
 8053TIP3   OH224099   6.391   1.164   6.405
 8053TIP3    H124100   6.396   1.240   6.463
 8053TIP3    H224101   6.458   1.104   6.438
 8054TIP3   OH224102   3.075   4.430   1.317
 8054TIP3    H124103   3.138   4.362   1.341
 8054TIP3    H224104   2.991   4.384   1.310
 8055TIP3   OH224105   4.786   4.777   1.552
 8055TIP3    H124106   4.824   4.782   1.464
 8055TIP3    H224107   4.773   4.683   1.566
 8056TIP3   OH224108   5.633   5.050   1.475
 8056TIP3    H124109   5.675   4.983   1.529
 8056TIP3    H224110   5.671   5.133   1.505
 8057TIP3   OH224111   5.392   2.470   0.628
 8057TIP3    H124112   5.364   2.547   0.580
 8057TIP3    H224113   5.469   2.499   0.678
 8058TIP3   OH224114   7.255   5.706   2.746
 8058TIP3    H124115   7.206   5.781   2.780
 8058TIP3    H224116   7.337   5.706   2.795
 8059TIP3   OH224117   4.044   6.084   0.457
 8059TIP3    H124118   4.106   6.067   0.386
 8059TIP3    H224119   4.078   6.032   0.530
 8060TIP3   OH224120   2.389   3.706   0.496
 8060TIP3    H124121   2.297   3.732   0.501
 8060TIP3    H224122   2.404   3.690   0.403
 8061TIP3   OH224123   0.630   1.401   3.199
 8061TIP3    H124124   0.557   1.454   3.168
 8061TIP3    H224125   0.705   1.432   3.148
 8062TIP3   OH224126   5.048   7.206   1.665
 8062TIP3    H124127   4.987   7.198   1.738
 8062TIP3    H224128   5.013   7.148   1.597
 8063TIP3   OH224129   1.793   3.889   0.699
 8063TIP3    H124130   1.760   3.967   0.655
 8063TIP3    H224131   1.787   3.909   0.792
 8064TIP3   OH224132   6.594   7.462   6.709
 8064TIP3    H124133   6.570   7.536   6.765
 8064TIP3    H224134   6.633   7.398   6.770
 8065TIP3   OH224135   0.738   4.735   0.614
 8065TIP3    H124136   0.663   4.778   0.573
 8065TIP3    H224137   0.755   4.657   0.561
 8066TIP3   OH224138   4.778   1.069   2.870
 8066TIP3    H124139   4.686   1.081   2.896
 8066TIP3    H224140   4.820   1.031   2.947
 8067TIP3   OH224141   1.176   6.590   4.267
 8067TIP3    H124142   1.137   6.564   4.351
 8067TIP3    H224143   1.190   6.684   4.276
 8068TIP3   OH224144   1.055   1.715   6.584
 8068TIP3    H124145   1.017   1.662   6.514
 8068TIP3    H224146   1.141   1.677   6.599
 8069TIP3   OH224147   0.470   1.051   3.804
 8069TIP3    H124148   0.477   1.069   3.898
 8069TIP3    H224149   0.415   1.122   3.770
 8070TIP3   OH224150   7.123   6.777   0.866
 8070TIP3    H124151   7.177   6.855   0.881
 8070TIP3    H224152   7.153   6.743   0.781
 8071TIP3   OH224153   1.813   7.326   4.562
 8071TIP3    H124154   1.720   7.348   4.569
 8071TIP3    H224155   1.854   7.405   4.525
 8072TIP3   OH224156   0.786   0.320   2.060
 8072TIP3    H124157   0.822   0.399   2.020
 8072TIP3    H224158   0.691   0.329   2.050
 8073TIP3   OH224159   7.948   6.440   1.143
 8073TIP3    H124160   7.936   6.508   1.077
 8073TIP3    H224161   8.021   6.388   1.110
 8074TIP3   OH224162   5.969   4.796   5.868
 8074TIP3    H124163   6.005   4.708   5.869
 8074TIP3    H224164   5.951   4.813   5.775
 8075TIP3   OH224165   0.352   1.453   3.935
 8075TIP3    H124166   0.363   1.438   4.028
 8075TIP3    H224167   0.280   1.516   3.928
 8076TIP3   OH224168   1.584   0.584   0.341
 8076TIP3    H124169   1.591   0.599   0.435
 8076TIP3    H224170   1.493   0.560   0.327
 8077TIP3   OH224171   6.483   5.088   4.165
 8077TIP3    H124172   6.434   5.123   4.238
 8077TIP3    H224173   6.424   5.026   4.123
 8078TIP3   OH224174  -0.012   2.579   5.510
 8078TIP3    H124175  -0.072   2.552   5.441
 8078TIP3    H224176  -0.012   2.675   5.506
 8079TIP3   OH224177   1.790   0.461   3.327
 8079TIP3    H124178   1.711   0.511   3.346
 8079TIP3    H224179   1.828   0.504   3.251
 8080TIP3   OH224180   0.991   3.412   2.216
 8080TIP3    H124181   1.074   3.452   2.192
 8080TIP3    H224182   0.958   3.467   2.287
 8081TIP3   OH224183   1.960   2.396   5.582
 8081TIP3    H124184   1.931   2.482   5.612
 8081TIP3    H224185   2.055   2.397   5.592
 8082TIP3   OH224186   0.777   5.142   3.538
 8082TIP3    H124187   0.838   5.215   3.538
 8082TIP3    H224188   0.704   5.171   3.484
 8083TIP3   OH224189   6.285   4.467   6.450
 8083TIP3    H124190   6.302   4.530   6.521
 8083TIP3    H224191   6.197   4.434   6.468
 8084TIP3   OH224192   5.678   2.827   3.580
 8084TIP3    H124193   5.685   2.742   3.625
 8084TIP3    H224194   5.727   2.815   3.499
 8085TIP3   OH224195   7.988   6.652   3.161
 8085TIP3    H124196   7.925   6.585   3.185
 8085TIP3    H224197   7.955   6.732   3.203
 8086TIP3   OH224198   0.833   1.954   2.474
 8086TIP3    H124199   0.835   2.049   2.461
 8086TIP3    H224200   0.864   1.918   2.391
 8087TIP3   OH224201   1.164   1.293   3.318
 8087TIP3    H124202   1.200   1.205   3.312
 8087TIP3    H224203   1.070   1.281   3.317
 8088TIP3   OH224204   6.047   1.701   4.039
 8088TIP3    H124205   6.109   1.650   3.986
 8088TIP3    H224206   6.093   1.783   4.057
 8089TIP3   OH224207   2.691   0.306   6.142
 8089TIP3    H124208   2.699   0.363   6.218
 8089TIP3    H224209   2.727   0.357   6.070
 8090TIP3   OH224210   2.685   2.555   4.679
 8090TIP3    H124211   2.614   2.606   4.720
 8090TIP3    H224212   2.691   2.476   4.733
 8091TIP3   OH224213   1.293   6.493   2.051
 8091TIP3    H124214   1.206   6.528   2.032
 8091TIP3    H224215   1.327   6.550   2.120
 8092TIP3   OH224216   5.096   2.191   1.041
 8092TIP3    H124217   5.145   2.268   1.070
 8092TIP3    H224218   5.010   2.201   1.082
 8093TIP3   OH224219   3.626   3.906   1.855
 8093TIP3    H124220   3.536   3.939   1.857
 8093TIP3    H224221   3.617   3.814   1.830
 8094TIP3   OH224222   7.057   6.211   3.571
 8094TIP3    H124223   7.013   6.285   3.613
 8094TIP3    H224224   7.112   6.173   3.639
 8095TIP3   OH224225   2.072   3.959   1.273
 8095TIP3    H124226   2.082   3.920   1.186
 8095TIP3    H224227   2.020   4.038   1.258
 8096TIP3   OH224228   4.748   5.834   1.682
 8096TIP3    H124229   4.786   5.914   1.718
 8096TIP3    H224230   4.782   5.830   1.592
 8097TIP3   OH224231   4.030   6.064   4.586
 8097TIP3    H124232   4.035   5.999   4.517
 8097TIP3    H224233   4.090   6.133   4.559
 8098TIP3   OH224234   3.881   4.544   0.821
 8098TIP3    H124235   3.849   4.569   0.734
 8098TIP3    H224236   3.805   4.506   0.865
 8099TIP3   OH224237   4.682   3.749   6.499
 8099TIP3    H124238   4.730   3.697   6.564
 8099TIP3    H224239   4.601   3.774   6.544
 8100TIP3   OH224240   5.389   7.402   4.205
 8100TIP3    H124241   5.308   7.432   4.246
 8100TIP3    H224242   5.388   7.307   4.216
 8101TIP3   OH224243   4.882   3.991   6.607
 8101TIP3    H124244   4.824   4.050   6.558
 8101TIP3    H224245   4.870   3.906   6.564
 8102TIP3   OH224246   7.944   0.859   1.617
 8102TIP3    H124247   8.032   0.884   1.644
 8102TIP3    H224248   7.925   0.779   1.666
 8103TIP3   OH224249   1.136   4.155   4.236
 8103TIP3    H124250   1.174   4.202   4.162
 8103TIP3    H224251   1.078   4.219   4.278
 8104TIP3   OH224252   4.313   3.298   0.268
 8104TIP3    H124253   4.272   3.292   0.354
 8104TIP3    H224254   4.305   3.390   0.244
 8105TIP3   OH224255   8.338   1.201   6.585
 8105TIP3    H124256   8.377   1.230   6.503
 8105TIP3    H224257   8.398   1.232   6.653
 8106TIP3   OH224258   2.764   7.477   3.960
 8106TIP3    H124259   2.780   7.518   3.875
 8106TIP3    H224260   2.836   7.416   3.972
 8107TIP3   OH224261   5.966   1.798   5.753
 8107TIP3    H124262   6.000   1.744   5.682
 8107TIP3    H224263   5.976   1.744   5.831
 8108TIP3   OH224264   1.382   6.670   1.176
 8108TIP3    H124265   1.371   6.764   1.165
 8108TIP3    H224266   1.468   6.651   1.139
 8109TIP3   OH224267   4.056   3.567   0.554
 8109TIP3    H124268   4.120   3.559   0.484
 8109TIP3    H224269   3.994   3.634   0.524
 8110TIP3   OH224270   3.247   0.381   0.247
 8110TIP3    H124271   3.269   0.464   0.288
 8110TIP3    H224272   3.156   0.391   0.219
 8111TIP3   OH224273   0.976   0.164   5.632
 8111TIP3    H124274   0.959   0.256   5.649
 8111TIP3    H224275   1.017   0.162   5.546
 8112TIP3   OH224276   6.438   6.375   2.806
 8112TIP3    H124277   6.448   6.281   2.797
 8112TIP3    H224278   6.513   6.402   2.860
 8113TIP3   OH224279   7.575   0.838   5.508
 8113TIP3    H124280   7.613   0.870   5.589
 8113TIP3    H224281   7.634   0.769   5.479
 8114TIP3   OH224282   3.305   2.263   4.369
 8114TIP3    H124283   3.313   2.318   4.447
 8114TIP3    H224284   3.328   2.321   4.297
 8115TIP3   OH224285   7.623   0.478   2.182
 8115TIP3    H124286   7.699   0.536   2.181
 8115TIP3    H224287   7.550   0.535   2.208
 8116TIP3   OH224288   2.484   6.018   2.098
 8116TIP3    H124289   2.390   6.000   2.098
 8116TIP3    H224290   2.507   6.023   2.006
 8117TIP3   OH224291   6.523   7.299   3.644
 8117TIP3    H124292   6.442   7.300   3.593
 8117TIP3    H224293   6.556   7.209   3.635
 8118TIP3   OH224294   0.077   4.011   1.814
 8118TIP3    H124295   0.129   3.988   1.737
 8118TIP3    H224296   0.007   3.945   1.816
 8119TIP3   OH224297   7.467   1.673   1.175
 8119TIP3    H124298   7.538   1.661   1.238
 8119TIP3    H224299   7.398   1.718   1.226
 8120TIP3   OH224300   0.264   2.017   5.991
 8120TIP3    H124301   0.242   2.108   6.010
 8120TIP3    H224302   0.354   2.008   6.021
 8121TIP3   OH224303   5.186   6.394   0.687
 8121TIP3    H124304   5.206   6.449   0.612
 8121TIP3    H224305   5.261   6.334   0.693
 8122TIP3   OH224306   4.200   4.736   6.141
 8122TIP3    H124307   4.258   4.792   6.192
 8122TIP3    H224308   4.251   4.712   6.063
 8123TIP3   OH224309   3.617   2.007   4.397
 8123TIP3    H124310   3.604   1.915   4.375
 8123TIP3    H224311   3.550   2.026   4.463
 8124TIP3   OH224312   7.832   3.222   4.570
 8124TIP3    H124313   7.772   3.286   4.531
 8124TIP3    H224314   7.805   3.217   4.661
 8125TIP3   OH224315   3.464   6.797   5.465
 8125TIP3    H124316   3.480   6.868   5.527
 8125TIP3    H224317   3.423   6.839   5.389
 8126TIP3   OH224318   4.575   5.971   5.547
 8126TIP3    H124319   4.523   5.921   5.484
 8126TIP3    H224320   4.510   6.015   5.602
 8127TIP3   OH224321   0.629   0.869   1.298
 8127TIP3    H124322   0.681   0.950   1.306
 8127TIP3    H224323   0.545   0.891   1.340
 8128TIP3   OH224324   5.945   6.316   4.348
 8128TIP3    H124325   5.907   6.256   4.284
 8128TIP3    H224326   6.032   6.335   4.314
 8129TIP3   OH224327   2.525   1.835   1.056
 8129TIP3    H124328   2.527   1.922   1.015
 8129TIP3    H224329   2.585   1.782   1.004
 8130TIP3   OH224330   2.303   5.270   5.327
 8130TIP3    H124331   2.395   5.292   5.339
 8130TIP3    H224332   2.300   5.219   5.246
 8131TIP3   OH224333   5.983   5.116   3.226
 8131TIP3    H124334   5.964   5.200   3.268
 8131TIP3    H224335   6.050   5.136   3.161
 8132TIP3   OH224336   1.878   6.540   5.468
 8132TIP3    H124337   1.870   6.469   5.532
 8132TIP3    H224338   1.891   6.619   5.521
 8133TIP3   OH224339   6.471   1.986   5.425
 8133TIP3    H124340   6.412   1.912   5.442
 8133TIP3    H224341   6.420   2.063   5.446
 8134TIP3   OH224342   5.355   6.216   0.507
 8134TIP3    H124343   5.331   6.134   0.465
 8134TIP3    H224344   5.387   6.191   0.593
 8135TIP3   OH224345   1.608   6.359   6.888
 8135TIP3    H124346   1.652   6.288   6.840
 8135TIP3    H224347   1.613   6.331   6.980
 8136TIP3   OH224348   0.971   2.565   6.706
 8136TIP3    H124349   1.064   2.589   6.699
 8136TIP3    H224350   0.932   2.635   6.758
 8137TIP3   OH224351   7.375   5.686   6.165
 8137TIP3    H124352   7.376   5.726   6.251
 8137TIP3    H224353   7.325   5.747   6.111
 8138TIP3   OH224354   2.469   5.961   0.511
 8138TIP3    H124355   2.493   5.884   0.460
 8138TIP3    H224356   2.551   6.010   0.520
 8139TIP3   OH224357   3.820   2.727   5.404
 8139TIP3    H124358   3.772   2.712   5.322
 8139TIP3    H224359   3.862   2.643   5.422
 8140TIP3   OH224360   2.324   7.081   3.954
 8140TIP3    H124361   2.246   7.129   3.929
 8140TIP3    H224362   2.381   7.146   3.995
 8141TIP3   OH224363   5.505   7.753   2.126
 8141TIP3    H124364   5.511   7.683   2.061
 8141TIP3    H224365   5.434   7.727   2.184
 8142TIP3   OH224366   3.583   0.037   1.257
 8142TIP3    H124367   3.665   0.021   1.210
 8142TIP3    H224368   3.517   0.048   1.189
 8143TIP3   OH224369   5.548   1.996   3.632
 8143TIP3    H124370   5.580   1.912   3.597
 8143TIP3    H224371   5.616   2.024   3.693
 8144TIP3   OH224372   7.331   2.591   6.537
 8144TIP3    H124373   7.417   2.627   6.514
 8144TIP3    H224374   7.314   2.524   6.470
 8145TIP3   OH224375   7.884   6.286   3.150
 8145TIP3    H124376   7.955   6.223   3.164
 8145TIP3    H224377   7.804   6.233   3.152
 8146TIP3   OH224378   0.080   1.407   2.688
 8146TIP3    H124379  -0.007   1.388   2.723
 8146TIP3    H224380   0.089   1.502   2.695
 8147TIP3   OH224381   3.259   7.005   6.444
 8147TIP3    H124382   3.279   6.915   6.470
 8147TIP3    H224383   3.295   7.059   6.515
 8148TIP3   OH224384   3.534   6.741   0.614
 8148TIP3    H124385   3.611   6.712   0.663
 8148TIP3    H224386   3.460   6.725   0.672
 8149TIP3   OH224387   6.613   6.826   3.849
 8149TIP3    H124388   6.611   6.792   3.939
 8149TIP3    H224389   6.544   6.778   3.803
 8150TIP3   OH224390   6.201   2.301   1.814
 8150TIP3    H124391   6.282   2.301   1.866
 8150TIP3    H224392   6.167   2.212   1.824
 8151TIP3   OH224393   3.288   2.768   1.063
 8151TIP3    H124394   3.214   2.802   1.113
 8151TIP3    H224395   3.262   2.779   0.972
 8152TIP3   OH224396   3.607   4.444   4.606
 8152TIP3    H124397   3.590   4.528   4.648
 8152TIP3    H224398   3.524   4.397   4.610
 8153TIP3   OH224399   6.184   0.344   0.193
 8153TIP3    H124400   6.101   0.332   0.239
 8153TIP3    H224401   6.160   0.388   0.112
 8154TIP3   OH224402   1.247   3.983   2.358
 8154TIP3    H124403   1.171   3.961   2.304
 8154TIP3    H224404   1.213   4.041   2.426
 8155TIP3   OH224405   7.886   7.110   6.071
 8155TIP3    H124406   7.927   7.179   6.124
 8155TIP3    H224407   7.899   7.139   5.981
 8156TIP3   OH224408   4.303   3.085   5.740
 8156TIP3    H124409   4.388   3.080   5.785
 8156TIP3    H224410   4.325   3.110   5.651
 8157TIP3   OH224411   0.273   5.222   5.753
 8157TIP3    H124412   0.332   5.159   5.794
 8157TIP3    H224413   0.186   5.196   5.781
 8158TIP3   OH224414   7.412   0.353   2.686
 8158TIP3    H124415   7.463   0.390   2.614
 8158TIP3    H224416   7.399   0.425   2.747
 8159TIP3   OH224417   5.861   5.842   4.225
 8159TIP3    H124418   5.887   5.873   4.139
 8159TIP3    H224419   5.932   5.785   4.253
 8160TIP3   OH224420   7.500   7.761   1.189
 8160TIP3    H124421   7.503   7.794   1.278
 8160TIP3    H224422   7.580   7.709   1.179
 8161TIP3   OH224423   4.788   3.534   5.966
 8161TIP3    H124424   4.703   3.502   5.998
 8161TIP3    H224425   4.829   3.458   5.926
 8162TIP3   OH224426   7.411   1.811   4.302
 8162TIP3    H124427   7.414   1.722   4.337
 8162TIP3    H224428   7.462   1.863   4.364
 8163TIP3   OH224429   6.577   0.784   5.705
 8163TIP3    H124430   6.485   0.786   5.678
 8163TIP3    H224431   6.618   0.853   5.652
 8164TIP3   OH224432   3.475   6.446   4.713
 8164TIP3    H124433   3.482   6.443   4.808
 8164TIP3    H224434   3.546   6.389   4.682
 8165TIP3   OH224435   4.745   6.049   0.915
 8165TIP3    H124436   4.705   6.125   0.958
 8165TIP3    H224437   4.839   6.062   0.926
 8166TIP3   OH224438   1.520   5.407   4.807
 8166TIP3    H124439   1.594   5.413   4.747
 8166TIP3    H224440   1.545   5.464   4.880
 8167TIP3   OH224441   1.130   0.018   3.352
 8167TIP3    H124442   1.078  -0.003   3.274
 8167TIP3    H224443   1.130   0.113   3.355
 8168TIP3   OH224444   1.331   7.315   1.990
 8168TIP3    H124445   1.340   7.269   1.907
 8168TIP3    H224446   1.297   7.249   2.051
 8169TIP3   OH224447   7.268   6.460   3.145
 8169TIP3    H124448   7.320   6.540   3.149
 8169TIP3    H224449   7.187   6.481   3.192
 8170TIP3   OH224450   5.945   7.123   5.797
 8170TIP3    H124451   6.011   7.070   5.840
 8170TIP3    H224452   5.917   7.071   5.721
 8171TIP3   OH224453   0.386   6.512   2.942
 8171TIP3    H124454   0.398   6.515   3.037
 8171TIP3    H224455   0.473   6.489   2.908
 8172TIP3   OH224456   7.423   5.239   5.438
 8172TIP3    H124457   7.498   5.294   5.416
 8172TIP3    H224458   7.461   5.160   5.476
 8173TIP3   OH224459   2.060   0.479   4.474
 8173TIP3    H124460   2.023   0.430   4.547
 8173TIP3    H224461   2.094   0.412   4.415
 8174TIP3   OH224462   1.899   0.460   6.042
 8174TIP3    H124463   1.898   0.387   5.980
 8174TIP3    H224464   1.985   0.500   6.031
 8175TIP3   OH224465   7.752   7.591   0.862
 8175TIP3    H124466   7.839   7.555   0.841
 8175TIP3    H224467   7.769   7.682   0.885
 8176TIP3   OH224468   5.449   5.769   4.320
 8176TIP3    H124469   5.464   5.695   4.261
 8176TIP3    H224470   5.370   5.746   4.369
 8177TIP3   OH224471   6.034   6.741   4.856
 8177TIP3    H124472   6.058   6.833   4.840
 8177TIP3    H224473   6.116   6.700   4.885
 8178TIP3   OH224474   2.976   7.482   6.783
 8178TIP3    H124475   2.943   7.545   6.719
 8178TIP3    H224476   2.898   7.434   6.811
 8179TIP3   OH224477   8.216   2.994   0.771
 8179TIP3    H124478   8.290   2.940   0.800
 8179TIP3    H224479   8.189   3.041   0.850
 8180TIP3   OH224480   0.268   0.927   5.208
 8180TIP3    H124481   0.361   0.910   5.225
 8180TIP3    H224482   0.268   1.008   5.156
 8181TIP3   OH224483   7.102   1.699   1.437
 8181TIP3    H124484   7.017   1.689   1.479
 8181TIP3    H224485   7.105   1.628   1.372
 8182TIP3   OH224486   2.302   6.338   1.215
 8182TIP3    H124487   2.387   6.322   1.173
 8182TIP3    H224488   2.239   6.335   1.143
 8183TIP3   OH224489   3.158   2.675   4.525
 8183TIP3    H124490   3.222   2.733   4.485
 8183TIP3    H224491   3.201   2.590   4.528
 8184TIP3   OH224492   2.917   3.181   3.856
 8184TIP3    H124493   2.876   3.113   3.910
 8184TIP3    H224494   2.846   3.243   3.838
 8185TIP3   OH224495   6.749   2.901   0.658
 8185TIP3    H124496   6.756   2.895   0.754
 8185TIP3    H224497   6.668   2.950   0.643
 8186TIP3   OH224498   5.911   3.182   2.061
 8186TIP3    H124499   5.975   3.145   2.000
 8186TIP3    H224500   5.952   3.173   2.147
 8187TIP3   OH224501   4.433   4.529   0.887
 8187TIP3    H124502   4.434   4.501   0.795
 8187TIP3    H224503   4.412   4.622   0.883
 8188TIP3   OH224504   3.929   2.932   2.736
 8188TIP3    H124505   3.922   2.954   2.829
 8188TIP3    H224506   3.900   2.841   2.731
 8189TIP3   OH224507   5.924   3.916   5.912
 8189TIP3    H124508   5.839   3.943   5.879
 8189TIP3    H224509   5.905   3.840   5.967
 8190TIP3   OH224510   1.086   4.222   5.247
 8190TIP3    H124511   1.021   4.246   5.313
 8190TIP3    H224512   1.100   4.303   5.197
 8191TIP3   OH224513   7.451   1.335   3.038
 8191TIP3    H124514   7.452   1.240   3.028
 8191TIP3    H224515   7.358   1.358   3.040
 8192TIP3   OH224516   7.932   6.058   6.143
 8192TIP3    H124517   7.858   6.005   6.172
 8192TIP3    H224518   7.924   6.063   6.048
 8193TIP3   OH224519   6.848   5.526   2.316
 8193TIP3    H124520   6.923   5.499   2.263
 8193TIP3    H224521   6.779   5.548   2.253
 8194TIP3   OH224522   1.250   5.313   6.777
 8194TIP3    H124523   1.224   5.247   6.841
 8194TIP3    H224524   1.260   5.393   6.827
 8195TIP3   OH224525   6.061   7.393   5.506
 8195TIP3    H124526   6.104   7.474   5.480
 8195TIP3    H224527   5.974   7.420   5.535
 8196TIP3   OH224528   2.891   4.233   2.486
 8196TIP3    H124529   2.799   4.211   2.503
 8196TIP3    H224530   2.937   4.205   2.565
 8197TIP3   OH224531   7.838   4.468   0.787
 8197TIP3    H124532   7.848   4.561   0.764
 8197TIP3    H224533   7.743   4.454   0.790
 8198TIP3   OH224534   1.261   1.401   5.315
 8198TIP3    H124535   1.245   1.492   5.290
 8198TIP3    H224536   1.309   1.364   5.241
 8199TIP3   OH224537   3.840   5.084   4.057
 8199TIP3    H124538   3.823   5.166   4.009
 8199TIP3    H224539   3.765   5.028   4.037
 8200TIP3   OH224540   2.232   5.843   4.931
 8200TIP3    H124541   2.310   5.889   4.900
 8200TIP3    H224542   2.227   5.866   5.024
 8201TIP3   OH224543   3.362   1.076   0.971
 8201TIP3    H124544   3.267   1.083   0.980
 8201TIP3    H224545   3.380   1.108   0.882
 8202TIP3   OH224546   4.766   0.527   4.268
 8202TIP3    H124547   4.830   0.597   4.256
 8202TIP3    H224548   4.743   0.501   4.178
 8203TIP3   OH224549   3.385   5.324   3.082
 8203TIP3    H124550   3.479   5.338   3.070
 8203TIP3    H224551   3.346   5.348   2.998
 8204TIP3   OH224552   4.973   1.698   6.514
 8204TIP3    H124553   5.048   1.704   6.574
 8204TIP3    H224554   4.979   1.610   6.476
 8205TIP3   OH224555   7.725   7.595   1.135
 8205TIP3    H124556   7.701   7.613   1.044
 8205TIP3    H224557   7.767   7.509   1.131
 8206TIP3   OH224558   6.956   4.355   3.263
 8206TIP3    H124559   6.877   4.401   3.237
 8206TIP3    H224560   7.025   4.391   3.207
 8207TIP3   OH224561   6.649   3.300   3.976
 8207TIP3    H124562   6.559   3.268   3.972
 8207TIP3    H224563   6.641   3.390   4.005
 8208TIP3   OH224564   7.422   4.728   5.937
 8208TIP3    H124565   7.411   4.660   5.872
 8208TIP3    H224566   7.504   4.706   5.982
 8209TIP3   OH224567   5.836   1.164   3.210
 8209TIP3    H124568   5.777   1.162   3.285
 8209TIP3    H224569   5.804   1.236   3.155
 8210TIP3   OH224570   0.937   5.914   4.125
 8210TIP3    H124571   1.015   5.957   4.159
 8210TIP3    H224572   0.956   5.901   4.032
 8211TIP3   OH224573   7.352   5.105   0.523
 8211TIP3    H124574   7.435   5.063   0.504
 8211TIP3    H224575   7.286   5.036   0.512
 8212TIP3   OH224576   2.066   3.369   6.461
 8212TIP3    H124577   2.136   3.341   6.402
 8212TIP3    H224578   2.109   3.379   6.546
 8213TIP3   OH224579   1.450   5.922   0.126
 8213TIP3    H124580   1.406   5.837   0.136
 8213TIP3    H224581   1.402   5.981   0.184
 8214TIP3   OH224582   6.502   1.738   5.190
 8214TIP3    H124583   6.534   1.658   5.232
 8214TIP3    H224584   6.566   1.755   5.120
 8215TIP3   OH224585   3.606   1.100   0.446
 8215TIP3    H124586   3.576   1.097   0.537
 8215TIP3    H224587   3.701   1.108   0.452
 8216TIP3   OH224588   3.963   4.403   1.239
 8216TIP3    H124589   4.037   4.410   1.299
 8216TIP3    H224590   3.977   4.475   1.176
 8217TIP3   OH224591   8.343   6.233   4.996
 8217TIP3    H124592   8.268   6.267   5.045
 8217TIP3    H224593   8.417   6.242   5.055
 8218TIP3   OH224594   1.398   1.344   5.059
 8218TIP3    H124595   1.483   1.353   5.102
 8218TIP3    H224596   1.411   1.275   4.995
 8219TIP3   OH224597   5.139   5.117   5.370
 8219TIP3    H124598   5.130   5.212   5.358
 8219TIP3    H224599   5.074   5.079   5.311
 8220TIP3   OH224600   6.741   0.099   4.826
 8220TIP3    H124601   6.754   0.106   4.731
 8220TIP3    H224602   6.659   0.144   4.842
 8221TIP3   OH224603   6.180   3.258   5.899
 8221TIP3    H124604   6.158   3.303   5.981
 8221TIP3    H224605   6.097   3.253   5.851
 8222TIP3   OH224606   1.620   3.203   5.882
 8222TIP3    H124607   1.647   3.285   5.842
 8222TIP3    H224608   1.581   3.228   5.966
 8223TIP3   OH224609   0.125   7.443   6.513
 8223TIP3    H124610   0.177   7.368   6.541
 8223TIP3    H224611   0.083   7.475   6.593
 8224TIP3   OH224612   5.974   3.801   1.908
 8224TIP3    H124613   5.953   3.708   1.916
 8224TIP3    H224614   6.069   3.803   1.897
 8225TIP3   OH224615   2.485   6.457   5.678
 8225TIP3    H124616   2.412   6.489   5.624
 8225TIP3    H224617   2.444   6.394   5.738
 8226TIP3   OH224618   6.967   3.691   2.711
 8226TIP3    H124619   6.977   3.776   2.754
 8226TIP3    H224620   6.884   3.657   2.743
 8227TIP3   OH224621   6.881   4.155   0.660
 8227TIP3    H124622   6.797   4.165   0.704
 8227TIP3    H224623   6.864   4.097   0.586
 8228TIP3   OH224624   3.490   6.508   6.648
 8228TIP3    H124625   3.578   6.539   6.629
 8228TIP3    H224626   3.451   6.576   6.702
 8229TIP3   OH224627   4.738   2.446   4.944
 8229TIP3    H124628   4.809   2.489   4.991
 8229TIP3    H224629   4.748   2.476   4.853
 8230TIP3   OH224630   6.473   3.332   5.289
 8230TIP3    H124631   6.446   3.281   5.365
 8230TIP3    H224632   6.434   3.286   5.214
 8231TIP3   OH224633   8.337   5.917   5.630
 8231TIP3    H124634   8.251   5.951   5.604
 8231TIP3    H224635   8.377   5.988   5.680
 8232TIP3   OH224636   7.729   3.276   4.131
 8232TIP3    H124637   7.635   3.288   4.140
 8232TIP3    H224638   7.746   3.290   4.037
 8233TIP3   OH224639   7.125   3.010   3.399
 8233TIP3    H124640   7.218   2.985   3.401
 8233TIP3    H224641   7.106   3.040   3.488
 8234TIP3   OH224642   3.972   6.324   2.968
 8234TIP3    H124643   3.890   6.371   2.980
 8234TIP3    H224644   3.945   6.237   2.937
 8235TIP3   OH224645   2.687   3.577   2.190
 8235TIP3    H124646   2.618   3.530   2.143
 8235TIP3    H224647   2.640   3.642   2.242
 8236TIP3   OH224648   0.462   7.649   6.331
 8236TIP3    H124649   0.462   7.680   6.421
 8236TIP3    H224650   0.412   7.567   6.334
 8237TIP3   OH224651   2.739   7.863   2.258
 8237TIP3    H124652   2.742   7.807   2.336
 8237TIP3    H224653   2.816   7.919   2.266
 8238TIP3   OH224654   3.606   4.335   0.147
 8238TIP3    H124655   3.538   4.398   0.124
 8238TIP3    H224656   3.581   4.303   0.233
 8239TIP3   OH224657   7.116   6.690   3.025
 8239TIP3    H124658   7.152   6.725   2.944
 8239TIP3    H224659   7.187   6.703   3.090
 8240TIP3   OH224660   5.903   1.343   3.940
 8240TIP3    H124661   5.820   1.391   3.938
 8240TIP3    H224662   5.964   1.400   3.892
 8241TIP3   OH224663   5.999   5.518   6.404
 8241TIP3    H124664   5.944   5.440   6.396
 8241TIP3    H224665   6.073   5.501   6.346
 8242TIP3   OH224666   4.133   4.346   3.639
 8242TIP3    H124667   4.188   4.422   3.655
 8242TIP3    H224668   4.142   4.329   3.545
 8243TIP3   OH224669   5.224   7.337   4.819
 8243TIP3    H124670   5.213   7.394   4.895
 8243TIP3    H224671   5.318   7.322   4.814
 8244TIP3   OH224672   2.488   3.712   6.652
 8244TIP3    H124673   2.419   3.658   6.612
 8244TIP3    H224674   2.520   3.767   6.581
 8245TIP3   OH224675   8.141   6.388   2.532
 8245TIP3    H124676   8.235   6.385   2.550
 8245TIP3    H224677   8.128   6.324   2.462
 8246TIP3   OH224678   3.399   5.475   3.676
 8246TIP3    H124679   3.402   5.412   3.604
 8246TIP3    H224680   3.307   5.477   3.701
 8247TIP3   OH224681   7.812   6.388   5.960
 8247TIP3    H124682   7.736   6.332   5.975
 8247TIP3    H224683   7.775   6.471   5.931
 8248TIP3   OH224684   3.736   1.564   3.536
 8248TIP3    H124685   3.698   1.488   3.581
 8248TIP3    H224686   3.754   1.533   3.447
 8249TIP3   OH224687   8.075   7.097   5.832
 8249TIP3    H124688   8.085   7.011   5.792
 8249TIP3    H224689   8.165   7.130   5.840
 8250TIP3   OH224690   3.347   3.459   6.699
 8250TIP3    H124691   3.419   3.465   6.637
 8250TIP3    H224692   3.271   3.438   6.646
 8251TIP3   OH224693   7.655   4.954   5.807
 8251TIP3    H124694   7.710   5.022   5.847
 8251TIP3    H224695   7.703   4.873   5.823
 8252TIP3   OH224696   4.526   2.448   0.178
 8252TIP3    H124697   4.605   2.487   0.141
 8252TIP3    H224698   4.520   2.362   0.135
 8253TIP3   OH224699   2.679   6.477   0.293
 8253TIP3    H124700   2.766   6.506   0.321
 8253TIP3    H224701   2.621   6.549   0.319
 8254TIP3   OH224702   1.692   5.103   5.973
 8254TIP3    H124703   1.712   5.190   6.006
 8254TIP3    H224704   1.603   5.085   6.003
 8255TIP3   OH224705   5.433   0.804   2.122
 8255TIP3    H124706   5.452   0.760   2.204
 8255TIP3    H224707   5.484   0.885   2.125
 8256TIP3   OH224708   6.190   2.546   3.280
 8256TIP3    H124709   6.116   2.487   3.298
 8256TIP3    H224710   6.187   2.558   3.185
 8257TIP3   OH224711   1.459   2.965   1.651
 8257TIP3    H124712   1.399   3.033   1.619
 8257TIP3    H224713   1.519   2.950   1.577
 8258TIP3   OH224714   3.368   7.569   1.937
 8258TIP3    H124715   3.463   7.561   1.931
 8258TIP3    H224716   3.341   7.495   1.991
 8259TIP3   OH224717   5.219   2.091   1.645
 8259TIP3    H124718   5.172   2.174   1.633
 8259TIP3    H224719   5.168   2.027   1.595
 8260TIP3   OH224720   4.584   1.506   5.027
 8260TIP3    H124721   4.627   1.524   5.111
 8260TIP3    H224722   4.563   1.413   5.030
 8261TIP3   OH224723   0.148   3.741   3.883
 8261TIP3    H124724   0.120   3.687   3.957
 8261TIP3    H224725   0.070   3.750   3.829
 8262TIP3   OH224726   6.709   0.446   5.310
 8262TIP3    H124727   6.676   0.470   5.396
 8262TIP3    H224728   6.759   0.522   5.281
 8263TIP3   OH224729   2.907   6.326   5.332
 8263TIP3    H124730   3.001   6.334   5.316
 8263TIP3    H224731   2.894   6.233   5.350
 8264TIP3   OH224732   7.860   6.829   6.260
 8264TIP3    H124733   7.945   6.812   6.302
 8264TIP3    H224734   7.869   6.918   6.224
 8265TIP3   OH224735   1.412   6.624   3.413
 8265TIP3    H124736   1.460   6.671   3.481
 8265TIP3    H224737   1.466   6.633   3.334
 8266TIP3   OH224738   6.300   3.985   2.530
 8266TIP3    H124739   6.352   3.921   2.480
 8266TIP3    H224740   6.310   3.956   2.621
 8267TIP3   OH224741   0.998   5.102   3.183
 8267TIP3    H124742   1.038   5.123   3.098
 8267TIP3    H224743   0.957   5.184   3.211
 8268TIP3   OH224744   4.936   4.250   2.744
 8268TIP3    H124745   5.021   4.280   2.776
 8268TIP3    H224746   4.918   4.170   2.793
 8269TIP3   OH224747   1.023   0.349   0.602
 8269TIP3    H124748   0.959   0.350   0.531
 8269TIP3    H224749   0.971   0.335   0.681
 8270TIP3   OH224750   7.028   0.475   1.500
 8270TIP3    H124751   7.095   0.451   1.435
 8270TIP3    H224752   6.952   0.500   1.447
 8271TIP3   OH224753   3.960   5.504   1.172
 8271TIP3    H124754   4.024   5.445   1.212
 8271TIP3    H224755   3.984   5.591   1.205
 8272TIP3   OH224756   7.093   5.431   5.673
 8272TIP3    H124757   7.099   5.527   5.667
 8272TIP3    H224758   7.109   5.412   5.765
 8273TIP3   OH224759   5.217   2.721   1.548
 8273TIP3    H124760   5.155   2.675   1.492
 8273TIP3    H224761   5.278   2.654   1.578
 8274TIP3   OH224762   2.273   0.761   4.736
 8274TIP3    H124763   2.283   0.675   4.697
 8274TIP3    H224764   2.353   0.774   4.786
 8275TIP3   OH224765   0.017   5.835   0.605
 8275TIP3    H124766   0.053   5.755   0.568
 8275TIP3    H224767  -0.021   5.881   0.529
 8276TIP3   OH224768   0.098   2.939   6.630
 8276TIP3    H124769   0.030   2.981   6.683
 8276TIP3    H224770   0.058   2.857   6.599
 8277TIP3   OH224771   1.954   5.020   2.416
 8277TIP3    H124772   2.010   5.092   2.387
 8277TIP3    H224773   1.895   5.005   2.342
 8278TIP3   OH224774   0.608   2.452   5.729
 8278TIP3    H124775   0.697   2.416   5.729
 8278TIP3    H224776   0.609   2.518   5.659
 8279TIP3   OH224777   3.666   4.695   3.361
 8279TIP3    H124778   3.624   4.615   3.392
 8279TIP3    H224779   3.719   4.666   3.286
 8280TIP3   OH224780   5.174   3.656   6.520
 8280TIP3    H124781   5.144   3.569   6.495
 8280TIP3    H224782   5.218   3.644   6.604
 8281TIP3   OH224783   5.131   1.341   6.557
 8281TIP3    H124784   5.045   1.316   6.591
 8281TIP3    H224785   5.114   1.364   6.465
 8282TIP3   OH224786   3.911   5.487   0.183
 8282TIP3    H124787   3.944   5.481   0.094
 8282TIP3    H224788   3.819   5.510   0.173
 8283TIP3   OH224789   2.900   4.287   6.052
 8283TIP3    H124790   2.832   4.251   6.109
 8283TIP3    H224791   2.854   4.312   5.972
 8284TIP3   OH224792   6.797   1.575   4.462
 8284TIP3    H124793   6.846   1.633   4.404
 8284TIP3    H224794   6.818   1.487   4.431
 8285TIP3   OH224795   0.570   2.853   0.938
 8285TIP3    H124796   0.511   2.897   1.000
 8285TIP3    H224797   0.523   2.773   0.914
 8286TIP3   OH224798   2.780   3.975   0.351
 8286TIP3    H124799   2.695   4.018   0.361
 8286TIP3    H224800   2.771   3.894   0.401
 8287TIP3   OH224801   2.556   4.576   0.019
 8287TIP3    H124802   2.467   4.571  -0.017
 8287TIP3    H224803   2.566   4.496   0.070
 8288TIP3   OH224804   5.010   5.276   3.950
 8288TIP3    H124805   4.992   5.186   3.976
 8288TIP3    H224806   4.958   5.289   3.870
 8289TIP3   OH224807   0.752   0.235   1.798
 8289TIP3    H124808   0.766   0.258   1.890
 8289TIP3    H224809   0.836   0.200   1.769
 8290TIP3   OH224810   6.220   6.321   6.022
 8290TIP3    H124811   6.174   6.240   6.000
 8290TIP3    H224812   6.187   6.344   6.109
 8291TIP3   OH224813   4.899   5.561   2.942
 8291TIP3    H124814   4.957   5.507   2.888
 8291TIP3    H224815   4.847   5.497   2.991
 8292TIP3   OH224816   7.752   2.116   2.080
 8292TIP3    H124817   7.771   2.110   2.174
 8292TIP3    H224818   7.806   2.048   2.040
 8293TIP3   OH224819   7.283   3.654   1.576
 8293TIP3    H124820   7.317   3.595   1.644
 8293TIP3    H224821   7.327   3.624   1.496
 8294TIP3   OH224822   3.111   1.818   6.846
 8294TIP3    H124823   3.173   1.760   6.890
 8294TIP3    H224824   3.160   1.855   6.773
 8295TIP3   OH224825   7.162   7.722   4.279
 8295TIP3    H124826   7.230   7.673   4.234
 8295TIP3    H224827   7.104   7.752   4.208
 8296TIP3   OH224828   5.361   3.555   4.094
 8296TIP3    H124829   5.310   3.484   4.134
 8296TIP3    H224830   5.406   3.597   4.168
 8297TIP3   OH224831   6.756   1.621   0.285
 8297TIP3    H124832   6.785   1.611   0.376
 8297TIP3    H224833   6.711   1.706   0.284
 8298TIP3   OH224834   5.558   7.375   6.028
 8298TIP3    H124835   5.603   7.382   6.112
 8298TIP3    H224836   5.561   7.464   5.993
 8299TIP3   OH224837   1.092   0.368   2.863
 8299TIP3    H124838   1.092   0.405   2.774
 8299TIP3    H224839   1.035   0.426   2.913
 8300TIP3   OH224840   7.987   5.078   0.686
 8300TIP3    H124841   7.957   5.002   0.636
 8300TIP3    H224842   7.933   5.151   0.654
 8301TIP3   OH224843   1.549   0.780   3.134
 8301TIP3    H124844   1.587   0.727   3.204
 8301TIP3    H224845   1.603   0.860   3.133
 8302TIP3   OH224846   0.544   2.273   2.630
 8302TIP3    H124847   0.453   2.298   2.612
 8302TIP3    H224848   0.586   2.269   2.545
 8303TIP3   OH224849   1.657   2.754   2.424
 8303TIP3    H124850   1.726   2.762   2.359
 8303TIP3    H224851   1.629   2.662   2.418
 8304TIP3   OH224852   2.759   1.418   5.240
 8304TIP3    H124853   2.803   1.423   5.325
 8304TIP3    H224854   2.674   1.458   5.256
 8305TIP3   OH224855   4.537   3.389   1.364
 8305TIP3    H124856   4.564   3.465   1.416
 8305TIP3    H224857   4.616   3.335   1.359
 8306TIP3   OH224858   6.036   7.845   2.715
 8306TIP3    H124859   6.090   7.881   2.786
 8306TIP3    H224860   6.032   7.916   2.650
 8307TIP3   OH224861   4.710   1.618   4.328
 8307TIP3    H124862   4.667   1.693   4.285
 8307TIP3    H224863   4.724   1.647   4.418
 8308TIP3   OH224864   3.314   5.656   2.976
 8308TIP3    H124865   3.316   5.704   2.893
 8308TIP3    H224866   3.300   5.565   2.951
 8309TIP3   OH224867   3.968   6.448   5.607
 8309TIP3    H124868   3.899   6.421   5.546
 8309TIP3    H224869   3.966   6.543   5.606
 8310TIP3   OH224870   2.594   4.388   3.901
 8310TIP3    H124871   2.568   4.416   3.813
 8310TIP3    H224872   2.641   4.464   3.937
 8311TIP3   OH224873   0.130   6.331   0.338
 8311TIP3    H124874   0.108   6.409   0.287
 8311TIP3    H224875   0.200   6.360   0.397
 8312TIP3   OH224876   2.808   0.692   0.403
 8312TIP3    H124877   2.741   0.758   0.385
 8312TIP3    H224878   2.883   0.719   0.350
 8313TIP3   OH224879   8.122   7.323   3.742
 8313TIP3    H124880   8.116   7.407   3.697
 8313TIP3    H224881   8.215   7.299   3.737
 8314TIP3   OH224882   6.391   2.537   3.725
 8314TIP3    H124883   6.393   2.498   3.813
 8314TIP3    H224884   6.332   2.611   3.733
 8315TIP3   OH224885   7.030   1.841   2.730
 8315TIP3    H124886   7.104   1.884   2.689
 8315TIP3    H224887   7.041   1.859   2.824
 8316TIP3   OH224888   4.487   4.770   3.946
 8316TIP3    H124889   4.461   4.688   3.905
 8316TIP3    H224890   4.406   4.822   3.949
 8317TIP3   OH224891   2.026   5.668   3.668
 8317TIP3    H124892   2.032   5.695   3.576
 8317TIP3    H224893   2.075   5.735   3.716
 8318TIP3   OH224894   5.521   5.162   5.578
 8318TIP3    H124895   5.479   5.140   5.495
 8318TIP3    H224896   5.475   5.108   5.643
 8319TIP3   OH224897   3.942   1.915   4.754
 8319TIP3    H124898   3.853   1.893   4.782
 8319TIP3    H224899   3.930   1.981   4.686
 8320TIP3   OH224900   2.951   2.371   2.983
 8320TIP3    H124901   3.015   2.315   2.938
 8320TIP3    H224902   2.876   2.314   2.998
 8321TIP3   OH224903   3.592   0.298   4.718
 8321TIP3    H124904   3.534   0.346   4.777
 8321TIP3    H224905   3.554   0.211   4.712
 8322TIP3   OH224906   2.926   1.133   5.152
 8322TIP3    H124907   3.012   1.148   5.113
 8322TIP3    H224908   2.905   1.215   5.195
 8323TIP3   OH224909   7.045   3.297   0.620
 8323TIP3    H124910   7.013   3.245   0.547
 8323TIP3    H224911   7.084   3.375   0.580
 8324TIP3   OH224912   6.757   2.507   3.166
 8324TIP3    H124913   6.789   2.429   3.119
 8324TIP3    H224914   6.679   2.478   3.213
 8325TIP3   OH224915   8.390   7.027   6.344
 8325TIP3    H124916   8.308   7.061   6.309
 8325TIP3    H224917   8.458   7.065   6.287
 8326TIP3   OH224918   7.046   4.630   6.165
 8326TIP3    H124919   7.065   4.601   6.254
 8326TIP3    H224920   7.037   4.725   6.171
 8327TIP3   OH224921   1.889   6.423   3.404
 8327TIP3    H124922   1.819   6.442   3.466
 8327TIP3    H224923   1.846   6.369   3.336
 8328TIP3   OH224924   1.665   3.220   5.574
 8328TIP3    H124925   1.629   3.307   5.586
 8328TIP3    H224926   1.743   3.218   5.630
 8329TIP3   OH224927   0.386   7.915   1.326
 8329TIP3    H124928   0.365   8.008   1.341
 8329TIP3    H224929   0.463   7.899   1.380
 8330TIP3   OH224930   6.033   6.987   0.538
 8330TIP3    H124931   6.082   6.923   0.485
 8330TIP3    H224932   6.078   7.070   0.524
 8331TIP3   OH224933   5.139   4.070   6.374
 8331TIP3    H124934   5.216   4.017   6.395
 8331TIP3    H224935   5.102   4.027   6.296
 8332TIP3   OH224936   4.290   7.172   2.379
 8332TIP3    H124937   4.230   7.097   2.377
 8332TIP3    H224938   4.301   7.191   2.472
 8333TIP3   OH224939   4.640   1.833   4.164
 8333TIP3    H124940   4.658   1.804   4.074
 8333TIP3    H224941   4.621   1.926   4.155
 8334TIP3   OH224942   3.076   2.912   2.092
 8334TIP3    H124943   3.139   2.848   2.124
 8334TIP3    H224944   3.029   2.941   2.171
 8335TIP3   OH224945   6.356   3.417   4.214
 8335TIP3    H124946   6.344   3.366   4.133
 8335TIP3    H224947   6.395   3.355   4.276
 8336TIP3   OH224948   1.356   4.427   6.101
 8336TIP3    H124949   1.314   4.512   6.082
 8336TIP3    H224950   1.333   4.372   6.026
 8337TIP3   OH224951   2.881   0.284   5.880
 8337TIP3    H124952   2.861   0.191   5.888
 8337TIP3    H224953   2.955   0.298   5.940
 8338TIP3   OH224954   3.290   2.320   2.142
 8338TIP3    H124955   3.380   2.350   2.135
 8338TIP3    H224956   3.245   2.363   2.069
 8339TIP3   OH224957   2.292   0.879   2.300
 8339TIP3    H124958   2.334   0.947   2.247
 8339TIP3    H224959   2.355   0.806   2.298
 8340TIP3   OH224960   5.681   6.508   1.730
 8340TIP3    H124961   5.675   6.422   1.690
 8340TIP3    H224962   5.708   6.566   1.660
 8341TIP3   OH224963   6.677   6.429   2.928
 8341TIP3    H124964   6.713   6.446   2.841
 8341TIP3    H224965   6.748   6.449   2.988
 8342TIP3   OH224966   3.791   3.204   4.087
 8342TIP3    H124967   3.813   3.170   4.174
 8342TIP3    H224968   3.818   3.134   4.027
 8343TIP3   OH224969   0.415   0.386   2.819
 8343TIP3    H124970   0.382   0.384   2.909
 8343TIP3    H224971   0.344   0.426   2.769
 8344TIP3   OH224972   1.814   3.110   5.207
 8344TIP3    H124973   1.826   3.205   5.214
 8344TIP3    H224974   1.902   3.074   5.207
 8345TIP3   OH224975   5.109   2.849   0.189
 8345TIP3    H124976   5.172   2.920   0.177
 8345TIP3    H224977   5.060   2.873   0.268
 8346TIP3   OH224978   4.923   2.055   1.865
 8346TIP3    H124979   4.987   2.119   1.896
 8346TIP3    H224980   4.901   2.003   1.942
 8347TIP3   OH224981   0.725   6.849   2.516
 8347TIP3    H124982   0.714   6.845   2.611
 8347TIP3    H224983   0.656   6.791   2.482
 8348TIP3   OH224984   5.792   5.361   2.045
 8348TIP3    H124985   5.701   5.358   2.074
 8348TIP3    H224986   5.842   5.373   2.125
 8349TIP3   OH224987   6.948   5.550   4.943
 8349TIP3    H124988   6.909   5.635   4.965
 8349TIP3    H224989   6.873   5.495   4.920
 8350TIP3   OH224990   1.586   4.122   4.670
 8350TIP3    H124991   1.535   4.124   4.589
 8350TIP3    H224992   1.591   4.214   4.697
 8351TIP3   OH224993   5.463   6.231   3.426
 8351TIP3    H124994   5.405   6.275   3.364
 8351TIP3    H224995   5.551   6.257   3.398
 8352TIP3   OH224996   0.037   3.891   0.444
 8352TIP3    H124997  -0.008   3.946   0.380
 8352TIP3    H224998   0.052   3.948   0.519
 8353TIP3   OH224999   3.184   4.486   6.662
 8353TIP3    H125000   3.089   4.492   6.654
 8353TIP3    H225001   3.217   4.551   6.600
 8354TIP3   OH225002   3.465   6.203   1.300
 8354TIP3    H125003   3.490   6.269   1.236
 8354TIP3    H225004   3.396   6.245   1.351
 8355TIP3   OH225005   2.709   3.935   2.040
 8355TIP3    H125006   2.722   3.993   1.965
 8355TIP3    H225007   2.663   3.859   2.005
 8356TIP3   OH225008   7.837   0.958   3.183
 8356TIP3    H125009   7.792   0.904   3.249
 8356TIP3    H225010   7.817   0.914   3.100
 8357TIP3   OH225011   3.456   1.846   4.737
 8357TIP3    H125012   3.455   1.933   4.697
 8357TIP3    H225013   3.414   1.789   4.672
 8358TIP3   OH225014   6.772   1.536   1.166
 8358TIP3    H125015   6.798   1.516   1.076
 8358TIP3    H225016   6.723   1.458   1.194
 8359TIP3   OH225017   2.230   7.543   4.854
 8359TIP3    H125018   2.240   7.471   4.792
 8359TIP3    H225019   2.300   7.604   4.831
 8360TIP3   OH225020   4.612   4.961   1.653
 8360TIP3    H125021   4.675   4.896   1.623
 8360TIP3    H225022   4.573   4.996   1.573
 8361TIP3   OH225023   0.931   4.092   6.627
 8361TIP3    H125024   1.024   4.075   6.643
 8361TIP3    H225025   0.928   4.124   6.537
 8362TIP3   OH225026   6.947   0.407   4.714
 8362TIP3    H125027   6.852   0.395   4.708
 8362TIP3    H225028   6.980   0.373   4.630
 8363TIP3   OH225029   5.974   4.907   3.430
 8363TIP3    H125030   5.975   4.984   3.373
 8363TIP3    H225031   5.890   4.865   3.412
 8364TIP3   OH225032   4.907   1.506   1.971
 8364TIP3    H125033   4.936   1.535   2.057
 8364TIP3    H225034   4.980   1.454   1.938
 8365TIP3   OH225035   5.508   2.280   0.119
 8365TIP3    H125036   5.475   2.191   0.118
 8365TIP3    H225037   5.539   2.294   0.208
 8366TIP3   OH225038   0.960   4.537   3.216
 8366TIP3    H125039   1.011   4.603   3.263
 8366TIP3    H225040   1.018   4.506   3.147
 8367TIP3   OH225041   7.782   0.343   4.642
 8367TIP3    H125042   7.717   0.394   4.689
 8367TIP3    H225043   7.797   0.392   4.561
 8368TIP3   OH225044   5.159   6.969   2.247
 8368TIP3    H125045   5.166   7.046   2.190
 8368TIP3    H225046   5.213   6.991   2.323
 8369TIP3   OH225047   1.533   3.728   5.412
 8369TIP3    H125048   1.460   3.666   5.418
 8369TIP3    H225049   1.552   3.731   5.318
 8370TIP3   OH225050   2.785   3.692   2.747
 8370TIP3    H125051   2.748   3.614   2.789
 8370TIP3    H225052   2.733   3.704   2.668
 8371TIP3   OH225053   1.645   5.522   4.003
 8371TIP3    H125054   1.590   5.598   3.986
 8371TIP3    H225055   1.734   5.556   4.005
 8372TIP3   OH225056   3.793   4.498   0.330
 8372TIP3    H125057   3.809   4.404   0.338
 8372TIP3    H225058   3.719   4.505   0.270
 8373TIP3   OH225059   7.532   3.465   6.647
 8373TIP3    H125060   7.582   3.534   6.603
 8373TIP3    H225061   7.487   3.511   6.718
 8374TIP3   OH225062   0.431   2.129   2.186
 8374TIP3    H125063   0.370   2.168   2.122
 8374TIP3    H225064   0.507   2.104   2.134
 8375TIP3   OH225065   6.242   0.713   4.751
 8375TIP3    H125066   6.323   0.718   4.702
 8375TIP3    H225067   6.253   0.776   4.822
 8376TIP3   OH225068   7.648   0.829   1.202
 8376TIP3    H125069   7.639   0.904   1.144
 8376TIP3    H225070   7.592   0.762   1.162
 8377TIP3   OH225071   3.779   6.430   2.031
 8377TIP3    H125072   3.696   6.382   2.030
 8377TIP3    H225073   3.774   6.489   1.957
 8378TIP3   OH225074   7.213   2.108   2.162
 8378TIP3    H125075   7.203   2.200   2.138
 8378TIP3    H225076   7.124   2.074   2.165
 8379TIP3   OH225077   3.026   0.873   0.648
 8379TIP3    H125078   2.948   0.901   0.696
 8379TIP3    H225079   2.993   0.845   0.563
 8380TIP3   OH225080   7.113   3.147   3.959
 8380TIP3    H125081   7.054   3.222   3.948
 8380TIP3    H225082   7.141   3.152   4.050
 8381TIP3   OH225083   3.961   4.282   0.413
 8381TIP3    H125084   3.941   4.294   0.505
 8381TIP3    H225085   3.916   4.202   0.388
 8382TIP3   OH225086   7.661   1.323   6.281
 8382TIP3    H125087   7.676   1.339   6.374
 8382TIP3    H225088   7.648   1.228   6.274
 8383TIP3   OH225089   1.740   5.255   1.473
 8383TIP3    H125090   1.649   5.245   1.445
 8383TIP3    H225091   1.773   5.328   1.421
 8384TIP3   OH225092   0.831   6.185   5.688
 8384TIP3    H125093   0.748   6.167   5.645
 8384TIP3    H225094   0.826   6.137   5.771
 8385TIP3   OH225095   4.288   4.967   1.046
 8385TIP3    H125096   4.194   4.957   1.030
 8385TIP3    H225097   4.304   5.061   1.034
 8386TIP3   OH225098   4.764   3.524   4.981
 8386TIP3    H125099   4.812   3.546   5.061
 8386TIP3    H225100   4.729   3.608   4.950
 8387TIP3   OH225101   3.113   6.053   6.690
 8387TIP3    H125102   3.023   6.074   6.714
 8387TIP3    H225103   3.159   6.043   6.773
 8388TIP3   OH225104   7.743   5.939   5.146
 8388TIP3    H125105   7.740   6.028   5.112
 8388TIP3    H225106   7.783   5.948   5.233
 8389TIP3   OH225107   8.306   7.029   5.510
 8389TIP3    H125108   8.379   7.070   5.463
 8389TIP3    H225109   8.229   7.073   5.475
 8390TIP3   OH225110   1.645   4.710   3.509
 8390TIP3    H125111   1.738   4.692   3.521
 8390TIP3    H225112   1.638   4.741   3.418
 8391TIP3   OH225113   6.394   0.089   3.661
 8391TIP3    H125114   6.335   0.122   3.593
 8391TIP3    H225115   6.410  -0.002   3.637
 8392TIP3   OH225116   2.562   2.285   6.130
 8392TIP3    H125117   2.586   2.193   6.123
 8392TIP3    H225118   2.642   2.332   6.105
 8393TIP3   OH225119   0.774   3.489   1.003
 8393TIP3    H125120   0.789   3.582   1.019
 8393TIP3    H225121   0.703   3.466   1.062
 8394TIP3   OH225122   4.055   3.774   5.192
 8394TIP3    H125123   4.055   3.749   5.099
 8394TIP3    H225124   3.971   3.743   5.225
 8395TIP3   OH225125   7.299   4.197   6.263
 8395TIP3    H125126   7.358   4.239   6.200
 8395TIP3    H225127   7.276   4.266   6.325
 8396TIP3   OH225128   3.143   0.907   2.966
 8396TIP3    H125129   3.194   0.878   2.890
 8396TIP3    H225130   3.172   0.996   2.982
 8397TIP3   OH225131   7.917   2.783   6.318
 8397TIP3    H125132   7.852   2.745   6.259
 8397TIP3    H225133   7.958   2.707   6.359
 8398TIP3   OH225134   7.272   3.295   3.143
 8398TIP3    H125135   7.274   3.303   3.239
 8398TIP3    H225136   7.319   3.214   3.125
 8399TIP3   OH225137   6.370   5.006   5.984
 8399TIP3    H125138   6.457   4.968   5.969
 8399TIP3    H225139   6.311   4.931   5.982
 8400TIP3   OH225140   6.392   2.060   1.049
 8400TIP3    H125141   6.448   2.047   1.127
 8400TIP3    H225142   6.371   2.153   1.050
 8401TIP3   OH225143   6.109   2.419   4.132
 8401TIP3    H125144   6.018   2.415   4.163
 8401TIP3    H225145   6.118   2.342   4.075
 8402TIP3   OH225146   5.435   1.113   3.404
 8402TIP3    H125147   5.486   1.048   3.356
 8402TIP3    H225148   5.346   1.102   3.371
 8403TIP3   OH225149   6.054   0.358   4.622
 8403TIP3    H125150   6.007   0.296   4.678
 8403TIP3    H225151   6.009   0.354   4.538
 8404TIP3   OH225152   1.949   3.953   3.250
 8404TIP3    H125153   2.001   3.982   3.176
 8404TIP3    H225154   1.895   4.028   3.274
 8405TIP3   OH225155   6.280   3.784   4.014
 8405TIP3    H125156   6.197   3.786   4.062
 8405TIP3    H225157   6.272   3.856   3.951
 8406TIP3   OH225158   7.001   3.402   5.084
 8406TIP3    H125159   6.980   3.328   5.141
 8406TIP3    H225160   6.924   3.459   5.091
 8407TIP3   OH225161   2.626   0.483   5.560
 8407TIP3    H125162   2.711   0.441   5.551
 8407TIP3    H225163   2.609   0.484   5.654
 8408TIP3   OH225164   2.294   5.847   6.803
 8408TIP3    H125165   2.376   5.846   6.754
 8408TIP3    H225166   2.322   5.844   6.895
 8409TIP3   OH225167   2.350   5.867   3.451
 8409TIP3    H125168   2.343   5.945   3.507
 8409TIP3    H225169   2.366   5.796   3.512
 8410TIP3   OH225170   5.017   1.711   1.482
 8410TIP3    H125171   5.022   1.746   1.571
 8410TIP3    H225172   4.959   1.771   1.436
 8411TIP3   OH225173   6.605   3.400   1.691
 8411TIP3    H125174   6.614   3.340   1.617
 8411TIP3    H225175   6.647   3.356   1.764
 8412TIP3   OH225176   7.403   3.543   0.329
 8412TIP3    H125177   7.429   3.622   0.377
 8412TIP3    H225178   7.474   3.481   0.345
 8413TIP3   OH225179   1.251   6.407   1.601
 8413TIP3    H125180   1.302   6.467   1.656
 8413TIP3    H225181   1.175   6.458   1.573
 8414TIP3   OH225182   0.598   2.842   6.810
 8414TIP3    H125183   0.568   2.785   6.882
 8414TIP3    H225184   0.690   2.819   6.798
 8415TIP3   OH225185   1.409   4.461   5.147
 8415TIP3    H125186   1.389   4.377   5.189
 8415TIP3    H225187   1.477   4.499   5.203
 8416TIP3   OH225188   4.406   0.624   6.420
 8416TIP3    H125189   4.460   0.694   6.383
 8416TIP3    H225190   4.372   0.578   6.343
 8417TIP3   OH225191   7.840   7.264   2.634
 8417TIP3    H125192   7.776   7.243   2.702
 8417TIP3    H225193   7.791   7.312   2.568
 8418TIP3   OH225194   4.440   4.540   0.340
 8418TIP3    H125195   4.350   4.516   0.364
 8418TIP3    H225196   4.445   4.634   0.361
 8419TIP3   OH225197   4.467   5.929   6.573
 8419TIP3    H125198   4.464   6.009   6.626
 8419TIP3    H225199   4.507   5.863   6.630
 8420TIP3   OH225200   4.599   5.590   2.710
 8420TIP3    H125201   4.550   5.566   2.631
 8420TIP3    H225202   4.680   5.538   2.705
 8421TIP3   OH225203   2.772   4.951   0.691
 8421TIP3    H125204   2.691   4.945   0.743
 8421TIP3    H225205   2.768   5.039   0.652
 8422TIP3   OH225206   2.338   4.908   1.141
 8422TIP3    H125207   2.289   4.922   1.222
 8422TIP3    H225208   2.364   4.816   1.144
 8423TIP3   OH225209   2.415   1.977   2.330
 8423TIP3    H125210   2.344   2.029   2.292
 8423TIP3    H225211   2.454   1.932   2.255
 8424TIP3   OH225212   5.997   3.681   6.869
 8424TIP3    H125213   5.915   3.680   6.820
 8424TIP3    H225214   6.063   3.708   6.805
 8425TIP3   OH225215   4.974   6.107   1.389
 8425TIP3    H125216   4.958   6.021   1.427
 8425TIP3    H225217   5.054   6.097   1.338
 8426TIP3   OH225218   4.305   7.138   1.102
 8426TIP3    H125219   4.348   7.195   1.039
 8426TIP3    H225220   4.261   7.072   1.049
 8427TIP3   OH225221   2.820   1.341   3.736
 8427TIP3    H125222   2.794   1.275   3.801
 8427TIP3    H225223   2.738   1.366   3.693
 8428TIP3   OH225224   4.742   6.340   6.253
 8428TIP3    H125225   4.771   6.420   6.298
 8428TIP3    H225226   4.706   6.372   6.169
 8429TIP3   OH225227   4.844   6.392   4.079
 8429TIP3    H125228   4.767   6.449   4.074
 8429TIP3    H225229   4.808   6.307   4.107
 8430TIP3   OH225230   1.359   5.912   3.706
 8430TIP3    H125231   1.296   5.840   3.696
 8430TIP3    H225232   1.347   5.941   3.796
 8431TIP3   OH225233   6.872   4.721   4.618
 8431TIP3    H125234   6.906   4.644   4.571
 8431TIP3    H225235   6.936   4.736   4.687
 8432TIP3   OH225236   7.152   5.272   5.390
 8432TIP3    H125237   7.245   5.263   5.410
 8432TIP3    H225238   7.117   5.323   5.463
 8433TIP3   OH225239   7.615   2.141   1.811
 8433TIP3    H125240   7.523   2.166   1.803
 8433TIP3    H225241   7.633   2.144   1.905
 8434TIP3   OH225242   1.236   3.176   3.469
 8434TIP3    H125243   1.247   3.104   3.532
 8434TIP3    H225244   1.143   3.178   3.451
 8435TIP3   OH225245   5.976   5.108   0.298
 8435TIP3    H125246   5.963   5.013   0.297
 8435TIP3    H225247   5.894   5.143   0.333
 8436TIP3   OH225248   4.653   4.400   4.708
 8436TIP3    H125249   4.672   4.464   4.776
 8436TIP3    H225250   4.584   4.441   4.655
 8437TIP3   OH225251   6.841   2.253   3.084
 8437TIP3    H125252   6.884   2.237   3.168
 8437TIP3    H225253   6.796   2.171   3.065
 8438TIP3   OH225254   1.583   1.749   1.963
 8438TIP3    H125255   1.519   1.801   2.011
 8438TIP3    H225256   1.656   1.809   1.947
 8439TIP3   OH225257   4.818   4.738   0.647
 8439TIP3    H125258   4.764   4.737   0.727
 8439TIP3    H225259   4.759   4.770   0.579
 8440TIP3   OH225260   5.981   5.635   0.804
 8440TIP3    H125261   6.006   5.702   0.740
 8440TIP3    H225262   5.944   5.564   0.751
 8441TIP3   OH225263   5.706   3.272   2.303
 8441TIP3    H125264   5.756   3.300   2.227
 8441TIP3    H225265   5.632   3.333   2.308
 8442TIP3   OH225266   6.200   6.743   6.527
 8442TIP3    H125267   6.232   6.832   6.538
 8442TIP3    H225268   6.150   6.745   6.446
 8443TIP3   OH225269   6.445   2.395   5.912
 8443TIP3    H125270   6.500   2.323   5.881
 8443TIP3    H225271   6.504   2.449   5.965
 8444TIP3   OH225272   1.816   3.714   3.278
 8444TIP3    H125273   1.855   3.790   3.236
 8444TIP3    H225274   1.804   3.650   3.208
 8445TIP3   OH225275   6.117   1.124   5.727
 8445TIP3    H125276   6.042   1.128   5.787
 8445TIP3    H225277   6.111   1.205   5.676
 8446TIP3   OH225278   1.033   7.599   2.172
 8446TIP3    H125279   1.045   7.523   2.115
 8446TIP3    H225280   1.037   7.563   2.261
 8447TIP3   OH225281   1.837   3.328   5.760
 8447TIP3    H125282   1.809   3.387   5.830
 8447TIP3    H225283   1.928   3.352   5.744
 8448TIP3   OH225284   5.043   4.720   0.505
 8448TIP3    H125285   4.978   4.741   0.572
 8448TIP3    H225286   5.011   4.641   0.463
 8449TIP3   OH225287   1.509   3.072   4.082
 8449TIP3    H125288   1.438   3.113   4.132
 8449TIP3    H225289   1.486   3.088   3.991
 8450TIP3   OH225290   3.705   3.450   3.004
 8450TIP3    H125291   3.637   3.450   3.071
 8450TIP3    H225292   3.785   3.473   3.051
 8451TIP3   OH225293   6.422   5.880   1.523
 8451TIP3    H125294   6.475   5.808   1.488
 8451TIP3    H225295   6.372   5.841   1.595
 8452TIP3   OH225296   6.746   1.793   2.690
 8452TIP3    H125297   6.836   1.806   2.720
 8452TIP3    H225298   6.755   1.777   2.596
 8453TIP3   OH225299   2.112   0.008   6.292
 8453TIP3    H125300   2.095  -0.019   6.382
 8453TIP3    H225301   2.042   0.070   6.271
 8454TIP3   OH225302   5.375   5.882   0.582
 8454TIP3    H125303   5.471   5.875   0.577
 8454TIP3    H225304   5.344   5.819   0.516
 8455TIP3   OH225305   6.218   6.876   0.367
 8455TIP3    H125306   6.267   6.802   0.402
 8455TIP3    H225307   6.285   6.940   0.342
 8456TIP3   OH225308   5.304   7.456   6.522
 8456TIP3    H125309   5.350   7.539   6.533
 8456TIP3    H225310   5.311   7.438   6.428
 8457TIP3   OH225311   5.707   3.845   2.494
 8457TIP3    H125312   5.698   3.768   2.438
 8457TIP3    H225313   5.795   3.838   2.531
 8458TIP3   OH225314   7.272   6.822   2.851
 8458TIP3    H125315   7.347   6.855   2.802
 8458TIP3    H225316   7.225   6.900   2.879
 8459TIP3   OH225317   7.225   3.098   1.931
 8459TIP3    H125318   7.224   3.029   1.865
 8459TIP3    H225319   7.191   3.055   2.010
 8460TIP3   OH225320   5.006   1.934   0.293
 8460TIP3    H125321   4.950   2.000   0.251
 8460TIP3    H225322   5.074   1.985   0.337
 8461TIP3   OH225323   2.171   2.064   6.515
 8461TIP3    H125324   2.148   1.972   6.523
 8461TIP3    H225325   2.145   2.103   6.599
 8462TIP3   OH225326   8.201   3.076   2.238
 8462TIP3    H125327   8.175   3.011   2.172
 8462TIP3    H225328   8.226   3.025   2.314
 8463TIP3   OH225329   3.500   5.457   1.198
 8463TIP3    H125330   3.485   5.503   1.115
 8463TIP3    H225331   3.412   5.429   1.226
 8464TIP3   OH225332   3.736   7.451   4.613
 8464TIP3    H125333   3.652   7.422   4.575
 8464TIP3    H225334   3.789   7.474   4.537
 8465TIP3   OH225335   7.842   5.591   4.674
 8465TIP3    H125336   7.865   5.671   4.626
 8465TIP3    H225337   7.909   5.527   4.647
 8466TIP3   OH225338   3.086   1.075   4.579
 8466TIP3    H125339   3.129   1.074   4.665
 8466TIP3    H225340   3.019   1.007   4.586
 8467TIP3   OH225341   3.340   7.656   2.506
 8467TIP3    H125342   3.431   7.686   2.505
 8467TIP3    H225343   3.345   7.564   2.480
 8468TIP3   OH225344   0.389   6.943   1.864
 8468TIP3    H125345   0.361   6.972   1.777
 8468TIP3    H225346   0.354   7.010   1.924
 8469TIP3   OH225347   5.909   6.756   3.489
 8469TIP3    H125348   5.829   6.714   3.460
 8469TIP3    H225349   5.919   6.832   3.431
 8470TIP3   OH225350   4.900   6.644   3.362
 8470TIP3    H125351   4.872   6.716   3.420
 8470TIP3    H225352   4.992   6.631   3.382
 8471TIP3   OH225353   5.612   2.171   6.318
 8471TIP3    H125354   5.632   2.077   6.320
 8471TIP3    H225355   5.683   2.209   6.267
 8472TIP3   OH225356   3.774   0.626   4.617
 8472TIP3    H125357   3.765   0.617   4.522
 8472TIP3    H225358   3.751   0.718   4.634
 8473TIP3   OH225359   5.493   3.688   0.715
 8473TIP3    H125360   5.583   3.702   0.687
 8473TIP3    H225361   5.501   3.654   0.805
 8474TIP3   OH225362   0.549   1.259   2.284
 8474TIP3    H125363   0.612   1.291   2.219
 8474TIP3    H225364   0.599   1.193   2.334
 8475TIP3   OH225365   2.014   1.894   0.100
 8475TIP3    H125366   2.060   1.811   0.111
 8475TIP3    H225367   2.081   1.955   0.067
 8476TIP3   OH225368   0.197   0.549   5.730
 8476TIP3    H125369   0.196   0.619   5.664
 8476TIP3    H225370   0.256   0.581   5.798
 8477TIP3   OH225371   6.011   7.614   4.353
 8477TIP3    H125372   5.949   7.611   4.426
 8477TIP3    H225373   5.955   7.617   4.275
 8478TIP3   OH225374   7.088   2.975   6.237
 8478TIP3    H125375   7.113   2.944   6.324
 8478TIP3    H225376   7.048   3.060   6.253
 8479TIP3   OH225377   6.984   5.802   1.383
 8479TIP3    H125378   6.945   5.837   1.463
 8479TIP3    H225379   7.064   5.758   1.412
 8480TIP3   OH225380   1.817   5.567   1.849
 8480TIP3    H125381   1.738   5.516   1.867
 8480TIP3    H225382   1.841   5.544   1.760
 8481TIP3   OH225383   6.263   4.872   4.423
 8481TIP3    H125384   6.234   4.911   4.341
 8481TIP3    H225385   6.207   4.913   4.490
 8482TIP3   OH225386   7.504   6.416   3.294
 8482TIP3    H125387   7.450   6.467   3.354
 8482TIP3    H225388   7.463   6.329   3.293
 8483TIP3   OH225389   7.768   6.841   1.820
 8483TIP3    H125390   7.692   6.782   1.816
 8483TIP3    H225391   7.814   6.815   1.900
 8484TIP3   OH225392   3.994   5.980   3.893
 8484TIP3    H125393   3.983   6.035   3.971
 8484TIP3    H225394   3.946   6.027   3.824
 8485TIP3   OH225395   4.328   1.884   6.483
 8485TIP3    H125396   4.358   1.842   6.403
 8485TIP3    H225397   4.292   1.968   6.454
 8486TIP3   OH225398   2.752   1.985   1.975
 8486TIP3    H125399   2.803   2.067   1.980
 8486TIP3    H225400   2.813   1.918   2.006
 8487TIP3   OH225401   6.609   2.048   2.141
 8487TIP3    H125402   6.648   2.132   2.119
 8487TIP3    H225403   6.628   2.037   2.234
 8488TIP3   OH225404   4.104   5.980   2.880
 8488TIP3    H125405   4.033   6.021   2.929
 8488TIP3    H225406   4.062   5.910   2.830
 8489TIP3   OH225407   3.402   1.476   4.035
 8489TIP3    H125408   3.351   1.474   4.115
 8489TIP3    H225409   3.371   1.554   3.988
 8490TIP3   OH225410   1.271   1.220   3.009
 8490TIP3    H125411   1.311   1.137   2.981
 8490TIP3    H225412   1.177   1.200   3.013
 8491TIP3   OH225413   4.371   0.247   1.543
 8491TIP3    H125414   4.368   0.256   1.639
 8491TIP3    H225415   4.320   0.167   1.526
 8492TIP3   OH225416   3.365   2.865   4.940
 8492TIP3    H125417   3.432   2.927   4.966
 8492TIP3    H225418   3.385   2.843   4.849
 8493TIP3   OH225419   5.979   1.069   5.040
 8493TIP3    H125420   5.939   1.019   4.969
 8493TIP3    H225421   5.968   1.160   5.016
 8494TIP3   OH225422   8.206   6.500   3.202
 8494TIP3    H125423   8.273   6.566   3.217
 8494TIP3    H225424   8.126   6.550   3.185
 8495TIP3   OH225425   7.119   7.106   2.208
 8495TIP3    H125426   7.138   7.194   2.239
 8495TIP3    H225427   7.107   7.115   2.113
 8496TIP3   OH225428   1.611   0.940   6.119
 8496TIP3    H125429   1.613   1.036   6.121
 8496TIP3    H225430   1.603   0.918   6.026
 8497TIP3   OH225431   4.068   5.917   6.179
 8497TIP3    H125432   4.139   5.950   6.233
 8497TIP3    H225433   4.084   5.954   6.092
 8498TIP3   OH225434   5.148   5.180   0.267
 8498TIP3    H125435   5.168   5.132   0.347
 8498TIP3    H225436   5.221   5.160   0.208
 8499TIP3   OH225437   7.100   1.031   3.050
 8499TIP3    H125438   7.093   0.945   3.008
 8499TIP3    H225439   7.192   1.054   3.042
 8500TIP3   OH225440   6.817   7.319   3.979
 8500TIP3    H125441   6.807   7.234   4.023
 8500TIP3    H225442   6.878   7.367   4.035
 8501TIP3   OH225443   1.914   7.203   4.115
 8501TIP3    H125444   1.827   7.238   4.095
 8501TIP3    H225445   1.958   7.274   4.161
 8502TIP3   OH225446   1.451   3.444   6.550
 8502TIP3    H125447   1.506   3.437   6.628
 8502TIP3    H225448   1.501   3.398   6.482
 8503TIP3   OH225449   7.089   1.264   3.889
 8503TIP3    H125450   7.107   1.353   3.860
 8503TIP3    H225451   7.000   1.246   3.859
 8504TIP3   OH225452   7.582   1.180   5.301
 8504TIP3    H125453   7.537   1.151   5.381
 8504TIP3    H225454   7.668   1.207   5.332
 8505TIP3   OH225455   3.667   5.293   0.948
 8505TIP3    H125456   3.593   5.336   0.990
 8505TIP3    H225457   3.678   5.211   0.997
 8506TIP3   OH225458   5.270   7.874   5.496
 8506TIP3    H125459   5.240   7.822   5.571
 8506TIP3    H225460   5.363   7.854   5.488
 8507TIP3   OH225461   7.818   0.258   5.292
 8507TIP3    H125462   7.735   0.282   5.333
 8507TIP3    H225463   7.816   0.162   5.289
 8508TIP3   OH225464   0.737   6.298   0.080
 8508TIP3    H125465   0.674   6.262   0.143
 8508TIP3    H225466   0.683   6.319   0.003
 8509TIP3   OH225467   1.081   5.013   2.654
 8509TIP3    H125468   1.089   5.088   2.713
 8509TIP3    H225469   1.040   5.049   2.575
 8510TIP3   OH225470   7.203   0.726   4.200
 8510TIP3    H125471   7.204   0.728   4.296
 8510TIP3    H225472   7.225   0.815   4.174
 8511TIP3   OH225473   7.193   4.854   0.540
 8511TIP3    H125474   7.240   4.771   0.551
 8511TIP3    H225475   7.101   4.831   0.553
 8512TIP3   OH225476   0.151   1.391   0.610
 8512TIP3    H125477   0.207   1.466   0.586
 8512TIP3    H225478   0.097   1.424   0.682
 8513TIP3   OH225479   6.371   7.343   0.604
 8513TIP3    H125480   6.394   7.308   0.690
 8513TIP3    H225481   6.453   7.377   0.570
 8514TIP3   OH225482   5.501   2.025   2.951
 8514TIP3    H125483   5.525   1.934   2.937
 8514TIP3    H225484   5.413   2.021   2.989
 8515TIP3   OH225485   5.938   3.425   4.835
 8515TIP3    H125486   5.867   3.483   4.864
 8515TIP3    H225487   5.931   3.348   4.893
 8516TIP3   OH225488   3.669   2.999   1.003
 8516TIP3    H125489   3.738   2.995   1.069
 8516TIP3    H225490   3.661   2.909   0.972
 8517TIP3   OH225491   3.484   4.782   1.925
 8517TIP3    H125492   3.533   4.701   1.909
 8517TIP3    H225493   3.487   4.793   2.020
 8518TIP3   OH225494   7.119   6.117   1.604
 8518TIP3    H125495   7.092   6.107   1.513
 8518TIP3    H225496   7.214   6.116   1.602
 8519TIP3   OH225497   3.756   0.692   2.170
 8519TIP3    H125498   3.769   0.612   2.220
 8519TIP3    H225499   3.693   0.667   2.102
 8520TIP3   OH225500   7.138   4.660   6.736
 8520TIP3    H125501   7.179   4.575   6.728
 8520TIP3    H225502   7.210   4.720   6.758
 8521TIP3   OH225503   3.098   6.111   4.073
 8521TIP3    H125504   3.028   6.051   4.049
 8521TIP3    H225505   3.055   6.195   4.088
 8522TIP3   OH225506   2.847   0.179   1.112
 8522TIP3    H125507   2.839   0.260   1.061
 8522TIP3    H225508   2.906   0.124   1.060
 8523TIP3   OH225509   5.296   5.255   0.532
 8523TIP3    H125510   5.312   5.168   0.569
 8523TIP3    H225511   5.370   5.308   0.562
 8524TIP3   OH225512   1.148   1.310   6.111
 8524TIP3    H125513   1.181   1.369   6.179
 8524TIP3    H225514   1.081   1.259   6.155
 8525TIP3   OH225515   7.663   5.732   2.738
 8525TIP3    H125516   7.742   5.677   2.743
 8525TIP3    H225517   7.611   5.705   2.813
 8526TIP3   OH225518   5.223   4.624   6.431
 8526TIP3    H125519   5.147   4.662   6.389
 8526TIP3    H225520   5.249   4.688   6.497
 8527TIP3   OH225521   3.180   6.847   5.593
 8527TIP3    H125522   3.264   6.892   5.604
 8527TIP3    H225523   3.163   6.808   5.679
 8528TIP3   OH225524   6.909   1.160   5.878
 8528TIP3    H125525   6.958   1.182   5.799
 8528TIP3    H225526   6.846   1.094   5.850
 8529TIP3   OH225527   5.813   1.779   4.192
 8529TIP3    H125528   5.892   1.807   4.146
 8529TIP3    H225529   5.770   1.719   4.131
 8530TIP3   OH225530   6.969   3.329   5.405
 8530TIP3    H125531   6.977   3.349   5.499
 8530TIP3    H225532   6.903   3.260   5.401
 8531TIP3   OH225533   3.986   2.729   0.575
 8531TIP3    H125534   4.006   2.807   0.627
 8531TIP3    H225535   3.966   2.661   0.640
 8532TIP3   OH225536   5.282   7.630   0.978
 8532TIP3    H125537   5.283   7.535   0.966
 8532TIP3    H225538   5.374   7.655   0.978
 8533TIP3   OH225539   7.331   1.387   3.789
 8533TIP3    H125540   7.396   1.429   3.733
 8533TIP3    H225541   7.325   1.297   3.756
 8534TIP3   OH225542   2.901   7.747   5.727
 8534TIP3    H125543   2.874   7.658   5.703
 8534TIP3    H225544   2.907   7.793   5.644
 8535TIP3   OH225545   5.059   6.590   6.830
 8535TIP3    H125546   4.969   6.563   6.814
 8535TIP3    H225547   5.109   6.508   6.830
 8536TIP3   OH225548   5.305   1.960   3.260
 8536TIP3    H125549   5.398   1.937   3.258
 8536TIP3    H225550   5.260   1.876   3.248
 8537TIP3   OH225551   2.134   7.801   1.968
 8537TIP3    H125552   2.204   7.811   1.903
 8537TIP3    H225553   2.074   7.874   1.950
 8538TIP3   OH225554   2.216   1.824   0.383
 8538TIP3    H125555   2.245   1.909   0.351
 8538TIP3    H225556   2.286   1.795   0.441
 8539TIP3   OH225557   0.912   4.876   3.284
 8539TIP3    H125558   0.838   4.844   3.231
 8539TIP3    H225559   0.930   4.964   3.250
 8540TIP3   OH225560   2.106   6.596   1.876
 8540TIP3    H125561   2.042   6.532   1.908
 8540TIP3    H225562   2.122   6.571   1.785
 8541TIP3   OH225563   0.490   6.227   2.431
 8541TIP3    H125564   0.435   6.282   2.487
 8541TIP3    H225565   0.429   6.163   2.394
 8542TIP3   OH225566   3.677   2.614   2.396
 8542TIP3    H125567   3.601   2.622   2.454
 8542TIP3    H225568   3.656   2.670   2.322
 8543TIP3   OH225569   6.914   7.126   0.203
 8543TIP3    H125570   6.949   7.070   0.134
 8543TIP3    H225571   6.932   7.215   0.172
 8544TIP3   OH225572   3.370   0.071   5.033
 8544TIP3    H125573   3.420   0.021   4.969
 8544TIP3    H225574   3.285   0.086   4.990
 8545TIP3   OH225575   0.316   2.101   4.041
 8545TIP3    H125576   0.226   2.073   4.027
 8545TIP3    H225577   0.355   2.032   4.095
 8546TIP3   OH225578   4.450   6.779   4.524
 8546TIP3    H125579   4.411   6.848   4.577
 8546TIP3    H225580   4.489   6.719   4.588
 8547TIP3   OH225581   0.918   0.072   1.257
 8547TIP3    H125582   0.908   0.041   1.167
 8547TIP3    H225583   0.899   0.166   1.252
 8548TIP3   OH225584   3.608   2.808   3.287
 8548TIP3    H125585   3.690   2.796   3.334
 8548TIP3    H225586   3.549   2.742   3.323
 8549TIP3   OH225587   3.112   5.917   6.240
 8549TIP3    H125588   3.065   5.999   6.257
 8549TIP3    H225589   3.160   5.900   6.322
 8550TIP3   OH225590   2.005   7.648   6.092
 8550TIP3    H125591   1.974   7.666   6.181
 8550TIP3    H225592   2.081   7.704   6.080
 8551TIP3   OH225593   7.992   0.695   6.564
 8551TIP3    H125594   7.903   0.694   6.599
 8551TIP3    H225595   8.002   0.783   6.528
 8552TIP3   OH225596   5.153   1.239   2.555
 8552TIP3    H125597   5.086   1.229   2.623
 8552TIP3    H225598   5.236   1.232   2.603
 8553TIP3   OH225599   7.939   2.267   0.143
 8553TIP3    H125600   7.872   2.218   0.190
 8553TIP3    H225601   7.893   2.308   0.069
 8554TIP3   OH225602   3.310   4.661   6.493
 8554TIP3    H125603   3.366   4.722   6.541
 8554TIP3    H225604   3.329   4.678   6.401
 8555TIP3   OH225605   5.151   1.929   1.004
 8555TIP3    H125606   5.150   1.883   1.089
 8555TIP3    H225607   5.133   2.020   1.026
 8556TIP3   OH225608   2.894   1.169   2.769
 8556TIP3    H125609   2.969   1.137   2.719
 8556TIP3    H225610   2.860   1.091   2.813
 8557TIP3   OH225611   8.162   4.406   3.823
 8557TIP3    H125612   8.223   4.333   3.834
 8557TIP3    H225613   8.164   4.425   3.729
 8558TIP3   OH225614   5.077   7.046   4.011
 8558TIP3    H125615   5.071   6.975   4.075
 8558TIP3    H225616   4.994   7.092   4.017
 8559TIP3   OH225617   5.539   1.183   3.700
 8559TIP3    H125618   5.473   1.118   3.678
 8559TIP3    H225619   5.532   1.193   3.795
 8560TIP3   OH225620   8.348   2.227   1.376
 8560TIP3    H125621   8.386   2.141   1.395
 8560TIP3    H225622   8.259   2.208   1.348
 8561TIP3   OH225623   4.507   1.555   3.616
 8561TIP3    H125624   4.592   1.529   3.581
 8561TIP3    H225625   4.482   1.484   3.675
 8562TIP3   OH225626   2.846   2.705   4.532
 8562TIP3    H125627   2.928   2.722   4.579
 8562TIP3    H225628   2.797   2.646   4.589
 8563TIP3   OH225629   6.955   0.893   0.389
 8563TIP3    H125630   7.009   0.817   0.365
 8563TIP3    H225631   6.903   0.911   0.310
 8564TIP3   OH225632   7.851   5.207   5.570
 8564TIP3    H125633   7.766   5.247   5.586
 8564TIP3    H225634   7.913   5.280   5.577
 8565TIP3   OH225635   2.302   1.955   4.553
 8565TIP3    H125636   2.380   2.011   4.553
 8565TIP3    H225637   2.315   1.896   4.479
 8566TIP3   OH225638   7.472   3.247   1.888
 8566TIP3    H125639   7.381   3.218   1.887
 8566TIP3    H225640   7.493   3.256   1.981
 8567TIP3   OH225641   2.793   0.861   5.262
 8567TIP3    H125642   2.809   0.954   5.274
 8567TIP3    H225643   2.826   0.842   5.173
 8568TIP3   OH225644   0.611   1.609   5.260
 8568TIP3    H125645   0.577   1.608   5.349
 8568TIP3    H225646   0.703   1.583   5.269
 8569TIP3   OH225647   4.436   0.154   0.136
 8569TIP3    H125648   4.488   0.205   0.199
 8569TIP3    H225649   4.498   0.128   0.069
 8570TIP3   OH225650   2.923   2.377   4.527
 8570TIP3    H125651   2.907   2.283   4.538
 8570TIP3    H225652   2.948   2.407   4.615
 8571TIP3   OH225653   2.059   7.508   3.788
 8571TIP3    H125654   2.088   7.572   3.853
 8571TIP3    H225655   2.096   7.425   3.817
 8572TIP3   OH225656   3.285   0.607   1.815
 8572TIP3    H125657   3.207   0.556   1.793
 8572TIP3    H225658   3.320   0.565   1.894
 8573TIP3   OH225659   4.195   5.001   5.045
 8573TIP3    H125660   4.201   5.008   5.140
 8573TIP3    H225661   4.103   4.980   5.028
 8574TIP3   OH225662   6.987   0.666   5.285
 8574TIP3    H125663   6.944   0.752   5.284
 8574TIP3    H225664   6.963   0.627   5.201
 8575TIP3   OH225665   5.917   6.392   1.970
 8575TIP3    H125666   5.913   6.486   1.955
 8575TIP3    H225667   5.827   6.367   1.991
 8576TIP3   OH225668   3.426   6.867   1.203
 8576TIP3    H125669   3.360   6.876   1.134
 8576TIP3    H225670   3.397   6.925   1.273
 8577TIP3   OH225671   3.856   1.843   3.263
 8577TIP3    H125672   3.767   1.875   3.283
 8577TIP3    H225673   3.903   1.851   3.346
 8578TIP3   OH225674   5.387   0.121   0.751
 8578TIP3    H125675   5.332   0.190   0.789
 8578TIP3    H225676   5.377   0.131   0.657
 8579TIP3   OH225677   4.916   3.402   3.150
 8579TIP3    H125678   4.936   3.444   3.066
 8579TIP3    H225679   4.857   3.330   3.127
 8580TIP3   OH225680   1.436   3.643   4.129
 8580TIP3    H125681   1.384   3.710   4.084
 8580TIP3    H225682   1.487   3.691   4.193
 8581TIP3   OH225683   1.247   0.269   2.480
 8581TIP3    H125684   1.334   0.308   2.492
 8581TIP3    H225685   1.237   0.260   2.385
 8582TIP3   OH225686   3.196   4.704   0.658
 8582TIP3    H125687   3.270   4.688   0.717
 8582TIP3    H225688   3.124   4.653   0.696
 8583TIP3   OH225689   0.578   7.072   5.735
 8583TIP3    H125690   0.547   7.139   5.796
 8583TIP3    H225691   0.498   7.034   5.698
 8584TIP3   OH225692   3.613   6.920   2.445
 8584TIP3    H125693   3.618   7.016   2.448
 8584TIP3    H225694   3.527   6.902   2.406
 8585TIP3   OH225695   8.057   2.633   6.489
 8585TIP3    H125696   8.083   2.543   6.508
 8585TIP3    H225697   8.012   2.662   6.569
 8586TIP3   OH225698   3.471   1.505   1.074
 8586TIP3    H125699   3.523   1.473   1.000
 8586TIP3    H225700   3.535   1.549   1.131
 8587TIP3   OH225701   4.726   5.557   6.033
 8587TIP3    H125702   4.709   5.463   6.032
 8587TIP3    H225703   4.651   5.595   6.079
 8588TIP3   OH225704   2.885   0.956   5.848
 8588TIP3    H125705   2.863   0.922   5.762
 8588TIP3    H225706   2.901   1.049   5.834
 8589TIP3   OH225707   0.369   2.764   1.420
 8589TIP3    H125708   0.321   2.846   1.431
 8589TIP3    H225709   0.302   2.699   1.397
 8590TIP3   OH225710   3.592   1.907   0.142
 8590TIP3    H125711   3.602   1.993   0.101
 8590TIP3    H225712   3.598   1.924   0.236
 8591TIP3   OH225713   5.902   6.903   2.304
 8591TIP3    H125714   5.840   6.831   2.317
 8591TIP3    H225715   5.887   6.931   2.214
 8592TIP3   OH225716   4.105   6.339   6.558
 8592TIP3    H125717   4.011   6.358   6.554
 8592TIP3    H225718   4.110   6.245   6.574
 8593TIP3   OH225719   2.448   2.364   6.377
 8593TIP3    H125720   2.364   2.349   6.335
 8593TIP3    H225721   2.511   2.316   6.323
 8594TIP3   OH225722   6.319   1.181   2.763
 8594TIP3    H125723   6.238   1.166   2.811
 8594TIP3    H225724   6.381   1.117   2.799
 8595TIP3   OH225725   0.308   5.092   6.703
 8595TIP3    H125726   0.255   5.058   6.630
 8595TIP3    H225727   0.359   5.017   6.732
 8596TIP3   OH225728   1.943   1.831   4.365
 8596TIP3    H125729   1.989   1.895   4.419
 8596TIP3    H225730   2.007   1.761   4.350
 8597TIP3   OH225731   0.059   7.586   1.360
 8597TIP3    H125732   0.105   7.659   1.319
 8597TIP3    H225733   0.030   7.620   1.445
 8598TIP3   OH225734   4.832   2.857   4.795
 8598TIP3    H125735   4.849   2.944   4.760
 8598TIP3    H225736   4.919   2.820   4.810
 8599TIP3   OH225737   7.145   1.738   0.760
 8599TIP3    H125738   7.084   1.717   0.831
 8599TIP3    H225739   7.162   1.831   0.770
 8600TIP3   OH225740   4.311   1.932   5.868
 8600TIP3    H125741   4.306   1.970   5.956
 8600TIP3    H225742   4.404   1.927   5.849
 8601TIP3   OH225743   6.245   3.173   3.437
 8601TIP3    H125744   6.320   3.162   3.378
 8601TIP3    H225745   6.214   3.261   3.420
 8602TIP3   OH225746   5.950   0.130   3.721
 8602TIP3    H125747   5.982   0.069   3.787
 8602TIP3    H225748   6.000   0.211   3.736
 8603TIP3   OH225749   0.843   1.772   0.517
 8603TIP3    H125750   0.752   1.802   0.521
 8603TIP3    H225751   0.880   1.816   0.440
 8604TIP3   OH225752   7.568   1.358   0.695
 8604TIP3    H125753   7.572   1.452   0.708
 8604TIP3    H225754   7.628   1.341   0.622
 8605TIP3   OH225755   2.296   3.029   5.615
 8605TIP3    H125756   2.368   3.035   5.552
 8605TIP3    H225757   2.244   3.108   5.601
 8606TIP3   OH225758   4.210   0.632   1.042
 8606TIP3    H125759   4.170   0.581   1.112
 8606TIP3    H225760   4.247   0.567   0.982
 8607TIP3   OH225761   3.265   2.749   2.784
 8607TIP3    H125762   3.246   2.674   2.841
 8607TIP3    H225763   3.184   2.762   2.734
 8608TIP3   OH225764   1.272   7.195   6.323
 8608TIP3    H125765   1.323   7.202   6.403
 8608TIP3    H225766   1.187   7.163   6.352
 8609TIP3   OH225767   7.378   3.199   2.864
 8609TIP3    H125768   7.429   3.238   2.936
 8609TIP3    H225769   7.316   3.267   2.839
 8610TIP3   OH225770   4.531   0.412   3.159
 8610TIP3    H125771   4.480   0.437   3.082
 8610TIP3    H225772   4.607   0.471   3.158
 8611TIP3   OH225773   6.886   3.702   0.320
 8611TIP3    H125774   6.872   3.609   0.301
 8611TIP3    H225775   6.860   3.711   0.411
 8612TIP3   OH225776   3.192   1.482   4.815
 8612TIP3    H125777   3.224   1.535   4.888
 8612TIP3    H225778   3.098   1.473   4.831
 8613TIP3   OH225779   5.105   2.354   4.885
 8613TIP3    H125780   5.184   2.355   4.939
 8613TIP3    H225781   5.117   2.424   4.822
 8614TIP3   OH225782   0.972   7.291   5.683
 8614TIP3    H125783   0.983   7.376   5.640
 8614TIP3    H225784   0.880   7.268   5.667
 8615TIP3   OH225785   7.798   7.685   3.264
 8615TIP3    H125786   7.874   7.703   3.209
 8615TIP3    H225787   7.725   7.679   3.203
 8616TIP3   OH225788   0.535   5.072   1.433
 8616TIP3    H125789   0.473   5.080   1.506
 8616TIP3    H225790   0.553   5.162   1.407
 8617TIP3   OH225791   4.094   6.749   4.943
 8617TIP3    H125792   4.005   6.748   4.980
 8617TIP3    H225793   4.085   6.706   4.858
 8618TIP3   OH225794   2.212   4.666   2.153
 8618TIP3    H125795   2.172   4.629   2.231
 8618TIP3    H225796   2.294   4.618   2.142
 8619TIP3   OH225797   2.508   7.716   3.098
 8619TIP3    H125798   2.433   7.757   3.055
 8619TIP3    H225799   2.539   7.651   3.034
 8620TIP3   OH225800   0.981   7.933   1.087
 8620TIP3    H125801   1.029   8.015   1.070
 8620TIP3    H225802   0.976   7.891   1.001
 8621TIP3   OH225803   7.000   4.328   0.154
 8621TIP3    H125804   6.932   4.388   0.186
 8621TIP3    H225805   6.965   4.241   0.172
 8622TIP3   OH225806   2.771   1.307   1.537
 8622TIP3    H125807   2.783   1.385   1.483
 8622TIP3    H225808   2.707   1.255   1.488
 8623TIP3   OH225809   8.294   2.244   5.201
 8623TIP3    H125810   8.298   2.321   5.257
 8623TIP3    H225811   8.205   2.245   5.166
 8624TIP3   OH225812   3.368   1.865   4.215
 8624TIP3    H125813   3.312   1.880   4.139
 8624TIP3    H225814   3.455   1.853   4.179
 8625TIP3   OH225815   6.043   6.787   4.404
 8625TIP3    H125816   6.007   6.702   4.431
 8625TIP3    H225817   6.039   6.841   4.483
 8626TIP3   OH225818   5.611   7.211   5.663
 8626TIP3    H125819   5.625   7.147   5.733
 8626TIP3    H225820   5.579   7.289   5.708
 8627TIP3   OH225821   0.518   6.515   0.213
 8627TIP3    H125822   0.539   6.442   0.154
 8627TIP3    H225823   0.510   6.475   0.299
 8628TIP3   OH225824   6.766   1.112   0.843
 8628TIP3    H125825   6.780   1.199   0.882
 8628TIP3    H225826   6.739   1.057   0.916
 8629TIP3   OH225827   6.449   3.667   0.836
 8629TIP3    H125828   6.391   3.636   0.906
 8629TIP3    H225829   6.390   3.697   0.767
 8630TIP3   OH225830   4.441   7.854   6.476
 8630TIP3    H125831   4.361   7.823   6.518
 8630TIP3    H225832   4.504   7.784   6.491
 8631TIP3   OH225833   3.081   6.124   1.784
 8631TIP3    H125834   3.151   6.161   1.730
 8631TIP3    H225835   3.011   6.189   1.781
 8632TIP3   OH225836   5.303   7.411   3.194
 8632TIP3    H125837   5.339   7.324   3.210
 8632TIP3    H225838   5.262   7.404   3.107
 8633TIP3   OH225839   2.854   7.426   0.617
 8633TIP3    H125840   2.764   7.446   0.646
 8633TIP3    H225841   2.849   7.336   0.585
 8634TIP3   OH225842   5.284   3.375   3.790
 8634TIP3    H125843   5.261   3.462   3.759
 8634TIP3    H225844   5.353   3.390   3.854
 8635TIP3   OH225845   1.370   5.620   6.755
 8635TIP3    H125846   1.285   5.664   6.744
 8635TIP3    H225847   1.360   5.570   6.836
 8636TIP3   OH225848   7.777   4.858   6.536
 8636TIP3    H125849   7.687   4.828   6.526
 8636TIP3    H225850   7.772   4.953   6.534
 8637TIP3   OH225851   7.068   2.680   6.390
 8637TIP3    H125852   7.151   2.664   6.346
 8637TIP3    H225853   7.085   2.756   6.446
 8638TIP3   OH225854   0.059   1.230   2.012
 8638TIP3    H125855   0.061   1.218   2.107
 8638TIP3    H225856   0.010   1.311   1.999
 8639TIP3   OH225857   8.105   5.204   5.763
 8639TIP3    H125858   8.073   5.252   5.839
 8639TIP3    H225859   8.032   5.205   5.701
 8640TIP3   OH225860   2.393   0.017   0.308
 8640TIP3    H125861   2.337  -0.046   0.353
 8640TIP3    H225862   2.374   0.100   0.352
 8641TIP3   OH225863   1.985   4.304   1.917
 8641TIP3    H125864   1.915   4.279   1.977
 8641TIP3    H225865   1.940   4.330   1.837
 8642TIP3   OH225866   0.841   0.787   0.632
 8642TIP3    H125867   0.794   0.811   0.552
 8642TIP3    H225868   0.797   0.707   0.662
 8643TIP3   OH225869   5.773   3.001   2.372
 8643TIP3    H125870   5.836   3.024   2.441
 8643TIP3    H225871   5.727   3.082   2.353
 8644TIP3   OH225872   2.395   1.528   2.649
 8644TIP3    H125873   2.299   1.525   2.651
 8644TIP3    H225874   2.414   1.612   2.607
 8645TIP3   OH225875   3.505   2.709   2.122
 8645TIP3    H125876   3.553   2.666   2.052
 8645TIP3    H225877   3.513   2.803   2.102
 8646TIP3   OH225878   5.885   4.940   2.715
 8646TIP3    H125879   5.808   4.994   2.702
 8646TIP3    H225880   5.946   4.995   2.765
 8647TIP3   OH225881   5.835   4.883   4.018
 8647TIP3    H125882   5.765   4.824   3.992
 8647TIP3    H225883   5.799   4.933   4.091
 8648TIP3   OH225884   5.050   5.628   4.621
 8648TIP3    H125885   5.116   5.652   4.686
 8648TIP3    H225886   5.060   5.534   4.610
 8649TIP3   OH225887   6.310   7.278   0.263
 8649TIP3    H125888   6.345   7.349   0.317
 8649TIP3    H225889   6.260   7.323   0.194
 8650TIP3   OH225890   6.388   6.719   3.741
 8650TIP3    H125891   6.362   6.650   3.680
 8650TIP3    H225892   6.321   6.787   3.731
 8651TIP3   OH225893   2.556   1.568   1.395
 8651TIP3    H125894   2.610   1.511   1.341
 8651TIP3    H225895   2.592   1.656   1.381
 8652TIP3   OH225896   0.348   2.448   6.308
 8652TIP3    H125897   0.319   2.496   6.231
 8652TIP3    H225898   0.441   2.432   6.293
 8653TIP3   OH225899   7.586   4.169   4.723
 8653TIP3    H125900   7.587   4.262   4.703
 8653TIP3    H225901   7.524   4.161   4.796
 8654TIP3   OH225902   1.031   7.036   6.369
 8654TIP3    H125903   1.103   6.978   6.341
 8654TIP3    H225904   0.979   6.982   6.428
 8655TIP3   OH225905   4.889   3.073   5.972
 8655TIP3    H125906   4.838   3.033   5.902
 8655TIP3    H225907   4.934   3.146   5.930
 8656TIP3   OH225908   7.102   5.660   6.387
 8656TIP3    H125909   7.152   5.578   6.380
 8656TIP3    H225910   7.153   5.713   6.448
 8657TIP3   OH225911   4.224   4.808   3.857
 8657TIP3    H125912   4.183   4.839   3.776
 8657TIP3    H225913   4.156   4.817   3.924
 8658TIP3   OH225914   6.898   2.809   4.769
 8658TIP3    H125915   6.981   2.821   4.722
 8658TIP3    H225916   6.892   2.715   4.784
 8659TIP3   OH225917   4.517   3.016   2.954
 8659TIP3    H125918   4.445   3.079   2.947
 8659TIP3    H225919   4.505   2.956   2.881
 8660TIP3   OH225920   7.463   2.714   5.031
 8660TIP3    H125921   7.494   2.624   5.024
 8660TIP3    H225922   7.540   2.765   5.056
 8661TIP3   OH225923   3.273   2.187   6.458
 8661TIP3    H125924   3.335   2.234   6.513
 8661TIP3    H225925   3.241   2.253   6.396
 8662TIP3   OH225926   8.100   2.177   4.228
 8662TIP3    H125927   8.007   2.168   4.245
 8662TIP3    H225928   8.137   2.205   4.312
 8663TIP3   OH225929   5.703   1.040   1.837
 8663TIP3    H125930   5.765   1.081   1.897
 8663TIP3    H225931   5.617   1.056   1.876
 8664TIP3   OH225932   2.897   2.050   6.662
 8664TIP3    H125933   2.857   2.043   6.575
 8664TIP3    H225934   2.822   2.053   6.722
 8665TIP3   OH225935   3.967   4.404   2.328
 8665TIP3    H125936   4.049   4.437   2.290
 8665TIP3    H225937   3.996   4.342   2.395
 8666TIP3   OH225938   5.014   3.484   6.829
 8666TIP3    H125939   4.992   3.453   6.917
 8666TIP3    H225940   5.104   3.515   6.837
 8667TIP3   OH225941   6.736   6.832   5.986
 8667TIP3    H125942   6.694   6.805   5.904
 8667TIP3    H225943   6.678   6.900   6.020
 8668TIP3   OH225944   8.004   2.961   1.476
 8668TIP3    H125945   8.087   3.009   1.476
 8668TIP3    H225946   7.939   3.026   1.502
 8669TIP3   OH225947   7.027   4.249   2.919
 8669TIP3    H125948   7.056   4.213   3.003
 8669TIP3    H225949   6.933   4.232   2.917
 8670TIP3   OH225950   4.597   4.387   1.106
 8670TIP3    H125951   4.546   4.436   1.041
 8670TIP3    H225952   4.653   4.330   1.054
 8671TIP3   OH225953   5.528   0.489   3.451
 8671TIP3    H125954   5.516   0.433   3.374
 8671TIP3    H225955   5.589   0.441   3.506
 8672TIP3   OH225956   4.864   1.742   0.994
 8672TIP3    H125957   4.794   1.766   0.933
 8672TIP3    H225958   4.819   1.694   1.063
 8673TIP3   OH225959   1.791   2.684   3.909
 8673TIP3    H125960   1.699   2.674   3.884
 8673TIP3    H225961   1.810   2.776   3.896
 8674TIP3   OH225962   0.631   6.466   5.568
 8674TIP3    H125963   0.609   6.474   5.661
 8674TIP3    H225964   0.553   6.428   5.528
 8675TIP3   OH225965   4.779   6.102   3.291
 8675TIP3    H125966   4.866   6.066   3.311
 8675TIP3    H225967   4.794   6.161   3.218
 8676TIP3   OH225968   2.389   3.483   6.516
 8676TIP3    H125969   2.339   3.471   6.597
 8676TIP3    H225970   2.439   3.402   6.506
 8677TIP3   OH225971   2.945   0.957   0.335
 8677TIP3    H125972   2.990   0.987   0.413
 8677TIP3    H225973   2.963   1.024   0.269
 8678TIP3   OH225974   2.383   7.421   5.671
 8678TIP3    H125975   2.294   7.385   5.667
 8678TIP3    H225976   2.402   7.447   5.582
 8679TIP3   OH225977   4.598   5.987   2.358
 8679TIP3    H125978   4.532   6.050   2.387
 8679TIP3    H225979   4.606   6.003   2.264
 8680TIP3   OH225980   7.094   0.851   0.704
 8680TIP3    H125981   7.022   0.818   0.651
 8680TIP3    H225982   7.153   0.892   0.641
 8681TIP3   OH225983   7.161   3.481   6.714
 8681TIP3    H125984   7.082   3.426   6.714
 8681TIP3    H225985   7.141   3.552   6.776
 8682TIP3   OH225986   6.293   5.468   2.501
 8682TIP3    H125987   6.363   5.512   2.549
 8682TIP3    H225988   6.335   5.393   2.460
 8683TIP3   OH225989   6.496   5.588   2.291
 8683TIP3    H125990   6.426   5.626   2.239
 8683TIP3    H225991   6.519   5.656   2.355
 8684TIP3   OH225992   7.347   1.832   2.742
 8684TIP3    H125993   7.395   1.761   2.700
 8684TIP3    H225994   7.297   1.790   2.812
 8685TIP3   OH225995   0.941   5.258   5.086
 8685TIP3    H125996   0.884   5.261   5.163
 8685TIP3    H225997   0.991   5.177   5.097
 8686TIP3   OH225998   7.316   4.310   0.749
 8686TIP3    H125999   7.232   4.346   0.720
 8686TIP3    H226000   7.313   4.219   0.721
 8687TIP3   OH226001   3.878   4.080   2.528
 8687TIP3    H126002   3.891   4.039   2.614
 8687TIP3    H226003   3.788   4.056   2.504
 8688TIP3   OH226004   8.298   1.649   4.631
 8688TIP3    H126005   8.251   1.615   4.555
 8688TIP3    H226006   8.300   1.744   4.618
 8689TIP3   OH226007   6.895   5.328   4.644
 8689TIP3    H126008   6.827   5.375   4.691
 8689TIP3    H226009   6.974   5.381   4.656
 8690TIP3   OH226010   5.868   0.211   2.713
 8690TIP3    H126011   5.915   0.153   2.653
 8690TIP3    H226012   5.877   0.169   2.798
 8691TIP3   OH226013   2.551   2.888   3.449
 8691TIP3    H126014   2.563   2.982   3.461
 8691TIP3    H226015   2.575   2.873   3.357
 8692TIP3   OH226016   6.907   7.294   4.713
 8692TIP3    H126017   6.827   7.274   4.760
 8692TIP3    H226018   6.945   7.368   4.760
 8693TIP3   OH226019   2.832   6.061   6.732
 8693TIP3    H126020   2.806   6.146   6.695
 8693TIP3    H226021   2.781   6.053   6.812
 8694TIP3   OH226022   4.599   2.096   1.325
 8694TIP3    H126023   4.593   2.156   1.400
 8694TIP3    H226024   4.543   2.137   1.259
 8695TIP3   OH226025   7.720   0.284   3.842
 8695TIP3    H126026   7.805   0.241   3.849
 8695TIP3    H226027   7.733   0.371   3.881
 8696TIP3   OH226028   4.232   5.904   2.574
 8696TIP3    H126029   4.245   5.900   2.479
 8696TIP3    H226030   4.138   5.885   2.586
 8697TIP3   OH226031   0.828   7.091   0.844
 8697TIP3    H126032   0.825   7.133   0.930
 8697TIP3    H226033   0.786   7.006   0.857
 8698TIP3   OH226034   3.182   1.082   6.236
 8698TIP3    H126035   3.139   1.073   6.322
 8698TIP3    H226036   3.166   1.172   6.211
 8699TIP3   OH226037   2.448   5.969   4.746
 8699TIP3    H126038   2.478   6.052   4.710
 8699TIP3    H226039   2.528   5.918   4.760
 8700TIP3   OH226040   5.763   5.904   5.424
 8700TIP3    H126041   5.671   5.884   5.440
 8700TIP3    H226042   5.809   5.869   5.500
 8701TIP3   OH226043   7.110   4.488   1.861
 8701TIP3    H126044   7.042   4.466   1.797
 8701TIP3    H226045   7.143   4.403   1.891
 8702TIP3   OH226046   1.243   1.796   3.792
 8702TIP3    H126047   1.262   1.879   3.748
 8702TIP3    H226048   1.196   1.744   3.727
 8703TIP3   OH226049   7.910   0.653   5.718
 8703TIP3    H126050   7.830   0.645   5.769
 8703TIP3    H226051   7.948   0.736   5.746
 8704TIP3   OH226052   3.900   4.858   0.793
 8704TIP3    H126053   3.879   4.927   0.730
 8704TIP3    H226054   3.816   4.837   0.834
 8705TIP3   OH226055   8.237   3.589   0.395
 8705TIP3    H126056   8.324   3.584   0.355
 8705TIP3    H226057   8.246   3.655   0.464
 8706TIP3   OH226058   2.132   3.248   0.388
 8706TIP3    H126059   2.095   3.164   0.417
 8706TIP3    H226060   2.098   3.312   0.449
 8707TIP3   OH226061   6.702   4.814   4.277
 8707TIP3    H126062   6.694   4.885   4.213
 8707TIP3    H226063   6.661   4.849   4.356
 8708TIP3   OH226064   0.049   3.042   3.182
 8708TIP3    H126065  -0.007   3.114   3.209
 8708TIP3    H226066   0.115   3.083   3.126
 8709TIP3   OH226067   3.179   1.043   4.825
 8709TIP3    H126068   3.266   1.004   4.812
 8709TIP3    H226069   3.128   0.973   4.866
 8710TIP3   OH226070   2.122   2.024   1.827
 8710TIP3    H126071   2.215   2.016   1.810
 8710TIP3    H226072   2.092   1.934   1.842
 8711TIP3   OH226073   1.098   3.483   1.379
 8711TIP3    H126074   1.193   3.472   1.368
 8711TIP3    H226075   1.061   3.445   1.299
 8712TIP3   OH226076   6.937   3.511   2.237
 8712TIP3    H126077   6.991   3.491   2.161
 8712TIP3    H226078   6.979   3.587   2.278
 8713TIP3   OH226079   6.487   3.678   3.628
 8713TIP3    H126080   6.395   3.701   3.634
 8713TIP3    H226081   6.529   3.725   3.701
 8714TIP3   OH226082   5.071   0.536   0.787
 8714TIP3    H126083   4.987   0.497   0.765
 8714TIP3    H226084   5.051   0.625   0.815
 8715TIP3   OH226085   7.355   2.602   0.206
 8715TIP3    H126086   7.261   2.603   0.189
 8715TIP3    H226087   7.363   2.623   0.299
 8716TIP3   OH226088   4.163   0.051   3.345
 8716TIP3    H126089   4.078   0.091   3.360
 8716TIP3    H226090   4.226   0.117   3.373
 8717TIP3   OH226091   7.587   3.790   6.318
 8717TIP3    H126092   7.542   3.763   6.238
 8717TIP3    H226093   7.575   3.885   6.321
 8718TIP3   OH226094   6.503   4.729   2.303
 8718TIP3    H126095   6.449   4.669   2.252
 8718TIP3    H226096   6.502   4.692   2.391
 8719TIP3   OH226097   6.199   1.589   0.565
 8719TIP3    H126098   6.270   1.530   0.590
 8719TIP3    H226099   6.161   1.551   0.486
 8720TIP3   OH226100   4.205   4.111   2.051
 8720TIP3    H126101   4.239   4.033   2.094
 8720TIP3    H226102   4.119   4.125   2.091
 8721TIP3   OH226103   7.907   4.565   5.727
 8721TIP3    H126104   7.828   4.526   5.764
 8721TIP3    H226105   7.906   4.655   5.759
 8722TIP3   OH226106   1.503   4.134   3.557
 8722TIP3    H126107   1.414   4.166   3.572
 8722TIP3    H226108   1.511   4.058   3.615
 8723TIP3   OH226109   3.904   7.805   0.358
 8723TIP3    H126110   3.970   7.835   0.420
 8723TIP3    H226111   3.951   7.789   0.277
 8724TIP3   OH226112   7.116   7.530   3.780
 8724TIP3    H126113   7.134   7.446   3.739
 8724TIP3    H226114   7.025   7.549   3.757
 8725TIP3   OH226115   4.289   1.405   0.766
 8725TIP3    H126116   4.230   1.331   0.781
 8725TIP3    H226117   4.300   1.445   0.852
 8726TIP3   OH226118   2.667   2.022   5.471
 8726TIP3    H126119   2.642   1.952   5.410
 8726TIP3    H226120   2.761   2.009   5.485
 8727TIP3   OH226121   4.173   3.805   0.872
 8727TIP3    H126122   4.222   3.727   0.845
 8727TIP3    H226123   4.182   3.865   0.799
 8728TIP3   OH226124   4.464   1.682   1.752
 8728TIP3    H126125   4.433   1.772   1.742
 8728TIP3    H226126   4.466   1.647   1.663
 8729TIP3   OH226127   5.165   0.880   3.588
 8729TIP3    H126128   5.204   0.795   3.571
 8729TIP3    H226129   5.213   0.913   3.665
 8730TIP3   OH226130   4.975   5.884   2.859
 8730TIP3    H126131   4.990   5.978   2.866
 8730TIP3    H226132   4.996   5.864   2.767
 8731TIP3   OH226133   5.940   6.323   5.109
 8731TIP3    H126134   5.917   6.240   5.151
 8731TIP3    H226135   5.858   6.371   5.103
 8732TIP3   OH226136   0.184   7.082   0.799
 8732TIP3    H126137   0.211   7.104   0.888
 8732TIP3    H226138   0.089   7.077   0.803
 8733TIP3   OH226139   1.402   4.993   0.096
 8733TIP3    H126140   1.487   4.949   0.099
 8733TIP3    H226141   1.407   5.059   0.165
 8734TIP3   OH226142   7.768   3.219   2.668
 8734TIP3    H126143   7.850   3.171   2.656
 8734TIP3    H226144   7.708   3.156   2.708
 8735TIP3   OH226145   7.682   5.038   5.064
 8735TIP3    H126146   7.720   5.062   4.980
 8735TIP3    H226147   7.748   5.064   5.128
 8736TIP3   OH226148   1.941   7.700   3.618
 8736TIP3    H126149   1.934   7.621   3.564
 8736TIP3    H226150   1.956   7.667   3.706
 8737TIP3   OH226151   2.272   5.311   4.692
 8737TIP3    H126152   2.260   5.256   4.769
 8737TIP3    H226153   2.184   5.338   4.667
 8738TIP3   OH226154   6.195   3.641   3.263
 8738TIP3    H126155   6.121   3.682   3.217
 8738TIP3    H226156   6.239   3.714   3.306
 8739TIP3   OH226157   3.437   2.703   1.673
 8739TIP3    H126158   3.436   2.624   1.620
 8739TIP3    H226159   3.529   2.730   1.675
 8740TIP3   OH226160   7.358   3.763   4.325
 8740TIP3    H126161   7.344   3.827   4.254
 8740TIP3    H226162   7.305   3.688   4.300
 8741TIP3   OH226163   6.298   3.064   0.890
 8741TIP3    H126164   6.239   3.134   0.861
 8741TIP3    H226165   6.311   3.081   0.984
 8742TIP3   OH226166   4.663   6.105   1.546
 8742TIP3    H126167   4.756   6.091   1.527
 8742TIP3    H226168   4.656   6.199   1.565
 8743TIP3   OH226169   6.423   1.617   3.796
 8743TIP3    H126170   6.332   1.624   3.768
 8743TIP3    H226171   6.424   1.649   3.886
 8744TIP3   OH226172   1.052   7.381   3.320
 8744TIP3    H126173   1.090   7.331   3.392
 8744TIP3    H226174   0.960   7.394   3.345
 8745TIP3   OH226175   8.213   6.355   6.312
 8745TIP3    H126176   8.209   6.449   6.330
 8745TIP3    H226177   8.122   6.330   6.294
 8746TIP3   OH226178   0.260   0.202   1.124
 8746TIP3    H126179   0.346   0.165   1.145
 8746TIP3    H226180   0.280   0.290   1.090
 8747TIP3   OH226181   2.953   5.008   3.714
 8747TIP3    H126182   3.049   5.015   3.720
 8747TIP3    H226183   2.938   4.915   3.695
 8748TIP3   OH226184   7.774   4.317   2.750
 8748TIP3    H126185   7.802   4.404   2.780
 8748TIP3    H226186   7.852   4.263   2.755
 8749TIP3   OH226187   7.734   7.289   0.473
 8749TIP3    H126188   7.676   7.249   0.539
 8749TIP3    H226189   7.818   7.297   0.518
 8750TIP3   OH226190   8.323   3.260   5.889
 8750TIP3    H126191   8.241   3.210   5.893
 8750TIP3    H226192   8.295   3.351   5.886
 8751TIP3   OH226193   3.971   0.369   2.986
 8751TIP3    H126194   3.962   0.413   3.071
 8751TIP3    H226195   4.035   0.299   3.002
 8752TIP3   OH226196   4.573   0.805   0.013
 8752TIP3    H126197   4.523   0.803   0.095
 8752TIP3    H226198   4.655   0.760   0.033
 8753TIP3   OH226199   7.819   6.515   6.192
 8753TIP3    H126200   7.832   6.476   6.106
 8753TIP3    H226201   7.899   6.565   6.208
 8754TIP3   OH226202   7.257   5.024   4.597
 8754TIP3    H126203   7.246   5.080   4.674
 8754TIP3    H226204   7.169   5.017   4.560
 8755TIP3   OH226205   4.946   7.215   2.220
 8755TIP3    H126206   4.946   7.133   2.270
 8755TIP3    H226207   4.928   7.283   2.286
 8756TIP3   OH226208   0.927   2.912   2.356
 8756TIP3    H126209   0.946   2.847   2.424
 8756TIP3    H226210   0.876   2.864   2.291
 8757TIP3   OH226211   6.589   6.058   2.111
 8757TIP3    H126212   6.676   6.096   2.104
 8757TIP3    H226213   6.553   6.062   2.023
 8758TIP3   OH226214   6.977   1.051   5.466
 8758TIP3    H126215   6.937   1.137   5.477
 8758TIP3    H226216   7.047   1.066   5.402
 8759TIP3   OH226217   7.499   2.809   2.505
 8759TIP3    H126218   7.535   2.872   2.569
 8759TIP3    H226219   7.573   2.754   2.482
 8760TIP3   OH226220   6.932   7.124   6.167
 8760TIP3    H126221   7.019   7.155   6.140
 8760TIP3    H226222   6.938   7.117   6.262
 8761TIP3   OH226223   3.443   2.091   4.597
 8761TIP3    H126224   3.411   2.150   4.666
 8761TIP3    H226225   3.366   2.074   4.543
 8762TIP3   OH226226   6.583   5.630   2.895
 8762TIP3    H126227   6.499   5.596   2.927
 8762TIP3    H226228   6.640   5.630   2.972
 8763TIP3   OH226229   5.206   1.565   4.806
 8763TIP3    H126230   5.182   1.594   4.718
 8763TIP3    H226231   5.202   1.469   4.802
 8764TIP3   OH226232   1.504   5.352   6.287
 8764TIP3    H126233   1.511   5.260   6.311
 8764TIP3    H226234   1.497   5.399   6.370
 8765TIP3   OH226235   7.337   0.275   6.043
 8765TIP3    H126236   7.428   0.288   6.071
 8765TIP3    H226237   7.286   0.331   6.102
 8766TIP3   OH226238   8.231   4.021   6.709
 8766TIP3    H126239   8.194   4.012   6.621
 8766TIP3    H226240   8.298   3.952   6.714
 8767TIP3   OH226241   2.356   0.811   3.306
 8767TIP3    H126242   2.285   0.783   3.249
 8767TIP3    H226243   2.424   0.842   3.247
 8768TIP3   OH226244   6.898   7.891   5.005
 8768TIP3    H126245   6.943   7.808   4.995
 8768TIP3    H226246   6.965   7.951   5.039
 8769TIP3   OH226247   8.247   4.732   0.308
 8769TIP3    H126248   8.317   4.783   0.348
 8769TIP3    H226249   8.274   4.641   0.318
 8770TIP3   OH226250   5.537   1.097   5.435
 8770TIP3    H126251   5.606   1.126   5.494
 8770TIP3    H226252   5.568   1.122   5.348
 8771TIP3   OH226253   7.620   6.364   5.559
 8771TIP3    H126254   7.538   6.352   5.607
 8771TIP3    H226255   7.676   6.412   5.619
 8772TIP3   OH226256   4.470   5.290   4.865
 8772TIP3    H126257   4.442   5.210   4.909
 8772TIP3    H226258   4.565   5.281   4.858
 8773TIP3   OH226259   1.464   7.432   3.474
 8773TIP3    H126260   1.461   7.519   3.437
 8773TIP3    H226261   1.431   7.443   3.564
 8774TIP3   OH226262   0.940   7.296   4.716
 8774TIP3    H126263   0.882   7.369   4.696
 8774TIP3    H226264   1.008   7.300   4.649
 8775TIP3   OH226265   8.213   0.964   6.607
 8775TIP3    H126266   8.149   0.985   6.538
 8775TIP3    H226267   8.262   1.045   6.619
 8776TIP3   OH226268   0.267   3.350   3.762
 8776TIP3    H126269   0.291   3.259   3.780
 8776TIP3    H226270   0.171   3.350   3.763
 8777TIP3   OH226271   2.949   2.736   2.381
 8777TIP3    H126272   2.899   2.810   2.347
 8777TIP3    H226273   2.889   2.661   2.373
 8778TIP3   OH226274   0.793   5.232   5.305
 8778TIP3    H126275   0.859   5.192   5.361
 8778TIP3    H226276   0.745   5.292   5.362
 8779TIP3   OH226277   0.975   1.627   6.020
 8779TIP3    H126278   1.047   1.619   5.958
 8779TIP3    H226279   0.977   1.719   6.047
 8780TIP3   OH226280   6.191   0.069   1.539
 8780TIP3    H126281   6.180   0.138   1.473
 8780TIP3    H226282   6.234   0.113   1.612
 8781TIP3   OH226283   4.406   0.492   2.925
 8781TIP3    H126284   4.437   0.472   2.836
 8781TIP3    H226285   4.352   0.570   2.914
 8782TIP3   OH226286   1.462   1.140   2.128
 8782TIP3    H126287   1.507   1.056   2.124
 8782TIP3    H226288   1.507   1.194   2.063
 8783TIP3   OH226289   4.838   4.962   4.278
 8783TIP3    H126290   4.925   4.955   4.318
 8783TIP3    H226291   4.796   4.878   4.296
 8784TIP3   OH226292   3.522   2.484   4.006
 8784TIP3    H126293   3.469   2.556   3.972
 8784TIP3    H226294   3.611   2.503   3.976
 8785TIP3   OH226295   0.919   0.721   6.418
 8785TIP3    H126296   0.995   0.769   6.452
 8785TIP3    H226297   0.897   0.767   6.337
 8786TIP3   OH226298   0.675   2.460   3.224
 8786TIP3    H126299   0.663   2.506   3.141
 8786TIP3    H226300   0.767   2.476   3.248
 8787TIP3   OH226301   2.116   6.365   5.349
 8787TIP3    H126302   2.146   6.409   5.270
 8787TIP3    H226303   2.041   6.416   5.378
 8788TIP3   OH226304   6.436   1.810   4.032
 8788TIP3    H126305   6.403   1.826   3.944
 8788TIP3    H226306   6.522   1.852   4.033
 8789TIP3   OH226307   2.567   7.409   1.256
 8789TIP3    H126308   2.575   7.500   1.227
 8789TIP3    H226309   2.654   7.388   1.292
 8790TIP3   OH226310   3.170   0.642   4.005
 8790TIP3    H126311   3.149   0.732   4.030
 8790TIP3    H226312   3.119   0.627   3.925
 8791TIP3   OH226313   7.536   1.859   4.913
 8791TIP3    H126314   7.575   1.946   4.927
 8791TIP3    H226315   7.598   1.798   4.952
 8792TIP3   OH226316   3.902   3.912   1.976
 8792TIP3    H126317   3.882   3.960   1.895
 8792TIP3    H226318   3.826   3.927   2.032
 8793TIP3   OH226319   3.230   6.763   1.678
 8793TIP3    H126320   3.207   6.855   1.681
 8793TIP3    H226321   3.270   6.750   1.592
 8794TIP3   OH226322   2.336   3.497   0.931
 8794TIP3    H126323   2.346   3.423   0.871
 8794TIP3    H226324   2.384   3.568   0.890
 8795TIP3   OH226325   4.372   4.638   0.030
 8795TIP3    H126326   4.401   4.602   0.113
 8795TIP3    H226327   4.344   4.562  -0.021
 8796TIP3   OH226328   3.560   1.147   5.551
 8796TIP3    H126329   3.491   1.205   5.584
 8796TIP3    H226330   3.635   1.165   5.608
 8797TIP3   OH226331   1.083   2.885   1.349
 8797TIP3    H126332   1.053   2.857   1.435
 8797TIP3    H226333   1.063   2.978   1.345
 8798TIP3   OH226334   2.878   6.924   4.108
 8798TIP3    H126335   2.901   6.835   4.132
 8798TIP3    H226336   2.920   6.979   4.174
 8799TIP3   OH226337   0.524   7.870   3.456
 8799TIP3    H126338   0.433   7.897   3.445
 8799TIP3    H226339   0.558   7.858   3.367
 8800TIP3   OH226340   1.890   6.778   4.298
 8800TIP3    H126341   1.937   6.729   4.366
 8800TIP3    H226342   1.891   6.869   4.329
 8801TIP3   OH226343   4.992   5.646   3.716
 8801TIP3    H126344   5.015   5.662   3.807
 8801TIP3    H226345   5.044   5.708   3.665
 8802TIP3   OH226346   1.692   7.452   6.591
 8802TIP3    H126347   1.637   7.386   6.550
 8802TIP3    H226348   1.778   7.440   6.551
 8803TIP3   OH226349   1.994   2.650   2.885
 8803TIP3    H126350   2.069   2.648   2.944
 8803TIP3    H226351   2.001   2.735   2.841
 8804TIP3   OH226352   3.607   1.619   4.908
 8804TIP3    H126353   3.586   1.574   4.827
 8804TIP3    H226354   3.683   1.673   4.887
 8805TIP3   OH226355   6.251   0.554   0.571
 8805TIP3    H126356   6.297   0.479   0.611
 8805TIP3    H226357   6.309   0.584   0.501
 8806TIP3   OH226358   2.413   5.205   5.739
 8806TIP3    H126359   2.374   5.148   5.672
 8806TIP3    H226360   2.507   5.186   5.734
 8807TIP3   OH226361   0.983   0.012   0.704
 8807TIP3    H126362   0.978   0.083   0.768
 8807TIP3    H226363   1.076   0.005   0.684
 8808TIP3   OH226364   2.281  -0.008   4.479
 8808TIP3    H126365   2.293   0.072   4.528
 8808TIP3    H226366   2.214  -0.057   4.528
 8809TIP3   OH226367   8.398   1.182   2.270
 8809TIP3    H126368   8.332   1.115   2.288
 8809TIP3    H226369   8.354   1.265   2.286
 8810TIP3   OH226370   6.116   4.084   5.989
 8810TIP3    H126371   6.051   4.149   6.018
 8810TIP3    H226372   6.063   4.011   5.957
 8811TIP3   OH226373   7.339   7.246   5.135
 8811TIP3    H126374   7.319   7.335   5.165
 8811TIP3    H226375   7.432   7.235   5.151
 8812TIP3   OH226376   5.188   7.344   0.725
 8812TIP3    H126377   5.272   7.352   0.771
 8812TIP3    H226378   5.132   7.297   0.786
 8813TIP3   OH226379   3.372   5.759   2.720
 8813TIP3    H126380   3.396   5.848   2.747
 8813TIP3    H226381   3.443   5.732   2.662
 8814TIP3   OH226382   7.881   4.575   2.859
 8814TIP3    H126383   7.902   4.553   2.950
 8814TIP3    H226384   7.920   4.661   2.846
 8815TIP3   OH226385   1.593   7.296   2.895
 8815TIP3    H126386   1.624   7.366   2.838
 8815TIP3    H226387   1.624   7.320   2.982
 8816TIP3   OH226388   2.129   3.295   0.109
 8816TIP3    H126389   2.065   3.271   0.177
 8816TIP3    H226390   2.202   3.235   0.124
 8817TIP3   OH226391   3.049   6.654   5.439
 8817TIP3    H126392   3.091   6.718   5.497
 8817TIP3    H226393   3.076   6.679   5.351
 8818TIP3   OH226394   1.872   7.733   5.138
 8818TIP3    H126395   1.902   7.702   5.224
 8818TIP3    H226396   1.795   7.680   5.119
 8819TIP3   OH226397   2.281   6.480   0.523
 8819TIP3    H126398   2.225   6.545   0.481
 8819TIP3    H226399   2.262   6.399   0.475
 8820TIP3   OH226400   4.487   4.850   3.606
 8820TIP3    H126401   4.469   4.756   3.612
 8820TIP3    H226402   4.400   4.890   3.597
 8821TIP3   OH226403   3.592   3.470   5.330
 8821TIP3    H126404   3.603   3.511   5.415
 8821TIP3    H226405   3.506   3.499   5.299
 8822TIP3   OH226406   6.785   2.328   1.718
 8822TIP3    H126407   6.710   2.360   1.768
 8822TIP3    H226408   6.861   2.369   1.761
 8823TIP3   OH226409   0.407   0.152   2.201
 8823TIP3    H126410   0.316   0.125   2.193
 8823TIP3    H226411   0.409   0.208   2.279
 8824TIP3   OH226412   0.382   2.958   5.124
 8824TIP3    H126413   0.376   2.989   5.214
 8824TIP3    H226414   0.309   2.897   5.114
 8825TIP3   OH226415   0.036   2.287   5.917
 8825TIP3    H126416   0.119   2.269   5.962
 8825TIP3    H226417  -0.007   2.202   5.909
 8826TIP3   OH226418   2.387   6.752   2.473
 8826TIP3    H126419   2.391   6.669   2.520
 8826TIP3    H226420   2.422   6.816   2.535
 8827TIP3   OH226421   5.558   3.201   6.319
 8827TIP3    H126422   5.642   3.160   6.295
 8827TIP3    H226423   5.499   3.127   6.333
 8828TIP3   OH226424   4.723   5.079   2.731
 8828TIP3    H126425   4.810   5.113   2.714
 8828TIP3    H226426   4.666   5.156   2.730
 8829TIP3   OH226427   0.386   2.149   4.571
 8829TIP3    H126428   0.326   2.078   4.546
 8829TIP3    H226429   0.411   2.189   4.488
 8830TIP3   OH226430   3.914   7.031   2.669
 8830TIP3    H126431   3.995   6.983   2.648
 8830TIP3    H226432   3.856   6.964   2.705
 8831TIP3   OH226433   7.891   3.008   4.790
 8831TIP3    H126434   7.961   2.948   4.764
 8831TIP3    H226435   7.811   2.968   4.754
 8832TIP3   OH226436   3.795   4.711   3.884
 8832TIP3    H126437   3.845   4.639   3.847
 8832TIP3    H226438   3.746   4.672   3.956
 8833TIP3   OH226439   8.267   3.712   4.506
 8833TIP3    H126440   8.214   3.709   4.586
 8833TIP3    H226441   8.297   3.622   4.495
 8834TIP3   OH226442   3.586   3.951   5.668
 8834TIP3    H126443   3.496   3.950   5.633
 8834TIP3    H226444   3.625   4.031   5.634
 8835TIP3   OH226445   3.338   5.858   0.886
 8835TIP3    H126446   3.256   5.849   0.837
 8835TIP3    H226447   3.315   5.911   0.962
 8836TIP3   OH226448   6.248   3.276   0.365
 8836TIP3    H126449   6.254   3.289   0.270
 8836TIP3    H226450   6.305   3.342   0.402
 8837TIP3   OH226451   7.490   2.264   2.769
 8837TIP3    H126452   7.406   2.227   2.742
 8837TIP3    H226453   7.534   2.193   2.814
 8838TIP3   OH226454   2.046   7.814   5.850
 8838TIP3    H126455   2.099   7.890   5.875
 8838TIP3    H226456   1.970   7.817   5.910
 8839TIP3   OH226457   4.056   1.569   5.743
 8839TIP3    H126458   4.002   1.589   5.820
 8839TIP3    H226459   4.097   1.652   5.720
 8840TIP3   OH226460   7.942   1.955   6.428
 8840TIP3    H126461   7.933   1.891   6.358
 8840TIP3    H226462   8.020   2.005   6.405
 8841TIP3   OH226463   2.783   7.165   1.126
 8841TIP3    H126464   2.761   7.237   1.067
 8841TIP3    H226465   2.701   7.117   1.137
 8842TIP3   OH226466   1.997   5.686   3.373
 8842TIP3    H126467   1.933   5.649   3.312
 8842TIP3    H226468   2.011   5.775   3.342
 8843TIP3   OH226469   7.921   4.317   6.483
 8843TIP3    H126470   7.834   4.296   6.516
 8843TIP3    H226471   7.931   4.411   6.501
 8844TIP3   OH226472   0.892   3.060   5.641
 8844TIP3    H126473   0.896   3.007   5.720
 8844TIP3    H226474   0.983   3.070   5.614
 8845TIP3   OH226475   5.132   7.341   1.160
 8845TIP3    H126476   5.158   7.304   1.244
 8845TIP3    H226477   5.044   7.375   1.175
 8846TIP3   OH226478   7.965   6.045   2.607
 8846TIP3    H126479   7.956   6.108   2.535
 8846TIP3    H226480   7.974   6.099   2.685
 8847TIP3   OH226481   4.318   1.013   4.120
 8847TIP3    H126482   4.307   1.107   4.134
 8847TIP3    H226483   4.272   0.973   4.194
 8848TIP3   OH226484   3.438   5.045   3.645
 8848TIP3    H126485   3.474   5.106   3.709
 8848TIP3    H226486   3.496   5.053   3.569
 8849TIP3   OH226487   1.084   7.933   3.092
 8849TIP3    H126488   1.085   7.842   3.121
 8849TIP3    H226489   1.005   7.970   3.130
 8850TIP3   OH226490   0.389   4.069   5.828
 8850TIP3    H126491   0.365   4.002   5.765
 8850TIP3    H226492   0.310   4.121   5.840
 8851TIP3   OH226493   6.021   4.256   0.524
 8851TIP3    H126494   6.058   4.337   0.559
 8851TIP3    H226495   5.930   4.257   0.554
 8852TIP3   OH226496   3.252   2.546   0.573
 8852TIP3    H126497   3.203   2.483   0.520
 8852TIP3    H226498   3.207   2.547   0.657
 8853TIP3   OH226499   0.369   0.802   6.616
 8853TIP3    H126500   0.299   0.828   6.556
 8853TIP3    H226501   0.323   0.774   6.695
 8854TIP3   OH226502   7.842   4.033   0.055
 8854TIP3    H126503   7.786   4.108   0.072
 8854TIP3    H226504   7.864   4.039  -0.038
 8855TIP3   OH226505   2.873   3.701   6.491
 8855TIP3    H126506   2.778   3.711   6.497
 8855TIP3    H226507   2.895   3.642   6.563
 8856TIP3   OH226508   8.014   6.916   1.352
 8856TIP3    H126509   7.995   6.932   1.444
 8856TIP3    H226510   8.110   6.919   1.346
 8857TIP3   OH226511   7.675   0.627   6.015
 8857TIP3    H126512   7.667   0.533   6.029
 8857TIP3    H226513   7.708   0.661   6.098
 8858TIP3   OH226514   5.953   5.893   2.437
 8858TIP3    H126515   5.945   5.945   2.517
 8858TIP3    H226516   6.024   5.831   2.455
 8859TIP3   OH226517   7.255   1.306   1.409
 8859TIP3    H126518   7.199   1.230   1.396
 8859TIP3    H226519   7.253   1.352   1.325
 8860TIP3   OH226520   6.002   5.888   1.436
 8860TIP3    H126521   6.046   5.893   1.352
 8860TIP3    H226522   5.984   5.980   1.459
 8861TIP3   OH226523   3.645   4.578   4.079
 8861TIP3    H126524   3.639   4.588   4.175
 8861TIP3    H226525   3.559   4.544   4.054
 8862TIP3   OH226526   4.782   3.699   1.665
 8862TIP3    H126527   4.699   3.730   1.629
 8862TIP3    H226528   4.808   3.768   1.727
 8863TIP3   OH226529   1.898   5.859   5.375
 8863TIP3    H126530   1.916   5.799   5.303
 8863TIP3    H226531   1.953   5.936   5.357
 8864TIP3   OH226532   3.745   0.802   5.113
 8864TIP3    H126533   3.821   0.858   5.131
 8864TIP3    H226534   3.769   0.753   5.035
 8865TIP3   OH226535   0.665   7.255   4.846
 8865TIP3    H126536   0.724   7.201   4.794
 8865TIP3    H226537   0.717   7.280   4.923
 8866TIP3   OH226538   0.824   2.346   5.259
 8866TIP3    H126539   0.741   2.389   5.238
 8866TIP3    H226540   0.812   2.313   5.348
 8867TIP3   OH226541   3.922   2.695   4.580
 8867TIP3    H126542   3.974   2.721   4.505
 8867TIP3    H226543   3.962   2.613   4.610
 8868TIP3   OH226544   7.488   3.246   5.698
 8868TIP3    H126545   7.457   3.156   5.702
 8868TIP3    H226546   7.563   3.249   5.758
 8869TIP3   OH226547   1.022   3.644   2.396
 8869TIP3    H126548   1.090   3.708   2.379
 8869TIP3    H226549   1.004   3.652   2.490
 8870TIP3   OH226550   7.235   0.497   6.783
 8870TIP3    H126551   7.262   0.469   6.870
 8870TIP3    H226552   7.249   0.592   6.782
 8871TIP3   OH226553   5.699   2.583   0.043
 8871TIP3    H126554   5.755   2.653   0.010
 8871TIP3    H226555   5.737   2.503   0.008
 8872TIP3   OH226556   1.477   6.223   5.034
 8872TIP3    H126557   1.482   6.206   5.128
 8872TIP3    H226558   1.543   6.290   5.018
 8873TIP3   OH226559   3.228   2.486   1.951
 8873TIP3    H126560   3.252   2.577   1.934
 8873TIP3    H226561   3.266   2.437   1.878
 8874TIP3   OH226562   6.901   2.413   0.102
 8874TIP3    H126563   6.831   2.366   0.056
 8874TIP3    H226564   6.955   2.450   0.033
 8875TIP3   OH226565   3.756   1.144   3.241
 8875TIP3    H126566   3.809   1.097   3.176
 8875TIP3    H226567   3.672   1.159   3.198
 8876TIP3   OH226568   7.799   1.723   3.218
 8876TIP3    H126569   7.735   1.732   3.148
 8876TIP3    H226570   7.809   1.628   3.229
 8877TIP3   OH226571   0.393   7.550   5.265
 8877TIP3    H126572   0.455   7.569   5.336
 8877TIP3    H226573   0.325   7.616   5.274
 8878TIP3   OH226574   0.070   3.207   4.042
 8878TIP3    H126575   0.033   3.261   3.972
 8878TIP3    H226576   0.124   3.267   4.094
 8879TIP3   OH226577   6.309   3.894   2.800
 8879TIP3    H126578   6.305   3.845   2.882
 8879TIP3    H226579   6.226   3.941   2.795
 8880TIP3   OH226580   4.060   7.489   4.079
 8880TIP3    H126581   4.136   7.509   4.025
 8880TIP3    H226582   4.023   7.409   4.041
 8881TIP3   OH226583   5.428   1.224   1.126
 8881TIP3    H126584   5.350   1.272   1.156
 8881TIP3    H226585   5.498   1.255   1.183
 8882TIP3   OH226586   0.231   2.475   4.139
 8882TIP3    H126587   0.322   2.496   4.120
 8882TIP3    H226588   0.186   2.559   4.143
 8883TIP3   OH226589   4.089   2.441   2.414
 8883TIP3    H126590   4.085   2.536   2.404
 8883TIP3    H226591   4.118   2.427   2.504
 8884TIP3   OH226592   2.760   3.665   4.914
 8884TIP3    H126593   2.842   3.712   4.896
 8884TIP3    H226594   2.787   3.588   4.964
 8885TIP3   OH226595   5.669   5.733   3.954
 8885TIP3    H126596   5.753   5.721   3.998
 8885TIP3    H226597   5.636   5.817   3.987
 8886TIP3   OH226598   0.406   2.699   4.094
 8886TIP3    H126599   0.468   2.772   4.091
 8886TIP3    H226600   0.407   2.670   4.185
 8887TIP3   OH226601   6.742   1.144   0.063
 8887TIP3    H126602   6.800   1.085   0.110
 8887TIP3    H226603   6.693   1.087   0.003
 8888TIP3   OH226604   3.610   7.496   0.761
 8888TIP3    H126605   3.547   7.549   0.713
 8888TIP3    H226606   3.587   7.509   0.853
 8889TIP3   OH226607   8.152   2.988   1.746
 8889TIP3    H126608   8.129   3.074   1.711
 8889TIP3    H226609   8.222   3.006   1.809
 8890TIP3   OH226610   6.599   5.570   0.727
 8890TIP3    H126611   6.570   5.659   0.744
 8890TIP3    H226612   6.520   5.516   0.735
 8891TIP3   OH226613   1.604  -0.006   2.993
 8891TIP3    H126614   1.538   0.059   3.015
 8891TIP3    H226615   1.674   0.044   2.951
 8892TIP3   OH226616   5.011   2.335   6.399
 8892TIP3    H126617   5.096   2.375   6.416
 8892TIP3    H226618   4.948   2.396   6.437
 8893TIP3   OH226619   4.211   1.419   2.553
 8893TIP3    H126620   4.168   1.467   2.623
 8893TIP3    H226621   4.141   1.366   2.514
 8894TIP3   OH226622   4.835   4.842   2.596
 8894TIP3    H126623   4.769   4.900   2.634
 8894TIP3    H226624   4.786   4.762   2.573
 8895TIP3   OH226625   5.822   1.200   1.178
 8895TIP3    H126626   5.848   1.258   1.106
 8895TIP3    H226627   5.760   1.251   1.229
 8896TIP3   OH226628   5.605   7.290   6.320
 8896TIP3    H126629   5.642   7.285   6.408
 8896TIP3    H226630   5.514   7.264   6.331
 8897TIP3   OH226631   1.324  -0.022   2.800
 8897TIP3    H126632   1.357   0.066   2.782
 8897TIP3    H226633   1.242  -0.008   2.846
 8898TIP3   OH226634   1.290   6.858   1.505
 8898TIP3    H126635   1.310   6.859   1.599
 8898TIP3    H226636   1.368   6.820   1.465
 8899TIP3   OH226637   0.694   4.067   5.284
 8899TIP3    H126638   0.614   4.041   5.330
 8899TIP3    H226639   0.725   4.144   5.331
 8900TIP3   OH226640   4.256   6.238   3.710
 8900TIP3    H126641   4.205   6.213   3.633
 8900TIP3    H226642   4.295   6.156   3.740
 8901TIP3   OH226643   5.394   4.367   5.993
 8901TIP3    H126644   5.364   4.384   6.082
 8901TIP3    H226645   5.349   4.433   5.940
 8902TIP3   OH226646   6.167   2.286   2.727
 8902TIP3    H126647   6.091   2.280   2.668
 8902TIP3    H226648   6.189   2.379   2.728
 8903TIP3   OH226649   6.315   0.049   6.828
 8903TIP3    H126650   6.303  -0.022   6.765
 8903TIP3    H226651   6.345   0.123   6.775
 8904TIP3   OH226652   3.063   1.470   2.248
 8904TIP3    H126653   3.032   1.401   2.190
 8904TIP3    H226654   2.997   1.474   2.318
 8905TIP3   OH226655   6.331   6.102   4.062
 8905TIP3    H126656   6.290   6.160   3.998
 8905TIP3    H226657   6.418   6.139   4.076
 8906TIP3   OH226658   6.270   5.738   5.876
 8906TIP3    H126659   6.320   5.816   5.900
 8906TIP3    H226660   6.304   5.714   5.789
 8907TIP3   OH226661   1.941   1.154   4.444
 8907TIP3    H126662   1.932   1.241   4.406
 8907TIP3    H226663   1.851   1.124   4.459
 8908TIP3   OH226664   0.256   0.165   4.790
 8908TIP3    H126665   0.207   0.135   4.713
 8908TIP3    H226666   0.338   0.117   4.787
 8909TIP3   OH226667   1.777   3.871   2.877
 8909TIP3    H126668   1.728   3.943   2.916
 8909TIP3    H226669   1.712   3.802   2.863
 8910TIP3   OH226670   5.305   0.997   6.529
 8910TIP3    H126671   5.358   1.063   6.574
 8910TIP3    H226672   5.217   1.036   6.526
 8911TIP3   OH226673   4.157   2.838   5.807
 8911TIP3    H126674   4.157   2.826   5.902
 8911TIP3    H226675   4.210   2.916   5.793
 8912TIP3   OH226676   2.423   6.205   0.896
 8912TIP3    H126677   2.466   6.231   0.977
 8912TIP3    H226678   2.409   6.286   0.848
 8913TIP3   OH226679   0.486   4.898   6.772
 8913TIP3    H126680   0.560   4.929   6.720
 8913TIP3    H226681   0.482   4.804   6.756
 8914TIP3   OH226682   0.632   2.462   6.357
 8914TIP3    H126683   0.664   2.510   6.433
 8914TIP3    H226684   0.641   2.524   6.284
 8915TIP3   OH226685   1.513   6.717   6.454
 8915TIP3    H126686   1.492   6.633   6.495
 8915TIP3    H226687   1.510   6.780   6.526
 8916TIP3   OH226688   1.961   2.321   4.264
 8916TIP3    H126689   1.911   2.347   4.187
 8916TIP3    H226690   2.052   2.342   4.243
 8917TIP3   OH226691   4.251   2.104   4.405
 8917TIP3    H126692   4.203   2.159   4.467
 8917TIP3    H226693   4.186   2.041   4.373
 8918TIP3   OH226694   6.370   6.347   2.239
 8918TIP3    H126695   6.397   6.266   2.281
 8918TIP3    H226696   6.304   6.320   2.175
 8919TIP3   OH226697   1.875   5.748   0.450
 8919TIP3    H126698   1.855   5.804   0.375
 8919TIP3    H226699   1.790   5.734   0.492
 8920TIP3   OH226700   7.661   1.399   6.558
 8920TIP3    H126701   7.672   1.453   6.637
 8920TIP3    H226702   7.613   1.322   6.588
 8921TIP3   OH226703   5.408   4.414   1.322
 8921TIP3    H126704   5.347   4.354   1.364
 8921TIP3    H226705   5.420   4.485   1.386
 8922TIP3   OH226706   5.164   5.399   5.333
 8922TIP3    H126707   5.129   5.486   5.313
 8922TIP3    H226708   5.232   5.416   5.399
 8923TIP3   OH226709   7.311   6.352   2.872
 8923TIP3    H126710   7.279   6.393   2.953
 8923TIP3    H226711   7.303   6.258   2.889
 8924TIP3   OH226712   5.294   3.440   1.460
 8924TIP3    H126713   5.247   3.523   1.466
 8924TIP3    H226714   5.382   3.460   1.493
 8925TIP3   OH226715   8.193   0.374   3.926
 8925TIP3    H126716   8.232   0.459   3.943
 8925TIP3    H226717   8.218   0.320   4.001
 8926TIP3   OH226718   1.993   5.853   1.557
 8926TIP3    H126719   2.051   5.905   1.613
 8926TIP3    H226720   2.010   5.886   1.468
 8927TIP3   OH226721   5.659   6.268   1.102
 8927TIP3    H126722   5.667   6.350   1.150
 8927TIP3    H226723   5.667   6.293   1.010
 8928TIP3   OH226724   7.093   2.581   2.578
 8928TIP3    H126725   7.016   2.578   2.635
 8928TIP3    H226726   7.167   2.568   2.638
 8929TIP3   OH226727   2.774   3.783   6.115
 8929TIP3    H126728   2.823   3.857   6.080
 8929TIP3    H226729   2.720   3.754   6.042
 8930TIP3   OH226730   1.209   4.859   5.858
 8930TIP3    H126731   1.142   4.819   5.804
 8930TIP3    H226732   1.291   4.818   5.829
 8931TIP3   OH226733   3.187   6.342   1.129
 8931TIP3    H126734   3.171   6.359   1.222
 8931TIP3    H226735   3.106   6.370   1.086
 8932TIP3   OH226736   5.840   7.768   5.376
 8932TIP3    H126737   5.780   7.830   5.333
 8932TIP3    H226738   5.878   7.819   5.448
 8933TIP3   OH226739   8.109   3.059   0.061
 8933TIP3    H126740   8.175   3.128   0.059
 8933TIP3    H226741   8.109   3.023  -0.028
 8934TIP3   OH226742   2.040   3.636   4.802
 8934TIP3    H126743   2.127   3.676   4.812
 8934TIP3    H226744   2.056   3.542   4.804
 8935TIP3   OH226745   1.653   1.568   2.746
 8935TIP3    H126746   1.712   1.586   2.673
 8935TIP3    H226747   1.573   1.616   2.725
 8936TIP3   OH226748   7.878   7.917   6.801
 8936TIP3    H126749   7.915   7.844   6.850
 8936TIP3    H226750   7.885   7.992   6.860
 8937TIP3   OH226751   5.648   0.703   3.145
 8937TIP3    H126752   5.671   0.620   3.186
 8937TIP3    H226753   5.635   0.682   3.053
 8938TIP3   OH226754   3.553   0.730   5.975
 8938TIP3    H126755   3.496   0.763   5.906
 8938TIP3    H226756   3.610   0.805   5.997
 8939TIP3   OH226757   0.992   2.650   4.933
 8939TIP3    H126758   0.927   2.599   4.980
 8939TIP3    H226759   1.027   2.710   4.998
 8940TIP3   OH226760   3.746   7.349   3.491
 8940TIP3    H126761   3.830   7.318   3.458
 8940TIP3    H226762   3.689   7.273   3.488
 8941TIP3   OH226763   8.313   4.923   6.750
 8941TIP3    H126764   8.281   5.010   6.727
 8941TIP3    H226765   8.327   4.879   6.666
 8942TIP3   OH226766   5.384   5.497   3.764
 8942TIP3    H126767   5.426   5.573   3.723
 8942TIP3    H226768   5.356   5.443   3.691
 8943TIP3   OH226769   5.863   0.732   1.141
 8943TIP3    H126770   5.801   0.799   1.111
 8943TIP3    H226771   5.923   0.721   1.068
 8944TIP3   OH226772   2.039   7.712   1.645
 8944TIP3    H126773   2.117   7.768   1.644
 8944TIP3    H226774   2.072   7.627   1.672
 8945TIP3   OH226775   7.754   4.310   4.479
 8945TIP3    H126776   7.768   4.336   4.570
 8945TIP3    H226777   7.692   4.374   4.445
 8946TIP3   OH226778   7.107   6.706   3.402
 8946TIP3    H126779   7.117   6.770   3.472
 8946TIP3    H226780   7.013   6.694   3.393
 8947TIP3   OH226781   2.312   4.564   6.706
 8947TIP3    H126782   2.297   4.490   6.766
 8947TIP3    H226783   2.384   4.534   6.650
 8948TIP3   OH226784   0.218   2.246   5.684
 8948TIP3    H126785   0.151   2.282   5.742
 8948TIP3    H226786   0.184   2.260   5.596
 8949TIP3   OH226787   3.893   1.437   2.489
 8949TIP3    H126788   3.914   1.469   2.577
 8949TIP3    H226789   3.839   1.359   2.505
 8950TIP3   OH226790   6.269   4.400   5.480
 8950TIP3    H126791   6.183   4.379   5.517
 8950TIP3    H226792   6.314   4.316   5.474
 8951TIP3   OH226793   4.006   0.709   3.642
 8951TIP3    H126794   3.932   0.725   3.584
 8951TIP3    H226795   3.986   0.759   3.721
 8952TIP3   OH226796   7.310   7.295   6.263
 8952TIP3    H126797   7.242   7.284   6.196
 8952TIP3    H226798   7.292   7.381   6.301
 8953TIP3   OH226799   5.045   6.070   2.145
 8953TIP3    H126800   5.104   6.131   2.188
 8953TIP3    H226801   5.100   6.020   2.084
 8954TIP3   OH226802   4.396   5.807   1.607
 8954TIP3    H126803   4.442   5.793   1.690
 8954TIP3    H226804   4.465   5.831   1.546
 8955TIP3   OH226805   6.850   7.525   0.116
 8955TIP3    H126806   6.784   7.524   0.185
 8955TIP3    H226807   6.805   7.561   0.040
 8956TIP3   OH226808   2.713   0.125   0.748
 8956TIP3    H126809   2.800   0.164   0.739
 8956TIP3    H226810   2.695   0.128   0.843
 8957TIP3   OH226811   2.482   4.956   6.592
 8957TIP3    H126812   2.416   5.021   6.617
 8957TIP3    H226813   2.551   5.008   6.549
 8958TIP3   OH226814   3.226   2.545   2.406
 8958TIP3    H126815   3.153   2.574   2.461
 8958TIP3    H226816   3.200   2.457   2.377
 8959TIP3   OH226817   6.602   1.695   0.721
 8959TIP3    H126818   6.567   1.745   0.647
 8959TIP3    H226819   6.564   1.738   0.798
 8960TIP3   OH226820   3.932   7.192   3.373
 8960TIP3    H126821   3.942   7.111   3.423
 8960TIP3    H226822   3.983   7.178   3.293
 8961TIP3   OH226823   8.406   5.913   4.235
 8961TIP3    H126824   8.466   5.931   4.162
 8961TIP3    H226825   8.460   5.922   4.313
 8962TIP3   OH226826   7.241   1.339   1.959
 8962TIP3    H126827   7.161   1.286   1.964
 8962TIP3    H226828   7.269   1.330   1.868
 8963TIP3   OH226829   6.317   7.419   3.345
 8963TIP3    H126830   6.238   7.419   3.290
 8963TIP3    H226831   6.367   7.344   3.315
 8964TIP3   OH226832   5.532   2.868   1.465
 8964TIP3    H126833   5.509   2.843   1.375
 8964TIP3    H226834   5.528   2.786   1.514
 8965TIP3   OH226835   7.034   1.880   6.642
 8965TIP3    H126836   7.032   1.973   6.665
 8965TIP3    H226837   6.952   1.846   6.676
 8966TIP3   OH226838   1.823   5.037   1.744
 8966TIP3    H126839   1.758   4.986   1.696
 8966TIP3    H226840   1.775   5.114   1.775
 8967TIP3   OH226841   7.381   3.804   6.538
 8967TIP3    H126842   7.414   3.744   6.471
 8967TIP3    H226843   7.301   3.841   6.499
 8968TIP3   OH226844   0.562   4.377   2.090
 8968TIP3    H126845   0.534   4.451   2.143
 8968TIP3    H226846   0.572   4.412   2.002
 8969TIP3   OH226847   2.110   2.163   1.223
 8969TIP3    H126848   2.158   2.208   1.293
 8969TIP3    H226849   2.138   2.207   1.143
 8970TIP3   OH226850   5.535   2.386   4.667
 8970TIP3    H126851   5.537   2.450   4.596
 8970TIP3    H226852   5.591   2.315   4.637
 8971TIP3   OH226853   6.199   1.912   1.247
 8971TIP3    H126854   6.214   1.818   1.234
 8971TIP3    H226855   6.285   1.952   1.237
 8972TIP3   OH226856   6.768   0.708   3.526
 8972TIP3    H126857   6.835   0.767   3.558
 8972TIP3    H226858   6.810   0.622   3.524
 8973TIP3   OH226859   1.701   3.500   4.157
 8973TIP3    H126860   1.679   3.527   4.068
 8973TIP3    H226861   1.646   3.555   4.213
 8974TIP3   OH226862   2.744   4.502   5.286
 8974TIP3    H126863   2.683   4.455   5.344
 8974TIP3    H226864   2.688   4.539   5.218
 8975TIP3   OH226865   4.522   4.470   6.669
 8975TIP3    H126866   4.476   4.514   6.741
 8975TIP3    H226867   4.509   4.527   6.593
 8976TIP3   OH226868   1.003   0.795   1.906
 8976TIP3    H126869   1.086   0.808   1.953
 8976TIP3    H226870   0.956   0.877   1.917
 8977TIP3   OH226871   7.550   7.440   4.235
 8977TIP3    H126872   7.610   7.513   4.252
 8977TIP3    H226873   7.474   7.480   4.194
 8978TIP3   OH226874   0.948   3.533   0.650
 8978TIP3    H126875   0.966   3.439   0.639
 8978TIP3    H226876   0.983   3.573   0.571
 8979TIP3   OH226877   5.522   5.139   3.702
 8979TIP3    H126878   5.464   5.210   3.674
 8979TIP3    H226879   5.500   5.126   3.794
 8980TIP3   OH226880   0.165   4.099   5.206
 8980TIP3    H126881   0.204   4.146   5.133
 8980TIP3    H226882   0.076   4.136   5.213
 8981TIP3   OH226883   1.470   1.669   1.701
 8981TIP3    H126884   1.382   1.671   1.740
 8981TIP3    H226885   1.529   1.678   1.776
 8982TIP3   OH226886   4.955   7.723   6.411
 8982TIP3    H126887   4.950   7.802   6.358
 8982TIP3    H226888   4.959   7.755   6.502
 8983TIP3   OH226889   7.599   5.680   1.763
 8983TIP3    H126890   7.587   5.594   1.803
 8983TIP3    H226891   7.648   5.663   1.683
 8984TIP3   OH226892   0.221   6.413   1.252
 8984TIP3    H126893   0.306   6.369   1.254
 8984TIP3    H226894   0.194   6.418   1.344
 8985TIP3   OH226895   7.789   6.647   5.101
 8985TIP3    H126896   7.708   6.691   5.127
 8985TIP3    H226897   7.763   6.593   5.026
 8986TIP3   OH226898   1.085   3.644   5.758
 8986TIP3    H126899   1.011   3.686   5.715
 8986TIP3    H226900   1.045   3.588   5.824
 8987TIP3   OH226901   5.988   0.073   3.205
 8987TIP3    H126902   6.069   0.073   3.256
 8987TIP3    H226903   5.919   0.067   3.271
 8988TIP3   OH226904   3.181   1.296   3.839
 8988TIP3    H126905   3.166   1.306   3.933
 8988TIP3    H226906   3.274   1.277   3.832
 8989TIP3   OH226907   2.941   1.643   5.140
 8989TIP3    H126908   3.034   1.623   5.131
 8989TIP3    H226909   2.903   1.563   5.179
 8990TIP3   OH226910   4.843   3.385   6.303
 8990TIP3    H126911   4.835   3.337   6.221
 8990TIP3    H226912   4.819   3.322   6.371
 8991TIP3   OH226913   1.624   3.201   4.846
 8991TIP3    H126914   1.617   3.161   4.759
 8991TIP3    H226915   1.599   3.131   4.907
 8992TIP3   OH226916   6.200   0.318   5.377
 8992TIP3    H126917   6.290   0.317   5.344
 8992TIP3    H226918   6.156   0.247   5.331
 8993TIP3   OH226919   5.810   2.584   1.501
 8993TIP3    H126920   5.796   2.640   1.577
 8993TIP3    H226921   5.886   2.531   1.524
 8994TIP3   OH226922   7.358   1.874   3.628
 8994TIP3    H126923   7.353   1.875   3.723
 8994TIP3    H226924   7.332   1.786   3.603
 8995TIP3   OH226925   7.103   7.635   0.094
 8995TIP3    H126926   7.022   7.607   0.137
 8995TIP3    H226927   7.173   7.598   0.148
 8996TIP3   OH226928   5.802   7.806   3.449
 8996TIP3    H126929   5.774   7.781   3.537
 8996TIP3    H226930   5.721   7.808   3.398
 8997TIP3   OH226931   6.672   3.382   5.502
 8997TIP3    H126932   6.605   3.385   5.433
 8997TIP3    H226933   6.712   3.296   5.492
 8998TIP3   OH226934   1.219   3.639   0.437
 8998TIP3    H126935   1.259   3.725   0.424
 8998TIP3    H226936   1.234   3.620   0.530
 8999TIP3   OH226937   2.452   4.836   5.733
 8999TIP3    H126938   2.396   4.774   5.780
 8999TIP3    H226939   2.392   4.890   5.682
 9000TIP3   OH226940   4.481   5.236   1.949
 9000TIP3    H126941   4.466   5.143   1.970
 9000TIP3    H226942   4.424   5.253   1.874
 9001TIP3   OH226943   4.507   7.116   6.025
 9001TIP3    H126944   4.582   7.105   6.083
 9001TIP3    H226945   4.482   7.208   6.034
 9002TIP3   OH226946   1.707   5.949   0.786
 9002TIP3    H126947   1.689   6.008   0.712
 9002TIP3    H226948   1.790   5.907   0.763
 9003TIP3   OH226949   1.579   1.173   4.164
 9003TIP3    H126950   1.487   1.157   4.142
 9003TIP3    H226951   1.606   1.241   4.102
 9004TIP3   OH226952   6.663   2.761   6.424
 9004TIP3    H126953   6.575   2.770   6.460
 9004TIP3    H226954   6.721   2.770   6.500
 9005TIP3   OH226955   7.563   1.673   5.650
 9005TIP3    H126956   7.533   1.642   5.736
 9005TIP3    H226957   7.629   1.740   5.670
 9006TIP3   OH226958   4.277   6.691   2.048
 9006TIP3    H126959   4.326   6.643   2.114
 9006TIP3    H226960   4.333   6.765   2.025
 9007TIP3   OH226961   4.572   5.883   1.378
 9007TIP3    H126962   4.639   5.870   1.312
 9007TIP3    H226963   4.590   5.970   1.414
 9008TIP3   OH226964   4.555   5.287   2.707
 9008TIP3    H126965   4.529   5.217   2.768
 9008TIP3    H226966   4.479   5.345   2.704
 9009TIP3   OH226967   4.070   7.014   0.631
 9009TIP3    H126968   4.149   6.976   0.670
 9009TIP3    H226969   3.998   6.975   0.680
 9010TIP3   OH226970   0.669   7.795   5.242
 9010TIP3    H126971   0.596   7.799   5.180
 9010TIP3    H226972   0.660   7.709   5.284
 9011TIP3   OH226973   6.548   2.387   3.301
 9011TIP3    H126974   6.466   2.352   3.334
 9011TIP3    H226975   6.613   2.363   3.367
 9012TIP3   OH226976   8.127   6.567   5.882
 9012TIP3    H126977   8.146   6.622   5.958
 9012TIP3    H226978   8.116   6.479   5.919
 9013TIP3   OH226979   1.056   5.791   1.122
 9013TIP3    H126980   0.990   5.759   1.182
 9013TIP3    H226981   1.130   5.814   1.177
 9014TIP3   OH226982   1.352   3.584   5.012
 9014TIP3    H126983   1.279   3.522   5.018
 9014TIP3    H226984   1.326   3.658   5.066
 9015TIP3   OH226985   4.072   3.329   2.958
 9015TIP3    H126986   4.047   3.395   3.023
 9015TIP3    H226987   3.988   3.293   2.928
 9016TIP3   OH226988   1.459   6.316   0.104
 9016TIP3    H126989   1.388   6.358   0.055
 9016TIP3    H226990   1.452   6.223   0.083
 9017TIP3   OH226991   6.887   4.503   1.691
 9017TIP3    H126992   6.912   4.571   1.628
 9017TIP3    H226993   6.796   4.523   1.712
 9018TIP3   OH226994   4.407   3.077   0.882
 9018TIP3    H126995   4.440   3.008   0.939
 9018TIP3    H226996   4.314   3.082   0.901
 9019TIP3   OH226997   0.166   6.854   3.489
 9019TIP3    H126998   0.203   6.874   3.574
 9019TIP3    H226999   0.079   6.893   3.490
 9020TIP3   OH227000   4.173   0.973   2.581
 9020TIP3    H127001   4.107   0.918   2.541
 9020TIP3    H227002   4.188   1.043   2.518
 9021TIP3   OH227003   2.503   3.635   2.619
 9021TIP3    H127004   2.445   3.710   2.603
 9021TIP3    H227005   2.458   3.560   2.580
 9022TIP3   OH227006   5.764   0.070   6.823
 9022TIP3    H127007   5.817   0.049   6.746
 9022TIP3    H227008   5.687   0.015   6.814
 9023TIP3   OH227009   2.782   0.537   5.225
 9023TIP3    H127010   2.730   0.478   5.280
 9023TIP3    H227011   2.861   0.554   5.275
 9024TIP3   OH227012   4.157   2.442   0.493
 9024TIP3    H127013   4.126   2.514   0.439
 9024TIP3    H227014   4.100   2.443   0.570
 9025TIP3   OH227015   2.278   7.865   1.622
 9025TIP3    H127016   2.302   7.831   1.707
 9025TIP3    H227017   2.240   7.951   1.640
 9026TIP3   OH227018   7.696   6.513   4.882
 9026TIP3    H127019   7.709   6.590   4.826
 9026TIP3    H227020   7.644   6.453   4.829
 9027TIP3   OH227021   5.685   2.567   3.292
 9027TIP3    H127022   5.647   2.652   3.315
 9027TIP3    H227023   5.611   2.515   3.262
 9028TIP3   OH227024   0.833   5.878   6.512
 9028TIP3    H127025   0.879   5.960   6.534
 9028TIP3    H227026   0.902   5.812   6.512
 9029TIP3   OH227027   8.216   2.603   4.990
 9029TIP3    H127028   8.129   2.608   4.952
 9029TIP3    H227029   8.267   2.553   4.927
 9030TIP3   OH227030   6.756   4.678   5.695
 9030TIP3    H127031   6.799   4.656   5.778
 9030TIP3    H227032   6.674   4.629   5.697
 9031TIP3   OH227033   0.062   0.226   1.472
 9031TIP3    H127034   0.105   0.170   1.408
 9031TIP3    H227035   0.093   0.314   1.451
 9032TIP3   OH227036   3.650   7.223   0.776
 9032TIP3    H127037   3.715   7.200   0.843
 9032TIP3    H227038   3.650   7.319   0.776
 9033TIP3   OH227039   7.050   3.124   3.651
 9033TIP3    H127040   7.051   3.038   3.693
 9033TIP3    H227041   6.971   3.166   3.683
 9034TIP3   OH227042   2.705   1.792   1.290
 9034TIP3    H127043   2.624   1.813   1.244
 9034TIP3    H227044   2.772   1.845   1.247
 9035TIP3   OH227045   6.912   1.972   1.372
 9035TIP3    H127046   6.857   2.029   1.426
 9035TIP3    H227047   6.856   1.896   1.354
 9036TIP3   OH227048   3.738   7.114   3.170
 9036TIP3    H127049   3.726   7.142   3.261
 9036TIP3    H227050   3.826   7.144   3.147
 9037TIP3   OH227051   0.977   1.320   2.197
 9037TIP3    H127052   1.057   1.289   2.153
 9037TIP3    H227053   0.967   1.262   2.272
 9038TIP3   OH227054   2.619   1.565   2.371
 9038TIP3    H127055   2.683   1.623   2.329
 9038TIP3    H227056   2.557   1.625   2.413
 9039TIP3   OH227057   4.275   7.432   5.815
 9039TIP3    H127058   4.305   7.521   5.798
 9039TIP3    H227059   4.263   7.394   5.729
 9040TIP3   OH227060   4.012   7.941   6.558
 9040TIP3    H127061   4.086   7.891   6.595
 9040TIP3    H227062   3.943   7.877   6.547
 9041TIP3   OH227063   3.782   5.727   4.717
 9041TIP3    H127064   3.802   5.717   4.624
 9041TIP3    H227065   3.686   5.725   4.721
 9042TIP3   OH227066   1.739   2.350   3.413
 9042TIP3    H127067   1.734   2.379   3.504
 9042TIP3    H227068   1.804   2.280   3.414
 9043TIP3   OH227069   5.032   3.784   6.304
 9043TIP3    H127070   5.045   3.734   6.384
 9043TIP3    H227071   4.951   3.750   6.267
 9044TIP3   OH227072   8.246   1.039   3.524
 9044TIP3    H127073   8.207   1.025   3.438
 9044TIP3    H227074   8.329   1.083   3.507
 9045TIP3   OH227075   7.685   5.800   3.121
 9045TIP3    H127076   7.709   5.853   3.045
 9045TIP3    H227077   7.766   5.754   3.144
 9046TIP3   OH227078   8.144   1.172   0.746
 9046TIP3    H127079   8.163   1.192   0.838
 9046TIP3    H227080   8.057   1.210   0.731
 9047TIP3   OH227081   2.073   3.135   5.894
 9047TIP3    H127082   2.111   3.210   5.847
 9047TIP3    H227083   2.083   3.156   5.987
 9048TIP3   OH227084   3.636   7.030   3.777
 9048TIP3    H127085   3.621   7.122   3.797
 9048TIP3    H227086   3.708   7.004   3.834
 9049TIP3   OH227087   4.678   4.587   6.101
 9049TIP3    H127088   4.600   4.556   6.148
 9049TIP3    H227089   4.683   4.680   6.122
 9050TIP3   OH227090   4.749   5.378   3.094
 9050TIP3    H127091   4.686   5.447   3.115
 9050TIP3    H227092   4.696   5.299   3.086
 9051TIP3   OH227093   5.375   3.786   1.425
 9051TIP3    H127094   5.290   3.758   1.391
 9051TIP3    H227095   5.439   3.739   1.371
 9052TIP3   OH227096   0.757   6.584   6.484
 9052TIP3    H127097   0.742   6.538   6.402
 9052TIP3    H227098   0.765   6.676   6.459
 9053TIP3   OH227099   2.666   7.215   5.739
 9053TIP3    H127100   2.636   7.142   5.794
 9053TIP3    H227101   2.588   7.268   5.725
 9054TIP3   OH227102   4.719   1.405   1.779
 9054TIP3    H127103   4.794   1.439   1.827
 9054TIP3    H227104   4.651   1.393   1.846
 9055TIP3   OH227105   7.984   6.730   6.781
 9055TIP3    H127106   7.925   6.765   6.848
 9055TIP3    H227107   7.995   6.638   6.804
 9056TIP3   OH227108   6.458   3.598   3.089
 9056TIP3    H127109   6.483   3.506   3.090
 9056TIP3    H227110   6.392   3.606   3.158
 9057TIP3   OH227111   4.480   7.408   2.392
 9057TIP3    H127112   4.447   7.469   2.458
 9057TIP3    H227113   4.574   7.404   2.408
 9058TIP3   OH227114   4.101   4.079   2.393
 9058TIP3    H127115   4.040   4.109   2.461
 9058TIP3    H227116   4.187   4.105   2.425
 9059TIP3   OH227117   5.392   6.467   6.148
 9059TIP3    H127118   5.479   6.481   6.187
 9059TIP3    H227119   5.393   6.375   6.121
 9060TIP3   OH227120   1.105   0.612   5.453
 9060TIP3    H127121   1.045   0.540   5.471
 9060TIP3    H227122   1.179   0.597   5.513
 9061TIP3   OH227123   7.056   5.387   4.396
 9061TIP3    H127124   7.004   5.334   4.457
 9061TIP3    H227125   7.133   5.413   4.446
 9062TIP3   OH227126   0.554   2.546   4.597
 9062TIP3    H127127   0.556   2.615   4.663
 9062TIP3    H227128   0.537   2.592   4.515
 9063TIP3   OH227129   7.646   4.192   1.877
 9063TIP3    H127130   7.663   4.270   1.825
 9063TIP3    H227131   7.707   4.126   1.843
 9064TIP3   OH227132   7.596   5.723   2.465
 9064TIP3    H127133   7.596   5.710   2.560
 9064TIP3    H227134   7.673   5.778   2.449
 9065TIP3   OH227135   6.941   4.631   0.823
 9065TIP3    H127136   7.008   4.563   0.822
 9065TIP3    H227137   6.869   4.592   0.873
 9066TIP3   OH227138   3.944   5.306   6.027
 9066TIP3    H127139   3.935   5.395   6.062
 9066TIP3    H227140   3.913   5.312   5.937
 9067TIP3   OH227141   6.183   5.586   2.067
 9067TIP3    H127142   6.226   5.650   2.123
 9067TIP3    H227143   6.195   5.620   1.978
 9068TIP3   OH227144   4.615   6.730   4.311
 9068TIP3    H127145   4.554   6.773   4.370
 9068TIP3    H227146   4.700   6.739   4.354
 9069TIP3   OH227147   5.404   5.044   6.781
 9069TIP3    H127148   5.442   4.963   6.813
 9069TIP3    H227149   5.476   5.090   6.738
 9070TIP3   OH227150   1.450   1.058   1.104
 9070TIP3    H127151   1.409   1.133   1.147
 9070TIP3    H227152   1.543   1.079   1.104
 9071TIP3   OH227153   3.203   7.466   3.697
 9071TIP3    H127154   3.180   7.532   3.632
 9071TIP3    H227155   3.291   7.436   3.672
 9072TIP3   OH227156   5.197   0.596   1.923
 9072TIP3    H127157   5.170   0.657   1.854
 9072TIP3    H227158   5.211   0.652   1.999
 9073TIP3   OH227159   2.779   2.476   6.095
 9073TIP3    H127160   2.709   2.540   6.102
 9073TIP3    H227161   2.835   2.508   6.024
 9074TIP3   OH227162   5.532   2.788   3.325
 9074TIP3    H127163   5.480   2.774   3.404
 9074TIP3    H227164   5.566   2.877   3.333
 9075TIP3   OH227165   3.368   5.252   1.015
 9075TIP3    H127166   3.345   5.304   1.092
 9075TIP3    H227167   3.324   5.168   1.029
 9076TIP3   OH227168   7.620   0.974   6.460
 9076TIP3    H127169   7.537   1.023   6.463
 9076TIP3    H227170   7.613   0.912   6.533
 9077TIP3   OH227171   1.222   1.924   6.710
 9077TIP3    H127172   1.276   1.855   6.673
 9077TIP3    H227173   1.153   1.937   6.645
 9078TIP3   OH227174   7.422   3.158   6.685
 9078TIP3    H127175   7.334   3.178   6.654
 9078TIP3    H227176   7.427   3.199   6.772
 9079TIP3   OH227177   2.044   2.595   2.206
 9079TIP3    H127178   2.076   2.663   2.264
 9079TIP3    H227179   2.067   2.626   2.118
 9080TIP3   OH227180   7.533   7.480   6.821
 9080TIP3    H127181   7.514   7.426   6.898
 9080TIP3    H227182   7.450   7.522   6.799
 9081TIP3   OH227183   7.665   3.878   3.309
 9081TIP3    H127184   7.724   3.825   3.256
 9081TIP3    H227185   7.585   3.826   3.316
 9082TIP3   OH227186   2.132   6.716   0.470
 9082TIP3    H127187   2.195   6.787   0.459
 9082TIP3    H227188   2.068   6.728   0.400
 9083TIP3   OH227189   2.661   5.138   3.877
 9083TIP3    H127190   2.740   5.168   3.921
 9083TIP3    H227191   2.687   5.057   3.834
 9084TIP3   OH227192   5.844   6.611   0.946
 9084TIP3    H127193   5.822   6.521   0.924
 9084TIP3    H227194   5.879   6.649   0.866
 9085TIP3   OH227195   7.812   6.681   5.395
 9085TIP3    H127196   7.904   6.692   5.372
 9085TIP3    H227197   7.781   6.611   5.338
 9086TIP3   OH227198   2.813   0.472   6.538
 9086TIP3    H127199   2.774   0.481   6.451
 9086TIP3    H227200   2.787   0.551   6.585
 9087TIP3   OH227201   0.551   5.743   5.476
 9087TIP3    H127202   0.538   5.739   5.571
 9087TIP3    H227203   0.473   5.700   5.440
 9088TIP3   OH227204   0.674   6.914   1.259
 9088TIP3    H127205   0.739   6.843   1.257
 9088TIP3    H227206   0.649   6.920   1.351
 9089TIP3   OH227207   6.628   5.815   6.789
 9089TIP3    H127208   6.608   5.821   6.883
 9089TIP3    H227209   6.547   5.841   6.746
 9090TIP3   OH227210   4.762   5.070   5.539
 9090TIP3    H127211   4.748   5.150   5.487
 9090TIP3    H227212   4.678   5.025   5.536
 9091TIP3   OH227213   1.115   6.151   2.693
 9091TIP3    H127214   1.210   6.159   2.704
 9091TIP3    H227215   1.081   6.237   2.716
 9092TIP3   OH227216   2.073   0.984   2.978
 9092TIP3    H127217   2.006   0.964   2.913
 9092TIP3    H227218   2.137   1.038   2.933
 9093TIP3   OH227219   7.290   7.605   6.796
 9093TIP3    H127220   7.216   7.611   6.735
 9093TIP3    H227221   7.322   7.695   6.803
 9094TIP3   OH227222   6.506   7.667   3.277
 9094TIP3    H127223   6.422   7.621   3.287
 9094TIP3    H227224   6.484   7.748   3.232
 9095TIP3   OH227225   2.723   7.924   3.499
 9095TIP3    H127226   2.705   8.009   3.539
 9095TIP3    H227227   2.636   7.891   3.475
 9096TIP3   OH227228   4.190   4.441   0.397
 9096TIP3    H127229   4.132   4.371   0.369
 9096TIP3    H227230   4.171   4.453   0.490
 9097TIP3   OH227231   4.916   4.343   3.950
 9097TIP3    H127232   5.000   4.302   3.969
 9097TIP3    H227233   4.936   4.437   3.950
 9098TIP3   OH227234   6.312   3.881   1.799
 9098TIP3    H127235   6.404   3.881   1.773
 9098TIP3    H227236   6.264   3.906   1.719
 9099TIP3   OH227237   2.485   6.769   3.092
 9099TIP3    H127238   2.522   6.692   3.049
 9099TIP3    H227239   2.555   6.834   3.088
 9100TIP3   OH227240   8.284   0.257   4.174
 9100TIP3    H127241   8.256   0.180   4.225
 9100TIP3    H227242   8.325   0.315   4.238
 9101TIP3   OH227243   2.395   5.481   5.002
 9101TIP3    H127244   2.396   5.550   5.067
 9101TIP3    H227245   2.435   5.520   4.924
 9102TIP3   OH227246   1.494   4.771   1.082
 9102TIP3    H127247   1.557   4.842   1.089
 9102TIP3    H227248   1.424   4.794   1.143
 9103TIP3   OH227249   6.097   3.652   1.646
 9103TIP3    H127250   6.177   3.608   1.674
 9103TIP3    H227251   6.126   3.739   1.617
 9104TIP3   OH227252   6.481   7.800   2.105
 9104TIP3    H127253   6.423   7.875   2.094
 9104TIP3    H227254   6.521   7.813   2.191
 9105TIP3   OH227255   3.439   3.254   5.919
 9105TIP3    H127256   3.346   3.253   5.942
 9105TIP3    H227257   3.453   3.172   5.871
 9106TIP3   OH227258   1.055   5.048   1.317
 9106TIP3    H127259   1.060   5.102   1.396
 9106TIP3    H227260   0.984   5.087   1.265
 9107TIP3   OH227261   1.507   3.865   3.674
 9107TIP3    H127262   1.565   3.846   3.748
 9107TIP3    H227263   1.491   3.779   3.633
 9108TIP3   OH227264   7.913   7.592   6.170
 9108TIP3    H127265   7.874   7.612   6.085
 9108TIP3    H227266   7.960   7.672   6.195
 9109TIP3   OH227267   0.612   1.696   1.506
 9109TIP3    H127268   0.706   1.706   1.525
 9109TIP3    H227269   0.569   1.713   1.590
 9110TIP3   OH227270   7.814   0.024   2.488
 9110TIP3    H127271   7.785  -0.060   2.452
 9110TIP3    H227272   7.784   0.023   2.578
 9111TIP3   OH227273   0.730   4.161   0.417
 9111TIP3    H127274   0.659   4.099   0.402
 9111TIP3    H227275   0.709   4.201   0.502
 9112TIP3   OH227276   0.300   7.014   5.588
 9112TIP3    H127277   0.293   7.080   5.519
 9112TIP3    H227278   0.293   6.930   5.542
 9113TIP3   OH227279   1.132   7.577   1.023
 9113TIP3    H127280   1.183   7.560   0.944
 9113TIP3    H227281   1.183   7.642   1.072
 9114TIP3   OH227282   4.881   3.069   5.588
 9114TIP3    H127283   4.875   3.163   5.574
 9114TIP3    H227284   4.974   3.053   5.601
 9115TIP3   OH227285   1.746   1.597   0.120
 9115TIP3    H127286   1.752   1.664   0.188
 9115TIP3    H227287   1.690   1.529   0.158
 9116TIP3   OH227288   4.102   3.292   0.465
 9116TIP3    H127289   4.037   3.295   0.394
 9116TIP3    H227290   4.051   3.306   0.544
 9117TIP3   OH227291   1.189   0.811   3.405
 9117TIP3    H127292   1.214   0.829   3.495
 9117TIP3    H227293   1.208   0.719   3.392
 9118TIP3   OH227294   6.857   3.589   5.556
 9118TIP3    H127295   6.777   3.536   5.548
 9118TIP3    H227296   6.914   3.538   5.613
 9119TIP3   OH227297   0.855   5.662   3.592
 9119TIP3    H127298   0.814   5.575   3.590
 9119TIP3    H227299   0.786   5.721   3.562
 9120TIP3   OH227300   3.041   2.719   2.668
 9120TIP3    H127301   2.983   2.643   2.676
 9120TIP3    H227302   3.016   2.759   2.585
 9121TIP3   OH227303   6.905   0.646   4.297
 9121TIP3    H127304   6.852   0.589   4.353
 9121TIP3    H227305   6.995   0.620   4.315
 9122TIP3   OH227306   8.342   6.120   6.373
 9122TIP3    H127307   8.422   6.149   6.416
 9122TIP3    H227308   8.294   6.201   6.354
 9123TIP3   OH227309   4.004   4.852   4.034
 9123TIP3    H127310   3.994   4.940   3.997
 9123TIP3    H227311   3.945   4.798   3.982
 9124TIP3   OH227312   6.107   1.405   0.336
 9124TIP3    H127313   6.033   1.432   0.281
 9124TIP3    H227314   6.175   1.378   0.274
 9125TIP3   OH227315   4.168   3.890   1.613
 9125TIP3    H127316   4.205   3.889   1.525
 9125TIP3    H227317   4.151   3.798   1.633
 9126TIP3   OH227318   6.408   3.197   5.513
 9126TIP3    H127319   6.328   3.215   5.562
 9126TIP3    H227320   6.470   3.166   5.580
 9127TIP3   OH227321   4.428   2.822   2.305
 9127TIP3    H127322   4.491   2.893   2.320
 9127TIP3    H227323   4.342   2.865   2.305
 9128TIP3   OH227324   7.897   6.004   0.272
 9128TIP3    H127325   7.891   5.995   0.177
 9128TIP3    H227326   7.971   6.063   0.285
 9129TIP3   OH227327   1.604   2.700   0.175
 9129TIP3    H127328   1.616   2.783   0.131
 9129TIP3    H227329   1.667   2.641   0.133
 9130TIP3   OH227330   2.138   3.780   2.365
 9130TIP3    H127331   2.061   3.791   2.421
 9130TIP3    H227332   2.104   3.789   2.275
 9131TIP3   OH227333   1.775   6.536   3.692
 9131TIP3    H127334   1.736   6.587   3.762
 9131TIP3    H227335   1.714   6.464   3.677
 9132TIP3   OH227336   1.819   4.795   3.890
 9132TIP3    H127337   1.766   4.735   3.837
 9132TIP3    H227338   1.766   4.810   3.969
 9133TIP3   OH227339   0.633   6.158   1.124
 9133TIP3    H127340   0.638   6.170   1.218
 9133TIP3    H227341   0.714   6.195   1.090
 9134TIP3   OH227342   5.972   4.514   6.761
 9134TIP3    H127343   6.037   4.553   6.820
 9134TIP3    H227344   5.898   4.493   6.818
 9135TIP3   OH227345   4.391   4.089   2.524
 9135TIP3    H127346   4.431   4.146   2.590
 9135TIP3    H227347   4.422   4.001   2.546
 9136TIP3   OH227348   7.844   0.037   0.773
 9136TIP3    H127349   7.810   0.118   0.810
 9136TIP3    H227350   7.939   0.049   0.772
 9137TIP3   OH227351   2.017   7.467   3.351
 9137TIP3    H127352   2.078   7.393   3.353
 9137TIP3    H227353   1.964   7.457   3.430
 9138TIP3   OH227354   3.238   0.078   5.314
 9138TIP3    H127355   3.296   0.101   5.242
 9138TIP3    H227356   3.294   0.077   5.392
 9139TIP3   OH227357   4.070   3.186   6.658
 9139TIP3    H127358   4.006   3.220   6.596
 9139TIP3    H227359   4.154   3.221   6.626
 9140TIP3   OH227360   0.256   4.666   5.987
 9140TIP3    H127361   0.328   4.708   5.939
 9140TIP3    H227362   0.197   4.634   5.919
 9141TIP3   OH227363   7.177   4.056   3.976
 9141TIP3    H127364   7.097   4.006   3.995
 9141TIP3    H227365   7.207   4.086   4.062
 9142TIP3   OH227366   0.185   0.385   0.247
 9142TIP3    H127367   0.167   0.343   0.330
 9142TIP3    H227368   0.260   0.337   0.211
 9143TIP3   OH227369   6.285   6.199   2.578
 9143TIP3    H127370   6.214   6.225   2.520
 9143TIP3    H227371   6.346   6.151   2.522
 9144TIP3   OH227372   2.093   2.048   6.121
 9144TIP3    H127373   2.098   1.968   6.173
 9144TIP3    H227374   2.138   2.114   6.174
 9145TIP3   OH227375   1.327   2.366   5.562
 9145TIP3    H127376   1.274   2.390   5.486
 9145TIP3    H227377   1.283   2.409   5.636
 9146TIP3   OH227378   4.436   7.561   0.289
 9146TIP3    H127379   4.494   7.520   0.354
 9146TIP3    H227380   4.374   7.492   0.266
 9147TIP3   OH227381   0.680   4.267   2.367
 9147TIP3    H127382   0.655   4.254   2.275
 9147TIP3    H227383   0.723   4.185   2.391
 9148TIP3   OH227384   1.661   5.971   2.518
 9148TIP3    H127385   1.674   5.909   2.590
 9148TIP3    H227386   1.747   6.009   2.502
 9149TIP3   OH227387   1.896   7.478   2.749
 9149TIP3    H127388   1.857   7.502   2.665
 9149TIP3    H227389   1.947   7.400   2.730
 9150TIP3   OH227390   4.939   7.418   5.067
 9150TIP3    H127391   4.863   7.373   5.105
 9150TIP3    H227392   5.001   7.349   5.048
 9151TIP3   OH227393   0.936   2.092   2.775
 9151TIP3    H127394   0.961   2.062   2.862
 9151TIP3    H227395   0.845   2.061   2.764
 9152TIP3   OH227396   4.019   7.228   5.250
 9152TIP3    H127397   4.004   7.134   5.266
 9152TIP3    H227398   3.931   7.265   5.242
 9153TIP3   OH227399   0.191   1.635   2.985
 9153TIP3    H127400   0.201   1.707   3.048
 9153TIP3    H227401   0.135   1.671   2.916
 9154TIP3   OH227402   1.282   5.458   2.906
 9154TIP3    H127403   1.285   5.542   2.860
 9154TIP3    H227404   1.288   5.392   2.836
 9155TIP3   OH227405   7.067   2.569   0.251
 9155TIP3    H127406   7.073   2.527   0.336
 9155TIP3    H227407   7.000   2.519   0.204
 9156TIP3   OH227408   4.900   2.935   2.156
 9156TIP3    H127409   4.885   3.029   2.161
 9156TIP3    H227410   4.895   2.905   2.247
 9157TIP3   OH227411   0.988   2.012   1.091
 9157TIP3    H127412   0.981   1.972   1.178
 9157TIP3    H227413   0.963   1.942   1.031
 9158TIP3   OH227414   0.920   2.226   4.736
 9158TIP3    H127415   0.879   2.310   4.714
 9158TIP3    H227416   0.925   2.226   4.831
 9159TIP3   OH227417   3.441   4.468   5.746
 9159TIP3    H127418   3.475   4.469   5.657
 9159TIP3    H227419   3.347   4.483   5.736
 9160TIP3   OH227420   0.365   7.082   5.061
 9160TIP3    H127421   0.318   7.017   5.115
 9160TIP3    H227422   0.321   7.079   4.977
 9161TIP3   OH227423   1.140   2.041   2.297
 9161TIP3    H127424   1.109   2.126   2.267
 9161TIP3    H227425   1.128   2.043   2.392
 9162TIP3   OH227426   1.436   0.625   0.678
 9162TIP3    H127427   1.484   0.556   0.723
 9162TIP3    H227428   1.365   0.579   0.633
 9163TIP3   OH227429   4.210   4.381   3.963
 9163TIP3    H127430   4.205   4.306   3.905
 9163TIP3    H227431   4.119   4.400   3.986
 9164TIP3   OH227432   4.821   2.115   0.112
 9164TIP3    H127433   4.854   2.198   0.079
 9164TIP3    H227434   4.729   2.131   0.130
 9165TIP3   OH227435   0.043   4.583   5.810
 9165TIP3    H127436   0.009   4.494   5.819
 9165TIP3    H227437  -0.025   4.629   5.761
 9166TIP3   OH227438   2.584   1.592   4.998
 9166TIP3    H127439   2.501   1.553   4.969
 9166TIP3    H227440   2.563   1.634   5.082
 9167TIP3   OH227441   2.979  -0.019   3.655
 9167TIP3    H127442   3.017   0.059   3.696
 9167TIP3    H227443   2.925   0.016   3.583
 9168TIP3   OH227444   5.372   1.562   6.162
 9168TIP3    H127445   5.448   1.504   6.163
 9168TIP3    H227446   5.347   1.570   6.255
 9169TIP3   OH227447   4.187   0.850   5.846
 9169TIP3    H127448   4.113   0.799   5.811
 9169TIP3    H227449   4.172   0.853   5.940
 9170TIP3   OH227450   6.453   5.379   5.060
 9170TIP3    H127451   6.379   5.321   5.041
 9170TIP3    H227452   6.511   5.326   5.114
 9171TIP3   OH227453   4.743   2.910   5.761
 9171TIP3    H127454   4.768   2.822   5.733
 9171TIP3    H227455   4.799   2.968   5.710
 9172TIP3   OH227456   3.844   1.208   5.656
 9172TIP3    H127457   3.908   1.185   5.723
 9172TIP3    H227458   3.879   1.169   5.575
 9173TIP3   OH227459   1.551   0.897   1.792
 9173TIP3    H127460   1.477   0.930   1.842
 9173TIP3    H227461   1.603   0.975   1.772
 9174TIP3   OH227462   6.034   5.460   3.583
 9174TIP3    H127463   5.967   5.527   3.565
 9174TIP3    H227464   6.078   5.492   3.662
 9175TIP3   OH227465   0.324   6.028   2.382
 9175TIP3    H127466   0.290   6.018   2.293
 9175TIP3    H227467   0.303   5.945   2.425
 9176TIP3   OH227468   0.287   3.583   6.035
 9176TIP3    H127469   0.228   3.510   6.018
 9176TIP3    H227470   0.237   3.642   6.092
 9177TIP3   OH227471   1.862   1.665   5.877
 9177TIP3    H127472   1.778   1.709   5.864
 9177TIP3    H227473   1.913   1.686   5.798
 9178TIP3   OH227474   5.674   3.988   3.577
 9178TIP3    H127475   5.617   3.915   3.600
 9178TIP3    H227476   5.712   4.017   3.660
 9179TIP3   OH227477   6.009   3.485   6.419
 9179TIP3    H127478   5.922   3.453   6.397
 9179TIP3    H227479   6.001   3.580   6.416
 9180TIP3   OH227480   4.182   0.865   5.117
 9180TIP3    H127481   4.125   0.790   5.135
 9180TIP3    H227482   4.132   0.941   5.148
 9181TIP3   OH227483   6.464   4.335   4.344
 9181TIP3    H127484   6.551   4.297   4.356
 9181TIP3    H227485   6.480   4.412   4.289
 9182TIP3   OH227486   7.983   6.399   4.684
 9182TIP3    H127487   8.063   6.368   4.727
 9182TIP3    H227488   7.922   6.327   4.693
 9183TIP3   OH227489   7.512   1.265   6.029
 9183TIP3    H127490   7.527   1.183   6.076
 9183TIP3    H227491   7.530   1.333   6.094
 9184TIP3   OH227492   8.182   1.829   1.381
 9184TIP3    H127493   8.144   1.906   1.338
 9184TIP3    H227494   8.240   1.866   1.448
 9185TIP3   OH227495   1.099   7.266   3.545
 9185TIP3    H127496   1.043   7.209   3.598
 9185TIP3    H227497   1.187   7.233   3.558
 9186TIP3   OH227498   5.062   2.040   1.384
 9186TIP3    H127499   5.019   2.064   1.302
 9186TIP3    H227500   4.993   2.042   1.450
 9187TIP3   OH227501   0.941   1.310   0.146
 9187TIP3    H127502   1.030   1.329   0.177
 9187TIP3    H227503   0.907   1.394   0.116
 9188TIP3   OH227504   2.710   5.752   6.772
 9188TIP3    H127505   2.749   5.800   6.845
 9188TIP3    H227506   2.651   5.815   6.731
 9189TIP3   OH227507   5.067   6.742   2.099
 9189TIP3    H127508   5.014   6.780   2.029
 9189TIP3    H227509   5.104   6.818   2.145
 9190TIP3   OH227510   0.726   4.324   1.053
 9190TIP3    H127511   0.639   4.364   1.058
 9190TIP3    H227512   0.762   4.336   1.141
 9191TIP3   OH227513   7.539   2.988   4.390
 9191TIP3    H127514   7.457   2.948   4.362
 9191TIP3    H227515   7.605   2.921   4.376
 9192TIP3   OH227516   5.877   1.465   4.578
 9192TIP3    H127517   5.888   1.557   4.557
 9192TIP3    H227518   5.835   1.427   4.501
 9193TIP3   OH227519   6.804   0.205   1.088
 9193TIP3    H127520   6.750   0.136   1.124
 9193TIP3    H227521   6.793   0.279   1.148
 9194TIP3   OH227522   6.324   3.682   5.509
 9194TIP3    H127523   6.274   3.759   5.536
 9194TIP3    H227524   6.265   3.608   5.523
 9195TIP3   OH227525   6.395   2.423   5.620
 9195TIP3    H127526   6.409   2.419   5.715
 9195TIP3    H227527   6.408   2.515   5.598
 9196TIP3   OH227528   4.019   6.021   2.324
 9196TIP3    H127529   3.969   6.103   2.321
 9196TIP3    H227530   3.975   5.969   2.391
 9197TIP3   OH227531   5.032   5.959   3.270
 9197TIP3    H127532   5.004   5.872   3.244
 9197TIP3    H227533   5.114   5.973   3.224
 9198TIP3   OH227534   6.085   3.941   4.523
 9198TIP3    H127535   6.058   3.850   4.537
 9198TIP3    H227536   6.180   3.937   4.513
 9199TIP3   OH227537   3.559   0.494   3.214
 9199TIP3    H127538   3.619   0.483   3.141
 9199TIP3    H227539   3.545   0.588   3.220
 9200TIP3   OH227540   2.058   4.348   5.760
 9200TIP3    H127541   2.022   4.304   5.683
 9200TIP3    H227542   2.007   4.428   5.769
 9201TIP3   OH227543   7.894   5.628   3.134
 9201TIP3    H127544   7.932   5.560   3.191
 9201TIP3    H227545   7.968   5.686   3.115
 9202TIP3   OH227546   4.994   1.225   2.093
 9202TIP3    H127547   5.014   1.229   2.000
 9202TIP3    H227548   4.900   1.207   2.097
 9203TIP3   OH227549   4.853   2.578   0.963
 9203TIP3    H127550   4.906   2.634   1.020
 9203TIP3    H227551   4.797   2.639   0.916
 9204TIP3   OH227552   5.639   3.220   6.669
 9204TIP3    H127553   5.685   3.186   6.746
 9204TIP3    H227554   5.643   3.149   6.605
 9205TIP3   OH227555   1.465   1.505   1.116
 9205TIP3    H127556   1.525   1.569   1.077
 9205TIP3    H227557   1.379   1.547   1.111
 9206TIP3   OH227558   6.799   0.662   0.633
 9206TIP3    H127559   6.774   0.678   0.724
 9206TIP3    H227560   6.783   0.568   0.620
 9207TIP3   OH227561   7.778   5.242   0.555
 9207TIP3    H127562   7.746   5.153   0.543
 9207TIP3    H227563   7.700   5.297   0.546
 9208TIP3   OH227564   0.114   4.761   1.331
 9208TIP3    H127565   0.097   4.849   1.296
 9208TIP3    H227566   0.031   4.714   1.317
 9209TIP3   OH227567   0.512   4.370   2.576
 9209TIP3    H127568   0.558   4.447   2.609
 9209TIP3    H227569   0.566   4.338   2.504
 9210TIP3   OH227570   4.250   6.047   6.328
 9210TIP3    H127571   4.311   5.973   6.335
 9210TIP3    H227572   4.306   6.124   6.327
 9211TIP3   OH227573   8.137   4.858   3.116
 9211TIP3    H127574   8.052   4.879   3.156
 9211TIP3    H227575   8.117   4.844   3.024
 9212TIP3   OH227576   0.769   6.341   3.204
 9212TIP3    H127577   0.848   6.306   3.246
 9212TIP3    H227578   0.721   6.383   3.274
 9213TIP3   OH227579   1.634   7.155   2.560
 9213TIP3    H127580   1.609   7.161   2.652
 9213TIP3    H227581   1.551   7.152   2.513
 9214TIP3   OH227582   7.511   2.785   1.059
 9214TIP3    H127583   7.564   2.801   0.980
 9214TIP3    H227584   7.565   2.727   1.112
 9215TIP3   OH227585   0.369   6.412   6.191
 9215TIP3    H127586   0.284   6.452   6.208
 9215TIP3    H227587   0.376   6.408   6.095
 9216TIP3   OH227588   0.944   6.030   1.025
 9216TIP3    H127589   1.011   6.086   1.065
 9216TIP3    H227590   0.966   5.942   1.054
 9217TIP3   OH227591   6.412   3.527   2.315
 9217TIP3    H127592   6.366   3.443   2.305
 9217TIP3    H227593   6.504   3.506   2.302
 9218TIP3   OH227594   1.708   2.264   3.943
 9218TIP3    H127595   1.666   2.269   3.857
 9218TIP3    H227596   1.667   2.188   3.984
 9219TIP3   OH227597   3.378   1.708   4.509
 9219TIP3    H127598   3.325   1.637   4.474
 9219TIP3    H227599   3.442   1.726   4.440
 9220TIP3   OH227600   5.455   4.121   6.126
 9220TIP3    H127601   5.401   4.075   6.062
 9220TIP3    H227602   5.464   4.209   6.092
 9221TIP3   OH227603   3.298   1.467   6.241
 9221TIP3    H127604   3.352   1.405   6.290
 9221TIP3    H227605   3.265   1.528   6.307
 9222TIP3   OH227606   6.804   6.237   5.255
 9222TIP3    H127607   6.805   6.196   5.342
 9222TIP3    H227608   6.869   6.308   5.263
 9223TIP3   OH227609   4.502   1.890   6.882
 9223TIP3    H127610   4.562   1.829   6.840
 9223TIP3    H227611   4.470   1.945   6.810
 9224TIP3   OH227612   1.594   6.298   3.658
 9224TIP3    H127613   1.569   6.294   3.750
 9224TIP3    H227614   1.524   6.348   3.616
 9225TIP3   OH227615   2.720   5.297   2.775
 9225TIP3    H127616   2.779   5.223   2.764
 9225TIP3    H227617   2.638   5.258   2.806
 9226TIP3   OH227618   4.637   6.048   2.097
 9226TIP3    H127619   4.724   6.086   2.088
 9226TIP3    H227620   4.641   5.966   2.048
 9227TIP3   OH227621   2.227   7.122   2.128
 9227TIP3    H127622   2.270   7.121   2.042
 9227TIP3    H227623   2.249   7.037   2.166
 9228TIP3   OH227624   5.848   7.816   6.842
 9228TIP3    H127625   5.827   7.738   6.791
 9228TIP3    H227626   5.890   7.875   6.779
 9229TIP3   OH227627   8.273   0.955   0.602
 9229TIP3    H127628   8.219   0.926   0.528
 9229TIP3    H227629   8.212   1.005   0.657
 9230TIP3   OH227630   5.915   6.073   2.651
 9230TIP3    H127631   5.995   6.087   2.701
 9230TIP3    H227632   5.902   6.156   2.605
 9231TIP3   OH227633   8.287   3.930   5.407
 9231TIP3    H127634   8.213   3.889   5.451
 9231TIP3    H227635   8.317   3.864   5.344
 9232TIP3   OH227636   7.797   1.214   5.040
 9232TIP3    H127637   7.873   1.171   5.001
 9232TIP3    H227638   7.829   1.246   5.125
 9233TIP3   OH227639   1.996   5.179   2.810
 9233TIP3    H127640   1.976   5.167   2.903
 9233TIP3    H227641   2.069   5.120   2.793
 9234TIP3   OH227642   7.388   5.873   4.536
 9234TIP3    H127643   7.423   5.959   4.556
 9234TIP3    H227644   7.303   5.870   4.580
 9235TIP3   OH227645   3.307   3.997   5.578
 9235TIP3    H127646   3.275   4.079   5.541
 9235TIP3    H227647   3.344   3.949   5.504
 9236TIP3   OH227648   2.711   0.195   6.450
 9236TIP3    H127649   2.774   0.261   6.477
 9236TIP3    H227650   2.739   0.115   6.493
 9237TIP3   OH227651   1.299   4.644   1.637
 9237TIP3    H127652   1.255   4.707   1.694
 9237TIP3    H227653   1.356   4.697   1.582
 9238TIP3   OH227654   0.316   6.621   3.448
 9238TIP3    H127655   0.335   6.578   3.531
 9238TIP3    H227656   0.261   6.696   3.473
 9239TIP3   OH227657   8.241   7.343   2.146
 9239TIP3    H127658   8.258   7.332   2.239
 9239TIP3    H227659   8.287   7.270   2.104
 9240TIP3   OH227660   3.791   5.695   5.979
 9240TIP3    H127661   3.761   5.634   5.912
 9240TIP3    H227662   3.757   5.780   5.951
 9241TIP3   OH227663   5.874   5.677   2.160
 9241TIP3    H127664   5.937   5.629   2.107
 9241TIP3    H227665   5.862   5.760   2.113
 9242TIP3   OH227666   8.405   1.593   6.393
 9242TIP3    H127667   8.414   1.562   6.483
 9242TIP3    H227668   8.330   1.652   6.395
 9243TIP3   OH227669   0.730   4.566   5.338
 9243TIP3    H127670   0.638   4.582   5.316
 9243TIP3    H227671   0.735   4.473   5.357
 9244TIP3   OH227672   4.898   0.615   2.869
 9244TIP3    H127673   4.972   0.577   2.822
 9244TIP3    H227674   4.891   0.704   2.834
 9245TIP3   OH227675   6.554   5.055   4.995
 9245TIP3    H127676   6.622   5.002   4.954
 9245TIP3    H227677   6.513   4.997   5.059
 9246TIP3   OH227678   7.462   6.957   4.715
 9246TIP3    H127679   7.504   7.023   4.660
 9246TIP3    H227680   7.401   7.006   4.770
 9247TIP3   OH227681   2.141   1.125   4.636
 9247TIP3    H127682   2.196   1.053   4.605
 9247TIP3    H227683   2.069   1.129   4.573
 9248TIP3   OH227684   5.386   1.607   1.103
 9248TIP3    H127685   5.370   1.515   1.124
 9248TIP3    H227686   5.310   1.653   1.137
 9249TIP3   OH227687   1.173   6.927   2.467
 9249TIP3    H127688   1.167   6.908   2.374
 9249TIP3    H227689   1.237   6.863   2.500
 9250TIP3   OH227690   1.642   0.780   0.162
 9250TIP3    H127691   1.650   0.752   0.071
 9250TIP3    H227692   1.657   0.700   0.213
 9251TIP3   OH227693   2.063   6.655   6.771
 9251TIP3    H127694   1.969   6.646   6.784
 9251TIP3    H227695   2.078   6.631   6.680
 9252TIP3   OH227696   3.427   5.275   4.146
 9252TIP3    H127697   3.496   5.302   4.207
 9252TIP3    H227698   3.348   5.318   4.178
 9253TIP3   OH227699   1.269   5.234   4.921
 9253TIP3    H127700   1.331   5.273   4.860
 9253TIP3    H227701   1.287   5.276   5.005
 9254TIP3   OH227702   6.899   2.519   6.540
 9254TIP3    H127703   6.832   2.465   6.496
 9254TIP3    H227704   6.970   2.526   6.476
 9255TIP3   OH227705   0.857   1.777   4.529
 9255TIP3    H127706   0.861   1.682   4.517
 9255TIP3    H227707   0.878   1.790   4.621
 9256TIP3   OH227708   2.432   3.376   4.873
 9256TIP3    H127709   2.379   3.305   4.909
 9256TIP3    H227710   2.522   3.347   4.884
 9257TIP3   OH227711   4.902   3.728   0.052
 9257TIP3    H127712   4.991   3.726   0.019
 9257TIP3    H227713   4.852   3.673  -0.009
 9258TIP3   OH227714   7.795   6.824   4.148
 9258TIP3    H127715   7.859   6.762   4.114
 9258TIP3    H227716   7.776   6.792   4.237
 9259TIP3   OH227717   6.960   7.568   3.476
 9259TIP3    H127718   6.872   7.596   3.501
 9259TIP3    H227719   6.962   7.474   3.494
 9260TIP3   OH227720   2.460   7.586   5.445
 9260TIP3    H127721   2.553   7.567   5.437
 9260TIP3    H227722   2.449   7.673   5.407
 9261TIP3   OH227723   6.268   6.740   4.569
 9261TIP3    H127724   6.194   6.751   4.628
 9261TIP3    H227725   6.231   6.749   4.481
 9262TIP3   OH227726   2.289   0.347   0.673
 9262TIP3    H127727   2.332   0.405   0.737
 9262TIP3    H227728   2.241   0.284   0.726
 9263TIP3   OH227729   2.070   3.797   1.806
 9263TIP3    H127730   2.037   3.712   1.775
 9263TIP3    H227731   2.068   3.853   1.729
 9264TIP3   OH227732   6.640   4.128   4.372
 9264TIP3    H127733   6.715   4.114   4.315
 9264TIP3    H227734   6.662   4.082   4.453
 9265TIP3   OH227735   3.514   6.774   3.735
 9265TIP3    H127736   3.532   6.860   3.773
 9265TIP3    H227737   3.437   6.788   3.679
 9266TIP3   OH227738   8.349   1.853   3.160
 9266TIP3    H127739   8.259   1.870   3.189
 9266TIP3    H227740   8.353   1.891   3.072
 9267TIP3   OH227741   0.513   2.521   2.022
 9267TIP3    H127742   0.445   2.507   2.088
 9267TIP3    H227743   0.485   2.468   1.948
 9268TIP3   OH227744   5.046   0.723   5.840
 9268TIP3    H127745   5.091   0.722   5.924
 9268TIP3    H227746   4.995   0.642   5.840
 9269TIP3   OH227747   3.559   6.522   4.398
 9269TIP3    H127748   3.630   6.462   4.423
 9269TIP3    H227749   3.481   6.467   4.393
 9270TIP3   OH227750   2.993   7.468   0.854
 9270TIP3    H127751   2.987   7.391   0.910
 9270TIP3    H227752   2.945   7.443   0.775
 9271TIP3   OH227753   5.889   4.466   3.790
 9271TIP3    H127754   5.858   4.552   3.760
 9271TIP3    H227755   5.884   4.471   3.886
 9272TIP3   OH227756   3.190   7.615   3.453
 9272TIP3    H127757   3.179   7.534   3.404
 9272TIP3    H227758   3.104   7.658   3.447
 9273TIP3   OH227759   3.710   0.957   5.388
 9273TIP3    H127760   3.667   1.020   5.445
 9273TIP3    H227761   3.718   0.878   5.443
 9274TIP3   OH227762   7.872   5.025   1.565
 9274TIP3    H127763   7.878   5.087   1.493
 9274TIP3    H227764   7.884   4.939   1.524
 9275TIP3   OH227765   2.860   7.909   5.066
 9275TIP3    H127766   2.780   7.934   5.019
 9275TIP3    H227767   2.847   7.818   5.090
 9276TIP3   OH227768   1.293   3.244   2.617
 9276TIP3    H127769   1.208   3.255   2.660
 9276TIP3    H227770   1.277   3.269   2.526
 9277TIP3   OH227771   3.919   4.034   3.998
 9277TIP3    H127772   3.977   4.104   4.028
 9277TIP3    H227773   3.869   4.009   4.077
 9278TIP3   OH227774   0.765   0.693   2.581
 9278TIP3    H127775   0.830   0.669   2.647
 9278TIP3    H227776   0.754   0.787   2.590
 9279TIP3   OH227777   4.438   0.685   3.419
 9279TIP3    H127778   4.441   0.676   3.515
 9279TIP3    H227779   4.530   0.688   3.393
 9280TIP3   OH227780   5.182   0.510   3.454
 9280TIP3    H127781   5.229   0.589   3.428
 9280TIP3    H227782   5.142   0.478   3.372
 9281TIP3   OH227783   5.453   0.468   0.917
 9281TIP3    H127784   5.425   0.533   0.853
 9281TIP3    H227785   5.384   0.402   0.915
 9282TIP3   OH227786   3.338   1.658   0.487
 9282TIP3    H127787   3.354   1.665   0.581
 9282TIP3    H227788   3.255   1.610   0.480
 9283TIP3   OH227789   7.930   5.823   5.624
 9283TIP3    H127790   7.968   5.772   5.696
 9283TIP3    H227791   7.983   5.903   5.621
 9284TIP3   OH227792   1.671   6.576   2.374
 9284TIP3    H127793   1.681   6.520   2.451
 9284TIP3    H227794   1.577   6.576   2.356
 9285TIP3   OH227795   4.469   2.620   4.732
 9285TIP3    H127796   4.551   2.636   4.686
 9285TIP3    H227797   4.466   2.525   4.743
 9286TIP3   OH227798   2.918   6.778   5.723
 9286TIP3    H127799   2.908   6.871   5.704
 9286TIP3    H227800   2.838   6.738   5.689
 9287TIP3   OH227801   1.689   5.931   0.299
 9287TIP3    H127802   1.767   5.935   0.243
 9287TIP3    H227803   1.615   5.940   0.239
 9288TIP3   OH227804   6.339   1.772   2.498
 9288TIP3    H127805   6.413   1.779   2.439
 9288TIP3    H227806   6.373   1.802   2.583
 9289TIP3   OH227807   0.932   5.953   1.509
 9289TIP3    H127808   0.902   6.033   1.467
 9289TIP3    H227809   0.914   5.965   1.602
 9290TIP3   OH227810   0.945   7.562   1.232
 9290TIP3    H127811   0.998   7.560   1.152
 9290TIP3    H227812   0.855   7.576   1.201
 9291TIP3   OH227813   4.913   4.774   0.164
 9291TIP3    H127814   4.889   4.757   0.255
 9291TIP3    H227815   4.932   4.868   0.161
 9292TIP3   OH227816   4.949   0.190   3.442
 9292TIP3    H127817   4.931   0.250   3.514
 9292TIP3    H227818   5.041   0.205   3.421
 9293TIP3   OH227819   2.449   0.481   4.019
 9293TIP3    H127820   2.356   0.499   4.001
 9293TIP3    H227821   2.490   0.567   4.021
 9294TIP3   OH227822   0.424   0.724   3.011
 9294TIP3    H127823   0.386   0.647   3.053
 9294TIP3    H227824   0.367   0.796   3.037
 9295TIP3   OH227825   2.751   0.187   3.511
 9295TIP3    H127826   2.684   0.200   3.579
 9295TIP3    H227827   2.752   0.269   3.463
 9296TIP3   OH227828   4.716   6.437   2.160
 9296TIP3    H127829   4.703   6.438   2.255
 9296TIP3    H227830   4.733   6.528   2.138
 9297TIP3   OH227831   2.067   6.099   0.456
 9297TIP3    H127832   2.092   6.175   0.404
 9297TIP3    H227833   2.116   6.027   0.418
 9298TIP3   OH227834   6.418   7.328   2.783
 9298TIP3    H127835   6.512   7.333   2.764
 9298TIP3    H227836   6.376   7.363   2.704
 9299TIP3   OH227837   1.135   3.940   6.128
 9299TIP3    H127838   1.111   3.960   6.038
 9299TIP3    H227839   1.181   4.018   6.158
 9300TIP3   OH227840   7.752   7.835   1.644
 9300TIP3    H127841   7.722   7.922   1.619
 9300TIP3    H227842   7.762   7.839   1.739
 9301TIP3   OH227843   7.473   0.676   2.309
 9301TIP3    H127844   7.415   0.739   2.267
 9301TIP3    H227845   7.441   0.670   2.399
 9302TIP3   OH227846   7.426   4.040   1.174
 9302TIP3    H127847   7.371   4.027   1.096
 9302TIP3    H227848   7.485   4.110   1.149
 9303TIP3   OH227849   4.954   0.039   0.425
 9303TIP3    H127850   4.991  -0.013   0.354
 9303TIP3    H227851   4.880   0.085   0.386
 9304TIP3   OH227852   1.876   7.426   3.574
 9304TIP3    H127853   1.791   7.406   3.535
 9304TIP3    H227854   1.867   7.398   3.665
 9305TIP3   OH227855   5.864   1.285   6.188
 9305TIP3    H127856   5.815   1.297   6.269
 9305TIP3    H227857   5.908   1.369   6.173
 9306TIP3   OH227858   0.005   7.723   5.450
 9306TIP3    H127859   0.011   7.684   5.537
 9306TIP3    H227860   0.096   7.729   5.421
 9307TIP3   OH227861   1.076   7.214   1.275
 9307TIP3    H127862   1.023   7.278   1.323
 9307TIP3    H227863   1.013   7.161   1.227
 9308TIP3   OH227864   0.868   3.975   6.104
 9308TIP3    H127865   0.943   3.975   6.163
 9308TIP3    H227866   0.812   4.046   6.136
 9309TIP3   OH227867   7.832   2.966   2.424
 9309TIP3    H127868   7.806   2.884   2.465
 9309TIP3    H227869   7.928   2.962   2.420
 9310TIP3   OH227870   2.893   5.140   2.027
 9310TIP3    H127871   2.870   5.105   1.941
 9310TIP3    H227872   2.811   5.136   2.077
 9311TIP3   OH227873   6.509   3.125   4.326
 9311TIP3    H127874   6.434   3.067   4.341
 9311TIP3    H227875   6.542   3.144   4.414
 9312TIP3   OH227876   3.683   5.933   3.950
 9312TIP3    H127877   3.714   5.994   4.017
 9312TIP3    H227878   3.593   5.913   3.977
 9313TIP3   OH227879   7.449   7.115   5.785
 9313TIP3    H127880   7.515   7.089   5.849
 9313TIP3    H227881   7.367   7.115   5.835
 9314TIP3   OH227882   7.660   4.644   1.007
 9314TIP3    H127883   7.639   4.550   1.009
 9314TIP3    H227884   7.617   4.680   1.084
 9315TIP3   OH227885   2.780   1.550   0.272
 9315TIP3    H127886   2.874   1.564   0.260
 9315TIP3    H227887   2.773   1.459   0.301
 9316TIP3   OH227888   4.116   5.074   1.331
 9316TIP3    H127889   4.122   5.167   1.306
 9316TIP3    H227890   4.055   5.073   1.404
 9317TIP3   OH227891   2.980   0.371   3.572
 9317TIP3    H127892   2.905   0.393   3.516
 9317TIP3    H227893   2.953   0.293   3.619
 9318TIP3   OH227894   6.953   3.157   4.898
 9318TIP3    H127895   6.942   3.119   4.985
 9318TIP3    H227896   7.038   3.124   4.868
 9319TIP3   OH227897   1.900   6.934   4.048
 9319TIP3    H127898   1.946   7.017   4.058
 9319TIP3    H227899   1.883   6.905   4.137
 9320TIP3   OH227900   1.111   1.777   2.880
 9320TIP3    H127901   1.110   1.870   2.903
 9320TIP3    H227902   1.049   1.770   2.807
 9321TIP3   OH227903   6.826   2.362   4.541
 9321TIP3    H127904   6.882   2.315   4.479
 9321TIP3    H227905   6.806   2.445   4.497
 9322TIP3   OH227906   0.362   1.634   6.018
 9322TIP3    H127907   0.443   1.591   6.046
 9322TIP3    H227908   0.303   1.627   6.093
 9323TIP3   OH227909   1.924   5.406   0.319
 9323TIP3    H127910   1.898   5.354   0.395
 9323TIP3    H227911   1.901   5.496   0.342
 9324TIP3   OH227912   6.110   6.130   6.854
 9324TIP3    H127913   6.196   6.096   6.878
 9324TIP3    H227914   6.092   6.092   6.768
 9325TIP3   OH227915   4.743   4.134   1.201
 9325TIP3    H127916   4.801   4.152   1.276
 9325TIP3    H227917   4.659   4.172   1.228
 9326TIP3   OH227918   4.578   7.565   6.809
 9326TIP3    H127919   4.636   7.621   6.860
 9326TIP3    H227920   4.635   7.497   6.773
 9327TIP3   OH227921   7.541   0.167   5.027
 9327TIP3    H127922   7.575   0.091   5.074
 9327TIP3    H227923   7.617   0.223   5.011
 9328TIP3   OH227924   0.350   3.886   0.837
 9328TIP3    H127925   0.428   3.926   0.798
 9328TIP3    H227926   0.361   3.792   0.823
 9329TIP3   OH227927   7.555   6.933   2.134
 9329TIP3    H127928   7.486   6.907   2.195
 9329TIP3    H227929   7.525   7.018   2.100
 9330TIP3   OH227930   0.686   7.376   5.378
 9330TIP3    H127931   0.729   7.293   5.396
 9330TIP3    H227932   0.707   7.431   5.454
 9331TIP3   OH227933   1.626   3.368   0.685
 9331TIP3    H127934   1.673   3.448   0.664
 9331TIP3    H227935   1.560   3.360   0.616
 9332TIP3   OH227936   5.389   4.595   1.516
 9332TIP3    H127937   5.419   4.668   1.462
 9332TIP3    H227938   5.301   4.620   1.544
 9333TIP3   OH227939   3.861   1.433   3.329
 9333TIP3    H127940   3.852   1.347   3.288
 9333TIP3    H227941   3.896   1.489   3.261
 9334TIP3   OH227942   2.420   1.225   1.691
 9334TIP3    H127943   2.376   1.228   1.607
 9334TIP3    H227944   2.484   1.154   1.682
 9335TIP3   OH227945   8.006   4.706   1.819
 9335TIP3    H127946   8.036   4.797   1.818
 9335TIP3    H227947   8.029   4.673   1.732
 9336TIP3   OH227948   3.229   7.603   0.946
 9336TIP3    H127949   3.161   7.540   0.920
 9336TIP3    H227950   3.179   7.677   0.981
 9337TIP3   OH227951   5.419   5.062   6.042
 9337TIP3    H127952   5.412   4.995   6.110
 9337TIP3    H227953   5.341   5.117   6.056
 9338TIP3   OH227954   3.593   1.943   2.685
 9338TIP3    H127955   3.684   1.969   2.698
 9338TIP3    H227956   3.565   1.991   2.607
 9339TIP3   OH227957   3.781   2.957   6.241
 9339TIP3    H127958   3.748   3.044   6.262
 9339TIP3    H227959   3.705   2.908   6.210
 9340TIP3   OH227960   2.711   3.014   4.230
 9340TIP3    H127961   2.754   3.062   4.300
 9340TIP3    H227962   2.768   2.938   4.215
 9341TIP3   OH227963   7.167   3.433   4.873
 9341TIP3    H127964   7.106   3.403   4.940
 9341TIP3    H227965   7.163   3.528   4.877
 9342TIP3   OH227966   0.054   4.912   5.922
 9342TIP3    H127967   0.131   4.965   5.903
 9342TIP3    H227968   0.082   4.822   5.907
 9343TIP3   OH227969   3.466   5.820   3.142
 9343TIP3    H127970   3.413   5.758   3.092
 9343TIP3    H227971   3.452   5.797   3.233
 9344TIP3   OH227972   5.124   4.874   5.578
 9344TIP3    H127973   5.187   4.945   5.565
 9344TIP3    H227974   5.062   4.883   5.505
 9345TIP3   OH227975   6.913   3.771   5.907
 9345TIP3    H127976   6.924   3.809   5.820
 9345TIP3    H227977   6.968   3.824   5.964
 9346TIP3   OH227978   4.589   7.696   5.486
 9346TIP3    H127979   4.585   7.699   5.581
 9346TIP3    H227980   4.539   7.771   5.456
 9347TIP3   OH227981   8.308   0.642   2.496
 9347TIP3    H127982   8.237   0.597   2.541
 9347TIP3    H227983   8.306   0.732   2.530
 9348TIP3   OH227984   0.358   0.662   5.945
 9348TIP3    H127985   0.384   0.754   5.951
 9348TIP3    H227986   0.268   0.661   5.977
 9349TIP3   OH227987   3.029   3.910   2.477
 9349TIP3    H127988   3.105   3.866   2.439
 9349TIP3    H227989   2.974   3.931   2.402
 9350TIP3   OH227990   7.711   4.210   2.140
 9350TIP3    H127991   7.729   4.119   2.163
 9350TIP3    H227992   7.690   4.207   2.046
 9351TIP3   OH227993   6.155   1.405   6.602
 9351TIP3    H127994   6.191   1.359   6.678
 9351TIP3    H227995   6.063   1.419   6.625
 9352TIP3   OH227996   1.197   1.913   5.732
 9352TIP3    H127997   1.239   1.969   5.666
 9352TIP3    H227998   1.198   1.966   5.812
 9353TIP3   OH227999   0.258   6.892   4.170
 9353TIP3    H128000   0.205   6.893   4.249
 9353TIP3    H228001   0.331   6.834   4.192
 9354TIP3   OH228002   5.693   7.655   6.119
 9354TIP3    H128003   5.663   7.658   6.028
 9354TIP3    H228004   5.646   7.726   6.163
 9355TIP3   OH228005   2.475   2.413   0.330
 9355TIP3    H128006   2.387   2.426   0.296
 9355TIP3    H228007   2.479   2.319   0.351
 9356TIP3   OH228008   6.563   4.679   6.061
 9356TIP3    H128009   6.508   4.660   5.985
 9356TIP3    H228010   6.594   4.768   6.047
 9357TIP3   OH228011   3.337   6.935   5.019
 9357TIP3    H128012   3.348   7.029   5.007
 9357TIP3    H228013   3.291   6.926   5.102
 9358TIP3   OH228014   6.865   1.317   6.115
 9358TIP3    H128015   6.909   1.402   6.124
 9358TIP3    H228016   6.894   1.283   6.030
 9359TIP3   OH228017   4.089   7.562   4.913
 9359TIP3    H128018   4.044   7.606   4.841
 9359TIP3    H228019   4.170   7.612   4.925
 9360TIP3   OH228020   4.363   4.491   3.170
 9360TIP3    H128021   4.290   4.550   3.189
 9360TIP3    H228022   4.432   4.548   3.137
 9361TIP3   OH228023   6.068   2.938   6.737
 9361TIP3    H128024   6.010   2.943   6.661
 9361TIP3    H228025   6.049   2.853   6.776
 9362TIP3   OH228026   2.220   5.063   2.707
 9362TIP3    H128027   2.308   5.044   2.738
 9362TIP3    H228028   2.231   5.137   2.646
 9363TIP3   OH228029   6.883   0.530   6.647
 9363TIP3    H128030   6.809   0.590   6.659
 9363TIP3    H228031   6.902   0.534   6.553
 9364TIP3   OH228032   4.943   2.629   0.131
 9364TIP3    H128033   4.998   2.707   0.128
 9364TIP3    H228034   4.936   2.607   0.224
 9365TIP3   OH228035   6.694   0.195   4.559
 9365TIP3    H128036   6.737   0.206   4.474
 9365TIP3    H228037   6.644   0.275   4.571
 9366TIP3   OH228038   6.996   7.229   3.343
 9366TIP3    H128039   7.077   7.258   3.302
 9366TIP3    H228040   7.023   7.191   3.427
 9367TIP3   OH228041   5.856   4.782   0.933
 9367TIP3    H128042   5.895   4.857   0.889
 9367TIP3    H228043   5.773   4.769   0.888
 9368TIP3   OH228044   0.839   4.088   4.923
 9368TIP3    H128045   0.807   4.016   4.978
 9368TIP3    H228046   0.768   4.153   4.926
 9369TIP3   OH228047   0.427   2.742   2.735
 9369TIP3    H128048   0.396   2.808   2.673
 9369TIP3    H228049   0.347   2.703   2.770
 9370TIP3   OH228050   3.122   3.551   4.820
 9370TIP3    H128051   3.106   3.646   4.819
 9370TIP3    H228052   3.214   3.542   4.798
 9371TIP3   OH228053   6.531   5.671   5.586
 9371TIP3    H128054   6.600   5.621   5.631
 9371TIP3    H228055   6.450   5.629   5.614
 9372TIP3   OH228056   8.181   7.483   4.258
 9372TIP3    H128057   8.213   7.466   4.169
 9372TIP3    H228058   8.163   7.396   4.294
 9373TIP3   OH228059  -0.055   2.632   3.679
 9373TIP3    H128060   0.024   2.679   3.653
 9373TIP3    H228061  -0.051   2.631   3.775
 9374TIP3   OH228062   5.165   4.312   1.142
 9374TIP3    H128063   5.103   4.275   1.080
 9374TIP3    H228064   5.168   4.405   1.120
 9375TIP3   OH228065   5.531   3.974   1.963
 9375TIP3    H128066   5.498   4.064   1.969
 9375TIP3    H228067   5.483   3.927   2.031
 9376TIP3   OH228068   1.848   0.151   4.981
 9376TIP3    H128069   1.859   0.202   5.061
 9376TIP3    H228070   1.936   0.145   4.944
 9377TIP3   OH228071   3.512   5.657   5.418
 9377TIP3    H128072   3.600   5.683   5.387
 9377TIP3    H228073   3.503   5.566   5.389
 9378TIP3   OH228074   3.392   5.902   5.278
 9378TIP3    H128075   3.367   5.932   5.365
 9378TIP3    H228076   3.432   5.816   5.292
 9379TIP3   OH228077   2.029   3.766   6.519
 9379TIP3    H128078   1.947   3.775   6.472
 9379TIP3    H228079   2.009   3.795   6.608
 9380TIP3   OH228080   7.666   1.841   2.289
 9380TIP3    H128081   7.584   1.877   2.253
 9380TIP3    H228082   7.674   1.755   2.248
 9381TIP3   OH228083   1.508   2.001   6.475
 9381TIP3    H128084   1.490   1.941   6.403
 9381TIP3    H228085   1.505   1.946   6.553
 9382TIP3   OH228086   6.819   0.012   3.004
 9382TIP3    H128087   6.824   0.007   2.909
 9382TIP3    H228088   6.851  -0.073   3.034
 9383TIP3   OH228089   7.965   0.915   3.560
 9383TIP3    H128090   8.047   0.964   3.561
 9383TIP3    H228091   7.944   0.902   3.652
 9384TIP3   OH228092   7.417   6.117   5.459
 9384TIP3    H128093   7.463   6.101   5.377
 9384TIP3    H228094   7.349   6.182   5.436
 9385TIP3   OH228095   2.021   5.101   4.570
 9385TIP3    H128096   2.055   5.189   4.552
 9385TIP3    H228097   1.944   5.094   4.514
 9386TIP3   OH228098   6.688   3.381   2.646
 9386TIP3    H128099   6.605   3.426   2.659
 9386TIP3    H228100   6.732   3.386   2.731
 9387TIP3   OH228101   4.638   0.944   5.141
 9387TIP3    H128102   4.601   0.886   5.075
 9387TIP3    H228103   4.583   0.930   5.218
 9388TIP3   OH228104   1.386   5.582   3.497
 9388TIP3    H128105   1.341   5.522   3.437
 9388TIP3    H228106   1.408   5.527   3.572
 9389TIP3   OH228107   2.924   0.461   2.580
 9389TIP3    H128108   2.844   0.446   2.530
 9389TIP3    H228109   2.952   0.374   2.608
 9390TIP3   OH228110   5.918   7.858   0.075
 9390TIP3    H128111   5.956   7.814  -0.001
 9390TIP3    H228112   5.981   7.843   0.145
 9391TIP3   OH228113   7.912   2.715   1.511
 9391TIP3    H128114   7.888   2.710   1.603
 9391TIP3    H228115   7.956   2.800   1.501
 9392TIP3   OH228116   2.603   0.832   3.158
 9392TIP3    H128117   2.692   0.822   3.192
 9392TIP3    H228118   2.613   0.888   3.081
 9393TIP3   OH228119   3.385   6.467   6.190
 9393TIP3    H128120   3.474   6.492   6.217
 9393TIP3    H228121   3.385   6.371   6.195
 9394TIP3   OH228122   5.970   5.044   5.574
 9394TIP3    H128123   6.013   5.110   5.520
 9394TIP3    H228124   6.041   5.005   5.626
 9395TIP3   OH228125   3.732   6.180   6.388
 9395TIP3    H128126   3.821   6.147   6.403
 9395TIP3    H228127   3.679   6.139   6.457
 9396TIP3   OH228128   1.435   4.964   4.937
 9396TIP3    H128129   1.366   4.911   4.975
 9396TIP3    H228130   1.496   4.980   5.009
 9397TIP3   OH228131   6.397   6.520   5.233
 9397TIP3    H128132   6.436   6.441   5.272
 9397TIP3    H228133   6.362   6.569   5.307
 9398TIP3   OH228134   3.418   0.806   6.900
 9398TIP3    H128135   3.355   0.842   6.838
 9398TIP3    H228136   3.401   0.712   6.899
 9399TIP3   OH228137   0.351   0.610   6.282
 9399TIP3    H128138   0.279   0.669   6.309
 9399TIP3    H228139   0.401   0.597   6.362
 9400TIP3   OH228140   2.426   0.563   2.880
 9400TIP3    H128141   2.388   0.518   2.957
 9400TIP3    H228142   2.356   0.620   2.849
 9401TIP3   OH228143   4.591   5.618   5.756
 9401TIP3    H128144   4.663   5.662   5.710
 9401TIP3    H228145   4.633   5.580   5.834
 9402TIP3   OH228146   5.922   6.989   4.149
 9402TIP3    H128147   5.914   6.964   4.057
 9402TIP3    H228148   5.886   6.914   4.197
 9403TIP3   OH228149   2.631   3.793   1.561
 9403TIP3    H128150   2.555   3.849   1.551
 9403TIP3    H228151   2.665   3.813   1.648
 9404TIP3   OH228152   1.425   2.889   1.918
 9404TIP3    H128153   1.423   2.881   1.822
 9404TIP3    H228154   1.504   2.843   1.945
 9405TIP3   OH228155   1.043   4.235   4.803
 9405TIP3    H128156   0.970   4.179   4.832
 9405TIP3    H228157   1.113   4.217   4.866
 9406TIP3   OH228158   0.543   6.081   1.548
 9406TIP3    H128159   0.474   6.053   1.609
 9406TIP3    H228160   0.614   6.112   1.605
 9407TIP3   OH228161   6.841   6.821   5.291
 9407TIP3    H128162   6.927   6.836   5.330
 9407TIP3    H228163   6.785   6.890   5.328
 9408TIP3   OH228164   6.061   5.006   3.891
 9408TIP3    H128165   6.035   5.067   3.822
 9408TIP3    H228166   5.979   4.980   3.933
 9409TIP3   OH228167   6.884   1.219   3.165
 9409TIP3    H128168   6.836   1.147   3.206
 9409TIP3    H228169   6.930   1.178   3.092
 9410TIP3   OH228170   3.911   7.259   1.535
 9410TIP3    H128171   3.968   7.322   1.491
 9410TIP3    H228172   3.860   7.312   1.596
 9411TIP3   OH228173   4.624   7.091   5.116
 9411TIP3    H128174   4.531   7.090   5.094
 9411TIP3    H228175   4.669   7.074   5.033
 9412TIP3   OH228176   3.376   0.046   6.799
 9412TIP3    H128177   3.351   0.135   6.822
 9412TIP3    H228178   3.379   0.046   6.703
 9413TIP3   OH228179   8.179   0.426   4.475
 9413TIP3    H128180   8.117   0.379   4.420
 9413TIP3    H228181   8.137   0.510   4.493
 9414TIP3   OH228182   5.855   7.156   4.501
 9414TIP3    H128183   5.761   7.174   4.505
 9414TIP3    H228184   5.861   7.061   4.495
 9415TIP3   OH228185   1.244   2.618   0.732
 9415TIP3    H128186   1.332   2.636   0.766
 9415TIP3    H228187   1.254   2.540   0.679
 9416TIP3   OH228188   6.313   4.683   0.438
 9416TIP3    H128189   6.370   4.759   0.427
 9416TIP3    H228190   6.253   4.707   0.508
 9417TIP3   OH228191   0.824   4.046   1.068
 9417TIP3    H128192   0.842   4.067   1.160
 9417TIP3    H228193   0.743   4.092   1.048
 9418TIP3   OH228194   1.139   2.100   2.597
 9418TIP3    H128195   1.056   2.096   2.645
 9418TIP3    H228196   1.160   2.193   2.593
 9419TIP3   OH228197   6.329   4.164   4.585
 9419TIP3    H128198   6.397   4.108   4.623
 9419TIP3    H228199   6.377   4.233   4.539
 9420TIP3   OH228200   1.240   1.096   6.365
 9420TIP3    H128201   1.207   1.185   6.370
 9420TIP3    H228202   1.171   1.047   6.320
 9421TIP3   OH228203   5.571   7.196   0.656
 9421TIP3    H128204   5.558   7.286   0.684
 9421TIP3    H228205   5.552   7.197   0.562
 9422TIP3   OH228206   1.597   7.160   6.192
 9422TIP3    H128207   1.525   7.159   6.129
 9422TIP3    H228208   1.607   7.068   6.218
 9423TIP3   OH228209   7.500   5.972   6.002
 9423TIP3    H128210   7.520   6.064   6.019
 9423TIP3    H228211   7.533   5.925   6.079
 9424TIP3   OH228212   6.903   4.958   2.940
 9424TIP3    H128213   6.922   4.864   2.940
 9424TIP3    H228214   6.984   4.999   2.910
 9425TIP3   OH228215   8.190   0.075   6.575
 9425TIP3    H128216   8.192   0.170   6.584
 9425TIP3    H228217   8.281   0.048   6.582
 9426TIP3   OH228218   0.212   7.410   4.283
 9426TIP3    H128219   0.184   7.329   4.325
 9426TIP3    H228220   0.258   7.458   4.352
 9427TIP3   OH228221   8.105   3.825   5.181
 9427TIP3    H128222   8.138   3.782   5.102
 9427TIP3    H228223   8.159   3.903   5.191
 9428TIP3   OH228224   1.087   4.111   5.876
 9428TIP3    H128225   1.040   4.193   5.888
 9428TIP3    H228226   1.023   4.051   5.837
 9429TIP3   OH228227   6.476   0.373   1.972
 9429TIP3    H128228   6.389   0.398   2.003
 9429TIP3    H228229   6.521   0.457   1.955
 9430TIP3   OH228230   0.175   6.201   5.368
 9430TIP3    H128231   0.171   6.232   5.278
 9430TIP3    H228232   0.221   6.117   5.363
 9431TIP3   OH228233   6.108   7.474   3.133
 9431TIP3    H128234   6.100   7.379   3.140
 9431TIP3    H228235   6.105   7.491   3.039
 9432TIP3   OH228236   4.168   1.669   6.692
 9432TIP3    H128237   4.223   1.693   6.618
 9432TIP3    H228238   4.103   1.738   6.698
 9433TIP3   OH228239   3.440   5.996   5.774
 9433TIP3    H128240   3.489   5.914   5.781
 9433TIP3    H228241   3.353   5.976   5.809
 9434TIP3   OH228242   6.551   5.489   3.698
 9434TIP3    H128243   6.646   5.487   3.707
 9434TIP3    H228244   6.518   5.481   3.787
 9435TIP3   OH228245   1.835   1.088   4.933
 9435TIP3    H128246   1.907   1.068   4.993
 9435TIP3    H228247   1.803   1.003   4.905
 9436TIP3   OH228248   8.056   2.578   3.246
 9436TIP3    H128249   8.085   2.498   3.291
 9436TIP3    H228250   8.125   2.597   3.182
 9437TIP3   OH228251   5.415   3.562   1.009
 9437TIP3    H128252   5.372   3.498   1.064
 9437TIP3    H228253   5.348   3.628   0.990
 9438TIP3   OH228254   4.481   3.387   6.252
 9438TIP3    H128255   4.534   3.426   6.182
 9438TIP3    H228256   4.482   3.293   6.234
 9439TIP3   OH228257   7.752   0.253   2.251
 9439TIP3    H128258   7.710   0.332   2.217
 9439TIP3    H228259   7.779   0.276   2.340
 9440TIP3   OH228260   1.155   5.079   6.013
 9440TIP3    H128261   1.186   5.019   5.946
 9440TIP3    H228262   1.114   5.023   6.079
 9441TIP3   OH228263   8.298   6.433   3.798
 9441TIP3    H128264   8.290   6.527   3.810
 9441TIP3    H228265   8.370   6.422   3.736
 9442TIP3   OH228266   0.955   5.357   3.539
 9442TIP3    H128267   1.017   5.344   3.467
 9442TIP3    H228268   1.001   5.328   3.617
 9443TIP3   OH228269   5.714   0.896   5.085
 9443TIP3    H128270   5.781   0.960   5.107
 9443TIP3    H228271   5.639   0.948   5.056
 9444TIP3   OH228272   7.247   1.231   2.417
 9444TIP3    H128273   7.235   1.301   2.353
 9444TIP3    H228274   7.331   1.251   2.459
 9445TIP3   OH228275   7.543   0.067   2.667
 9445TIP3    H128276   7.546   0.159   2.640
 9445TIP3    H228277   7.629   0.051   2.706
 9446TIP3   OH228278   7.023   0.096   2.114
 9446TIP3    H128279   7.008   0.155   2.189
 9446TIP3    H228280   6.939   0.051   2.103
 9447TIP3   OH228281   2.709   3.632   0.064
 9447TIP3    H128282   2.785   3.632   0.123
 9447TIP3    H228283   2.695   3.725   0.044
 9448TIP3   OH228284   4.124   5.231   3.376
 9448TIP3    H128285   4.167   5.174   3.313
 9448TIP3    H228286   4.042   5.186   3.397
 9449TIP3   OH228287   4.802   6.860   6.142
 9449TIP3    H128288   4.728   6.844   6.084
 9449TIP3    H228289   4.863   6.789   6.124
 9450TIP3   OH228290   1.524   1.984   3.432
 9450TIP3    H128291   1.502   2.036   3.355
 9450TIP3    H228292   1.618   1.998   3.444
 9451TIP3   OH228293   1.728   4.898   2.916
 9451TIP3    H128294   1.698   4.838   2.848
 9451TIP3    H228295   1.810   4.859   2.947
 9452TIP3   OH228296   0.118   1.102   3.836
 9452TIP3    H128297   0.091   1.151   3.913
 9452TIP3    H228298   0.172   1.164   3.786
 9453TIP3   OH228299   2.849   6.926   0.908
 9453TIP3    H128300   2.845   7.015   0.945
 9453TIP3    H228301   2.769   6.918   0.857
 9454TIP3   OH228302   2.418   6.965   4.955
 9454TIP3    H128303   2.421   6.881   4.909
 9454TIP3    H228304   2.326   6.976   4.978
 9455TIP3   OH228305   6.192   0.991   0.411
 9455TIP3    H128306   6.282   1.012   0.385
 9455TIP3    H228307   6.149   0.965   0.329
 9456TIP3   OH228308   2.161   1.577   4.637
 9456TIP3    H128309   2.237   1.630   4.662
 9456TIP3    H228310   2.153   1.512   4.706
 9457TIP3   OH228311   7.494   2.909   6.750
 9457TIP3    H128312   7.506   2.851   6.674
 9457TIP3    H228313   7.479   2.995   6.711
 9458TIP3   OH228314   6.812   3.120   0.298
 9458TIP3    H128315   6.876   3.085   0.360
 9458TIP3    H228316   6.737   3.143   0.353
 9459TIP3   OH228317   7.626   1.928   5.434
 9459TIP3    H128318   7.710   1.883   5.420
 9459TIP3    H228319   7.564   1.857   5.450
 9460TIP3   OH228320   0.306   3.908   4.059
 9460TIP3    H128321   0.271   3.886   3.973
 9460TIP3    H228322   0.259   3.850   4.119
 9461TIP3   OH228323   1.597   6.231   5.321
 9461TIP3    H128324   1.628   6.154   5.370
 9461TIP3    H228325   1.675   6.266   5.280
 9462TIP3   OH228326   1.779   6.829   1.880
 9462TIP3    H128327   1.844   6.894   1.851
 9462TIP3    H228328   1.766   6.849   1.973
 9463TIP3   OH228329   8.341   0.385   5.660
 9463TIP3    H128330   8.259   0.428   5.637
 9463TIP3    H228331   8.362   0.418   5.748
 9464TIP3   OH228332   4.492   0.740   1.901
 9464TIP3    H128333   4.549   0.793   1.958
 9464TIP3    H228334   4.552   0.702   1.836
 9465TIP3   OH228335   4.240   6.679   0.007
 9465TIP3    H128336   4.239   6.608   0.072
 9465TIP3    H228337   4.192   6.750   0.050
 9466TIP3   OH228338   2.190   1.647   0.689
 9466TIP3    H128339   2.102   1.680   0.669
 9466TIP3    H228340   2.181   1.606   0.775
 9467TIP3   OH228341   7.494   6.655   6.440
 9467TIP3    H128342   7.414   6.708   6.444
 9467TIP3    H228343   7.529   6.672   6.352
 9468TIP3   OH228344   2.555   6.280   1.119
 9468TIP3    H128345   2.594   6.331   1.190
 9468TIP3    H228346   2.580   6.190   1.137
 9469TIP3   OH228347   1.960   7.681   2.911
 9469TIP3    H128348   1.966   7.608   2.849
 9469TIP3    H228349   1.921   7.643   2.990
 9470TIP3   OH228350   5.175   5.279   0.013
 9470TIP3    H128351   5.220   5.265  -0.070
 9470TIP3    H228352   5.179   5.374   0.026
 9471TIP3   OH228353   2.532   3.869   0.031
 9471TIP3    H128354   2.622   3.904   0.035
 9471TIP3    H228355   2.481   3.929   0.086
 9472TIP3   OH228356   2.483   1.159   1.278
 9472TIP3    H128357   2.483   1.115   1.193
 9472TIP3    H228358   2.545   1.109   1.331
 9473TIP3   OH228359   5.949   6.459   3.794
 9473TIP3    H128360   5.990   6.501   3.719
 9473TIP3    H228361   5.864   6.502   3.803
 9474TIP3   OH228362   5.311   2.332   2.189
 9474TIP3    H128363   5.301   2.385   2.268
 9474TIP3    H228364   5.369   2.260   2.215
 9475TIP3   OH228365   3.589   2.462   1.398
 9475TIP3    H128366   3.508   2.470   1.448
 9475TIP3    H228367   3.610   2.369   1.401
 9476TIP3   OH228368   6.545   1.991   1.654
 9476TIP3    H128369   6.491   2.069   1.662
 9476TIP3    H228370   6.494   1.933   1.596
 9477TIP3   OH228371   0.785   0.300   4.665
 9477TIP3    H128372   0.870   0.256   4.666
 9477TIP3    H228373   0.750   0.283   4.578
 9478TIP3   OH228374   2.551   3.404   0.038
 9478TIP3    H128375   2.603   3.481   0.060
 9478TIP3    H228376   2.469   3.417   0.085
 9479TIP3   OH228377   2.556   5.900   2.315
 9479TIP3    H128378   2.534   5.934   2.228
 9479TIP3    H228379   2.646   5.869   2.306
 9480TIP3   OH228380   5.255   3.420   1.196
 9480TIP3    H128381   5.165   3.394   1.178
 9480TIP3    H228382   5.270   3.396   1.288
 9481TIP3   OH228383   0.755   5.691   1.242
 9481TIP3    H128384   0.818   5.743   1.292
 9481TIP3    H228385   0.670   5.725   1.270
 9482TIP3   OH228386   1.543   2.489   2.492
 9482TIP3    H128387   1.533   2.420   2.426
 9482TIP3    H228388   1.505   2.452   2.571
 9483TIP3   OH228389   0.230   5.320   3.324
 9483TIP3    H128390   0.233   5.233   3.284
 9483TIP3    H228391   0.174   5.310   3.401
 9484TIP3   OH228392   4.318   5.234   0.301
 9484TIP3    H128393   4.269   5.171   0.247
 9484TIP3    H228394   4.285   5.319   0.275
 9485TIP3   OH228395   2.809   0.105   4.164
 9485TIP3    H128396   2.788   0.028   4.111
 9485TIP3    H228397   2.904   0.104   4.171
 9486TIP3   OH228398   5.245   3.282   5.553
 9486TIP3    H128399   5.211   3.192   5.554
 9486TIP3    H228400   5.306   3.285   5.628
 9487TIP3   OH228401   4.097   3.264   2.187
 9487TIP3    H128402   4.108   3.259   2.092
 9487TIP3    H228403   4.172   3.315   2.218
 9488TIP3   OH228404   4.242   0.239   5.078
 9488TIP3    H128405   4.306   0.271   5.015
 9488TIP3    H228406   4.278   0.263   5.163
 9489TIP3   OH228407   2.894   7.604   3.476
 9489TIP3    H128408   2.844   7.522   3.470
 9489TIP3    H228409   2.878   7.647   3.392
 9490TIP3   OH228410   7.200   2.436   5.925
 9490TIP3    H128411   7.143   2.466   5.996
 9490TIP3    H228412   7.248   2.362   5.962
 9491TIP3   OH228413   3.179   6.155   2.052
 9491TIP3    H128414   3.145   6.105   1.978
 9491TIP3    H228415   3.245   6.213   2.013
 9492TIP3   OH228416   5.761   7.577   2.401
 9492TIP3    H128417   5.731   7.577   2.310
 9492TIP3    H228418   5.774   7.485   2.422
 9493TIP3   OH228419   0.757   0.543   0.236
 9493TIP3    H128420   0.699   0.618   0.248
 9493TIP3    H228421   0.728   0.503   0.154
 9494TIP3   OH228422   5.319   6.462   4.498
 9494TIP3    H128423   5.387   6.475   4.431
 9494TIP3    H228424   5.341   6.524   4.567
 9495TIP3   OH228425   4.140   6.517   6.329
 9495TIP3    H128426   4.096   6.437   6.358
 9495TIP3    H228427   4.232   6.491   6.319
 9496TIP3   OH228428   3.514   1.257   5.152
 9496TIP3    H128429   3.540   1.348   5.141
 9496TIP3    H228430   3.596   1.208   5.145
 9497TIP3   OH228431   5.421   7.300   3.750
 9497TIP3    H128432   5.416   7.388   3.712
 9497TIP3    H228433   5.513   7.275   3.741
 9498TIP3   OH228434   0.803   2.119   0.269
 9498TIP3    H128435   0.893   2.119   0.236
 9498TIP3    H228436   0.793   2.033   0.310
 9499TIP3   OH228437   3.663   2.787   0.812
 9499TIP3    H128438   3.671   2.794   0.717
 9499TIP3    H228439   3.656   2.693   0.828
 9500TIP3   OH228440   3.858   1.313   5.269
 9500TIP3    H128441   3.833   1.373   5.339
 9500TIP3    H228442   3.954   1.311   5.271
 9501TIP3   OH228443   1.788   4.402   1.699
 9501TIP3    H128444   1.789   4.497   1.708
 9501TIP3    H228445   1.697   4.377   1.716
 9502TIP3   OH228446   5.775   5.682   6.477
 9502TIP3    H128447   5.856   5.645   6.442
 9502TIP3    H228448   5.705   5.635   6.431
 9503TIP3   OH228449   2.357   2.376   3.459
 9503TIP3    H128450   2.357   2.466   3.426
 9503TIP3    H228451   2.370   2.322   3.381
 9504TIP3   OH228452   2.660   1.982   5.155
 9504TIP3    H128453   2.747   1.949   5.177
 9504TIP3    H228454   2.660   2.072   5.186
 9505TIP3   OH228455   0.145   1.554   5.841
 9505TIP3    H128456   0.141   1.480   5.902
 9505TIP3    H228457   0.224   1.601   5.866
 9506TIP3   OH228458   8.242   6.664   6.670
 9506TIP3    H128459   8.187   6.709   6.734
 9506TIP3    H228460   8.281   6.591   6.719
 9507TIP3   OH228461   2.451   4.869   4.619
 9507TIP3    H128462   2.357   4.869   4.597
 9507TIP3    H228463   2.475   4.961   4.626
 9508TIP3   OH228464   6.480   0.132   0.886
 9508TIP3    H128465   6.419   0.083   0.831
 9508TIP3    H228466   6.557   0.076   0.893
 9509TIP3   OH228467   7.711   0.316   3.448
 9509TIP3    H128468   7.717   0.412   3.451
 9509TIP3    H228469   7.677   0.292   3.535
 9510TIP3   OH228470   2.889   2.360   4.107
 9510TIP3    H128471   2.806   2.372   4.153
 9510TIP3    H228472   2.936   2.293   4.157
 9511TIP3   OH228473   0.671   5.149   1.772
 9511TIP3    H128474   0.645   5.073   1.719
 9511TIP3    H228475   0.683   5.220   1.709
 9512TIP3   OH228476   5.405   3.068   1.571
 9512TIP3    H128477   5.467   3.141   1.569
 9512TIP3    H228478   5.449   2.998   1.522
 9513TIP3   OH228479   1.711   2.802   5.742
 9513TIP3    H128480   1.758   2.885   5.739
 9513TIP3    H228481   1.769   2.740   5.699
 9514TIP3   OH228482   5.236   5.480   2.931
 9514TIP3    H128483   5.322   5.504   2.897
 9514TIP3    H228484   5.186   5.455   2.853
 9515TIP3   OH228485   7.770   5.140   6.686
 9515TIP3    H128486   7.843   5.201   6.676
 9515TIP3    H228487   7.805   5.071   6.743
 9516TIP3   OH228488   7.777   4.895   3.731
 9516TIP3    H128489   7.815   4.810   3.710
 9516TIP3    H228490   7.698   4.875   3.781
 9517TIP3   OH228491   4.431   4.276   3.013
 9517TIP3    H128492   4.406   4.298   2.924
 9517TIP3    H228493   4.419   4.357   3.063
 9518TIP3   OH228494   7.989   0.937   6.446
 9518TIP3    H128495   8.003   0.884   6.367
 9518TIP3    H228496   7.967   1.024   6.413
 9519TIP3   OH228497   3.884   3.810   6.112
 9519TIP3    H128498   3.904   3.762   6.032
 9519TIP3    H228499   3.883   3.743   6.180
 9520TIP3   OH228500   2.847   3.856   1.029
 9520TIP3    H128501   2.866   3.819   1.115
 9520TIP3    H228502   2.931   3.885   0.996
 9521TIP3   OH228503   5.744   5.329   4.807
 9521TIP3    H128504   5.701   5.331   4.722
 9521TIP3    H228505   5.708   5.403   4.855
 9522TIP3   OH228506   5.470   2.670   4.306
 9522TIP3    H128507   5.403   2.601   4.303
 9522TIP3    H228508   5.474   2.702   4.216
 9523TIP3   OH228509   2.162   2.734   0.719
 9523TIP3    H128510   2.129   2.822   0.740
 9523TIP3    H228511   2.094   2.697   0.663
 9524TIP3   OH228512   4.389   7.323   1.821
 9524TIP3    H128513   4.312   7.367   1.857
 9524TIP3    H228514   4.366   7.306   1.730
 9525TIP3   OH228515   1.452   6.858   3.846
 9525TIP3    H128516   1.383   6.809   3.891
 9525TIP3    H228517   1.453   6.943   3.888
 9526TIP3   OH228518   2.469   5.491   1.746
 9526TIP3    H128519   2.470   5.403   1.783
 9526TIP3    H228520   2.381   5.524   1.764
 9527TIP3   OH228521   4.369   2.942   0.631
 9527TIP3    H128522   4.351   2.862   0.681
 9527TIP3    H228523   4.360   3.013   0.695
 9528TIP3   OH228524   3.898   1.794   2.299
 9528TIP3    H128525   3.924   1.770   2.388
 9528TIP3    H228526   3.805   1.817   2.308
 9529TIP3   OH228527   6.707   5.658   4.485
 9529TIP3    H128528   6.627   5.604   4.481
 9529TIP3    H228529   6.740   5.658   4.396
 9530TIP3   OH228530   7.321   5.014   3.621
 9530TIP3    H128531   7.393   4.962   3.586
 9530TIP3    H228532   7.362   5.075   3.682
 9531TIP3   OH228533   5.922   0.216   4.074
 9531TIP3    H128534   5.897   0.166   4.152
 9531TIP3    H228535   5.998   0.266   4.102
 9532TIP3   OH228536   2.452   1.462   5.978
 9532TIP3    H128537   2.371   1.503   6.009
 9532TIP3    H228538   2.497   1.434   6.058
 9533TIP3   OH228539   7.184   6.023   6.733
 9533TIP3    H128540   7.139   6.004   6.815
 9533TIP3    H228541   7.269   6.058   6.760
 9534TIP3   OH228542   8.134   7.606   5.705
 9534TIP3    H128543   8.114   7.512   5.697
 9534TIP3    H228544   8.229   7.609   5.714
 9535TIP3   OH228545   8.010   0.470   2.237
 9535TIP3    H128546   7.966   0.552   2.216
 9535TIP3    H228547   8.038   0.479   2.328
 9536TIP3   OH228548   0.259   7.190   6.625
 9536TIP3    H128549   0.309   7.156   6.699
 9536TIP3    H228550   0.304   7.154   6.548
 9537TIP3   OH228551   6.214   2.560   1.693
 9537TIP3    H128552   6.248   2.485   1.741
 9537TIP3    H228553   6.293   2.607   1.663
 9538TIP3   OH228554   4.092   3.768   2.602
 9538TIP3    H128555   4.013   3.814   2.573
 9538TIP3    H228556   4.133   3.739   2.521
 9539TIP3   OH228557   4.387   5.784   4.085
 9539TIP3    H128558   4.468   5.803   4.037
 9539TIP3    H228559   4.393   5.690   4.105
 9540TIP3   OH228560   3.390   0.322   2.832
 9540TIP3    H128561   3.400   0.410   2.866
 9540TIP3    H228562   3.443   0.267   2.890
 9541TIP3   OH228563   0.641   1.657   4.372
 9541TIP3    H128564   0.608   1.636   4.459
 9541TIP3    H228565   0.693   1.737   4.385
 9542TIP3   OH228566   5.339   1.933   4.603
 9542TIP3    H128567   5.246   1.926   4.580
 9542TIP3    H228568   5.381   1.865   4.551
 9543TIP3   OH228569   5.465   4.033   0.741
 9543TIP3    H128570   5.383   3.983   0.747
 9543TIP3    H228571   5.436   4.123   0.726
 9544TIP3   OH228572   7.125   6.943   3.255
 9544TIP3    H128573   7.107   6.858   3.294
 9544TIP3    H228574   7.139   7.001   3.329
 9545TIP3   OH228575   3.895   0.130   0.793
 9545TIP3    H128576   3.806   0.149   0.763
 9545TIP3    H228577   3.899   0.168   0.881
 9546TIP3   OH228578   2.729   0.687   3.495
 9546TIP3    H128579   2.720   0.780   3.475
 9546TIP3    H228580   2.809   0.681   3.547
 9547TIP3   OH228581   6.575   6.994   5.540
 9547TIP3    H128582   6.506   7.057   5.560
 9547TIP3    H228583   6.638   7.042   5.487
 9548TIP3   OH228584   0.602   4.448   0.465
 9548TIP3    H128585   0.656   4.380   0.505
 9548TIP3    H228586   0.665   4.514   0.435
 9549TIP3   OH228587   5.764   7.714   3.052
 9549TIP3    H128588   5.737   7.684   3.138
 9549TIP3    H228589   5.778   7.808   3.062
 9550TIP3   OH228590   0.421   7.727   6.578
 9550TIP3    H128591   0.333   7.757   6.600
 9550TIP3    H228592   0.432   7.646   6.627
 9551TIP3   OH228593   4.227   0.110   4.112
 9551TIP3    H128594   4.180   0.147   4.036
 9551TIP3    H228595   4.231   0.182   4.174
 9552TIP3   OH228596   2.988   2.422   6.712
 9552TIP3    H128597   2.942   2.358   6.658
 9552TIP3    H228598   2.976   2.392   6.802
 9553TIP3   OH228599   7.309   1.456   4.862
 9553TIP3    H128600   7.389   1.447   4.912
 9553TIP3    H228601   7.318   1.540   4.817
 9554TIP3   OH228602   4.900   3.874   1.856
 9554TIP3    H128603   4.915   3.815   1.930
 9554TIP3    H228604   4.964   3.945   1.868
 9555TIP3   OH228605   4.116   6.012   4.858
 9555TIP3    H128606   4.181   5.942   4.850
 9555TIP3    H228607   4.054   5.996   4.787
 9556TIP3   OH228608   5.769   5.685   0.978
 9556TIP3    H128609   5.844   5.693   0.920
 9556TIP3    H228610   5.787   5.745   1.050
 9557TIP3   OH228611   2.267   1.126   2.844
 9557TIP3    H128612   2.271   1.159   2.755
 9557TIP3    H228613   2.337   1.060   2.849
 9558TIP3   OH228614   2.186   6.063   2.313
 9558TIP3    H128615   2.218   6.006   2.383
 9558TIP3    H228616   2.192   6.009   2.234
 9559TIP3   OH228617   5.803   3.566   5.504
 9559TIP3    H128618   5.874   3.594   5.447
 9559TIP3    H228619   5.758   3.647   5.529
 9560TIP3   OH228620   1.603   5.248   3.505
 9560TIP3    H128621   1.541   5.240   3.433
 9560TIP3    H228622   1.638   5.336   3.497
 9561TIP3   OH228623   1.031   3.695   4.710
 9561TIP3    H128624   0.993   3.782   4.717
 9561TIP3    H228625   1.022   3.657   4.797
 9562TIP3   OH228626   5.610   5.912   0.459
 9562TIP3    H128627   5.600   6.005   0.477
 9562TIP3    H228628   5.672   5.908   0.386
 9563TIP3   OH228629   0.579   2.897   3.030
 9563TIP3    H128630   0.572   2.951   2.951
 9563TIP3    H228631   0.635   2.824   3.003
 9564TIP3   OH228632   2.363   1.219   4.233
 9564TIP3    H128633   2.447   1.246   4.198
 9564TIP3    H228634   2.376   1.215   4.328
 9565TIP3   OH228635   1.022   1.128   2.977
 9565TIP3    H128636   0.941   1.127   3.028
 9565TIP3    H228637   1.006   1.067   2.905
 9566TIP3   OH228638   3.861   3.692   1.759
 9566TIP3    H128639   3.869   3.787   1.764
 9566TIP3    H228640   3.868   3.673   1.665
 9567TIP3   OH228641   8.351   2.793   4.582
 9567TIP3    H128642   8.380   2.874   4.540
 9567TIP3    H228643   8.408   2.784   4.658
 9568TIP3   OH228644   6.124   6.078   0.289
 9568TIP3    H128645   6.202   6.107   0.337
 9568TIP3    H228646   6.146   6.092   0.197
 9569TIP3   OH228647   2.889   3.209   2.105
 9569TIP3    H128648   2.902   3.168   2.019
 9569TIP3    H228649   2.943   3.288   2.102
 9570TIP3   OH228650   6.775   4.261   2.532
 9570TIP3    H128651   6.759   4.214   2.613
 9570TIP3    H228652   6.805   4.348   2.561
 9571TIP3   OH228653   0.819   7.562   4.973
 9571TIP3    H128654   0.773   7.508   5.038
 9571TIP3    H228655   0.911   7.541   4.985
 9572TIP3   OH228656   0.543   5.134   5.175
 9572TIP3    H128657   0.477   5.123   5.243
 9572TIP3    H228658   0.621   5.164   5.222
 9573TIP3   OH228659   2.924   1.975   5.673
 9573TIP3    H128660   2.893   2.055   5.716
 9573TIP3    H228661   2.882   1.905   5.722
 9574TIP3   OH228662   1.028   1.024   4.316
 9574TIP3    H128663   1.102   1.080   4.340
 9574TIP3    H228664   0.951   1.074   4.341
 9575TIP3   OH228665   4.268   3.241   1.623
 9575TIP3    H128666   4.184   3.272   1.590
 9575TIP3    H228667   4.245   3.172   1.685
 9576TIP3   OH228668   0.137   5.248   5.082
 9576TIP3    H128669   0.150   5.340   5.062
 9576TIP3    H228670   0.054   5.245   5.130
 9577TIP3   OH228671   4.721   4.156   6.812
 9577TIP3    H128672   4.766   4.218   6.870
 9577TIP3    H228673   4.789   4.095   6.784
 9578TIP3   OH228674   2.215   6.049   6.093
 9578TIP3    H128675   2.141   6.109   6.104
 9578TIP3    H228676   2.186   5.968   6.135
 9579TIP3   OH228677   6.617   2.957   4.836
 9579TIP3    H128678   6.689   2.990   4.890
 9579TIP3    H228679   6.618   3.013   4.759
 9580TIP3   OH228680   2.272   5.011   3.029
 9580TIP3    H128681   2.218   4.936   3.053
 9580TIP3    H228682   2.332   4.978   2.963
 9581TIP3   OH228683   8.226   2.722   1.747
 9581TIP3    H128684   8.198   2.806   1.710
 9581TIP3    H228685   8.145   2.670   1.750
 9582TIP3   OH228686   4.113   5.666   6.720
 9582TIP3    H128687   4.176   5.597   6.699
 9582TIP3    H228688   4.032   5.620   6.741
 9583TIP3   OH228689   5.058   4.435   2.361
 9583TIP3    H128690   5.122   4.471   2.422
 9583TIP3    H228691   5.052   4.342   2.386
 9584TIP3   OH228692   3.432   0.089   5.507
 9584TIP3    H128693   3.525   0.114   5.506
 9584TIP3    H228694   3.400   0.123   5.591
 9585TIP3   OH228695   1.857   7.385   0.805
 9585TIP3    H128696   1.939   7.361   0.848
 9585TIP3    H228697   1.881   7.455   0.744
 9586TIP3   OH228698   1.584   1.370   6.372
 9586TIP3    H128699   1.677   1.388   6.353
 9586TIP3    H228700   1.545   1.457   6.384
 9587TIP3   OH228701   4.234   5.201   3.776
 9587TIP3    H128702   4.268   5.111   3.772
 9587TIP3    H228703   4.290   5.250   3.716
 9588TIP3   OH228704   6.935   5.259   3.813
 9588TIP3    H128705   6.917   5.270   3.906
 9588TIP3    H228706   7.017   5.209   3.810
 9589TIP3   OH228707   2.604   3.149   0.943
 9589TIP3    H128708   2.558   3.204   1.006
 9589TIP3    H228709   2.694   3.145   0.974
 9590TIP3   OH228710   7.546   6.674   1.818
 9590TIP3    H128711   7.540   6.635   1.731
 9590TIP3    H228712   7.528   6.602   1.878
 9591TIP3   OH228713   1.276   0.859   5.971
 9591TIP3    H128714   1.330   0.937   5.964
 9591TIP3    H228715   1.198   0.879   5.919
 9592TIP3   OH228716   1.667   2.735   1.610
 9592TIP3    H128717   1.655   2.776   1.525
 9592TIP3    H228718   1.652   2.805   1.673
 9593TIP3   OH228719   1.392   1.977   2.624
 9593TIP3    H128720   1.402   2.000   2.716
 9593TIP3    H228721   1.303   2.004   2.602
 9594TIP3   OH228722   1.236   3.900   4.242
 9594TIP3    H128723   1.232   3.995   4.242
 9594TIP3    H228724   1.261   3.877   4.152
 9595TIP3   OH228725   5.314   6.792   0.775
 9595TIP3    H128726   5.304   6.813   0.683
 9595TIP3    H228727   5.402   6.755   0.782
 9596TIP3   OH228728   7.806   4.855   0.886
 9596TIP3    H128729   7.849   4.815   0.810
 9596TIP3    H228730   7.754   4.785   0.924
 9597TIP3   OH228731   3.788   1.023   2.782
 9597TIP3    H128732   3.830   1.069   2.855
 9597TIP3    H228733   3.705   0.992   2.819
 9598TIP3   OH228734   2.267   3.132   1.385
 9598TIP3    H128735   2.353   3.096   1.407
 9598TIP3    H228736   2.222   3.060   1.339
 9599TIP3   OH228737   4.714   7.897   5.238
 9599TIP3    H128738   4.697   7.838   5.165
 9599TIP3    H228739   4.790   7.859   5.282
 9600TIP3   OH228740   7.439   2.229   2.455
 9600TIP3    H128741   7.376   2.301   2.449
 9600TIP3    H228742   7.508   2.254   2.394
 9601TIP3   OH228743   6.237   1.116   4.288
 9601TIP3    H128744   6.304   1.085   4.350
 9601TIP3    H228745   6.232   1.210   4.305
 9602TIP3   OH228746   3.635   3.217   0.839
 9602TIP3    H128747   3.618   3.162   0.915
 9602TIP3    H228748   3.623   3.159   0.764
 9603TIP3   OH228749   3.976   2.988   0.692
 9603TIP3    H128750   3.950   3.077   0.672
 9603TIP3    H228751   3.926   2.966   0.771
 9604TIP3   OH228752   7.634   6.374   4.378
 9604TIP3    H128753   7.598   6.392   4.465
 9604TIP3    H228754   7.558   6.352   4.324
 9605TIP3   OH228755   7.121   6.733   4.130
 9605TIP3    H128756   7.193   6.710   4.190
 9605TIP3    H228757   7.050   6.760   4.188
 9606TIP3   OH228758   6.419   0.126   3.947
 9606TIP3    H128759   6.374   0.209   3.933
 9606TIP3    H228760   6.473   0.114   3.869
 9607TIP3   OH228761   2.408   5.605   4.129
 9607TIP3    H128762   2.440   5.674   4.072
 9607TIP3    H228763   2.449   5.525   4.096
 9608TIP3   OH228764   7.205   4.748   3.187
 9608TIP3    H128765   7.221   4.832   3.143
 9608TIP3    H228766   7.288   4.729   3.232
 9609TIP3   OH228767   8.276   4.064   0.291
 9609TIP3    H128768   8.219   4.135   0.319
 9609TIP3    H228769   8.217   4.002   0.247
 9610TIP3   OH228770   2.935   3.860   2.902
 9610TIP3    H128771   2.883   3.790   2.862
 9610TIP3    H228772   2.998   3.884   2.835
 9611TIP3   OH228773   2.969   7.610   1.959
 9611TIP3    H128774   3.062   7.602   1.936
 9611TIP3    H228775   2.970   7.636   2.051
 9612TIP3   OH228776   7.901   7.346   4.900
 9612TIP3    H128777   7.807   7.361   4.895
 9612TIP3    H228778   7.910   7.260   4.940
 9613TIP3   OH228779   8.064   7.656   3.658
 9613TIP3    H128780   7.973   7.677   3.640
 9613TIP3    H228781   8.103   7.738   3.690
 9614TIP3   OH228782   4.601   2.013   2.603
 9614TIP3    H128783   4.648   2.076   2.658
 9614TIP3    H228784   4.570   1.946   2.664
 9615TIP3   OH228785   8.130   5.922   6.290
 9615TIP3    H128786   8.198   5.979   6.327
 9615TIP3    H228787   8.078   5.980   6.235
 9616TIP3   OH228788   2.102   2.751   1.982
 9616TIP3    H128789   2.095   2.826   1.923
 9616TIP3    H228790   2.196   2.738   1.994
 9617TIP3   OH228791   1.504   3.271   0.145
 9617TIP3    H128792   1.478   3.363   0.151
 9617TIP3    H228793   1.554   3.265   0.064
 9618TIP3   OH228794   0.323   6.238   1.753
 9618TIP3    H128795   0.413   6.268   1.768
 9618TIP3    H228796   0.333   6.156   1.704
 9619TIP3   OH228797   5.819   3.748   6.080
 9619TIP3    H128798   5.767   3.671   6.059
 9619TIP3    H228799   5.778   3.785   6.159
 9620TIP3   OH228800   0.546   0.805   6.109
 9620TIP3    H128801   0.520   0.880   6.164
 9620TIP3    H228802   0.514   0.728   6.156
 9621TIP3   OH228803   1.540   7.850   2.903
 9621TIP3    H128804   1.606   7.918   2.895
 9621TIP3    H228805   1.538   7.830   2.997
 9622TIP3   OH228806   4.329   7.705   4.913
 9622TIP3    H128807   4.345   7.771   4.981
 9622TIP3    H228808   4.318   7.756   4.833
 9623TIP3   OH228809   2.931   6.090   5.831
 9623TIP3    H128810   2.894   6.128   5.751
 9623TIP3    H228811   2.856   6.082   5.890
 9624TIP3   OH228812   2.120   2.105   3.177
 9624TIP3    H128813   2.119   2.058   3.094
 9624TIP3    H228814   2.136   2.196   3.154
 9625TIP3   OH228815   0.443   7.575   4.027
 9625TIP3    H128816   0.485   7.620   4.100
 9625TIP3    H228817   0.413   7.645   3.969
 9626TIP3   OH228818   7.550   3.424   2.643
 9626TIP3    H128819   7.615   3.354   2.650
 9626TIP3    H228820   7.537   3.452   2.734
 9627TIP3   OH228821   5.958   2.894   1.388
 9627TIP3    H128822   6.045   2.931   1.380
 9627TIP3    H228823   5.968   2.801   1.367
 9628TIP3   OH228824   5.708   1.287   6.416
 9628TIP3    H128825   5.718   1.349   6.488
 9628TIP3    H228826   5.713   1.201   6.458
 9629TIP3   OH228827   6.918   5.994   4.255
 9629TIP3    H128828   6.939   5.901   4.241
 9629TIP3    H228829   6.847   6.012   4.194
 9630TIP3   OH228830   1.188   5.068   1.856
 9630TIP3    H128831   1.148   4.985   1.831
 9630TIP3    H228832   1.273   5.044   1.893
 9631TIP3   OH228833   1.704   5.266   0.102
 9631TIP3    H128834   1.743   5.210   0.170
 9631TIP3    H228835   1.771   5.332   0.084
 9632TIP3   OH228836   7.617   6.606   0.475
 9632TIP3    H128837   7.644   6.678   0.533
 9632TIP3    H228838   7.698   6.579   0.432
 9633TIP3   OH228839   3.880   4.416   4.670
 9633TIP3    H128840   3.798   4.437   4.626
 9633TIP3    H228841   3.903   4.329   4.636
 9634TIP3   OH228842   6.696   5.768   2.427
 9634TIP3    H128843   6.687   5.807   2.340
 9634TIP3    H228844   6.789   5.747   2.435
 9635TIP3   OH228845   1.473   4.021   0.694
 9635TIP3    H128846   1.463   4.114   0.714
 9635TIP3    H228847   1.550   4.017   0.636
 9636TIP3   OH228848   1.210   7.369   4.350
 9636TIP3    H128849   1.182   7.426   4.422
 9636TIP3    H228850   1.261   7.426   4.292
 9637TIP3   OH228851   7.854   6.955   5.543
 9637TIP3    H128852   7.855   6.934   5.636
 9637TIP3    H228853   7.823   6.875   5.500
 9638TIP3   OH228854   3.345   5.183   3.341
 9638TIP3    H128855   3.320   5.247   3.274
 9638TIP3    H228856   3.428   5.216   3.375
 9639TIP3   OH228857   5.996   3.806   3.543
 9639TIP3    H128858   6.050   3.824   3.466
 9639TIP3    H228859   5.907   3.798   3.509
 9640TIP3   OH228860   8.005   3.894   2.683
 9640TIP3    H128861   8.008   3.888   2.778
 9640TIP3    H228862   7.999   3.803   2.653
 9641TIP3   OH228863   2.966   1.415   5.753
 9641TIP3    H128864   2.892   1.430   5.812
 9641TIP3    H228865   2.995   1.326   5.773
 9642TIP3   OH228866   2.722   2.774   0.820
 9642TIP3    H128867   2.741   2.819   0.903
 9642TIP3    H228868   2.756   2.686   0.832
 9643TIP3   OH228869   1.512   6.445   4.455
 9643TIP3    H128870   1.522   6.526   4.405
 9643TIP3    H228871   1.530   6.375   4.392
 9644TIP3   OH228872   0.919   7.397   1.425
 9644TIP3    H128873   0.926   7.458   1.352
 9644TIP3    H228874   0.829   7.407   1.457
 9645TIP3   OH228875   5.879   7.649   1.319
 9645TIP3    H128876   5.975   7.647   1.326
 9645TIP3    H228877   5.849   7.601   1.397
 9646TIP3   OH228878   3.258   5.946   6.494
 9646TIP3    H128879   3.227   6.001   6.565
 9646TIP3    H228880   3.348   5.974   6.478
 9647TIP3   OH228881   6.767   0.335   2.077
 9647TIP3    H128882   6.705   0.277   2.121
 9647TIP3    H228883   6.831   0.358   2.144
 9648TIP3   OH228884   1.155   0.389   1.811
 9648TIP3    H128885   1.245   0.400   1.843
 9648TIP3    H228886   1.149   0.297   1.788
 9649TIP3   OH228887   3.015   7.731   3.986
 9649TIP3    H128888   2.980   7.726   3.897
 9649TIP3    H228889   2.938   7.747   4.041
 9650TIP3   OH228890   1.533   2.032   5.320
 9650TIP3    H128891   1.618   1.998   5.293
 9650TIP3    H228892   1.477   2.022   5.243
 9651TIP3   OH228893   5.637   1.683   4.552
 9651TIP3    H128894   5.601   1.755   4.605
 9651TIP3    H228895   5.727   1.709   4.535
 9652TIP3   OH228896   1.096   2.332   6.289
 9652TIP3    H128897   1.167   2.377   6.242
 9652TIP3    H228898   1.040   2.403   6.320
 9653TIP3   OH228899   6.811   4.393   1.321
 9653TIP3    H128900   6.744   4.457   1.346
 9653TIP3    H228901   6.785   4.364   1.234
 9654TIP3   OH228902   3.107   5.477   3.771
 9654TIP3    H128903   3.091   5.556   3.720
 9654TIP3    H228904   3.055   5.410   3.727
 9655TIP3   OH228905   5.374   5.977   6.614
 9655TIP3    H128906   5.332   6.036   6.552
 9655TIP3    H228907   5.453   5.946   6.567
 9656TIP3   OH228908   4.335   7.731   5.790
 9656TIP3    H128909   4.383   7.807   5.758
 9656TIP3    H228910   4.250   7.764   5.816
 9657TIP3   OH228911   7.879   5.268   2.957
 9657TIP3    H128912   7.811   5.335   2.949
 9657TIP3    H228913   7.944   5.306   3.016
 9658TIP3   OH228914   8.288   0.792   6.238
 9658TIP3    H128915   8.215   0.853   6.224
 9658TIP3    H228916   8.310   0.801   6.330
 9659TIP3   OH228917   5.075   0.806   4.657
 9659TIP3    H128918   5.087   0.839   4.569
 9659TIP3    H228919   5.003   0.743   4.650
 9660TIP3   OH228920   2.109   1.884   5.869
 9660TIP3    H128921   2.093   1.837   5.787
 9660TIP3    H228922   2.164   1.825   5.920
 9661TIP3   OH228923   5.747   2.807   6.151
 9661TIP3    H128924   5.665   2.843   6.118
 9661TIP3    H228925   5.721   2.734   6.206
 9662TIP3   OH228926   7.016   0.786   2.994
 9662TIP3    H128927   6.946   0.785   3.058
 9662TIP3    H228928   7.045   0.694   2.989
 9663TIP3   OH228929   4.002   3.880   3.328
 9663TIP3    H128930   4.064   3.849   3.262
 9663TIP3    H228931   3.922   3.831   3.312
 9664TIP3   OH228932   4.877   4.353   0.108
 9664TIP3    H128933   4.826   4.412   0.053
 9664TIP3    H228934   4.874   4.393   0.195
 9665TIP3   OH228935   3.116   6.990   4.842
 9665TIP3    H128936   3.208   6.964   4.848
 9665TIP3    H228937   3.068   6.921   4.887
 9666TIP3   OH228938   1.490   6.537   3.837
 9666TIP3    H128939   1.432   6.516   3.911
 9666TIP3    H228940   1.510   6.630   3.848
 9667TIP3   OH228941   0.004   6.351   2.617
 9667TIP3    H128942   0.042   6.381   2.699
 9667TIP3    H228943   0.038   6.262   2.606
 9668TIP3   OH228944   1.488   4.960   3.113
 9668TIP3    H128945   1.473   5.024   3.182
 9668TIP3    H228946   1.559   4.905   3.145
 9669TIP3   OH228947   7.389   2.275   5.738
 9669TIP3    H128948   7.319   2.339   5.753
 9669TIP3    H228949   7.345   2.202   5.695
 9670TIP3   OH228950   5.714   4.351   3.172
 9670TIP3    H128951   5.704   4.288   3.243
 9670TIP3    H228952   5.758   4.426   3.213
 9671TIP3   OH228953   1.848   6.485   1.422
 9671TIP3    H128954   1.937   6.520   1.427
 9671TIP3    H228955   1.796   6.542   1.478
 9672TIP3   OH228956   1.455   5.406  -0.002
 9672TIP3    H128957   1.530   5.381   0.052
 9672TIP3    H228958   1.447   5.500   0.010
 9673TIP3   OH228959   4.434   7.333   4.305
 9673TIP3    H128960   4.474   7.252   4.272
 9673TIP3    H228961   4.450   7.331   4.399
 9674TIP3   OH228962   3.076   0.214   3.814
 9674TIP3    H128963   3.120   0.286   3.769
 9674TIP3    H228964   3.069   0.244   3.905
 9675TIP3   OH228965   5.628   1.398   6.650
 9675TIP3    H128966   5.599   1.483   6.685
 9675TIP3    H228967   5.578   1.333   6.700
 9676TIP3   OH228968   5.419   3.157   2.462
 9676TIP3    H128969   5.422   3.244   2.422
 9676TIP3    H228970   5.474   3.164   2.539
 9677TIP3   OH228971   5.304   6.015   0.343
 9677TIP3    H128972   5.266   5.932   0.371
 9677TIP3    H228973   5.240   6.051   0.282
 9678TIP3   OH228974   7.908   0.921   2.807
 9678TIP3    H128975   7.827   0.908   2.857
 9678TIP3    H228976   7.880   0.964   2.726
 9679TIP3   OH228977   0.778   4.071   3.547
 9679TIP3    H128978   0.841   4.119   3.601
 9679TIP3    H228979   0.736   4.010   3.608
 9680TIP3   OH228980   0.441   3.292   5.986
 9680TIP3    H128981   0.475   3.354   6.051
 9680TIP3    H228982   0.410   3.218   6.037
 9681TIP3   OH228983   0.752   3.093   2.177
 9681TIP3    H128984   0.733   3.005   2.208
 9681TIP3    H228985   0.823   3.082   2.114
 9682TIP3   OH228986   1.694   5.509   6.652
 9682TIP3    H128987   1.609   5.465   6.649
 9682TIP3    H228988   1.707   5.530   6.745
 9683TIP3   OH228989   1.162   7.832   5.290
 9683TIP3    H128990   1.213   7.913   5.280
 9683TIP3    H228991   1.074   7.856   5.261
 9684TIP3   OH228992   0.132   6.813   6.098
 9684TIP3    H128993   0.191   6.887   6.104
 9684TIP3    H228994   0.140   6.768   6.182
 9685TIP3   OH228995   1.747   4.306   3.907
 9685TIP3    H128996   1.669   4.306   3.962
 9685TIP3    H228997   1.727   4.243   3.837
 9686TIP3   OH228998   4.776   0.634   0.037
 9686TIP3    H128999   4.760   0.540   0.032
 9686TIP3    H229000   4.871   0.642   0.032
 9687TIP3   OH229001   3.109   6.912   0.793
 9687TIP3    H129002   3.046   6.947   0.856
 9687TIP3    H229003   3.177   6.872   0.847
 9688TIP3   OH229004   2.752   6.736   0.554
 9688TIP3    H129005   2.683   6.708   0.495
 9688TIP3    H229006   2.747   6.675   0.628
 9689TIP3   OH229007   0.280   7.536   3.732
 9689TIP3    H129008   0.310   7.623   3.757
 9689TIP3    H229009   0.199   7.552   3.682
 9690TIP3   OH229010   5.259   0.215   0.348
 9690TIP3    H129011   5.317   0.237   0.275
 9690TIP3    H229012   5.176   0.259   0.327
 9691TIP3   OH229013   2.665   7.761   0.690
 9691TIP3    H129014   2.619   7.841   0.664
 9691TIP3    H229015   2.721   7.740   0.616
 9692TIP3   OH229016   8.356   3.716   1.298
 9692TIP3    H129017   8.272   3.753   1.273
 9692TIP3    H229018   8.346   3.694   1.391
 9693TIP3   OH229019   3.736   3.225   2.309
 9693TIP3    H129020   3.787   3.301   2.338
 9693TIP3    H229021   3.762   3.155   2.369
 9694TIP3   OH229022   3.557   1.523   5.169
 9694TIP3    H129023   3.604   1.569   5.238
 9694TIP3    H229024   3.584   1.567   5.088
 9695TIP3   OH229025   8.178   0.119   2.863
 9695TIP3    H129026   8.252   0.085   2.813
 9695TIP3    H229027   8.146   0.193   2.811
 9696TIP3   OH229028   7.814   5.795   6.425
 9696TIP3    H129029   7.869   5.853   6.477
 9696TIP3    H229030   7.871   5.721   6.403
 9697TIP3   OH229031   7.635   1.902   0.630
 9697TIP3    H129032   7.689   1.925   0.555
 9697TIP3    H229033   7.545   1.917   0.601
 9698TIP3   OH229034   6.635   0.677   2.891
 9698TIP3    H129035   6.567   0.743   2.880
 9698TIP3    H229036   6.696   0.691   2.818
 9699TIP3   OH229037   7.336   6.371   6.315
 9699TIP3    H129038   7.309   6.307   6.381
 9699TIP3    H229039   7.432   6.370   6.318
 9700TIP3   OH229040   1.617   2.576   2.857
 9700TIP3    H129041   1.617   2.647   2.921
 9700TIP3    H229042   1.708   2.568   2.830
 9701TIP3   OH229043   2.679   2.389   6.570
 9701TIP3    H129044   2.678   2.351   6.657
 9701TIP3    H229045   2.593   2.367   6.533
 9702TIP3   OH229046   4.195   3.595   2.317
 9702TIP3    H129047   4.149   3.647   2.252
 9702TIP3    H229048   4.273   3.563   2.271
 9703TIP3   OH229049   2.120   0.101   5.206
 9703TIP3    H129050   2.057   0.132   5.271
 9703TIP3    H229051   2.201   0.088   5.255
 9704TIP3   OH229052  -0.019   0.464   5.931
 9704TIP3    H129053  -0.067   0.495   6.008
 9704TIP3    H229054   0.037   0.537   5.905
 9705TIP3   OH229055   0.337   2.387   0.255
 9705TIP3    H129056   0.344   2.338   0.337
 9705TIP3    H229057   0.427   2.394   0.224
 9706TIP3   OH229058   2.279   5.239   2.038
 9706TIP3    H129059   2.292   5.289   1.958
 9706TIP3    H229060   2.238   5.157   2.009
 9707TIP3   OH229061   0.200   5.358   4.294
 9707TIP3    H129062   0.197   5.406   4.377
 9707TIP3    H229063   0.225   5.269   4.319
 9708TIP3   OH229064   4.399   4.324   5.309
 9708TIP3    H129065   4.459   4.263   5.267
 9708TIP3    H229066   4.398   4.297   5.401
 9709TIP3   OH229067   3.269   2.663   1.333
 9709TIP3    H129068   3.256   2.569   1.322
 9709TIP3    H229069   3.318   2.690   1.256
 9710TIP3   OH229070   5.701   1.397   3.092
 9710TIP3    H129071   5.648   1.419   3.168
 9710TIP3    H229072   5.648   1.424   3.017
 9711TIP3   OH229073   5.362   1.880   5.149
 9711TIP3    H129074   5.349   1.852   5.240
 9711TIP3    H229075   5.290   1.840   5.101
 9712TIP3   OH229076   7.773   6.177   6.558
 9712TIP3    H129077   7.739   6.164   6.647
 9712TIP3    H229078   7.852   6.123   6.554
 9713TIP3   OH229079   6.702   5.072   2.737
 9713TIP3    H129080   6.683   4.998   2.680
 9713TIP3    H229081   6.759   5.037   2.806
 9714TIP3   OH229082   2.085   1.302   1.203
 9714TIP3    H129083   1.993   1.294   1.229
 9714TIP3    H229084   2.097   1.236   1.135
 9715TIP3   OH229085   1.053   3.210   2.976
 9715TIP3    H129086   1.112   3.168   3.039
 9715TIP3    H229087   1.104   3.220   2.896
 9716TIP3   OH229088   2.044   5.799   1.885
 9716TIP3    H129089   2.107   5.761   1.825
 9716TIP3    H229090   1.965   5.746   1.874
 9717TIP3   OH229091   2.097   5.416   3.321
 9717TIP3    H129092   2.050   5.497   3.339
 9717TIP3    H229093   2.189   5.442   3.312
 9718TIP3   OH229094   3.199   3.149   3.012
 9718TIP3    H129095   3.109   3.180   3.010
 9718TIP3    H229096   3.192   3.054   3.017
 9719TIP3   OH229097   1.982   3.923   0.046
 9719TIP3    H129098   1.932   3.966  -0.024
 9719TIP3    H229099   1.958   3.972   0.125
 9720TIP3   OH229100   5.890   5.547   6.684
 9720TIP3    H129101   5.963   5.527   6.625
 9720TIP3    H229102   5.824   5.588   6.629
 9721TIP3   OH229103   5.760   3.735   6.673
 9721TIP3    H129104   5.707   3.658   6.653
 9721TIP3    H229105   5.711   3.781   6.741
 9722TIP3   OH229106   4.601   1.815   3.885
 9722TIP3    H129107   4.584   1.753   3.814
 9722TIP3    H229108   4.529   1.877   3.880
 9723TIP3   OH229109   0.122   2.710   1.813
 9723TIP3    H129110   0.028   2.711   1.796
 9723TIP3    H229111   0.153   2.626   1.779
 9724TIP3   OH229112   6.657   5.900   3.959
 9724TIP3    H129113   6.725   5.940   3.905
 9724TIP3    H229114   6.618   5.833   3.904
 9725TIP3   OH229115   2.184   0.006   5.764
 9725TIP3    H129116   2.210   0.098   5.757
 9725TIP3    H229117   2.129   0.001   5.841
 9726TIP3   OH229118   7.897   2.971   6.088
 9726TIP3    H129119   7.941   2.949   6.170
 9726TIP3    H229120   7.805   2.982   6.112
 9727TIP3   OH229121   2.644   7.258   0.216
 9727TIP3    H129122   2.720   7.292   0.168
 9727TIP3    H229123   2.571   7.311   0.187
 9728TIP3   OH229124   3.263   7.644   6.636
 9728TIP3    H129125   3.272   7.687   6.722
 9728TIP3    H229126   3.259   7.551   6.657
 9729TIP3   OH229127   6.423   2.091   3.026
 9729TIP3    H129128   6.488   2.072   2.959
 9729TIP3    H229129   6.413   2.187   3.024
 9730TIP3   OH229130   7.661   4.970   6.225
 9730TIP3    H129131   7.588   5.023   6.193
 9730TIP3    H229132   7.676   4.905   6.156
 9731TIP3   OH229133   0.237   5.776   2.478
 9731TIP3    H129134   0.238   5.708   2.546
 9731TIP3    H229135   0.205   5.730   2.400
 9732TIP3   OH229136   1.372   4.211   4.511
 9732TIP3    H129137   1.319   4.138   4.543
 9732TIP3    H229138   1.326   4.290   4.542
 9733TIP3   OH229139   5.200   4.624   3.420
 9733TIP3    H129140   5.273   4.564   3.408
 9733TIP3    H229141   5.240   4.711   3.427
 9734TIP3   OH229142   0.691   6.587   5.009
 9734TIP3    H129143   0.650   6.663   4.968
 9734TIP3    H229144   0.758   6.624   5.067
 9735TIP3   OH229145   5.437   5.288   3.045
 9735TIP3    H129146   5.451   5.314   2.954
 9735TIP3    H229147   5.349   5.319   3.066
 9736TIP3   OH229148   4.277   5.970   2.240
 9736TIP3    H129149   4.182   5.956   2.242
 9736TIP3    H229150   4.292   6.038   2.305
 9737TIP3   OH229151   0.492   5.305   6.589
 9737TIP3    H129152   0.458   5.223   6.625
 9737TIP3    H229153   0.491   5.292   6.494
 9738TIP3   OH229154   5.323   6.468   2.570
 9738TIP3    H129155   5.368   6.528   2.629
 9738TIP3    H229156   5.316   6.516   2.487
 9739TIP3   OH229157   2.985   5.115   6.573
 9739TIP3    H129158   3.071   5.109   6.532
 9739TIP3    H229159   3.004   5.133   6.666
 9740TIP3   OH229160   2.453   0.695   5.609
 9740TIP3    H129161   2.542   0.724   5.632
 9740TIP3    H229162   2.455   0.684   5.514
 9741TIP3   OH229163   0.668   1.734   6.622
 9741TIP3    H129164   0.590   1.678   6.629
 9741TIP3    H229165   0.644   1.813   6.670
 9742TIP3   OH229166   0.554   0.212   1.272
 9742TIP3    H129167   0.516   0.135   1.314
 9742TIP3    H229168   0.647   0.209   1.294
 9743TIP3   OH229169   0.435   0.428   3.112
 9743TIP3    H129170   0.355   0.430   3.164
 9743TIP3    H229171   0.506   0.433   3.176
 9744TIP3   OH229172   0.969   4.371   3.494
 9744TIP3    H129173   1.033   4.337   3.431
 9744TIP3    H229174   0.885   4.358   3.451
 9745TIP3   OH229175   1.939   7.738   2.182
 9745TIP3    H129176   1.867   7.727   2.243
 9745TIP3    H229177   1.899   7.729   2.095
 9746TIP3   OH229178   7.476   7.662   3.429
 9746TIP3    H129179   7.422   7.719   3.374
 9746TIP3    H229180   7.415   7.594   3.459
 9747TIP3   OH229181   7.690   7.094   1.869
 9747TIP3    H129182   7.690   6.998   1.867
 9747TIP3    H229183   7.780   7.118   1.851
 9748TIP3   OH229184   7.505   6.996   5.561
 9748TIP3    H129185   7.518   7.061   5.492
 9748TIP3    H229186   7.487   7.048   5.639
 9749TIP3   OH229187   5.349   1.319   1.877
 9749TIP3    H129188   5.302   1.379   1.935
 9749TIP3    H229189   5.435   1.309   1.918
 9750TIP3   OH229190   5.166   2.483   6.073
 9750TIP3    H129191   5.204   2.522   5.995
 9750TIP3    H229192   5.170   2.552   6.139
 9751TIP3   OH229193   7.549   3.188   2.157
 9751TIP3    H129194   7.518   3.162   2.244
 9751TIP3    H229195   7.643   3.173   2.160
 9752TIP3   OH229196   1.238   5.517   1.764
 9752TIP3    H129197   1.265   5.567   1.841
 9752TIP3    H229198   1.142   5.522   1.765
 9753TIP3   OH229199   0.750   1.107   3.389
 9753TIP3    H129200   0.842   1.089   3.371
 9753TIP3    H229201   0.729   1.052   3.465
 9754TIP3   OH229202   4.739   3.103   3.128
 9754TIP3    H129203   4.692   3.159   3.189
 9754TIP3    H229204   4.670   3.061   3.076
 9755TIP3   OH229205   1.302   7.486   2.976
 9755TIP3    H129206   1.314   7.435   2.896
 9755TIP3    H229207   1.311   7.421   3.046
 9756TIP3   OH229208   0.936   4.867   5.550
 9756TIP3    H129209   0.969   4.955   5.532
 9756TIP3    H229210   0.891   4.841   5.469
 9757TIP3   OH229211   7.044   5.219   0.267
 9757TIP3    H129212   7.112   5.175   0.215
 9757TIP3    H229213   7.088   5.298   0.300
 9758TIP3   OH229214   0.992   1.009   3.300
 9758TIP3    H129215   1.085   1.004   3.323
 9758TIP3    H229216   0.963   0.918   3.296
 9759TIP3   OH229217   5.817   2.728   0.530
 9759TIP3    H129218   5.887   2.786   0.560
 9759TIP3    H229219   5.742   2.752   0.585
 9760TIP3   OH229220   2.549   1.520   5.367
 9760TIP3    H129221   2.458   1.496   5.383
 9760TIP3    H229222   2.544   1.611   5.336
 9761TIP3   OH229223   8.177   3.367   2.929
 9761TIP3    H129224   8.102   3.356   2.987
 9761TIP3    H229225   8.252   3.375   2.989
 9762TIP3   OH229226   6.495   0.284   6.793
 9762TIP3    H129227   6.586   0.269   6.770
 9762TIP3    H229228   6.493   0.282   6.889
 9763TIP3   OH229229   5.392   7.279   5.842
 9763TIP3    H129230   5.440   7.323   5.912
 9763TIP3    H229231   5.378   7.190   5.875
 9764TIP3   OH229232   0.069   5.054   3.371
 9764TIP3    H129233   0.015   5.015   3.439
 9764TIP3    H229234   0.075   4.986   3.303
 9765TIP3   OH229235   3.985   7.362   5.885
 9765TIP3    H129236   3.943   7.379   5.800
 9765TIP3    H229237   4.078   7.363   5.865
 9766TIP3   OH229238   2.129   3.840   5.948
 9766TIP3    H129239   2.128   3.932   5.921
 9766TIP3    H229240   2.069   3.797   5.887
 9767TIP3   OH229241   3.559   5.084   4.369
 9767TIP3    H129242   3.606   5.144   4.311
 9767TIP3    H229243   3.493   5.044   4.313
 9768TIP3   OH229244   6.358   1.567   6.229
 9768TIP3    H129245   6.377   1.660   6.242
 9768TIP3    H229246   6.369   1.528   6.316
 9769TIP3   OH229247   0.951   6.448   6.626
 9769TIP3    H129248   1.032   6.496   6.612
 9769TIP3    H229249   0.885   6.497   6.577
 9770TIP3   OH229250   7.302   2.860   2.943
 9770TIP3    H129251   7.327   2.950   2.961
 9770TIP3    H229252   7.270   2.861   2.853
 9771TIP3   OH229253   7.063   7.846   6.234
 9771TIP3    H129254   7.154   7.818   6.244
 9771TIP3    H229255   7.018   7.770   6.198
 9772TIP3   OH229256   1.343   4.643   6.623
 9772TIP3    H129257   1.378   4.628   6.711
 9772TIP3    H229258   1.399   4.589   6.566
 9773TIP3   OH229259   7.801   1.520   6.764
 9773TIP3    H129260   7.858   1.518   6.688
 9773TIP3    H229261   7.849   1.473   6.832
 9774TIP3   OH229262   4.116   1.955   0.656
 9774TIP3    H129263   4.211   1.969   0.652
 9774TIP3    H229264   4.092   1.976   0.746
 9775TIP3   OH229265   0.370   1.047   2.596
 9775TIP3    H129266   0.326   1.118   2.642
 9775TIP3    H229267   0.329   1.044   2.510
 9776TIP3   OH229268   6.427   1.844   1.475
 9776TIP3    H129269   6.450   1.752   1.466
 9776TIP3    H229270   6.426   1.877   1.385
 9777TIP3   OH229271   0.865   7.248   6.828
 9777TIP3    H129272   0.933   7.287   6.772
 9777TIP3    H229273   0.849   7.162   6.790
 9778TIP3   OH229274   4.563   1.453   3.992
 9778TIP3    H129275   4.483   1.502   4.005
 9778TIP3    H229276   4.539   1.383   3.930
 9779TIP3   OH229277   2.230   4.312   2.508
 9779TIP3    H129278   2.257   4.373   2.576
 9779TIP3    H229279   2.298   4.320   2.440
 9780TIP3   OH229280   1.890   0.691   4.139
 9780TIP3    H129281   1.843   0.612   4.166
 9780TIP3    H229282   1.950   0.709   4.211
 9781TIP3   OH229283   7.758   6.144   5.630
 9781TIP3    H129284   7.708   6.220   5.601
 9781TIP3    H229285   7.695   6.072   5.630
 9782TIP3   OH229286   7.327   2.304   5.458
 9782TIP3    H129287   7.414   2.280   5.425
 9782TIP3    H229288   7.343   2.373   5.521
 9783TIP3   OH229289   5.780   6.152   4.202
 9783TIP3    H129290   5.799   6.187   4.115
 9783TIP3    H229291   5.713   6.085   4.186
 9784TIP3   OH229292   0.366   5.552   3.402
 9784TIP3    H129293   0.328   5.465   3.391
 9784TIP3    H229294   0.394   5.554   3.494
 9785TIP3   OH229295   8.231   7.814   2.518
 9785TIP3    H129296   8.181   7.737   2.544
 9785TIP3    H229297   8.209   7.881   2.583
 9786TIP3   OH229298   6.966   3.053   2.541
 9786TIP3    H129299   6.956   3.058   2.636
 9786TIP3    H229300   6.934   3.137   2.509
 9787TIP3   OH229301   0.566   1.141   1.033
 9787TIP3    H129302   0.532   1.132   1.122
 9787TIP3    H229303   0.650   1.095   1.034
 9788TIP3   OH229304   0.418   5.578   3.698
 9788TIP3    H129305   0.449   5.657   3.742
 9788TIP3    H229306   0.425   5.510   3.765
 9789TIP3   OH229307   4.633   7.379   0.722
 9789TIP3    H129308   4.565   7.447   0.729
 9789TIP3    H229309   4.714   7.425   0.745
 9790TIP3   OH229310   6.322   2.263   6.222
 9790TIP3    H129311   6.358   2.329   6.281
 9790TIP3    H229312   6.397   2.209   6.199
 9791TIP3   OH229313   7.144   5.906   6.509
 9791TIP3    H129314   7.048   5.908   6.511
 9791TIP3    H229315   7.170   5.928   6.598
 9792TIP3   OH229316   5.362   4.148   0.467
 9792TIP3    H129317   5.306   4.114   0.537
 9792TIP3    H229318   5.389   4.070   0.418
 9793TIP3   OH229319   4.776   0.984   6.665
 9793TIP3    H129320   4.752   0.944   6.749
 9793TIP3    H229321   4.704   0.961   6.606
 9794TIP3   OH229322   6.298   7.576   1.858
 9794TIP3    H129323   6.283   7.593   1.765
 9794TIP3    H229324   6.284   7.660   1.901
 9795TIP3   OH229325   5.705   1.554   3.365
 9795TIP3    H129326   5.781   1.571   3.420
 9795TIP3    H229327   5.648   1.499   3.419
 9796TIP3   OH229328   6.577   6.076   1.321
 9796TIP3    H129329   6.495   6.125   1.310
 9796TIP3    H229330   6.548   5.987   1.342
 9797TIP3   OH229331   0.968   7.649   5.917
 9797TIP3    H129332   0.946   7.716   5.853
 9797TIP3    H229333   1.064   7.642   5.912
 9798TIP3   OH229334   7.566   5.529   6.373
 9798TIP3    H129335   7.621   5.532   6.295
 9798TIP3    H229336   7.602   5.457   6.425
 9799TIP3   OH229337   7.807   1.712   3.946
 9799TIP3    H129338   7.777   1.651   3.879
 9799TIP3    H229339   7.865   1.772   3.900
 9800TIP3   OH229340   4.716   5.827   0.774
 9800TIP3    H129341   4.698   5.910   0.818
 9800TIP3    H229342   4.744   5.768   0.844
 9801TIP3   OH229343   1.424   6.781   2.992
 9801TIP3    H129344   1.416   6.717   3.063
 9801TIP3    H229345   1.500   6.752   2.942
 9802TIP3   OH229346   0.031   5.861   1.078
 9802TIP3    H129347   0.030   5.895   0.988
 9802TIP3    H229348   0.101   5.911   1.121
 9803TIP3   OH229349   3.503   3.521   3.494
 9803TIP3    H129350   3.450   3.505   3.572
 9803TIP3    H229351   3.543   3.606   3.509
 9804TIP3   OH229352   7.205   5.038   1.044
 9804TIP3    H129353   7.173   5.007   0.959
 9804TIP3    H229354   7.292   4.998   1.052
 9805TIP3   OH229355   0.853   7.254   0.035
 9805TIP3    H129356   0.795   7.305  -0.021
 9805TIP3    H229357   0.845   7.294   0.121
 9806TIP3   OH229358   0.652   7.726   1.822
 9806TIP3    H129359   0.717   7.789   1.793
 9806TIP3    H229360   0.703   7.648   1.846
 9807TIP3   OH229361   1.136   3.471   0.934
 9807TIP3    H129362   1.232   3.474   0.932
 9807TIP3    H229363   1.111   3.451   0.843
 9808TIP3   OH229364   5.512   1.569   5.230
 9808TIP3    H129365   5.421   1.543   5.241
 9808TIP3    H229366   5.543   1.519   5.155
 9809TIP3   OH229367   0.362   3.748   5.187
 9809TIP3    H129368   0.326   3.824   5.232
 9809TIP3    H229369   0.392   3.782   5.103
 9810TIP3   OH229370   7.105   3.850   6.106
 9810TIP3    H129371   7.116   3.759   6.135
 9810TIP3    H229372   7.079   3.897   6.185
 9811TIP3   OH229373   5.159   2.394   3.000
 9811TIP3    H129374   5.088   2.373   2.940
 9811TIP3    H229375   5.239   2.386   2.948
 9812TIP3   OH229376   5.699   6.751   2.385
 9812TIP3    H129377   5.685   6.662   2.415
 9812TIP3    H229378   5.629   6.802   2.426
 9813TIP3   OH229379   5.542   7.589   5.856
 9813TIP3    H129380   5.503   7.674   5.877
 9813TIP3    H229381   5.632   7.610   5.830
 9814TIP3   OH229382   7.557   3.072   0.324
 9814TIP3    H129383   7.600   3.144   0.371
 9814TIP3    H229384   7.627   3.010   0.305
 9815TIP3   OH229385   1.715   6.027   6.516
 9815TIP3    H129386   1.621   6.042   6.521
 9815TIP3    H229387   1.736   5.979   6.597
 9816TIP3   OH229388   1.514   2.344   4.795
 9816TIP3    H129389   1.549   2.432   4.779
 9816TIP3    H229390   1.496   2.342   4.889
 9817TIP3   OH229391   2.371   4.074   2.907
 9817TIP3    H129392   2.359   4.097   2.815
 9817TIP3    H229393   2.357   4.157   2.954
 9818TIP3   OH229394   6.856   3.016   3.267
 9818TIP3    H129395   6.822   2.927   3.265
 9818TIP3    H229396   6.944   3.007   3.304
 9819TIP3   OH229397   4.869   6.232   5.838
 9819TIP3    H129398   4.960   6.204   5.836
 9819TIP3    H229399   4.872   6.326   5.824
 9820TIP3   OH229400   5.971   5.361   4.971
 9820TIP3    H129401   5.943   5.415   5.044
 9820TIP3    H229402   5.892   5.315   4.943
 9821TIP3   OH229403   6.071   6.566   3.583
 9821TIP3    H129404   6.032   6.494   3.534
 9821TIP3    H229405   6.027   6.644   3.549
 9822TIP3   OH229406   3.886   0.822   0.569
 9822TIP3    H129407   3.828   0.812   0.494
 9822TIP3    H229408   3.921   0.735   0.585
 9823TIP3   OH229409   5.165   7.105   2.812
 9823TIP3    H129410   5.149   7.167   2.741
 9823TIP3    H229411   5.121   7.025   2.785
 9824TIP3   OH229412   8.364   2.298   5.522
 9824TIP3    H129413   8.386   2.391   5.528
 9824TIP3    H229414   8.440   2.258   5.480
 9825TIP3   OH229415   3.326   0.055   6.518
 9825TIP3    H129416   3.253   0.101   6.476
 9825TIP3    H229417   3.287  -0.024   6.555
 9826TIP3   OH229418   7.669   7.598   4.818
 9826TIP3    H129419   7.676   7.511   4.779
 9826TIP3    H229420   7.659   7.582   4.912
 9827TIP3   OH229421   2.470   1.293   0.409
 9827TIP3    H129422   2.493   1.384   0.390
 9827TIP3    H229423   2.552   1.253   0.438
 9828TIP3   OH229424   4.934   6.825   0.380
 9828TIP3    H129425   4.950   6.821   0.285
 9828TIP3    H229426   5.010   6.873   0.414
 9829TIP3   OH229427   5.436   2.952   4.418
 9829TIP3    H129428   5.402   2.874   4.374
 9829TIP3    H229429   5.526   2.928   4.443
 9830TIP3   OH229430   7.340   0.699   6.197
 9830TIP3    H129431   7.397   0.641   6.247
 9830TIP3    H229432   7.312   0.647   6.122
 9831TIP3   OH229433   3.507   6.592   2.763
 9831TIP3    H129434   3.570   6.607   2.834
 9831TIP3    H229435   3.447   6.666   2.768
 9832TIP3   OH229436   0.355   7.305   0.090
 9832TIP3    H129437   0.379   7.331   0.001
 9832TIP3    H229438   0.393   7.373   0.145
 9833TIP3   OH229439   2.334   5.205   6.008
 9833TIP3    H129440   2.240   5.219   6.014
 9833TIP3    H229441   2.351   5.191   5.915
 9834TIP3   OH229442   5.587   0.242   5.371
 9834TIP3    H129443   5.657   0.258   5.309
 9834TIP3    H229444   5.627   0.254   5.457
 9835TIP3   OH229445   0.710   7.590   0.130
 9835TIP3    H129446   0.652   7.543   0.070
 9835TIP3    H229447   0.699   7.545   0.214
 9836TIP3   OH229448   5.195   0.441   5.948
 9836TIP3    H129449   5.105   0.475   5.947
 9836TIP3    H229450   5.250   0.519   5.939
 9837TIP3   OH229451   7.993   5.722   1.316
 9837TIP3    H129452   8.036   5.740   1.233
 9837TIP3    H229453   7.935   5.648   1.298
 9838TIP3   OH229454   7.470   3.061   1.087
 9838TIP3    H129455   7.375   3.063   1.097
 9838TIP3    H229456   7.493   2.968   1.092
 9839TIP3   OH229457   6.404   0.682   0.161
 9839TIP3    H129458   6.450   0.640   0.233
 9839TIP3    H229459   6.312   0.679   0.186
 9840TIP3   OH229460   7.745   2.825   1.301
 9840TIP3    H129461   7.671   2.818   1.362
 9840TIP3    H229462   7.821   2.801   1.353
 9841TIP3   OH229463   2.982   1.824   2.086
 9841TIP3    H129464   3.008   1.831   1.994
 9841TIP3    H229465   3.057   1.780   2.128
 9842TIP3   OH229466   3.886   5.437   4.600
 9842TIP3    H129467   3.862   5.513   4.547
 9842TIP3    H229468   3.980   5.425   4.583
 9843TIP3   OH229469   4.135   6.582   0.858
 9843TIP3    H129470   4.060   6.632   0.891
 9843TIP3    H229471   4.180   6.552   0.937
 9844TIP3   OH229472   6.800   3.514   4.327
 9844TIP3    H129473   6.836   3.440   4.279
 9844TIP3    H229474   6.720   3.536   4.280
 9845TIP3   OH229475   0.391   5.911   0.571
 9845TIP3    H129476   0.345   5.861   0.504
 9845TIP3    H229477   0.355   5.880   0.654
 9846TIP3   OH229478   6.076   1.213   0.535
 9846TIP3    H129479   6.095   1.284   0.474
 9846TIP3    H229480   6.137   1.143   0.510
 9847TIP3   OH229481   4.240   2.535   2.979
 9847TIP3    H129482   4.287   2.617   2.965
 9847TIP3    H229483   4.285   2.471   2.923
 9848TIP3   OH229484   0.494   6.420   6.554
 9848TIP3    H129485   0.402   6.446   6.553
 9848TIP3    H229486   0.542   6.503   6.544
 9849TIP3   OH229487   3.350   0.177   6.180
 9849TIP3    H129488   3.419   0.192   6.245
 9849TIP3    H229489   3.368   0.241   6.111
 9850TIP3   OH229490   2.197   1.531   3.365
 9850TIP3    H129491   2.231   1.560   3.280
 9850TIP3    H229492   2.102   1.532   3.355
 9851TIP3   OH229493   5.721   4.107   6.225
 9851TIP3    H129494   5.734   4.017   6.254
 9851TIP3    H229495   5.639   4.106   6.176
 9852TIP3   OH229496   3.524   0.255   4.428
 9852TIP3    H129497   3.572   0.203   4.492
 9852TIP3    H229498   3.498   0.333   4.476
 9853TIP3   OH229499   6.159   3.918   5.633
 9853TIP3    H129500   6.184   3.890   5.721
 9853TIP3    H229501   6.064   3.905   5.629
 9854TIP3   OH229502   2.447   2.339   2.068
 9854TIP3    H129503   2.380   2.329   2.136
 9854TIP3    H229504   2.449   2.254   2.024
 9855TIP3   OH229505   3.825   5.468   0.505
 9855TIP3    H129506   3.833   5.401   0.438
 9855TIP3    H229507   3.916   5.487   0.531
 9856TIP3   OH229508   8.294   5.399   0.286
 9856TIP3    H129509   8.255   5.468   0.339
 9856TIP3    H229510   8.352   5.444   0.225
 9857TIP3   OH229511   2.123   7.637   0.061
 9857TIP3    H129512   2.116   7.546   0.031
 9857TIP3    H229513   2.036   7.657   0.097
 9858TIP3   OH229514   0.989   5.642   4.501
 9858TIP3    H129515   1.039   5.578   4.552
 9858TIP3    H229516   0.902   5.644   4.542
 9859TIP3   OH229517   3.059   6.332   6.560
 9859TIP3    H129518   3.099   6.322   6.647
 9859TIP3    H229519   3.133   6.349   6.501
 9860TIP3   OH229520   3.141  -0.020   2.729
 9860TIP3    H129521   3.089   0.007   2.653
 9860TIP3    H229522   3.127   0.050   2.793
 9861TIP3   OH229523   1.981   2.637   0.512
 9861TIP3    H129524   1.996   2.552   0.552
 9861TIP3    H229525   1.887   2.652   0.521
 9862TIP3   OH229526   0.483   6.781   5.831
 9862TIP3    H129527   0.407   6.791   5.773
 9862TIP3    H229528   0.504   6.687   5.826
 9863TIP3   OH229529   1.000   3.273   0.657
 9863TIP3    H129530   0.924   3.269   0.714
 9863TIP3    H229531   1.023   3.182   0.640
 9864TIP3   OH229532   1.096   4.631   0.890
 9864TIP3    H129533   1.188   4.622   0.866
 9864TIP3    H229534   1.065   4.541   0.903
 9865TIP3   OH229535   0.755   5.217   4.779
 9865TIP3    H129536   0.821   5.269   4.734
 9865TIP3    H229537   0.736   5.265   4.859
 9866TIP3   OH229538   2.901   1.158   6.290
 9866TIP3    H129539   2.941   1.201   6.215
 9866TIP3    H229540   2.924   1.066   6.280
 9867TIP3   OH229541   7.215   1.069   5.255
 9867TIP3    H129542   7.258   0.987   5.229
 9867TIP3    H229543   7.279   1.114   5.309
 9868TIP3   OH229544   2.988   2.760   6.648
 9868TIP3    H129545   2.943   2.739   6.566
 9868TIP3    H229546   3.061   2.698   6.652
 9869TIP3   OH229547   3.581   1.896   3.288
 9869TIP3    H129548   3.554   1.829   3.226
 9869TIP3    H229549   3.500   1.942   3.311
 9870TIP3   OH229550   7.504   2.974   4.083
 9870TIP3    H129551   7.565   2.998   4.014
 9870TIP3    H229552   7.518   2.880   4.097
 9871TIP3   OH229553   3.377   1.222   1.486
 9871TIP3    H129554   3.465   1.260   1.486
 9871TIP3    H229555   3.333   1.264   1.559
 9872TIP3   OH229556   3.143   5.814   3.124
 9872TIP3    H129557   3.153   5.909   3.115
 9872TIP3    H229558   3.199   5.777   3.057
 9873TIP3   OH229559   3.078   5.928   5.476
 9873TIP3    H129560   3.142   5.858   5.463
 9873TIP3    H229561   3.040   5.911   5.563
 9874TIP3   OH229562   7.805   7.897   1.903
 9874TIP3    H129563   7.745   7.920   1.974
 9874TIP3    H229564   7.877   7.851   1.945
 9875TIP3   OH229565   7.243   7.351   2.352
 9875TIP3    H129566   7.203   7.399   2.279
 9875TIP3    H229567   7.174   7.348   2.419
 9876TIP3   OH229568   5.725   5.333   4.530
 9876TIP3    H129569   5.782   5.382   4.471
 9876TIP3    H229570   5.636   5.351   4.498
 9877TIP3   OH229571   1.694   4.099   0.546
 9877TIP3    H129572   1.657   4.187   0.550
 9877TIP3    H229573   1.747   4.098   0.467
 9878TIP3   OH229574   4.219   3.309   1.207
 9878TIP3    H129575   4.165   3.236   1.236
 9878TIP3    H229576   4.212   3.308   1.112
 9879TIP3   OH229577   0.469   4.413   0.767
 9879TIP3    H129578   0.420   4.453   0.695
 9879TIP3    H229579   0.427   4.445   0.846
 9880TIP3   OH229580   3.638   7.860   5.086
 9880TIP3    H129581   3.612   7.861   4.994
 9880TIP3    H229582   3.728   7.892   5.086
 9881TIP3   OH229583   7.532   7.122   0.139
 9881TIP3    H129584   7.509   7.211   0.165
 9881TIP3    H229585   7.457   7.069   0.168
 9882TIP3   OH229586   8.371   1.655   5.406
 9882TIP3    H129587   8.441   1.691   5.460
 9882TIP3    H229588   8.378   1.703   5.323
 9883TIP3   OH229589   7.954   4.534   2.344
 9883TIP3    H129590   7.997   4.456   2.380
 9883TIP3    H229591   7.954   4.596   2.416
 9884TIP3   OH229592   7.221   6.345   5.893
 9884TIP3    H129593   7.170   6.420   5.925
 9884TIP3    H229594   7.184   6.270   5.939
 9885TIP3   OH229595   8.283   3.578   3.997
 9885TIP3    H129596   8.282   3.533   3.912
 9885TIP3    H229597   8.217   3.533   4.049
 9886TIP3   OH229598   4.252   5.812   0.804
 9886TIP3    H129599   4.311   5.818   0.879
 9886TIP3    H229600   4.287   5.873   0.740
 9887TIP3   OH229601   5.150   2.248   6.680
 9887TIP3    H129602   5.128   2.193   6.605
 9887TIP3    H229603   5.197   2.323   6.642
 9888TIP3   OH229604   2.979   5.933   0.951
 9888TIP3    H129605   2.893   5.944   0.991
 9888TIP3    H229606   3.034   6.000   0.991
 9889TIP3   OH229607   5.665   6.068   4.795
 9889TIP3    H129608   5.581   6.099   4.763
 9889TIP3    H229609   5.647   6.036   4.883
 9890TIP3   OH229610   3.604   2.312   4.568
 9890TIP3    H129611   3.560   2.229   4.548
 9890TIP3    H229612   3.623   2.350   4.482
 9891TIP3   OH229613   0.515   3.173   3.599
 9891TIP3    H129614   0.549   3.220   3.675
 9891TIP3    H229615   0.496   3.242   3.535
 9892TIP3   OH229616   4.085   1.408   6.251
 9892TIP3    H129617   4.011   1.428   6.309
 9892TIP3    H229618   4.162   1.414   6.308
 9893TIP3   OH229619   1.517   3.326   1.536
 9893TIP3    H129620   1.490   3.405   1.490
 9893TIP3    H229621   1.435   3.279   1.553
 9894TIP3   OH229622   0.303   6.970   1.356
 9894TIP3    H129623   0.284   7.006   1.269
 9894TIP3    H229624   0.303   6.875   1.342
 9895TIP3   OH229625   5.958   6.405   6.693
 9895TIP3    H129626   5.910   6.462   6.633
 9895TIP3    H229627   6.045   6.444   6.699
 9896TIP3   OH229628   3.882   4.525   5.239
 9896TIP3    H129629   3.911   4.447   5.286
 9896TIP3    H229630   3.951   4.540   5.174
 9897TIP3   OH229631   4.005   5.196   4.303
 9897TIP3    H129632   4.094   5.209   4.270
 9897TIP3    H229633   3.954   5.174   4.225
 9898TIP3   OH229634  -0.004   6.091   5.807
 9898TIP3    H129635   0.007   6.183   5.829
 9898TIP3    H229636  -0.066   6.059   5.872
 9899TIP3   OH229637   6.657   2.606   1.440
 9899TIP3    H129638   6.678   2.667   1.511
 9899TIP3    H229639   6.727   2.619   1.376
 9900TIP3   OH229640   2.999   5.358   4.720
 9900TIP3    H129641   2.996   5.443   4.764
 9900TIP3    H229642   3.056   5.304   4.774
 9901TIP3   OH229643   3.882   3.980   2.853
 9901TIP3    H129644   3.823   3.951   2.923
 9901TIP3    H229645   3.880   4.076   2.858
 9902TIP3   OH229646   7.925   5.598   6.009
 9902TIP3    H129647   7.891   5.594   5.920
 9902TIP3    H229648   7.847   5.588   6.065
 9903TIP3   OH229649   1.373   3.173   6.755
 9903TIP3    H129650   1.459   3.158   6.793
 9903TIP3    H229651   1.377   3.129   6.670
 9904TIP3   OH229652   6.089   4.548   5.882
 9904TIP3    H129653   6.022   4.497   5.837
 9904TIP3    H229654   6.159   4.485   5.900
 9905TIP3   OH229655   2.605   1.370   4.263
 9905TIP3    H129656   2.690   1.414   4.270
 9905TIP3    H229657   2.541   1.439   4.280
 9906TIP3   OH229658   0.223   2.947   0.038
 9906TIP3    H129659   0.151   2.885   0.035
 9906TIP3    H229660   0.294   2.906  -0.011
 9907TIP3   OH229661   2.984   3.798   0.636
 9907TIP3    H129662   2.890   3.807   0.617
 9907TIP3    H229663   3.018   3.746   0.563
 9908TIP3   OH229664   2.402   5.546   6.349
 9908TIP3    H129665   2.308   5.560   6.341
 9908TIP3    H229666   2.424   5.486   6.278
 9909TIP3   OH229667   3.234   5.674   5.442
 9909TIP3    H129668   3.321   5.648   5.472
 9909TIP3    H229669   3.174   5.620   5.493
 9910TIP3   OH229670   2.565   5.691   1.307
 9910TIP3    H129671   2.593   5.699   1.216
 9910TIP3    H229672   2.527   5.777   1.327
 9911TIP3   OH229673   4.914   5.893   0.276
 9911TIP3    H129674   4.882   5.923   0.361
 9911TIP3    H229675   5.001   5.857   0.294
 9912TIP3   OH229676   2.457   3.294   0.767
 9912TIP3    H129677   2.509   3.222   0.803
 9912TIP3    H229678   2.494   3.309   0.680
 9913TIP3   OH229679   4.081   6.456   3.496
 9913TIP3    H129680   4.117   6.521   3.556
 9913TIP3    H229681   4.157   6.405   3.468
 9914TIP3   OH229682   6.987   1.610   6.445
 9914TIP3    H129683   7.070   1.621   6.491
 9914TIP3    H229684   6.950   1.529   6.481
 9915TIP3   OH229685   4.373   2.850   0.351
 9915TIP3    H129686   4.325   2.900   0.417
 9915TIP3    H229687   4.384   2.763   0.390
 9916TIP3   OH229688   6.144   1.955   0.164
 9916TIP3    H129689   6.058   1.944   0.123
 9916TIP3    H229690   6.196   1.882   0.131
 9917TIP3   OH229691   3.183   1.926   0.718
 9917TIP3    H129692   3.143   1.853   0.765
 9917TIP3    H229693   3.275   1.923   0.744
 9918TIP3   OH229694   2.758   7.548   5.948
 9918TIP3    H129695   2.829   7.537   5.884
 9918TIP3    H229696   2.686   7.586   5.898
 9919TIP3   OH229697   5.627   3.172   1.380
 9919TIP3    H129698   5.657   3.244   1.435
 9919TIP3    H229699   5.704   3.150   1.327
 9920TIP3   OH229700   0.931   7.338   3.896
 9920TIP3    H129701   0.850   7.384   3.871
 9920TIP3    H229702   0.909   7.292   3.976
 9921TIP3   OH229703   2.706   1.231   5.797
 9921TIP3    H129704   2.725   1.282   5.876
 9921TIP3    H229705   2.611   1.221   5.797
 9922TIP3   OH229706   6.011   2.366   2.427
 9922TIP3    H129707   5.954   2.389   2.355
 9922TIP3    H229708   6.092   2.415   2.411
 9923TIP3   OH229709   4.144   0.758   0.429
 9923TIP3    H129710   4.059   0.790   0.460
 9923TIP3    H229711   4.123   0.704   0.354
 9924TIP3   OH229712   6.873   6.772   6.654
 9924TIP3    H129713   6.851   6.679   6.644
 9924TIP3    H229714   6.912   6.778   6.741
 9925TIP3   OH229715   5.699   7.748   5.064
 9925TIP3    H129716   5.608   7.716   5.059
 9925TIP3    H229717   5.690   7.843   5.074
 9926TIP3   OH229718   2.842   7.698   4.725
 9926TIP3    H129719   2.937   7.693   4.715
 9926TIP3    H229720   2.807   7.655   4.647
 9927TIP3   OH229721   6.211   0.187   4.228
 9927TIP3    H129722   6.225   0.120   4.160
 9927TIP3    H229723   6.189   0.137   4.306
 9928TIP3   OH229724   1.285   2.815   6.180
 9928TIP3    H129725   1.204   2.856   6.209
 9928TIP3    H229726   1.310   2.862   6.101
 9929TIP3   OH229727   4.598   2.290   5.437
 9929TIP3    H129728   4.558   2.247   5.513
 9929TIP3    H229729   4.655   2.357   5.475
 9930TIP3   OH229730   6.550   0.605   4.292
 9930TIP3    H129731   6.539   0.583   4.199
 9930TIP3    H229732   6.463   0.633   4.320
 9931TIP3   OH229733   4.010   7.145   1.850
 9931TIP3    H129734   4.055   7.094   1.917
 9931TIP3    H229735   3.920   7.113   1.852
 9932TIP3   OH229736   3.759   6.307   5.142
 9932TIP3    H129737   3.753   6.230   5.199
 9932TIP3    H229738   3.797   6.274   5.061
 9933TIP3   OH229739   3.965   0.730   6.013
 9933TIP3    H129740   3.876   0.764   6.001
 9933TIP3    H229741   4.013   0.803   6.053
 9934TIP3   OH229742   4.629   1.680   3.237
 9934TIP3    H129743   4.718   1.714   3.224
 9934TIP3    H229744   4.604   1.712   3.323
 9935TIP3   OH229745   4.906   6.609   2.287
 9935TIP3    H129746   4.965   6.535   2.301
 9935TIP3    H229747   4.957   6.670   2.234
 9936TIP3   OH229748   0.645   3.170   3.954
 9936TIP3    H129749   0.682   3.104   3.896
 9936TIP3    H229750   0.621   3.243   3.896
 9937TIP3   OH229751   5.298   6.694   3.536
 9937TIP3    H129752   5.345   6.777   3.547
 9937TIP3    H229753   5.343   6.633   3.594
 9938TIP3   OH229754   7.885   1.860   1.593
 9938TIP3    H129755   7.793   1.886   1.596
 9938TIP3    H229756   7.904   1.849   1.500
 9939TIP3   OH229757   0.789   0.056   4.343
 9939TIP3    H129758   0.816  -0.010   4.406
 9939TIP3    H229759   0.708   0.021   4.304
 9940TIP3   OH229760   6.503   7.766   0.093
 9940TIP3    H129761   6.431   7.801   0.145
 9940TIP3    H229762   6.470   7.682   0.060
 9941TIP3   OH229763   6.497   7.872   1.838
 9941TIP3    H129764   6.522   7.837   1.924
 9941TIP3    H229765   6.407   7.903   1.850
 9942TIP3   OH229766   1.893   6.327   2.731
 9942TIP3    H129767   1.978   6.371   2.730
 9942TIP3    H229768   1.907   6.251   2.787
 9943TIP3   OH229769   1.500   6.018   0.501
 9943TIP3    H129770   1.590   5.996   0.480
 9943TIP3    H229771   1.457   6.026   0.416
 9944TIP3   OH229772   3.329   6.913   6.192
 9944TIP3    H129773   3.279   6.832   6.176
 9944TIP3    H229774   3.306   6.937   6.282
 9945TIP3   OH229775   3.173   7.174   0.730
 9945TIP3    H129776   3.158   7.081   0.749
 9945TIP3    H229777   3.247   7.174   0.670
 9946TIP3   OH229778   1.297   0.776   4.664
 9946TIP3    H129779   1.268   0.782   4.573
 9946TIP3    H229780   1.393   0.771   4.658
 9947TIP3   OH229781   1.502   5.791   2.294
 9947TIP3    H129782   1.526   5.874   2.334
 9947TIP3    H229783   1.529   5.799   2.203
 9948TIP3   OH229784   4.538   0.201   1.933
 9948TIP3    H129785   4.501   0.145   1.865
 9948TIP3    H229786   4.532   0.290   1.897
 9949TIP3   OH229787   1.659   5.364   6.072
 9949TIP3    H129788   1.694   5.453   6.068
 9949TIP3    H229789   1.590   5.368   6.138
 9950TIP3   OH229790   3.109   5.727   0.832
 9950TIP3    H129791   3.043   5.791   0.856
 9950TIP3    H229792   3.140   5.691   0.915
 9951TIP3   OH229793   7.523   5.239   6.671
 9951TIP3    H129794   7.528   5.326   6.711
 9951TIP3    H229795   7.608   5.199   6.689
 9952TIP3   OH229796   4.799   6.896   1.222
 9952TIP3    H129797   4.759   6.810   1.212
 9952TIP3    H229798   4.760   6.949   1.152
 9953TIP3   OH229799   0.860   2.355   5.698
 9953TIP3    H129800   0.867   2.304   5.779
 9953TIP3    H229801   0.845   2.289   5.630
 9954TIP3   OH229802   5.929   5.381   2.944
 9954TIP3    H129803   5.935   5.297   2.898
 9954TIP3    H229804   5.851   5.372   2.999
 9955TIP3   OH229805   0.458   5.974   4.536
 9955TIP3    H129806   0.426   5.885   4.521
 9955TIP3    H229807   0.487   6.005   4.450
 9956TIP3   OH229808   3.794   0.195   5.856
 9956TIP3    H129809   3.883   0.163   5.844
 9956TIP3    H229810   3.738   0.122   5.828
 9957TIP3   OH229811   6.774   3.183   4.214
 9957TIP3    H129812   6.685   3.158   4.240
 9957TIP3    H229813   6.763   3.221   4.127
 9958TIP3   OH229814   4.497   5.510   0.315
 9958TIP3    H129815   4.488   5.437   0.377
 9958TIP3    H229816   4.409   5.524   0.282
 9959TIP3   OH229817   3.728   4.366   3.554
 9959TIP3    H129818   3.740   4.276   3.583
 9959TIP3    H229819   3.633   4.376   3.544
 9960TIP3   OH229820   0.786   2.477   4.723
 9960TIP3    H129821   0.759   2.504   4.811
 9960TIP3    H229822   0.712   2.498   4.667
 9961TIP3   OH229823   7.981   3.812   6.625
 9961TIP3    H129824   7.974   3.881   6.691
 9961TIP3    H229825   7.945   3.852   6.546
 9962TIP3   OH229826   7.843   6.414   0.137
 9962TIP3    H129827   7.931   6.382   0.154
 9962TIP3    H229828   7.846   6.507   0.158
 9963TIP3   OH229829   1.939   3.898   4.848
 9963TIP3    H129830   2.014   3.930   4.899
 9963TIP3    H229831   1.952   3.803   4.843
 9964TIP3   OH229832   2.564   6.492   4.656
 9964TIP3    H129833   2.540   6.571   4.608
 9964TIP3    H229834   2.660   6.488   4.650
 9965TIP3   OH229835   6.727   5.811   5.339
 9965TIP3    H129836   6.713   5.856   5.256
 9965TIP3    H229837   6.715   5.719   5.319
 9966TIP3   OH229838   3.039   1.650   0.158
 9966TIP3    H129839   2.997   1.732   0.183
 9966TIP3    H229840   3.084   1.670   0.076
 9967TIP3   OH229841   5.398   3.924   0.059
 9967TIP3    H129842   5.373   4.011   0.030
 9967TIP3    H229843   5.439   3.884  -0.018
 9968TIP3   OH229844   2.412   6.733   4.509
 9968TIP3    H129845   2.332   6.772   4.474
 9968TIP3    H229846   2.479   6.754   4.445
 9969TIP3   OH229847   1.015   5.780   4.787
 9969TIP3    H129848   1.098   5.735   4.801
 9969TIP3    H229849   1.039   5.872   4.775
 9970TIP3   OH229850   5.946   0.770   6.197
 9970TIP3    H129851   6.009   0.726   6.254
 9970TIP3    H229852   5.969   0.863   6.204
 9971TIP3   OH229853   6.249   1.816   1.693
 9971TIP3    H129854   6.338   1.847   1.715
 9971TIP3    H229855   6.261   1.760   1.617
 9972TIP3   OH229856   3.822   5.721   2.062
 9972TIP3    H129857   3.813   5.710   1.967
 9972TIP3    H229858   3.865   5.806   2.072
 9973TIP3   OH229859   6.478   0.242   4.305
 9973TIP3    H129860   6.399   0.214   4.258
 9973TIP3    H229861   6.446   0.274   4.389
 9974TIP3   OH229862   7.882   3.714   5.827
 9974TIP3    H129863   7.923   3.790   5.785
 9974TIP3    H229864   7.866   3.742   5.917
 9975TIP3   OH229865   2.798   7.562   0.249
 9975TIP3    H129866   2.851   7.616   0.191
 9975TIP3    H229867   2.844   7.477   0.251
 9976TIP3   OH229868   4.446   3.423   5.554
 9976TIP3    H129869   4.355   3.450   5.548
 9976TIP3    H229870   4.456   3.389   5.643
 9977TIP3   OH229871   7.177   7.112   5.828
 9977TIP3    H129872   7.141   7.024   5.835
 9977TIP3    H229873   7.150   7.142   5.741
 9978TIP3   OH229874   7.626   6.260   4.063
 9978TIP3    H129875   7.531   6.271   4.068
 9978TIP3    H229876   7.641   6.227   3.974
 9979TIP3   OH229877   7.268   4.308   1.542
 9979TIP3    H129878   7.184   4.290   1.499
 9979TIP3    H229879   7.315   4.225   1.539
 9980TIP3   OH229880   4.484   7.932   0.165
 9980TIP3    H129881   4.562   7.897   0.208
 9980TIP3    H229882   4.487   7.894   0.077
 9981TIP3   OH229883   0.920   7.708   0.893
 9981TIP3    H129884   0.998   7.653   0.885
 9981TIP3    H229885   0.864   7.661   0.955
 9982TIP3   OH229886   0.815   0.701   2.168
 9982TIP3    H129887   0.776   0.723   2.084
 9982TIP3    H229888   0.898   0.749   2.168
 9983TIP3   OH229889   6.766   3.274   6.441
 9983TIP3    H129890   6.677   3.306   6.427
 9983TIP3    H229891   6.755   3.194   6.494
 9984TIP3   OH229892   1.231   3.193   6.269
 9984TIP3    H129893   1.316   3.186   6.224
 9984TIP3    H229894   1.222   3.287   6.287
 9985TIP3   OH229895   8.249   3.707   0.673
 9985TIP3    H129896   8.254   3.801   0.689
 9985TIP3    H229897   8.338   3.683   0.649
 9986TIP3   OH229898   3.713   6.840   2.712
 9986TIP3    H129899   3.695   6.849   2.619
 9986TIP3    H229900   3.635   6.876   2.755
 9987TIP3   OH229901   5.843   6.155   0.228
 9987TIP3    H129902   5.839   6.229   0.288
 9987TIP3    H229903   5.936   6.137   0.218
 9988TIP3   OH229904   3.966   2.939   5.472
 9988TIP3    H129905   3.973   2.991   5.392
 9988TIP3    H229906   3.948   2.850   5.441
 9989TIP3   OH229907   2.336   5.000   5.552
 9989TIP3    H129908   2.241   5.008   5.560
 9989TIP3    H229909   2.349   4.941   5.478
 9990TIP3   OH229910   7.881   2.169   1.465
 9990TIP3    H129911   7.891   2.243   1.526
 9990TIP3    H229912   7.812   2.197   1.405
 9991TIP3   OH229913   6.227   3.004   4.555
 9991TIP3    H129914   6.306   3.029   4.604
 9991TIP3    H229915   6.260   2.958   4.478
 9992TIP3   OH229916   0.146   6.384   3.614
 9992TIP3    H129917   0.233   6.344   3.613
 9992TIP3    H229918   0.105   6.356   3.533
 9993TIP3   OH229919   7.925   4.647   2.600
 9993TIP3    H129920   7.901   4.583   2.667
 9993TIP3    H229921   7.877   4.726   2.624
 9994TIP3   OH229922   1.292   5.834   1.296
 9994TIP3    H129923   1.376   5.789   1.285
 9994TIP3    H229924   1.309   5.902   1.361
 9995TIP3   OH229925   7.427   2.967   5.679
 9995TIP3    H129926   7.409   2.985   5.587
 9995TIP3    H229927   7.509   2.918   5.679
 9996TIP3   OH229928   6.009   0.745   1.392
 9996TIP3    H129929   5.959   0.704   1.462
 9996TIP3    H229930   5.952   0.738   1.315
 9997TIP3   OH229931   5.062   2.629   3.194
 9997TIP3    H129932   5.103   2.576   3.125
 9997TIP3    H229933   5.135   2.664   3.244
 9998TIP3   OH229934   3.309   3.056   0.744
 9998TIP3    H129935   3.349   2.970   0.732
 9998TIP3    H229936   3.348   3.089   0.825
 9999TIP3   OH229937   2.177   6.498   1.635
 9999TIP3    H129938   2.229   6.418   1.626
 9999TIP3    H229939   2.195   6.547   1.554
10000TIP3   OH229940   6.618   6.149   5.688
10000TIP3    H129941   6.612   6.198   5.770
10000TIP3    H229942   6.613   6.057   5.713
10001TIP3   OH229943   4.728   5.140   1.830
10001TIP3    H129944   4.660   5.188   1.878
10001TIP3    H229945   4.684   5.061   1.799
10002TIP3   OH229946   3.170   1.485   5.143
10002TIP3    H129947   3.259   1.504   5.171
10002TIP3    H229948   3.174   1.397   5.106
10003TIP3   OH229949   7.627   6.750   6.777
10003TIP3    H129950   7.619   6.779   6.868
10003TIP3    H229951   7.592   6.661   6.777
10004TIP3   OH229952   1.848   2.904   3.603
10004TIP3    H129953   1.835   2.985   3.554
10004TIP3    H229954   1.812   2.921   3.689
10005TIP3   OH229955   4.806   1.344   6.371
10005TIP3    H129956   4.762   1.405   6.312
10005TIP3    H229957   4.788   1.257   6.334
10006TIP3   OH229958   0.512   5.002   4.085
10006TIP3    H129959   0.499   4.937   4.015
10006TIP3    H229960   0.457   4.970   4.156
10007TIP3   OH229961   4.390   5.086   6.391
10007TIP3    H129962   4.401   5.004   6.343
10007TIP3    H229963   4.480   5.119   6.401
10008TIP3   OH229964   7.456   7.216   3.968
10008TIP3    H129965   7.470   7.196   4.061
10008TIP3    H229966   7.525   7.278   3.946
10009TIP3   OH229967   1.314   3.920   3.201
10009TIP3    H129968   1.364   3.840   3.217
10009TIP3    H229969   1.224   3.897   3.227
10010TIP3   OH229970   3.828   5.804   6.286
10010TIP3    H129971   3.805   5.713   6.267
10010TIP3    H229972   3.916   5.815   6.250
10011TIP3   OH229973   4.275   4.623   4.497
10011TIP3    H129974   4.253   4.661   4.412
10011TIP3    H229975   4.204   4.650   4.555
10012TIP3   OH229976   5.922   3.098   3.107
10012TIP3    H129977   5.869   3.021   3.085
10012TIP3    H229978   5.895   3.122   3.196
10013TIP3   OH229979   4.382   0.439   0.886
10013TIP3    H129980   4.453   0.377   0.904
10013TIP3    H229981   4.422   0.506   0.831
10014TIP3   OH229982   0.562   6.593   6.785
10014TIP3    H129983   0.655   6.576   6.800
10014TIP3    H229984   0.518   6.555   6.861
10015TIP3   OH229985   3.672   6.477   4.933
10015TIP3    H129986   3.759   6.485   4.896
10015TIP3    H229987   3.685   6.434   5.018
10016TIP3   OH229988   6.471   1.755   0.172
10016TIP3    H129989   6.393   1.730   0.221
10016TIP3    H229990   6.436   1.793   0.091
10017TIP3   OH229991   5.820   4.555   0.452
10017TIP3    H129992   5.745   4.505   0.419
10017TIP3    H229993   5.785   4.643   0.468
10018TIP3   OH229994   0.564   5.271   3.387
10018TIP3    H129995   0.473   5.250   3.406
10018TIP3    H229996   0.572   5.365   3.406
10019TIP3   OH229997   0.050   4.987   5.569
10019TIP3    H129998   0.007   5.001   5.484
10019TIP3    H229999   0.022   5.062   5.622
10020TIP3   OH230000   8.191   2.234   6.121
10020TIP3    H130001   8.142   2.192   6.050
10020TIP3    H230002   8.175   2.327   6.109
10021TIP3   OH230003   1.991   7.020   2.947
10021TIP3    H130004   2.026   6.998   2.861
10021TIP3    H230005   2.026   7.107   2.966
10022TIP3   OH230006   5.499   0.786   4.323
10022TIP3    H130007   5.469   0.747   4.404
10022TIP3    H230008   5.445   0.864   4.311
10023TIP3   OH230009   6.921   1.169   2.273
10023TIP3    H130010   6.992   1.169   2.208
10023TIP3    H230011   6.904   1.076   2.290
10024TIP3   OH230012   5.131   4.060   5.135
10024TIP3    H130013   5.078   4.138   5.153
10024TIP3    H230014   5.149   4.023   5.221
10025TIP3   OH230015   4.215   2.607   4.563
10025TIP3    H130016   4.211   2.589   4.469
10025TIP3    H230017   4.293   2.660   4.574
10026TIP3   OH230018   7.280   0.088   5.716
10026TIP3    H130019   7.216   0.112   5.783
10026TIP3    H230020   7.234   0.101   5.633
10027TIP3   OH230021   1.939   7.089   6.481
10027TIP3    H130022   1.896   7.158   6.531
10027TIP3    H230023   1.990   7.136   6.415
10028TIP3   OH230024   7.521   0.320   1.758
10028TIP3    H130025   7.612   0.317   1.786
10028TIP3    H230026   7.522   0.281   1.670
10029TIP3   OH230027   7.167   4.213   1.943
10029TIP3    H130028   7.107   4.141   1.931
10029TIP3    H230029   7.253   4.177   1.921
10030TIP3   OH230030   2.501   5.145   4.682
10030TIP3    H130031   2.434   5.200   4.642
10030TIP3    H230032   2.571   5.206   4.707
10031TIP3   OH230033   4.983   6.336   1.516
10031TIP3    H130034   4.947   6.260   1.471
10031TIP3    H230035   5.047   6.299   1.577
10032TIP3   OH230036   6.419   2.823   1.601
10032TIP3    H130037   6.423   2.812   1.506
10032TIP3    H230038   6.327   2.844   1.619
10033TIP3   OH230039   1.853   3.260   1.982
10033TIP3    H130040   1.864   3.353   1.964
10033TIP3    H230041   1.783   3.256   2.047
10034TIP3   OH230042   7.998   3.213   3.666
10034TIP3    H130043   7.964   3.128   3.638
10034TIP3    H230044   8.093   3.200   3.673
10035TIP3   OH230045   3.868   0.732   2.992
10035TIP3    H130046   3.904   0.809   3.034
10035TIP3    H230047   3.931   0.710   2.924
10036TIP3   OH230048   8.382   2.780   0.866
10036TIP3    H130049   8.334   2.712   0.820
10036TIP3    H230050   8.350   2.777   0.956
10037TIP3   OH230051   7.718   3.374   5.152
10037TIP3    H130052   7.667   3.425   5.089
10037TIP3    H230053   7.807   3.375   5.118
10038TIP3   OH230054   3.049   5.246   6.802
10038TIP3    H130055   3.085   5.333   6.821
10038TIP3    H230056   3.026   5.211   6.888
10039TIP3   OH230057   7.338   7.406   0.955
10039TIP3    H130058   7.323   7.425   1.047
10039TIP3    H230059   7.273   7.338   0.934
10040TIP3   OH230060   6.344   0.896   3.487
10040TIP3    H130061   6.385   0.856   3.564
10040TIP3    H230062   6.327   0.986   3.513
10041TIP3   OH230063   4.944   1.447   1.540
10041TIP3    H130064   4.856   1.479   1.559
10041TIP3    H230065   4.994   1.526   1.517
10042TIP3   OH230066   1.329   3.194   0.342
10042TIP3    H130067   1.406   3.208   0.286
10042TIP3    H230068   1.274   3.271   0.326
10043TIP3   OH230069   5.881   7.653   4.131
10043TIP3    H130070   5.966   7.676   4.093
10043TIP3    H230071   5.850   7.581   4.077
10044TIP3   OH230072   6.186   2.563   5.483
10044TIP3    H130073   6.225   2.491   5.532
10044TIP3    H230074   6.201   2.541   5.391
10045TIP3   OH230075   5.233   0.447   0.558
10045TIP3    H130076   5.177   0.371   0.544
10045TIP3    H230077   5.179   0.507   0.610
10046TIP3   OH230078   0.086   2.089   4.828
10046TIP3    H130079   0.135   2.011   4.851
10046TIP3    H230080   0.106   2.152   4.897
10047TIP3   OH230081   4.328   3.204   6.547
10047TIP3    H130082   4.356   3.289   6.512
10047TIP3    H230083   4.408   3.164   6.580
10048TIP3   OH230084   6.649   2.826   1.177
10048TIP3    H130085   6.617   2.736   1.172
10048TIP3    H230086   6.658   2.853   1.085
10049TIP3   OH230087   6.144   5.255   6.731
10049TIP3    H130088   6.188   5.227   6.651
10049TIP3    H230089   6.189   5.336   6.756
10050TIP3   OH230090   2.683   6.895   4.454
10050TIP3    H130091   2.634   6.926   4.378
10050TIP3    H230092   2.754   6.959   4.463
10051TIP3   OH230093   3.844   6.693   4.229
10051TIP3    H130094   3.783   6.736   4.288
10051TIP3    H230095   3.869   6.613   4.275
10052TIP3   OH230096   0.070   5.332   3.540
10052TIP3    H130097   0.012   5.258   3.559
10052TIP3    H230098   0.099   5.362   3.626
10053TIP3   OH230099   1.863   2.329   2.845
10053TIP3    H130100   1.853   2.363   2.756
10053TIP3    H230101   1.797   2.260   2.852
10054TIP3   OH230102   1.756   2.381   2.032
10054TIP3    H130103   1.676   2.414   1.992
10054TIP3    H230104   1.825   2.438   1.998
10055TIP3   OH230105   0.805   3.273   5.891
10055TIP3    H130106   0.776   3.223   5.968
10055TIP3    H230107   0.890   3.234   5.868
10056TIP3   OH230108   5.083   2.675   5.411
10056TIP3    H130109   5.034   2.708   5.486
10056TIP3    H230110   5.064   2.581   5.409
10057TIP3   OH230111   1.803   5.956   5.009
10057TIP3    H130112   1.746   5.997   4.945
10057TIP3    H230113   1.840   6.029   5.059
10058TIP3   OH230114   1.898   6.098   2.544
10058TIP3    H130115   1.867   6.172   2.597
10058TIP3    H230116   1.958   6.137   2.481
10059TIP3   OH230117   4.880   2.120   6.104
10059TIP3    H130118   4.958   2.132   6.158
10059TIP3    H230119   4.812   2.091   6.164
10060TIP3   OH230120   4.127   1.988   3.005
10060TIP3    H130121   4.150   1.964   3.095
10060TIP3    H230122   4.032   2.000   3.007
10061TIP3   OH230123   3.461   5.240   5.027
10061TIP3    H130124   3.534   5.208   4.973
10061TIP3    H230125   3.431   5.320   4.982
10062TIP3   OH230126   2.849   1.165   1.760
10062TIP3    H130127   2.813   1.212   1.685
10062TIP3    H230128   2.808   1.206   1.836
10063TIP3   OH230129   2.142   4.440   3.663
10063TIP3    H130130   2.152   4.506   3.594
10063TIP3    H230131   2.195   4.474   3.736
10064TIP3   OH230132   5.314   0.416   4.456
10064TIP3    H130133   5.348   0.500   4.487
10064TIP3    H230134   5.226   0.436   4.425
10065TIP3   OH230135   2.095   7.060   5.933
10065TIP3    H130136   2.156   7.071   6.006
10065TIP3    H230137   2.013   7.034   5.974
10066TIP3   OH230138   4.757   5.350   4.217
10066TIP3    H130139   4.842   5.307   4.230
10066TIP3    H230140   4.735   5.333   4.126
10067TIP3   OH230141   5.843   2.826   1.004
10067TIP3    H130142   5.827   2.748   1.057
10067TIP3    H230143   5.818   2.899   1.060
10068TIP3   OH230144   1.262   4.555   3.892
10068TIP3    H130145   1.238   4.525   3.980
10068TIP3    H230146   1.330   4.621   3.907
10069TIP3   OH230147   2.015   1.021   6.415
10069TIP3    H130148   2.025   1.085   6.344
10069TIP3    H230149   1.962   0.951   6.377
10070TIP3   OH230150   3.033   3.910   6.591
10070TIP3    H130151   2.978   3.839   6.559
10070TIP3    H230152   3.069   3.951   6.513
10071TIP3   OH230153   4.913   7.223   1.407
10071TIP3    H130154   5.004   7.226   1.377
10071TIP3    H230155   4.863   7.257   1.333
10072TIP3   OH230156   8.056   7.238   1.674
10072TIP3    H130157   7.991   7.252   1.605
10072TIP3    H230158   8.071   7.143   1.673
10073TIP3   OH230159   7.891   5.968   5.862
10073TIP3    H130160   7.921   5.974   5.771
10073TIP3    H230161   7.799   5.943   5.854
10074TIP3   OH230162   4.431   6.600   2.280
10074TIP3    H130163   4.349   6.613   2.328
10074TIP3    H230164   4.500   6.612   2.346
10075TIP3   OH230165   6.968   0.188   2.374
10075TIP3    H130166   6.875   0.187   2.398
10075TIP3    H230167   7.009   0.123   2.431
10076TIP3   OH230168   7.208   5.820   0.471
10076TIP3    H130169   7.226   5.728   0.489
10076TIP3    H230170   7.287   5.867   0.500
10077TIP3   OH230171   4.792   0.155   1.972
10077TIP3    H130172   4.825   0.240   1.942
10077TIP3    H230173   4.699   0.156   1.951
10078TIP3   OH230174   1.298   6.531   5.736
10078TIP3    H130175   1.215   6.579   5.735
10078TIP3    H230176   1.274   6.442   5.760
10079TIP3   OH230177   1.210   3.116   1.909
10079TIP3    H130178   1.277   3.048   1.909
10079TIP3    H230179   1.246   3.186   1.963
10080TIP3   OH230180   2.217   2.662   4.893
10080TIP3    H130181   2.149   2.729   4.894
10080TIP3    H230182   2.195   2.604   4.966
10081TIP3   OH230183   6.619   4.296   3.442
10081TIP3    H130184   6.631   4.376   3.392
10081TIP3    H230185   6.567   4.322   3.518
10082TIP3   OH230186   5.471   3.201   4.301
10082TIP3    H130187   5.440   3.119   4.339
10082TIP3    H230188   5.478   3.261   4.375
10083TIP3   OH230189   5.862   3.418   0.313
10083TIP3    H130190   5.805   3.494   0.300
10083TIP3    H230191   5.847   3.363   0.237
10084TIP3   OH230192   1.987   2.437   0.200
10084TIP3    H130193   1.928   2.430   0.275
10084TIP3    H230194   1.943   2.497   0.140
10085TIP3   OH230195   5.237   6.087   1.217
10085TIP3    H130196   5.180   6.077   1.141
10085TIP3    H230197   5.305   6.021   1.205
10086TIP3   OH230198   5.975   3.677   1.141
10086TIP3    H130199   6.068   3.700   1.142
10086TIP3    H230200   5.954   3.664   1.049
10087TIP3   OH230201   6.435   0.865   2.131
10087TIP3    H130202   6.495   0.873   2.206
10087TIP3    H230203   6.455   0.941   2.077
10088TIP3   OH230204   2.506   7.783   0.059
10088TIP3    H130205   2.431   7.796   0.117
10088TIP3    H230206   2.510   7.862   0.006
10089TIP3   OH230207   7.120   6.607   2.726
10089TIP3    H130208   7.205   6.637   2.758
10089TIP3    H230209   7.090   6.545   2.792
10090TIP3   OH230210   0.393   5.085   3.767
10090TIP3    H130211   0.479   5.043   3.772
10090TIP3    H230212   0.378   5.098   3.674
10091TIP3   OH230213   5.106   1.320   5.871
10091TIP3    H130214   5.190   1.359   5.896
10091TIP3    H230215   5.088   1.356   5.784
10092TIP3   OH230216   7.445   0.787   0.737
10092TIP3    H130217   7.394   0.857   0.776
10092TIP3    H230218   7.511   0.831   0.684
10093TIP3   OH230219   2.722   1.097   6.816
10093TIP3    H130220   2.772   1.177   6.831
10093TIP3    H230221   2.755   1.036   6.881
10094TIP3   OH230222   6.419   2.822   0.490
10094TIP3    H130223   6.462   2.756   0.544
10094TIP3    H230224   6.472   2.825   0.410
10095TIP3   OH230225   7.529   4.464   0.025
10095TIP3    H130226   7.603   4.475  -0.035
10095TIP3    H230227   7.491   4.552   0.033
10096TIP3   OH230228   1.353   3.216   5.180
10096TIP3    H130229   1.279   3.239   5.236
10096TIP3    H230230   1.429   3.217   5.239
10097TIP3   OH230231   4.817   1.906   1.442
10097TIP3    H130232   4.774   1.944   1.366
10097TIP3    H230233   4.812   1.974   1.509
10098TIP3   OH230234   2.700   3.329   3.806
10098TIP3    H130235   2.626   3.269   3.798
10098TIP3    H230236   2.664   3.405   3.851
10099TIP3   OH230237   1.282   6.261   5.789
10099TIP3    H130238   1.332   6.234   5.866
10099TIP3    H230239   1.296   6.190   5.726
10100TIP3   OH230240   4.744   4.640  -0.025
10100TIP3    H130241   4.798   4.688   0.039
10100TIP3    H230242   4.676   4.702  -0.050
10101TIP3   OH230243   1.929   3.656   1.259
10101TIP3    H130244   1.903   3.575   1.303
10101TIP3    H230245   2.023   3.647   1.245
10102TIP3   OH230246   2.203   2.548   0.310
10102TIP3    H130247   2.124   2.521   0.263
10102TIP3    H230248   2.183   2.530   0.402
10103TIP3   OH230249   2.798   0.721   5.033
10103TIP3    H130250   2.797   0.663   5.109
10103TIP3    H230251   2.811   0.661   4.959
10104TIP3   OH230252   5.985   1.918   6.413
10104TIP3    H130253   5.953   1.869   6.337
10104TIP3    H230254   5.995   2.008   6.381
10105TIP3   OH230255   5.462   1.780   2.147
10105TIP3    H130256   5.524   1.738   2.207
10105TIP3    H230257   5.490   1.871   2.143
10106TIP3   OH230258   5.830   0.017   2.974
10106TIP3    H130259   5.869   0.066   3.047
10106TIP3    H230260   5.870  -0.070   2.979
10107TIP3   OH230261   6.458   1.368   1.058
10107TIP3    H130262   6.520   1.367   0.985
10107TIP3    H230263   6.513   1.355   1.135
10108TIP3   OH230264   1.927   6.813   6.200
10108TIP3    H130265   2.015   6.796   6.168
10108TIP3    H230266   1.908   6.742   6.261
10109TIP3   OH230267   4.082   7.334   3.579
10109TIP3    H130268   4.012   7.348   3.643
10109TIP3    H230269   4.045   7.271   3.517
10110TIP3   OH230270   1.834   2.974   0.727
10110TIP3    H130271   1.759   3.005   0.777
10110TIP3    H230272   1.826   2.879   0.728
10111TIP3   OH230273   6.770   5.768   5.007
10111TIP3    H130274   6.724   5.843   5.044
10111TIP3    H230275   6.810   5.801   4.926
10112TIP3   OH230276   3.734   1.703   2.723
10112TIP3    H130277   3.683   1.782   2.735
10112TIP3    H230278   3.751   1.671   2.812
10113TIP3   OH230279   1.024   5.292   4.508
10113TIP3    H130280   1.073   5.252   4.436
10113TIP3    H230281   1.043   5.236   4.584
10114TIP3   OH230282   8.099   4.556   4.734
10114TIP3    H130283   8.029   4.517   4.682
10114TIP3    H230284   8.131   4.629   4.681
10115TIP3   OH230285   3.269   4.259   5.462
10115TIP3    H130286   3.352   4.307   5.456
10115TIP3    H230287   3.240   4.249   5.371
10116TIP3   OH230288   2.250   5.911   5.200
10116TIP3    H130289   2.176   5.970   5.214
10116TIP3    H230290   2.327   5.966   5.211
10117TIP3   OH230291   0.319   5.421   1.641
10117TIP3    H130292   0.401   5.447   1.681
10117TIP3    H230293   0.251   5.453   1.701
10118TIP3   OH230294   6.033   1.335   3.656
10118TIP3    H130295   5.938   1.343   3.645
10118TIP3    H230296   6.051   1.242   3.647
10119TIP3   OH230297   7.351   5.493   1.306
10119TIP3    H130298   7.257   5.474   1.305
10119TIP3    H230299   7.394   5.409   1.291
10120TIP3   OH230300   1.788   5.999   2.043
10120TIP3    H130301   1.860   6.061   2.033
10120TIP3    H230302   1.721   6.029   1.982
10121TIP3   OH230303   5.729   3.048   3.891
10121TIP3    H130304   5.728   3.141   3.913
10121TIP3    H230305   5.748   3.004   3.973
10122TIP3   OH230306   3.037   7.110   1.186
10122TIP3    H130307   2.943   7.115   1.172
10122TIP3    H230308   3.074   7.170   1.121
10123TIP3   OH230309   6.419   2.165   4.031
10123TIP3    H130310   6.450   2.252   4.005
10123TIP3    H230311   6.485   2.105   3.996
10124TIP3   OH230312   1.686   1.092   4.408
10124TIP3    H130313   1.668   1.095   4.314
10124TIP3    H230314   1.599   1.100   4.449
10125TIP3   OH230315   4.743   1.822   6.438
10125TIP3    H130316   4.757   1.902   6.489
10125TIP3    H230317   4.825   1.774   6.446
10126TIP3   OH230318   5.252   5.975   5.823
10126TIP3    H130319   5.257   5.927   5.905
10126TIP3    H230320   5.205   6.056   5.846
10127TIP3   OH230321   1.660   2.768   1.967
10127TIP3    H130322   1.698   2.845   1.925
10127TIP3    H230323   1.704   2.764   2.052
10128TIP3   OH230324   2.381   6.517   6.528
10128TIP3    H130325   2.440   6.531   6.603
10128TIP3    H230326   2.383   6.422   6.516
10129TIP3   OH230327   1.144   6.827   2.991
10129TIP3    H130328   1.234   6.797   3.006
10129TIP3    H230329   1.094   6.746   2.978
10130TIP3   OH230330   0.149   5.332   6.754
10130TIP3    H130331   0.198   5.250   6.763
10130TIP3    H230332   0.090   5.333   6.830
10131TIP3   OH230333   7.304   0.291   0.168
10131TIP3    H130334   7.309   0.349   0.244
10131TIP3    H230335   7.281   0.206   0.205
10132TIP3   OH230336   6.433   2.833   5.497
10132TIP3    H130337   6.437   2.765   5.565
10132TIP3    H230338   6.447   2.786   5.415
10133TIP3   OH230339   0.304   4.448   3.004
10133TIP3    H130340   0.298   4.418   2.913
10133TIP3    H230341   0.254   4.529   3.006
10134TIP3   OH230342   5.107   6.255   1.765
10134TIP3    H130343   5.067   6.305   1.836
10134TIP3    H230344   5.185   6.216   1.805
10135TIP3   OH230345   3.079   3.337   0.460
10135TIP3    H130346   3.074   3.355   0.366
10135TIP3    H230347   3.084   3.423   0.501
10136TIP3   OH230348   2.840   7.836   2.765
10136TIP3    H130349   2.879   7.750   2.748
10136TIP3    H230350   2.904   7.880   2.820
10137TIP3   OH230351   2.086   4.019   5.551
10137TIP3    H130352   2.021   4.073   5.595
10137TIP3    H230353   2.127   4.078   5.488
10138TIP3   OH230354   1.471   3.256   3.318
10138TIP3    H130355   1.415   3.206   3.377
10138TIP3    H230356   1.493   3.195   3.248
10139TIP3   OH230357   6.820   4.018   6.115
10139TIP3    H130358   6.759   4.086   6.144
10139TIP3    H230359   6.905   4.061   6.117
10140TIP3   OH230360   7.219   0.583   5.970
10140TIP3    H130361   7.133   0.541   5.974
10140TIP3    H230362   7.199   0.676   5.960
10141TIP3   OH230363   0.563   6.427   3.363
10141TIP3    H130364   0.524   6.507   3.401
10141TIP3    H230365   0.487   6.376   3.334
10142TIP3   OH230366   5.044   2.727   1.778
10142TIP3    H130367   5.115   2.739   1.715
10142TIP3    H230368   5.082   2.754   1.862
10143TIP3   OH230369   3.801   5.289   6.566
10143TIP3    H130370   3.889   5.272   6.600
10143TIP3    H230371   3.764   5.202   6.549
10144TIP3   OH230372   1.452   0.489   4.154
10144TIP3    H130373   1.487   0.443   4.230
10144TIP3    H230374   1.492   0.446   4.079
10145TIP3   OH230375   6.811   5.200   0.067
10145TIP3    H130376   6.862   5.202   0.148
10145TIP3    H230377   6.858   5.259   0.008
10146TIP3   OH230378   5.718   1.355   2.226
10146TIP3    H130379   5.804   1.371   2.263
10146TIP3    H230380   5.694   1.267   2.255
10147TIP3   OH230381   3.572   7.840   4.815
10147TIP3    H130382   3.639   7.856   4.749
10147TIP3    H230383   3.539   7.752   4.796
10148TIP3   OH230384   4.638   2.155   6.472
10148TIP3    H130385   4.729   2.140   6.445
10148TIP3    H230386   4.597   2.196   6.397
10149TIP3   OH230387  -0.029   3.625   0.926
10149TIP3    H130388  -0.092   3.559   0.896
10149TIP3    H230389   0.027   3.577   0.988
10150TIP3   OH230390   2.741   2.621   4.214
10150TIP3    H130391   2.819   2.566   4.205
10150TIP3    H230392   2.739   2.644   4.307
10151TIP3   OH230393   0.072   5.560   0.133
10151TIP3    H130394   0.060   5.600   0.047
10151TIP3    H230395   0.160   5.524   0.130
10152TIP3   OH230396   1.158   6.538   5.156
10152TIP3    H130397   1.163   6.583   5.241
10152TIP3    H230398   1.171   6.445   5.178
10153TIP3   OH230399   1.245   7.587   5.827
10153TIP3    H130400   1.286   7.663   5.786
10153TIP3    H230401   1.285   7.582   5.914
10154TIP3   OH230402   1.404   3.739   1.576
10154TIP3    H130403   1.339   3.782   1.631
10154TIP3    H230404   1.485   3.787   1.593
10155TIP3   OH230405   5.290   0.987   0.097
10155TIP3    H130406   5.209   0.970   0.048
10155TIP3    H230407   5.360   0.975   0.032
10156TIP3   OH230408   7.568   4.332   3.728
10156TIP3    H130409   7.483   4.288   3.734
10156TIP3    H230410   7.626   4.265   3.692
10157TIP3   OH230411   5.559   5.373   0.605
10157TIP3    H130412   5.525   5.452   0.563
10157TIP3    H230413   5.564   5.396   0.698
10158TIP3   OH230414   0.229   1.432   1.268
10158TIP3    H130415   0.186   1.396   1.346
10158TIP3    H230416   0.316   1.458   1.299
10159TIP3   OH230417   2.316   3.334   3.003
10159TIP3    H130418   2.266   3.407   3.041
10159TIP3    H230419   2.340   3.280   3.078
10160TIP3   OH230420   2.255   2.750   2.605
10160TIP3    H130421   2.196   2.692   2.654
10160TIP3    H230422   2.342   2.721   2.630
10161TIP3   OH230423   0.949   3.207   4.543
10161TIP3    H130424   0.998   3.290   4.542
10161TIP3    H230425   0.990   3.156   4.612
10162TIP3   OH230426   3.743   7.456   1.657
10162TIP3    H130427   3.833   7.480   1.634
10162TIP3    H230428   3.696   7.455   1.574
10163TIP3   OH230429   6.886   5.320   2.003
10163TIP3    H130430   6.832   5.289   1.930
10163TIP3    H230431   6.968   5.272   1.993
10164TIP3   OH230432   4.421   0.115   3.575
10164TIP3    H130433   4.505   0.113   3.529
10164TIP3    H230434   4.439   0.165   3.654
10165TIP3   OH230435   5.871   3.888   3.824
10165TIP3    H130436   5.861   3.793   3.820
10165TIP3    H230437   5.966   3.901   3.829
10166TIP3   OH230438   2.657   2.914   5.203
10166TIP3    H130439   2.701   2.996   5.182
10166TIP3    H230440   2.665   2.861   5.124
10167TIP3   OH230441   7.653   5.309   2.560
10167TIP3    H130442   7.747   5.324   2.555
10167TIP3    H230443   7.618   5.347   2.479
10168TIP3   OH230444   5.857   2.835   3.361
10168TIP3    H130445   5.884   2.821   3.270
10168TIP3    H230446   5.912   2.907   3.391
10169TIP3   OH230447   4.945   7.168   5.352
10169TIP3    H130448   5.014   7.189   5.415
10169TIP3    H230449   4.867   7.211   5.386
10170TIP3   OH230450   1.716   5.873   4.048
10170TIP3    H130451   1.652   5.887   3.979
10170TIP3    H230452   1.800   5.894   4.008
10171TIP3   OH230453   7.783   0.211   2.770
10171TIP3    H130454   7.763   0.262   2.848
10171TIP3    H230455   7.828   0.273   2.712
10172TIP3   OH230456   5.074   3.643   0.663
10172TIP3    H130457   5.011   3.585   0.707
10172TIP3    H230458   5.079   3.610   0.573
10173TIP3   OH230459   3.458   1.106   2.033
10173TIP3    H130460   3.482   1.184   1.983
10173TIP3    H230461   3.369   1.124   2.064
10174TIP3   OH230462   6.936   6.559   1.024
10174TIP3    H130463   6.919   6.507   0.946
10174TIP3    H230464   6.857   6.611   1.036
10175TIP3   OH230465   0.107   1.194   2.878
10175TIP3    H130466   0.152   1.278   2.874
10175TIP3    H230467   0.025   1.212   2.924
10176TIP3   OH230468   7.654   5.846   5.826
10176TIP3    H130469   7.587   5.878   5.886
10176TIP3    H230470   7.629   5.881   5.741
10177TIP3   OH230471   4.107   5.301   6.688
10177TIP3    H130472   4.171   5.244   6.644
10177TIP3    H230473   4.152   5.384   6.698
10178TIP3   OH230474   5.962   2.235   5.456
10178TIP3    H130475   5.954   2.140   5.467
10178TIP3    H230476   6.018   2.245   5.379
10179TIP3   OH230477   6.598   1.105   4.924
10179TIP3    H130478   6.530   1.097   4.991
10179TIP3    H230479   6.678   1.123   4.974
10180TIP3   OH230480   2.279   2.993   3.005
10180TIP3    H130481   2.217   3.006   2.933
10180TIP3    H230482   2.231   3.022   3.083
10181TIP3   OH230483   6.932   3.691   4.926
10181TIP3    H130484   6.966   3.706   5.014
10181TIP3    H230485   6.982   3.749   4.870
10182TIP3   OH230486   4.308   6.097   0.706
10182TIP3    H130487   4.321   6.123   0.797
10182TIP3    H230488   4.321   6.178   0.656
10183TIP3   OH230489   1.095   5.981   5.810
10183TIP3    H130490   1.151   6.020   5.742
10183TIP3    H230491   1.150   5.915   5.852
10184TIP3   OH230492   4.057   3.414   6.111
10184TIP3    H130493   3.968   3.396   6.140
10184TIP3    H230494   4.061   3.376   6.023
10185TIP3   OH230495   5.354   2.193   0.718
10185TIP3    H130496   5.271   2.223   0.757
10185TIP3    H230497   5.370   2.254   0.647
10186TIP3   OH230498   2.219   1.086   6.816
10186TIP3    H130499   2.268   1.023   6.764
10186TIP3    H230500   2.167   1.135   6.752
10187TIP3   OH230501   1.062   4.271   2.866
10187TIP3    H130502   1.037   4.360   2.892
10187TIP3    H230503   0.993   4.243   2.806
10188TIP3   OH230504   5.946   1.610   5.972
10188TIP3    H130505   5.864   1.564   5.961
10188TIP3    H230506   6.013   1.542   5.973
10189TIP3   OH230507   4.240   7.495   2.885
10189TIP3    H130508   4.222   7.420   2.828
10189TIP3    H230509   4.251   7.569   2.825
10190TIP3   OH230510   2.539   5.091   4.128
10190TIP3    H130511   2.555   5.095   4.033
10190TIP3    H230512   2.520   4.999   4.145
10191TIP3   OH230513   1.517   0.264   0.101
10191TIP3    H130514   1.472   0.265   0.016
10191TIP3    H230515   1.450   0.234   0.163
10192TIP3   OH230516   5.058   3.819   0.348
10192TIP3    H130517   5.115   3.834   0.424
10192TIP3    H230518   4.987   3.883   0.358
10193TIP3   OH230519   4.795   7.419   2.351
10193TIP3    H130520   4.836   7.474   2.418
10193TIP3    H230521   4.762   7.481   2.286
10194TIP3   OH230522   6.645   0.172   0.636
10194TIP3    H130523   6.722   0.124   0.667
10194TIP3    H230524   6.591   0.105   0.593
10195TIP3   OH230525   6.665   6.724   3.208
10195TIP3    H130526   6.723   6.670   3.153
10195TIP3    H230527   6.606   6.767   3.146
10196TIP3   OH230528   5.020   6.751   3.591
10196TIP3    H130529   5.115   6.750   3.575
10196TIP3    H230530   5.004   6.832   3.639
10197TIP3   OH230531   8.088   2.460   5.636
10197TIP3    H130532   8.006   2.454   5.587
10197TIP3    H230533   8.148   2.403   5.588
10198TIP3   OH230534   2.995   2.566   2.108
10198TIP3    H130535   3.083   2.537   2.086
10198TIP3    H230536   3.003   2.660   2.120
10199TIP3   OH230537   2.674   0.637   4.004
10199TIP3    H130538   2.661   0.580   3.929
10199TIP3    H230539   2.656   0.725   3.971
10200TIP3   OH230540   3.085   7.501   5.140
10200TIP3    H130541   3.077   7.448   5.219
10200TIP3    H230542   3.041   7.450   5.071
10201TIP3   OH230543   2.724   4.282   0.135
10201TIP3    H130544   2.768   4.202   0.164
10201TIP3    H230545   2.794   4.346   0.126
10202TIP3   OH230546   4.628   3.036   2.317
10202TIP3    H130547   4.659   3.075   2.235
10202TIP3    H230548   4.706   3.031   2.372
10203TIP3   OH230549   2.586   6.232   4.743
10203TIP3    H130550   2.555   6.312   4.702
10203TIP3    H230551   2.668   6.257   4.786
10204TIP3   OH230552   4.304   1.156   0.911
10204TIP3    H130553   4.246   1.127   0.840
10204TIP3    H230554   4.363   1.081   0.925
10205TIP3   OH230555   4.275   6.915   4.826
10205TIP3    H130556   4.322   6.840   4.789
10205TIP3    H230557   4.202   6.876   4.875
10206TIP3   OH230558   8.251   6.662   5.467
10206TIP3    H130559   8.263   6.592   5.532
10206TIP3    H230560   8.304   6.635   5.393
10207TIP3   OH230561   5.798   3.275   1.630
10207TIP3    H130562   5.832   3.185   1.633
10207TIP3    H230563   5.755   3.287   1.715
10208TIP3   OH230564   7.707   1.077   0.314
10208TIP3    H130565   7.670   1.110   0.395
10208TIP3    H230566   7.640   1.094   0.248
10209TIP3   OH230567   1.005   1.140   1.624
10209TIP3    H130568   1.091   1.146   1.581
10209TIP3    H230569   0.953   1.084   1.567
10210TIP3   OH230570   6.359   6.919   4.198
10210TIP3    H130571   6.389   6.992   4.143
10210TIP3    H230572   6.439   6.883   4.236
10211TIP3   OH230573   5.675   7.459   2.818
10211TIP3    H130574   5.753   7.513   2.808
10211TIP3    H230575   5.613   7.493   2.753
10212TIP3   OH230576   7.362   1.827   6.833
10212TIP3    H130577   7.427   1.758   6.823
10212TIP3    H230578   7.381   1.889   6.762
10213TIP3   OH230579   2.411   1.532   3.108
10213TIP3    H130580   2.425   1.597   3.040
10213TIP3    H230581   2.348   1.470   3.070
10214TIP3   OH230582   3.243   7.606   2.776
10214TIP3    H130583   3.267   7.636   2.688
10214TIP3    H230584   3.317   7.633   2.830
10215TIP3   OH230585   5.837   2.337   0.017
10215TIP3    H130586   5.779   2.316   0.090
10215TIP3    H230587   5.844   2.255  -0.033
10216TIP3   OH230588   1.731   5.625   2.383
10216TIP3    H130589   1.666   5.695   2.388
10216TIP3    H230590   1.815   5.671   2.376
10217TIP3   OH230591   0.548   0.979   4.626
10217TIP3    H130592   0.571   0.979   4.719
10217TIP3    H230593   0.589   0.900   4.591
10218TIP3   OH230594   7.291   5.827   3.579
10218TIP3    H130595   7.285   5.860   3.669
10218TIP3    H230596   7.260   5.900   3.525
10219TIP3   OH230597   3.207   7.065   0.434
10219TIP3    H130598   3.267   7.068   0.359
10219TIP3    H230599   3.261   7.031   0.506
10220TIP3   OH230600   7.605   2.343   6.242
10220TIP3    H130601   7.686   2.367   6.287
10220TIP3    H230602   7.615   2.377   6.153
10221TIP3   OH230603   3.236   1.169   2.921
10221TIP3    H130604   3.229   1.222   2.841
10221TIP3    H230605   3.227   1.233   2.992
10222TIP3   OH230606   7.402   2.509   1.697
10222TIP3    H130607   7.311   2.501   1.667
10222TIP3    H230608   7.443   2.566   1.632
10223TIP3   OH230609   4.148   3.748   3.136
10223TIP3    H130610   4.229   3.697   3.131
10223TIP3    H230611   4.093   3.712   3.066
10224TIP3   OH230612   4.058   6.854   4.121
10224TIP3    H130613   4.125   6.804   4.169
10224TIP3    H230614   3.978   6.801   4.130
10225TIP3   OH230615   4.813   3.058   4.225
10225TIP3    H130616   4.838   3.149   4.205
10225TIP3    H230617   4.883   3.005   4.187
10226TIP3   OH230618   6.208   4.477   0.049
10226TIP3    H130619   6.181   4.519   0.131
10226TIP3    H230620   6.304   4.476   0.053
10227TIP3   OH230621   1.791   1.332   5.753
10227TIP3    H130622   1.751   1.261   5.804
10227TIP3    H230623   1.717   1.386   5.725
10228TIP3   OH230624   1.715   1.901   2.445
10228TIP3    H130625   1.740   1.933   2.358
10228TIP3    H230626   1.645   1.838   2.428
10229TIP3   OH230627   7.155   7.282   6.046
10229TIP3    H130628   7.119   7.365   6.016
10229TIP3    H230629   7.160   7.228   5.967
10230TIP3   OH230630   7.491   3.738   4.725
10230TIP3    H130631   7.416   3.682   4.709
10230TIP3    H230632   7.564   3.695   4.679
10231TIP3   OH230633   1.777   1.315  -0.053
10231TIP3    H130634   1.758   1.221  -0.053
10231TIP3    H230635   1.736   1.348   0.027
10232TIP3   OH230636   7.395   7.123   2.452
10232TIP3    H130637   7.359   7.037   2.469
10232TIP3    H230638   7.336   7.163   2.388
10233TIP3   OH230639   8.221   7.966   5.447
10233TIP3    H130640   8.147   7.963   5.387
10233TIP3    H230641   8.249   7.875   5.455
10234TIP3   OH230642   7.133   0.626   4.477
10234TIP3    H130643   7.196   0.672   4.532
10234TIP3    H230644   7.137   0.535   4.507
10235TIP3   OH230645   6.350   3.119   1.565
10235TIP3    H130646   6.422   3.147   1.621
10235TIP3    H230647   6.327   3.031   1.596
10236TIP3   OH230648   1.956   0.250   6.262
10236TIP3    H130649   1.862   0.266   6.272
10236TIP3    H230650   1.997   0.335   6.275
10237TIP3   OH230651   5.986   4.856   6.630
10237TIP3    H130652   5.978   4.882   6.721
10237TIP3    H230653   5.896   4.838   6.602
10238TIP3   OH230654   7.955   1.590   4.930
10238TIP3    H130655   7.990   1.509   4.894
10238TIP3    H230656   7.998   1.659   4.878
10239TIP3   OH230657   3.724   0.740   5.581
10239TIP3    H130658   3.802   0.707   5.535
10239TIP3    H230659   3.676   0.661   5.605
10240TIP3   OH230660   2.193   0.297   0.916
10240TIP3    H130661   2.147   0.381   0.917
10240TIP3    H230662   2.259   0.306   0.985
10241TIP3   OH230663   6.750   6.741   5.040
10241TIP3    H130664   6.771   6.750   5.133
10241TIP3    H230665   6.802   6.809   4.997
10242TIP3   OH230666   4.148   2.423   2.669
10242TIP3    H130667   4.102   2.360   2.725
10242TIP3    H230668   4.238   2.422   2.702
10243TIP3   OH230669   1.969   7.818   0.850
10243TIP3    H130670   1.970   7.742   0.792
10243TIP3    H230671   1.882   7.817   0.889
10244TIP3   OH230672   2.625  -0.022   3.402
10244TIP3    H130673   2.535  -0.003   3.429
10244TIP3    H230674   2.677   0.045   3.446
10245TIP3   OH230675   0.507   5.323   4.326
10245TIP3    H130676   0.505   5.295   4.418
10245TIP3    H230677   0.423   5.366   4.313
10246TIP3   OH230678   7.720   1.368   1.691
10246TIP3    H130679   7.701   1.351   1.784
10246TIP3    H230680   7.758   1.287   1.659
10247TIP3   OH230681   7.866   2.381   2.982
10247TIP3    H130682   7.823   2.426   2.910
10247TIP3    H230683   7.805   2.387   3.054
10248TIP3   OH230684   6.999   1.685   4.769
10248TIP3    H130685   6.974   1.724   4.853
10248TIP3    H230686   6.959   1.742   4.704
10249TIP3   OH230687   1.108   5.766   3.692
10249TIP3    H130688   1.028   5.725   3.658
10249TIP3    H230689   1.164   5.692   3.714
10250TIP3   OH230690   6.851   5.567   6.741
10250TIP3    H130691   6.874   5.474   6.749
10250TIP3    H230692   6.922   5.605   6.690
10251TIP3   OH230693   5.374   1.525   1.514
10251TIP3    H130694   5.428   1.589   1.558
10251TIP3    H230695   5.285   1.559   1.520
10252TIP3   OH230696   5.814   0.603   2.555
10252TIP3    H130697   5.889   0.592   2.613
10252TIP3    H230698   5.797   0.515   2.521
10253TIP3   OH230699   6.723   1.319   0.564
10253TIP3    H130700   6.810   1.329   0.603
10253TIP3    H230701   6.663   1.334   0.637
10254TIP3   OH230702   3.630   6.793   4.371
10254TIP3    H130703   3.610   6.700   4.384
10254TIP3    H230704   3.545   6.837   4.373
10255TIP3   OH230705   5.538   5.160   6.540
10255TIP3    H130706   5.486   5.236   6.567
10255TIP3    H230707   5.629   5.191   6.542
10256TIP3   OH230708   3.558   2.942   2.435
10256TIP3    H130709   3.502   2.869   2.460
10256TIP3    H230710   3.612   2.959   2.512
10257TIP3   OH230711   3.530   6.657   2.424
10257TIP3    H130712   3.604   6.675   2.483
10257TIP3    H230713   3.495   6.574   2.455
10258TIP3   OH230714   3.140   2.207   2.885
10258TIP3    H130715   3.073   2.143   2.863
10258TIP3    H230716   3.212   2.189   2.824
10259TIP3   OH230717   7.533   4.852   3.537
10259TIP3    H130718   7.618   4.891   3.556
10259TIP3    H230719   7.529   4.773   3.590
10260TIP3   OH230720   3.012   6.246   2.859
10260TIP3    H130721   3.057   6.181   2.806
10260TIP3    H230722   3.017   6.327   2.809
10261TIP3   OH230723   7.216   5.219   2.610
10261TIP3    H130724   7.238   5.160   2.538
10261TIP3    H230725   7.134   5.260   2.583
10262TIP3   OH230726   3.886   6.171   4.925
10262TIP3    H130727   3.957   6.110   4.945
10262TIP3    H230728   3.926   6.237   4.867
10263TIP3   OH230729   2.438   2.920   0.909
10263TIP3    H130730   2.494   2.997   0.914
10263TIP3    H230731   2.495   2.850   0.878
10264TIP3   OH230732   4.153   5.363   4.605
10264TIP3    H130733   4.120   5.274   4.589
10264TIP3    H230734   4.248   5.355   4.602
10265TIP3   OH230735   8.115   5.619   2.818
10265TIP3    H130736   8.150   5.600   2.905
10265TIP3    H230737   8.152   5.703   2.794
10266TIP3   OH230738   7.190   2.905   6.477
10266TIP3    H130739   7.281   2.900   6.447
10266TIP3    H230740   7.193   2.958   6.556
10267TIP3   OH230741   6.039   1.357   5.299
10267TIP3    H130742   6.100   1.377   5.227
10267TIP3    H230743   5.971   1.423   5.291
10268TIP3   OH230744   4.560   2.315   2.221
10268TIP3    H130745   4.587   2.341   2.133
10268TIP3    H230746   4.626   2.252   2.249
10269TIP3   OH230747   0.997   5.126   5.483
10269TIP3    H130748   1.010   5.192   5.551
10269TIP3    H230749   1.085   5.097   5.460
10270TIP3   OH230750   1.982   1.644   3.846
10270TIP3    H130751   1.945   1.658   3.759
10270TIP3    H230752   2.068   1.686   3.843
10271TIP3   OH230753   7.745   2.425   0.292
10271TIP3    H130754   7.820   2.419   0.233
10271TIP3    H230755   7.669   2.419   0.235
10272TIP3   OH230756   5.768   7.713   5.819
10272TIP3    H130757   5.777   7.807   5.809
10272TIP3    H230758   5.858   7.680   5.820
10273TIP3   OH230759   4.441   0.246   4.536
10273TIP3    H130760   4.475   0.158   4.523
10273TIP3    H230761   4.385   0.240   4.613
10274TIP3   OH230762   6.985   7.033   1.049
10274TIP3    H130763   7.067   7.040   1.002
10274TIP3    H230764   6.978   6.940   1.072
10275TIP3   OH230765   7.862   6.554   5.640
10275TIP3    H130766   7.872   6.607   5.560
10275TIP3    H230767   7.926   6.591   5.701
10276TIP3   OH230768   7.421   4.020   3.592
10276TIP3    H130769   7.421   4.085   3.663
10276TIP3    H230770   7.506   4.031   3.549
10277TIP3   OH230771   4.174   6.936   0.957
10277TIP3    H130772   4.241   6.873   0.982
10277TIP3    H230773   4.092   6.888   0.967
10278TIP3   OH230774   0.264   5.339   0.411
10278TIP3    H130775   0.296   5.370   0.327
10278TIP3    H230776   0.321   5.266   0.434
10279TIP3   OH230777   8.077   0.276   0.280
10279TIP3    H130778   8.160   0.269   0.232
10279TIP3    H230779   8.103   0.270   0.372
10280TIP3   OH230780   6.930   5.059   1.567
10280TIP3    H130781   7.018   5.095   1.580
10280TIP3    H230782   6.942   4.964   1.569
10281TIP3   OH230783   1.885   2.624   5.209
10281TIP3    H130784   1.795   2.592   5.214
10281TIP3    H230785   1.896   2.647   5.117
10282TIP3   OH230786   5.231   2.855   6.833
10282TIP3    H130787   5.171   2.804   6.780
10282TIP3    H230788   5.304   2.795   6.852
10283TIP3   OH230789   3.418   4.147   2.301
10283TIP3    H130790   3.364   4.092   2.244
10283TIP3    H230791   3.366   4.157   2.381
10284TIP3   OH230792   6.857   7.856   0.697
10284TIP3    H130793   6.859   7.764   0.725
10284TIP3    H230794   6.942   7.870   0.656
10285TIP3   OH230795   6.037   0.009   2.570
10285TIP3    H130796   6.106   0.068   2.538
10285TIP3    H230797   6.058  -0.076   2.531
10286TIP3   OH230798   6.871   5.384   6.165
10286TIP3    H130799   6.924   5.370   6.243
10286TIP3    H230800   6.826   5.467   6.181
10287TIP3   OH230801   0.894   7.226   4.143
10287TIP3    H130802   0.884   7.133   4.126
10287TIP3    H230803   0.849   7.240   4.226
10288TIP3   OH230804   3.614   4.109   5.902
10288TIP3    H130805   3.582   4.036   5.848
10288TIP3    H230806   3.700   4.129   5.868
10289TIP3   OH230807   8.095   2.197   2.287
10289TIP3    H130808   8.016   2.184   2.235
10289TIP3    H230809   8.072   2.265   2.350
10290TIP3   OH230810   4.507   2.707   1.659
10290TIP3    H130811   4.427   2.718   1.608
10290TIP3    H230812   4.486   2.743   1.745
10291TIP3   OH230813   4.012   5.613   6.419
10291TIP3    H130814   3.937   5.581   6.471
10291TIP3    H230815   4.030   5.542   6.357
10292TIP3   OH230816   4.963   6.948   3.767
10292TIP3    H130817   4.947   7.034   3.729
10292TIP3    H230818   5.001   6.966   3.852
10293TIP3   OH230819   5.867   2.021   2.706
10293TIP3    H130820   5.954   2.051   2.677
10293TIP3    H230821   5.870   1.926   2.699
10294TIP3   OH230822   4.801   2.665   2.198
10294TIP3    H130823   4.714   2.626   2.195
10294TIP3    H230824   4.795   2.741   2.139
10295TIP3   OH230825   7.140   3.504   2.689
10295TIP3    H130826   7.173   3.483   2.777
10295TIP3    H230827   7.064   3.560   2.705
10296TIP3   OH230828   5.494   2.830   6.062
10296TIP3    H130829   5.484   2.767   5.990
10296TIP3    H230830   5.436   2.902   6.040
10297TIP3   OH230831   6.924   4.693   4.166
10297TIP3    H130832   6.928   4.609   4.210
10297TIP3    H230833   6.833   4.722   4.178
10298TIP3   OH230834   3.478   3.692   2.000
10298TIP3    H130835   3.501   3.656   2.085
10298TIP3    H230836   3.492   3.787   2.010
10299TIP3   OH230837   5.111   7.024   5.793
10299TIP3    H130838   5.064   6.954   5.747
10299TIP3    H230839   5.051   7.052   5.861
10300TIP3   OH230840   3.419   0.716   4.356
10300TIP3    H130841   3.459   0.651   4.415
10300TIP3    H230842   3.346   0.751   4.406
10301TIP3   OH230843   0.743   1.424   1.414
10301TIP3    H130844   0.836   1.420   1.437
10301TIP3    H230845   0.698   1.386   1.489
10302TIP3   OH230846   3.981   2.027   3.463
10302TIP3    H130847   4.015   2.001   3.378
10302TIP3    H230848   3.951   2.118   3.450
10303TIP3   OH230849   0.812   1.166   4.388
10303TIP3    H130850   0.732   1.137   4.432
10303TIP3    H230851   0.792   1.255   4.358
10304TIP3   OH230852   3.279   4.079   4.747
10304TIP3    H130853   3.278   4.007   4.684
10304TIP3    H230854   3.190   4.115   4.743
10305TIP3   OH230855   7.245   3.392   2.173
10305TIP3    H130856   7.253   3.430   2.261
10305TIP3    H230857   7.232   3.299   2.187
10306TIP3   OH230858   3.278   6.682   0.732
10306TIP3    H130859   3.187   6.703   0.710
10306TIP3    H230860   3.272   6.629   0.811
10307TIP3   OH230861   3.110   7.211   3.783
10307TIP3    H130862   3.031   7.215   3.729
10307TIP3    H230863   3.156   7.292   3.764
10308TIP3   OH230864   2.302   2.954   3.527
10308TIP3    H130865   2.274   2.906   3.605
10308TIP3    H230866   2.384   2.912   3.501
10309TIP3   OH230867   5.597   7.507   0.959
10309TIP3    H130868   5.532   7.436   0.965
10309TIP3    H230869   5.632   7.515   1.047
10310TIP3   OH230870   8.173   5.887   2.695
10310TIP3    H130871   8.201   5.888   2.603
10310TIP3    H230872   8.097   5.945   2.697
10311TIP3   OH230873   3.145   1.107   0.449
10311TIP3    H130874   3.148   1.123   0.543
10311TIP3    H230875   3.198   1.177   0.411
10312TIP3   OH230876   5.816   6.972   3.312
10312TIP3    H130877   5.758   7.048   3.302
10312TIP3    H230878   5.883   6.982   3.245
10313TIP3   OH230879   2.296   6.309   3.857
10313TIP3    H130880   2.343   6.227   3.851
10313TIP3    H230881   2.348   6.371   3.806
10314TIP3   OH230882   6.623   3.159   3.329
10314TIP3    H130883   6.628   3.142   3.423
10314TIP3    H230884   6.694   3.107   3.291
10315TIP3   OH230885   0.012   1.986   2.589
10315TIP3    H130886   0.104   2.010   2.606
10315TIP3    H230887   0.015   1.933   2.510
10316TIP3   OH230888   0.929   0.527   6.050
10316TIP3    H130889   0.987   0.603   6.052
10316TIP3    H230890   0.927   0.497   6.141
10317TIP3   OH230891   5.692   4.328   2.900
10317TIP3    H130892   5.778   4.349   2.863
10317TIP3    H230893   5.706   4.327   2.995
10318TIP3   OH230894   0.995   2.746   1.567
10318TIP3    H130895   1.006   2.805   1.641
10318TIP3    H230896   0.910   2.703   1.583
10319TIP3   OH230897   6.961   4.693   2.920
10319TIP3    H130898   7.003   4.634   2.982
10319TIP3    H230899   6.932   4.637   2.848
10320TIP3   OH230900   1.593   2.023   4.063
10320TIP3    H130901   1.510   1.984   4.089
10320TIP3    H230902   1.626   1.965   3.994
10321TIP3   OH230903   4.741   5.082   5.034
10321TIP3    H130904   4.658   5.107   5.076
10321TIP3    H230905   4.749   5.143   4.961
10322TIP3   OH230906   7.801   5.589   5.771
10322TIP3    H130907   7.745   5.662   5.799
10322TIP3    H230908   7.740   5.516   5.758
10323TIP3   OH230909   8.121   6.401   0.154
10323TIP3    H130910   8.128   6.484   0.202
10323TIP3    H230911   8.115   6.335   0.223
10324TIP3   OH230912   3.822   5.275   5.795
10324TIP3    H130913   3.814   5.269   5.700
10324TIP3    H230914   3.745   5.230   5.829
10325TIP3   OH230915   1.657   1.837   5.825
10325TIP3    H130916   1.620   1.819   5.738
10325TIP3    H230917   1.586   1.881   5.872
10326TIP3   OH230918   8.078   0.635   5.992
10326TIP3    H130919   8.138   0.578   6.041
10326TIP3    H230920   8.002   0.579   5.973
10327TIP3   OH230921   1.595   6.232   2.230
10327TIP3    H130922   1.515   6.232   2.177
10327TIP3    H230923   1.666   6.238   2.167
10328TIP3   OH230924   7.027   6.161   0.907
10328TIP3    H130925   7.031   6.101   0.981
10328TIP3    H230926   7.071   6.115   0.836
10329TIP3   OH230927   4.942   2.943   1.435
10329TIP3    H130928   4.982   2.983   1.513
10329TIP3    H230929   5.017   2.919   1.380
10330TIP3   OH230930   8.000   0.903   3.875
10330TIP3    H130931   8.078   0.952   3.849
10330TIP3    H230932   7.958   0.958   3.940
10331TIP3   OH230933   4.493   4.209   6.629
10331TIP3    H130934   4.579   4.203   6.671
10331TIP3    H230935   4.463   4.298   6.650
10332TIP3   OH230936   4.604   0.830   1.111
10332TIP3    H130937   4.559   0.770   1.171
10332TIP3    H230938   4.680   0.780   1.081
10333TIP3   OH230939   1.258   4.541   2.086
10333TIP3    H130940   1.281   4.448   2.093
10333TIP3    H230941   1.302   4.582   2.160
10334TIP3   OH230942   2.402   2.592   0.934
10334TIP3    H130943   2.443   2.512   0.967
10334TIP3    H230944   2.425   2.593   0.841
10335TIP3   OH230945   5.635   1.915   6.501
10335TIP3    H130946   5.650   1.849   6.569
10335TIP3    H230947   5.607   1.864   6.425
10336TIP3   OH230948   6.183   2.862   6.190
10336TIP3    H130949   6.266   2.909   6.187
10336TIP3    H230950   6.139   2.886   6.109
10337TIP3   OH230951   5.159   7.887   3.353
10337TIP3    H130952   5.176   7.796   3.330
10337TIP3    H230953   5.066   7.900   3.334
10338TIP3   OH230954   2.219   6.099   3.607
10338TIP3    H130955   2.159   6.158   3.653
10338TIP3    H230956   2.287   6.157   3.573
10339TIP3   OH230957   0.163   4.257   3.706
10339TIP3    H130958   0.226   4.323   3.675
10339TIP3    H230959   0.187   4.242   3.797
10340TIP3   OH230960   1.969   5.309   4.128
10340TIP3    H130961   2.054   5.322   4.086
10340TIP3    H230962   1.916   5.262   4.064
10341TIP3   OH230963   1.119   0.469   5.236
10341TIP3    H130964   1.110   0.539   5.300
10341TIP3    H230965   1.107   0.512   5.151
10342TIP3   OH230966   3.684   2.792   2.984
10342TIP3    H130967   3.748   2.859   3.006
10342TIP3    H230968   3.653   2.759   3.068
10343TIP3   OH230969   4.743   4.116   2.868
10343TIP3    H130970   4.768   4.091   2.957
10343TIP3    H230971   4.652   4.088   2.860
10344TIP3   OH230972   1.203   5.969   2.498
10344TIP3    H130973   1.216   5.978   2.404
10344TIP3    H230974   1.166   6.053   2.525
10345TIP3   OH230975   6.544   1.126   2.988
10345TIP3    H130976   6.545   1.218   2.963
10345TIP3    H230977   6.584   1.123   3.075
10346TIP3   OH230978   7.199   0.932   4.386
10346TIP3    H130979   7.213   1.009   4.440
10346TIP3    H230980   7.213   0.857   4.444
10347TIP3   OH230981   7.716   3.508   0.627
10347TIP3    H130982   7.676   3.594   0.635
10347TIP3    H230983   7.805   3.525   0.596
10348TIP3   OH230984   0.730   1.136   2.868
10348TIP3    H130985   0.713   1.128   2.962
10348TIP3    H230986   0.657   1.187   2.834
10349TIP3   OH230987   4.389   2.383   2.793
10349TIP3    H130988   4.386   2.289   2.778
10349TIP3    H230989   4.482   2.403   2.805
10350TIP3   OH230990   0.016   7.644   4.320
10350TIP3    H130991  -0.072   7.610   4.311
10350TIP3    H230992   0.073   7.567   4.318
10351TIP3   OH230993   7.768   6.518   1.946
10351TIP3    H130994   7.835   6.501   2.012
10351TIP3    H230995   7.693   6.551   1.996
10352TIP3   OH230996   5.253   3.848   0.685
10352TIP3    H130997   5.192   3.779   0.713
10352TIP3    H230998   5.337   3.805   0.678
10353TIP3   OH230999   3.169   7.357   4.398
10353TIP3    H131000   3.161   7.277   4.449
10353TIP3    H231001   3.216   7.331   4.319
10354TIP3   OH231002   2.805   2.732   5.409
10354TIP3    H131003   2.838   2.806   5.359
10354TIP3    H231004   2.743   2.770   5.471
10355TIP3   OH231005   2.159   0.301   2.625
10355TIP3    H131006   2.072   0.337   2.606
10355TIP3    H231007   2.168   0.310   2.720
10356TIP3   OH231008   1.059   3.901   0.406
10356TIP3    H131009   0.978   3.898   0.457
10356TIP3    H231010   1.124   3.937   0.467
10357TIP3   OH231011   1.779   7.436   1.934
10357TIP3    H131012   1.856   7.448   1.988
10357TIP3    H231013   1.804   7.371   1.869
10358TIP3   OH231014   7.036   6.401   0.497
10358TIP3    H131015   7.036   6.408   0.592
10358TIP3    H231016   7.121   6.435   0.470
10359TIP3   OH231017   1.295   4.904   6.665
10359TIP3    H131018   1.386   4.922   6.642
10359TIP3    H231019   1.288   4.809   6.661
10360TIP3   OH231020   2.484   6.100   3.841
10360TIP3    H131021   2.548   6.116   3.911
10360TIP3    H231022   2.534   6.106   3.760
10361TIP3   OH231023   6.492   5.190   1.910
10361TIP3    H131024   6.543   5.230   1.840
10361TIP3    H231025   6.557   5.152   1.968
10362TIP3   OH231026   8.053   6.282   5.924
10362TIP3    H131027   8.055   6.261   5.831
10362TIP3    H231028   7.973   6.333   5.935
10363TIP3   OH231029   3.652   6.918   4.083
10363TIP3    H131030   3.721   6.904   4.148
10363TIP3    H231031   3.648   7.013   4.072
10364TIP3   OH231032   7.458   6.529   5.974
10364TIP3    H131033   7.363   6.521   5.985
10364TIP3    H231034   7.469   6.596   5.906
10365TIP3   OH231035   5.001   3.566   1.553
10365TIP3    H131036   5.036   3.610   1.475
10365TIP3    H231037   4.928   3.621   1.581
10366TIP3   OH231038   2.564   6.688   4.193
10366TIP3    H131039   2.491   6.746   4.171
10366TIP3    H231040   2.525   6.601   4.200
10367TIP3   OH231041   4.345   1.452   0.068
10367TIP3    H131042   4.429   1.424   0.103
10367TIP3    H231043   4.342   1.546   0.084
10368TIP3   OH231044   6.776   2.139   1.130
10368TIP3    H131045   6.694   2.160   1.175
10368TIP3    H231046   6.829   2.218   1.137
10369TIP3   OH231047   7.443   7.019   0.488
10369TIP3    H131048   7.428   6.959   0.562
10369TIP3    H231049   7.490   7.093   0.527
10370TIP3   OH231050   2.831   5.384   5.525
10370TIP3    H131051   2.886   5.351   5.596
10370TIP3    H231052   2.824   5.478   5.541
10371TIP3   OH231053   0.754   4.524   3.980
10371TIP3    H131054   0.712   4.454   3.931
10371TIP3    H231055   0.703   4.532   4.061
10372TIP3   OH231056   5.790   4.594   5.435
10372TIP3    H131057   5.744   4.639   5.507
10372TIP3    H231058   5.810   4.664   5.373
10373TIP3   OH231059   1.087   5.352   5.621
10373TIP3    H131060   1.137   5.279   5.657
10373TIP3    H231061   1.097   5.423   5.684
10374TIP3   OH231062   1.545   2.534   1.855
10374TIP3    H131063   1.617   2.590   1.883
10374TIP3    H231064   1.467   2.577   1.890
10375TIP3   OH231065   8.359   3.086   1.923
10375TIP3    H131066   8.415   3.079   2.001
10375TIP3    H231067   8.356   3.180   1.904
10376TIP3   OH231068   5.545   2.202   1.949
10376TIP3    H131069   5.517   2.169   1.863
10376TIP3    H231070   5.607   2.272   1.928
10377TIP3   OH231071   5.088   5.363   5.632
10377TIP3    H131072   5.127   5.306   5.699
10377TIP3    H231073   5.158   5.377   5.569
10378TIP3   OH231074   5.539   5.377   0.919
10378TIP3    H131075   5.572   5.464   0.942
10378TIP3    H231076   5.612   5.318   0.939
10379TIP3   OH231077   2.439   4.557   3.367
10379TIP3    H131078   2.499   4.488   3.338
10379TIP3    H231079   2.479   4.638   3.336
10380TIP3   OH231080   8.066   6.061   5.600
10380TIP3    H131081   8.119   6.121   5.548
10380TIP3    H231082   7.980   6.103   5.605
10381TIP3   OH231083   3.693   0.711   6.710
10381TIP3    H131084   3.786   0.724   6.692
10381TIP3    H231085   3.652   0.705   6.623
10382TIP3   OH231086   7.429   0.498   5.130
10382TIP3    H131087   7.522   0.498   5.153
10382TIP3    H231088   7.427   0.527   5.039
10383TIP3   OH231089   6.684   6.696   1.872
10383TIP3    H131090   6.671   6.666   1.962
10383TIP3    H231091   6.595   6.710   1.838
10384TIP3   OH231092   3.584   5.016   0.433
10384TIP3    H131093   3.677   5.041   0.428
10384TIP3    H231094   3.536   5.096   0.411
10385TIP3   OH231095   8.164   5.529   6.539
10385TIP3    H131096   8.121   5.557   6.459
10385TIP3    H231097   8.248   5.492   6.511
10386TIP3   OH231098   0.272   1.216   1.832
10386TIP3    H131099   0.224   1.153   1.778
10386TIP3    H231100   0.216   1.229   1.909
10387TIP3   OH231101   0.431   1.215   0.795
10387TIP3    H131102   0.474   1.161   0.862
10387TIP3    H231103   0.410   1.153   0.725
10388TIP3   OH231104   4.830   3.476   3.712
10388TIP3    H131105   4.754   3.527   3.684
10388TIP3    H231106   4.896   3.541   3.736
10389TIP3   OH231107   5.906   7.274   2.318
10389TIP3    H131108   5.813   7.261   2.297
10389TIP3    H231109   5.952   7.247   2.239
10390TIP3   OH231110   7.145   2.075   0.174
10390TIP3    H131111   7.147   1.981   0.157
10390TIP3    H231112   7.057   2.091   0.208
10391TIP3   OH231113   3.780   3.957   4.228
10391TIP3    H131114   3.852   3.956   4.291
10391TIP3    H231115   3.733   4.038   4.246
10392TIP3   OH231116   8.187   2.356   6.845
10392TIP3    H131117   8.256   2.421   6.850
10392TIP3    H231118   8.189   2.311   6.929
10393TIP3   OH231119   0.339   4.225   2.357
10393TIP3    H131120   0.375   4.248   2.443
10393TIP3    H231121   0.286   4.300   2.332
10394TIP3   OH231122   1.499   1.320   1.440
10394TIP3    H131123   1.548   1.323   1.358
10394TIP3    H231124   1.552   1.264   1.497
10395TIP3   OH231125   7.140   5.470   2.869
10395TIP3    H131126   7.182   5.545   2.827
10395TIP3    H231127   7.072   5.508   2.923
10396TIP3   OH231128   2.547   1.236   5.226
10396TIP3    H131129   2.638   1.263   5.233
10396TIP3    H231130   2.540   1.159   5.282
10397TIP3   OH231131   0.574   6.405   4.623
10397TIP3    H131132   0.577   6.341   4.695
10397TIP3    H231133   0.658   6.450   4.627
10398TIP3   OH231134   8.007   4.113   4.464
10398TIP3    H131135   8.047   4.099   4.550
10398TIP3    H231136   7.919   4.076   4.472
10399TIP3   OH231137   6.327   0.985   5.809
10399TIP3    H131138   6.254   1.038   5.779
10399TIP3    H231139   6.290   0.926   5.875
10400TIP3   OH231140   7.993   4.570   4.299
10400TIP3    H131141   8.076   4.617   4.294
10400TIP3    H231142   8.016   4.486   4.339
10401TIP3   OH231143   4.296   1.291   1.877
10401TIP3    H131144   4.350   1.230   1.927
10401TIP3    H231145   4.337   1.295   1.791
10402TIP3   OH231146   8.211   1.949   2.201
10402TIP3    H131147   8.209   2.042   2.224
10402TIP3    H231148   8.193   1.947   2.107
10403TIP3   OH231149   8.360   2.160   3.769
10403TIP3    H131150   8.399   2.101   3.833
10403TIP3    H231151   8.266   2.154   3.785
10404TIP3   OH231152   3.002   5.677   5.162
10404TIP3    H131153   3.037   5.736   5.095
10404TIP3    H231154   3.072   5.673   5.228
10405TIP3   OH231155   6.067   2.161   6.299
10405TIP3    H131156   6.147   2.209   6.277
10405TIP3    H231157   5.997   2.212   6.257
10406TIP3   OH231158   1.198   7.157   4.152
10406TIP3    H131159   1.112   7.130   4.119
10406TIP3    H231160   1.178   7.213   4.227
10407TIP3   OH231161   3.101   1.487   1.931
10407TIP3    H131162   3.012   1.495   1.966
10407TIP3    H231163   3.093   1.428   1.857
10408TIP3   OH231164   6.477   3.571   1.400
10408TIP3    H131165   6.429   3.532   1.327
10408TIP3    H231166   6.567   3.580   1.368
10409TIP3   OH231167   6.805   6.437   0.671
10409TIP3    H131168   6.836   6.527   0.679
10409TIP3    H231169   6.869   6.385   0.720
10410TIP3   OH231170   5.595   6.177   1.367
10410TIP3    H131171   5.628   6.172   1.277
10410TIP3    H231172   5.635   6.256   1.402
10411TIP3   OH231173   0.445   1.783   6.399
10411TIP3    H131174   0.374   1.739   6.352
10411TIP3    H231175   0.448   1.871   6.362
10412TIP3   OH231176   5.482   5.177   5.096
10412TIP3    H131177   5.531   5.250   5.059
10412TIP3    H231178   5.393   5.187   5.062
10413TIP3   OH231179   7.507   0.627   1.078
10413TIP3    H131180   7.438   0.687   1.049
10413TIP3    H231181   7.556   0.606   0.998
10414TIP3   OH231182   4.853   2.863   0.327
10414TIP3    H131183   4.783   2.836   0.267
10414TIP3    H231184   4.861   2.957   0.314
10415TIP3   OH231185   7.134   3.090   6.701
10415TIP3    H131186   7.050   3.133   6.688
10415TIP3    H231187   7.149   3.094   6.795
10416TIP3   OH231188   1.791   3.957   2.022
10416TIP3    H131189   1.773   4.027   2.084
10416TIP3    H231190   1.819   4.002   1.942
10417TIP3   OH231191   0.387   6.369   2.656
10417TIP3    H131192   0.453   6.362   2.725
10417TIP3    H231193   0.314   6.317   2.687
10418TIP3   OH231194   2.818   1.288   0.339
10418TIP3    H131195   2.766   1.219   0.379
10418TIP3    H231196   2.874   1.243   0.276
10419TIP3   OH231197   7.047   5.798   2.126
10419TIP3    H131198   7.115   5.861   2.102
10419TIP3    H231199   7.003   5.778   2.043
10420TIP3   OH231200   7.269   6.522   5.283
10420TIP3    H131201   7.230   6.592   5.231
10420TIP3    H231202   7.358   6.513   5.249
10421TIP3   OH231203   0.673   4.240   1.651
10421TIP3    H131204   0.680   4.247   1.555
10421TIP3    H231205   0.645   4.327   1.679
10422TIP3   OH231206   2.618   6.078   5.850
10422TIP3    H131207   2.625   6.106   5.759
10422TIP3    H231208   2.610   5.983   5.846
10423TIP3   OH231209   7.097   1.676   4.465
10423TIP3    H131210   7.108   1.707   4.555
10423TIP3    H231211   7.082   1.755   4.414
10424TIP3   OH231212   5.987   7.190   3.413
10424TIP3    H131213   6.047   7.185   3.339
10424TIP3    H231214   5.900   7.184   3.373
10425TIP3   OH231215   2.249   2.238   2.504
10425TIP3    H131216   2.226   2.297   2.432
10425TIP3    H231217   2.320   2.283   2.549
10426TIP3   OH231218   4.151   5.622   3.773
10426TIP3    H131219   4.136   5.660   3.859
10426TIP3    H231220   4.095   5.544   3.771
10427TIP3   OH231221   7.032   7.597   0.377
10427TIP3    H131222   7.048   7.528   0.312
10427TIP3    H231223   7.110   7.597   0.432
10428TIP3   OH231224   3.410   7.250   1.028
10428TIP3    H131225   3.479   7.192   0.995
10428TIP3    H231226   3.437   7.337   1.001
10429TIP3   OH231227   1.941   5.064   0.982
10429TIP3    H131228   1.893   5.061   0.899
10429TIP3    H231229   1.917   5.148   1.021
10430TIP3   OH231230   0.834   3.692   6.175
10430TIP3    H131231   0.862   3.614   6.129
10430TIP3    H231232   0.853   3.764   6.115
10431TIP3   OH231233   3.886   0.229   4.283
10431TIP3    H131234   3.854   0.260   4.367
10431TIP3    H231235   3.879   0.305   4.225
10432TIP3   OH231236   7.240   1.456   0.901
10432TIP3    H131237   7.241   1.471   0.806
10432TIP3    H231238   7.200   1.535   0.937
10433TIP3   OH231239   2.586   4.635   5.073
10433TIP3    H131240   2.496   4.666   5.065
10433TIP3    H231241   2.597   4.576   4.998
10434TIP3   OH231242   3.302   1.088   5.681
10434TIP3    H131243   3.225   1.058   5.632
10434TIP3    H231244   3.302   1.183   5.669
10435TIP3   OH231245   1.058   1.284   4.965
10435TIP3    H131246   1.026   1.366   5.003
10435TIP3    H231247   1.102   1.240   5.037
10436TIP3   OH231248   7.786   1.565   5.468
10436TIP3    H131249   7.819   1.653   5.449
10436TIP3    H231250   7.699   1.580   5.504
10437TIP3   OH231251   6.157   7.200   2.400
10437TIP3    H131252   6.085   7.263   2.408
10437TIP3    H231253   6.176   7.175   2.490
10438TIP3   OH231254   2.297   3.400   4.505
10438TIP3    H131255   2.387   3.375   4.523
10438TIP3    H231256   2.274   3.460   4.576
10439TIP3   OH231257   6.254   0.460   5.749
10439TIP3    H131258   6.220   0.373   5.729
10439TIP3    H231259   6.327   0.444   5.809
10440TIP3   OH231260   4.997   1.109   4.174
10440TIP3    H131261   4.906   1.099   4.201
10440TIP3    H231262   4.999   1.079   4.083
10441TIP3   OH231263   4.378   6.742   2.580
10441TIP3    H131264   4.314   6.713   2.515
10441TIP3    H231265   4.396   6.833   2.557
10442TIP3   OH231266   3.751   2.629   0.138
10442TIP3    H131267   3.840   2.644   0.168
10442TIP3    H231268   3.733   2.701   0.077
10443TIP3   OH231269   4.550   7.728   1.415
10443TIP3    H131270   4.578   7.820   1.421
10443TIP3    H231271   4.504   7.722   1.331
10444TIP3   OH231272   0.338   3.009   5.415
10444TIP3    H131273   0.334   3.005   5.510
10444TIP3    H231274   0.265   3.066   5.389
10445TIP3   OH231275   1.707   6.068   0.022
10445TIP3    H131276   1.629   6.017  -0.003
10445TIP3    H231277   1.780   6.011  -0.001
10446TIP3   OH231278   2.994   0.474   5.399
10446TIP3    H131279   3.083   0.472   5.434
10446TIP3    H231280   2.945   0.414   5.456
10447TIP3   OH231281   7.749   3.385   5.629
10447TIP3    H131282   7.719   3.350   5.545
10447TIP3    H231283   7.710   3.473   5.633
10448TIP3   OH231284   1.081   3.456   4.523
10448TIP3    H131285   1.105   3.518   4.591
10448TIP3    H231286   1.119   3.493   4.443
10449TIP3   OH231287   2.202   3.401   3.426
10449TIP3    H131288   2.135   3.381   3.360
10449TIP3    H231289   2.193   3.331   3.491
10450TIP3   OH231290   3.570   4.531   1.928
10450TIP3    H131291   3.531   4.472   1.863
10450TIP3    H231292   3.613   4.473   1.991
10451TIP3   OH231293   1.678   2.724   3.367
10451TIP3    H131294   1.698   2.688   3.281
10451TIP3    H231295   1.753   2.699   3.422
10452TIP3   OH231296   0.957   7.589   3.183
10452TIP3    H131297   1.032   7.533   3.205
10452TIP3    H231298   0.954   7.655   3.252
10453TIP3   OH231299   6.598   6.375   4.336
10453TIP3    H131300   6.590   6.334   4.250
10453TIP3    H231301   6.558   6.313   4.396
10454TIP3   OH231302   0.818   2.974   4.409
10454TIP3    H131303   0.837   3.056   4.454
10454TIP3    H231304   0.874   2.977   4.331
10455TIP3   OH231305   3.618   3.078   1.592
10455TIP3    H131306   3.679   3.063   1.520
10455TIP3    H231307   3.668   3.057   1.671
10456TIP3   OH231308   8.285   4.945   4.857
10456TIP3    H131309   8.279   5.041   4.859
10456TIP3    H231310   8.378   4.927   4.866
10457TIP3   OH231311   0.181   5.864   1.878
10457TIP3    H131312   0.234   5.829   1.949
10457TIP3    H231313   0.098   5.818   1.885
10458TIP3   OH231314   2.067   0.549   5.253
10458TIP3    H131315   2.121   0.495   5.197
10458TIP3    H231316   2.112   0.549   5.338
10459TIP3   OH231317   4.165   3.562   3.375
10459TIP3    H131318   4.134   3.474   3.394
10459TIP3    H231319   4.167   3.566   3.279
10460TIP3   OH231320   1.189   5.439   0.529
10460TIP3    H131321   1.257   5.493   0.569
10460TIP3    H231322   1.110   5.457   0.580
10461TIP3   OH231323   7.501   3.533   1.757
10461TIP3    H131324   7.521   3.623   1.782
10461TIP3    H231325   7.456   3.497   1.833
10462TIP3   OH231326   2.397   7.622   4.627
10462TIP3    H131327   2.422   7.649   4.539
10462TIP3    H231328   2.479   7.591   4.667
10463TIP3   OH231329   6.556   0.434   4.062
10463TIP3    H131330   6.628   0.396   4.010
10463TIP3    H231331   6.541   0.370   4.131
10464TIP3   OH231332   0.191   4.801   2.305
10464TIP3    H131333   0.215   4.814   2.213
10464TIP3    H231334   0.102   4.765   2.301
10465TIP3   OH231335   6.199   3.567   2.067
10465TIP3    H131336   6.280   3.590   2.023
10465TIP3    H231337   6.210   3.474   2.090
10466TIP3   OH231338   5.162   7.760   1.531
10466TIP3    H131339   5.134   7.777   1.441
10466TIP3    H231340   5.110   7.684   1.558
10467TIP3   OH231341   3.168   7.280   4.723
10467TIP3    H131342   3.199   7.190   4.723
10467TIP3    H231343   3.111   7.286   4.799
10468TIP3   OH231344   5.298   6.600   1.151
10468TIP3    H131345   5.309   6.532   1.085
10468TIP3    H231346   5.245   6.558   1.219
10469TIP3   OH231347   8.036   3.418   0.117
10469TIP3    H131348   8.071   3.506   0.104
10469TIP3    H231349   8.007   3.417   0.208
10470TIP3   OH231350   5.679   7.214   3.301
10470TIP3    H131351   5.618   7.280   3.334
10470TIP3    H231352   5.738   7.261   3.243
10471TIP3   OH231353   7.434   1.106   4.739
10471TIP3    H131354   7.484   1.027   4.760
10471TIP3    H231355   7.388   1.128   4.819
10472TIP3   OH231356   1.377   3.331   2.054
10472TIP3    H131357   1.433   3.272   2.103
10472TIP3    H231358   1.428   3.355   1.976
10473TIP3   OH231359   2.340   2.732   6.069
10473TIP3    H131360   2.390   2.812   6.053
10473TIP3    H231361   2.289   2.719   5.989
10474TIP3   OH231362   2.582   2.638   5.755
10474TIP3    H131363   2.608   2.555   5.796
10474TIP3    H231364   2.489   2.625   5.733
10475TIP3   OH231365   7.317   0.419   0.779
10475TIP3    H131366   7.394   0.377   0.739
10475TIP3    H231367   7.344   0.438   0.869
10476TIP3   OH231368   2.203   5.260   0.882
10476TIP3    H131369   2.282   5.296   0.842
10476TIP3    H231370   2.223   5.167   0.896
10477TIP3   OH231371   7.068   2.570   3.615
10477TIP3    H131372   7.119   2.503   3.569
10477TIP3    H231373   6.997   2.591   3.555
10478TIP3   OH231374   6.173   2.889   2.978
10478TIP3    H131375   6.132   2.975   2.980
10478TIP3    H231376   6.161   2.855   3.067
10479TIP3   OH231377   3.479   4.252   3.244
10479TIP3    H131378   3.571   4.228   3.252
10479TIP3    H231379   3.443   4.242   3.333
10480TIP3   OH231380   4.036   6.197   5.723
10480TIP3    H131381   3.999   6.285   5.714
10480TIP3    H231382   4.127   6.206   5.693
10481TIP3   OH231383   3.893   0.116   0.095
10481TIP3    H131384   3.838   0.120   0.017
10481TIP3    H231385   3.836   0.081   0.163
10482TIP3   OH231386   5.738   3.706   3.434
10482TIP3    H131387   5.705   3.705   3.524
10482TIP3    H231388   5.735   3.614   3.407
10483TIP3   OH231389   5.436   3.595   0.085
10483TIP3    H131390   5.390   3.511   0.084
10483TIP3    H231391   5.427   3.626   0.175
10484TIP3   OH231392   0.889   3.669   4.372
10484TIP3    H131393   0.941   3.664   4.453
10484TIP3    H231394   0.908   3.757   4.338
10485TIP3   OH231395   6.528   2.098   0.085
10485TIP3    H131396   6.494   2.012   0.060
10485TIP3    H231397   6.622   2.091   0.072
10486TIP3   OH231398   7.110   6.797   1.168
10486TIP3    H131399   7.182   6.782   1.107
10486TIP3    H231400   7.034   6.755   1.127
10487TIP3   OH231401   3.775   4.340   1.509
10487TIP3    H131402   3.852   4.311   1.558
10487TIP3    H231403   3.793   4.432   1.490
10488TIP3   OH231404   2.647   4.698   0.365
10488TIP3    H131405   2.716   4.763   0.374
10488TIP3    H231406   2.656   4.666   0.276
10489TIP3   OH231407   0.632   2.704   0.020
10489TIP3    H131408   0.709   2.761   0.010
10489TIP3    H231409   0.591   2.734   0.101
10490TIP3   OH231410   7.617   5.342   3.551
10490TIP3    H131411   7.569   5.340   3.468
10490TIP3    H231412   7.683   5.273   3.541
10491TIP3   OH231413   3.744   7.269   1.031
10491TIP3    H131414   3.836   7.252   1.011
10491TIP3    H231415   3.745   7.308   1.119
10492TIP3   OH231416   6.471   7.803   5.949
10492TIP3    H131417   6.376   7.812   5.955
10492TIP3    H231418   6.505   7.848   6.027
10493TIP3   OH231419   5.848   3.131   5.305
10493TIP3    H131420   5.893   3.048   5.319
10493TIP3    H231421   5.780   3.111   5.240
10494TIP3   OH231422   5.095   7.791   0.504
10494TIP3    H131423   5.056   7.786   0.592
10494TIP3    H231424   5.123   7.701   0.485
10495TIP3   OH231425   2.499   2.534   4.891
10495TIP3    H131426   2.458   2.605   4.939
10495TIP3    H231427   2.427   2.490   4.846
10496TIP3   OH231428   5.605   2.922   2.749
10496TIP3    H131429   5.591   2.972   2.668
10496TIP3    H231430   5.662   2.850   2.723
10497TIP3   OH231431   1.285   2.105   6.314
10497TIP3    H131432   1.331   2.133   6.393
10497TIP3    H231433   1.193   2.126   6.332
10498TIP3   OH231434   4.344   5.133   6.060
10498TIP3    H131435   4.277   5.111   6.125
10498TIP3    H231436   4.308   5.208   6.013
10499TIP3   OH231437   0.491   4.456   3.249
10499TIP3    H131438   0.439   4.477   3.171
10499TIP3    H231439   0.428   4.416   3.309
10500TIP3   OH231440   6.050   5.369   4.667
10500TIP3    H131441   5.983   5.342   4.731
10500TIP3    H231442   6.118   5.302   4.675
10501TIP3   OH231443   7.777   3.471   1.404
10501TIP3    H131444   7.705   3.407   1.408
10501TIP3    H231445   7.849   3.424   1.363
10502TIP3   OH231446   3.475   4.846   2.554
10502TIP3    H131447   3.569   4.835   2.544
10502TIP3    H231448   3.461   4.941   2.547
10503TIP3   OH231449   3.741   5.694   0.722
10503TIP3    H131450   3.729   5.773   0.773
10503TIP3    H231451   3.768   5.628   0.786
10504TIP3   OH231452   6.114   4.780   2.493
10504TIP3    H131453   6.147   4.702   2.449
10504TIP3    H231454   6.069   4.829   2.424
10505TIP3   OH231455   2.273   0.074   3.122
10505TIP3    H131456   2.333   0.000   3.119
10505TIP3    H231457   2.247   0.079   3.214
10506TIP3   OH231458   5.159   7.447   0.244
10506TIP3    H131459   5.241   7.495   0.249
10506TIP3    H231460   5.130   7.438   0.335
10507TIP3   OH231461   3.383   2.184   2.755
10507TIP3    H131462   3.397   2.154   2.666
10507TIP3    H231463   3.437   2.263   2.763
10508TIP3   OH231464   2.220   3.472   6.719
10508TIP3    H131465   2.230   3.562   6.751
10508TIP3    H231466   2.203   3.420   6.798
10509TIP3   OH231467   0.476   6.838   4.907
10509TIP3    H131468   0.422   6.904   4.862
10509TIP3    H231469   0.429   6.821   4.989
10510TIP3   OH231470   7.784   3.861   4.820
10510TIP3    H131471   7.813   3.950   4.799
10510TIP3    H231472   7.769   3.820   4.735
10511TIP3   OH231473   3.440   5.296   5.708
10511TIP3    H131474   3.478   5.303   5.795
10511TIP3    H231475   3.504   5.339   5.650
10512TIP3   OH231476   6.776   4.253   3.794
10512TIP3    H131477   6.787   4.314   3.721
10512TIP3    H231478   6.772   4.309   3.871
10513TIP3   OH231479   2.393   5.963   6.430
10513TIP3    H131480   2.331   5.896   6.403
10513TIP3    H231481   2.415   6.009   6.348
10514TIP3   OH231482   6.993   7.059   6.451
10514TIP3    H131483   7.060   6.990   6.450
10514TIP3    H231484   7.023   7.120   6.519
10515TIP3   OH231485   6.902   6.393   4.598
10515TIP3    H131486   6.918   6.337   4.673
10515TIP3    H231487   6.870   6.475   4.635
10516TIP3   OH231488   4.556   2.048   0.483
10516TIP3    H131489   4.600   2.132   0.498
10516TIP3    H231490   4.627   1.984   0.478
10517TIP3   OH231491   4.114   5.860   3.653
10517TIP3    H131492   4.151   5.772   3.655
10517TIP3    H231493   4.034   5.854   3.705
10518TIP3   OH231494   3.218   2.012   4.411
10518TIP3    H131495   3.252   2.098   4.386
10518TIP3    H231496   3.268   1.950   4.359
10519TIP3   OH231497   4.699   4.767   5.311
10519TIP3    H131498   4.605   4.760   5.294
10519TIP3    H231499   4.725   4.679   5.338
10520TIP3   OH231500   5.551   6.376   0.361
10520TIP3    H131501   5.488   6.316   0.402
10520TIP3    H231502   5.533   6.461   0.402
10521TIP3   OH231503   2.910   5.562   4.193
10521TIP3    H131504   2.963   5.594   4.266
10521TIP3    H231505   2.850   5.499   4.234
10522TIP3   OH231506   1.955   7.157   0.395
10522TIP3    H131507   1.887   7.219   0.368
10522TIP3    H231508   1.906   7.078   0.419
10523TIP3   OH231509   6.246   3.568   6.533
10523TIP3    H131510   6.169   3.531   6.489
10523TIP3    H231511   6.262   3.651   6.488
10524TIP3   OH231512   5.991   7.741   5.139
10524TIP3    H131513   5.946   7.706   5.216
10524TIP3    H231514   5.975   7.835   5.142
10525TIP3   OH231515   1.584   5.572   0.360
10525TIP3    H131516   1.607   5.496   0.413
10525TIP3    H231517   1.596   5.647   0.419
10526TIP3   OH231518   7.069   1.123   0.541
10526TIP3    H131519   7.020   1.058   0.491
10526TIP3    H231520   7.152   1.132   0.495
10527TIP3   OH231521   3.716   2.593   3.743
10527TIP3    H131522   3.769   2.606   3.821
10527TIP3    H231523   3.650   2.662   3.747
10528TIP3   OH231524   3.188   2.207   3.994
10528TIP3    H131525   3.119   2.190   4.058
10528TIP3    H231526   3.176   2.299   3.969
10529TIP3   OH231527   5.680   1.968   4.404
10529TIP3    H131528   5.683   2.013   4.320
10529TIP3    H231529   5.743   1.897   4.395
10530TIP3   OH231530   6.563   7.740   5.471
10530TIP3    H131531   6.612   7.788   5.538
10530TIP3    H231532   6.504   7.684   5.521
10531TIP3   OH231533   5.974   4.233   1.499
10531TIP3    H131534   5.975   4.319   1.456
10531TIP3    H231535   5.884   4.223   1.529
10532TIP3   OH231536   0.839   3.812   5.657
10532TIP3    H131537   0.755   3.790   5.696
10532TIP3    H231538   0.854   3.743   5.592
10533TIP3   OH231539   7.820   1.812   1.066
10533TIP3    H131540   7.755   1.744   1.080
10533TIP3    H231541   7.772   1.883   1.023
10534TIP3   OH231542   6.778   1.057   3.388
10534TIP3    H131543   6.851   1.050   3.449
10534TIP3    H231544   6.711   1.105   3.437
10535TIP3   OH231545   2.541   1.350   2.804
10535TIP3    H131546   2.491   1.416   2.756
10535TIP3    H231547   2.628   1.353   2.764
10536TIP3   OH231548   1.177   1.183   0.706
10536TIP3    H131549   1.153   1.121   0.638
10536TIP3    H231550   1.221   1.255   0.660
10537TIP3   OH231551   2.207   3.846   4.931
10537TIP3    H131552   2.234   3.904   5.003
10537TIP3    H231553   2.282   3.843   4.872
10538TIP3   OH231554   0.158   6.143   0.145
10538TIP3    H131555   0.068   6.115   0.132
10538TIP3    H231556   0.153   6.215   0.209
10539TIP3   OH231557   7.709   0.834   2.958
10539TIP3    H131558   7.627   0.873   2.989
10539TIP3    H231559   7.685   0.745   2.932
10540TIP3   OH231560   7.292   2.761   1.306
10540TIP3    H131561   7.217   2.767   1.365
10540TIP3    H231562   7.272   2.822   1.235
10541TIP3   OH231563   2.272   2.923   5.044
10541TIP3    H131564   2.328   2.859   5.086
10541TIP3    H231565   2.191   2.924   5.096
10542TIP3   OH231566   7.964   0.492   4.110
10542TIP3    H131567   7.995   0.577   4.139
10542TIP3    H231568   8.043   0.443   4.089
10543TIP3   OH231569   6.356   0.771   6.218
10543TIP3    H131570   6.348   0.843   6.280
10543TIP3    H231571   6.325   0.694   6.265
10544TIP3   OH231572   4.942   4.985   0.877
10544TIP3    H131573   4.902   4.898   0.881
10544TIP3    H231574   5.028   4.971   0.839
10545TIP3   OH231575   0.315   3.612   3.352
10545TIP3    H131576   0.231   3.614   3.398
10545TIP3    H231577   0.354   3.698   3.368
10546TIP3   OH231578   3.295   5.219   0.610
10546TIP3    H131579   3.282   5.263   0.526
10546TIP3    H231580   3.213   5.232   0.657
10547TIP3   OH231581   6.341   4.516   1.469
10547TIP3    H131582   6.356   4.566   1.550
10547TIP3    H231583   6.271   4.455   1.492
10548TIP3   OH231584   1.824   1.952   0.839
10548TIP3    H131585   1.743   1.950   0.889
10548TIP3    H231586   1.892   1.925   0.901
10549TIP3   OH231587   4.322   3.215   4.044
10549TIP3    H131588   4.307   3.133   4.091
10549TIP3    H231589   4.339   3.187   3.954
10550TIP3   OH231590   3.229   6.066   1.064
10550TIP3    H131591   3.220   6.030   1.153
10550TIP3    H231592   3.246   6.159   1.078
10551TIP3   OH231593   4.866   7.388   1.127
10551TIP3    H131594   4.862   7.462   1.067
10551TIP3    H231595   4.781   7.345   1.119
10552TIP3   OH231596   8.227   2.896   3.577
10552TIP3    H131597   8.271   2.811   3.572
10552TIP3    H231598   8.259   2.944   3.500
10553TIP3   OH231599   5.300   4.427   6.591
10553TIP3    H131600   5.241   4.358   6.558
10553TIP3    H231601   5.295   4.496   6.525
10554TIP3   OH231602   8.306   0.122   5.801
10554TIP3    H131603   8.309   0.191   5.735
10554TIP3    H231604   8.397   0.098   5.816
10555TIP3   OH231605   0.684   1.363   6.493
10555TIP3    H131606   0.746   1.400   6.557
10555TIP3    H231607   0.618   1.320   6.547
10556TIP3   OH231608   5.790   3.525   2.157
10556TIP3    H131609   5.712   3.552   2.108
10556TIP3    H231610   5.843   3.478   2.093
10557TIP3   OH231611   4.023   2.953   1.613
10557TIP3    H131612   3.979   2.871   1.636
10557TIP3    H231613   4.071   2.978   1.692
10558TIP3   OH231614   1.216   5.890   1.963
10558TIP3    H131615   1.256   5.808   1.992
10558TIP3    H231616   1.130   5.865   1.930
10559TIP3   OH231617   4.341   1.009   0.278
10559TIP3    H131618   4.383   1.028   0.194
10559TIP3    H231619   4.288   0.931   0.261
10560TIP3   OH231620   3.450   2.942   3.116
10560TIP3    H131621   3.369   2.939   3.166
10560TIP3    H231622   3.512   2.890   3.167
10561TIP3   OH231623   5.208   6.133   3.605
10561TIP3    H131624   5.269   6.182   3.550
10561TIP3    H231625   5.265   6.081   3.662
10562TIP3   OH231626   0.696   1.305   5.385
10562TIP3    H131627   0.629   1.357   5.342
10562TIP3    H231628   0.778   1.352   5.369
10563TIP3   OH231629   7.963   3.546   5.246
10563TIP3    H131630   7.878   3.555   5.288
10563TIP3    H231631   7.969   3.621   5.186
10564TIP3   OH231632   7.743   1.864   4.678
10564TIP3    H131633   7.727   1.913   4.597
10564TIP3    H231634   7.699   1.780   4.664
10565TIP3   OH231635   6.010   2.852   5.975
10565TIP3    H131636   5.940   2.853   6.040
10565TIP3    H231637   6.026   2.759   5.958
10566TIP3   OH231638   3.632   3.056   2.667
10566TIP3    H131639   3.563   2.995   2.694
10566TIP3    H231640   3.669   3.089   2.749
10567TIP3   OH231641   5.717   0.961   1.126
10567TIP3    H131642   5.649   0.959   1.194
10567TIP3    H231643   5.752   1.050   1.130
10568TIP3   OH231644   3.800   3.064   0.180
10568TIP3    H131645   3.795   3.098   0.090
10568TIP3    H231646   3.710   3.043   0.203
10569TIP3   OH231647   6.180   6.872   3.758
10569TIP3    H131648   6.101   6.866   3.812
10569TIP3    H231649   6.237   6.933   3.804
10570TIP3   OH231650   3.429   3.680   0.262
10570TIP3    H131651   3.503   3.650   0.314
10570TIP3    H231652   3.358   3.692   0.325
10571TIP3   OH231653   5.950   5.722   5.530
10571TIP3    H131654   5.964   5.636   5.569
10571TIP3    H231655   6.033   5.742   5.487
10572TIP3   OH231656   7.970   4.189   3.822
10572TIP3    H131657   7.990   4.122   3.886
10572TIP3    H231658   8.029   4.262   3.843
10573TIP3   OH231659   3.211   1.905   4.009
10573TIP3    H131660   3.124   1.865   4.002
10573TIP3    H231661   3.193   1.997   4.029
10574TIP3   OH231662   5.337   0.026   6.446
10574TIP3    H131663   5.264  -0.022   6.406
10574TIP3    H231664   5.409   0.014   6.385
10575TIP3   OH231665   2.720   0.779   5.650
10575TIP3    H131666   2.782   0.804   5.582
10575TIP3    H231667   2.756   0.698   5.687
10576TIP3   OH231668   3.569   0.097   6.334
10576TIP3    H131669   3.636   0.068   6.395
10576TIP3    H231670   3.486   0.075   6.376
10577TIP3   OH231671   6.443   4.550   2.810
10577TIP3    H131672   6.527   4.529   2.849
10577TIP3    H231673   6.391   4.470   2.820
10578TIP3   OH231674   2.524   2.155   0.439
10578TIP3    H131675   2.490   2.159   0.528
10578TIP3    H231676   2.468   2.091   0.395
10579TIP3   OH231677   0.283   5.100   5.296
10579TIP3    H131678   0.250   5.143   5.217
10579TIP3    H231679   0.257   5.158   5.367
10580TIP3   OH231680   5.349   4.943   4.684
10580TIP3    H131681   5.384   4.994   4.757
10580TIP3    H231682   5.358   4.852   4.711
10581TIP3   OH231683   8.361   2.686   1.402
10581TIP3    H131684   8.440   2.633   1.405
10581TIP3    H231685   8.297   2.637   1.453
10582TIP3   OH231686   3.759   1.386   5.958
10582TIP3    H131687   3.821   1.408   5.888
10582TIP3    H231688   3.680   1.436   5.937
10583TIP3   OH231689   4.686   1.959   5.589
10583TIP3    H131690   4.677   1.976   5.683
10583TIP3    H231691   4.774   1.989   5.568
10584TIP3   OH231692   7.655   4.435   1.746
10584TIP3    H131693   7.566   4.444   1.713
10584TIP3    H231694   7.711   4.465   1.674
10585TIP3   OH231695   7.537   3.693   3.932
10585TIP3    H131696   7.627   3.678   3.903
10585TIP3    H231697   7.528   3.640   4.011
10586TIP3   OH231698   5.722   2.574   6.401
10586TIP3    H131699   5.629   2.587   6.414
10586TIP3    H231700   5.751   2.527   6.479
10587TIP3   OH231701   1.480   0.952   0.293
10587TIP3    H131702   1.534   0.878   0.264
10587TIP3    H231703   1.478   1.010   0.217
10588TIP3   OH231704   4.919   7.429   3.793
10588TIP3    H131705   4.857   7.501   3.805
10588TIP3    H231706   5.000   7.472   3.766
10589TIP3   OH231707   4.145   7.226   2.899
10589TIP3    H131708   4.190   7.182   2.826
10589TIP3    H231709   4.054   7.233   2.870
10590TIP3   OH231710   5.291   0.023   1.206
10590TIP3    H131711   5.336   0.091   1.256
10590TIP3    H231712   5.314  -0.059   1.251
10591TIP3   OH231713   8.257   0.502   6.167
10591TIP3    H131714   8.302   0.578   6.205
10591TIP3    H231715   8.220   0.457   6.243
10592TIP3   OH231716   0.787   1.457   5.890
10592TIP3    H131717   0.862   1.492   5.937
10592TIP3    H231718   0.800   1.362   5.891
10593TIP3   OH231719   5.560   7.087   1.909
10593TIP3    H131720   5.480   7.112   1.863
10593TIP3    H231721   5.625   7.152   1.881
10594TIP3   OH231722   8.103   1.242   2.556
10594TIP3    H131723   8.156   1.315   2.524
10594TIP3    H231724   8.141   1.220   2.641
10595TIP3   OH231725   6.845   2.589   4.384
10595TIP3    H131726   6.881   2.516   4.335
10595TIP3    H231727   6.896   2.665   4.356
10596TIP3   OH231728   2.611   6.151   2.723
10596TIP3    H131729   2.625   6.090   2.795
10596TIP3    H231730   2.662   6.115   2.651
10597TIP3   OH231731   6.445   4.907   0.387
10597TIP3    H131732   6.411   4.961   0.315
10597TIP3    H231733   6.540   4.910   0.375
10598TIP3   OH231734   6.154   2.325   5.246
10598TIP3    H131735   6.160   2.419   5.230
10598TIP3    H231736   6.243   2.292   5.229
10599TIP3   OH231737   3.519   2.569   0.604
10599TIP3    H131738   3.531   2.596   0.513
10599TIP3    H231739   3.424   2.561   0.614
10600TIP3   OH231740   5.755   6.681   0.366
10600TIP3    H131741   5.756   6.738   0.443
10600TIP3    H231742   5.662   6.660   0.353
10601TIP3   OH231743   2.731   1.077   1.420
10601TIP3    H131744   2.691   1.021   1.487
10601TIP3    H231745   2.825   1.061   1.428
10602TIP3   OH231746   4.016   0.344   4.782
10602TIP3    H131747   3.939   0.303   4.821
10602TIP3    H231748   4.027   0.300   4.698
10603TIP3   OH231749   7.310   7.913   4.030
10603TIP3    H131750   7.365   7.989   4.013
10603TIP3    H231751   7.330   7.853   3.958
10604TIP3   OH231752   6.222   4.770   6.047
10604TIP3    H131753   6.188   4.735   5.964
10604TIP3    H231754   6.255   4.694   6.094
10605TIP3   OH231755   6.303   0.374   4.486
10605TIP3    H131756   6.313   0.455   4.437
10605TIP3    H231757   6.227   0.388   4.542
10606TIP3   OH231758   2.090   4.971   6.721
10606TIP3    H131759   2.036   5.044   6.691
10606TIP3    H231760   2.136   4.941   6.643
10607TIP3   OH231761   8.380   5.194   5.725
10607TIP3    H131762   8.414   5.283   5.712
10607TIP3    H231763   8.286   5.205   5.737
10608TIP3   OH231764   1.383   6.819   0.021
10608TIP3    H131765   1.429   6.871   0.086
10608TIP3    H231766   1.452   6.783  -0.034
10609TIP3   OH231767   6.347   1.735   3.386
10609TIP3    H131768   6.392   1.818   3.370
10609TIP3    H231769   6.304   1.714   3.303
10610TIP3   OH231770   1.467   4.750   3.886
10610TIP3    H131771   1.460   4.775   3.793
10610TIP3    H231772   1.423   4.820   3.933
10611TIP3   OH231773   7.135   5.224   3.606
10611TIP3    H131774   7.188   5.146   3.625
10611TIP3    H231775   7.166   5.290   3.668
10612TIP3   OH231776   3.507   7.323   2.794
10612TIP3    H131777   3.505   7.379   2.871
10612TIP3    H231778   3.597   7.290   2.790
10613TIP3   OH231779   6.094   4.812   0.640
10613TIP3    H131780   6.050   4.895   0.656
10613TIP3    H231781   6.178   4.820   0.686
10614TIP3   OH231782   7.555   0.090   1.954
10614TIP3    H131783   7.479   0.148   1.945
10614TIP3    H231784   7.620   0.126   1.894
10615TIP3   OH231785   4.559   5.327   5.967
10615TIP3    H131786   4.550   5.244   6.013
10615TIP3    H231787   4.470   5.362   5.963
10616TIP3   OH231788   0.519   2.795   2.037
10616TIP3    H131789   0.429   2.793   2.007
10616TIP3    H231790   0.554   2.709   2.013
10617TIP3   OH231791   0.316   4.020   1.134
10617TIP3    H131792   0.274   3.949   1.183
10617TIP3    H231793   0.341   3.979   1.051
10618TIP3   OH231794   3.482   2.346   2.405
10618TIP3    H131795   3.495   2.324   2.313
10618TIP3    H231796   3.416   2.416   2.405
10619TIP3   OH231797   3.560   3.135   0.318
10619TIP3    H131798   3.500   3.070   0.282
10619TIP3    H231799   3.585   3.189   0.244
10620TIP3   OH231800   4.352   2.590   3.914
10620TIP3    H131801   4.370   2.683   3.899
10620TIP3    H231802   4.393   2.572   3.999
10621TIP3   OH231803   6.191   1.670   0.161
10621TIP3    H131804   6.100   1.649   0.186
10621TIP3    H231805   6.229   1.586   0.136
10622TIP3   OH231806   3.904   0.861   4.462
10622TIP3    H131807   3.857   0.838   4.383
10622TIP3    H231808   3.844   0.838   4.533
10623TIP3   OH231809   8.347   5.217   1.693
10623TIP3    H131810   8.295   5.167   1.629
10623TIP3    H231811   8.353   5.305   1.656
10624TIP3   OH231812   4.284   0.189   4.737
10624TIP3    H131813   4.288   0.103   4.779
10624TIP3    H231814   4.200   0.190   4.691
10625TIP3   OH231815   1.760   3.629   2.126
10625TIP3    H131816   1.718   3.688   2.063
10625TIP3    H231817   1.841   3.603   2.083
10626TIP3   OH231818   7.988   5.002   6.143
10626TIP3    H131819   8.080   5.003   6.118
10626TIP3    H231820   7.963   4.909   6.138
10627TIP3   OH231821   0.533   4.007   1.321
10627TIP3    H131822   0.519   3.937   1.258
10627TIP3    H231823   0.458   4.066   1.308
10628TIP3   OH231824   7.284   7.640   0.468
10628TIP3    H131825   7.349   7.571   0.482
10628TIP3    H231826   7.337   7.718   0.447
10629TIP3   OH231827   6.967   0.874   2.415
10629TIP3    H131828   6.995   0.907   2.501
10629TIP3    H231829   7.013   0.790   2.406
10630TIP3   OH231830   0.740   3.119   6.124
10630TIP3    H131831   0.693   3.065   6.188
10630TIP3    H231832   0.824   3.138   6.166
10631TIP3   OH231833   7.618   4.441   2.236
10631TIP3    H131834   7.668   4.368   2.199
10631TIP3    H231835   7.581   4.485   2.159
10632TIP3   OH231836   0.305   5.507   1.196
10632TIP3    H131837   0.216   5.537   1.217
10632TIP3    H231838   0.329   5.556   1.118
10633TIP3   OH231839   8.187   1.407   5.163
10633TIP3    H131840   8.136   1.337   5.203
10633TIP3    H231841   8.233   1.365   5.090
10634TIP3   OH231842   3.311   1.643   2.002
10634TIP3    H131843   3.236   1.606   1.955
10634TIP3    H231844   3.272   1.696   2.072
10635TIP3   OH231845   1.175   6.934   0.183
10635TIP3    H131846   1.265   6.904   0.171
10635TIP3    H231847   1.147   6.896   0.267
10636TIP3   OH231848   1.231   1.485   0.610
10636TIP3    H131849   1.296   1.555   0.607
10636TIP3    H231850   1.190   1.487   0.523
10637TIP3   OH231851   4.043   6.002   5.905
10637TIP3    H131852   4.122   6.046   5.935
10637TIP3    H231853   4.003   6.062   5.842
10638TIP3   OH231854   1.940   3.727   5.786
10638TIP3    H131855   1.919   3.638   5.760
10638TIP3    H231856   1.895   3.782   5.721
10639TIP3   OH231857   4.531   0.685   1.321
10639TIP3    H131858   4.519   0.591   1.306
10639TIP3    H231859   4.623   0.693   1.349
10640TIP3   OH231860   3.305   4.480   4.939
10640TIP3    H131861   3.295   4.435   4.855
10640TIP3    H231862   3.284   4.572   4.920
10641TIP3   OH231863   5.261   5.728   5.680
10641TIP3    H131864   5.256   5.803   5.738
10641TIP3    H231865   5.347   5.735   5.638
10642TIP3   OH231866   3.865   1.984   3.717
10642TIP3    H131867   3.771   2.004   3.712
10642TIP3    H231868   3.901   2.021   3.636
10643TIP3   OH231869   5.640   2.163   3.203
10643TIP3    H131870   5.579   2.092   3.223
10643TIP3    H231871   5.723   2.120   3.186
10644TIP3   OH231872   1.913   1.886   6.275
10644TIP3    H131873   1.894   1.870   6.367
10644TIP3    H231874   1.901   1.980   6.263
10645TIP3   OH231875   2.460  -0.022   4.070
10645TIP3    H131876   2.552  -0.008   4.048
10645TIP3    H231877   2.463  -0.089   4.138
10646TIP3   OH231878   1.656   4.383   3.621
10646TIP3    H131879   1.605   4.372   3.701
10646TIP3    H231880   1.722   4.448   3.643
10647TIP3   OH231881   0.867   5.372   3.201
10647TIP3    H131882   0.936   5.434   3.225
10647TIP3    H231883   0.793   5.395   3.257
10648TIP3   OH231884   6.309   6.452   3.580
10648TIP3    H131885   6.304   6.391   3.507
10648TIP3    H231886   6.222   6.492   3.583
10649TIP3   OH231887   4.392   4.609   6.470
10649TIP3    H131888   4.354   4.543   6.412
10649TIP3    H231889   4.319   4.642   6.521
10650TIP3   OH231890   1.621   7.186   5.399
10650TIP3    H131891   1.527   7.201   5.388
10650TIP3    H231892   1.657   7.273   5.419
10651TIP3   OH231893   4.651   6.686   2.422
10651TIP3    H131894   4.715   6.642   2.365
10651TIP3    H231895   4.702   6.714   2.498
10652TIP3   OH231896   1.222   0.070   0.937
10652TIP3    H131897   1.135   0.069   0.977
10652TIP3    H231898   1.211   0.025   0.853
10653TIP3   OH231899   3.147   5.457   1.672
10653TIP3    H131900   3.189   5.382   1.631
10653TIP3    H231901   3.084   5.418   1.734
10654TIP3   OH231902   6.480   6.305   4.960
10654TIP3    H131903   6.443   6.297   4.872
10654TIP3    H231904   6.519   6.392   4.962
10655TIP3   OH231905   4.914   3.240   0.031
10655TIP3    H131906   4.831   3.249  -0.015
10655TIP3    H231907   4.947   3.329   0.039
10656TIP3   OH231908   2.522   0.425   4.315
10656TIP3    H131909   2.426   0.434   4.313
10656TIP3    H231910   2.547   0.422   4.223
10657TIP3   OH231911   7.146   0.310   2.602
10657TIP3    H131912   7.168   0.298   2.510
10657TIP3    H231913   7.225   0.348   2.641
10658TIP3   OH231914   5.066   1.931   6.276
10658TIP3    H131915   5.153   1.928   6.315
10658TIP3    H231916   5.072   1.873   6.200
10659TIP3   OH231917   3.401   3.802   4.616
10659TIP3    H131918   3.382   3.724   4.668
10659TIP3    H231919   3.473   3.775   4.558
10660TIP3   OH231920   0.448   6.512   2.111
10660TIP3    H131921   0.483   6.425   2.092
10660TIP3    H231922   0.374   6.496   2.170
10661TIP3   OH231923   3.966   6.990   1.208
10661TIP3    H131924   3.990   7.058   1.144
10661TIP3    H231925   3.882   7.019   1.243
10662TIP3   OH231926   1.460   7.428   0.966
10662TIP3    H131927   1.440   7.521   0.951
10662TIP3    H231928   1.553   7.426   0.988
10663TIP3   OH231929   7.561   7.907   3.558
10663TIP3    H131930   7.548   7.816   3.532
10663TIP3    H231931   7.477   7.949   3.539
10664TIP3   OH231932   1.841   3.378   5.306
10664TIP3    H131933   1.892   3.382   5.387
10664TIP3    H231934   1.871   3.453   5.254
10665TIP3   OH231935   2.084   4.779   5.653
10665TIP3    H131936   2.048   4.707   5.705
10665TIP3    H231937   2.129   4.835   5.717
10666TIP3   OH231938   5.991   0.712   3.545
10666TIP3    H131939   6.077   0.721   3.587
10666TIP3    H231940   5.941   0.657   3.604
10667TIP3   OH231941   4.031   1.405   1.467
10667TIP3    H131942   4.019   1.406   1.562
10667TIP3    H231943   4.125   1.414   1.454
10668TIP3   OH231944   3.681   6.426   6.251
10668TIP3    H131945   3.696   6.405   6.159
10668TIP3    H231946   3.695   6.344   6.298
10669TIP3   OH231947   3.226   6.393   5.865
10669TIP3    H131948   3.160   6.407   5.797
10669TIP3    H231949   3.231   6.477   5.910
10670TIP3   OH231950   6.846   6.426   5.994
10670TIP3    H131951   6.870   6.403   6.084
10670TIP3    H231952   6.858   6.344   5.945
10671TIP3   OH231953   6.499   5.634   1.923
10671TIP3    H131954   6.421   5.590   1.889
10671TIP3    H231955   6.505   5.715   1.871
10672TIP3   OH231956   7.324   3.198   0.182
10672TIP3    H131957   7.412   3.184   0.218
10672TIP3    H231958   7.339   3.250   0.103
10673TIP3   OH231959   5.742   7.895   1.287
10673TIP3    H131960   5.761   7.950   1.211
10673TIP3    H231961   5.817   7.835   1.292
10674TIP3   OH231962   3.580   2.634   0.343
10674TIP3    H131963   3.503   2.674   0.304
10674TIP3    H231964   3.646   2.634   0.273
10675TIP3   OH231965   3.481   5.726   3.406
10675TIP3    H131966   3.533   5.802   3.429
10675TIP3    H231967   3.394   5.744   3.441
10676TIP3   OH231968   7.082   1.238   1.086
10676TIP3    H131969   7.093   1.163   1.145
10676TIP3    H231970   7.095   1.202   0.998
10677TIP3   OH231971   6.704   3.544   0.908
10677TIP3    H131972   6.635   3.599   0.872
10677TIP3    H231973   6.783   3.598   0.904
10678TIP3   OH231974   1.597   2.271   5.984
10678TIP3    H131975   1.673   2.325   6.007
10678TIP3    H231976   1.533   2.333   5.949
10679TIP3   OH231977   7.241   7.554   6.388
10679TIP3    H131978   7.294   7.632   6.401
10679TIP3    H231979   7.186   7.549   6.466
10680TIP3   OH231980   7.933   6.865   5.104
10680TIP3    H131981   7.894   6.780   5.083
10680TIP3    H231982   7.992   6.846   5.178
10681TIP3   OH231983   3.185   3.905   0.216
10681TIP3    H131984   3.180   3.837   0.283
10681TIP3    H231985   3.139   3.867   0.141
10682TIP3   OH231986   0.860   1.200   4.806
10682TIP3    H131987   0.889   1.111   4.787
10682TIP3    H231988   0.933   1.240   4.853
10683TIP3   OH231989   5.895   2.365   0.612
10683TIP3    H131990   5.975   2.373   0.664
10683TIP3    H231991   5.922   2.320   0.532
10684TIP3   OH231992   4.139   0.977   0.760
10684TIP3    H131993   4.151   1.028   0.680
10684TIP3    H231994   4.224   0.935   0.774
10685TIP3   OH231995   3.295   3.460   0.137
10685TIP3    H131996   3.255   3.498   0.059
10685TIP3    H231997   3.316   3.535   0.193
10686TIP3   OH231998   5.376   3.811   3.104
10686TIP3    H131999   5.426   3.798   3.023
10686TIP3    H232000   5.293   3.765   3.088
10687TIP3   OH232001   1.894   6.798   0.285
10687TIP3    H132002   1.827   6.793   0.217
10687TIP3    H232003   1.850   6.841   0.359
10688TIP3   OH232004   6.667   5.823   0.471
10688TIP3    H132005   6.603   5.753   0.459
10688TIP3    H232006   6.749   5.777   0.488
10689TIP3   OH232007   4.217   7.375   2.596
10689TIP3    H132008   4.269   7.307   2.638
10689TIP3    H232009   4.137   7.330   2.568
10690TIP3   OH232010   5.020   1.520   6.042
10690TIP3    H132011   5.076   1.596   6.027
10690TIP3    H232012   5.044   1.458   5.973
10691TIP3   OH232013   7.974   2.415   1.572
10691TIP3    H132014   7.938   2.488   1.522
10691TIP3    H232015   7.913   2.403   1.645
10692TIP3   OH232016   6.218   6.726   1.213
10692TIP3    H132017   6.207   6.732   1.118
10692TIP3    H232018   6.145   6.672   1.242
10693TIP3   OH232019   0.561   4.250   3.569
10693TIP3    H132020   0.641   4.244   3.518
10693TIP3    H232021   0.579   4.201   3.649
10694TIP3   OH232022   6.750   2.011   0.603
10694TIP3    H132023   6.672   1.962   0.577
10694TIP3    H232024   6.818   1.979   0.544
10695TIP3   OH232025   8.125   3.931   1.460
10695TIP3    H132026   8.045   3.878   1.463
10695TIP3    H232027   8.178   3.897   1.532
10696TIP3   OH232028   8.207   7.483   4.610
10696TIP3    H132029   8.189   7.430   4.533
10696TIP3    H232030   8.136   7.547   4.612
10697TIP3   OH232031   6.207   7.120   4.791
10697TIP3    H132032   6.284   7.097   4.842
10697TIP3    H232033   6.212   7.216   4.782
10698TIP3   OH232034   4.515   0.130   0.667
10698TIP3    H132035   4.590   0.127   0.726
10698TIP3    H232036   4.462   0.054   0.692
10699TIP3   OH232037   7.633   3.254   4.779
10699TIP3    H132038   7.573   3.328   4.785
10699TIP3    H232039   7.580   3.178   4.805
10700TIP3   OH232040   0.445   2.438   1.556
10700TIP3    H132041   0.446   2.412   1.463
10700TIP3    H232042   0.525   2.400   1.592
10701TIP3   OH232043   2.933   3.181   4.286
10701TIP3    H132044   2.975   3.231   4.215
10701TIP3    H232045   2.886   3.247   4.337
10702TIP3   OH232046   7.173   7.705   2.799
10702TIP3    H132047   7.121   7.714   2.719
10702TIP3    H232048   7.169   7.792   2.839
10703TIP3   OH232049   7.727   2.186   0.947
10703TIP3    H132050   7.711   2.092   0.935
10703TIP3    H232051   7.820   2.191   0.967
10704TIP3   OH232052   6.626   4.531   5.027
10704TIP3    H132053   6.712   4.519   5.068
10704TIP3    H232054   6.603   4.444   4.995
10705TIP3   OH232055   5.236   6.850   4.840
10705TIP3    H132056   5.310   6.847   4.901
10705TIP3    H232057   5.274   6.824   4.756
10706TIP3   OH232058   4.814   7.848   6.118
10706TIP3    H132059   4.756   7.866   6.192
10706TIP3    H232060   4.796   7.757   6.095
10707TIP3   OH232061   2.802   1.405   6.003
10707TIP3    H132062   2.785   1.370   6.091
10707TIP3    H232063   2.822   1.497   6.018
10708TIP3   OH232064   0.303   6.665   1.401
10708TIP3    H132065   0.220   6.624   1.424
10708TIP3    H232066   0.352   6.670   1.483
10709TIP3   OH232067   7.099   3.745   2.312
10709TIP3    H132068   7.178   3.700   2.342
10709TIP3    H232069   7.130   3.832   2.285
10710TIP3   OH232070   1.960   5.372   0.052
10710TIP3    H132071   1.968   5.358   0.146
10710TIP3    H232072   2.050   5.385   0.022
10711TIP3   OH232073   0.574   3.267   5.434
10711TIP3    H132074   0.558   3.231   5.521
10711TIP3    H232075   0.568   3.362   5.446
10712TIP3   OH232076   2.213   6.839   6.453
10712TIP3    H132077   2.149   6.773   6.428
10712TIP3    H232078   2.296   6.809   6.416
10713TIP3   OH232079   7.949   5.822   4.973
10713TIP3    H132080   7.889   5.862   5.036
10713TIP3    H232081   7.967   5.891   4.909
10714TIP3   OH232082   3.625   1.150   2.285
10714TIP3    H132083   3.637   1.056   2.271
10714TIP3    H232084   3.536   1.157   2.320
10715TIP3   OH232085   0.122   5.660   1.630
10715TIP3    H132086   0.139   5.626   1.718
10715TIP3    H232087   0.085   5.746   1.644
10716TIP3   OH232088   4.879   3.083   5.235
10716TIP3    H132089   4.810   3.018   5.220
10716TIP3    H232090   4.894   3.123   5.150
10717TIP3   OH232091   7.373   6.641   5.581
10717TIP3    H132092   7.405   6.690   5.657
10717TIP3    H232093   7.447   6.641   5.520
10718TIP3   OH232094   2.885   4.791   4.169
10718TIP3    H132095   2.937   4.855   4.218
10718TIP3    H232096   2.807   4.777   4.222
10719TIP3   OH232097   2.737   1.725   0.936
10719TIP3    H132098   2.743   1.675   0.854
10719TIP3    H232099   2.763   1.662   1.004
10720TIP3   OH232100   2.917   0.781   3.677
10720TIP3    H132101   2.946   0.709   3.733
10720TIP3    H232102   2.971   0.855   3.703
10721TIP3   OH232103   8.050   6.918   1.046
10721TIP3    H132104   8.112   6.960   0.987
10721TIP3    H232105   8.047   6.975   1.123
10722TIP3   OH232106   2.574   5.342   5.361
10722TIP3    H132107   2.591   5.348   5.267
10722TIP3    H232108   2.661   5.340   5.401
10723TIP3   OH232109   5.073   6.845   2.640
10723TIP3    H132110   5.118   6.822   2.559
10723TIP3    H232111   5.047   6.760   2.677
10724TIP3   OH232112   4.203   7.901   0.192
10724TIP3    H132113   4.293   7.908   0.225
10724TIP3    H232114   4.154   7.966   0.242
10725TIP3   OH232115   2.957   5.727   3.293
10725TIP3    H132116   3.031   5.756   3.239
10725TIP3    H232117   2.914   5.808   3.321
10726TIP3   OH232118   6.965   4.965   5.505
10726TIP3    H132119   6.957   5.018   5.584
10726TIP3    H232120   7.014   4.887   5.532
10727TIP3   OH232121   1.340   3.103   2.859
10727TIP3    H132122   1.400   3.145   2.920
10727TIP3    H232123   1.361   3.143   2.774
10728TIP3   OH232124   3.389   4.899   2.227
10728TIP3    H132125   3.383   4.836   2.299
10728TIP3    H232126   3.320   4.871   2.166
10729TIP3   OH232127   5.418   3.713   2.181
10729TIP3    H132128   5.419   3.640   2.242
10729TIP3    H232129   5.492   3.696   2.122
10730TIP3   OH232130   5.054   1.313   0.960
10730TIP3    H132131   5.057   1.270   1.045
10730TIP3    H232132   5.088   1.401   0.976
10731TIP3   OH232133   4.436   1.511   5.682
10731TIP3    H132134   4.501   1.564   5.728
10731TIP3    H232135   4.477   1.490   5.598
10732TIP3   OH232136   2.488   0.932   5.819
10732TIP3    H132137   2.564   0.889   5.780
10732TIP3    H232138   2.507   1.026   5.811
10733TIP3   OH232139   8.164   0.046   4.812
10733TIP3    H132140   8.143  -0.044   4.836
10733TIP3    H232141   8.112   0.063   4.734
10734TIP3   OH232142   3.585   6.449   3.331
10734TIP3    H132143   3.500   6.427   3.292
10734TIP3    H232144   3.564   6.479   3.420
10735TIP3   OH232145   5.414   4.877   6.215
10735TIP3    H132146   5.425   4.876   6.310
10735TIP3    H232147   5.442   4.789   6.187
10736TIP3   OH232148   6.568   7.193   5.895
10736TIP3    H132149   6.537   7.104   5.876
10736TIP3    H232150   6.492   7.237   5.933
10737TIP3   OH232151   5.130   0.066   2.738
10737TIP3    H132152   5.082   0.144   2.767
10737TIP3    H232153   5.125   0.006   2.813
10738TIP3   OH232154   0.075   0.718   5.979
10738TIP3    H132155  -0.003   0.720   6.035
10738TIP3    H232156   0.077   0.805   5.938
10739TIP3   OH232157   4.449   3.517   0.204
10739TIP3    H132158   4.444   3.496   0.111
10739TIP3    H232159   4.510   3.591   0.208
10740TIP3   OH232160   6.295   6.387   5.744
10740TIP3    H132161   6.213   6.340   5.730
10740TIP3    H232162   6.339   6.384   5.659
10741TIP3   OH232163   2.557   2.062   4.113
10741TIP3    H132164   2.578   1.992   4.175
10741TIP3    H232165   2.463   2.075   4.124
10742TIP3   OH232166   4.892   0.831   5.245
10742TIP3    H132167   4.804   0.867   5.237
10742TIP3    H232168   4.922   0.820   5.154
10743TIP3   OH232169   4.577   3.668   1.410
10743TIP3    H132170   4.490   3.682   1.371
10743TIP3    H232171   4.605   3.756   1.436
10744TIP3   OH232172   2.958   2.796   1.801
10744TIP3    H132173   2.872   2.759   1.821
10744TIP3    H232174   2.961   2.796   1.705
10745TIP3   OH232175   3.302   2.910   4.444
10745TIP3    H132176   3.362   2.966   4.395
10745TIP3    H232177   3.223   2.964   4.456
10746TIP3   OH232178   4.941   1.021   3.104
10746TIP3    H132179   4.918   1.066   3.185
10746TIP3    H232180   5.010   0.960   3.129
10747TIP3   OH232181   8.094   2.788   5.988
10747TIP3    H132182   8.082   2.758   5.898
10747TIP3    H232183   8.026   2.855   6.001
10748TIP3   OH232184   2.562   6.732   2.125
10748TIP3    H132185   2.501   6.659   2.139
10748TIP3    H232186   2.530   6.775   2.046
10749TIP3   OH232187   4.220   7.483   5.317
10749TIP3    H132188   4.274   7.437   5.382
10749TIP3    H232189   4.130   7.469   5.347
10750TIP3   OH232190   1.339   6.117   0.272
10750TIP3    H132191   1.247   6.121   0.300
10750TIP3    H232192   1.367   6.208   0.270
10751TIP3   OH232193   4.791   7.754   4.043
10751TIP3    H132194   4.788   7.800   3.959
10751TIP3    H232195   4.709   7.778   4.086
10752TIP3   OH232196   1.331   6.677   4.976
10752TIP3    H132197   1.378   6.704   5.055
10752TIP3    H232198   1.255   6.628   5.009
10753TIP3   OH232199   3.812   2.193   0.791
10753TIP3    H132200   3.807   2.101   0.816
10753TIP3    H232201   3.765   2.239   0.860
10754TIP3   OH232202   0.237   7.048   3.227
10754TIP3    H132203   0.310   7.108   3.237
10754TIP3    H232204   0.185   7.060   3.307
10755TIP3   OH232205   8.261   4.632   3.942
10755TIP3    H132206   8.214   4.553   3.916
10755TIP3    H232207   8.339   4.634   3.886
10756TIP3   OH232208   0.601   5.156   3.109
10756TIP3    H132209   0.651   5.088   3.063
10756TIP3    H232210   0.666   5.199   3.164
10757TIP3   OH232211   4.991   1.033   6.530
10757TIP3    H132212   4.911   0.994   6.564
10757TIP3    H232213   4.963   1.076   6.448
10758TIP3   OH232214   3.170   5.100   4.070
10758TIP3    H132215   3.092   5.091   4.125
10758TIP3    H232216   3.180   5.195   4.059
10759TIP3   OH232217   5.789   2.368   3.047
10759TIP3    H132218   5.862   2.316   3.014
10759TIP3    H232219   5.754   2.317   3.120
10760TIP3   OH232220   8.152   2.650   0.682
10760TIP3    H132221   8.072   2.693   0.650
10760TIP3    H232222   8.144   2.655   0.778
10761TIP3   OH232223   2.154   3.176   3.574
10761TIP3    H132224   2.126   3.168   3.665
10761TIP3    H232225   2.201   3.095   3.556
10762TIP3   OH232226   4.795   2.721   3.161
10762TIP3    H132227   4.879   2.694   3.195
10762TIP3    H232228   4.815   2.759   3.075
10763TIP3   OH232229   7.077   7.482   5.890
10763TIP3    H132230   7.089   7.539   5.815
10763TIP3    H232231   7.007   7.422   5.864
10764TIP3   OH232232   0.068   3.532   3.165
10764TIP3    H132233   0.019   3.606   3.128
10764TIP3    H232234   0.125   3.571   3.231
10765TIP3   OH232235   3.013   4.348   3.776
10765TIP3    H132236   2.963   4.275   3.813
10765TIP3    H232237   2.987   4.424   3.829
10766TIP3   OH232238   3.217   4.797   4.607
10766TIP3    H132239   3.220   4.771   4.699
10766TIP3    H232240   3.298   4.847   4.594
10767TIP3   OH232241   3.007   3.025   6.053
10767TIP3    H132242   2.931   3.037   6.111
10767TIP3    H232243   3.042   2.939   6.076
10768TIP3   OH232244   6.371   3.235   1.139
10768TIP3    H132245   6.418   3.313   1.111
10768TIP3    H232246   6.334   3.258   1.224
10769TIP3   OH232247   5.507   4.533   3.121
10769TIP3    H132248   5.593   4.491   3.116
10769TIP3    H232249   5.471   4.506   3.205
10770TIP3   OH232250   3.672   6.011   4.934
10770TIP3    H132251   3.709   5.944   4.877
10770TIP3    H232252   3.737   6.081   4.934
10771TIP3   OH232253   5.919   5.946   1.734
10771TIP3    H132254   5.889   6.035   1.715
10771TIP3    H232255   5.955   5.914   1.652
10772TIP3   OH232256   1.378   7.143   4.882
10772TIP3    H132257   1.286   7.116   4.879
10772TIP3    H232258   1.409   7.113   4.968
10773TIP3   OH232259   6.968   2.701   2.236
10773TIP3    H132260   6.924   2.628   2.279
10773TIP3    H232261   7.003   2.754   2.308
10774TIP3   OH232262   2.809   0.050   6.226
10774TIP3    H132263   2.780   0.044   6.317
10774TIP3    H232264   2.763   0.125   6.191
10775TIP3   OH232265   5.997   2.588   4.620
10775TIP3    H132266   5.977   2.635   4.539
10775TIP3    H232267   6.044   2.510   4.591
10776TIP3   OH232268   7.914   5.362   2.462
10776TIP3    H132269   7.873   5.353   2.376
10776TIP3    H232270   8.008   5.361   2.444
10777TIP3   OH232271   2.567   1.397   3.320
10777TIP3    H132272   2.528   1.311   3.300
10777TIP3    H232273   2.512   1.460   3.273
10778TIP3   OH232274   0.590   0.767   2.327
10778TIP3    H132275   0.590   0.683   2.372
10778TIP3    H232276   0.669   0.766   2.274
10779TIP3   OH232277   1.365   2.653   2.766
10779TIP3    H132278   1.374   2.658   2.671
10779TIP3    H232279   1.450   2.623   2.797
10780TIP3   OH232280   6.132   3.170   2.954
10780TIP3    H132281   6.044   3.140   2.975
10780TIP3    H232282   6.153   3.233   3.023
10781TIP3   OH232283   5.415   6.845   1.191
10781TIP3    H132284   5.366   6.766   1.168
10781TIP3    H232285   5.351   6.916   1.182
10782TIP3   OH232286   2.441   6.515   3.353
10782TIP3    H132287   2.454   6.609   3.362
10782TIP3    H232288   2.346   6.504   3.360
10783TIP3   OH232289   6.588   4.942   6.483
10783TIP3    H132290   6.511   4.960   6.430
10783TIP3    H232291   6.612   4.852   6.462
10784TIP3   OH232292   7.639   7.423   3.918
10784TIP3    H132293   7.713   7.404   3.975
10784TIP3    H232294   7.651   7.515   3.894
10785TIP3   OH232295   5.792   0.081   0.648
10785TIP3    H132296   5.783   0.049   0.558
10785TIP3    H232297   5.874   0.043   0.678
10786TIP3   OH232298   4.358   2.400   6.566
10786TIP3    H132299   4.270   2.363   6.568
10786TIP3    H232300   4.411   2.339   6.617
10787TIP3   OH232301   3.904   1.472   0.602
10787TIP3    H132302   3.935   1.476   0.511
10787TIP3    H232303   3.931   1.556   0.639
10788TIP3   OH232304   4.015   5.385   3.749
10788TIP3    H132305   4.082   5.317   3.748
10788TIP3    H232306   3.953   5.358   3.817
10789TIP3   OH232307   2.783   4.322   5.810
10789TIP3    H132308   2.872   4.297   5.784
10789TIP3    H232309   2.768   4.406   5.765
10790TIP3   OH232310   4.550   6.356   0.275
10790TIP3    H132311   4.567   6.274   0.321
10790TIP3    H232312   4.635   6.379   0.235
10791TIP3   OH232313   6.131   2.231   0.120
10791TIP3    H132314   6.135   2.137   0.136
10791TIP3    H232315   6.153   2.240   0.027
10792TIP3   OH232316   7.776   1.082   1.649
10792TIP3    H132317   7.814   0.994   1.658
10792TIP3    H232318   7.683   1.067   1.636
10793TIP3   OH232319   2.727   0.720   4.277
10793TIP3    H132320   2.717   0.656   4.206
10793TIP3    H232321   2.750   0.801   4.233
10794TIP3   OH232322   4.505   6.616   5.836
10794TIP3    H132323   4.518   6.521   5.846
10794TIP3    H232324   4.524   6.632   5.743
10795TIP3   OH232325   7.002   2.427   1.949
10795TIP3    H132326   7.042   2.446   2.034
10795TIP3    H232327   6.945   2.503   1.932
10796TIP3   OH232328   5.797   3.434   3.710
10796TIP3    H132329   5.792   3.527   3.692
10796TIP3    H232330   5.738   3.393   3.647
10797TIP3   OH232331   0.135   2.446   1.010
10797TIP3    H132332   0.167   2.529   1.046
10797TIP3    H232333   0.135   2.386   1.084
10798TIP3   OH232334   0.616   3.370   3.764
10798TIP3    H132335   0.689   3.410   3.811
10798TIP3    H232336   0.561   3.445   3.739
10799TIP3   OH232337   2.272   0.626   1.210
10799TIP3    H132338   2.273   0.605   1.117
10799TIP3    H232339   2.219   0.705   1.217
10800TIP3   OH232340   5.627   7.514   1.231
10800TIP3    H132341   5.612   7.478   1.319
10800TIP3    H232342   5.701   7.573   1.243
10801TIP3   OH232343   0.991   6.229   3.952
10801TIP3    H132344   0.993   6.134   3.943
10801TIP3    H232345   1.043   6.261   3.879
10802TIP3   OH232346   7.818   4.469   6.260
10802TIP3    H132347   7.816   4.400   6.327
10802TIP3    H232348   7.818   4.421   6.177
10803TIP3   OH232349   6.084   4.677   2.958
10803TIP3    H132350   6.154   4.719   2.908
10803TIP3    H232351   6.125   4.651   3.040
10804TIP3   OH232352   6.683   5.566   5.183
10804TIP3    H132353   6.753   5.501   5.183
10804TIP3    H232354   6.699   5.620   5.107
10805TIP3   OH232355   7.952   1.553   1.609
10805TIP3    H132356   7.928   1.646   1.610
10805TIP3    H232357   7.869   1.506   1.615
10806TIP3   OH232358   6.424   7.892   3.556
10806TIP3    H132359   6.513   7.918   3.531
10806TIP3    H232360   6.389   7.847   3.479
10807TIP3   OH232361   7.448   7.042   2.975
10807TIP3    H132362   7.477   6.950   2.973
10807TIP3    H232363   7.354   7.037   2.991
10808TIP3   OH232364   7.654   1.070   3.682
10808TIP3    H132365   7.668   0.981   3.715
10808TIP3    H232366   7.574   1.099   3.725
10809TIP3   OH232367   1.239   3.915   0.082
10809TIP3    H132368   1.260   3.936  -0.009
10809TIP3    H232369   1.322   3.926   0.129
10810TIP3   OH232370   0.700   4.333   4.734
10810TIP3    H132371   0.782   4.286   4.719
10810TIP3    H232372   0.642   4.305   4.664
10811TIP3   OH232373   0.639   6.540   6.219
10811TIP3    H132374   0.562   6.493   6.188
10811TIP3    H232375   0.713   6.485   6.192
10812TIP3   OH232376   6.484   1.358   1.872
10812TIP3    H132377   6.484   1.434   1.931
10812TIP3    H232378   6.396   1.358   1.835
10813TIP3   OH232379   6.922   1.784   3.197
10813TIP3    H132380   6.838   1.740   3.209
10813TIP3    H232381   6.943   1.819   3.283
10814TIP3   OH232382   3.140   5.723   3.993
10814TIP3    H132383   3.220   5.670   3.997
10814TIP3    H232384   3.101   5.701   3.909
10815TIP3   OH232385   4.113   2.706   4.805
10815TIP3    H132386   4.139   2.672   4.719
10815TIP3    H232387   4.166   2.656   4.867
10816TIP3   OH232388   6.721   0.147   5.665
10816TIP3    H132389   6.690   0.114   5.749
10816TIP3    H232390   6.641   0.173   5.619
10817TIP3   OH232391   2.796   4.941   2.336
10817TIP3    H132392   2.734   5.003   2.375
10817TIP3    H232393   2.755   4.917   2.253
10818TIP3   OH232394   2.449   7.180   5.215
10818TIP3    H132395   2.377   7.235   5.182
10818TIP3    H232396   2.488   7.232   5.285
10819TIP3   OH232397   0.070   0.709   5.376
10819TIP3    H132398   0.118   0.650   5.319
10819TIP3    H232399   0.133   0.777   5.400
10820TIP3   OH232400   5.036   7.617   0.071
10820TIP3    H132401   5.075   7.532   0.091
10820TIP3    H232402   4.986   7.640   0.150
10821TIP3   OH232403   2.747   2.288   4.841
10821TIP3    H132404   2.815   2.220   4.840
10821TIP3    H232405   2.669   2.242   4.871
10822TIP3   OH232406   1.982   6.400   4.467
10822TIP3    H132407   1.992   6.441   4.381
10822TIP3    H232408   1.903   6.346   4.459
10823TIP3   OH232409   3.712   3.025   5.273
10823TIP3    H132410   3.743   3.062   5.190
10823TIP3    H232411   3.776   2.957   5.294
10824TIP3   OH232412   0.806   3.248   0.852
10824TIP3    H132413   0.798   3.330   0.900
10824TIP3    H232414   0.729   3.246   0.795
10825TIP3   OH232415   5.557   0.973   2.594
10825TIP3    H132416   5.514   0.999   2.512
10825TIP3    H232417   5.630   0.918   2.566
10826TIP3   OH232418   2.215   1.335   3.753
10826TIP3    H132419   2.134   1.286   3.747
10826TIP3    H232420   2.283   1.269   3.768
10827TIP3   OH232421   2.085   1.465   5.157
10827TIP3    H132422   2.004   1.505   5.125
10827TIP3    H232423   2.056   1.388   5.205
10828TIP3   OH232424   6.818   6.144   4.026
10828TIP3    H132425   6.896   6.199   4.041
10828TIP3    H232426   6.831   6.107   3.939
10829TIP3   OH232427   2.558   2.252   3.849
10829TIP3    H132428   2.485   2.200   3.882
10829TIP3    H232429   2.518   2.315   3.789
10830TIP3   OH232430   7.075   5.817   3.247
10830TIP3    H132431   7.121   5.878   3.306
10830TIP3    H232432   6.982   5.839   3.258
10831TIP3   OH232433   2.165   0.969   1.447
10831TIP3    H132434   2.160   0.937   1.357
10831TIP3    H232435   2.229   0.911   1.489
10832TIP3   OH232436   3.133   4.403   6.196
10832TIP3    H132437   3.190   4.331   6.222
10832TIP3    H232438   3.045   4.364   6.196
10833TIP3   OH232439   8.315   1.463   2.017
10833TIP3    H132440   8.271   1.527   2.073
10833TIP3    H232441   8.287   1.486   1.928
10834TIP3   OH232442   0.161   0.557   3.772
10834TIP3    H132443   0.207   0.635   3.743
10834TIP3    H232444   0.227   0.505   3.818
10835TIP3   OH232445   6.335   1.153   5.029
10835TIP3    H132446   6.316   1.094   5.102
10835TIP3    H232447   6.328   1.241   5.066
10836TIP3   OH232448   3.805   4.894   4.317
10836TIP3    H132449   3.835   4.968   4.264
10836TIP3    H232450   3.735   4.930   4.372
10837TIP3   OH232451   5.719   4.344   1.806
10837TIP3    H132452   5.670   4.421   1.776
10837TIP3    H232453   5.724   4.288   1.729
10838TIP3   OH232454   1.277   1.458   2.877
10838TIP3    H132455   1.212   1.439   2.809
10838TIP3    H232456   1.279   1.379   2.931
10839TIP3   OH232457   6.604   3.967   5.528
10839TIP3    H132458   6.656   3.954   5.448
10839TIP3    H232459   6.593   3.879   5.564
10840TIP3   OH232460   1.755   3.194   3.925
10840TIP3    H132461   1.758   3.275   3.874
10840TIP3    H232462   1.704   3.217   4.003
10841TIP3   OH232463   2.226   1.771   3.878
10841TIP3    H132464   2.211   1.856   3.920
10841TIP3    H232465   2.322   1.763   3.874
10842TIP3   OH232466   2.062   7.275   2.696
10842TIP3    H132467   2.099   7.325   2.768
10842TIP3    H232468   2.138   7.240   2.650
10843TIP3   OH232469   6.127   5.627   4.755
10843TIP3    H132470   6.099   5.559   4.694
10843TIP3    H232471   6.128   5.584   4.840
10844TIP3   OH232472   3.604   0.497   5.619
10844TIP3    H132473   3.654   0.419   5.642
10844TIP3    H232474   3.586   0.487   5.525
10845TIP3   OH232475   0.078   3.889   6.451
10845TIP3    H132476   0.075   3.980   6.482
10845TIP3    H232477   0.072   3.836   6.530
10846TIP3   OH232478   7.354   2.539   6.852
10846TIP3    H132479   7.351   2.529   6.756
10846TIP3    H232480   7.384   2.453   6.883
10847TIP3   OH232481   0.827   4.703   0.898
10847TIP3    H132482   0.810   4.715   0.804
10847TIP3    H232483   0.911   4.658   0.901
10848TIP3   OH232484   1.008   6.225   2.395
10848TIP3    H132485   0.913   6.224   2.403
10848TIP3    H232486   1.038   6.277   2.470
10849TIP3   OH232487   8.140   0.080   4.320
10849TIP3    H132488   8.084   0.037   4.256
10849TIP3    H232489   8.089   0.155   4.351
10850TIP3   OH232490   7.655   7.140   2.322
10850TIP3    H132491   7.584   7.137   2.385
10850TIP3    H232492   7.613   7.169   2.241
10851TIP3   OH232493   6.204   3.644   2.535
10851TIP3    H132494   6.123   3.652   2.486
10851TIP3    H232495   6.262   3.594   2.478
10852TIP3   OH232496   0.895   3.432   6.597
10852TIP3    H132497   0.989   3.442   6.609
10852TIP3    H232498   0.856   3.498   6.655
10853TIP3   OH232499   5.646   0.194   2.048
10853TIP3    H132500   5.646   0.186   2.143
10853TIP3    H232501   5.727   0.240   2.027
10854TIP3   OH232502   7.125   4.799   3.617
10854TIP3    H132503   7.151   4.711   3.591
10854TIP3    H232504   7.201   4.854   3.595
10855TIP3   OH232505   4.063   5.557   5.306
10855TIP3    H132506   4.080   5.464   5.325
10855TIP3    H232507   4.030   5.557   5.216
10856TIP3   OH232508   2.826   6.638   3.713
10856TIP3    H132509   2.806   6.659   3.804
10856TIP3    H232510   2.741   6.626   3.672
10857TIP3   OH232511   4.662   5.256   6.259
10857TIP3    H132512   4.660   5.352   6.257
10857TIP3    H232513   4.652   5.234   6.351
10858TIP3   OH232514   4.637   7.092   2.845
10858TIP3    H132515   4.690   7.020   2.877
10858TIP3    H232516   4.655   7.165   2.904
10859TIP3   OH232517   3.301   5.471   4.918
10859TIP3    H132518   3.230   5.520   4.877
10859TIP3    H232519   3.269   5.449   5.006
10860TIP3   OH232520   0.478   5.173   0.126
10860TIP3    H132521   0.533   5.101   0.157
10860TIP3    H232522   0.447   5.145   0.040
10861TIP3   OH232523   2.465   5.596   5.533
10861TIP3    H132524   2.385   5.560   5.570
10861TIP3    H232525   2.496   5.528   5.472
10862TIP3   OH232526   5.851   6.030   5.202
10862TIP3    H132527   5.821   5.983   5.280
10862TIP3    H232528   5.945   6.041   5.215
10863TIP3   OH232529   2.520   1.847   3.170
10863TIP3    H132530   2.589   1.793   3.210
10863TIP3    H232531   2.495   1.799   3.092
10864TIP3   OH232532   1.556   1.891   0.696
10864TIP3    H132533   1.580   1.807   0.735
10864TIP3    H232534   1.539   1.948   0.771
10865TIP3   OH232535   0.403   2.988   6.031
10865TIP3    H132536   0.394   3.039   6.111
10865TIP3    H232537   0.315   2.953   6.015
10866TIP3   OH232538   4.032   7.660   0.125
10866TIP3    H132539   3.953   7.709   0.102
10866TIP3    H232540   4.104   7.719   0.106
10867TIP3   OH232541   0.497   7.789   1.107
10867TIP3    H132542   0.524   7.843   1.033
10867TIP3    H232543   0.458   7.850   1.169
10868TIP3   OH232544   7.971   0.593   4.776
10868TIP3    H132545   7.992   0.500   4.786
10868TIP3    H232546   7.972   0.628   4.865
10869TIP3   OH232547   4.124   0.814   6.400
10869TIP3    H132548   4.135   0.904   6.367
10869TIP3    H232549   4.064   0.824   6.474
10870TIP3   OH232550   4.352   4.470   4.860
10870TIP3    H132551   4.437   4.440   4.893
10870TIP3    H232552   4.371   4.557   4.824
10871TIP3   OH232553   8.172   1.025   2.874
10871TIP3    H132554   8.232   1.041   2.802
10871TIP3    H232555   8.089   1.003   2.832
10872TIP3   OH232556   2.593   4.992   5.389
10872TIP3    H132557   2.515   5.034   5.424
10872TIP3    H232558   2.583   4.999   5.294
10873TIP3   OH232559   4.426   5.330   5.380
10873TIP3    H132560   4.366   5.393   5.422
10873TIP3    H232561   4.395   5.324   5.290
10874TIP3   OH232562   4.439   4.007   6.789
10874TIP3    H132563   4.427   4.081   6.848
10874TIP3    H232564   4.445   4.046   6.702
10875TIP3   OH232565   3.410   1.520   5.433
10875TIP3    H132566   3.443   1.486   5.350
10875TIP3    H232567   3.464   1.597   5.450
10876TIP3   OH232568   0.549   7.197   1.660
10876TIP3    H132569   0.479   7.240   1.709
10876TIP3    H232570   0.516   7.191   1.571
10877TIP3   OH232571   2.192   0.086   2.854
10877TIP3    H132572   2.261   0.089   2.788
10877TIP3    H232573   2.239   0.083   2.938
10878TIP3   OH232574   7.558   2.989   1.802
10878TIP3    H132575   7.541   3.084   1.805
10878TIP3    H232576   7.525   2.956   1.885
10879TIP3   OH232577   1.409   4.171   5.223
10879TIP3    H132578   1.336   4.179   5.285
10879TIP3    H232579   1.482   4.140   5.277
10880TIP3   OH232580   1.450   5.148   6.090
10880TIP3    H132581   1.364   5.107   6.078
10880TIP3    H232582   1.454   5.168   6.183
10881TIP3   OH232583   6.842   4.365   6.227
10881TIP3    H132584   6.918   4.311   6.205
10881TIP3    H232585   6.768   4.316   6.190
10882TIP3   OH232586   2.500   0.374   5.815
10882TIP3    H132587   2.537   0.299   5.769
10882TIP3    H232588   2.421   0.340   5.857
10883TIP3   OH232589   7.146   3.618   5.705
10883TIP3    H132590   7.232   3.630   5.666
10883TIP3    H232591   7.163   3.608   5.799
10884TIP3   OH232592   5.259   6.949   6.509
10884TIP3    H132593   5.231   6.903   6.587
10884TIP3    H232594   5.211   7.032   6.511
10885TIP3   OH232595   6.013   7.636   2.026
10885TIP3    H132596   6.051   7.620   2.112
10885TIP3    H232597   6.024   7.552   1.980
10886TIP3   OH232598   5.522   0.418   0.500
10886TIP3    H132599   5.584   0.428   0.573
10886TIP3    H232600   5.439   0.399   0.543
10887TIP3   OH232601   6.661   4.052   4.054
10887TIP3    H132602   6.648   4.147   4.052
10887TIP3    H232603   6.688   4.030   3.965
10888TIP3   OH232604   5.805   2.656   4.134
10888TIP3    H132605   5.747   2.580   4.138
10888TIP3    H232606   5.847   2.649   4.048
10889TIP3   OH232607   5.356   4.370   4.996
10889TIP3    H132608   5.278   4.412   5.034
10889TIP3    H232609   5.421   4.439   4.993
10890TIP3   OH232610   4.910   2.490   2.370
10890TIP3    H132611   4.915   2.424   2.301
10890TIP3    H232612   4.875   2.567   2.327
10891TIP3   OH232613   0.083   6.110   3.876
10891TIP3    H132614   0.129   6.194   3.869
10891TIP3    H232615  -0.004   6.134   3.909
10892TIP3   OH232616   5.704   6.243   6.641
10892TIP3    H132617   5.784   6.236   6.588
10892TIP3    H232618   5.636   6.267   6.578
10893TIP3   OH232619   5.330   3.016   5.956
10893TIP3    H132620   5.340   3.000   5.862
10893TIP3    H232621   5.332   3.111   5.965
10894TIP3   OH232622   2.585   3.581   5.740
10894TIP3    H132623   2.536   3.499   5.742
10894TIP3    H232624   2.675   3.554   5.720
10895TIP3   OH232625   8.140   7.578   2.620
10895TIP3    H132626   8.186   7.527   2.687
10895TIP3    H232627   8.155   7.530   2.539
10896TIP3   OH232628   2.370   1.823   0.622
10896TIP3    H132629   2.314   1.750   0.647
10896TIP3    H232630   2.322   1.901   0.653
10897TIP3   OH232631   5.709   4.889   1.848
10897TIP3    H132632   5.771   4.832   1.893
10897TIP3    H232633   5.741   4.977   1.865
10898TIP3   OH232634   6.881   3.537   3.206
10898TIP3    H132635   6.826   3.551   3.282
10898TIP3    H232636   6.895   3.442   3.203
10899TIP3   OH232637   0.339   5.578   5.376
10899TIP3    H132638   0.337   5.540   5.464
10899TIP3    H232639   0.254   5.555   5.339
10900TIP3   OH232640   4.069   5.904   1.070
10900TIP3    H132641   4.155   5.939   1.092
10900TIP3    H232642   4.058   5.830   1.129
10901TIP3   OH232643   5.102   2.872   0.619
10901TIP3    H132644   5.052   2.920   0.685
10901TIP3    H232645   5.044   2.867   0.543
10902TIP3   OH232646   5.987   1.974   5.515
10902TIP3    H132647   6.004   1.927   5.597
10902TIP3    H232648   6.064   1.954   5.461
10903TIP3   OH232649   3.801   0.709   1.022
10903TIP3    H132650   3.798   0.784   0.963
10903TIP3    H232651   3.867   0.732   1.087
10904TIP3   OH232652   4.489   2.890   1.059
10904TIP3    H132653   4.533   2.952   1.117
10904TIP3    H232654   4.499   2.805   1.103
10905TIP3   OH232655   2.976   6.005   0.089
10905TIP3    H132656   2.925   6.058   0.150
10905TIP3    H232657   3.005   6.067   0.022
10906TIP3   OH232658   2.712   5.191   0.593
10906TIP3    H132659   2.622   5.174   0.567
10906TIP3    H232660   2.733   5.276   0.554
10907TIP3   OH232661   7.945   5.353   6.648
10907TIP3    H132662   7.950   5.427   6.708
10907TIP3    H232663   7.978   5.387   6.565
10908TIP3   OH232664   4.422   6.615   1.043
10908TIP3    H132665   4.461   6.701   1.053
10908TIP3    H232666   4.333   6.625   1.078
10909TIP3   OH232667   5.792   0.475   6.385
10909TIP3    H132668   5.881   0.479   6.349
10909TIP3    H232669   5.804   0.487   6.479
10910TIP3   OH232670   1.475   6.431   5.460
10910TIP3    H132671   1.472   6.404   5.552
10910TIP3    H232672   1.527   6.362   5.417
10911TIP3   OH232673   1.923   4.216   4.272
10911TIP3    H132674   1.840   4.248   4.309
10911TIP3    H232675   1.904   4.125   4.248
10912TIP3   OH232676   7.908   7.550   6.462
10912TIP3    H132677   7.962   7.628   6.477
10912TIP3    H232678   7.965   7.476   6.485
10913TIP3   OH232679   4.062   0.205   4.552
10913TIP3    H132680   3.978   0.242   4.527
10913TIP3    H232681   4.057   0.114   4.522
10914TIP3   OH232682   4.508   0.168   3.239
10914TIP3    H132683   4.519   0.260   3.214
10914TIP3    H232684   4.557   0.160   3.321
10915TIP3   OH232685   8.202   6.745   2.277
10915TIP3    H132686   8.288   6.759   2.317
10915TIP3    H232687   8.140   6.765   2.346
10916TIP3   OH232688   3.228   2.704   6.802
10916TIP3    H132689   3.247   2.783   6.752
10916TIP3    H232690   3.255   2.726   6.891
10917TIP3   OH232691   5.780   1.858   0.534
10917TIP3    H132692   5.875   1.866   0.537
10917TIP3    H232693   5.748   1.939   0.574
10918TIP3   OH232694   7.708   7.014   3.476
10918TIP3    H132695   7.653   7.092   3.478
10918TIP3    H232696   7.712   6.985   3.567
10919TIP3   OH232697   5.245   6.217   6.441
10919TIP3    H132698   5.335   6.246   6.459
10919TIP3    H232699   5.194   6.298   6.435
10920TIP3   OH232700   0.216   2.814   2.080
10920TIP3    H132701   0.179   2.900   2.098
10920TIP3    H232702   0.168   2.784   2.003
10921TIP3   OH232703   5.696   6.860   5.421
10921TIP3    H132704   5.642   6.910   5.360
10921TIP3    H232705   5.754   6.809   5.365
10922TIP3   OH232706   3.175   3.852   5.794
10922TIP3    H132707   3.227   3.903   5.733
10922TIP3    H232708   3.208   3.876   5.880
10923TIP3   OH232709   4.824   2.096   4.190
10923TIP3    H132710   4.779   2.129   4.112
10923TIP3    H232711   4.909   2.139   4.188
10924TIP3   OH232712   5.409   6.860   4.613
10924TIP3    H132713   5.454   6.917   4.550
10924TIP3    H232714   5.448   6.882   4.697
10925TIP3   OH232715   1.196   2.957   0.390
10925TIP3    H132716   1.236   3.041   0.369
10925TIP3    H232717   1.205   2.905   0.311
10926TIP3   OH232718   3.740   7.803   3.568
10926TIP3    H132719   3.787   7.833   3.646
10926TIP3    H232720   3.804   7.809   3.497
10927TIP3   OH232721   2.890   7.244   0.046
10927TIP3    H132722   2.935   7.272   0.126
10927TIP3    H232723   2.922   7.303  -0.022
10928TIP3   OH232724   3.896   2.373   5.538
10928TIP3    H132725   3.818   2.369   5.594
10928TIP3    H232726   3.878   2.310   5.468
10929TIP3   OH232727   7.374   0.534   5.735
10929TIP3    H132728   7.298   0.515   5.680
10929TIP3    H232729   7.339   0.539   5.824
10930TIP3   OH232730   2.392   6.264   0.202
10930TIP3    H132731   2.304   6.267   0.238
10930TIP3    H232732   2.381   6.229   0.113
10931TIP3   OH232733   3.149   0.090   1.980
10931TIP3    H132734   3.163   0.134   1.896
10931TIP3    H232735   3.093   0.016   1.960
10932TIP3   OH232736   6.259   7.608   2.863
10932TIP3    H132737   6.351   7.585   2.872
10932TIP3    H232738   6.254   7.700   2.887
10933TIP3   OH232739   7.064   6.233   2.610
10933TIP3    H132740   7.035   6.200   2.526
10933TIP3    H232741   7.160   6.238   2.602
10934TIP3   OH232742   2.128   2.604   6.824
10934TIP3    H132743   2.125   2.539   6.754
10934TIP3    H232744   2.090   2.682   6.786
10935TIP3   OH232745   8.155   6.710   0.305
10935TIP3    H132746   8.224   6.728   0.369
10935TIP3    H232747   8.200   6.718   0.220
10936TIP3   OH232748   5.145   4.698   1.602
10936TIP3    H132749   5.115   4.731   1.687
10936TIP3    H232750   5.079   4.727   1.540
10937TIP3   OH232751   0.123   3.755   4.451
10937TIP3    H132752   0.186   3.797   4.510
10937TIP3    H232753   0.037   3.784   4.483
10938TIP3   OH232754   0.376   1.436   2.068
10938TIP3    H132755   0.433   1.391   2.131
10938TIP3    H232756   0.289   1.433   2.107
10939TIP3   OH232757   5.995   6.218   0.760
10939TIP3    H132758   6.000   6.159   0.686
10939TIP3    H232759   5.903   6.244   0.764
10940TIP3   OH232760   0.620   1.583   6.320
10940TIP3    H132761   0.573   1.658   6.356
10940TIP3    H232762   0.654   1.536   6.396
10941TIP3   OH232763   7.391   7.781   5.018
10941TIP3    H132764   7.477   7.754   5.050
10941TIP3    H232765   7.406   7.868   4.982
10942TIP3   OH232766   6.924   4.740   0.552
10942TIP3    H132767   6.876   4.823   0.558
10942TIP3    H232768   6.909   4.698   0.636
10943TIP3   OH232769   2.496   2.141   4.504
10943TIP3    H132770   2.574   2.101   4.543
10943TIP3    H232771   2.512   2.235   4.509
10944TIP3   OH232772   0.171   7.247   3.504
10944TIP3    H132773   0.221   7.199   3.570
10944TIP3    H232774   0.238   7.282   3.445
10945TIP3   OH232775   0.410   2.021   2.448
10945TIP3    H132776   0.421   2.046   2.357
10945TIP3    H232777   0.364   2.094   2.488
10946TIP3   OH232778   6.565   2.200   3.680
10946TIP3    H132779   6.610   2.214   3.763
10946TIP3    H232780   6.477   2.236   3.694
10947TIP3   OH232781   7.223   5.034   3.100
10947TIP3    H132782   7.203   5.021   3.008
10947TIP3    H232783   7.207   5.128   3.115
10948TIP3   OH232784   0.462   7.349   3.831
10948TIP3    H132785   0.386   7.405   3.820
10948TIP3    H232786   0.536   7.409   3.832
10949TIP3   OH232787   6.299   7.385   4.819
10949TIP3    H132788   6.263   7.415   4.736
10949TIP3    H232789   6.261   7.443   4.885
10950TIP3   OH232790   7.641   6.557   3.993
10950TIP3    H132791   7.725   6.544   3.948
10950TIP3    H232792   7.630   6.478   4.046
10951TIP3   OH232793   4.685   0.084   3.455
10951TIP3    H132794   4.691  -0.011   3.440
10951TIP3    H232795   4.775   0.115   3.443
10952TIP3   OH232796   5.962   3.701   2.873
10952TIP3    H132797   5.982   3.610   2.895
10952TIP3    H232798   5.997   3.752   2.946
10953TIP3   OH232799   3.285   0.195  -0.029
10953TIP3    H132800   3.202   0.199   0.017
10953TIP3    H232801   3.346   0.242   0.027
10954TIP3   OH232802   7.036   5.519   2.120
10954TIP3    H132803   7.065   5.474   2.041
10954TIP3    H232804   7.056   5.612   2.104
10955TIP3   OH232805   6.213   3.045   2.277
10955TIP3    H132806   6.149   3.116   2.274
10955TIP3    H232807   6.286   3.082   2.328
10956TIP3   OH232808   3.415   3.075   1.012
10956TIP3    H132809   3.393   3.110   1.098
10956TIP3    H232810   3.504   3.041   1.022
10957TIP3   OH232811   4.420   0.865   5.656
10957TIP3    H132812   4.337   0.883   5.702
10957TIP3    H232813   4.449   0.781   5.692
10958TIP3   OH232814   6.151   1.322   5.543
10958TIP3    H132815   6.243   1.340   5.522
10958TIP3    H232816   6.106   1.326   5.459
10959TIP3   OH232817   7.131   5.842   2.982
10959TIP3    H132818   7.059   5.805   2.930
10959TIP3    H232819   7.108   5.823   3.072
10960TIP3   OH232820   2.675   4.259   0.592
10960TIP3    H132821   2.600   4.258   0.532
10960TIP3    H232822   2.700   4.352   0.597
10961TIP3   OH232823   4.383   3.128   1.358
10961TIP3    H132824   4.372   3.141   1.452
10961TIP3    H232825   4.346   3.207   1.318
10962TIP3   OH232826   7.631   7.096   1.432
10962TIP3    H132827   7.655   7.048   1.511
10962TIP3    H232828   7.551   7.142   1.454
10963TIP3   OH232829   6.305   1.975   0.387
10963TIP3    H132830   6.275   1.966   0.297
10963TIP3    H232831   6.320   2.069   0.398
10964TIP3   OH232832   6.589   3.208   3.644
10964TIP3    H132833   6.529   3.167   3.705
10964TIP3    H232834   6.540   3.283   3.609
10965TIP3   OH232835   0.422   2.681   3.203
10965TIP3    H132836   0.357   2.752   3.195
10965TIP3    H232837   0.491   2.718   3.258
10966TIP3   OH232838   4.451   4.579   3.542
10966TIP3    H132839   4.480   4.622   3.461
10966TIP3    H232840   4.456   4.486   3.522
10967TIP3   OH232841   6.446   6.066   3.740
10967TIP3    H132842   6.380   6.054   3.671
10967TIP3    H232843   6.434   6.157   3.767
10968TIP3   OH232844   6.863   5.875   5.570
10968TIP3    H132845   6.939   5.879   5.512
10968TIP3    H232846   6.792   5.843   5.514
10969TIP3   OH232847   5.588   4.447   0.856
10969TIP3    H132848   5.536   4.506   0.912
10969TIP3    H232849   5.615   4.376   0.915
10970TIP3   OH232850   7.060   6.352   6.191
10970TIP3    H132851   7.152   6.346   6.217
10970TIP3    H232852   7.020   6.272   6.227
10971TIP3   OH232853   2.031   1.277   2.440
10971TIP3    H132854   1.969   1.270   2.368
10971TIP3    H232855   2.083   1.355   2.420
10972TIP3   OH232856   8.253   6.563   4.208
10972TIP3    H132857   8.297   6.478   4.210
10972TIP3    H232858   8.171   6.548   4.254
10973TIP3   OH232859   5.113   5.499   2.418
10973TIP3    H132860   5.026   5.529   2.393
10973TIP3    H232861   5.169   5.522   2.343
10974TIP3   OH232862   6.057   6.941   4.640
10974TIP3    H132863   5.970   6.976   4.659
10974TIP3    H232864   6.117   7.011   4.666
10975TIP3   OH232865   5.058   7.384   4.166
10975TIP3    H132866   5.070   7.319   4.236
10975TIP3    H232867   5.105   7.347   4.091
10976TIP3   OH232868   5.812   3.591   1.691
10976TIP3    H132869   5.814   3.495   1.700
10976TIP3    H232870   5.892   3.621   1.734
10977TIP3   OH232871   3.624   1.342   1.489
10977TIP3    H132872   3.614   1.425   1.442
10977TIP3    H232873   3.695   1.297   1.443
10978TIP3   OH232874   5.982   3.490   1.900
10978TIP3    H132875   5.981   3.398   1.875
10978TIP3    H232876   6.057   3.498   1.959
10979TIP3   OH232877   1.289   7.741   2.855
10979TIP3    H132878   1.292   7.659   2.904
10979TIP3    H232879   1.381   7.765   2.843
10980TIP3   OH232880   8.066   1.862   3.191
10980TIP3    H132881   7.991   1.886   3.137
10980TIP3    H232882   8.028   1.809   3.261
10981TIP3   OH232883   0.642   4.587   2.734
10981TIP3    H132884   0.709   4.579   2.666
10981TIP3    H232885   0.689   4.575   2.816
10982TIP3   OH232886   5.545   7.799   3.406
10982TIP3    H132887   5.508   7.760   3.327
10982TIP3    H232888   5.499   7.882   3.417
10983TIP3   OH232889   6.031   7.694   2.462
10983TIP3    H132890   5.984   7.762   2.415
10983TIP3    H232891   6.026   7.721   2.554
10984TIP3   OH232892   3.920   4.956   2.552
10984TIP3    H132893   3.854   5.024   2.565
10984TIP3    H232894   3.879   4.894   2.491
10985TIP3   OH232895   7.108   0.068   4.059
10985TIP3    H132896   7.106   0.014   3.980
10985TIP3    H232897   7.095   0.005   4.130
10986TIP3   OH232898   1.781   5.172   2.580
10986TIP3    H132899   1.803   5.264   2.570
10986TIP3    H232900   1.865   5.127   2.582
10987TIP3   OH232901   2.231   5.334   0.541
10987TIP3    H132902   2.184   5.250   0.540
10987TIP3    H232903   2.176   5.392   0.593
10988TIP3   OH232904   3.321   6.363   4.430
10988TIP3    H132905   3.272   6.361   4.347
10988TIP3    H232906   3.301   6.279   4.471
10989TIP3   OH232907   3.698   6.149   2.739
10989TIP3    H132908   3.621   6.199   2.769
10989TIP3    H232909   3.740   6.206   2.675
10990TIP3   OH232910   1.194   4.005   6.625
10990TIP3    H132911   1.191   3.910   6.614
10990TIP3    H232912   1.279   4.031   6.590
10991TIP3   OH232913   0.863   5.886   5.009
10991TIP3    H132914   0.887   5.977   5.025
10991TIP3    H232915   0.920   5.857   4.938
10992TIP3   OH232916   6.779   1.878   6.403
10992TIP3    H132917   6.811   1.965   6.429
10992TIP3    H232918   6.721   1.851   6.474
10993TIP3   OH232919   4.088   7.586   3.491
10993TIP3    H132920   4.179   7.604   3.513
10993TIP3    H232921   4.075   7.494   3.513
10994TIP3   OH232922   1.087   1.422   6.708
10994TIP3    H132923   0.995   1.444   6.692
10994TIP3    H232924   1.088   1.326   6.706
10995TIP3   OH232925   0.120   4.836   3.923
10995TIP3    H132926   0.159   4.922   3.909
10995TIP3    H232927   0.167   4.778   3.864
10996TIP3   OH232928   1.992   6.196   6.130
10996TIP3    H132929   1.913   6.184   6.183
10996TIP3    H232930   2.030   6.278   6.162
10997TIP3   OH232931   5.334   3.213   0.952
10997TIP3    H132932   5.282   3.291   0.971
10997TIP3    H232933   5.282   3.141   0.987
10998TIP3   OH232934   3.447   4.809   0.886
10998TIP3    H132935   3.516   4.810   0.820
10998TIP3    H232936   3.393   4.886   0.866
10999TIP3   OH232937   5.120   5.018   1.519
10999TIP3    H132938   5.191   5.081   1.509
10999TIP3    H232939   5.088   5.032   1.608
11000TIP3   OH232940   3.031   3.834   4.463
11000TIP3    H132941   2.960   3.854   4.400
11000TIP3    H232942   3.005   3.880   4.543
11001TIP3   OH232943   1.110   2.709   3.290
11001TIP3    H132944   1.086   2.758   3.212
11001TIP3    H232945   1.206   2.709   3.290
11002TIP3   OH232946   1.785   0.225   0.525
11002TIP3    H132947   1.779   0.272   0.441
11002TIP3    H232948   1.780   0.132   0.501
11003TIP3   OH232949   2.028   7.071   2.344
11003TIP3    H132950   2.025   7.056   2.249
11003TIP3    H232951   2.116   7.044   2.369
11004TIP3   OH232952   8.268   7.176   1.107
11004TIP3    H132953   8.247   7.137   1.192
11004TIP3    H232954   8.223   7.261   1.108
11005TIP3   OH232955   5.294   1.351   3.007
11005TIP3    H132956   5.377   1.392   2.984
11005TIP3    H232957   5.278   1.380   3.097
11006TIP3   OH232958   2.569   1.321   6.633
11006TIP3    H132959   2.629   1.298   6.562
11006TIP3    H232960   2.608   1.282   6.711
11007TIP3   OH232961   0.149   7.001   0.340
11007TIP3    H132962   0.162   7.051   0.421
11007TIP3    H232963   0.235   6.967   0.318
11008TIP3   OH232964   1.450   2.574   3.133
11008TIP3    H132965   1.456   2.499   3.192
11008TIP3    H232966   1.536   2.616   3.139
11009TIP3   OH232967   6.514   7.620   2.923
11009TIP3    H132968   6.545   7.533   2.950
11009TIP3    H232969   6.577   7.681   2.962
11010TIP3   OH232970   5.875   1.395   0.979
11010TIP3    H132971   5.820   1.456   0.930
11010TIP3    H232972   5.943   1.368   0.916
11011TIP3   OH232973   4.144   2.187   6.786
11011TIP3    H132974   4.236   2.211   6.801
11011TIP3    H232975   4.123   2.225   6.701
11012TIP3   OH232976   1.682   1.264   5.101
11012TIP3    H132977   1.698   1.194   5.038
11012TIP3    H232978   1.769   1.295   5.125
11013TIP3   OH232979   3.589   0.209   2.999
11013TIP3    H132980   3.558   0.120   2.980
11013TIP3    H232981   3.630   0.202   3.085
11014TIP3   OH232982   4.596   3.820   2.195
11014TIP3    H132983   4.610   3.910   2.224
11014TIP3    H232984   4.656   3.768   2.249
11015TIP3   OH232985   1.442   3.030   5.633
11015TIP3    H132986   1.527   2.987   5.623
11015TIP3    H232987   1.461   3.123   5.628
11016TIP3   OH232988   3.385   2.527   0.976
11016TIP3    H132989   3.337   2.602   1.011
11016TIP3    H232990   3.320   2.480   0.923
11017TIP3   OH232991   6.932   5.128   5.721
11017TIP3    H132992   6.915   5.222   5.723
11017TIP3    H232993   7.026   5.120   5.741
11018TIP3   OH232994   4.980   2.489   5.099
11018TIP3    H132995   5.014   2.403   5.074
11018TIP3    H232996   5.053   2.549   5.083
11019TIP3   OH232997   2.490   0.559   0.691
11019TIP3    H132998   2.421   0.606   0.643
11019TIP3    H232999   2.541   0.515   0.623
11020TIP3   OH233000   1.467   4.568   4.546
11020TIP3    H133001   1.397   4.596   4.605
11020TIP3    H233002   1.427   4.567   4.459
11021TIP3   OH233003   0.152   3.983   3.028
11021TIP3    H133004   0.082   3.947   3.082
11021TIP3    H233005   0.232   3.962   3.075
11022TIP3   OH233006   7.826   4.364   6.817
11022TIP3    H133007   7.900   4.305   6.833
11022TIP3    H233008   7.753   4.305   6.796
11023TIP3   OH233009   3.835   5.593   2.309
11023TIP3    H133010   3.835   5.617   2.216
11023TIP3    H233011   3.779   5.515   2.312
11024TIP3   OH233012   7.759   3.998   4.547
11024TIP3    H133013   7.721   4.072   4.593
11024TIP3    H233014   7.713   3.995   4.464
11025TIP3   OH233015   5.384   2.118   3.465
11025TIP3    H133016   5.439   2.048   3.501
11025TIP3    H233017   5.326   2.073   3.403
11026TIP3   OH233018   2.002   3.550   4.010
11026TIP3    H133019   2.072   3.597   3.964
11026TIP3    H233020   1.951   3.618   4.054
11027TIP3   OH233021   2.460   5.232   3.262
11027TIP3    H133022   2.439   5.140   3.275
11027TIP3    H233023   2.390   5.264   3.205
11028TIP3   OH233024   1.941   6.610   5.088
11028TIP3    H133025   1.906   6.673   5.024
11028TIP3    H233026   2.001   6.555   5.036
11029TIP3   OH233027   4.205   1.635   6.112
11029TIP3    H133028   4.147   1.567   6.146
11029TIP3    H233029   4.289   1.618   6.155
11030TIP3   OH233030   8.026   5.641   3.731
11030TIP3    H133031   7.990   5.672   3.648
11030TIP3    H233032   7.951   5.638   3.790
11031TIP3   OH233033   7.174   2.270   4.037
11031TIP3    H133034   7.235   2.209   4.078
11031TIP3    H233035   7.096   2.266   4.092
11032TIP3   OH233036   6.810   2.168   6.835
11032TIP3    H133037   6.754   2.237   6.871
11032TIP3    H233038   6.756   2.089   6.838
11033TIP3   OH233039   0.848   6.926   6.823
11033TIP3    H133040   0.819   6.836   6.813
11033TIP3    H233041   0.940   6.919   6.851
11034TIP3   OH233042   1.567   3.414   1.107
11034TIP3    H133043   1.517   3.493   1.088
11034TIP3    H233044   1.502   3.344   1.106
11035TIP3   OH233045   8.340   7.684   5.168
11035TIP3    H133046   8.347   7.678   5.263
11035TIP3    H233047   8.429   7.704   5.138
11036TIP3   OH233048   5.850   2.271   6.140
11036TIP3    H133049   5.867   2.231   6.055
11036TIP3    H233050   5.853   2.365   6.123
11037TIP3   OH233051   6.413   4.581   5.867
11037TIP3    H133052   6.343   4.518   5.885
11037TIP3    H233053   6.469   4.537   5.804
11038TIP3   OH233054   1.726   7.711   6.640
11038TIP3    H133055   1.716   7.620   6.614
11038TIP3    H233056   1.776   7.708   6.722
11039TIP3   OH233057   3.518   5.049   5.567
11039TIP3    H133058   3.440   5.105   5.562
11039TIP3    H233059   3.504   4.983   5.499
11040TIP3   OH233060   2.305   3.201   5.318
11040TIP3    H133061   2.346   3.115   5.328
11040TIP3    H233062   2.370   3.253   5.271
11041TIP3   OH233063   4.453   6.386   0.853
11041TIP3    H133064   4.406   6.341   0.924
11041TIP3    H233065   4.459   6.477   0.882
11042TIP3   OH233066   2.638   5.363   2.517
11042TIP3    H133067   2.677   5.379   2.603
11042TIP3    H233068   2.628   5.450   2.478
11043TIP3   OH233069   0.546   4.627   2.237
11043TIP3    H133070   0.496   4.628   2.319
11043TIP3    H233071   0.617   4.688   2.252
11044TIP3   OH233072   1.834   4.306   5.362
11044TIP3    H133073   1.834   4.216   5.330
11044TIP3    H233074   1.826   4.360   5.283
11045TIP3   OH233075   8.303   4.700   5.624
11045TIP3    H133076   8.369   4.761   5.591
11045TIP3    H233077   8.234   4.700   5.557
11046TIP3   OH233078   0.486   7.080   6.791
11046TIP3    H133079   0.533   7.162   6.804
11046TIP3    H233080   0.439   7.066   6.874
11047TIP3   OH233081   6.006   0.629   3.285
11047TIP3    H133082   5.954   0.548   3.285
11047TIP3    H233083   6.000   0.661   3.374
11048TIP3   OH233084   4.727   2.287   3.375
11048TIP3    H133085   4.679   2.355   3.329
11048TIP3    H233086   4.684   2.205   3.350
11049TIP3   OH233087   2.900   2.546   5.598
11049TIP3    H133088   2.887   2.615   5.532
11049TIP3    H233089   2.837   2.478   5.574
11050TIP3   OH233090   8.109   3.444   3.259
11050TIP3    H133091   8.041   3.407   3.316
11050TIP3    H233092   8.155   3.507   3.314
11051TIP3   OH233093   5.105   0.892   1.293
11051TIP3    H133094   5.154   0.884   1.374
11051TIP3    H233095   5.097   0.802   1.261
11052TIP3   OH233096   0.280   1.515   0.256
11052TIP3    H133097   0.194   1.490   0.290
11052TIP3    H233098   0.266   1.528   0.162
11053TIP3   OH233099   3.249   7.392   6.758
11053TIP3    H133100   3.272   7.377   6.850
11053TIP3    H233101   3.154   7.387   6.755
11054TIP3   OH233102   4.883   4.189   6.275
11054TIP3    H133103   4.802   4.185   6.326
11054TIP3    H233104   4.952   4.171   6.339
11055TIP3   OH233105   0.941   5.120   4.105
11055TIP3    H133106   0.901   5.202   4.135
11055TIP3    H233107   0.887   5.052   4.145
11056TIP3   OH233108   5.145   5.971   6.301
11056TIP3    H133109   5.175   6.042   6.357
11056TIP3    H233110   5.079   6.010   6.244
11057TIP3   OH233111   2.909   6.149   6.333
11057TIP3    H133112   2.922   6.202   6.412
11057TIP3    H233113   2.814   6.148   6.321
11058TIP3   OH233114   5.862   7.259   0.359
11058TIP3    H133115   5.925   7.239   0.428
11058TIP3    H233116   5.898   7.337   0.316
11059TIP3   OH233117   1.322   7.401   5.578
11059TIP3    H133118   1.254   7.460   5.611
11059TIP3    H233119   1.371   7.375   5.656
11060TIP3   OH233120   6.679   0.081   5.394
11060TIP3    H133121   6.733   0.111   5.468
11060TIP3    H233122   6.740   0.075   5.321
11061TIP3   OH233123   5.189   3.016   4.670
11061TIP3    H133124   5.177   2.928   4.704
11061TIP3    H233125   5.255   3.007   4.602
11062TIP3   OH233126   5.769   2.710   2.688
11062TIP3    H133127   5.722   2.676   2.764
11062TIP3    H233128   5.859   2.722   2.718
11063TIP3   OH233129   7.081   4.930   6.153
11063TIP3    H133130   7.103   4.991   6.083
11063TIP3    H233131   6.993   4.955   6.181
11064TIP3   OH233132   6.047   0.864   6.623
11064TIP3    H133133   6.081   0.776   6.638
11064TIP3    H233134   5.973   0.852   6.564
11065TIP3   OH233135   5.253   5.968   1.606
11065TIP3    H133136   5.239   6.055   1.569
11065TIP3    H233137   5.348   5.959   1.611
11066TIP3   OH233138   4.345   2.987   3.390
11066TIP3    H133139   4.321   2.923   3.323
11066TIP3    H233140   4.355   2.935   3.470
11067TIP3   OH233141   2.659   6.676   5.626
11067TIP3    H133142   2.692   6.618   5.558
11067TIP3    H233143   2.590   6.625   5.669
11068TIP3   OH233144   5.418   2.011   6.686
11068TIP3    H133145   5.390   2.092   6.642
11068TIP3    H233146   5.489   1.978   6.631
11069TIP3   OH233147   7.521   0.827  -0.002
11069TIP3    H133148   7.595   0.768   0.007
11069TIP3    H233149   7.532   0.866  -0.089
11070TIP3   OH233150   4.977   7.248   1.952
11070TIP3    H133151   5.059   7.293   1.930
11070TIP3    H233152   4.975   7.246   2.047
11071TIP3   OH233153   4.451   6.485   5.015
11071TIP3    H133154   4.504   6.419   5.060
11071TIP3    H233155   4.371   6.491   5.067
11072TIP3   OH233156   3.281   6.877   4.461
11072TIP3    H133157   3.300   6.909   4.373
11072TIP3    H233158   3.293   6.782   4.455
11073TIP3   OH233159   3.833   6.056   1.815
11073TIP3    H133160   3.785   6.016   1.742
11073TIP3    H233161   3.878   6.131   1.775
11074TIP3   OH233162   0.375   4.173   0.350
11074TIP3    H133163   0.423   4.091   0.346
11074TIP3    H233164   0.290   4.153   0.309
11075TIP3   OH233165   2.366   7.731   6.693
11075TIP3    H133166   2.296   7.666   6.702
11075TIP3    H233167   2.324   7.803   6.645
11076TIP3   OH233168   0.072   7.464   1.800
11076TIP3    H133169  -0.011   7.416   1.791
11076TIP3    H233170   0.097   7.452   1.891
11077TIP3   OH233171   2.070   2.372   5.001
11077TIP3    H133172   2.018   2.325   5.066
11077TIP3    H233173   2.060   2.321   4.920
11078TIP3   OH233174   5.349   2.174   4.170
11078TIP3    H133175   5.388   2.202   4.087
11078TIP3    H233176   5.333   2.081   4.159
11079TIP3   OH233177   3.204   1.775   6.131
11079TIP3    H133178   3.226   1.703   6.072
11079TIP3    H233179   3.185   1.732   6.215
11080TIP3   OH233180   1.129   5.278   3.977
11080TIP3    H133181   1.075   5.205   4.008
11080TIP3    H233182   1.214   5.266   4.020
11081TIP3   OH233183   5.869   1.627   2.510
11081TIP3    H133184   5.918   1.545   2.521
11081TIP3    H233185   5.937   1.694   2.497
11082TIP3   OH233186   5.395   1.016   6.250
11082TIP3    H133187   5.423   1.097   6.293
11082TIP3    H233188   5.402   0.949   6.319
11083TIP3   OH233189   3.198   7.419   0.590
11083TIP3    H133190   3.173   7.347   0.648
11083TIP3    H233191   3.267   7.382   0.535
11084TIP3   OH233192   0.035   4.400   6.350
11084TIP3    H133193   0.115   4.364   6.311
11084TIP3    H233194   0.025   4.485   6.309
11085TIP3   OH233195   6.018   6.666   2.811
11085TIP3    H133196   5.960   6.659   2.736
11085TIP3    H233197   6.095   6.613   2.787
11086TIP3   OH233198   0.544   3.292   1.051
11086TIP3    H133199   0.585   3.229   1.110
11086TIP3    H233200   0.451   3.288   1.071
11087TIP3   OH233201   5.119   6.327   3.326
11087TIP3    H133202   5.038   6.290   3.362
11087TIP3    H233203   5.126   6.413   3.366
11088TIP3   OH233204   4.627   4.072   2.324
11088TIP3    H133205   4.598   4.047   2.411
11088TIP3    H233206   4.690   4.143   2.340
11089TIP3   OH233207   5.609   6.574   4.853
11089TIP3    H133208   5.690   6.553   4.807
11089TIP3    H233209   5.628   6.556   4.945
11090TIP3   OH233210   1.048   1.714   3.613
11090TIP3    H133211   0.994   1.649   3.658
11090TIP3    H233212   1.045   1.688   3.521
11091TIP3   OH233213   0.274   7.472   3.120
11091TIP3    H133214   0.255   7.555   3.077
11091TIP3    H233215   0.321   7.421   3.054
11092TIP3   OH233216   0.716   6.316   5.029
11092TIP3    H133217   0.729   6.330   5.122
11092TIP3    H233218   0.707   6.403   4.992
11093TIP3   OH233219   5.254   2.508   0.247
11093TIP3    H133220   5.247   2.511   0.152
11093TIP3    H233221   5.335   2.557   0.266
11094TIP3   OH233222   3.130   4.402   0.499
11094TIP3    H133223   3.209   4.376   0.452
11094TIP3    H233224   3.085   4.319   0.517
11095TIP3   OH233225   5.304   6.196   2.160
11095TIP3    H133226   5.331   6.224   2.247
11095TIP3    H233227   5.348   6.257   2.101
11096TIP3   OH233228   6.280   5.287   5.771
11096TIP3    H133229   6.355   5.241   5.732
11096TIP3    H233230   6.206   5.228   5.755
11097TIP3   OH233231   2.835   0.287   5.530
11097TIP3    H133232   2.836   0.272   5.624
11097TIP3    H233233   2.757   0.240   5.500
11098TIP3   OH233234   3.397   5.126   4.577
11098TIP3    H133235   3.459   5.146   4.507
11098TIP3    H233236   3.411   5.193   4.643
11099TIP3   OH233237   4.550   0.477   5.615
11099TIP3    H133238   4.630   0.444   5.576
11099TIP3    H233239   4.516   0.404   5.667
11100TIP3   OH233240   0.068   5.481   5.693
11100TIP3    H133241  -0.006   5.541   5.691
11100TIP3    H233242   0.141   5.531   5.657
11101TIP3   OH233243   1.503   0.083   1.540
11101TIP3    H133244   1.482   0.144   1.469
11101TIP3    H233245   1.450   0.005   1.522
11102TIP3   OH233246   6.016   3.329   6.699
11102TIP3    H133247   5.989   3.373   6.618
11102TIP3    H233248   5.988   3.239   6.687
11103TIP3   OH233249   0.091   3.649   0.551
11103TIP3    H133250   0.105   3.740   0.527
11103TIP3    H233251   0.179   3.611   0.552
11104TIP3   OH233252   2.543   6.598   0.956
11104TIP3    H133253   2.567   6.576   1.046
11104TIP3    H233254   2.472   6.662   0.965
11105TIP3   OH233255   8.206   6.028   5.246
11105TIP3    H133256   8.217   6.047   5.153
11105TIP3    H233257   8.159   5.945   5.248
11106TIP3   OH233258   4.702   2.390   1.136
11106TIP3    H133259   4.721   2.456   1.069
11106TIP3    H233260   4.629   2.340   1.100
11107TIP3   OH233261   3.433   5.035   1.427
11107TIP3    H133262   3.527   5.022   1.422
11107TIP3    H233263   3.396   4.953   1.395
11108TIP3   OH233264   2.805   5.671   5.548
11108TIP3    H133265   2.712   5.694   5.540
11108TIP3    H233266   2.842   5.739   5.604
11109TIP3   OH233267   0.759   3.894   5.085
11109TIP3    H133268   0.747   3.804   5.115
11109TIP3    H233269   0.752   3.947   5.165
11110TIP3   OH233270   3.582   5.269   3.439
11110TIP3    H133271   3.656   5.246   3.384
11110TIP3    H233272   3.620   5.294   3.523
11111TIP3   OH233273   2.667   5.365   5.828
11111TIP3    H133274   2.727   5.329   5.893
11111TIP3    H233275   2.657   5.295   5.764
11112TIP3   OH233276   4.816   3.209   2.194
11112TIP3    H133277   4.803   3.271   2.122
11112TIP3    H233278   4.835   3.264   2.270
11113TIP3   OH233279   0.145   6.489   0.594
11113TIP3    H133280   0.147   6.412   0.651
11113TIP3    H233281   0.238   6.513   0.582
11114TIP3   OH233282   3.348   6.906   2.320
11114TIP3    H133283   3.297   6.828   2.297
11114TIP3    H233284   3.286   6.961   2.367
11115TIP3   OH233285   5.199   3.322   0.635
11115TIP3    H133286   5.281   3.292   0.673
11115TIP3    H233287   5.131   3.286   0.691
11116TIP3   OH233288   6.643   1.635   4.140
11116TIP3    H133289   6.554   1.669   4.140
11116TIP3    H233290   6.636   1.548   4.179
11117TIP3   OH233291   3.712   5.083   4.948
11117TIP3    H133292   3.795   5.040   4.970
11117TIP3    H233293   3.739   5.159   4.896
11118TIP3   OH233294   2.083   7.450   1.754
11118TIP3    H133295   2.142   7.375   1.745
11118TIP3    H233296   2.048   7.442   1.843
11119TIP3   OH233297   0.347   1.298   5.379
11119TIP3    H133298   0.270   1.240   5.387
11119TIP3    H233299   0.411   1.245   5.331
11120TIP3   OH233300   3.850   6.311   2.554
11120TIP3    H133301   3.931   6.262   2.571
11120TIP3    H233302   3.833   6.297   2.461
11121TIP3   OH233303   5.194   0.795   0.542
11121TIP3    H133304   5.176   0.722   0.481
11121TIP3    H233305   5.107   0.826   0.568
11122TIP3   OH233306   5.529   1.078   2.847
11122TIP3    H133307   5.484   1.020   2.908
11122TIP3    H233308   5.531   1.029   2.765
11123TIP3   OH233309   5.372   1.067   2.371
11123TIP3    H133310   5.320   1.082   2.292
11123TIP3    H233311   5.313   1.088   2.443
11124TIP3   OH233312   6.648   0.984   2.335
11124TIP3    H133313   6.593   1.006   2.410
11124TIP3    H233314   6.734   1.019   2.358
11125TIP3   OH233315   7.930   3.971   3.526
11125TIP3    H133316   7.980   3.952   3.604
11125TIP3    H233317   7.988   3.949   3.453
11126TIP3   OH233318   3.342   1.367   2.179
11126TIP3    H133319   3.296   1.426   2.119
11126TIP3    H233320   3.289   1.287   2.180
11127TIP3   OH233321   4.908   4.275   1.038
11127TIP3    H133322   4.909   4.215   0.964
11127TIP3    H233323   4.838   4.241   1.095
11128TIP3   OH233324   6.855   1.367   0.908
11128TIP3    H133325   6.924   1.349   0.972
11128TIP3    H233326   6.884   1.445   0.862
11129TIP3   OH233327   1.367   6.556   1.799
11129TIP3    H133328   1.367   6.652   1.796
11129TIP3    H233329   1.355   6.535   1.891
11130TIP3   OH233330   1.737   0.621   1.474
11130TIP3    H133331   1.781   0.705   1.461
11130TIP3    H233332   1.782   0.561   1.415
11131TIP3   OH233333   6.029   6.689   1.519
11131TIP3    H133334   6.086   6.632   1.467
11131TIP3    H233335   6.078   6.704   1.600
11132TIP3   OH233336   1.896   1.764   1.765
11132TIP3    H133337   1.937   1.804   1.689
11132TIP3    H233338   1.921   1.672   1.760
11133TIP3   OH233339   3.281   4.809   1.273
11133TIP3    H133340   3.257   4.772   1.358
11133TIP3    H233341   3.267   4.737   1.211
11134TIP3   OH233342   6.345   1.836   2.809
11134TIP3    H133343   6.325   1.923   2.776
11134TIP3    H233344   6.263   1.787   2.800
11135TIP3   OH233345   4.939   6.065   5.183
11135TIP3    H133346   4.913   6.155   5.161
11135TIP3    H233347   5.016   6.049   5.129
11136TIP3   OH233348   5.706   5.432   5.985
11136TIP3    H133349   5.795   5.461   6.005
11136TIP3    H233350   5.649   5.497   6.027
11137TIP3   OH233351   1.776   1.874   4.931
11137TIP3    H133352   1.731   1.919   4.859
11137TIP3    H233353   1.849   1.829   4.888
11138TIP3   OH233354   0.602   5.185   2.500
11138TIP3    H133355   0.509   5.185   2.520
11138TIP3    H233356   0.618   5.100   2.459
11139TIP3   OH233357   3.090   2.430   5.227
11139TIP3    H133358   3.001   2.463   5.240
11139TIP3    H233359   3.122   2.412   5.316
11140TIP3   OH233360   5.735   6.659   3.763
11140TIP3    H133361   5.648   6.648   3.801
11140TIP3    H233362   5.721   6.648   3.669
11141TIP3   OH233363   3.293   7.278   3.103
11141TIP3    H133364   3.242   7.310   3.028
11141TIP3    H233365   3.367   7.339   3.109
11142TIP3   OH233366   1.693   4.381   0.589
11142TIP3    H133367   1.780   4.356   0.559
11142TIP3    H233368   1.710   4.445   0.659
11143TIP3   OH233369   4.932   4.177   2.197
11143TIP3    H133370   4.875   4.195   2.123
11143TIP3    H233371   4.889   4.218   2.272
11144TIP3   OH233372   5.222   1.713   6.670
11144TIP3    H133373   5.259   1.693   6.756
11144TIP3    H233374   5.227   1.809   6.663
11145TIP3   OH233375   2.279   4.687   5.064
11145TIP3    H133376   2.206   4.630   5.087
11145TIP3    H233377   2.248   4.738   4.990
11146TIP3   OH233378   1.434   5.951   4.930
11146TIP3    H133379   1.366   5.925   4.993
11146TIP3    H233380   1.448   6.044   4.949
11147TIP3   OH233381   3.642   2.639   2.749
11147TIP3    H133382   3.669   2.693   2.675
11147TIP3    H233383   3.656   2.695   2.826
11148TIP3   OH233384   7.452   5.155   5.154
11148TIP3    H133385   7.439   5.224   5.219
11148TIP3    H233386   7.546   5.140   5.152
11149TIP3   OH233387   4.317   2.145   2.483
11149TIP3    H133388   4.270   2.097   2.552
11149TIP3    H233389   4.408   2.115   2.491
11150TIP3   OH233390   5.212   4.260   1.404
11150TIP3    H133391   5.147   4.199   1.438
11150TIP3    H233392   5.178   4.287   1.319
11151TIP3   OH233393   3.265   3.766   6.047
11151TIP3    H133394   3.319   3.719   5.982
11151TIP3    H233395   3.269   3.711   6.125
11152TIP3   OH233396   3.187   4.987   6.119
11152TIP3    H133397   3.114   4.939   6.158
11152TIP3    H233398   3.256   4.921   6.107
11153TIP3   OH233399   1.524   0.099   1.868
11153TIP3    H133400   1.443   0.080   1.914
11153TIP3    H233401   1.582   0.026   1.889
11154TIP3   OH233402   1.555   5.007   4.304
11154TIP3    H133403   1.573   5.079   4.364
11154TIP3    H233404   1.470   4.973   4.333
11155TIP3   OH233405   1.843   6.296   1.222
11155TIP3    H133406   1.750   6.299   1.199
11155TIP3    H233407   1.852   6.359   1.294
11156TIP3   OH233408   2.120   5.836   6.583
11156TIP3    H133409   2.035   5.793   6.575
11156TIP3    H233410   2.146   5.821   6.674
11157TIP3   OH233411   3.579   0.568   0.427
11157TIP3    H133412   3.650   0.515   0.390
11157TIP3    H233413   3.602   0.658   0.406
11158TIP3   OH233414   7.067   7.089   4.773
11158TIP3    H133415   7.064   7.052   4.685
11158TIP3    H233416   7.038   7.180   4.762
11159TIP3   OH233417   0.686   7.480   1.916
11159TIP3    H133418   0.708   7.507   2.005
11159TIP3    H233419   0.596   7.448   1.922
11160TIP3   OH233420   5.325   5.335   2.541
11160TIP3    H133421   5.375   5.324   2.460
11160TIP3    H233422   5.254   5.395   2.518
11161TIP3   OH233423   5.736   1.457   5.250
11161TIP3    H133424   5.732   1.452   5.155
11161TIP3    H233425   5.649   1.485   5.277
11162TIP3   OH233426   2.606   5.133   2.193
11162TIP3    H133427   2.522   5.106   2.231
11162TIP3    H233428   2.595   5.226   2.174
11163TIP3   OH233429   8.098   5.826   2.101
11163TIP3    H133430   8.024   5.887   2.100
11163TIP3    H233431   8.087   5.774   2.022
11164TIP3   OH233432   0.692   4.070   5.899
11164TIP3    H133433   0.738   4.008   5.956
11164TIP3    H233434   0.605   4.031   5.886
11165TIP3   OH233435   1.860   5.303   1.092
11165TIP3    H133436   1.883   5.327   1.182
11165TIP3    H233437   1.824   5.383   1.054
11166TIP3   OH233438   1.073   3.154   2.320
11166TIP3    H133439   1.020   3.208   2.262
11166TIP3    H233440   1.013   3.085   2.350
11167TIP3   OH233441   3.204   5.449   5.610
11167TIP3    H133442   3.118   5.430   5.647
11167TIP3    H233443   3.266   5.402   5.667
11168TIP3   OH233444   3.076   5.049   4.542
11168TIP3    H133445   3.138   4.978   4.556
11168TIP3    H233446   3.083   5.103   4.621
11169TIP3   OH233447   6.869   7.090   6.825
11169TIP3    H133448   6.882   7.011   6.877
11169TIP3    H233449   6.956   7.112   6.792
11170TIP3   OH233450   3.041   2.943   1.152
11170TIP3    H133451   3.026   3.013   1.089
11170TIP3    H233452   3.114   2.973   1.206
11171TIP3   OH233453   2.222   5.450   0.264
11171TIP3    H133454   2.204   5.398   0.343
11171TIP3    H233455   2.225   5.385   0.194
11172TIP3   OH233456   1.629   5.730   0.606
11172TIP3    H133457   1.671   5.647   0.628
11172TIP3    H233458   1.638   5.783   0.686
11173TIP3   OH233459   7.454   5.613   0.206
11173TIP3    H133460   7.473   5.644   0.118
11173TIP3    H233461   7.536   5.576   0.237
11174TIP3   OH233462   6.403   6.659   3.369
11174TIP3    H133463   6.453   6.590   3.414
11174TIP3    H233464   6.470   6.712   3.326
11175TIP3   OH233465   0.245   3.289   0.714
11175TIP3    H133466   0.263   3.213   0.770
11175TIP3    H233467   0.189   3.256   0.645
11176TIP3   OH233468   0.909   1.068   1.143
11176TIP3    H133469   1.005   1.067   1.137
11176TIP3    H233470   0.880   1.056   1.052
11177TIP3   OH233471   4.849   2.757   5.149
11177TIP3    H133472   4.884   2.670   5.170
11177TIP3    H233473   4.921   2.802   5.106
11178TIP3   OH233474   7.146   4.106   0.700
11178TIP3    H133475   7.067   4.135   0.655
11178TIP3    H233476   7.206   4.081   0.630
11179TIP3   OH233477   4.803   3.605   1.098
11179TIP3    H133478   4.890   3.579   1.128
11179TIP3    H233479   4.767   3.654   1.172
11180TIP3   OH233480   1.802   5.447   3.637
11180TIP3    H133481   1.772   5.523   3.589
11180TIP3    H233482   1.867   5.481   3.699
11181TIP3   OH233483   7.599   3.746   5.246
11181TIP3    H133484   7.535   3.705   5.189
11181TIP3    H233485   7.681   3.741   5.198
11182TIP3   OH233486   3.877   7.382   3.825
11182TIP3    H133487   3.794   7.420   3.794
11182TIP3    H233488   3.850   7.305   3.876
11183TIP3   OH233489   3.419   0.692   4.066
11183TIP3    H133490   3.326   0.683   4.043
11183TIP3    H233491   3.421   0.675   4.160
11184TIP3   OH233492   7.349   2.083   4.111
11184TIP3    H133493   7.331   2.021   4.183
11184TIP3    H233494   7.419   2.139   4.144
11185TIP3   OH233495   0.189   5.869  -0.004
11185TIP3    H133496   0.100   5.859  -0.038
11185TIP3    H233497   0.189   5.955   0.038
11186TIP3   OH233498   6.200   0.432   4.847
11186TIP3    H133499   6.242   0.508   4.806
11186TIP3    H233500   6.141   0.398   4.780
11187TIP3   OH233501   5.823   6.255   6.039
11187TIP3    H133502   5.772   6.271   5.959
11187TIP3    H233503   5.816   6.161   6.053
11188TIP3   OH233504   7.822   6.538   0.788
11188TIP3    H133505   7.882   6.581   0.850
11188TIP3    H233506   7.736   6.574   0.809
11189TIP3   OH233507   6.608   7.235   4.322
11189TIP3    H133508   6.654   7.170   4.376
11189TIP3    H233509   6.529   7.255   4.373
11190TIP3   OH233510   5.828   0.653   1.587
11190TIP3    H133511   5.767   0.588   1.623
11190TIP3    H233512   5.779   0.735   1.589
11191TIP3   OH233513   3.571   6.249   1.890
11191TIP3    H133514   3.542   6.165   1.856
11191TIP3    H233515   3.619   6.289   1.817
11192TIP3   OH233516   0.204   1.345   1.586
11192TIP3    H133517   0.257   1.331   1.664
11192TIP3    H233518   0.234   1.278   1.525
11193TIP3   OH233519   1.568   7.942   1.766
11193TIP3    H133520   1.540   7.868   1.819
11193TIP3    H233521   1.632   7.906   1.705
11194TIP3   OH233522   7.094   2.442   5.355
11194TIP3    H133523   7.151   2.366   5.371
11194TIP3    H233524   7.112   2.467   5.264
11195TIP3   OH233525   6.052   4.703   5.607
11195TIP3    H133526   6.029   4.611   5.617
11195TIP3    H233527   6.035   4.723   5.515
11196TIP3   OH233528   6.981   4.802   0.248
11196TIP3    H133529   7.015   4.762   0.167
11196TIP3    H233530   7.037   4.767   0.317
11197TIP3   OH233531   7.741   0.663   6.685
11197TIP3    H133532   7.662   0.709   6.657
11197TIP3    H233533   7.713   0.609   6.759
11198TIP3   OH233534   7.406   2.890   5.387
11198TIP3    H133535   7.406   2.815   5.447
11198TIP3    H233536   7.345   2.865   5.318
11199TIP3   OH233537   8.158   2.110   3.113
11199TIP3    H133538   8.212   2.150   3.181
11199TIP3    H233539   8.136   2.023   3.148
11200TIP3   OH233540   3.480   6.930   3.343
11200TIP3    H133541   3.438   6.868   3.403
11200TIP3    H233542   3.428   6.924   3.263
11201TIP3   OH233543   7.215   5.556   0.547
11201TIP3    H133544   7.236   5.500   0.472
11201TIP3    H233545   7.236   5.502   0.623
11202TIP3   OH233546   4.900   0.372   4.825
11202TIP3    H133547   4.865   0.295   4.869
11202TIP3    H233548   4.825   0.413   4.784
11203TIP3   OH233549   3.946   0.788   3.293
11203TIP3    H133550   3.890   0.749   3.359
11203TIP3    H233551   3.942   0.882   3.311
11204TIP3   OH233552   3.204   5.434   2.853
11204TIP3    H133553   3.169   5.365   2.796
11204TIP3    H233554   3.171   5.515   2.815
11205TIP3   OH233555   2.353   7.830   5.315
11205TIP3    H133556   2.305   7.826   5.232
11205TIP3    H233557   2.421   7.895   5.300
11206TIP3   OH233558   4.144   7.767   0.738
11206TIP3    H133559   4.150   7.686   0.687
11206TIP3    H233560   4.223   7.768   0.791
11207TIP3   OH233561   1.952   2.651   5.618
11207TIP3    H133562   1.998   2.732   5.638
11207TIP3    H233563   1.891   2.675   5.547
11208TIP3   OH233564   5.814   5.457   1.773
11208TIP3    H133565   5.755   5.532   1.783
11208TIP3    H233566   5.820   5.420   1.862
11209TIP3   OH233567   0.601   1.410   0.901
11209TIP3    H133568   0.631   1.326   0.937
11209TIP3    H233569   0.508   1.397   0.882
11210TIP3   OH233570   2.449   2.063   6.591
11210TIP3    H133571   2.446   2.106   6.677
11210TIP3    H233572   2.362   2.076   6.555
11211TIP3   OH233573   3.201   4.779   4.890
11211TIP3    H133574   3.109   4.758   4.909
11211TIP3    H233575   3.225   4.844   4.955
11212TIP3   OH233576   3.409   4.213   1.018
11212TIP3    H133577   3.415   4.177   0.929
11212TIP3    H233578   3.499   4.209   1.051
11213TIP3   OH233579   0.566   3.696   4.934
11213TIP3    H133580   0.641   3.686   4.876
11213TIP3    H233581   0.604   3.706   5.021
11214TIP3   OH233582   4.456   6.492   2.697
11214TIP3    H133583   4.426   6.579   2.671
11214TIP3    H233584   4.376   6.446   2.724
11215TIP3   OH233585   3.963   6.497   4.537
11215TIP3    H133586   3.882   6.543   4.557
11215TIP3    H233587   4.025   6.567   4.513
11216TIP3   OH233588   7.065   0.830   3.705
11216TIP3    H133589   7.010   0.902   3.675
11216TIP3    H233590   7.081   0.849   3.798
11217TIP3   OH233591   0.623   1.732   1.208
11217TIP3    H133592   0.619   1.694   1.296
11217TIP3    H233593   0.698   1.689   1.167
11218TIP3   OH233594   2.438   5.236   1.784
11218TIP3    H133595   2.400   5.249   1.697
11218TIP3    H233596   2.414   5.146   1.807
11219TIP3   OH233597   4.196   1.516   3.607
11219TIP3    H133598   4.111   1.509   3.650
11219TIP3    H233599   4.239   1.589   3.651
11220TIP3   OH233600   0.443   3.545   4.109
11220TIP3    H133601   0.434   3.450   4.116
11220TIP3    H233602   0.523   3.566   4.157
11221TIP3   OH233603   3.392   7.493   6.422
11221TIP3    H133604   3.466   7.519   6.367
11221TIP3    H233605   3.420   7.411   6.463
11222TIP3   OH233606   0.628   5.331   5.576
11222TIP3    H133607   0.693   5.399   5.561
11222TIP3    H233608   0.656   5.288   5.656
11223TIP3   OH233609   0.418   7.519   0.268
11223TIP3    H133610   0.428   7.567   0.350
11223TIP3    H233611   0.385   7.583   0.206
11224TIP3   OH233612   5.257   2.107   5.016
11224TIP3    H133613   5.321   2.046   5.053
11224TIP3    H233614   5.183   2.052   4.992
11225TIP3   OH233615   5.091   3.404   6.508
11225TIP3    H133616   4.995   3.394   6.510
11225TIP3    H233617   5.124   3.314   6.510
11226TIP3   OH233618   7.748   6.095   0.896
11226TIP3    H133619   7.675   6.082   0.835
11226TIP3    H233620   7.774   6.007   0.922
11227TIP3   OH233621   7.910   1.228   1.452
11227TIP3    H133622   7.874   1.157   1.506
11227TIP3    H233623   8.001   1.235   1.480
11228TIP3   OH233624   6.286   4.512   3.888
11228TIP3    H133625   6.247   4.426   3.900
11228TIP3    H233626   6.213   4.568   3.859
11229TIP3   OH233627   3.918   7.578   6.035
11229TIP3    H133628   3.901   7.618   5.949
11229TIP3    H233629   3.952   7.491   6.015
11230TIP3   OH233630   8.125   5.443   4.420
11230TIP3    H133631   8.072   5.501   4.367
11230TIP3    H233632   8.183   5.399   4.357
11231TIP3   OH233633   1.303   4.170   2.955
11231TIP3    H133634   1.236   4.224   2.912
11231TIP3    H233635   1.287   4.081   2.923
11232TIP3   OH233636   7.254   0.378   6.542
11232TIP3    H133637   7.222   0.421   6.622
11232TIP3    H233638   7.192   0.308   6.525
11233TIP3   OH233639   7.737   0.345   0.868
11233TIP3    H133640   7.829   0.352   0.844
11233TIP3    H233641   7.707   0.435   0.878
11234TIP3   OH233642   1.272   3.715   6.205
11234TIP3    H133643   1.231   3.798   6.181
11234TIP3    H233644   1.364   3.737   6.219
11235TIP3   OH233645   1.718   6.167   2.982
11235TIP3    H133646   1.680   6.218   2.911
11235TIP3    H233647   1.785   6.113   2.941
11236TIP3   OH233648   3.454   2.188   0.869
11236TIP3    H133649   3.418   2.142   0.945
11236TIP3    H233650   3.523   2.244   0.905
11237TIP3   OH233651   7.400   5.649   2.058
11237TIP3    H133652   7.400   5.744   2.070
11237TIP3    H233653   7.489   5.622   2.079
11238TIP3   OH233654   2.715   0.969   3.455
11238TIP3    H133655   2.801   0.995   3.422
11238TIP3    H233656   2.655   1.032   3.417
11239TIP3   OH233657   4.557   6.206   3.453
11239TIP3    H133658   4.638   6.189   3.405
11239TIP3    H233659   4.584   6.253   3.532
11240TIP3   OH233660   8.416   4.847   3.197
11240TIP3    H133661   8.444   4.786   3.129
11240TIP3    H233662   8.326   4.869   3.175
11241TIP3   OH233663   4.424   6.777   5.097
11241TIP3    H133664   4.363   6.715   5.059
11241TIP3    H233665   4.491   6.789   5.030
11242TIP3   OH233666   7.576   3.740   0.970
11242TIP3    H133667   7.667   3.713   0.980
11242TIP3    H233668   7.574   3.784   0.885
11243TIP3   OH233669   3.239   5.093   5.514
11243TIP3    H133670   3.252   5.108   5.420
11243TIP3    H233671   3.214   5.001   5.520
11244TIP3   OH233672   1.123   5.172   2.956
11244TIP3    H133673   1.201   5.153   2.904
11244TIP3    H233674   1.128   5.266   2.973
11245TIP3   OH233675   2.360   7.458   1.987
11245TIP3    H133676   2.373   7.430   1.896
11245TIP3    H233677   2.431   7.417   2.035
11246TIP3   OH233678   3.236   0.785   4.552
11246TIP3    H133679   3.157   0.810   4.503
11246TIP3    H233680   3.209   0.708   4.603
11247TIP3   OH233681   6.757   0.787   6.664
11247TIP3    H133682   6.729   0.839   6.739
11247TIP3    H233683   6.835   0.831   6.631
11248TIP3   OH233684   8.353   3.431   0.067
11248TIP3    H133685   8.388   3.407   0.153
11248TIP3    H233686   8.263   3.461   0.086
11249TIP3   OH233687   6.677   1.259   1.241
11249TIP3    H133688   6.727   1.236   1.320
11249TIP3    H233689   6.608   1.193   1.236
11250TIP3   OH233690   5.452   4.550   1.056
11250TIP3    H133691   5.525   4.530   1.114
11250TIP3    H233692   5.375   4.516   1.100
11251TIP3   OH233693   5.479   2.268   6.611
11251TIP3    H133694   5.572   2.244   6.609
11251TIP3    H233695   5.478   2.354   6.653
11252TIP3   OH233696   2.279   3.364   6.304
11252TIP3    H133697   2.317   3.376   6.391
11252TIP3    H233698   2.342   3.404   6.244
11253TIP3   OH233699   6.140   6.704   1.785
11253TIP3    H133700   6.103   6.622   1.818
11253TIP3    H233701   6.169   6.750   1.864
11254TIP3   OH233702   8.088   4.067   1.174
11254TIP3    H133703   8.025   4.131   1.141
11254TIP3    H233704   8.056   3.983   1.140
11255TIP3   OH233705   7.535   5.009   5.558
11255TIP3    H133706   7.598   4.991   5.628
11255TIP3    H233707   7.458   4.958   5.581
11256TIP3   OH233708   2.706   4.736   1.150
11256TIP3    H133709   2.722   4.744   1.244
11256TIP3    H233710   2.788   4.701   1.114
11257TIP3   OH233711   3.989   1.831   3.948
11257TIP3    H133712   3.966   1.908   3.896
11257TIP3    H233713   3.938   1.760   3.910
11258TIP3   OH233714   3.109   1.058   6.499
11258TIP3    H133715   3.196   1.020   6.513
11258TIP3    H233716   3.049   0.986   6.516
11259TIP3   OH233717   6.197   1.718   3.613
11259TIP3    H133718   6.186   1.813   3.610
11259TIP3    H233719   6.236   1.696   3.528
11260TIP3   OH233720   6.577   6.180   4.143
11260TIP3    H133721   6.581   6.121   4.218
11260TIP3    H233722   6.667   6.180   4.109
11261TIP3   OH233723   1.360   4.499   4.152
11261TIP3    H133724   1.304   4.526   4.225
11261TIP3    H233725   1.432   4.561   4.152
11262TIP3   OH233726   8.055   7.342   5.666
11262TIP3    H133727   7.976   7.370   5.619
11262TIP3    H233728   8.047   7.247   5.672
11263TIP3   OH233729   6.750   7.237   0.003
11263TIP3    H133730   6.757   7.175   0.076
11263TIP3    H233731   6.786   7.191  -0.072
11264TIP3   OH233732   5.691   4.036   2.825
11264TIP3    H133733   5.684   3.975   2.752
11264TIP3    H233734   5.673   4.122   2.787
11265TIP3   OH233735   2.563   7.310   2.122
11265TIP3    H133736   2.549   7.301   2.216
11265TIP3    H233737   2.546   7.222   2.087
11266TIP3   OH233738   0.954   3.719   1.320
11266TIP3    H133739   0.863   3.688   1.314
11266TIP3    H233740   0.998   3.654   1.376
11267TIP3   OH233741   3.839   5.121   2.850
11267TIP3    H133742   3.921   5.162   2.877
11267TIP3    H233743   3.784   5.195   2.823
11268TIP3   OH233744   3.625   2.156   4.951
11268TIP3    H133745   3.703   2.176   5.003
11268TIP3    H233746   3.647   2.187   4.863
11269TIP3   OH233747   7.841   3.735   3.165
11269TIP3    H133748   7.910   3.741   3.098
11269TIP3    H233749   7.810   3.645   3.159
11270TIP3   OH233750   6.124   0.360   1.309
11270TIP3    H133751   6.084   0.376   1.394
11270TIP3    H233752   6.068   0.408   1.247
11271TIP3   OH233753   4.807   7.515   2.664
11271TIP3    H133754   4.723   7.529   2.707
11271TIP3    H233755   4.821   7.595   2.612
11272TIP3   OH233756   2.445   4.324   2.337
11272TIP3    H133757   2.474   4.247   2.288
11272TIP3    H233758   2.454   4.397   2.275
11273TIP3   OH233759   3.288   3.155   0.433
11273TIP3    H133760   3.256   3.166   0.343
11273TIP3    H233761   3.356   3.088   0.427
11274TIP3   OH233762   4.073   0.043   5.712
11274TIP3    H133763   4.143   0.108   5.711
11274TIP3    H233764   4.101  -0.021   5.779
11275TIP3   OH233765   5.698   6.845   3.004
11275TIP3    H133766   5.772   6.792   3.034
11275TIP3    H233767   5.737   6.908   2.944
11276TIP3   OH233768   5.738   3.016   5.084
11276TIP3    H133769   5.648   2.984   5.079
11276TIP3    H233770   5.792   2.940   5.061
11277TIP3   OH233771   2.909   6.551   6.204
11277TIP3    H133772   2.958   6.493   6.145
11277TIP3    H233773   2.974   6.580   6.268
11278TIP3   OH233774   4.118   0.618   5.279
11278TIP3    H133775   4.092   0.566   5.202
11278TIP3    H233776   4.213   0.626   5.272
11279TIP3   OH233777   2.607   6.728   5.298
11279TIP3    H133778   2.670   6.666   5.332
11279TIP3    H233779   2.522   6.687   5.315
11280TIP3   OH233780   0.999   6.049   4.698
11280TIP3    H133781   1.030   6.138   4.711
11280TIP3    H233782   0.919   6.058   4.647
11281TIP3   OH233783   6.773   1.209   1.503
11281TIP3    H133784   6.678   1.197   1.499
11281TIP3    H233785   6.787   1.260   1.583
11282TIP3   OH233786   7.384   6.770   1.151
11282TIP3    H133787   7.473   6.752   1.119
11282TIP3    H233788   7.388   6.752   1.244
11283TIP3   OH233789   4.129   6.089   5.473
11283TIP3    H133790   4.117   6.005   5.429
11283TIP3    H233791   4.042   6.129   5.471
11284TIP3   OH233792   5.966   7.252   6.622
11284TIP3    H133793   5.896   7.238   6.686
11284TIP3    H233794   5.932   7.319   6.564
11285TIP3   OH233795   2.398   0.712   3.831
11285TIP3    H133796   2.460   0.767   3.783
11285TIP3    H233797   2.323   0.704   3.772
11286TIP3   OH233798   3.303   3.769   2.874
11286TIP3    H133799   3.374   3.705   2.871
11286TIP3    H233800   3.322   3.822   2.952
11287TIP3   OH233801   2.322   7.735   2.873
11287TIP3    H133802   2.239   7.691   2.890
11287TIP3    H233803   2.375   7.670   2.828
11288TIP3   OH233804   2.564   2.635   6.207
11288TIP3    H133805   2.499   2.662   6.142
11288TIP3    H233806   2.522   2.651   6.291
11289TIP3   OH233807   7.846   6.797   0.583
11289TIP3    H133808   7.829   6.858   0.654
11289TIP3    H233809   7.923   6.748   0.611
11290TIP3   OH233810   0.904   4.061   3.167
11290TIP3    H133811   0.819   4.073   3.209
11290TIP3    H233812   0.884   4.022   3.082
11291TIP3   OH233813   2.462   5.179   4.392
11291TIP3    H133814   2.371   5.207   4.383
11291TIP3    H233815   2.485   5.142   4.307
11292TIP3   OH233816   6.704   7.650   3.454
11292TIP3    H133817   6.646   7.663   3.379
11292TIP3    H233818   6.690   7.727   3.509
11293TIP3   OH233819   8.056   6.044   3.295
11293TIP3    H133820   7.991   6.068   3.360
11293TIP3    H233821   8.135   6.025   3.346
11294TIP3   OH233822   1.266   0.142   4.412
11294TIP3    H133823   1.210   0.066   4.402
11294TIP3    H233824   1.304   0.133   4.499
11295TIP3   OH233825   4.332   0.932   3.390
11295TIP3    H133826   4.356   0.981   3.468
11295TIP3    H233827   4.378   0.849   3.398
11296TIP3   OH233828   3.148   0.899   0.080
11296TIP3    H133829   3.230   0.931   0.043
11296TIP3    H233830   3.146   0.937   0.168
11297TIP3   OH233831   1.009   7.172   0.493
11297TIP3    H133832   1.087   7.144   0.540
11297TIP3    H233833   0.985   7.255   0.534
11298TIP3   OH233834   1.596   3.737   0.096
11298TIP3    H133835   1.532   3.755   0.027
11298TIP3    H233836   1.666   3.690   0.051
11299TIP3   OH233837   1.897   3.050   4.180
11299TIP3    H133838   1.860   3.091   4.259
11299TIP3    H233839   1.905   3.122   4.118
11300TIP3   OH233840   1.429   3.523   0.138
11300TIP3    H133841   1.490   3.596   0.151
11300TIP3    H233842   1.353   3.564   0.097
11301TIP3   OH233843   2.935   4.787   6.719
11301TIP3    H133844   2.902   4.782   6.809
11301TIP3    H233845   2.959   4.879   6.707
11302TIP3   OH233846   7.487   0.009   1.293
11302TIP3    H133847   7.505   0.048   1.208
11302TIP3    H233848   7.535  -0.074   1.293
11303TIP3   OH233849   7.946   3.366   6.477
11303TIP3    H133850   8.031   3.409   6.486
11303TIP3    H233851   7.882   3.436   6.492
11304TIP3   OH233852   8.150   1.430   1.150
11304TIP3    H133853   8.193   1.347   1.172
11304TIP3    H233854   8.138   1.473   1.235
11305TIP3   OH233855   0.148   1.720   1.314
11305TIP3    H133856   0.164   1.723   1.220
11305TIP3    H233857   0.198   1.644   1.344
11306TIP3   OH233858   1.458   1.265   5.609
11306TIP3    H133859   1.466   1.237   5.518
11306TIP3    H233860   1.368   1.241   5.634
11307TIP3   OH233861   5.307   1.491   2.092
11307TIP3    H133862   5.232   1.532   2.135
11307TIP3    H233863   5.378   1.556   2.101
11308TIP3   OH233864   1.169   2.292   1.956
11308TIP3    H133865   1.235   2.359   1.974
11308TIP3    H233866   1.120   2.326   1.882
11309TIP3   OH233867   4.814   7.086   1.740
11309TIP3    H133868   4.739   7.037   1.774
11309TIP3    H233869   4.839   7.039   1.661
11310TIP3   OH233870   0.344   2.415   3.503
11310TIP3    H133871   0.335   2.509   3.493
11310TIP3    H233872   0.272   2.390   3.561
11311TIP3   OH233873   2.337   7.141   1.867
11311TIP3    H133874   2.357   7.231   1.840
11311TIP3    H233875   2.386   7.086   1.805
11312TIP3   OH233876   5.650   7.824   1.876
11312TIP3    H133877   5.571   7.864   1.839
11312TIP3    H233878   5.629   7.812   1.968
11313TIP3   OH233879   1.162   4.161   2.590
11313TIP3    H133880   1.085   4.122   2.630
11313TIP3    H233881   1.150   4.255   2.603
11314TIP3   OH233882   4.469   1.485   4.457
11314TIP3    H133883   4.523   1.446   4.388
11314TIP3    H233884   4.528   1.543   4.504
11315TIP3   OH233885   7.124   7.800   3.524
11315TIP3    H133886   7.083   7.823   3.441
11315TIP3    H233887   7.126   7.705   3.525
11316TIP3   OH233888   7.878   5.940   5.387
11316TIP3    H133889   7.961   5.894   5.378
11316TIP3    H233890   7.835   5.899   5.462
11317TIP3   OH233891   7.449   1.976   6.625
11317TIP3    H133892   7.490   1.925   6.555
11317TIP3    H233893   7.402   2.045   6.579
11318TIP3   OH233894   6.986   4.915   2.491
11318TIP3    H133895   6.928   4.848   2.455
11318TIP3    H233896   7.028   4.873   2.566
11319TIP3   OH233897   7.764   6.259   2.563
11319TIP3    H133898   7.730   6.327   2.506
11319TIP3    H233899   7.780   6.303   2.647
11320TIP3   OH233900   5.769   2.146   4.597
11320TIP3    H133901   5.842   2.087   4.615
11320TIP3    H233902   5.707   2.093   4.546
11321TIP3   OH233903   8.351   3.025   6.301
11321TIP3    H133904   8.315   3.065   6.381
11321TIP3    H233905   8.277   3.023   6.240
11322TIP3   OH233906   6.501   6.036   4.932
11322TIP3    H133907   6.455   6.118   4.948
11322TIP3    H233908   6.551   6.052   4.852
11323TIP3   OH233909   5.316   5.913   3.198
11323TIP3    H133910   5.356   5.872   3.274
11323TIP3    H233911   5.387   5.962   3.156
11324TIP3   OH233912   8.363   1.548   6.668
11324TIP3    H133913   8.424   1.477   6.687
11324TIP3    H233914   8.360   1.600   6.748
11325TIP3   OH233915   0.680   5.610   2.486
11325TIP3    H133916   0.705   5.693   2.445
11325TIP3    H233917   0.720   5.612   2.572
11326TIP3   OH233918   3.351   1.695   4.933
11326TIP3    H133919   3.436   1.652   4.931
11326TIP3    H233920   3.364   1.775   4.882
11327TIP3   OH233921   4.681   0.587   6.588
11327TIP3    H133922   4.627   0.521   6.630
11327TIP3    H233923   4.754   0.539   6.550
11328TIP3   OH233924   4.693   6.789   6.648
11328TIP3    H133925   4.624   6.790   6.715
11328TIP3    H233926   4.774   6.806   6.696
11329TIP3   OH233927   5.267   5.129   2.732
11329TIP3    H133928   5.310   5.048   2.706
11329TIP3    H233929   5.313   5.197   2.682
11330TIP3   OH233930   1.869   5.601   1.019
11330TIP3    H133931   1.899   5.605   1.110
11330TIP3    H233932   1.916   5.672   0.975
11331TIP3   OH233933   8.252   4.091   2.276
11331TIP3    H133934   8.322   4.106   2.339
11331TIP3    H233935   8.212   4.009   2.304
11332TIP3   OH233936   4.981   6.147   6.105
11332TIP3    H133937   4.893   6.177   6.126
11332TIP3    H233938   5.020   6.220   6.057
11333TIP3   OH233939   0.409   7.629   0.567
11333TIP3    H133940   0.377   7.554   0.617
11333TIP3    H233941   0.329   7.673   0.537
11334TIP3   OH233942   3.829   5.513   0.918
11334TIP3    H133943   3.784   5.430   0.932
11334TIP3    H233944   3.871   5.532   1.001
11335TIP3   OH233945   0.606   3.005   4.571
11335TIP3    H133946   0.583   2.943   4.640
11335TIP3    H233947   0.677   2.963   4.523
11336TIP3   OH233948   0.757   6.612   0.538
11336TIP3    H133949   0.831   6.580   0.590
11336TIP3    H233950   0.764   6.707   0.543
11337TIP3   OH233951   0.831   2.210   5.921
11337TIP3    H133952   0.842   2.247   6.008
11337TIP3    H233953   0.884   2.131   5.922
11338TIP3   OH233954   6.492   6.103   2.359
11338TIP3    H133955   6.567   6.161   2.376
11338TIP3    H233956   6.509   6.066   2.273
11339TIP3   OH233957   3.670   4.462   6.335
11339TIP3    H133958   3.658   4.443   6.242
11339TIP3    H233959   3.597   4.417   6.378
11340TIP3   OH233960   0.670   2.360   0.169
11340TIP3    H133961   0.747   2.356   0.112
11340TIP3    H233962   0.685   2.291   0.234
11341TIP3   OH233963   7.924   4.677   0.430
11341TIP3    H133964   8.016   4.653   0.419
11341TIP3    H233965   7.876   4.603   0.393
11342TIP3   OH233966   7.453   0.152   2.932
11342TIP3    H133967   7.522   0.208   2.969
11342TIP3    H233968   7.489   0.121   2.849
11343TIP3   OH233969   1.940   7.007   1.237
11343TIP3    H133970   1.993   6.985   1.314
11343TIP3    H233971   1.990   7.076   1.193
11344TIP3   OH233972   7.120   4.202   5.069
11344TIP3    H133973   7.112   4.215   4.974
11344TIP3    H233974   7.040   4.156   5.094
11345TIP3   OH233975   3.703   0.745   0.107
11345TIP3    H133976   3.662   0.784   0.029
11345TIP3    H233977   3.760   0.677   0.072
11346TIP3   OH233978   7.563   6.765   5.403
11346TIP3    H133979   7.653   6.734   5.413
11346TIP3    H233980   7.560   6.846   5.454
11347TIP3   OH233981   1.149   2.616   1.119
11347TIP3    H133982   1.240   2.600   1.145
11347TIP3    H233983   1.109   2.657   1.195
11348TIP3   OH233984   7.283   3.579   2.462
11348TIP3    H133985   7.348   3.643   2.494
11348TIP3    H233986   7.229   3.561   2.539
11349TIP3   OH233987   0.031   4.709   4.181
11349TIP3    H133988   0.042   4.735   4.090
11349TIP3    H233989  -0.064   4.711   4.195
11350TIP3   OH233990   3.157   5.504   0.987
11350TIP3    H133991   3.233   5.487   0.932
11350TIP3    H233992   3.121   5.418   1.007
11351TIP3   OH233993   6.729   3.947   5.278
11351TIP3    H133994   6.773   4.010   5.221
11351TIP3    H233995   6.690   3.884   5.217
11352TIP3   OH233996   1.924   4.790   6.388
11352TIP3    H133997   1.943   4.696   6.396
11352TIP3    H233998   2.000   4.833   6.428
11353TIP3   OH233999   2.279   1.005   0.893
11353TIP3    H134000   2.351   1.001   0.956
11353TIP3    H234001   2.247   0.915   0.888
11354TIP3   OH234002   5.415   7.548   0.376
11354TIP3    H134003   5.509   7.530   0.368
11354TIP3    H234004   5.396   7.608   0.305
11355TIP3   OH234005   2.787   2.629   6.497
11355TIP3    H134006   2.696   2.659   6.486
11355TIP3    H234007   2.779   2.546   6.545
11356TIP3   OH234008   7.555   2.801   3.157
11356TIP3    H134009   7.628   2.752   3.194
11356TIP3    H234010   7.493   2.733   3.127
11357TIP3   OH234011   8.090   3.808   4.724
11357TIP3    H134012   8.068   3.763   4.806
11357TIP3    H234013   8.163   3.866   4.748
11358TIP3   OH234014   8.129   5.309   2.114
11358TIP3    H134015   8.035   5.308   2.099
11358TIP3    H234016   8.162   5.237   2.061
11359TIP3   OH234017   4.960   5.190   4.268
11359TIP3    H134018   4.970   5.198   4.363
11359TIP3    H234019   4.898   5.117   4.257
11360TIP3   OH234020   8.419   1.197   1.313
11360TIP3    H134021   8.413   1.190   1.218
11360TIP3    H234022   8.506   1.164   1.334
11361TIP3   OH234023   3.172   4.329   0.849
11361TIP3    H134024   3.093   4.291   0.888
11361TIP3    H234025   3.234   4.335   0.921
11362TIP3   OH234026   5.297   6.608   5.428
11362TIP3    H134027   5.310   6.513   5.434
11362TIP3    H234028   5.255   6.621   5.343
11363TIP3   OH234029  -0.041   7.243   3.684
11363TIP3    H134030   0.043   7.223   3.725
11363TIP3    H234031  -0.017   7.282   3.600
11364TIP3   OH234032   4.499   6.609   3.846
11364TIP3    H134033   4.567   6.576   3.905
11364TIP3    H234034   4.506   6.704   3.853
11365TIP3   OH234035   3.196   2.356   0.832
11365TIP3    H134036   3.239   2.283   0.788
11365TIP3    H234037   3.177   2.324   0.920
11366TIP3   OH234038   3.053   4.949   2.414
11366TIP3    H134039   2.961   4.948   2.386
11366TIP3    H234040   3.097   4.890   2.353
11367TIP3   OH234041   5.092   5.609   1.948
11367TIP3    H134042   5.111   5.686   1.894
11367TIP3    H234043   5.003   5.585   1.922
11368TIP3   OH234044   4.185   4.294   6.710
11368TIP3    H134045   4.167   4.357   6.641
11368TIP3    H234046   4.199   4.211   6.664
11369TIP3   OH234047   0.742   0.794   4.597
11369TIP3    H134048   0.773   0.828   4.682
11369TIP3    H234049   0.793   0.713   4.584
11370TIP3   OH234050   4.249   2.224   4.675
11370TIP3    H134051   4.306   2.264   4.741
11370TIP3    H234052   4.255   2.130   4.692
11371TIP3   OH234053   3.513   1.489   0.390
11371TIP3    H134054   3.446   1.542   0.432
11371TIP3    H234055   3.593   1.541   0.396
11372TIP3   OH234056   6.589   2.802   0.269
11372TIP3    H134057   6.560   2.712   0.255
11372TIP3    H234058   6.661   2.794   0.333
11373TIP3   OH234059   7.460   5.916   1.794
11373TIP3    H134060   7.517   5.950   1.863
11373TIP3    H234061   7.502   5.836   1.764
11374TIP3   OH234062   3.512   6.818   1.706
11374TIP3    H134063   3.472   6.881   1.767
11374TIP3    H234064   3.483   6.733   1.738
11375TIP3   OH234065   3.043   5.005   1.635
11375TIP3    H134066   3.051   4.910   1.649
11375TIP3    H234067   2.961   5.028   1.678
11376TIP3   OH234068   1.472   4.418   5.422
11376TIP3    H134069   1.503   4.328   5.415
11376TIP3    H234070   1.437   4.425   5.511
11377TIP3   OH234071   2.292   2.924   6.502
11377TIP3    H134072   2.259   2.995   6.558
11377TIP3    H234073   2.366   2.962   6.455
11378TIP3   OH234074   3.857   6.857   2.991
11378TIP3    H134075   3.800   6.852   3.068
11378TIP3    H234076   3.798   6.880   2.919
11379TIP3   OH234077   0.152   7.004   3.940
11379TIP3    H134078   0.207   6.944   3.989
11379TIP3    H234079   0.085   7.032   4.002
11380TIP3   OH234080   3.793   1.742   6.002
11380TIP3    H134081   3.848   1.736   6.080
11380TIP3    H234082   3.783   1.836   5.987
11381TIP3   OH234083   3.682   2.067   5.547
11381TIP3    H134084   3.746   2.063   5.476
11381TIP3    H234085   3.736   2.060   5.627
11382TIP3   OH234086   7.873   7.547   1.970
11382TIP3    H134087   7.937   7.607   2.008
11382TIP3    H234088   7.801   7.545   2.033
11383TIP3   OH234089   0.582   1.017   4.238
11383TIP3    H134090   0.563   1.069   4.316
11383TIP3    H234091   0.621   0.936   4.272
11384TIP3   OH234092   7.637   6.075   2.358
11384TIP3    H134093   7.684   6.158   2.372
11384TIP3    H234094   7.621   6.042   2.447
11385TIP3   OH234095   3.634   4.903   4.001
11385TIP3    H134096   3.682   4.825   3.972
11385TIP3    H234097   3.547   4.870   4.022
11386TIP3   OH234098   5.679   7.845   1.588
11386TIP3    H134099   5.717   7.862   1.502
11386TIP3    H234100   5.744   7.877   1.650
11387TIP3   OH234101   3.124   5.998   1.327
11387TIP3    H134102   3.207   5.983   1.372
11387TIP3    H234103   3.057   5.974   1.392
11388TIP3   OH234104   2.455   0.658   1.997
11388TIP3    H134105   2.369   0.677   1.960
11388TIP3    H234106   2.512   0.727   1.961
11389TIP3   OH234107   3.887   0.259   1.032
11389TIP3    H134108   3.946   0.310   1.088
11389TIP3    H234109   3.805   0.308   1.030
11390TIP3   OH234110   8.303   1.444   3.880
11390TIP3    H134111   8.259   1.510   3.932
11390TIP3    H234112   8.266   1.361   3.910
11391TIP3   OH234113   6.536   5.193   5.650
11391TIP3    H134114   6.509   5.189   5.559
11391TIP3    H234115   6.571   5.106   5.669
11392TIP3   OH234116   1.916   2.560   1.912
11392TIP3    H134117   1.966   2.641   1.912
11392TIP3    H234118   1.879   2.554   1.823
11393TIP3   OH234119   6.985   5.336   6.707
11393TIP3    H134120   6.994   5.242   6.726
11393TIP3    H234121   7.065   5.375   6.742
11394TIP3   OH234122   4.259   6.951   3.965
11394TIP3    H134123   4.216   6.998   3.894
11394TIP3    H234124   4.189   6.928   4.026
11395TIP3   OH234125   0.976   7.609   2.587
11395TIP3    H134126   1.050   7.669   2.595
11395TIP3    H234127   0.989   7.566   2.502
11396TIP3   OH234128   2.014   1.188   0.594
11396TIP3    H134129   1.952   1.182   0.667
11396TIP3    H234130   2.066   1.267   0.612
11397TIP3   OH234131   1.264   0.443   0.828
11397TIP3    H134132   1.179   0.484   0.839
11397TIP3    H234133   1.252   0.381   0.756
11398TIP3   OH234134   7.808   4.633   2.143
11398TIP3    H134135   7.879   4.613   2.204
11398TIP3    H234136   7.728   4.605   2.189
11399TIP3   OH234137   3.275   2.490   4.194
11399TIP3    H134138   3.203   2.536   4.238
11399TIP3    H234139   3.311   2.554   4.133
11400TIP3   OH234140   1.997   3.347   3.167
11400TIP3    H134141   1.909   3.358   3.201
11400TIP3    H234142   1.998   3.399   3.087
11401TIP3   OH234143   4.149   6.174   2.681
11401TIP3    H134144   4.125   6.114   2.752
11401TIP3    H234145   4.212   6.125   2.629
11402TIP3   OH234146   2.643   0.180   4.376
11402TIP3    H134147   2.672   0.166   4.286
11402TIP3    H234148   2.577   0.248   4.370
11403TIP3   OH234149   5.678   2.412   1.829
11403TIP3    H134150   5.766   2.436   1.858
11403TIP3    H234151   5.621   2.479   1.867
11404TIP3   OH234152   1.276   6.852   4.237
11404TIP3    H134153   1.309   6.941   4.232
11404TIP3    H234154   1.337   6.807   4.296
11405TIP3   OH234155   7.011   7.145   1.957
11405TIP3    H134156   6.920   7.118   1.953
11405TIP3    H234157   7.034   7.167   1.866
11406TIP3   OH234158   0.165   0.856   4.706
11406TIP3    H134159   0.182   0.866   4.799
11406TIP3    H234160   0.188   0.941   4.668
11407TIP3   OH234161   7.442   6.251   0.087
11407TIP3    H134162   7.512   6.211   0.035
11407TIP3    H234163   7.481   6.267   0.173
11408TIP3   OH234164   6.684   0.744   1.553
11408TIP3    H134165   6.729   0.715   1.632
11408TIP3    H234166   6.591   0.733   1.573
11409TIP3   OH234167   2.027   4.820   3.692
11409TIP3    H134168   2.053   4.912   3.703
11409TIP3    H234169   1.959   4.807   3.758
11410TIP3   OH234170   3.528   4.689   3.707
11410TIP3    H134171   3.474   4.767   3.692
11410TIP3    H234172   3.542   4.688   3.802
11411TIP3   OH234173   3.518   0.864   1.142
11411TIP3    H134174   3.432   0.865   1.184
11411TIP3    H234175   3.515   0.937   1.080
11412TIP3   OH234176   6.769   7.469   5.184
11412TIP3    H134177   6.718   7.388   5.189
11412TIP3    H234178   6.703   7.538   5.180
11413TIP3   OH234179   4.113   6.384   0.416
11413TIP3    H134180   4.112   6.294   0.447
11413TIP3    H234181   4.152   6.434   0.488
11414TIP3   OH234182   4.934   4.875   2.336
11414TIP3    H134183   4.914   4.852   2.427
11414TIP3    H234184   4.939   4.792   2.290
11415TIP3   OH234185   3.843   4.696   4.841
11415TIP3    H134186   3.922   4.694   4.787
11415TIP3    H234187   3.772   4.671   4.781
11416TIP3   OH234188   4.031   1.979   0.910
11416TIP3    H134189   3.936   1.971   0.917
11416TIP3    H234190   4.050   2.068   0.941
11417TIP3   OH234191   3.521   1.745   5.541
11417TIP3    H134192   3.457   1.771   5.607
11417TIP3    H234193   3.601   1.726   5.591
11418TIP3   OH234194   4.538   7.210   3.504
11418TIP3    H134195   4.585   7.293   3.500
11418TIP3    H234196   4.525   7.186   3.412
11419TIP3   OH234197   6.567   1.348   3.798
11419TIP3    H134198   6.486   1.327   3.845
11419TIP3    H234199   6.555   1.438   3.769
11420TIP3   OH234200   7.953   7.724   4.288
11420TIP3    H134201   7.899   7.763   4.356
11420TIP3    H234202   8.043   7.735   4.320
11421TIP3   OH234203   7.106   7.481   4.702
11421TIP3    H134204   7.184   7.433   4.728
11421TIP3    H234205   7.106   7.477   4.606
11422TIP3   OH234206   5.977   0.904   0.203
11422TIP3    H134207   5.896   0.922   0.251
11422TIP3    H234208   5.955   0.915   0.111
11423TIP3   OH234209   3.483   5.994   6.060
11423TIP3    H134210   3.401   5.983   6.011
11423TIP3    H234211   3.551   5.972   5.997
11424TIP3   OH234212   6.245   0.783   2.645
11424TIP3    H134213   6.174   0.846   2.658
11424TIP3    H234214   6.300   0.793   2.723
11425TIP3   OH234215   6.236   0.042   3.363
11425TIP3    H134216   6.316   0.093   3.373
11425TIP3    H234217   6.261  -0.047   3.386
11426TIP3   OH234218   0.989   1.881   4.784
11426TIP3    H134219   0.980   1.953   4.721
11426TIP3    H234220   1.063   1.830   4.751
11427TIP3   OH234221   2.758   0.454   1.071
11427TIP3    H134222   2.849   0.476   1.088
11427TIP3    H234223   2.734   0.506   0.994
11428TIP3   OH234224   6.941   1.525   0.120
11428TIP3    H134225   6.998   1.462   0.163
11428TIP3    H234226   6.885   1.558   0.191
11429TIP3   OH234227   0.416   0.883   2.118
11429TIP3    H134228   0.346   0.818   2.114
11429TIP3    H234229   0.473   0.853   2.189
11430TIP3   OH234230   5.009   3.270   3.912
11430TIP3    H134231   5.013   3.365   3.901
11430TIP3    H234232   5.009   3.235   3.823
11431TIP3   OH234233   7.979   5.936   6.638
11431TIP3    H134234   8.070   5.909   6.629
11431TIP3    H234235   7.941   5.873   6.699
11432TIP3   OH234236   4.540   3.776   1.048
11432TIP3    H134237   4.547   3.752   0.956
11432TIP3    H234238   4.466   3.837   1.052
11433TIP3   OH234239   5.097   3.482   0.432
11433TIP3    H134240   5.149   3.472   0.353
11433TIP3    H234241   5.118   3.405   0.485
11434TIP3   OH234242   8.048   6.631   0.653
11434TIP3    H134243   8.113   6.571   0.614
11434TIP3    H234244   7.969   6.577   0.661
11435TIP3   OH234245   7.784   5.093   1.278
11435TIP3    H134246   7.855   5.054   1.229
11435TIP3    H234247   7.715   5.027   1.278
11436TIP3   OH234248   3.660   7.453   1.392
11436TIP3    H134249   3.643   7.542   1.362
11436TIP3    H234250   3.574   7.409   1.389
11437TIP3   OH234251   0.484   2.821   4.743
11437TIP3    H134252   0.407   2.768   4.764
11437TIP3    H234253   0.539   2.814   4.820
11438TIP3   OH234254   4.146   4.918   3.121
11438TIP3    H134255   4.168   4.830   3.150
11438TIP3    H234256   4.204   4.975   3.171
11439TIP3   OH234257   2.229   3.660   3.308
11439TIP3    H134258   2.230   3.568   3.335
11439TIP3    H234259   2.261   3.707   3.385
11440TIP3   OH234260   0.405   4.146   2.923
11440TIP3    H134261   0.322   4.145   2.875
11440TIP3    H234262   0.420   4.239   2.942
11441TIP3   OH234263   5.095   3.363   5.007
11441TIP3    H134264   5.173   3.324   4.966
11441TIP3    H234265   5.066   3.429   4.944
11442TIP3   OH234266   7.227   5.213   4.813
11442TIP3    H134267   7.198   5.300   4.786
11442TIP3    H234268   7.171   5.191   4.888
11443TIP3   OH234269   4.879   1.875   2.057
11443TIP3    H134270   4.952   1.848   2.113
11443TIP3    H234271   4.807   1.817   2.082
11444TIP3   OH234272   6.336   3.326   3.960
11444TIP3    H134273   6.331   3.419   3.938
11444TIP3    H234274   6.309   3.281   3.880
11445TIP3   OH234275   6.284   5.458   4.261
11445TIP3    H134276   6.256   5.541   4.300
11445TIP3    H234277   6.228   5.448   4.184
11446TIP3   OH234278   7.806   3.941   0.715
11446TIP3    H134279   7.735   3.878   0.705
11446TIP3    H234280   7.766   4.015   0.760
11447TIP3   OH234281   1.323   3.158   0.634
11447TIP3    H134282   1.328   3.180   0.541
11447TIP3    H234283   1.234   3.125   0.646
11448TIP3   OH234284   8.334   1.042   4.737
11448TIP3    H134285   8.263   1.016   4.678
11448TIP3    H234286   8.368   0.959   4.771
11449TIP3   OH234287   4.870   7.475   4.396
11449TIP3    H134288   4.932   7.469   4.468
11449TIP3    H234289   4.899   7.550   4.345
11450TIP3   OH234290   4.413   3.237   2.272
11450TIP3    H134291   4.476   3.263   2.340
11450TIP3    H234292   4.422   3.142   2.267
11451TIP3   OH234293   2.199   6.374   6.803
11451TIP3    H134294   2.187   6.293   6.754
11451TIP3    H234295   2.155   6.441   6.750
11452TIP3   OH234296   6.221   5.742   0.983
11452TIP3    H134297   6.147   5.725   0.925
11452TIP3    H234298   6.285   5.787   0.929
11453TIP3   OH234299   7.624   5.288   3.293
11453TIP3    H134300   7.610   5.345   3.217
11453TIP3    H234301   7.589   5.203   3.266
11454TIP3   OH234302   0.118   7.335   5.710
11454TIP3    H134303   0.183   7.343   5.640
11454TIP3    H234304   0.160   7.277   5.774
11455TIP3   OH234305   4.821   5.748   4.676
11455TIP3    H134306   4.778   5.776   4.595
11455TIP3    H234307   4.910   5.725   4.650
11456TIP3   OH234308   4.939   2.380   2.835
11456TIP3    H134309   4.889   2.429   2.769
11456TIP3    H234310   4.877   2.367   2.907
11457TIP3   OH234311   1.697   3.954   3.917
11457TIP3    H134312   1.750   3.885   3.957
11457TIP3    H234313   1.652   3.995   3.992
11458TIP3   OH234314   1.413   3.865   4.556
11458TIP3    H134315   1.410   3.786   4.610
11458TIP3    H234316   1.361   3.929   4.604
11459TIP3   OH234317   2.610   3.602   3.814
11459TIP3    H134318   2.602   3.634   3.724
11459TIP3    H234319   2.522   3.569   3.834
11460TIP3   OH234320   5.476   7.310   3.452
11460TIP3    H134321   5.381   7.303   3.452
11460TIP3    H234322   5.494   7.396   3.492
11461TIP3   OH234323   1.986   7.800   4.870
11461TIP3    H134324   1.997   7.763   4.958
11461TIP3    H234325   1.912   7.752   4.833
11462TIP3   OH234326   0.511   4.493   1.120
11462TIP3    H134327   0.434   4.486   1.177
11462TIP3    H234328   0.555   4.573   1.148
11463TIP3   OH234329   7.218   1.970   2.463
11463TIP3    H134330   7.259   2.056   2.471
11463TIP3    H234331   7.283   1.909   2.498
11464TIP3   OH234332   1.620   5.251   3.919
11464TIP3    H134333   1.636   5.343   3.941
11464TIP3    H234334   1.702   5.207   3.940
11465TIP3   OH234335   6.061   4.753   5.319
11465TIP3    H134336   6.050   4.827   5.259
11465TIP3    H234337   6.088   4.681   5.262
11466TIP3   OH234338   3.937   6.850   2.043
11466TIP3    H134339   3.886   6.913   1.992
11466TIP3    H234340   4.018   6.896   2.064
11467TIP3   OH234341   3.673   2.259   1.015
11467TIP3    H134342   3.681   2.183   1.073
11467TIP3    H234343   3.674   2.335   1.074
11468TIP3   OH234344   6.388   3.838   6.812
11468TIP3    H134345   6.350   3.780   6.878
11468TIP3    H234346   6.474   3.800   6.792
11469TIP3   OH234347   2.127   1.631   2.648
11469TIP3    H134348   2.035   1.628   2.676
11469TIP3    H234349   2.149   1.724   2.649
11470TIP3   OH234350   3.173   5.688   6.534
11470TIP3    H134351   3.084   5.685   6.569
11470TIP3    H234352   3.201   5.779   6.548
11471TIP3   OH234353   0.391   5.696   5.070
11471TIP3    H134354   0.412   5.653   5.153
11471TIP3    H234355   0.471   5.744   5.047
11472TIP3   OH234356   0.834   7.234   6.467
11472TIP3    H134357   0.880   7.159   6.429
11472TIP3    H234358   0.804   7.284   6.392
11473TIP3   OH234359   3.955   5.952   5.185
11473TIP3    H134360   3.869   5.976   5.219
11473TIP3    H234361   3.937   5.901   5.106
11474TIP3   OH234362   8.102   3.197   4.588
11474TIP3    H134363   8.137   3.132   4.528
11474TIP3    H234364   8.007   3.189   4.579
11475TIP3   OH234365   4.517   5.692   0.604
11475TIP3    H134366   4.546   5.732   0.686
11475TIP3    H234367   4.504   5.765   0.544
11476TIP3   OH234368   0.783   0.535   1.027
11476TIP3    H134369   0.711   0.588   1.063
11476TIP3    H234370   0.752   0.509   0.940
11477TIP3   OH234371   4.491   7.185   1.313
11477TIP3    H134372   4.437   7.145   1.244
11477TIP3    H234373   4.512   7.112   1.372
11478TIP3   OH234374   6.654   2.285   0.601
11478TIP3    H134375   6.675   2.192   0.590
11478TIP3    H234376   6.725   2.332   0.557
11479TIP3   OH234377   1.715   4.542   5.521
11479TIP3    H134378   1.734   4.475   5.455
11479TIP3    H234379   1.623   4.563   5.507
11480TIP3   OH234380   2.021   2.485   1.215
11480TIP3    H134381   2.058   2.399   1.196
11480TIP3    H234382   1.980   2.475   1.301
11481TIP3   OH234383   1.934   0.053   1.357
11481TIP3    H134384   1.923   0.141   1.393
11481TIP3    H234385   2.023   0.029   1.382
11482TIP3   OH234386   2.573   0.627   2.578
11482TIP3    H134387   2.565   0.714   2.538
11482TIP3    H234388   2.490   0.585   2.560
11483TIP3   OH234389   2.793   3.181   3.262
11483TIP3    H134390   2.842   3.121   3.205
11483TIP3    H234391   2.773   3.256   3.206
11484TIP3   OH234392   2.203   0.738   2.826
11484TIP3    H134393   2.235   0.795   2.757
11484TIP3    H234394   2.113   0.718   2.801
11485TIP3   OH234395   1.610   1.709   5.572
11485TIP3    H134396   1.691   1.734   5.529
11485TIP3    H234397   1.541   1.742   5.515
11486TIP3   OH234398   0.162   0.553   5.180
11486TIP3    H134399   0.253   0.581   5.164
11486TIP3    H234400   0.130   0.529   5.093
11487TIP3   OH234401   7.066   7.920   6.494
11487TIP3    H134402   7.133   7.989   6.499
11487TIP3    H234403   7.072   7.888   6.404
11488TIP3   OH234404   3.641   1.728   3.816
11488TIP3    H134405   3.629   1.752   3.724
11488TIP3    H234406   3.553   1.705   3.847
11489TIP3   OH234407   5.249   1.148   4.991
11489TIP3    H134408   5.246   1.172   4.899
11489TIP3    H234409   5.212   1.223   5.037
11490TIP3   OH234410   1.316   4.714   5.029
11490TIP3    H134411   1.244   4.744   5.085
11490TIP3    H234412   1.377   4.672   5.089
11491TIP3   OH234413   5.508   3.941   5.163
11491TIP3    H134414   5.442   4.002   5.129
11491TIP3    H234415   5.556   3.911   5.086
11492TIP3   OH234416   7.428   2.663   5.518
11492TIP3    H134417   7.505   2.631   5.471
11492TIP3    H234418   7.426   2.613   5.599
11493TIP3   OH234419   6.975   3.699   4.241
11493TIP3    H134420   6.928   3.629   4.286
11493TIP3    H234421   6.988   3.766   4.309
11494TIP3   OH234422   7.594   3.771   0.659
11494TIP3    H134423   7.595   3.788   0.565
11494TIP3    H234424   7.503   3.747   0.678
11495TIP3   OH234425   4.466   3.343   0.836
11495TIP3    H134426   4.427   3.258   0.859
11495TIP3    H234427   4.491   3.381   0.920
11496TIP3   OH234428   1.574   6.762   3.595
11496TIP3    H134429   1.540   6.783   3.682
11496TIP3    H234430   1.667   6.745   3.609
11497TIP3   OH234431   0.202   7.462   4.025
11497TIP3    H134432   0.200   7.441   4.118
11497TIP3    H234433   0.289   7.498   4.010
11498TIP3   OH234434   1.328   4.209   1.646
11498TIP3    H134435   1.260   4.230   1.582
11498TIP3    H234436   1.403   4.263   1.621
11499TIP3   OH234437   0.240   7.033   1.641
11499TIP3    H134438   0.217   7.121   1.611
11499TIP3    H234439   0.242   6.980   1.562
11500TIP3   OH234440   8.265   3.054   3.804
11500TIP3    H134441   8.258   2.991   3.733
11500TIP3    H234442   8.287   3.001   3.881
11501TIP3   OH234443   5.860   7.499   5.059
11501TIP3    H134444   5.835   7.588   5.083
11501TIP3    H234445   5.782   7.463   5.016
11502TIP3   OH234446   1.711   5.624   5.518
11502TIP3    H134447   1.663   5.659   5.442
11502TIP3    H234448   1.788   5.680   5.525
11503TIP3   OH234449   6.804   2.908   5.768
11503TIP3    H134450   6.783   2.866   5.852
11503TIP3    H234451   6.899   2.917   5.769
11504TIP3   OH234452   4.414   7.840   4.382
11504TIP3    H134453   4.470   7.764   4.364
11504TIP3    H234454   4.344   7.835   4.317
11505TIP3   OH234455   3.833   2.744   1.658
11505TIP3    H134456   3.864   2.658   1.687
11505TIP3    H234457   3.808   2.731   1.566
11506TIP3   OH234458   8.195   5.665   2.315
11506TIP3    H134459   8.251   5.709   2.379
11506TIP3    H234460   8.182   5.730   2.246
11507TIP3   OH234461   3.681   7.247   4.008
11507TIP3    H134462   3.616   7.306   3.968
11507TIP3    H234463   3.697   7.285   4.095
11508TIP3   OH234464   1.031   4.802   0.553
11508TIP3    H134465   0.957   4.853   0.588
11508TIP3    H234466   1.108   4.849   0.584
11509TIP3   OH234467   5.747   2.043   0.126
11509TIP3    H134468   5.773   1.966   0.177
11509TIP3    H234469   5.695   2.095   0.187
11510TIP3   OH234470   3.072   4.587   6.008
11510TIP3    H134471   3.128   4.646   5.957
11510TIP3    H234472   3.131   4.545   6.069
11511TIP3   OH234473   0.258   2.970   2.502
11511TIP3    H134474   0.268   3.065   2.499
11511TIP3    H234475   0.169   2.956   2.535
11512TIP3   OH234476   3.116   6.827   2.985
11512TIP3    H134477   3.093   6.734   2.980
11512TIP3    H234478   3.101   6.860   2.897
11513TIP3   OH234479   3.927   4.321   5.447
11513TIP3    H134480   3.915   4.369   5.530
11513TIP3    H234481   4.011   4.352   5.413
11514TIP3   OH234482   1.615   3.768   1.915
11514TIP3    H134483   1.657   3.841   1.960
11514TIP3    H234484   1.531   3.757   1.959
11515TIP3   OH234485   1.978   3.549   1.717
11515TIP3    H134486   2.021   3.475   1.674
11515TIP3    H234487   1.925   3.590   1.648
11516TIP3   OH234488   8.039   7.321   2.409
11516TIP3    H134489   8.078   7.243   2.369
11516TIP3    H234490   7.949   7.322   2.377
11517TIP3   OH234491   5.188   2.514   3.821
11517TIP3    H134492   5.103   2.555   3.839
11517TIP3    H234493   5.170   2.420   3.819
11518TIP3   OH234494   8.266   3.456   6.303
11518TIP3    H134495   8.201   3.429   6.239
11518TIP3    H234496   8.224   3.525   6.353
11519TIP3   OH234497   2.442   5.824   4.336
11519TIP3    H134498   2.415   5.839   4.245
11519TIP3    H234499   2.430   5.908   4.378
11520TIP3   OH234500   6.554   7.021   3.651
11520TIP3    H134501   6.610   6.946   3.671
11520TIP3    H234502   6.479   7.011   3.709
11521TIP3   OH234503   6.385   2.854   4.383
11521TIP3    H134504   6.443   2.852   4.460
11521TIP3    H234505   6.437   2.815   4.313
11522TIP3   OH234506   0.300   5.793   1.469
11522TIP3    H134507   0.235   5.742   1.518
11522TIP3    H234508   0.257   5.814   1.387
11523TIP3   OH234509   0.940   0.496   1.926
11523TIP3    H134510   1.013   0.453   1.882
11523TIP3    H234511   0.974   0.582   1.951
11524TIP3   OH234512   5.028   4.422   3.134
11524TIP3    H134513   5.096   4.361   3.105
11524TIP3    H234514   5.062   4.508   3.111
11525TIP3   OH234515   1.346   4.050   1.352
11525TIP3    H134516   1.370   4.089   1.268
11525TIP3    H234517   1.260   4.010   1.336
11526TIP3   OH234518   4.946   5.888   2.321
11526TIP3    H134519   4.976   5.927   2.239
11526TIP3    H234520   5.000   5.930   2.388
11527TIP3   OH234521   7.993   0.837   6.164
11527TIP3    H134522   8.072   0.798   6.126
11527TIP3    H234523   7.949   0.879   6.091
11528TIP3   OH234524   5.476   3.356   4.514
11528TIP3    H134525   5.535   3.353   4.589
11528TIP3    H234526   5.402   3.408   4.544
11529TIP3   OH234527   2.844   0.930   3.918
11529TIP3    H134528   2.819   0.899   3.831
11529TIP3    H234529   2.764   0.969   3.954
11530TIP3   OH234530   5.925   6.604   2.576
11530TIP3    H134531   5.947   6.640   2.491
11530TIP3    H234532   5.954   6.513   2.573
11531TIP3   OH234533   4.339   2.060   2.786
11531TIP3    H134534   4.252   2.035   2.754
11531TIP3    H234535   4.341   2.031   2.877
11532TIP3   OH234536   4.600   4.488   5.148
11532TIP3    H134537   4.533   4.430   5.184
11532TIP3    H234538   4.651   4.516   5.224
11533TIP3   OH234539   1.591   1.127   2.385
11533TIP3    H134540   1.613   1.053   2.328
11533TIP3    H234541   1.522   1.174   2.338
11534TIP3   OH234542   1.357   2.441   2.253
11534TIP3    H134543   1.347   2.476   2.164
11534TIP3    H234544   1.336   2.514   2.311
11535TIP3   OH234545   5.791   0.422   4.723
11535TIP3    H134546   5.873   0.441   4.768
11535TIP3    H234547   5.786   0.488   4.654
11536TIP3   OH234548   1.649   4.125   5.757
11536TIP3    H134549   1.566   4.095   5.720
11536TIP3    H234550   1.627   4.208   5.800
11537TIP3   OH234551   6.485   1.576   1.394
11537TIP3    H134552   6.454   1.487   1.409
11537TIP3    H234553   6.548   1.592   1.465
11538TIP3   OH234554   7.276   5.951   2.334
11538TIP3    H134555   7.300   5.863   2.362
11538TIP3    H234556   7.186   5.962   2.365
11539TIP3   OH234557   4.670   4.576   4.905
11539TIP3    H134558   4.651   4.545   4.993
11539TIP3    H234559   4.724   4.654   4.918
11540TIP3   OH234560   4.010   2.292   0.291
11540TIP3    H134561   4.044   2.285   0.380
11540TIP3    H234562   3.916   2.305   0.303
11541TIP3   OH234563   6.894   6.062   1.824
11541TIP3    H134564   6.953   6.134   1.801
11541TIP3    H234565   6.857   6.087   1.908
11542TIP3   OH234566   1.644   2.225   6.482
11542TIP3    H134567   1.581   2.278   6.434
11542TIP3    H234568   1.595   2.149   6.513
11543TIP3   OH234569   1.372   2.294   1.454
11543TIP3    H134570   1.304   2.354   1.424
11543TIP3    H234571   1.437   2.351   1.496
11544TIP3   OH234572   6.359   4.582   3.450
11544TIP3    H134573   6.405   4.540   3.523
11544TIP3    H234574   6.420   4.647   3.417
11545TIP3   OH234575   8.269   0.374   1.606
11545TIP3    H134576   8.251   0.374   1.700
11545TIP3    H234577   8.335   0.306   1.595
11546TIP3   OH234578   0.871   6.717   2.911
11546TIP3    H134579   0.806   6.672   2.966
11546TIP3    H234580   0.820   6.779   2.859
11547TIP3   OH234581   0.928   1.981   3.276
11547TIP3    H134582   0.852   2.038   3.280
11547TIP3    H234583   0.897   1.897   3.310
11548TIP3   OH234584   4.190   7.503   0.619
11548TIP3    H134585   4.148   7.424   0.655
11548TIP3    H234586   4.161   7.506   0.528
11549TIP3   OH234587   0.360   7.277   5.268
11549TIP3    H134588   0.393   7.210   5.208
11549TIP3    H234589   0.367   7.359   5.218
11550TIP3   OH234590   2.513   1.747   2.556
11550TIP3    H134591   2.471   1.830   2.579
11550TIP3    H234592   2.601   1.754   2.594
11551TIP3   OH234593   4.436   3.395   4.714
11551TIP3    H134594   4.427   3.336   4.640
11551TIP3    H234595   4.494   3.349   4.775
11552TIP3   OH234596   6.471   4.073   3.350
11552TIP3    H134597   6.506   4.090   3.262
11552TIP3    H234598   6.509   4.142   3.405
11553TIP3   OH234599   6.900   5.045   5.243
11553TIP3    H134600   6.943   5.036   5.328
11553TIP3    H234601   6.902   4.958   5.205
11554TIP3   OH234602   2.491   3.064   4.434
11554TIP3    H134603   2.453   3.074   4.521
11554TIP3    H234604   2.578   3.027   4.450
11555TIP3   OH234605   6.935   2.953   4.084
11555TIP3    H134606   7.009   2.976   4.027
11555TIP3    H234607   6.901   3.038   4.114
11556TIP3   OH234608   3.436   7.691   3.818
11556TIP3    H134609   3.350   7.733   3.820
11556TIP3    H234610   3.452   7.676   3.724
11557TIP3   OH234611   5.193   7.548   0.538
11557TIP3    H134612   5.283   7.541   0.508
11557TIP3    H234613   5.190   7.496   0.619
11558TIP3   OH234614   0.777   3.122   0.098
11558TIP3    H134615   0.857   3.175   0.105
11558TIP3    H234616   0.715   3.164   0.158
11559TIP3   OH234617   1.662   0.741   2.418
11559TIP3    H134618   1.719   0.818   2.412
11559TIP3    H234619   1.662   0.705   2.329
11560TIP3   OH234620   3.586   5.910   0.547
11560TIP3    H134621   3.636   5.975   0.497
11560TIP3    H234622   3.595   5.938   0.638
11561TIP3   OH234623   8.152   2.001   5.367
11561TIP3    H134624   8.194   2.079   5.331
11561TIP3    H234625   8.205   1.928   5.333
11562TIP3   OH234626   8.102   1.763   5.962
11562TIP3    H134627   8.192   1.732   5.963
11562TIP3    H234628   8.061   1.714   5.890
11563TIP3   OH234629   0.699   7.908   3.874
11563TIP3    H134630   0.760   7.888   3.803
11563TIP3    H234631   0.714   7.839   3.938
11564TIP3   OH234632   1.842   0.169   2.507
11564TIP3    H134633   1.869   0.259   2.486
11564TIP3    H234634   1.874   0.117   2.434
11565TIP3   OH234635   0.945   3.098   1.982
11565TIP3    H134636   0.937   3.193   1.991
11565TIP3    H234637   1.026   3.086   1.932
11566TIP3   OH234638   2.042   4.412   0.831
11566TIP3    H134639   2.089   4.343   0.784
11566TIP3    H234640   2.041   4.486   0.771
11567TIP3   OH234641   3.569   4.653   2.950
11567TIP3    H134642   3.597   4.739   2.919
11567TIP3    H234643   3.625   4.636   3.026
11568TIP3   OH234644   7.222   3.846   5.453
11568TIP3    H134645   7.244   3.814   5.540
11568TIP3    H234646   7.147   3.792   5.426
11569TIP3   OH234647   2.369   7.432   3.078
11569TIP3    H134648   2.428   7.360   3.098
11569TIP3    H234649   2.413   7.510   3.112
11570TIP3   OH234650   6.725   7.350   3.399
11570TIP3    H134651   6.820   7.338   3.403
11570TIP3    H234652   6.706   7.411   3.471
11571TIP3   OH234653   2.149   1.038   4.291
11571TIP3    H134654   2.229   1.010   4.336
11571TIP3    H234655   2.118   1.112   4.343
11572TIP3   OH234656   1.300   1.031   4.107
11572TIP3    H134657   1.218   0.992   4.076
11572TIP3    H234658   1.275   1.077   4.187
11573TIP3   OH234659   1.840   1.650   6.170
11573TIP3    H134660   1.857   1.669   6.078
11573TIP3    H234661   1.865   1.730   6.217
11574TIP3   OH234662   8.137   3.656   0.057
11574TIP3    H134663   8.105   3.680  -0.031
11574TIP3    H234664   8.145   3.740   0.102
11575TIP3   OH234665   5.419   3.951   6.687
11575TIP3    H134666   5.378   3.867   6.666
11575TIP3    H234667   5.409   4.003   6.607
11576TIP3   OH234668   4.796   6.608   5.853
11576TIP3    H134669   4.705   6.606   5.881
11576TIP3    H234670   4.793   6.592   5.758
11577TIP3   OH234671   7.879   4.174   4.852
11577TIP3    H134672   7.783   4.174   4.854
11577TIP3    H234673   7.905   4.220   4.931
11578TIP3   OH234674   1.557   3.376   5.318
11578TIP3    H134675   1.534   3.399   5.408
11578TIP3    H234676   1.652   3.378   5.316
11579TIP3   OH234677   1.300   1.181   3.792
11579TIP3    H134678   1.213   1.154   3.822
11579TIP3    H234679   1.352   1.102   3.796
11580TIP3   OH234680   5.663   6.120   3.100
11580TIP3    H134681   5.752   6.114   3.064
11580TIP3    H234682   5.626   6.033   3.084
11581TIP3   OH234683   1.189   6.664   0.481
11581TIP3    H134684   1.248   6.643   0.409
11581TIP3    H234685   1.223   6.614   0.556
11582TIP3   OH234686   6.556   1.517   5.333
11582TIP3    H134687   6.496   1.489   5.402
11582TIP3    H234688   6.638   1.535   5.379
11583TIP3   OH234689   4.553   0.552   1.613
11583TIP3    H134690   4.605   0.474   1.596
11583TIP3    H234691   4.524   0.581   1.527
11584TIP3   OH234692   2.281   0.833   0.225
11584TIP3    H134693   2.248   0.810   0.139
11584TIP3    H234694   2.217   0.895   0.260
11585TIP3   OH234695   1.847   2.054   5.890
11585TIP3    H134696   1.839   2.093   5.803
11585TIP3    H234697   1.792   1.976   5.887
11586TIP3   OH234698   2.305   1.860   1.985
11586TIP3    H134699   2.291   1.808   1.906
11586TIP3    H234700   2.400   1.869   1.992
11587TIP3   OH234701   2.742   0.675   6.702
11587TIP3    H134702   2.705   0.752   6.660
11587TIP3    H234703   2.737   0.695   6.796
11588TIP3   OH234704   7.326   1.643   2.942
11588TIP3    H134705   7.255   1.579   2.931
11588TIP3    H234706   7.303   1.691   3.021
11589TIP3   OH234707   4.308   4.373   1.327
11589TIP3    H134708   4.251   4.373   1.404
11589TIP3    H234709   4.350   4.459   1.327
11590TIP3   OH234710   1.889   2.929   3.869
11590TIP3    H134711   1.961   2.974   3.825
11590TIP3    H234712   1.838   3.000   3.909
11591TIP3   OH234713   5.805   3.318   4.567
11591TIP3    H134714   5.853   3.361   4.638
11591TIP3    H234715   5.798   3.227   4.594
11592TIP3   OH234716   5.846   7.883   0.438
11592TIP3    H134717   5.816   7.935   0.512
11592TIP3    H234718   5.767   7.870   0.385
11593TIP3   OH234719   0.165   3.480   6.700
11593TIP3    H134720   0.117   3.517   6.626
11593TIP3    H234721   0.236   3.430   6.660
11594TIP3   OH234722   4.873   3.813   0.871
11594TIP3    H134723   4.852   3.792   0.961
11594TIP3    H234724   4.898   3.730   0.831
11595TIP3   OH234725   0.766   3.686   2.240
11595TIP3    H134726   0.860   3.698   2.253
11595TIP3    H234727   0.739   3.630   2.312
11596TIP3   OH234728   5.208   6.338   6.762
11596TIP3    H134729   5.141   6.280   6.725
11596TIP3    H234730   5.242   6.386   6.687
11597TIP3   OH234731   0.363   6.692   0.117
11597TIP3    H134732   0.370   6.770   0.171
11597TIP3    H234733   0.431   6.633   0.149
11598TIP3   OH234734   0.340   3.933   6.060
11598TIP3    H134735   0.362   3.989   5.985
11598TIP3    H234736   0.425   3.905   6.094
11599TIP3   OH234737   4.122   3.357   4.194
11599TIP3    H134738   4.180   3.301   4.142
11599TIP3    H234739   4.035   3.317   4.184
11600TIP3   OH234740   3.303   5.657   0.307
11600TIP3    H134741   3.328   5.747   0.327
11600TIP3    H234742   3.269   5.661   0.217
11601TIP3   OH234743   1.639   1.130   1.626
11601TIP3    H134744   1.608   1.056   1.574
11601TIP3    H234745   1.730   1.142   1.599
11602TIP3   OH234746   7.664   2.337   3.806
11602TIP3    H134747   7.710   2.371   3.730
11602TIP3    H234748   7.622   2.413   3.845
11603TIP3   OH234749   1.355   4.440   2.829
11603TIP3    H134750   1.377   4.356   2.789
11603TIP3    H234751   1.310   4.488   2.760
11604TIP3   OH234752   0.802   6.878   6.465
11604TIP3    H134753   0.737   6.915   6.405
11604TIP3    H234754   0.759   6.882   6.551
11605TIP3   OH234755   5.432   4.547   0.627
11605TIP3    H134756   5.420   4.581   0.716
11605TIP3    H234757   5.469   4.620   0.578
11606TIP3   OH234758   2.049   4.587   1.720
11606TIP3    H134759   2.020   4.589   1.811
11606TIP3    H234760   2.144   4.592   1.724
11607TIP3   OH234761   6.841   3.356   2.880
11607TIP3    H134762   6.812   3.442   2.910
11607TIP3    H234763   6.896   3.323   2.952
11608TIP3   OH234764   2.065   1.826   2.372
11608TIP3    H134765   2.141   1.883   2.358
11608TIP3    H234766   2.019   1.866   2.445
11609TIP3   OH234767   7.649   5.904   4.285
11609TIP3    H134768   7.621   5.820   4.322
11609TIP3    H234769   7.628   5.968   4.353
11610TIP3   OH234770   1.329   5.646   2.023
11610TIP3    H134771   1.329   5.563   2.072
11610TIP3    H234772   1.396   5.699   2.066
11611TIP3   OH234773   6.215   3.540   5.131
11611TIP3    H134774   6.216   3.541   5.227
11611TIP3    H234775   6.148   3.605   5.108
11612TIP3   OH234776   7.474   2.232   3.421
11612TIP3    H134777   7.500   2.152   3.467
11612TIP3    H234778   7.475   2.208   3.328
11613TIP3   OH234779   5.133   3.033   1.917
11613TIP3    H134780   5.049   3.076   1.903
11613TIP3    H234781   5.144   3.031   2.012
11614TIP3   OH234782   5.390   0.705   3.513
11614TIP3    H134783   5.439   0.772   3.465
11614TIP3    H234784   5.427   0.622   3.483
11615TIP3   OH234785   4.203   0.442   2.607
11615TIP3    H134786   4.248   0.378   2.663
11615TIP3    H234787   4.256   0.446   2.528
11616TIP3   OH234788   5.469   0.553   4.922
11616TIP3    H134789   5.550   0.604   4.919
11616TIP3    H234790   5.497   0.463   4.911
11617TIP3   OH234791   1.542   7.899   4.910
11617TIP3    H134792   1.507   7.810   4.907
11617TIP3    H234793   1.567   7.912   5.001
11618TIP3   OH234794   4.658   2.476   1.677
11618TIP3    H134795   4.627   2.565   1.659
11618TIP3    H234796   4.753   2.483   1.678
11619TIP3   OH234797   7.462   1.494   0.216
11619TIP3    H134798   7.524   1.426   0.242
11619TIP3    H234799   7.492   1.523   0.130
11620TIP3   OH234800   3.175   3.226   5.983
11620TIP3    H134801   3.121   3.289   6.031
11620TIP3    H234802   3.126   3.144   5.988
11621TIP3   OH234803   5.560   5.611   2.981
11621TIP3    H134804   5.595   5.522   2.988
11621TIP3    H234805   5.592   5.642   2.896
11622TIP3   OH234806   8.022   0.183   1.906
11622TIP3    H134807   8.063   0.264   1.939
11622TIP3    H234808   7.994   0.137   1.985
11623TIP3   OH234809   4.190   6.465   4.722
11623TIP3    H134810   4.159   6.465   4.632
11623TIP3    H234811   4.251   6.392   4.727
11624TIP3   OH234812   6.745   7.873   3.610
11624TIP3    H134813   6.829   7.890   3.653
11624TIP3    H234814   6.763   7.883   3.517
11625TIP3   OH234815   6.018   3.739   5.119
11625TIP3    H134816   5.955   3.791   5.067
11625TIP3    H234817   5.964   3.699   5.187
11626TIP3   OH234818   8.321   7.070   0.873
11626TIP3    H134819   8.316   7.092   0.966
11626TIP3    H234820   8.284   6.982   0.867
11627TIP3   OH234821   4.778   0.371   5.518
11627TIP3    H134822   4.855   0.319   5.540
11627TIP3    H234823   4.789   0.394   5.426
11628TIP3   OH234824   2.213   5.525   2.141
11628TIP3    H134825   2.124   5.491   2.139
11628TIP3    H234826   2.230   5.543   2.234
11629TIP3   OH234827   7.137   4.668   6.415
11629TIP3    H134828   7.090   4.744   6.450
11629TIP3    H234829   7.215   4.705   6.374
11630TIP3   OH234830   5.527   3.722   2.879
11630TIP3    H134831   5.564   3.786   2.818
11630TIP3    H234832   5.572   3.640   2.859
11631TIP3   OH234833   7.020   3.512   1.950
11631TIP3    H134834   7.111   3.536   1.964
11631TIP3    H234835   6.973   3.595   1.952
11632TIP3   OH234836   4.272   3.141   2.927
11632TIP3    H134837   4.216   3.214   2.950
11632TIP3    H234838   4.237   3.108   2.845
11633TIP3   OH234839   0.306   6.884   2.648
11633TIP3    H134840   0.240   6.815   2.652
11633TIP3    H234841   0.272   6.945   2.582
11634TIP3   OH234842   5.441   2.555   3.932
11634TIP3    H134843   5.453   2.633   3.986
11634TIP3    H234844   5.347   2.553   3.913
11635TIP3   OH234845   0.364   5.436   5.613
11635TIP3    H134846   0.336   5.367   5.673
11635TIP3    H234847   0.441   5.399   5.569
11636TIP3   OH234848   4.606   3.434   6.789
11636TIP3    H134849   4.561   3.458   6.708
11636TIP3    H234850   4.559   3.357   6.820
11637TIP3   OH234851   0.417   1.292   0.369
11637TIP3    H134852   0.367   1.366   0.334
11637TIP3    H234853   0.508   1.323   0.367
11638TIP3   OH234854   1.196   5.133   0.985
11638TIP3    H134855   1.127   5.068   0.978
11638TIP3    H234856   1.161   5.200   1.043
11639TIP3   OH234857   1.880   0.714   5.121
11639TIP3    H134858   1.947   0.663   5.167
11639TIP3    H234859   1.921   0.738   5.038
11640TIP3   OH234860   8.352   4.047   1.314
11640TIP3    H134861   8.290   4.065   1.242
11640TIP3    H234862   8.296   4.027   1.389
11641TIP3   OH234863   2.188   0.476   6.655
11641TIP3    H134864   2.123   0.495   6.587
11641TIP3    H234865   2.168   0.538   6.725
11642TIP3   OH234866   3.092   3.718   3.612
11642TIP3    H134867   3.016   3.685   3.564
11642TIP3    H234868   3.159   3.729   3.545
11643TIP3   OH234869   4.933   6.460   0.694
11643TIP3    H134870   4.894   6.399   0.756
11643TIP3    H234871   5.022   6.428   0.680
11644TIP3   OH234872   7.854   4.041   2.968
11644TIP3    H134873   7.896   3.955   2.957
11644TIP3    H234874   7.922   4.104   2.948
11645TIP3   OH234875   7.104   5.688   0.161
11645TIP3    H134876   7.149   5.745   0.099
11645TIP3    H234877   7.014   5.683   0.129
11646TIP3   OH234878   5.598   6.441   5.370
11646TIP3    H134879   5.512   6.400   5.365
11646TIP3    H234880   5.613   6.455   5.464
11647TIP3   OH234881   1.522   6.865   2.284
11647TIP3    H134882   1.464   6.915   2.228
11647TIP3    H234883   1.467   6.839   2.358
11648TIP3   OH234884   2.498   5.555   5.896
11648TIP3    H134885   2.427   5.555   5.831
11648TIP3    H234886   2.558   5.487   5.865
11649TIP3   OH234887   3.048   4.329   3.029
11649TIP3    H134888   2.992   4.279   2.970
11649TIP3    H234889   3.134   4.286   3.024
11650TIP3   OH234890   3.923   7.746   3.345
11650TIP3    H134891   3.954   7.724   3.257
11650TIP3    H234892   3.973   7.689   3.404
11651TIP3   OH234893   6.069   0.682   1.728
11651TIP3    H134894   5.984   0.650   1.698
11651TIP3    H234895   6.118   0.697   1.648
11652TIP3   OH234896   2.249   4.377   1.986
11652TIP3    H134897   2.160   4.347   2.003
11652TIP3    H234898   2.240   4.441   1.915
11653TIP3   OH234899   4.461   7.286   2.116
11653TIP3    H134900   4.422   7.294   2.029
11653TIP3    H234901   4.547   7.247   2.100
11654TIP3   OH234902   3.114   5.684   6.083
11654TIP3    H134903   3.129   5.762   6.136
11654TIP3    H234904   3.029   5.700   6.041
11655TIP3   OH234905   6.100   5.432   1.434
11655TIP3    H134906   6.184   5.391   1.453
11655TIP3    H234907   6.070   5.391   1.353
11656TIP3   OH234908   7.342   5.428   3.711
11656TIP3    H134909   7.396   5.455   3.637
11656TIP3    H234910   7.314   5.510   3.751
11657TIP3   OH234911   6.738   6.938   6.488
11657TIP3    H134912   6.783   6.887   6.555
11657TIP3    H234913   6.806   6.994   6.451
11658TIP3   OH234914   2.570   5.902   1.479
11658TIP3    H134915   2.516   5.959   1.425
11658TIP3    H234916   2.584   5.951   1.560
11659TIP3   OH234917   3.899   5.817   4.952
11659TIP3    H134918   3.955   5.742   4.971
11659TIP3    H234919   3.865   5.801   4.864
11660TIP3   OH234920   4.183   2.236   0.755
11660TIP3    H134921   4.198   2.244   0.849
11660TIP3    H234922   4.242   2.164   0.728
11661TIP3   OH234923   7.621   7.211   5.110
11661TIP3    H134924   7.590   7.167   5.031
11661TIP3    H234925   7.661   7.141   5.162
11662TIP3   OH234926   2.161   3.312   0.799
11662TIP3    H134927   2.256   3.320   0.786
11662TIP3    H234928   2.123   3.343   0.717
11663TIP3   OH234929   6.134   6.402   6.288
11663TIP3    H134930   6.158   6.337   6.354
11663TIP3    H234931   6.148   6.486   6.331
11664TIP3   OH234932   2.962   2.171   5.485
11664TIP3    H134933   3.043   2.168   5.435
11664TIP3    H234934   2.966   2.094   5.542
11665TIP3   OH234935   0.894   6.778   1.837
11665TIP3    H134936   0.808   6.798   1.874
11665TIP3    H234937   0.879   6.772   1.743
11666TIP3   OH234938   7.302   3.549   4.557
11666TIP3    H134939   7.328   3.583   4.471
11666TIP3    H234940   7.235   3.484   4.538
11667TIP3   OH234941   6.408   5.870   6.636
11667TIP3    H134942   6.336   5.824   6.593
11667TIP3    H234943   6.465   5.898   6.564
11668TIP3   OH234944   0.183   1.484   5.269
11668TIP3    H134945   0.107   1.426   5.279
11668TIP3    H234946   0.257   1.433   5.301
11669TIP3   OH234947   4.491   1.399   6.495
11669TIP3    H134948   4.543   1.458   6.549
11669TIP3    H234949   4.554   1.355   6.439
11670TIP3   OH234950   1.760   2.994   1.885
11670TIP3    H134951   1.732   3.051   1.813
11670TIP3    H234952   1.829   3.043   1.930
11671TIP3   OH234953   5.025   6.916   0.705
11671TIP3    H134954   4.982   6.838   0.742
11671TIP3    H234955   5.085   6.945   0.775
11672TIP3   OH234956   1.143   5.277   2.314
11672TIP3    H134957   1.206   5.230   2.368
11672TIP3    H234958   1.095   5.208   2.268
11673TIP3   OH234959   7.354   5.818   5.851
11673TIP3    H134960   7.406   5.886   5.894
11673TIP3    H234961   7.385   5.736   5.889
11674TIP3   OH234962   7.522   5.501   0.774
11674TIP3    H134963   7.526   5.456   0.690
11674TIP3    H234964   7.501   5.592   0.751
11675TIP3   OH234965   2.930   5.672   2.904
11675TIP3    H134966   2.872   5.725   2.959
11675TIP3    H234967   2.954   5.598   2.960
11676TIP3   OH234968   8.089   0.780   1.125
11676TIP3    H134969   8.100   0.716   1.054
11676TIP3    H234970   8.013   0.831   1.099
11677TIP3   OH234971   4.623   7.745   0.998
11677TIP3    H134972   4.671   7.729   1.080
11677TIP3    H234973   4.682   7.713   0.930
11678TIP3   OH234974   0.719   0.845   5.872
11678TIP3    H134975   0.680   0.770   5.826
11678TIP3    H234976   0.645   0.892   5.910
11679TIP3   OH234977   3.047   0.470   0.746
11679TIP3    H134978   2.985   0.507   0.683
11679TIP3    H234979   3.033   0.376   0.742
11680TIP3   OH234980   4.174   7.013   2.050
11680TIP3    H134981   4.260   6.981   2.023
11680TIP3    H234982   4.182   7.028   2.144
11681TIP3   OH234983   7.012   6.705   2.028
11681TIP3    H134984   7.077   6.775   2.023
11681TIP3    H234985   6.934   6.747   2.065
11682TIP3   OH234986   7.641   4.650   6.064
11682TIP3    H134987   7.617   4.625   6.153
11682TIP3    H234988   7.736   4.655   6.065
11683TIP3   OH234989   0.064   1.840   6.081
11683TIP3    H134990   0.150   1.856   6.041
11683TIP3    H234991   0.032   1.926   6.106
11684TIP3   OH234992   3.702   0.799   4.285
11684TIP3    H134993   3.620   0.829   4.245
11684TIP3    H234994   3.683   0.709   4.314
11685TIP3   OH234995   5.005   6.975   0.127
11685TIP3    H134996   5.087   6.942   0.091
11685TIP3    H234997   4.945   6.977   0.052
11686TIP3   OH234998   8.139   1.093   0.075
11686TIP3    H134999   8.144   1.147  -0.004
11686TIP3    H235000   8.053   1.051   0.070
11687TIP3   OH235001   8.301   5.529   3.059
11687TIP3    H135002   8.334   5.505   3.145
11687TIP3    H235003   8.312   5.624   3.054
11688TIP3   OH235004   7.929   1.583   4.215
11688TIP3    H135005   7.908   1.595   4.123
11688TIP3    H235006   7.965   1.668   4.243
11689TIP3   OH235007   5.004   1.603   6.827
11689TIP3    H135008   5.060   1.553   6.886
11689TIP3    H235009   5.064   1.662   6.781
11690TIP3   OH235010   3.021   4.406   0.218
11690TIP3    H135011   3.047   4.315   0.206
11690TIP3    H235012   3.042   4.425   0.309
11691TIP3   OH235013   0.947   2.498   3.333
11691TIP3    H135014   0.963   2.585   3.295
11691TIP3    H235015   1.030   2.475   3.374
11692TIP3   OH235016   0.020   0.617   4.625
11692TIP3    H135017  -0.066   0.624   4.666
11692TIP3    H235018   0.071   0.689   4.662
11693TIP3   OH235019   7.137   3.775   4.582
11693TIP3    H135020   7.062   3.717   4.578
11693TIP3    H235021   7.212   3.717   4.592
11694TIP3   OH235022   2.515   3.024   1.318
11694TIP3    H135023   2.441   3.044   1.261
11694TIP3    H235024   2.524   2.929   1.314
11695TIP3   OH235025   4.296   6.936   5.326
11695TIP3    H135026   4.240   7.000   5.282
11695TIP3    H235027   4.318   6.873   5.258
11696TIP3   OH235028   2.055   0.027   2.130
11696TIP3    H135029   1.961   0.042   2.121
11696TIP3    H235030   2.062  -0.063   2.161
11697TIP3   OH235031   4.278   0.739   2.838
11697TIP3    H135032   4.244   0.808   2.782
11697TIP3    H235033   4.230   0.749   2.920
11698TIP3   OH235034   0.073   5.902   3.396
11698TIP3    H135035  -0.014   5.878   3.426
11698TIP3    H235036   0.123   5.820   3.395
11699TIP3   OH235037   5.426   0.054   2.877
11699TIP3    H135038   5.371   0.074   2.802
11699TIP3    H235039   5.487  -0.012   2.845
11700TIP3   OH235040   4.442   5.086   0.039
11700TIP3    H135041   4.429   5.148  -0.033
11700TIP3    H235042   4.537   5.081   0.050
11701TIP3   OH235043   0.614   5.488   5.226
11701TIP3    H135044   0.690   5.541   5.202
11701TIP3    H235045   0.586   5.522   5.311
11702TIP3   OH235046   0.263   4.465   0.967
11702TIP3    H135047   0.221   4.390   1.010
11702TIP3    H235048   0.344   4.478   1.016
11703TIP3   OH235049   6.527   1.971   1.250
11703TIP3    H135050   6.585   2.006   1.317
11703TIP3    H235051   6.574   1.896   1.214
11704TIP3   OH235052   2.592   2.323   5.745
11704TIP3    H135053   2.591   2.280   5.660
11704TIP3    H235054   2.600   2.252   5.808
11705TIP3   OH235055   7.084   5.349   6.328
11705TIP3    H135056   7.165   5.362   6.279
11705TIP3    H235057   7.112   5.329   6.417
11706TIP3   OH235058   4.206   0.189   0.807
11706TIP3    H135059   4.279   0.241   0.838
11706TIP3    H235060   4.157   0.166   0.886
11707TIP3   OH235061   7.261   6.540   0.918
11707TIP3    H135062   7.208   6.619   0.928
11707TIP3    H235063   7.283   6.514   1.007
11708TIP3   OH235064   1.039   4.382   0.965
11708TIP3    H135065   1.109   4.343   1.019
11708TIP3    H235066   0.961   4.333   0.990
11709TIP3   OH235067   3.390   1.934   6.702
11709TIP3    H135068   3.429   1.847   6.699
11709TIP3    H235069   3.325   1.934   6.631
11710TIP3   OH235070   4.011   5.377   2.662
11710TIP3    H135071   4.057   5.458   2.638
11710TIP3    H235072   4.073   5.307   2.641
11711TIP3   OH235073   6.103   2.299   6.758
11711TIP3    H135074   6.048   2.375   6.741
11711TIP3    H235075   6.148   2.282   6.676
11712TIP3   OH235076   2.177   7.853   5.529
11712TIP3    H135077   2.226   7.832   5.449
11712TIP3    H235078   2.242   7.891   5.588
11713TIP3   OH235079   4.898   3.093   3.383
11713TIP3    H135080   4.815   3.086   3.429
11713TIP3    H235081   4.876   3.080   3.291
11714TIP3   OH235082   1.324   0.562   5.617
11714TIP3    H135083   1.404   0.600   5.654
11714TIP3    H235084   1.272   0.537   5.694
11715TIP3   OH235085   7.449   3.996   0.835
11715TIP3    H135086   7.456   4.013   0.741
11715TIP3    H235087   7.368   3.945   0.843
11716TIP3   OH235088   4.798   5.461   0.407
11716TIP3    H135089   4.726   5.411   0.370
11716TIP3    H235090   4.782   5.551   0.379
11717TIP3   OH235091   0.108   2.254   1.778
11717TIP3    H135092   0.023   2.297   1.769
11717TIP3    H235093   0.165   2.299   1.716
11718TIP3   OH235094   1.902   3.136   4.644
11718TIP3    H135095   1.978   3.081   4.624
11718TIP3    H235096   1.882   3.180   4.561
11719TIP3   OH235097   5.762   1.524   1.698
11719TIP3    H135098   5.715   1.442   1.679
11719TIP3    H235099   5.735   1.547   1.786
11720TIP3   OH235100   8.002   2.265   5.085
11720TIP3    H135101   7.953   2.185   5.107
11720TIP3    H235102   7.962   2.333   5.139
11721TIP3   OH235103   1.303   1.863   3.207
11721TIP3    H135104   1.352   1.784   3.231
11721TIP3    H235105   1.212   1.840   3.225
11722TIP3   OH235106   5.910   5.905   6.825
11722TIP3    H135107   5.922   5.975   6.888
11722TIP3    H235108   5.815   5.897   6.815
11723TIP3   OH235109   2.298   5.629   5.254
11723TIP3    H135110   2.249   5.711   5.254
11723TIP3    H235111   2.263   5.580   5.328
11724TIP3   OH235112   1.837   4.383   6.012
11724TIP3    H135113   1.890   4.411   6.087
11724TIP3    H235114   1.863   4.292   5.997
11725TIP3   OH235115   5.180   1.709   5.747
11725TIP3    H135116   5.202   1.622   5.714
11725TIP3    H235117   5.099   1.732   5.702
11726TIP3   OH235118   6.821   3.414   4.823
11726TIP3    H135119   6.864   3.486   4.869
11726TIP3    H235120   6.872   3.336   4.846
11727TIP3   OH235121   1.498   7.338   4.382
11727TIP3    H135122   1.409   7.367   4.364
11727TIP3    H235123   1.508   7.350   4.477
11728TIP3   OH235124   4.134   5.310   5.573
11728TIP3    H135125   4.097   5.238   5.625
11728TIP3    H235126   4.173   5.368   5.638
11729TIP3   OH235127   7.165   2.257   1.468
11729TIP3    H135128   7.243   2.300   1.434
11729TIP3    H235129   7.192   2.220   1.552
11730TIP3   OH235130   8.226   4.526   1.669
11730TIP3    H135131   8.290   4.463   1.699
11730TIP3    H235132   8.271   4.610   1.672
11731TIP3   OH235133   8.145   1.543   1.419
11731TIP3    H135134   8.180   1.630   1.398
11731TIP3    H235135   8.086   1.559   1.493
11732TIP3   OH235136   7.024   0.333   4.452
11732TIP3    H135137   7.090   0.356   4.386
11732TIP3    H235138   7.000   0.243   4.431
11733TIP3   OH235139   3.993   3.898   6.385
11733TIP3    H135140   3.920   3.932   6.333
11733TIP3    H235141   3.956   3.825   6.434
11734TIP3   OH235142   4.664   4.306   3.908
11734TIP3    H135143   4.644   4.234   3.967
11734TIP3    H235144   4.753   4.332   3.931
11735TIP3   OH235145   2.682   0.956   6.371
11735TIP3    H135146   2.667   1.024   6.306
11735TIP3    H235147   2.761   0.911   6.341
11736TIP3   OH235148   6.338   5.200   4.372
11736TIP3    H135149   6.339   5.183   4.466
11736TIP3    H235150   6.336   5.296   4.365
11737TIP3   OH235151   1.589   7.497   2.718
11737TIP3    H135152   1.563   7.564   2.781
11737TIP3    H235153   1.554   7.530   2.634
11738TIP3   OH235154   5.755   5.136   3.867
11738TIP3    H135155   5.720   5.064   3.815
11738TIP3    H235156   5.715   5.215   3.830
11739TIP3   OH235157   6.622   0.368   0.313
11739TIP3    H135158   6.636   0.372   0.218
11739TIP3    H235159   6.540   0.320   0.323
11740TIP3   OH235160   2.894   7.871   5.964
11740TIP3    H135161   2.953   7.824   6.023
11740TIP3    H235162   2.916   7.838   5.877
11741TIP3   OH235163   3.673   4.127   1.038
11741TIP3    H135164   3.748   4.136   1.097
11741TIP3    H235165   3.665   4.033   1.023
11742TIP3   OH235166   7.243   2.707   4.414
11742TIP3    H135167   7.332   2.709   4.379
11742TIP3    H235168   7.208   2.623   4.385
11743TIP3   OH235169   7.168   6.018   3.410
11743TIP3    H135170   7.118   6.087   3.452
11743TIP3    H235171   7.238   6.064   3.363
11744TIP3   OH235172   1.197   6.256   3.725
11744TIP3    H135173   1.134   6.203   3.677
11744TIP3    H235174   1.271   6.266   3.665
11745TIP3   OH235175   7.219   6.650   0.640
11745TIP3    H135176   7.272   6.617   0.568
11745TIP3    H235177   7.251   6.604   0.717
11746TIP3   OH235178   4.950   0.262   2.803
11746TIP3    H135179   4.889   0.290   2.734
11746TIP3    H235180   4.905   0.189   2.846
11747TIP3   OH235181   6.581   0.958   1.240
11747TIP3    H135182   6.602   0.968   1.333
11747TIP3    H235183   6.486   0.968   1.236
11748TIP3   OH235184   2.958   1.779   0.586
11748TIP3    H135185   3.016   1.852   0.610
11748TIP3    H235186   2.968   1.770   0.491
11749TIP3   OH235187   5.025   3.653   6.008
11749TIP3    H135188   4.949   3.595   6.001
11749TIP3    H235189   4.995   3.737   5.974
11750TIP3   OH235190   0.048   6.665   1.797
11750TIP3    H135191   0.048   6.578   1.757
11750TIP3    H235192   0.133   6.670   1.842
11751TIP3   OH235193   4.628   1.216   5.905
11751TIP3    H135194   4.533   1.221   5.899
11751TIP3    H235195   4.645   1.125   5.930
11752TIP3   OH235196   0.795   7.768   3.615
11752TIP3    H135197   0.704   7.738   3.609
11752TIP3    H235198   0.846   7.687   3.619
11753TIP3   OH235199   2.284   7.054   6.131
11753TIP3    H135200   2.314   7.126   6.188
11753TIP3    H235201   2.352   6.988   6.139
11754TIP3   OH235202   1.680   6.685   4.115
11754TIP3    H135203   1.749   6.698   4.180
11754TIP3    H235204   1.714   6.726   4.036
11755TIP3   OH235205   1.361   0.992   5.318
11755TIP3    H135206   1.287   1.014   5.374
11755TIP3    H235207   1.347   0.901   5.293
11756TIP3   OH235208   2.546   7.012   1.117
11756TIP3    H135209   2.522   6.941   1.058
11756TIP3    H235210   2.470   7.069   1.118
11757TIP3   OH235211   7.757   0.181   5.822
11757TIP3    H135212   7.668   0.206   5.800
11757TIP3    H235213   7.782   0.118   5.755
11758TIP3   OH235214   1.358   6.025   1.470
11758TIP3    H135215   1.331   5.989   1.554
11758TIP3    H235216   1.436   6.076   1.490
11759TIP3   OH235217   2.710   5.587   2.747
11759TIP3    H135218   2.789   5.630   2.781
11759TIP3    H235219   2.730   5.493   2.751
11760TIP3   OH235220   5.437   0.227   3.645
11760TIP3    H135221   5.379   0.290   3.689
11760TIP3    H235222   5.524   0.267   3.651
11761TIP3   OH235223   4.684   4.225   1.542
11761TIP3    H135224   4.675   4.190   1.631
11761TIP3    H235225   4.628   4.168   1.489
11762TIP3   OH235226   0.994   4.357   2.380
11762TIP3    H135227   1.009   4.277   2.332
11762TIP3    H235228   0.944   4.412   2.320
11763TIP3   OH235229   5.722   2.548   5.521
11763TIP3    H135230   5.718   2.620   5.584
11763TIP3    H235231   5.801   2.499   5.546
11764TIP3   OH235232   8.394   3.330   3.739
11764TIP3    H135233   8.344   3.411   3.731
11764TIP3    H235234   8.346   3.266   3.687
11765TIP3   OH235235   0.203   5.808   3.959
11765TIP3    H135236   0.161   5.728   3.989
11765TIP3    H235237   0.226   5.791   3.868
11766TIP3   OH235238   0.704   4.320   2.905
11766TIP3    H135239   0.688   4.283   2.818
11766TIP3    H235240   0.739   4.246   2.955
11767TIP3   OH235241   3.767   5.555   5.749
11767TIP3    H135242   3.801   5.589   5.667
11767TIP3    H235243   3.803   5.467   5.756
11768TIP3   OH235244   8.035   1.863   6.677
11768TIP3    H135245   8.070   1.774   6.669
11768TIP3    H235246   7.978   1.874   6.601
11769TIP3   OH235247   5.946   3.179   2.532
11769TIP3    H135248   5.921   3.271   2.524
11769TIP3    H235249   5.999   3.176   2.612
11770TIP3   OH235250   3.623   5.493   3.004
11770TIP3    H135251   3.593   5.521   3.090
11770TIP3    H235252   3.710   5.531   2.995
11771TIP3   OH235253   3.192   5.771   1.618
11771TIP3    H135254   3.117   5.809   1.663
11771TIP3    H235255   3.153   5.717   1.550
11772TIP3   OH235256   4.948   3.339   5.553
11772TIP3    H135257   5.017   3.369   5.494
11772TIP3    H235258   4.870   3.388   5.526
11773TIP3   OH235259   3.439   1.227   4.819
11773TIP3    H135260   3.345   1.247   4.826
11773TIP3    H235261   3.478   1.307   4.784
11774TIP3   OH235262   1.416   5.378   4.130
11774TIP3    H135263   1.444   5.397   4.219
11774TIP3    H235264   1.487   5.412   4.075
11775TIP3   OH235265   0.681   5.076   0.873
11775TIP3    H135266   0.657   5.095   0.964
11775TIP3    H235267   0.635   4.995   0.852
11776TIP3   OH235268   3.385   1.231   0.367
11776TIP3    H135269   3.412   1.322   0.363
11776TIP3    H235270   3.467   1.182   0.370
11777TIP3   OH235271   1.101   0.102   2.938
11777TIP3    H135272   1.119   0.194   2.917
11777TIP3    H235273   1.010   0.089   2.912
11778TIP3   OH235274   5.188   3.162   6.816
11778TIP3    H135275   5.166   3.182   6.725
11778TIP3    H235276   5.262   3.218   6.836
11779TIP3   OH235277   6.566   4.194   1.406
11779TIP3    H135278   6.502   4.206   1.477
11779TIP3    H235279   6.650   4.220   1.444
11780TIP3   OH235280   3.988   0.358   2.411
11780TIP3    H135281   4.056   0.298   2.380
11780TIP3    H235282   4.012   0.376   2.502
11781TIP3   OH235283   6.873   0.738   4.021
11781TIP3    H135284   6.890   0.731   4.115
11781TIP3    H235285   6.948   0.787   3.987
11782TIP3   OH235286   6.459   6.495   2.461
11782TIP3    H135287   6.386   6.473   2.404
11782TIP3    H235288   6.430   6.471   2.549
11783TIP3   OH235289   3.974   5.450   3.487
11783TIP3    H135290   4.001   5.441   3.578
11783TIP3    H235291   4.038   5.399   3.437
11784TIP3   OH235292   4.986   1.162   0.504
11784TIP3    H135293   4.893   1.154   0.525
11784TIP3    H235294   5.010   1.251   0.532
11785TIP3   OH235295   5.566   1.213   3.986
11785TIP3    H135296   5.577   1.303   4.016
11785TIP3    H235297   5.491   1.181   4.036
11786TIP3   OH235298   8.324   2.431   0.104
11786TIP3    H135299   8.338   2.341   0.132
11786TIP3    H235300   8.249   2.461   0.155
11787TIP3   OH235301   0.470   5.237   5.979
11787TIP3    H135302   0.499   5.323   5.948
11787TIP3    H235303   0.551   5.192   6.003
11788TIP3   OH235304   2.635   7.176   5.008
11788TIP3    H135305   2.683   7.095   5.023
11788TIP3    H235306   2.550   7.163   5.050
11789TIP3   OH235307   2.616   6.200   0.347
11789TIP3    H135308   2.666   6.282   0.354
11789TIP3    H235309   2.529   6.228   0.316
11790TIP3   OH235310   6.305   3.862   2.105
11790TIP3    H135311   6.330   3.886   2.016
11790TIP3    H235312   6.279   3.770   2.099
11791TIP3   OH235313   3.418   4.867   5.367
11791TIP3    H135314   3.409   4.780   5.327
11791TIP3    H235315   3.447   4.923   5.295
11792TIP3   OH235316   1.570   6.011   5.687
11792TIP3    H135317   1.636   6.021   5.618
11792TIP3    H235318   1.620   6.014   5.769
11793TIP3   OH235319   8.292   4.518   5.358
11793TIP3    H135320   8.328   4.607   5.349
11793TIP3    H235321   8.255   4.516   5.446
11794TIP3   OH235322   2.810   1.576   0.703
11794TIP3    H135323   2.870   1.648   0.687
11794TIP3    H235324   2.739   1.589   0.639
11795TIP3   OH235325   4.809   0.492   5.262
11795TIP3    H135326   4.888   0.438   5.259
11795TIP3    H235327   4.839   0.575   5.298
11796TIP3   OH235328   8.378   3.717   5.776
11796TIP3    H135329   8.299   3.670   5.749
11796TIP3    H235330   8.450   3.663   5.743
11797TIP3   OH235331   4.033   0.660   4.065
11797TIP3    H135332   4.057   0.735   4.121
11797TIP3    H235333   3.955   0.690   4.018
11798TIP3   OH235334   4.733   4.451   2.933
11798TIP3    H135335   4.772   4.367   2.956
11798TIP3    H235336   4.799   4.493   2.877
11799TIP3   OH235337   7.677   2.937   3.583
11799TIP3    H135338   7.768   2.951   3.608
11799TIP3    H235339   7.674   2.846   3.552
11800TIP3   OH235340   1.675   5.163   2.846
11800TIP3    H135341   1.709   5.084   2.887
11800TIP3    H235342   1.704   5.157   2.755
11801TIP3   OH235343   0.471   3.200   5.022
11801TIP3    H135344   0.411   3.274   5.026
11801TIP3    H235345   0.415   3.122   5.026
11802TIP3   OH235346   2.241   7.532   0.704
11802TIP3    H135347   2.284   7.613   0.678
11802TIP3    H235348   2.187   7.508   0.629
11803TIP3   OH235349   8.088   0.474   5.596
11803TIP3    H135350   8.020   0.525   5.640
11803TIP3    H235351   8.052   0.385   5.591
11804TIP3   OH235352   4.977   7.834   1.921
11804TIP3    H135353   4.895   7.875   1.893
11804TIP3    H235354   5.006   7.887   1.995
11805TIP3   OH235355   4.913   5.704   5.131
11805TIP3    H135356   4.925   5.799   5.136
11805TIP3    H235357   4.851   5.684   5.201
11806TIP3   OH235358   4.608   1.383   2.200
11806TIP3    H135359   4.542   1.345   2.257
11806TIP3    H235360   4.559   1.418   2.126
11807TIP3   OH235361   4.687   1.678   2.092
11807TIP3    H135362   4.624   1.630   2.038
11807TIP3    H235363   4.741   1.610   2.131
11808TIP3   OH235364   0.265   6.839   5.192
11808TIP3    H135365   0.242   6.867   5.280
11808TIP3    H235366   0.318   6.761   5.205
11809TIP3   OH235367   6.153   7.514   5.024
11809TIP3    H135368   6.066   7.476   5.041
11809TIP3    H235369   6.152   7.597   5.070
11810TIP3   OH235370   6.406   6.299   0.868
11810TIP3    H135371   6.449   6.384   0.862
11810TIP3    H235372   6.478   6.235   0.865
11811TIP3   OH235373   1.861   5.129   3.918
11811TIP3    H135374   1.880   5.160   3.829
11811TIP3    H235375   1.878   5.035   3.915
11812TIP3   OH235376   2.587   0.966   1.652
11812TIP3    H135377   2.544   0.887   1.617
11812TIP3    H235378   2.620   0.939   1.737
11813TIP3   OH235379   4.347   3.427   4.357
11813TIP3    H135380   4.368   3.335   4.376
11813TIP3    H235381   4.265   3.422   4.306
11814TIP3   OH235382   6.673   7.322   2.076
11814TIP3    H135383   6.702   7.262   2.007
11814TIP3    H235384   6.664   7.407   2.032
11815TIP3   OH235385   1.884   4.190   5.629
11815TIP3    H135386   1.851   4.247   5.559
11815TIP3    H235387   1.806   4.158   5.673
11816TIP3   OH235388   0.281   4.151   5.488
11816TIP3    H135389   0.298   4.235   5.531
11816TIP3    H235390   0.194   4.160   5.449
11817TIP3   OH235391   2.802   2.510   2.293
11817TIP3    H135392   2.737   2.442   2.278
11817TIP3    H235393   2.836   2.531   2.206
11818TIP3   OH235394   7.357   7.870   6.263
11818TIP3    H135395   7.409   7.804   6.218
11818TIP3    H235396   7.358   7.843   6.355
11819TIP3   OH235397   2.728   6.872   2.644
11819TIP3    H135398   2.742   6.825   2.726
11819TIP3    H235399   2.759   6.812   2.576
11820TIP3   OH235400   1.877   7.071   4.842
11820TIP3    H135401   1.875   7.060   4.747
11820TIP3    H235402   1.802   7.020   4.874
11821TIP3   OH235403   5.668   5.508   3.614
11821TIP3    H135404   5.735   5.575   3.603
11821TIP3    H235405   5.669   5.487   3.707
11822TIP3   OH235406   8.111   1.470   6.194
11822TIP3    H135407   8.020   1.491   6.173
11822TIP3    H235408   8.157   1.553   6.189
11823TIP3   OH235409   1.316   7.740   1.285
11823TIP3    H135410   1.317   7.668   1.348
11823TIP3    H235411   1.386   7.718   1.223
11824TIP3   OH235412   8.258   6.563   3.546
11824TIP3    H135413   8.307   6.627   3.597
11824TIP3    H235414   8.166   6.591   3.556
11825TIP3   OH235415   5.887   0.057   4.931
11825TIP3    H135416   5.859   0.065   4.840
11825TIP3    H235417   5.810   0.080   4.982
11826TIP3   OH235418   4.912   0.680   5.488
11826TIP3    H135419   4.883   0.725   5.409
11826TIP3    H235420   4.859   0.718   5.558
11827TIP3   OH235421   5.922   2.698   4.374
11827TIP3    H135422   5.896   2.692   4.282
11827TIP3    H235423   6.018   2.699   4.372
11828TIP3   OH235424   2.288   1.279   3.259
11828TIP3    H135425   2.267   1.360   3.306
11828TIP3    H235426   2.263   1.297   3.168
11829TIP3   OH235427   2.580   0.267   1.515
11829TIP3    H135428   2.538   0.187   1.545
11829TIP3    H235429   2.624   0.243   1.433
11830TIP3   OH235430   6.247   5.967   5.639
11830TIP3    H135431   6.195   6.037   5.598
11830TIP3    H235432   6.325   6.012   5.672
11831TIP3   OH235433   4.418   2.445   5.980
11831TIP3    H135434   4.340   2.398   5.950
11831TIP3    H235435   4.416   2.528   5.932
11832TIP3   OH235436   1.639   2.658   6.705
11832TIP3    H135437   1.632   2.739   6.655
11832TIP3    H235438   1.559   2.656   6.758
11833TIP3   OH235439   1.476   6.974   6.589
11833TIP3    H135440   1.428   7.057   6.591
11833TIP3    H235441   1.555   6.990   6.640
11834TIP3   OH235442   3.453   7.020   5.637
11834TIP3    H135443   3.439   7.011   5.732
11834TIP3    H235444   3.448   7.114   5.620
11835TIP3   OH235445   4.187   1.722   2.299
11835TIP3    H135446   4.098   1.696   2.277
11835TIP3    H235447   4.178   1.778   2.376
11836TIP3   OH235448   5.351   3.887   3.361
11836TIP3    H135449   5.258   3.884   3.384
11836TIP3    H235450   5.356   3.844   3.276
11837TIP3   OH235451   5.285   5.794   2.839
11837TIP3    H135452   5.295   5.888   2.857
11837TIP3    H235453   5.234   5.762   2.913
11838TIP3   OH235454   6.584   4.901   5.322
11838TIP3    H135455   6.654   4.837   5.341
11838TIP3    H235456   6.504   4.858   5.351
11839TIP3   OH235457   2.565   6.646   5.014
11839TIP3    H135458   2.588   6.688   5.097
11839TIP3    H235459   2.621   6.568   5.011
11840TIP3   OH235460   2.387   3.436   1.753
11840TIP3    H135461   2.294   3.444   1.730
11840TIP3    H235462   2.433   3.457   1.672
11841TIP3   OH235463   4.952   6.217   3.543
11841TIP3    H135464   4.921   6.250   3.628
11841TIP3    H235465   5.040   6.185   3.561
11842TIP3   OH235466   6.006   4.460   1.372
11842TIP3    H135467   6.076   4.452   1.306
11842TIP3    H235468   6.002   4.554   1.390
11843TIP3   OH235469   3.857   1.181   3.733
11843TIP3    H135470   3.817   1.156   3.649
11843TIP3    H235471   3.815   1.263   3.756
11844TIP3   OH235472   3.692   5.449   6.763
11844TIP3    H135473   3.738   5.378   6.718
11844TIP3    H235474   3.603   5.417   6.775
11845TIP3   OH235475   1.236   0.892   4.905
11845TIP3    H135476   1.308   0.950   4.930
11845TIP3    H235477   1.274   0.834   4.839
11846TIP3   OH235478   2.573   3.246   5.964
11846TIP3    H135479   2.627   3.197   5.902
11846TIP3    H235480   2.635   3.299   6.013
11847TIP3   OH235481   8.421   6.140   0.580
11847TIP3    H135482   8.374   6.161   0.499
11847TIP3    H235483   8.353   6.141   0.648
11848TIP3   OH235484   0.236   2.037   0.418
11848TIP3    H135485   0.236   2.041   0.323
11848TIP3    H235486   0.177   1.965   0.439
11849TIP3   OH235487   3.246   4.232   1.365
11849TIP3    H135488   3.340   4.242   1.384
11849TIP3    H235489   3.242   4.158   1.304
11850TIP3   OH235490   1.261   2.484   5.138
11850TIP3    H135491   1.204   2.444   5.072
11850TIP3    H235492   1.262   2.577   5.114
11851TIP3   OH235493   2.081   4.322   6.715
11851TIP3    H135494   2.044   4.344   6.800
11851TIP3    H235495   2.175   4.310   6.732
11852TIP3   OH235496   3.727   7.249   4.816
11852TIP3    H135497   3.758   7.271   4.905
11852TIP3    H235498   3.720   7.334   4.772
11853TIP3   OH235499   0.630   2.830   3.335
11853TIP3    H135500   0.692   2.883   3.285
11853TIP3    H235501   0.646   2.856   3.426
11854TIP3   OH235502   5.617   5.614   6.751
11854TIP3    H135503   5.647   5.702   6.778
11854TIP3    H235504   5.616   5.564   6.832
11855TIP3   OH235505   2.082   1.619   0.253
11855TIP3    H135506   2.123   1.696   0.291
11855TIP3    H235507   1.988   1.639   0.254
11856TIP3   OH235508   2.388   6.152   1.433
11856TIP3    H135509   2.377   6.161   1.339
11856TIP3    H235510   2.372   6.240   1.468
11857TIP3   OH235511   1.183   3.672   4.418
11857TIP3    H135512   1.192   3.731   4.344
11857TIP3    H235513   1.208   3.724   4.494
11858TIP3   OH235514   6.229   4.181   1.409
11858TIP3    H135515   6.147   4.196   1.455
11858TIP3    H235516   6.296   4.193   1.476
11859TIP3   OH235517   5.419   6.772   5.096
11859TIP3    H135518   5.508   6.808   5.100
11859TIP3    H235519   5.375   6.809   5.173
11860TIP3   OH235520   7.018   7.458   2.208
11860TIP3    H135521   7.009   7.498   2.122
11860TIP3    H235522   6.936   7.409   2.220
11861TIP3   OH235523   2.307   7.048   3.179
11861TIP3    H135524   2.259   7.052   3.097
11861TIP3    H235525   2.273   6.970   3.223
11862TIP3   OH235526   1.560   7.876   3.174
11862TIP3    H135527   1.620   7.949   3.188
11862TIP3    H235528   1.480   7.902   3.220
11863TIP3   OH235529   0.025   1.428   0.350
11863TIP3    H135530   0.057   1.402   0.437
11863TIP3    H235531  -0.069   1.411   0.353
11864TIP3   OH235532  -0.006   0.962   1.075
11864TIP3    H135533   0.039   1.016   1.010
11864TIP3    H235534   0.063   0.934   1.136
11865TIP3   OH235535   6.215   1.223   6.192
11865TIP3    H135536   6.280   1.191   6.255
11865TIP3    H235537   6.176   1.299   6.234
11866TIP3   OH235538   7.518   1.259   2.285
11866TIP3    H135539   7.531   1.177   2.333
11866TIP3    H235540   7.524   1.327   2.352
11867TIP3   OH235541   3.733   0.519   4.341
11867TIP3    H135542   3.827   0.504   4.331
11867TIP3    H235543   3.692   0.467   4.273
11868TIP3   OH235544   5.823   3.415   2.557
11868TIP3    H135545   5.771   3.474   2.502
11868TIP3    H235546   5.829   3.460   2.641
11869TIP3   OH235547   5.210   4.769   3.696
11869TIP3    H135548   5.146   4.840   3.703
11869TIP3    H235549   5.157   4.691   3.682
11870TIP3   OH235550   5.160   0.169   3.100
11870TIP3    H135551   5.252   0.164   3.127
11870TIP3    H235552   5.157   0.246   3.043
11871TIP3   OH235553   1.572   4.132   5.425
11871TIP3    H135554   1.648   4.074   5.415
11871TIP3    H235555   1.521   4.091   5.495
11872TIP3   OH235556   2.096   2.219   5.866
11872TIP3    H135557   2.040   2.294   5.888
11872TIP3    H235558   2.181   2.258   5.846
11873TIP3   OH235559   5.947   1.309   2.397
11873TIP3    H135560   5.942   1.330   2.491
11873TIP3    H235561   6.035   1.336   2.372
11874TIP3   OH235562   2.309   4.673   5.887
11874TIP3    H135563   2.323   4.655   5.980
11874TIP3    H235564   2.217   4.650   5.872
11875TIP3   OH235565   4.242   0.289   3.444
11875TIP3    H135566   4.203   0.359   3.498
11875TIP3    H235567   4.299   0.242   3.503
11876TIP3   OH235568   6.852   3.851   5.632
11876TIP3    H135569   6.869   3.761   5.605
11876TIP3    H235570   6.778   3.878   5.578
11877TIP3   OH235571   0.382   7.661   1.845
11877TIP3    H135572   0.346   7.675   1.757
11877TIP3    H235573   0.471   7.696   1.840
11878TIP3   OH235574   0.762   5.976   3.638
11878TIP3    H135575   0.696   5.908   3.628
11878TIP3    H235576   0.714   6.058   3.625
11879TIP3   OH235577   1.486   6.129   6.215
11879TIP3    H135578   1.455   6.147   6.303
11879TIP3    H235579   1.414   6.156   6.158
11880TIP3   OH235580   2.179   0.420   6.070
11880TIP3    H135581   2.249   0.485   6.080
11880TIP3    H235582   2.189   0.363   6.146
11881TIP3   OH235583   4.641   3.907   4.229
11881TIP3    H135584   4.648   3.916   4.134
11881TIP3    H235585   4.731   3.896   4.259
11882TIP3   OH235586   5.541   7.816   5.503
11882TIP3    H135587   5.583   7.901   5.516
11882TIP3    H235588   5.592   7.755   5.556
11883TIP3   OH235589   4.173   3.191   3.402
11883TIP3    H135590   4.229   3.113   3.401
11883TIP3    H235591   4.084   3.157   3.407
11884TIP3   OH235592   0.892   4.277   2.620
11884TIP3    H135593   0.848   4.202   2.579
11884TIP3    H235594   0.934   4.323   2.547
11885TIP3   OH235595   0.493   2.339   6.573
11885TIP3    H135596   0.413   2.391   6.571
11885TIP3    H235597   0.542   2.368   6.496
11886TIP3   OH235598   5.445   3.225   0.668
11886TIP3    H135599   5.539   3.214   0.686
11886TIP3    H235600   5.405   3.145   0.702
11887TIP3   OH235601   5.479   2.797   4.067
11887TIP3    H135602   5.552   2.852   4.095
11887TIP3    H235603   5.449   2.836   3.985
11888TIP3   OH235604   1.206   6.789   3.966
11888TIP3    H135605   1.206   6.862   4.029
11888TIP3    H235606   1.174   6.828   3.885
11889TIP3   OH235607   2.982   3.077   4.768
11889TIP3    H135608   2.929   3.096   4.846
11889TIP3    H235609   2.989   2.981   4.767
11890TIP3   OH235610   2.192   7.428   2.879
11890TIP3    H135611   2.264   7.467   2.830
11890TIP3    H235612   2.219   7.438   2.971
11891TIP3   OH235613   3.157   1.134   1.263
11891TIP3    H135614   3.233   1.193   1.260
11891TIP3    H235615   3.111   1.159   1.343
11892TIP3   OH235616   4.061   5.736   1.287
11892TIP3    H135617   4.089   5.706   1.373
11892TIP3    H235618   3.976   5.778   1.303
11893TIP3   OH235619   6.194   6.763   3.153
11893TIP3    H135620   6.260   6.734   3.216
11893TIP3    H235621   6.242   6.817   3.091
11894TIP3   OH235622   7.627   6.980   4.923
11894TIP3    H135623   7.567   6.969   4.849
11894TIP3    H235624   7.608   6.906   4.980
11895TIP3   OH235625   6.253   4.073   6.323
11895TIP3    H135626   6.309   4.065   6.245
11895TIP3    H235627   6.164   4.059   6.290
11896TIP3   OH235628   6.158   1.390   4.323
11896TIP3    H135629   6.075   1.420   4.287
11896TIP3    H235630   6.164   1.434   4.408
11897TIP3   OH235631   8.097   0.987   3.262
11897TIP3    H135632   8.114   0.900   3.226
11897TIP3    H235633   8.002   0.992   3.268
11898TIP3   OH235634   7.178   5.299   1.038
11898TIP3    H135635   7.138   5.323   1.121
11898TIP3    H235636   7.178   5.203   1.037
11899TIP3   OH235637   6.460   4.183   5.798
11899TIP3    H135638   6.475   4.091   5.817
11899TIP3    H235639   6.496   4.196   5.710
11900TIP3   OH235640   3.254   2.829   1.854
11900TIP3    H135641   3.307   2.773   1.797
11900TIP3    H235642   3.318   2.876   1.907
11901TIP3   OH235643   1.623   5.339   5.200
11901TIP3    H135644   1.646   5.357   5.292
11901TIP3    H235645   1.669   5.258   5.179
11902TIP3   OH235646   1.977   5.826   0.888
11902TIP3    H135647   2.047   5.766   0.865
11902TIP3    H235648   2.022   5.904   0.921
11903TIP3   OH235649   3.265   2.422   4.567
11903TIP3    H135650   3.295   2.467   4.646
11903TIP3    H235651   3.224   2.341   4.600
11904TIP3   OH235652   0.414   5.094   2.208
11904TIP3    H135653   0.352   5.098   2.281
11904TIP3    H235654   0.372   5.143   2.137
11905TIP3   OH235655   5.461   1.812   1.381
11905TIP3    H135656   5.504   1.807   1.466
11905TIP3    H235657   5.501   1.742   1.329
11906TIP3   OH235658   2.023   2.841   4.872
11906TIP3    H135659   1.947   2.883   4.912
11906TIP3    H235660   2.063   2.909   4.818
11907TIP3   OH235661   2.108   7.349   2.298
11907TIP3    H135662   2.144   7.279   2.244
11907TIP3    H235663   2.016   7.326   2.310
11908TIP3   OH235664   7.192   3.126   2.262
11908TIP3    H135665   7.191   3.149   2.355
11908TIP3    H235666   7.223   3.036   2.260
11909TIP3   OH235667   5.019   4.527   5.518
11909TIP3    H135668   5.011   4.488   5.605
11909TIP3    H235669   5.112   4.545   5.508
11910TIP3   OH235670   8.105   1.601   6.544
11910TIP3    H135671   8.037   1.535   6.556
11910TIP3    H235672   8.182   1.564   6.587
11911TIP3   OH235673   4.787   7.665   3.443
11911TIP3    H135674   4.800   7.747   3.395
11911TIP3    H235675   4.825   7.683   3.530
11912TIP3   OH235676   0.173   0.408   4.513
11912TIP3    H135677   0.129   0.486   4.546
11912TIP3    H235678   0.117   0.335   4.540
11913TIP3   OH235679   4.868   7.656   5.726
11913TIP3    H135680   4.777   7.639   5.749
11913TIP3    H235681   4.917   7.636   5.805
11914TIP3   OH235682   0.258   3.028   3.503
11914TIP3    H135683   0.233   2.962   3.567
11914TIP3    H235684   0.321   3.084   3.548
11915TIP3   OH235685   2.326   0.169   4.228
11915TIP3    H135686   2.370   0.108   4.169
11915TIP3    H235687   2.306   0.117   4.305
11916TIP3   OH235688   6.301   3.629   0.038
11916TIP3    H135689   6.214   3.661   0.061
11916TIP3    H235690   6.361   3.682   0.091
11917TIP3   OH235691   0.601   0.689   5.672
11917TIP3    H135692   0.515   0.729   5.658
11917TIP3    H235693   0.636   0.676   5.584
11918TIP3   OH235694   5.177   5.773   1.436
11918TIP3    H135695   5.206   5.845   1.492
11918TIP3    H235696   5.242   5.704   1.450
11919TIP3   OH235697   7.366   0.589   2.869
11919TIP3    H135698   7.271   0.578   2.872
11919TIP3    H235699   7.386   0.647   2.943
11920TIP3   OH235700   5.463   5.291   4.817
11920TIP3    H135701   5.379   5.264   4.778
11920TIP3    H235702   5.440   5.366   4.873
11921TIP3   OH235703   7.555   4.643   1.313
11921TIP3    H135704   7.649   4.628   1.313
11921TIP3    H235705   7.534   4.664   1.404
11922TIP3   OH235706   0.167   3.454   4.106
11922TIP3    H135707   0.249   3.499   4.086
11922TIP3    H235708   0.146   3.481   4.195
11923TIP3   OH235709   0.790   1.786   5.756
11923TIP3    H135710   0.824   1.723   5.820
11923TIP3    H235711   0.695   1.780   5.765
11924TIP3   OH235712   1.502   2.313   6.250
11924TIP3    H135713   1.491   2.261   6.171
11924TIP3    H235714   1.520   2.402   6.219
11925TIP3   OH235715   6.279   3.077   6.459
11925TIP3    H135716   6.278   3.048   6.550
11925TIP3    H235717   6.372   3.081   6.436
11926TIP3   OH235718   3.581   4.175   4.184
11926TIP3    H135719   3.569   4.207   4.094
11926TIP3    H235720   3.499   4.195   4.228
11927TIP3   OH235721   7.707   5.220   3.857
11927TIP3    H135722   7.719   5.311   3.830
11927TIP3    H235723   7.773   5.206   3.925
11928TIP3   OH235724   3.353   3.324   4.174
11928TIP3    H135725   3.367   3.313   4.080
11928TIP3    H235726   3.432   3.369   4.205
11929TIP3   OH235727   4.222   4.957   3.579
11929TIP3    H135728   4.135   4.923   3.598
11929TIP3    H235729   4.205   5.041   3.536
11930TIP3   OH235730   2.401   6.438   6.186
11930TIP3    H135731   2.463   6.399   6.124
11930TIP3    H235732   2.455   6.496   6.241
11931TIP3   OH235733   1.193   7.912   4.247
11931TIP3    H135734   1.133   7.987   4.253
11931TIP3    H235735   1.264   7.942   4.190
11932TIP3   OH235736   7.928   4.861   2.822
11932TIP3    H135737   8.000   4.863   2.760
11932TIP3    H235738   7.878   4.940   2.804
11933TIP3   OH235739   3.023   2.894   5.340
11933TIP3    H135740   3.082   2.844   5.396
11933TIP3    H235741   3.044   2.865   5.251
11934TIP3   OH235742   7.733   3.045   3.886
11934TIP3    H135743   7.705   3.125   3.843
11934TIP3    H235744   7.824   3.061   3.911
11935TIP3   OH235745   8.143   3.762   1.019
11935TIP3    H135746   8.105   3.832   0.965
11935TIP3    H235747   8.229   3.747   0.981
11936TIP3   OH235748   6.713   7.456   3.146
11936TIP3    H135749   6.685   7.544   3.170
11936TIP3    H235750   6.713   7.407   3.228
11937TIP3   OH235751   4.350   0.032   5.497
11937TIP3    H135752   4.323   0.068   5.581
11937TIP3    H235753   4.358  -0.062   5.513
11938TIP3   OH235754   4.311   7.054   3.605
11938TIP3    H135755   4.379   7.122   3.603
11938TIP3    H235756   4.297   7.033   3.513
11939TIP3   OH235757   4.638   0.866   4.763
11939TIP3    H135758   4.593   0.902   4.839
11939TIP3    H235759   4.726   0.845   4.795
11940TIP3   OH235760   3.293   4.183   3.075
11940TIP3    H135761   3.378   4.197   3.117
11940TIP3    H235762   3.235   4.158   3.147
11941TIP3   OH235763   0.500   1.308   6.708
11941TIP3    H135764   0.460   1.260   6.780
11941TIP3    H235765   0.531   1.389   6.747
11942TIP3   OH235766   0.444   0.381   4.645
11942TIP3    H135767   0.513   0.340   4.593
11942TIP3    H235768   0.362   0.346   4.611
11943TIP3   OH235769   6.061   1.127   3.351
11943TIP3    H135770   5.982   1.130   3.297
11943TIP3    H235771   6.131   1.102   3.290
11944TIP3   OH235772   8.303   1.034   1.938
11944TIP3    H135773   8.211   1.060   1.946
11944TIP3    H235774   8.352   1.113   1.961
11945TIP3   OH235775   7.893   7.924   1.027
11945TIP3    H135776   7.978   7.887   1.052
11945TIP3    H235777   7.901   7.940   0.933
11946TIP3   OH235778   6.277   6.669   4.909
11946TIP3    H135779   6.327   6.671   4.827
11946TIP3    H235780   6.343   6.685   4.977
11947TIP3   OH235781   7.567   0.378   2.473
11947TIP3    H135782   7.572   0.436   2.397
11947TIP3    H235783   7.655   0.380   2.510
11948TIP3   OH235784   4.464   7.701   2.573
11948TIP3    H135785   4.383   7.706   2.623
11948TIP3    H235786   4.528   7.664   2.635
11949TIP3   OH235787   1.575   4.484   2.992
11949TIP3    H135788   1.579   4.388   2.993
11949TIP3    H235789   1.497   4.504   2.940
11950TIP3   OH235790   1.388   2.260   1.771
11950TIP3    H135791   1.305   2.299   1.743
11950TIP3    H235792   1.455   2.320   1.738
11951TIP3   OH235793   7.410   4.025   6.740
11951TIP3    H135794   7.315   4.027   6.728
11951TIP3    H235795   7.438   3.948   6.691
11952TIP3   OH235796   3.655   1.153   0.063
11952TIP3    H135797   3.708   1.199   0.128
11952TIP3    H235798   3.654   1.211  -0.013
11953TIP3   OH235799   0.358   2.028   5.033
11953TIP3    H135800   0.275   2.049   5.075
11953TIP3    H235801   0.339   1.953   4.977
11954TIP3   OH235802   2.378   4.026   5.064
11954TIP3    H135803   2.467   4.038   5.032
11954TIP3    H235804   2.369   4.090   5.135
11955TIP3   OH235805   8.207   2.826   0.220
11955TIP3    H135806   8.164   2.876   0.290
11955TIP3    H235807   8.166   2.859   0.140
11956TIP3   OH235808   0.482   3.811   1.801
11956TIP3    H135809   0.533   3.827   1.722
11956TIP3    H235810   0.497   3.718   1.820
11957TIP3   OH235811   1.066   0.954   0.557
11957TIP3    H135812   1.124   0.890   0.515
11957TIP3    H235813   0.994   0.902   0.592
11958TIP3   OH235814   2.048   1.783   1.518
11958TIP3    H135815   2.023   1.723   1.448
11958TIP3    H235816   2.049   1.869   1.478
11959TIP3   OH235817   2.461   7.594   4.339
11959TIP3    H135818   2.444   7.677   4.294
11959TIP3    H235819   2.557   7.586   4.337
11960TIP3   OH235820   1.311   5.778   0.890
11960TIP3    H135821   1.263   5.808   0.967
11960TIP3    H235822   1.352   5.857   0.855
11961TIP3   OH235823   1.114   0.814   3.086
11961TIP3    H135824   1.139   0.815   2.994
11961TIP3    H235825   1.110   0.906   3.111
11962TIP3   OH235826   6.502   6.343   5.552
11962TIP3    H135827   6.539   6.333   5.465
11962TIP3    H235828   6.542   6.273   5.603
11963TIP3   OH235829   5.084   0.979   4.405
11963TIP3    H135830   5.177   1.003   4.396
11963TIP3    H235831   5.041   1.026   4.333
11964TIP3   OH235832   0.684   1.666   2.311
11964TIP3    H135833   0.658   1.665   2.219
11964TIP3    H235834   0.602   1.671   2.359
11965TIP3   OH235835   6.826   5.933   3.429
11965TIP3    H135836   6.770   5.869   3.474
11965TIP3    H235837   6.874   5.976   3.499
11966TIP3   OH235838   1.971   5.101   3.097
11966TIP3    H135839   1.994   5.008   3.096
11966TIP3    H235840   1.992   5.130   3.186
11967TIP3   OH235841   8.244   1.689   4.002
11967TIP3    H135842   8.195   1.708   3.923
11967TIP3    H235843   8.237   1.768   4.055
11968TIP3   OH235844   5.846   2.625   3.071
11968TIP3    H135845   5.844   2.529   3.067
11968TIP3    H235846   5.807   2.646   3.156
11969TIP3   OH235847   4.219   4.687   3.263
11969TIP3    H135848   4.149   4.686   3.328
11969TIP3    H235849   4.298   4.704   3.313
11970TIP3   OH235850   1.401   4.347   2.362
11970TIP3    H135851   1.338   4.292   2.316
11970TIP3    H235852   1.401   4.314   2.452
11971TIP3   OH235853   1.910   0.760   5.541
11971TIP3    H135854   1.874   0.678   5.508
11971TIP3    H235855   1.948   0.736   5.626
11972TIP3   OH235856   3.757   7.305   2.022
11972TIP3    H135857   3.740   7.237   2.088
11972TIP3    H235858   3.713   7.274   1.943
11973TIP3   OH235859   1.002   6.886   4.375
11973TIP3    H135860   1.082   6.888   4.428
11973TIP3    H235861   0.951   6.960   4.406
11974TIP3   OH235862   3.971   2.448   4.915
11974TIP3    H135863   4.024   2.432   4.837
11974TIP3    H235864   3.947   2.540   4.909
11975TIP3   OH235865   2.194   5.456   3.679
11975TIP3    H135866   2.117   5.508   3.658
11975TIP3    H235867   2.269   5.513   3.659
11976TIP3   OH235868   0.086   2.691   4.254
11976TIP3    H135869   0.109   2.783   4.245
11976TIP3    H235870   0.100   2.671   4.347
11977TIP3   OH235871   3.356   1.498   3.045
11977TIP3    H135872   3.407   1.440   2.989
11977TIP3    H235873   3.268   1.495   3.010
11978TIP3   OH235874   2.874   3.985   3.342
11978TIP3    H135875   2.884   3.905   3.395
11978TIP3    H235876   2.844   3.953   3.257
11979TIP3   OH235877   5.976   7.400   2.882
11979TIP3    H135878   5.956   7.423   2.792
11979TIP3    H235879   5.988   7.305   2.881
11980TIP3   OH235880   5.977   5.887   6.477
11980TIP3    H135881   5.892   5.847   6.495
11980TIP3    H235882   5.976   5.969   6.527
11981TIP3   OH235883   3.610   7.125   3.483
11981TIP3    H135884   3.641   7.066   3.551
11981TIP3    H235885   3.558   7.070   3.425
11982TIP3   OH235886   0.037   0.900   2.539
11982TIP3    H135887   0.095   0.849   2.484
11982TIP3    H235888   0.083   0.908   2.623
11983TIP3   OH235889   8.077   6.303   3.717
11983TIP3    H135890   8.059   6.323   3.625
11983TIP3    H235891   8.160   6.347   3.735
11984TIP3   OH235892   2.897   1.446   5.479
11984TIP3    H135893   2.895   1.431   5.574
11984TIP3    H235894   2.985   1.481   5.463
11985TIP3   OH235895   3.319   1.355   1.255
11985TIP3    H135896   3.338   1.299   1.330
11985TIP3    H235897   3.402   1.400   1.237
11986TIP3   OH235898   7.318   4.483   1.269
11986TIP3    H135899   7.382   4.552   1.250
11986TIP3    H235900   7.343   4.451   1.355
11987TIP3   OH235901   7.921   6.078   3.691
11987TIP3    H135902   7.894   6.126   3.613
11987TIP3    H235903   7.991   6.131   3.730
11988TIP3   OH235904   7.060   5.094   6.827
11988TIP3    H135905   7.030   5.011   6.863
11988TIP3    H235906   7.156   5.092   6.836
11989TIP3   OH235907   1.941   6.332   1.661
11989TIP3    H135908   1.979   6.346   1.575
11989TIP3    H235909   1.906   6.417   1.686
11990TIP3   OH235910   1.287   3.821   5.086
11990TIP3    H135911   1.330   3.874   5.019
11990TIP3    H235912   1.223   3.881   5.126
11991TIP3   OH235913   7.992   0.189   5.610
11991TIP3    H135914   7.925   0.196   5.541
11991TIP3    H235915   8.038   0.108   5.589
11992TIP3   OH235916   4.220   5.385   4.908
11992TIP3    H135917   4.310   5.376   4.877
11992TIP3    H235918   4.166   5.362   4.832
11993TIP3   OH235919   6.828   5.082   1.839
11993TIP3    H135920   6.880   5.110   1.764
11993TIP3    H235921   6.770   5.014   1.804
11994TIP3   OH235922   6.625   4.536   1.794
11994TIP3    H135923   6.588   4.455   1.827
11994TIP3    H235924   6.683   4.567   1.864
11995TIP3   OH235925   2.954   4.212   0.931
11995TIP3    H135926   2.896   4.196   1.005
11995TIP3    H235927   2.914   4.163   0.859
11996TIP3   OH235928   1.475   5.844   6.118
11996TIP3    H135929   1.413   5.778   6.149
11996TIP3    H235930   1.458   5.921   6.172
11997TIP3   OH235931   7.353   0.790   2.547
11997TIP3    H135932   7.317   0.793   2.636
11997TIP3    H235933   7.377   0.880   2.527
11998TIP3   OH235934   2.552   0.260   4.688
11998TIP3    H135935   2.482   0.308   4.732
11998TIP3    H235936   2.583   0.319   4.620
11999TIP3   OH235937   2.757   7.635   1.770
11999TIP3    H135938   2.708   7.694   1.827
11999TIP3    H235939   2.839   7.618   1.817
12000TIP3   OH235940   3.956   1.705   3.680
12000TIP3    H135941   3.918   1.656   3.608
12000TIP3    H235942   3.889   1.771   3.702
12001TIP3   OH235943   4.075   2.615   4.024
12001TIP3    H135944   4.079   2.552   4.096
12001TIP3    H235945   4.163   2.614   3.987
12002TIP3   OH235946   5.282   6.006   5.515
12002TIP3    H135947   5.196   5.991   5.477
12002TIP3    H235948   5.266   6.008   5.610
12003TIP3   OH235949   7.426   1.339   5.117
12003TIP3    H135950   7.409   1.266   5.058
12003TIP3    H235951   7.483   1.302   5.185
12004TIP3   OH235952   0.813   0.064   0.492
12004TIP3    H135953   0.748  -0.002   0.516
12004TIP3    H235954   0.874   0.066   0.566
12005TIP3   OH235955   8.157   6.239   4.320
12005TIP3    H135956   8.075   6.289   4.321
12005TIP3    H235957   8.137   6.162   4.267
12006TIP3   OH235958   3.203   4.209   6.673
12006TIP3    H135959   3.199   4.304   6.665
12006TIP3    H235960   3.284   4.185   6.626
12007TIP3   OH235961   6.818   7.494   4.450
12007TIP3    H135962   6.769   7.514   4.370
12007TIP3    H235963   6.755   7.448   4.506
12008TIP3   OH235964   7.761   6.459   6.453
12008TIP3    H135965   7.755   6.501   6.368
12008TIP3    H235966   7.813   6.380   6.438
12009TIP3   OH235967   1.770   1.288   0.457
12009TIP3    H135968   1.742   1.196   0.465
12009TIP3    H235969   1.861   1.282   0.428
12010TIP3   OH235970   0.731   1.442   2.528
12010TIP3    H135971   0.721   1.506   2.458
12010TIP3    H235972   0.818   1.405   2.514
12011TIP3   OH235973   6.116   2.589   5.188
12011TIP3    H135974   6.066   2.663   5.222
12011TIP3    H235975   6.080   2.575   5.100
12012TIP3   OH235976   6.509   2.732   2.856
12012TIP3    H135977   6.597   2.697   2.868
12012TIP3    H235978   6.484   2.765   2.942
12013TIP3   OH235979   6.174   0.119   1.192
12013TIP3    H135980   6.189   0.205   1.233
12013TIP3    H235981   6.086   0.094   1.221
12014TIP3   OH235982   3.369   7.632   0.715
12014TIP3    H135983   3.306   7.616   0.784
12014TIP3    H235984   3.334   7.586   0.639
12015TIP3   OH235985   4.412   3.978   2.910
12015TIP3    H135986   4.345   4.000   2.844
12015TIP3    H235987   4.403   4.046   2.977
12016TIP3   OH235988   7.050   0.508   3.870
12016TIP3    H135989   7.002   0.458   3.936
12016TIP3    H235990   7.002   0.590   3.861
12017TIP3   OH235991   5.942   2.466   3.377
12017TIP3    H135992   5.863   2.512   3.346
12017TIP3    H235993   5.908   2.388   3.421
12018TIP3   OH235994   4.402   1.902   3.176
12018TIP3    H135995   4.468   1.905   3.107
12018TIP3    H235996   4.418   1.819   3.221
12019TIP3   OH235997   1.555   4.744   1.855
12019TIP3    H135998   1.640   4.729   1.815
12019TIP3    H235999   1.498   4.677   1.818
12020TIP3   OH236000   1.752   4.949   6.248
12020TIP3    H136001   1.714   4.883   6.190
12020TIP3    H236002   1.807   4.899   6.308
12021TIP3   OH236003   6.886   7.637   6.083
12021TIP3    H136004   6.926   7.568   6.031
12021TIP3    H236005   6.847   7.592   6.158
12022TIP3   OH236006   0.258   2.505   6.563
12022TIP3    H136007   0.279   2.569   6.495
12022TIP3    H236008   0.272   2.551   6.645
12023TIP3   OH236009   6.671   1.394   3.244
12023TIP3    H136010   6.761   1.366   3.225
12023TIP3    H236011   6.646   1.344   3.321
12024TIP3   OH236012   5.490   1.695   0.520
12024TIP3    H136013   5.538   1.769   0.558
12024TIP3    H236014   5.398   1.723   0.521
12025TIP3   OH236015   8.337   0.741   6.507
12025TIP3    H136016   8.359   0.679   6.577
12025TIP3    H236017   8.270   0.798   6.545
12026TIP3   OH236018   2.929   4.659   4.950
12026TIP3    H136019   2.913   4.699   5.035
12026TIP3    H236020   2.846   4.668   4.903
12027TIP3   OH236021   3.291   5.003   0.316
12027TIP3    H136022   3.383   4.983   0.330
12027TIP3    H236023   3.244   4.926   0.349
12028TIP3   OH236024   4.789   1.785   2.448
12028TIP3    H136025   4.712   1.831   2.416
12028TIP3    H236026   4.777   1.694   2.420
12029TIP3   OH236027   4.869   5.758   1.433
12029TIP3    H136028   4.844   5.682   1.381
12029TIP3    H236029   4.965   5.756   1.435
12030TIP3   OH236030   4.740   5.135   0.745
12030TIP3    H136031   4.677   5.202   0.771
12030TIP3    H236032   4.791   5.117   0.824
12031TIP3   OH236033   3.368   2.261   4.822
12031TIP3    H136034   3.367   2.353   4.797
12031TIP3    H236035   3.366   2.262   4.918
12032TIP3   OH236036   3.351   3.501   6.226
12032TIP3    H136037   3.371   3.529   6.137
12032TIP3    H236038   3.412   3.551   6.281
12033TIP3   OH236039   5.150   3.201   3.296
12033TIP3    H136040   5.210   3.221   3.368
12033TIP3    H236041   5.068   3.179   3.339
12034TIP3   OH236042   7.465   2.198   3.127
12034TIP3    H136043   7.369   2.201   3.127
12034TIP3    H236044   7.487   2.137   3.056
12035TIP3   OH236045   1.057   0.030   2.269
12035TIP3    H136046   1.105  -0.047   2.299
12035TIP3    H236047   1.010   0.061   2.347
12036TIP3   OH236048   3.025   3.314   5.225
12036TIP3    H136049   2.991   3.249   5.287
12036TIP3    H236050   3.120   3.310   5.237
12037TIP3   OH236051   4.594   6.126   1.204
12037TIP3    H136052   4.531   6.190   1.238
12037TIP3    H236053   4.671   6.178   1.181
12038TIP3   OH236054   5.903   5.859   3.333
12038TIP3    H136055   5.944   5.867   3.247
12038TIP3    H236056   5.871   5.946   3.353
12039TIP3   OH236057   2.790   5.330   0.072
12039TIP3    H136058   2.848   5.377   0.131
12039TIP3    H236059   2.769   5.249   0.118
12040TIP3   OH236060   6.127   7.690   0.227
12040TIP3    H136061   6.187   7.639   0.282
12040TIP3    H236062   6.175   7.770   0.208
12041TIP3   OH236063   3.021   3.112   6.669
12041TIP3    H136064   3.039   3.196   6.710
12041TIP3    H236065   3.055   3.047   6.729
12042TIP3   OH236066   4.313   7.866   6.088
12042TIP3    H136067   4.358   7.939   6.131
12042TIP3    H236068   4.377   7.831   6.027
12043TIP3   OH236069   2.065   2.899   5.661
12043TIP3    H136070   2.153   2.928   5.637
12043TIP3    H236071   2.021   2.979   5.692
12044TIP3   OH236072   5.560   1.030   2.188
12044TIP3    H136073   5.488   1.033   2.251
12044TIP3    H236074   5.639   1.030   2.242
12045TIP3   OH236075   4.279   5.590   3.522
12045TIP3    H136076   4.259   5.673   3.480
12045TIP3    H236077   4.227   5.591   3.603
12046TIP3   OH236078   1.022   4.135   2.169
12046TIP3    H136079   0.939   4.176   2.147
12046TIP3    H236080   1.001   4.043   2.184
12047TIP3   OH236081   7.300   7.768   1.963
12047TIP3    H136082   7.328   7.770   2.054
12047TIP3    H236083   7.376   7.738   1.914
12048TIP3   OH236084   3.215   6.800   1.036
12048TIP3    H136085   3.140   6.754   1.073
12048TIP3    H236086   3.278   6.731   1.014
12049TIP3   OH236087   8.367   2.426   2.912
12049TIP3    H136088   8.281   2.397   2.944
12049TIP3    H236089   8.424   2.350   2.923
12050TIP3   OH236090   5.607   1.724   3.098
12050TIP3    H136091   5.573   1.653   3.043
12050TIP3    H236092   5.702   1.720   3.086
12051TIP3   OH236093   6.870   5.677   0.720
12051TIP3    H136094   6.866   5.761   0.765
12051TIP3    H236095   6.796   5.627   0.755
12052TIP3   OH236096   6.325   0.925   1.131
12052TIP3    H136097   6.279   0.846   1.103
12052TIP3    H236098   6.335   0.976   1.051
12053TIP3   OH236099   6.990   1.867   0.468
12053TIP3    H136100   6.966   1.784   0.508
12053TIP3    H236101   6.952   1.863   0.380
12054TIP3   OH236102   1.459   2.294   2.984
12054TIP3    H136103   1.379   2.307   2.933
12054TIP3    H236104   1.522   2.356   2.948
12055TIP3   OH236105   5.936   7.578   1.695
12055TIP3    H136106   5.851   7.569   1.651
12055TIP3    H236107   5.928   7.525   1.774
12056TIP3   OH236108   1.524   7.835   5.186
12056TIP3    H136109   1.540   7.875   5.272
12056TIP3    H236110   1.514   7.742   5.204
12057TIP3   OH236111   4.340   7.149   6.749
12057TIP3    H136112   4.427   7.121   6.721
12057TIP3    H236113   4.318   7.221   6.690
12058TIP3   OH236114   1.686   1.440   2.217
12058TIP3    H136115   1.722   1.528   2.228
12058TIP3    H236116   1.638   1.424   2.298
12059TIP3   OH236117   2.333   7.321   4.549
12059TIP3    H136118   2.363   7.412   4.546
12059TIP3    H236119   2.372   7.287   4.630
12060TIP3   OH236120   3.171   2.551   6.516
12060TIP3    H136121   3.108   2.519   6.580
12060TIP3    H236122   3.155   2.499   6.437
12061TIP3   OH236123   0.585   3.275   0.689
12061TIP3    H136124   0.538   3.323   0.621
12061TIP3    H236125   0.528   3.202   0.711
12062TIP3   OH236126   0.964   3.621   5.491
12062TIP3    H136127   0.993   3.628   5.400
12062TIP3    H236128   0.974   3.528   5.512
12063TIP3   OH236129   2.737   5.951   0.258
12063TIP3    H136130   2.703   6.040   0.265
12063TIP3    H236131   2.712   5.923   0.170
12064TIP3   OH236132   7.786   3.645   5.444
12064TIP3    H136133   7.821   3.731   5.421
12064TIP3    H236134   7.691   3.655   5.436
12065TIP3   OH236135   1.999   0.099   4.158
12065TIP3    H136136   2.049   0.147   4.224
12065TIP3    H236137   1.994   0.159   4.083
12066TIP3   OH236138   5.213   0.237   3.386
12066TIP3    H136139   5.253   0.253   3.471
12066TIP3    H236140   5.265   0.289   3.325
12067TIP3   OH236141   8.232   7.816   2.074
12067TIP3    H136142   8.232   7.820   1.979
12067TIP3    H236143   8.243   7.907   2.102
12068TIP3   OH236144   7.211   1.761   5.845
12068TIP3    H136145   7.260   1.840   5.821
12068TIP3    H236146   7.154   1.745   5.770
12069TIP3   OH236147   4.983   0.550   3.757
12069TIP3    H136148   4.952   0.634   3.791
12069TIP3    H236149   5.074   0.544   3.787
12070TIP3   OH236150   2.270   2.084   4.775
12070TIP3    H136151   2.280   2.028   4.698
12070TIP3    H236152   2.189   2.053   4.816
12071TIP3   OH236153   3.568   2.191   3.501
12071TIP3    H136154   3.600   2.189   3.411
12071TIP3    H236155   3.477   2.160   3.495
12072TIP3   OH236156   2.033   0.724   2.450
12072TIP3    H136157   2.122   0.756   2.462
12072TIP3    H236158   1.977   0.796   2.480
12073TIP3   OH236159   7.405   3.399   5.474
12073TIP3    H136160   7.471   3.348   5.520
12073TIP3    H236161   7.413   3.487   5.511
12074TIP3   OH236162   2.280   5.486   5.735
12074TIP3    H136163   2.289   5.391   5.727
12074TIP3    H236164   2.201   5.498   5.788
12075TIP3   OH236165   4.094   0.136   2.992
12075TIP3    H136166   4.024   0.079   3.024
12075TIP3    H236167   4.159   0.077   2.954
12076TIP3   OH236168   3.007   5.286   3.434
12076TIP3    H136169   3.057   5.367   3.440
12076TIP3    H236170   3.068   5.218   3.462
12077TIP3   OH236171   3.430   7.310   3.625
12077TIP3    H136172   3.479   7.228   3.623
12077TIP3    H236173   3.425   7.337   3.534
12078TIP3   OH236174   4.301   5.222   0.944
12078TIP3    H136175   4.294   5.317   0.951
12078TIP3    H236176   4.279   5.204   0.852
12079TIP3   OH236177   4.242   6.328   2.292
12079TIP3    H136178   4.321   6.314   2.240
12079TIP3    H236179   4.171   6.336   2.227
12080TIP3   OH236180   2.375   1.549   5.725
12080TIP3    H136181   2.460   1.573   5.687
12080TIP3    H236182   2.397   1.512   5.810
12081TIP3   OH236183   3.713   3.634   4.074
12081TIP3    H136184   3.785   3.685   4.110
12081TIP3    H236185   3.635   3.688   4.088
12082TIP3   OH236186   4.035   0.750   4.883
12082TIP3    H136187   4.088   0.690   4.831
12082TIP3    H236188   4.096   0.787   4.947
12083TIP3   OH236189   8.201   1.444   2.879
12083TIP3    H136190   8.124   1.483   2.921
12083TIP3    H236191   8.224   1.371   2.936
12084TIP3   OH236192   5.936   6.659   1.196
12084TIP3    H136193   5.889   6.693   1.272
12084TIP3    H236194   5.871   6.659   1.126
12085TIP3   OH236195   1.055   2.070   1.847
12085TIP3    H136196   1.139   2.026   1.833
12085TIP3    H236197   1.074   2.137   1.913
12086TIP3   OH236198   1.222   5.954   6.297
12086TIP3    H136199   1.176   5.975   6.378
12086TIP3    H236200   1.239   6.040   6.257
12087TIP3   OH236201   1.788   7.798   0.222
12087TIP3    H136202   1.743   7.832   0.300
12087TIP3    H236203   1.839   7.873   0.190
12088TIP3   OH236204   7.915   0.316   6.713
12088TIP3    H136205   7.892   0.223   6.723
12088TIP3    H236206   7.853   0.350   6.649
12089TIP3   OH236207   3.514   4.416   6.551
12089TIP3    H136208   3.440   4.416   6.611
12089TIP3    H236209   3.591   4.405   6.607
12090TIP3   OH236210   0.648   6.897   1.950
12090TIP3    H136211   0.555   6.896   1.931
12090TIP3    H236212   0.672   6.990   1.948
12091TIP3   OH236213   3.485   1.450   1.882
12091TIP3    H136214   3.417   1.497   1.930
12091TIP3    H236215   3.566   1.468   1.931
12092TIP3   OH236216   8.154   4.409   6.330
12092TIP3    H136217   8.236   4.393   6.376
12092TIP3    H236218   8.086   4.399   6.396
12093TIP3   OH236219   2.590   3.158   3.444
12093TIP3    H136220   2.654   3.143   3.514
12093TIP3    H236221   2.642   3.170   3.365
12094TIP3   OH236222   3.412   5.944   1.560
12094TIP3    H136223   3.337   5.897   1.596
12094TIP3    H236224   3.439   5.891   1.485
12095TIP3   OH236225   1.128   2.698   3.876
12095TIP3    H136226   1.197   2.763   3.864
12095TIP3    H236227   1.115   2.659   3.790
12096TIP3   OH236228   0.998   0.576   2.999
12096TIP3    H136229   0.951   0.513   3.053
12096TIP3    H236230   1.039   0.635   3.062
12097TIP3   OH236231   0.032   1.894   6.533
12097TIP3    H136232   0.072   1.924   6.452
12097TIP3    H236233  -0.059   1.878   6.510
12098TIP3   OH236234   1.185   7.576   0.706
12098TIP3    H136235   1.157   7.497   0.660
12098TIP3    H236236   1.124   7.644   0.678
12099TIP3   OH236237   0.212   7.311   2.287
12099TIP3    H136238   0.163   7.230   2.294
12099TIP3    H236239   0.160   7.376   2.335
12100TIP3   OH236240   2.534   4.516   3.676
12100TIP3    H136241   2.571   4.513   3.588
12100TIP3    H236242   2.445   4.549   3.664
12101TIP3   OH236243   4.504   4.045   4.462
12101TIP3    H136244   4.439   4.095   4.412
12101TIP3    H236245   4.528   3.972   4.405
12102TIP3   OH236246   2.787   4.595   5.707
12102TIP3    H136247   2.803   4.636   5.792
12102TIP3    H236248   2.761   4.667   5.649
12103TIP3   OH236249   6.918   4.864   2.015
12103TIP3    H136250   6.936   4.911   1.933
12103TIP3    H236251   6.922   4.932   2.082
12104TIP3   OH236252   1.701   6.549   0.313
12104TIP3    H136253   1.683   6.495   0.236
12104TIP3    H236254   1.791   6.526   0.336
12105TIP3   OH236255   6.697   0.601   2.052
12105TIP3    H136256   6.607   0.626   2.069
12105TIP3    H236257   6.694   0.506   2.040
12106TIP3   OH236258   0.395   7.232   6.297
12106TIP3    H136259   0.444   7.275   6.367
12106TIP3    H236260   0.330   7.298   6.270
12107TIP3   OH236261   7.392   2.814   4.792
12107TIP3    H136262   7.408   2.783   4.882
12107TIP3    H236263   7.426   2.744   4.737
12108TIP3   OH236264   0.334   4.808   6.265
12108TIP3    H136265   0.294   4.753   6.333
12108TIP3    H236266   0.386   4.747   6.213
12109TIP3   OH236267   7.187   0.271   3.011
12109TIP3    H136268   7.265   0.235   2.970
12109TIP3    H236269   7.219   0.341   3.068
12110TIP3   OH236270   3.382   6.053   5.504
12110TIP3    H136271   3.325   6.130   5.504
12110TIP3    H236272   3.413   6.047   5.594
12111TIP3   OH236273   2.128   4.102   5.915
12111TIP3    H136274   2.057   4.117   5.977
12111TIP3    H236275   2.111   4.163   5.843
12112TIP3   OH236276   6.098   5.176   1.945
12112TIP3    H136277   6.141   5.189   2.030
12112TIP3    H236278   6.106   5.261   1.901
12113TIP3   OH236279   4.830   0.983   5.529
12113TIP3    H136280   4.847   1.065   5.576
12113TIP3    H236281   4.851   0.914   5.592
12114TIP3   OH236282   6.236   1.352   2.138
12114TIP3    H136283   6.300   1.422   2.124
12114TIP3    H236284   6.161   1.378   2.084
12115TIP3   OH236285   6.293   0.996   3.820
12115TIP3    H136286   6.337   1.081   3.826
12115TIP3    H236287   6.300   0.959   3.909
12116TIP3   OH236288   7.433   0.364   1.097
12116TIP3    H136289   7.495   0.339   1.166
12116TIP3    H236290   7.423   0.458   1.107
12117TIP3   OH236291   7.138   3.326   4.601
12117TIP3    H136292   7.049   3.320   4.565
12117TIP3    H236293   7.126   3.369   4.685
12118TIP3   OH236294   2.218   6.476   5.078
12118TIP3    H136295   2.229   6.563   5.040
12118TIP3    H236296   2.271   6.419   5.022
12119TIP3   OH236297   5.760   0.809   2.380
12119TIP3    H136298   5.754   0.738   2.317
12119TIP3    H236299   5.778   0.766   2.464
12120TIP3   OH236300   7.718   3.740   6.053
12120TIP3    H136301   7.759   3.674   6.109
12120TIP3    H236302   7.630   3.706   6.035
12121TIP3   OH236303   0.332   0.589   4.081
12121TIP3    H136304   0.425   0.610   4.072
12121TIP3    H236305   0.288   0.673   4.084
12122TIP3   OH236306   0.114   0.134   2.204
12122TIP3    H136307   0.143   0.144   2.295
12122TIP3    H236308   0.019   0.123   2.210
12123TIP3   OH236309   0.287   5.972   1.166
12123TIP3    H136310   0.359   5.985   1.104
12123TIP3    H236311   0.260   6.061   1.189
12124TIP3   OH236312   0.278   1.139   3.363
12124TIP3    H136313   0.304   1.130   3.272
12124TIP3    H236314   0.339   1.204   3.399
12125TIP3   OH236315   8.319   5.138   4.029
12125TIP3    H136316   8.247   5.101   3.978
12125TIP3    H236317   8.397   5.122   3.975
12126TIP3   OH236318   2.785   4.444   1.352
12126TIP3    H136319   2.726   4.374   1.381
12126TIP3    H236320   2.771   4.449   1.257
12127TIP3   OH236321   1.961   5.392   6.633
12127TIP3    H136322   1.961   5.468   6.692
12127TIP3    H236323   1.876   5.395   6.590
12128TIP3   OH236324   5.822   3.544   5.206
12128TIP3    H136325   5.785   3.565   5.120
12128TIP3    H236326   5.868   3.461   5.193
12129TIP3   OH236327   1.452   1.151   2.814
12129TIP3    H136328   1.361   1.154   2.787
12129TIP3    H236329   1.489   1.234   2.782
12130TIP3   OH236330   0.964   0.909   4.767
12130TIP3    H136331   1.051   0.901   4.727
12130TIP3    H236332   0.979   0.891   4.860
12131TIP3   OH236333   8.028   1.856   3.825
12131TIP3    H136334   8.014   1.915   3.751
12131TIP3    H236335   8.092   1.792   3.793
12132TIP3   OH236336   3.329   3.363   1.641
12132TIP3    H136337   3.378   3.359   1.723
12132TIP3    H236338   3.238   3.349   1.667
12133TIP3   OH236339   4.274   1.112   5.641
12133TIP3    H136340   4.292   1.199   5.678
12133TIP3    H236341   4.355   1.063   5.655
12134TIP3   OH236342   0.019   3.963   5.659
12134TIP3    H136343   0.009   3.873   5.692
12134TIP3    H236344  -0.019   3.961   5.571
12135TIP3   OH236345   5.916   1.988   3.199
12135TIP3    H136346   5.927   1.903   3.242
12135TIP3    H236347   5.914   1.968   3.106
12136TIP3   OH236348   5.225   1.473   4.051
12136TIP3    H136349   5.135   1.492   4.078
12136TIP3    H236350   5.232   1.510   3.963
12137TIP3   OH236351   7.675   0.082   0.091
12137TIP3    H136352   7.648   0.173   0.085
12137TIP3    H236353   7.638   0.052   0.175
12138TIP3   OH236354   6.949   3.936   2.889
12138TIP3    H136355   6.871   3.990   2.875
12138TIP3    H236356   6.945   3.911   2.982
12139TIP3   OH236357   2.221   6.819   1.629
12139TIP3    H136358   2.222   6.843   1.722
12139TIP3    H236359   2.246   6.900   1.584
12140TIP3   OH236360   1.458   5.107   0.520
12140TIP3    H136361   1.400   5.110   0.595
12140TIP3    H236362   1.480   5.014   0.510
12141TIP3   OH236363   6.875   6.683   1.666
12141TIP3    H136364   6.816   6.727   1.727
12141TIP3    H236365   6.828   6.684   1.582
12142TIP3   OH236366   2.831   1.692   3.706
12142TIP3    H136367   2.770   1.646   3.764
12142TIP3    H236368   2.904   1.631   3.695
12143TIP3   OH236369   6.040   3.616   0.105
12143TIP3    H136370   5.996   3.700   0.096
12143TIP3    H236371   6.017   3.586   0.193
12144TIP3   OH236372   1.239   0.612   2.389
12144TIP3    H136373   1.145   0.595   2.389
12144TIP3    H236374   1.275   0.548   2.326
12145TIP3   OH236375   7.578   6.693   6.175
12145TIP3    H136376   7.658   6.641   6.165
12145TIP3    H236377   7.513   6.645   6.124
12146TIP3   OH236378   2.511   2.173   1.517
12146TIP3    H136379   2.603   2.156   1.495
12146TIP3    H236380   2.462   2.107   1.469
12147TIP3   OH236381   3.466   4.481   3.546
12147TIP3    H136382   3.499   4.548   3.606
12147TIP3    H236383   3.398   4.436   3.596
12148TIP3   OH236384   5.059   6.054   2.511
12148TIP3    H136385   5.154   6.055   2.512
12148TIP3    H236386   5.033   6.146   2.513
12149TIP3   OH236387   8.163   2.285   4.510
12149TIP3    H136388   8.128   2.304   4.597
12149TIP3    H236389   8.205   2.366   4.482
12150TIP3   OH236390   8.349   2.125   6.681
12150TIP3    H136391   8.375   2.055   6.621
12150TIP3    H236392   8.385   2.204   6.641
12151TIP3   OH236393   2.912   5.397   1.178
12151TIP3    H136394   2.979   5.329   1.174
12151TIP3    H236395   2.834   5.351   1.210
12152TIP3   OH236396   8.320   1.606   0.547
12152TIP3    H136397   8.255   1.536   0.535
12152TIP3    H236398   8.348   1.598   0.638
12153TIP3   OH236399   2.203   7.565   2.177
12153TIP3    H136400   2.263   7.525   2.114
12153TIP3    H236401   2.179   7.494   2.236
12154TIP3   OH236402   7.740   7.563   1.554
12154TIP3    H136403   7.722   7.657   1.562
12154TIP3    H236404   7.807   7.546   1.620
12155TIP3   OH236405   6.740   7.138   5.375
12155TIP3    H136406   6.815   7.196   5.390
12155TIP3    H236407   6.707   7.163   5.289
12156TIP3   OH236408   5.217   7.751   5.734
12156TIP3    H136409   5.157   7.760   5.808
12156TIP3    H236410   5.231   7.656   5.726
12157TIP3   OH236411   8.330   7.707   6.736
12157TIP3    H136412   8.298   7.640   6.796
12157TIP3    H236413   8.424   7.712   6.753
12158TIP3   OH236414   6.644   4.015   6.478
12158TIP3    H136415   6.568   4.015   6.536
12158TIP3    H236416   6.611   3.983   6.394
12159TIP3   OH236417   1.810   0.898   6.304
12159TIP3    H136418   1.795   0.812   6.343
12159TIP3    H236419   1.723   0.929   6.278
12160TIP3   OH236420   4.146   6.099   3.495
12160TIP3    H136421   4.091   6.095   3.417
12160TIP3    H236422   4.125   6.019   3.543
12161TIP3   OH236423   8.241   4.193   5.528
12161TIP3    H136424   8.145   4.190   5.532
12161TIP3    H236425   8.264   4.151   5.446
12162TIP3   OH236426   7.778   2.781   5.618
12162TIP3    H136427   7.780   2.731   5.536
12162TIP3    H236428   7.698   2.752   5.661
12163TIP3   OH236429   4.001   1.128   4.428
12163TIP3    H136430   4.069   1.139   4.494
12163TIP3    H236431   3.967   1.039   4.442
12164TIP3   OH236432   2.150   5.537   6.796
12164TIP3    H136433   2.120   5.613   6.845
12164TIP3    H236434   2.233   5.565   6.758
12165TIP3   OH236435   2.978   6.438   2.258
12165TIP3    H136436   2.885   6.454   2.270
12165TIP3    H236437   2.990   6.437   2.163
12166TIP3   OH236438   2.435   5.388   0.757
12166TIP3    H136439   2.412   5.373   0.665
12166TIP3    H236440   2.519   5.434   0.754
12167TIP3   OH236441   1.313   1.049   3.264
12167TIP3    H136442   1.340   1.035   3.173
12167TIP3    H236443   1.282   0.964   3.293
12168TIP3   OH236444   7.049   1.490   1.238
12168TIP3    H136445   6.956   1.469   1.241
12168TIP3    H236446   7.091   1.410   1.206
12169TIP3   OH236447   4.921   7.310   5.611
12169TIP3    H136448   4.932   7.380   5.675
12169TIP3    H236449   4.842   7.336   5.562
12170TIP3   OH236450   0.480   2.451   3.763
12170TIP3    H136451   0.458   2.473   3.672
12170TIP3    H236452   0.435   2.518   3.815
12171TIP3   OH236453   0.758   6.329   6.072
12171TIP3    H136454   0.763   6.260   6.138
12171TIP3    H236455   0.837   6.318   6.019
12172TIP3   OH236456   6.141   2.624   2.571
12172TIP3    H136457   6.087   2.699   2.548
12172TIP3    H236458   6.189   2.604   2.491
12173TIP3   OH236459   7.097   7.665   6.614
12173TIP3    H136460   7.108   7.751   6.573
12173TIP3    H236461   7.003   7.649   6.613
12174TIP3   OH236462   6.765   6.208   2.655
12174TIP3    H136463   6.731   6.234   2.569
12174TIP3    H236464   6.860   6.210   2.645
12175TIP3   OH236465   4.230   3.513   5.379
12175TIP3    H136466   4.223   3.521   5.284
12175TIP3    H236467   4.167   3.577   5.412
12176TIP3   OH236468   0.630   7.411   5.108
12176TIP3    H136469   0.574   7.337   5.086
12176TIP3    H236470   0.646   7.402   5.202
12177TIP3   OH236471   2.084   5.658   4.574
12177TIP3    H136472   2.134   5.739   4.563
12177TIP3    H236473   2.117   5.600   4.506
12178TIP3   OH236474   6.457   5.113   1.301
12178TIP3    H136475   6.372   5.079   1.328
12178TIP3    H236476   6.446   5.138   1.210
12179TIP3   OH236477   0.941   0.587   2.399
12179TIP3    H136478   0.875   0.628   2.454
12179TIP3    H236479   0.897   0.570   2.316
12180TIP3   OH236480   3.231   0.269   1.784
12180TIP3    H136481   3.282   0.285   1.704
12180TIP3    H236482   3.140   0.286   1.758
12181TIP3   OH236483   1.579   3.694   6.608
12181TIP3    H136484   1.648   3.686   6.674
12181TIP3    H236485   1.535   3.608   6.609
12182TIP3   OH236486   0.133   7.487   0.089
12182TIP3    H136487   0.089   7.450   0.012
12182TIP3    H236488   0.188   7.416   0.121
12183TIP3   OH236489   1.485   0.517   4.516
12183TIP3    H136490   1.479   0.571   4.438
12183TIP3    H236491   1.579   0.518   4.538
12184TIP3   OH236492   1.513   4.251   1.412
12184TIP3    H136493   1.492   4.318   1.347
12184TIP3    H236494   1.439   4.190   1.408
12185TIP3   OH236495   4.722   0.017   5.498
12185TIP3    H136496   4.725   0.060   5.412
12185TIP3    H236497   4.814   0.007   5.523
12186TIP3   OH236498   8.156   1.819   1.878
12186TIP3    H136499   8.211   1.840   1.802
12186TIP3    H236500   8.131   1.727   1.864
12187TIP3   OH236501   0.847   0.336   1.203
12187TIP3    H136502   0.934   0.377   1.207
12187TIP3    H236503   0.794   0.396   1.151
12188TIP3   OH236504   6.709   5.170   2.330
12188TIP3    H136505   6.678   5.185   2.420
12188TIP3    H236506   6.687   5.250   2.283
12189TIP3   OH236507   1.439   7.779   5.826
12189TIP3    H136508   1.493   7.849   5.863
12189TIP3    H236509   1.503   7.713   5.797
12190TIP3   OH236510   1.275   0.577   0.030
12190TIP3    H136511   1.349   0.530   0.068
12190TIP3    H236512   1.198   0.541   0.075
12191TIP3   OH236513   6.068   4.122   5.084
12191TIP3    H136514   6.062   4.212   5.052
12191TIP3    H236515   6.142   4.122   5.144
12192TIP3   OH236516   4.089   2.371   6.586
12192TIP3    H136517   4.083   2.462   6.556
12192TIP3    H236518   4.011   2.329   6.549
12193TIP3   OH236519   3.390   0.859   2.118
12193TIP3    H136520   3.414   0.948   2.092
12193TIP3    H236521   3.443   0.803   2.062
12194TIP3   OH236522   4.758   5.555   4.403
12194TIP3    H136523   4.760   5.494   4.329
12194TIP3    H236524   4.831   5.615   4.387
12195TIP3   OH236525   6.235   4.631   2.270
12195TIP3    H136526   6.143   4.610   2.255
12195TIP3    H236527   6.268   4.659   2.184
12196TIP3   OH236528   8.278   2.863   5.687
12196TIP3    H136529   8.286   2.874   5.592
12196TIP3    H236530   8.206   2.801   5.698
12197TIP3   OH236531   6.287   4.318   5.105
12197TIP3    H136532   6.339   4.316   5.025
12197TIP3    H236533   6.198   4.338   5.076
12198TIP3   OH236534   6.131   0.430   4.128
12198TIP3    H136535   6.173   0.415   4.043
12198TIP3    H236536   6.169   0.364   4.186
12199TIP3   OH236537   2.748   1.629   3.432
12199TIP3    H136538   2.743   1.577   3.351
12199TIP3    H236539   2.724   1.567   3.501
12200TIP3   OH236540   7.168   2.384   0.781
12200TIP3    H136541   7.187   2.477   0.795
12200TIP3    H236542   7.149   2.350   0.869
12201TIP3   OH236543   0.704   7.805   4.878
12201TIP3    H136544   0.788   7.828   4.916
12201TIP3    H236545   0.684   7.718   4.913
12202TIP3   OH236546   5.721   4.770   3.395
12202TIP3    H136547   5.670   4.821   3.458
12202TIP3    H236548   5.686   4.796   3.309
12203TIP3   OH236549   0.226   4.154   3.964
12203TIP3    H136550   0.148   4.131   4.014
12203TIP3    H236551   0.269   4.070   3.946
12204TIP3   OH236552   3.081   5.155   1.186
12204TIP3    H136553   2.993   5.116   1.181
12204TIP3    H236554   3.140   5.083   1.163
12205TIP3   OH236555   4.927   4.014   3.375
12205TIP3    H136556   4.960   4.100   3.401
12205TIP3    H236557   4.981   3.952   3.424
12206TIP3   OH236558   2.565   5.823   5.792
12206TIP3    H136559   2.568   5.729   5.807
12206TIP3    H236560   2.471   5.843   5.788
12207TIP3   OH236561   1.245   4.293   0.617
12207TIP3    H136562   1.171   4.271   0.673
12207TIP3    H236563   1.224   4.380   0.582
12208TIP3   OH236564   7.319   4.198   3.780
12208TIP3    H136565   7.285   4.287   3.789
12208TIP3    H236566   7.268   4.146   3.843
12209TIP3   OH236567   4.174   4.046   6.552
12209TIP3    H136568   4.149   3.977   6.613
12209TIP3    H236569   4.103   4.049   6.489
12210TIP3   OH236570   1.520   2.633   3.871
12210TIP3    H136571   1.438   2.681   3.872
12210TIP3    H236572   1.503   2.557   3.816
12211TIP3   OH236573   4.722   7.586   6.050
12211TIP3    H136574   4.681   7.574   5.965
12211TIP3    H236575   4.654   7.564   6.113
12212TIP3   OH236576   2.301   2.960   3.952
12212TIP3    H136577   2.328   2.918   3.870
12212TIP3    H236578   2.383   2.975   4.000
12213TIP3   OH236579   3.273   0.560   2.366
12213TIP3    H136580   3.288   0.646   2.405
12213TIP3    H236581   3.250   0.504   2.440
12214TIP3   OH236582   5.874   1.742   4.454
12214TIP3    H136583   5.847   1.730   4.363
12214TIP3    H236584   5.921   1.826   4.454
12215TIP3   OH236585   3.229   2.745   5.455
12215TIP3    H136586   3.209   2.655   5.482
12215TIP3    H236587   3.273   2.735   5.370
12216TIP3   OH236588   7.062   6.796   3.676
12216TIP3    H136589   6.983   6.778   3.726
12216TIP3    H236590   7.131   6.800   3.742
12217TIP3   OH236591   1.781   2.766   5.439
12217TIP3    H136592   1.754   2.857   5.427
12217TIP3    H236593   1.811   2.739   5.352
12218TIP3   OH236594   7.977   1.086   2.245
12218TIP3    H136595   8.063   1.077   2.287
12218TIP3    H236596   7.977   1.017   2.178
12219TIP3   OH236597   1.830   0.807   3.418
12219TIP3    H136598   1.761   0.870   3.400
12219TIP3    H236599   1.815   0.735   3.356
12220TIP3   OH236600   7.420   6.512   1.328
12220TIP3    H136601   7.458   6.554   1.405
12220TIP3    H236602   7.329   6.541   1.327
12221TIP3   OH236603   2.924   0.818   4.520
12221TIP3    H136604   2.848   0.867   4.551
12221TIP3    H236605   2.891   0.767   4.446
12222TIP3   OH236606   3.898   7.453   6.564
12222TIP3    H136607   3.916   7.362   6.541
12222TIP3    H236608   3.968   7.503   6.522
12223TIP3   OH236609   0.422   1.992   0.060
12223TIP3    H136610   0.466   1.928   0.117
12223TIP3    H236611   0.341   2.013   0.106
12224TIP3   OH236612   5.992   5.383   3.330
12224TIP3    H136613   6.052   5.389   3.404
12224TIP3    H236614   5.905   5.383   3.368
12225TIP3   OH236615   6.880   0.079   5.204
12225TIP3    H136616   6.938   0.021   5.252
12225TIP3    H236617   6.923   0.092   5.119
12226TIP3   OH236618   3.140   0.363   3.214
12226TIP3    H136619   3.114   0.423   3.144
12226TIP3    H236620   3.105   0.278   3.187
12227TIP3   OH236621   6.048   4.547   0.621
12227TIP3    H136622   5.956   4.553   0.595
12227TIP3    H236623   6.076   4.637   0.634
12228TIP3   OH236624   5.186   3.821   5.748
12228TIP3    H136625   5.176   3.853   5.658
12228TIP3    H236626   5.098   3.822   5.784
12229TIP3   OH236627   8.335   1.938   4.663
12229TIP3    H136628   8.383   1.999   4.718
12229TIP3    H236629   8.322   1.985   4.581
12230TIP3   OH236630   4.255   5.603   5.520
12230TIP3    H136631   4.220   5.577   5.435
12230TIP3    H236632   4.219   5.690   5.535
12231TIP3   OH236633   1.670   1.480   1.622
12231TIP3    H136634   1.615   1.435   1.558
12231TIP3    H236635   1.618   1.555   1.649
12232TIP3   OH236636   6.838   6.062   1.128
12232TIP3    H136637   6.830   5.970   1.101
12232TIP3    H236638   6.787   6.067   1.210
12233TIP3   OH236639   5.026   1.633   4.597
12233TIP3    H136640   5.036   1.728   4.588
12233TIP3    H236641   5.062   1.598   4.515
12234TIP3   OH236642   3.820   5.855   1.288
12234TIP3    H136643   3.754   5.815   1.232
12234TIP3    H236644   3.793   5.946   1.296
12235TIP3   OH236645   4.915   4.691   1.807
12235TIP3    H136646   4.926   4.784   1.785
12235TIP3    H236647   4.829   4.687   1.849
12236TIP3   OH236648   7.276   1.731   5.109
12236TIP3    H136649   7.332   1.741   5.186
12236TIP3    H236650   7.337   1.716   5.037
12237TIP3   OH236651   0.932   6.152   5.020
12237TIP3    H136652   0.986   6.216   4.974
12237TIP3    H236653   0.845   6.192   5.023
12238TIP3   OH236654   6.537   2.062   4.366
12238TIP3    H136655   6.500   2.103   4.287
12238TIP3    H236656   6.508   2.118   4.438
12239TIP3   OH236657   0.521   2.320   2.905
12239TIP3    H136658   0.517   2.414   2.923
12239TIP3    H236659   0.545   2.314   2.813
12240TIP3   OH236660   2.305   1.813   4.312
12240TIP3    H136661   2.285   1.875   4.242
12240TIP3    H236662   2.242   1.742   4.299
12241TIP3   OH236663   2.280   7.829   2.264
12241TIP3    H136664   2.331   7.808   2.342
12241TIP3    H236665   2.331   7.896   2.219
12242TIP3   OH236666   0.245   3.426   2.750
12242TIP3    H136667   0.274   3.496   2.808
12242TIP3    H236668   0.198   3.471   2.680
12243TIP3   OH236669   2.400   0.413   5.424
12243TIP3    H136670   2.424   0.432   5.333
12243TIP3    H236671   2.479   0.433   5.474
12244TIP3   OH236672   3.758   7.549   2.293
12244TIP3    H136673   3.666   7.531   2.273
12244TIP3    H236674   3.760   7.569   2.386
12245TIP3   OH236675   1.681   0.557   5.734
12245TIP3    H136676   1.668   0.566   5.639
12245TIP3    H236677   1.636   0.475   5.756
12246TIP3   OH236678   6.149   5.759   1.843
12246TIP3    H136679   6.105   5.723   1.766
12246TIP3    H236680   6.127   5.853   1.842
12247TIP3   OH236681   2.179   2.841   3.297
12247TIP3    H136682   2.144   2.916   3.249
12247TIP3    H236683   2.194   2.874   3.386
12248TIP3   OH236684   8.039   6.909   2.789
12248TIP3    H136685   8.068   6.838   2.846
12248TIP3    H236686   8.080   6.988   2.826
12249TIP3   OH236687   4.782   0.355   5.791
12249TIP3    H136688   4.751   0.265   5.789
12249TIP3    H236689   4.796   0.378   5.699
12250TIP3   OH236690   3.587   1.805   3.545
12250TIP3    H136691   3.591   1.860   3.466
12250TIP3    H236692   3.641   1.729   3.523
12251TIP3   OH236693   5.785   2.421   4.997
12251TIP3    H136694   5.753   2.429   5.087
12251TIP3    H236695   5.834   2.338   4.997
12252TIP3   OH236696   6.605   1.167   5.648
12252TIP3    H136697   6.595   1.093   5.708
12252TIP3    H236698   6.649   1.235   5.700
12253TIP3   OH236699   4.492   5.705   1.877
12253TIP3    H136700   4.560   5.639   1.864
12253TIP3    H236701   4.411   5.656   1.887
12254TIP3   OH236702   5.842   5.256   4.101
12254TIP3    H136703   5.853   5.168   4.136
12254TIP3    H236704   5.793   5.244   4.020
12255TIP3   OH236705   2.049   4.542   5.131
12255TIP3    H136706   1.971   4.492   5.106
12255TIP3    H236707   2.043   4.549   5.227
12256TIP3   OH236708   2.370   6.154   5.489
12256TIP3    H136709   2.400   6.068   5.459
12256TIP3    H236710   2.279   6.139   5.516
12257TIP3   OH236711   6.364   0.971   5.231
12257TIP3    H136712   6.398   0.881   5.239
12257TIP3    H236713   6.378   1.009   5.318
12258TIP3   OH236714   6.682   4.524   6.867
12258TIP3    H136715   6.743   4.579   6.817
12258TIP3    H236716   6.645   4.465   6.801
12259TIP3   OH236717   7.168   4.367   6.745
12259TIP3    H136718   7.234   4.368   6.815
12259TIP3    H236719   7.097   4.313   6.781
12260TIP3   OH236720   4.040   0.072   4.994
12260TIP3    H136721   4.106   0.011   4.960
12260TIP3    H236722   4.088   0.130   5.052
12261TIP3   OH236723   0.281   2.277   6.045
12261TIP3    H136724   0.289   2.368   6.073
12261TIP3    H236725   0.365   2.256   6.005
12262TIP3   OH236726   8.124   5.073   4.619
12262TIP3    H136727   8.184   5.032   4.557
12262TIP3    H236728   8.041   5.080   4.572
12263TIP3   OH236729   3.205   7.462   0.085
12263TIP3    H136730   3.226   7.527   0.017
12263TIP3    H236731   3.267   7.391   0.070
12264TIP3   OH236732   3.327   0.703   6.274
12264TIP3    H136733   3.280   0.635   6.225
12264TIP3    H236734   3.321   0.781   6.219
12265TIP3   OH236735   6.425   5.035   6.278
12265TIP3    H136736   6.342   4.992   6.300
12265TIP3    H236737   6.434   5.021   6.183
12266TIP3   OH236738   1.237   6.016   2.240
12266TIP3    H136739   1.218   5.992   2.150
12266TIP3    H236740   1.290   6.096   2.233
12267TIP3   OH236741   6.218   5.272   4.960
12267TIP3    H136742   6.211   5.189   4.912
12267TIP3    H236743   6.129   5.309   4.956
12268TIP3   OH236744   3.438   4.062   6.487
12268TIP3    H136745   3.521   4.096   6.452
12268TIP3    H236746   3.435   3.971   6.459
12269TIP3   OH236747   6.553   6.035   4.371
12269TIP3    H136748   6.533   6.057   4.462
12269TIP3    H236749   6.517   5.947   4.359
12270TIP3   OH236750   2.263   1.523   1.205
12270TIP3    H136751   2.235   1.531   1.114
12270TIP3    H236752   2.226   1.439   1.234
12271TIP3   OH236753   2.590   3.045   1.959
12271TIP3    H136754   2.556   3.105   1.892
12271TIP3    H236755   2.513   2.997   1.988
12272TIP3   OH236756   0.589   4.200   5.677
12272TIP3    H136757   0.508   4.165   5.713
12272TIP3    H236758   0.655   4.181   5.744
12273TIP3   OH236759   6.883   5.988   1.560
12273TIP3    H136760   6.797   6.030   1.556
12273TIP3    H236761   6.932   6.040   1.624
12274TIP3   OH236762   6.170   5.264   6.113
12274TIP3    H136763   6.172   5.203   6.039
12274TIP3    H236764   6.124   5.217   6.182
12275TIP3   OH236765   5.023   3.860   4.999
12275TIP3    H136766   5.054   3.943   5.037
12275TIP3    H236767   4.981   3.814   5.072
12276TIP3   OH236768   4.168   4.881   1.882
12276TIP3    H136769   4.080   4.844   1.887
12276TIP3    H236770   4.178   4.931   1.963
12277TIP3   OH236771   4.201   7.763   4.227
12277TIP3    H136772   4.147   7.748   4.306
12277TIP3    H236773   4.156   7.714   4.158
12278TIP3   OH236774   5.026   7.572   2.461
12278TIP3    H136775   5.023   7.614   2.375
12278TIP3    H236776   4.988   7.637   2.521
12279TIP3   OH236777   3.780   4.184   3.770
12279TIP3    H136778   3.794   4.094   3.799
12279TIP3    H236779   3.806   4.238   3.845
12280TIP3   OH236780   0.424   0.682   4.501
12280TIP3    H136781   0.341   0.641   4.524
12280TIP3    H236782   0.472   0.614   4.452
12281TIP3   OH236783   5.940   7.514   6.100
12281TIP3    H136784   5.897   7.434   6.070
12281TIP3    H236785   5.868   7.575   6.114
12282TIP3   OH236786   1.047   3.157   5.957
12282TIP3    H136787   1.112   3.185   5.893
12282TIP3    H236788   1.060   3.216   6.032
12283TIP3   OH236789   7.712   3.946   6.590
12283TIP3    H136790   7.771   3.929   6.517
12283TIP3    H236791   7.626   3.915   6.561
12284TIP3   OH236792   2.544   4.765   2.351
12284TIP3    H136793   2.563   4.858   2.362
12284TIP3    H236794   2.525   4.755   2.258
12285TIP3   OH236795   6.151   7.734   3.249
12285TIP3    H136796   6.122   7.650   3.215
12285TIP3    H236797   6.115   7.738   3.337
12286TIP3   OH236798   1.696   0.110   3.535
12286TIP3    H136799   1.630   0.180   3.541
12286TIP3    H236800   1.656   0.043   3.480
12287TIP3   OH236801   3.862   6.013   2.074
12287TIP3    H136802   3.951   6.046   2.088
12287TIP3    H236803   3.840   6.042   1.986
12288TIP3   OH236804   6.062   7.626   5.806
12288TIP3    H136805   6.091   7.692   5.868
12288TIP3    H236806   6.089   7.543   5.846
12289TIP3   OH236807   2.160   4.023   3.993
12289TIP3    H136808   2.209   4.067   4.062
12289TIP3    H236809   2.143   4.091   3.928
12290TIP3   OH236810   2.333   6.461   2.880
12290TIP3    H136811   2.418   6.471   2.922
12290TIP3    H236812   2.314   6.547   2.843
12291TIP3   OH236813   3.574   2.357   2.687
12291TIP3    H136814   3.553   2.356   2.594
12291TIP3    H236815   3.607   2.445   2.704
12292TIP3   OH236816   6.800   1.102   2.578
12292TIP3    H136817   6.797   1.198   2.579
12292TIP3    H236818   6.892   1.082   2.596
12293TIP3   OH236819   2.365   0.810   6.707
12293TIP3    H136820   2.303   0.827   6.637
12293TIP3    H236821   2.451   0.829   6.668
12294TIP3   OH236822   5.658   6.317   0.106
12294TIP3    H136823   5.718   6.250   0.138
12294TIP3    H236824   5.626   6.361   0.184
12295TIP3   OH236825   8.131   5.359   2.796
12295TIP3    H136826   8.053   5.305   2.810
12295TIP3    H236827   8.100   5.449   2.806
12296TIP3   OH236828   1.661   0.881   4.148
12296TIP3    H136829   1.754   0.858   4.144
12296TIP3    H236830   1.658   0.974   4.122
12297TIP3   OH236831   5.675   6.549   5.674
12297TIP3    H136832   5.760   6.565   5.632
12297TIP3    H236833   5.675   6.607   5.750
12298TIP3   OH236834   7.461   1.949   0.238
12298TIP3    H136835   7.393   1.984   0.180
12298TIP3    H236836   7.416   1.883   0.292
12299TIP3   OH236837   5.552   2.912   0.411
12299TIP3    H136838   5.620   2.867   0.461
12299TIP3    H236839   5.502   2.842   0.370
12300TIP3   OH236840   1.696   1.214   4.733
12300TIP3    H136841   1.743   1.138   4.767
12300TIP3    H236842   1.763   1.280   4.720
12301TIP3   OH236843   0.121   5.089   1.063
12301TIP3    H136844   0.181   5.082   1.137
12301TIP3    H236845   0.090   5.180   1.065
12302TIP3   OH236846   8.213   0.923   4.508
12302TIP3    H136847   8.194   0.858   4.576
12302TIP3    H236848   8.178   0.885   4.428
12303TIP3   OH236849   7.447   6.369   4.947
12303TIP3    H136850   7.357   6.343   4.970
12303TIP3    H236851   7.446   6.376   4.852
12304TIP3   OH236852   6.305   6.983   5.201
12304TIP3    H136853   6.218   7.000   5.166
12304TIP3    H236854   6.337   6.909   5.148
12305TIP3   OH236855   0.773   6.929   5.873
12305TIP3    H136856   0.748   7.015   5.837
12305TIP3    H236857   0.849   6.948   5.928
12306TIP3   OH236858   1.251   2.237   6.737
12306TIP3    H136859   1.226   2.147   6.716
12306TIP3    H236860   1.294   2.270   6.657
12307TIP3   OH236861   7.372   6.578   3.488
12307TIP3    H136862   7.294   6.633   3.482
12307TIP3    H236863   7.404   6.591   3.577
12308TIP3   OH236864   1.050   4.556   0.246
12308TIP3    H136865   1.006   4.590   0.168
12308TIP3    H236866   1.141   4.546   0.219
12309TIP3   OH236867   6.038   4.609   6.515
12309TIP3    H136868   5.996   4.556   6.583
12309TIP3    H236869   6.027   4.699   6.545
12310TIP3   OH236870   3.186   1.705   2.236
12310TIP3    H136871   3.165   1.747   2.319
12310TIP3    H236872   3.151   1.617   2.244
12311TIP3   OH236873   4.408   2.506   3.512
12311TIP3    H136874   4.426   2.580   3.570
12311TIP3    H236875   4.425   2.429   3.566
12312TIP3   OH236876   6.173   0.850   2.954
12312TIP3    H136877   6.129   0.770   2.983
12312TIP3    H236878   6.115   0.920   2.983
12313TIP3   OH236879   3.701   5.210   6.151
12313TIP3    H136880   3.679   5.149   6.081
12313TIP3    H236881   3.786   5.246   6.125
12314TIP3   OH236882   0.172   1.707   1.918
12314TIP3    H136883   0.091   1.661   1.938
12314TIP3    H236884   0.207   1.733   2.003
12315TIP3   OH236885   6.155   1.691   6.863
12315TIP3    H136886   6.077   1.653   6.903
12315TIP3    H236887   6.125   1.725   6.779
12316TIP3   OH236888   2.970   7.593   2.714
12316TIP3    H136889   2.978   7.504   2.679
12316TIP3    H236890   3.056   7.613   2.750
12317TIP3   OH236891   4.178   6.857   2.749
12317TIP3    H136892   4.158   6.827   2.837
12317TIP3    H236893   4.137   6.793   2.691
12318TIP3   OH236894   6.325   7.724   4.474
12318TIP3    H136895   6.254   7.684   4.523
12318TIP3    H236896   6.293   7.728   4.384
12319TIP3   OH236897   1.591   6.996   4.750
12319TIP3    H136898   1.522   7.052   4.787
12319TIP3    H236899   1.612   6.935   4.821
12320TIP3   OH236900   5.785   3.868   1.554
12320TIP3    H136901   5.829   3.891   1.472
12320TIP3    H236902   5.814   3.778   1.573
12321TIP3   OH236903   1.448   6.489   4.148
12321TIP3    H136904   1.504   6.567   4.143
12321TIP3    H236905   1.508   6.418   4.173
12322TIP3   OH236906   0.483   1.497   0.630
12322TIP3    H136907   0.447   1.408   0.626
12322TIP3    H236908   0.571   1.486   0.666
12323TIP3   OH236909   3.686   4.171   1.847
12323TIP3    H136910   3.684   4.076   1.845
12323TIP3    H236911   3.607   4.199   1.801
12324TIP3   OH236912   5.191   6.576   6.276
12324TIP3    H136913   5.259   6.536   6.221
12324TIP3    H236914   5.216   6.669   6.280
12325TIP3   OH236915   0.801   0.888   6.193
12325TIP3    H136916   0.740   0.826   6.151
12325TIP3    H236917   0.786   0.971   6.148
12326TIP3   OH236918   3.946   4.799   2.954
12326TIP3    H136919   4.011   4.847   3.006
12326TIP3    H236920   3.999   4.744   2.896
12327TIP3   OH236921   8.079   1.727   1.005
12327TIP3    H136922   7.993   1.741   1.046
12327TIP3    H236923   8.075   1.638   0.970
12328TIP3   OH236924   5.581   1.725   6.101
12328TIP3    H136925   5.621   1.646   6.066
12328TIP3    H236926   5.487   1.707   6.099
12329TIP3   OH236927   2.923   2.994   6.345
12329TIP3    H136928   2.878   2.910   6.344
12329TIP3    H236929   3.012   2.974   6.373
12330TIP3   OH236930   0.444   7.807   5.629
12330TIP3    H136931   0.425   7.813   5.723
12330TIP3    H236932   0.498   7.883   5.610
12331TIP3   OH236933   6.295   0.723   5.632
12331TIP3    H136934   6.294   0.646   5.690
12331TIP3    H236935   6.208   0.762   5.643
12332TIP3   OH236936   2.669   2.810   2.995
12332TIP3    H136937   2.740   2.866   2.963
12332TIP3    H236938   2.704   2.721   2.990
12333TIP3   OH236939   1.550   6.235   2.504
12333TIP3    H136940   1.542   6.140   2.509
12333TIP3    H236941   1.566   6.254   2.412
12334TIP3   OH236942   0.885   6.527   2.177
12334TIP3    H136943   0.922   6.533   2.265
12334TIP3    H236944   0.807   6.583   2.180
12335TIP3   OH236945   1.026   5.650   6.487
12335TIP3    H136946   1.006   5.591   6.559
12335TIP3    H236947   1.112   5.687   6.508
12336TIP3   OH236948   3.144   4.340   4.116
12336TIP3    H136949   3.167   4.247   4.113
12336TIP3    H236950   3.081   4.351   4.044
12337TIP3   OH236951   5.259   1.060   3.100
12337TIP3    H136952   5.218   1.057   3.187
12337TIP3    H236953   5.286   1.151   3.088
12338TIP3   OH236954   6.490   5.904   5.480
12338TIP3    H136955   6.499   5.824   5.532
12338TIP3    H236956   6.578   5.920   5.446
12339TIP3   OH236957   2.330   1.493   4.983
12339TIP3    H136958   2.326   1.438   4.905
12339TIP3    H236959   2.241   1.493   5.018
12340TIP3   OH236960   6.626   0.645   4.898
12340TIP3    H136961   6.574   0.672   4.974
12340TIP3    H236962   6.636   0.724   4.846
12341TIP3   OH236963   2.149   2.237   0.176
12341TIP3    H136964   2.142   2.244   0.081
12341TIP3    H236965   2.111   2.319   0.209
12342TIP3   OH236966   2.446   5.630   0.403
12342TIP3    H136967   2.519   5.686   0.431
12342TIP3    H236968   2.486   5.544   0.389
12343TIP3   OH236969   6.277   7.214   5.423
12343TIP3    H136970   6.209   7.279   5.443
12343TIP3    H236971   6.287   7.219   5.328
12344TIP3   OH236972   8.387   3.332   0.316
12344TIP3    H136973   8.442   3.269   0.363
12344TIP3    H236974   8.298   3.311   0.343
12345TIP3   OH236975   5.486   4.693   0.107
12345TIP3    H136976   5.541   4.769   0.128
12345TIP3    H236977   5.444   4.670   0.190
12346TIP3   OH236978   4.384   0.400   1.781
12346TIP3    H136979   4.295   0.433   1.771
12346TIP3    H236980   4.438   0.462   1.732
12347TIP3   OH236981   6.988   2.830   4.346
12347TIP3    H136982   7.083   2.818   4.349
12347TIP3    H236983   6.970   2.852   4.255
12348TIP3   OH236984   1.039   1.886   1.324
12348TIP3    H136985   1.030   1.876   1.419
12348TIP3    H236986   1.133   1.877   1.308
12349TIP3   OH236987   4.178   4.373   4.303
12349TIP3    H136988   4.086   4.398   4.295
12349TIP3    H236989   4.226   4.454   4.287
12350TIP3   OH236990   6.635   4.287   0.360
12350TIP3    H136991   6.551   4.315   0.324
12350TIP3    H236992   6.612   4.237   0.438
12351TIP3   OH236993   2.678   6.753   5.934
12351TIP3    H136994   2.638   6.671   5.905
12351TIP3    H236995   2.717   6.791   5.855
12352TIP3   OH236996   6.518   2.436   1.587
12352TIP3    H136997   6.562   2.420   1.670
12352TIP3    H236998   6.572   2.503   1.544
12353TIP3   OH236999   2.772   6.040   2.531
12353TIP3    H137000   2.747   6.061   2.441
12353TIP3    H237001   2.718   5.965   2.555
12354TIP3   OH237002   2.326   0.519   2.522
12354TIP3    H137003   2.280   0.451   2.571
12354TIP3    H237004   2.324   0.490   2.431
12355TIP3   OH237005   5.551   3.671   5.936
12355TIP3    H137006   5.496   3.718   5.998
12355TIP3    H237007   5.564   3.584   5.976
12356TIP3   OH237008   1.356   2.198   3.507
12356TIP3    H137009   1.377   2.105   3.510
12356TIP3    H237010   1.268   2.202   3.469
12357TIP3   OH237011   5.518   1.710   0.187
12357TIP3    H137012   5.429   1.721   0.220
12357TIP3    H237013   5.534   1.616   0.190
12358TIP3   OH237014   1.632   5.800   1.757
12358TIP3    H137015   1.699   5.733   1.745
12358TIP3    H237016   1.661   5.873   1.703
12359TIP3   OH237017   6.326   5.041   3.931
12359TIP3    H137018   6.346   5.134   3.920
12359TIP3    H237019   6.233   5.035   3.911
12360TIP3   OH237020   8.009   2.030   5.997
12360TIP3    H137021   8.069   1.956   5.988
12360TIP3    H237022   8.025   2.083   5.918
12361TIP3   OH237023   8.195   4.872   2.712
12361TIP3    H137024   8.201   4.810   2.785
12361TIP3    H237025   8.221   4.821   2.635
12362TIP3   OH237026   6.738   3.532   3.433
12362TIP3    H137027   6.645   3.518   3.446
12362TIP3    H237028   6.778   3.446   3.447
12363TIP3   OH237029   7.491   3.081   0.643
12363TIP3    H137030   7.419   3.139   0.669
12363TIP3    H237031   7.455   3.030   0.570
12364TIP3   OH237032   0.512   2.584   2.394
12364TIP3    H137033   0.481   2.593   2.484
12364TIP3    H237034   0.471   2.656   2.347
12365TIP3   OH237035   0.222   0.453   1.394
12365TIP3    H137036   0.206   0.492   1.480
12365TIP3    H237037   0.314   0.473   1.376
12366TIP3   OH237038   1.800   3.370   2.862
12366TIP3    H137039   1.719   3.340   2.820
12366TIP3    H237040   1.824   3.450   2.815
12367TIP3   OH237041   0.679   3.933   2.321
12367TIP3    H137042   0.600   3.959   2.275
12367TIP3    H237043   0.704   3.849   2.282
12368TIP3   OH237044   4.781   0.284   2.577
12368TIP3    H137045   4.831   0.217   2.531
12368TIP3    H237046   4.697   0.241   2.598
12369TIP3   OH237047   6.045   5.666   1.611
12369TIP3    H137048   6.070   5.592   1.556
12369TIP3    H237049   5.992   5.722   1.553
12370TIP3   OH237050   1.678   6.641   2.903
12370TIP3    H137051   1.688   6.671   2.813
12370TIP3    H237052   1.755   6.674   2.948
12371TIP3   OH237053   1.164   6.640   0.819
12371TIP3    H137054   1.130   6.727   0.799
12371TIP3    H237055   1.251   6.639   0.780
12372TIP3   OH237056   5.760   3.665   0.209
12372TIP3    H137057   5.676   3.644   0.249
12372TIP3    H237058   5.785   3.749   0.248
12373TIP3   OH237059   3.664   5.576   0.130
12373TIP3    H137060   3.685   5.650   0.073
12373TIP3    H237061   3.670   5.612   0.218
12374TIP3   OH237062   4.744   6.104   2.599
12374TIP3    H137063   4.748   6.180   2.541
12374TIP3    H237064   4.833   6.093   2.631
12375TIP3   OH237065   4.435   3.677   5.090
12375TIP3    H137066   4.431   3.751   5.151
12375TIP3    H237067   4.516   3.690   5.041
12376TIP3   OH237068   3.850   5.704   3.471
12376TIP3    H137069   3.892   5.619   3.480
12376TIP3    H237070   3.860   5.745   3.557
12377TIP3   OH237071   3.489   4.120   5.205
12377TIP3    H137072   3.505   4.048   5.266
12377TIP3    H237073   3.568   4.173   5.210
12378TIP3   OH237074   2.543   1.378   6.250
12378TIP3    H137075   2.453   1.360   6.277
12378TIP3    H237076   2.591   1.387   6.332
12379TIP3   OH237077   5.288   4.775   4.292
12379TIP3    H137078   5.360   4.835   4.273
12379TIP3    H237079   5.255   4.749   4.206
12380TIP3   OH237080   7.623   3.095   0.021
12380TIP3    H137081   7.591   3.016   0.064
12380TIP3    H237082   7.674   3.064  -0.054
12381TIP3   OH237083   8.094   2.771   4.653
12381TIP3    H137084   8.184   2.778   4.621
12381TIP3    H237085   8.048   2.723   4.584
12382TIP3   OH237086   2.192   2.896   1.038
12382TIP3    H137087   2.149   2.820   0.998
12382TIP3    H237088   2.270   2.911   0.984
12383TIP3   OH237089   1.699   7.060   1.348
12383TIP3    H137090   1.790   7.041   1.325
12383TIP3    H237091   1.678   6.997   1.417
12384TIP3   OH237092   0.219   3.001   1.470
12384TIP3    H137093   0.175   2.987   1.554
12384TIP3    H237094   0.157   3.052   1.418
12385TIP3   OH237095   0.207   5.529   1.864
12385TIP3    H137096   0.226   5.585   1.939
12385TIP3    H237097   0.169   5.450   1.901
12386TIP3   OH237098   7.718   2.652   6.170
12386TIP3    H137099   7.735   2.585   6.105
12386TIP3    H237100   7.659   2.714   6.127
12387TIP3   OH237101   7.160   5.928   4.695
12387TIP3    H137102   7.071   5.901   4.720
12387TIP3    H237103   7.160   6.023   4.705
12388TIP3   OH237104   7.734   6.650   3.601
12388TIP3    H137105   7.723   6.555   3.594
12388TIP3    H237106   7.648   6.686   3.580
12389TIP3   OH237107   6.812   7.264   2.957
12389TIP3    H137108   6.805   7.307   2.872
12389TIP3    H237109   6.791   7.332   3.021
12390TIP3   OH237110   8.163   0.598   0.388
12390TIP3    H137111   8.186   0.665   0.452
12390TIP3    H237112   8.247   0.571   0.351
12391TIP3   OH237113   1.460   3.088   2.234
12391TIP3    H137114   1.518   3.079   2.158
12391TIP3    H237115   1.512   3.056   2.307
12392TIP3   OH237116   4.086   1.649   4.760
12392TIP3    H137117   4.124   1.637   4.672
12392TIP3    H237118   4.034   1.729   4.752
12393TIP3   OH237119   4.686   7.214   0.075
12393TIP3    H137120   4.737   7.160   0.014
12393TIP3    H237121   4.607   7.163   0.093
12394TIP3   OH237122   1.597   5.326   0.536
12394TIP3    H137123   1.566   5.336   0.626
12394TIP3    H237124   1.557   5.245   0.506
12395TIP3   OH237125   6.733   2.584   0.730
12395TIP3    H137126   6.748   2.496   0.765
12395TIP3    H237127   6.774   2.642   0.794
12396TIP3   OH237128   6.277   0.026   5.819
12396TIP3    H137129   6.191   0.008   5.857
12396TIP3    H237130   6.269   0.112   5.779
12397TIP3   OH237131   1.068   1.140   6.757
12397TIP3    H137132   1.024   1.089   6.689
12397TIP3    H237133   1.098   1.075   6.820
12398TIP3   OH237134   5.641   7.206   2.936
12398TIP3    H137135   5.660   7.291   2.895
12398TIP3    H237136   5.728   7.169   2.954
12399TIP3   OH237137   1.005   2.338   3.971
12399TIP3    H137138   1.017   2.330   3.876
12399TIP3    H237139   0.926   2.287   3.990
12400TIP3   OH237140   7.248   0.795   4.655
12400TIP3    H137141   7.201   0.871   4.690
12400TIP3    H237142   7.325   0.787   4.712
12401TIP3   OH237143   6.683   3.183   5.110
12401TIP3    H137144   6.769   3.154   5.139
12401TIP3    H237145   6.621   3.135   5.166
12402TIP3   OH237146   0.129   1.616   3.928
12402TIP3    H137147   0.128   1.674   4.004
12402TIP3    H237148   0.037   1.601   3.908
12403TIP3   OH237149   2.660   1.644   5.985
12403TIP3    H137150   2.632   1.553   5.993
12403TIP3    H237151   2.662   1.676   6.075
12404TIP3   OH237152   4.785   1.929   5.126
12404TIP3    H137153   4.802   2.017   5.159
12404TIP3    H237154   4.754   1.880   5.203
12405TIP3   OH237155   4.208   0.903   2.120
12405TIP3    H137156   4.116   0.922   2.106
12405TIP3    H237157   4.213   0.808   2.123
12406TIP3   OH237158   5.228   7.730   6.058
12406TIP3    H137159   5.171   7.790   6.011
12406TIP3    H237160   5.316   7.752   6.028
12407TIP3   OH237161   1.667   3.797   5.117
12407TIP3    H137162   1.711   3.842   5.045
12407TIP3    H237163   1.574   3.807   5.098
12408TIP3   OH237164   6.131   0.842   4.352
12408TIP3    H137165   6.148   0.929   4.316
12408TIP3    H237166   6.103   0.858   4.442
12409TIP3   OH237167   7.355   3.638   3.730
12409TIP3    H137168   7.427   3.658   3.790
12409TIP3    H237169   7.286   3.700   3.753
12410TIP3   OH237170   0.550   7.498   4.342
12410TIP3    H137171   0.469   7.491   4.393
12410TIP3    H237172   0.537   7.437   4.269
12411TIP3   OH237173   6.426   7.059   2.693
12411TIP3    H137174   6.333   7.059   2.673
12411TIP3    H237175   6.436   7.125   2.762
12412TIP3   OH237176   5.073   4.242   6.593
12412TIP3    H137177   5.074   4.194   6.676
12412TIP3    H237178   5.081   4.174   6.526
12413TIP3   OH237179   2.674   2.310   2.745
12413TIP3    H137180   2.684   2.232   2.690
12413TIP3    H237181   2.584   2.339   2.729
12414TIP3   OH237182   0.624   3.123   5.672
12414TIP3    H137183   0.720   3.117   5.665
12414TIP3    H237184   0.603   3.069   5.748
12415TIP3   OH237185   0.560   7.793   2.455
12415TIP3    H137186   0.616   7.726   2.495
12415TIP3    H237187   0.574   7.871   2.510
12416TIP3   OH237188   8.216   5.851   0.081
12416TIP3    H137189   8.218   5.858  -0.015
12416TIP3    H237190   8.182   5.763   0.097
12417TIP3   OH237191   4.815   4.310   0.550
12417TIP3    H137192   4.726   4.317   0.516
12417TIP3    H237193   4.812   4.351   0.636
12418TIP3   OH237194   7.259   2.933   0.875
12418TIP3    H137195   7.221   3.018   0.852
12418TIP3    H237196   7.190   2.889   0.925
12419TIP3   OH237197   1.227   4.220   3.460
12419TIP3    H137198   1.230   4.225   3.364
12419TIP3    H237199   1.262   4.304   3.489
12420TIP3   OH237200   4.826   0.081   1.394
12420TIP3    H137201   4.898   0.145   1.397
12420TIP3    H237202   4.867   0.001   1.360
12421TIP3   OH237203   6.180   4.985   6.852
12421TIP3    H137204   6.271   4.958   6.853
12421TIP3    H237205   6.181   5.075   6.818
12422TIP3   OH237206   7.304   7.843   3.275
12422TIP3    H137207   7.307   7.812   3.184
12422TIP3    H237208   7.291   7.937   3.268
12423TIP3   OH237209   4.044   6.937   5.166
12423TIP3    H137210   4.075   6.847   5.180
12423TIP3    H237211   3.971   6.928   5.105
12424TIP3   OH237212   4.070   6.856   0.154
12424TIP3    H137213   3.986   6.818   0.127
12424TIP3    H237214   4.046   6.923   0.218
12425TIP3   OH237215   1.562   6.796   0.738
12425TIP3    H137216   1.523   6.754   0.662
12425TIP3    H237217   1.657   6.793   0.722
12426TIP3   OH237218   7.420   2.060   0.774
12426TIP3    H137219   7.330   2.041   0.746
12426TIP3    H237220   7.461   2.099   0.696
12427TIP3   OH237221   2.190   3.325   2.148
12427TIP3    H137222   2.242   3.397   2.113
12427TIP3    H237223   2.127   3.367   2.207
12428TIP3   OH237224   3.283   7.903   0.315
12428TIP3    H137225   3.321   7.918   0.229
12428TIP3    H237226   3.245   7.988   0.339
12429TIP3   OH237227   7.951   3.556   0.372
12429TIP3    H137228   8.044   3.574   0.381
12429TIP3    H237229   7.911   3.642   0.355
12430TIP3   OH237230   5.303   4.586   5.563
12430TIP3    H137231   5.355   4.508   5.545
12430TIP3    H237232   5.336   4.652   5.502
12431TIP3   OH237233   2.394   2.052   1.727
12431TIP3    H137234   2.432   2.107   1.659
12431TIP3    H237235   2.410   1.963   1.697
12432TIP3   OH237236   3.729   5.249   3.660
12432TIP3    H137237   3.671   5.278   3.730
12432TIP3    H237238   3.815   5.284   3.683
12433TIP3   OH237239   4.041   0.156   6.000
12433TIP3    H137240   4.131   0.132   5.976
12433TIP3    H237241   4.034   0.132   6.093
12434TIP3   OH237242   6.016   2.590   4.901
12434TIP3    H137243   5.944   2.533   4.927
12434TIP3    H237244   6.013   2.590   4.805
12435TIP3   OH237245   2.589   5.860   2.645
12435TIP3    H137246   2.585   5.770   2.614
12435TIP3    H237247   2.584   5.853   2.740
12436TIP3   OH237248   3.199   6.582   6.752
12436TIP3    H137249   3.245   6.644   6.808
12436TIP3    H237250   3.228   6.496   6.782
12437TIP3   OH237251  -0.009   5.195   6.255
12437TIP3    H137252   0.030   5.107   6.255
12437TIP3    H237253   0.065   5.254   6.244
12438TIP3   OH237254   8.000   4.564   1.032
12438TIP3    H137255   7.971   4.519   0.953
12438TIP3    H237256   8.039   4.646   1.001
12439TIP3   OH237257   4.144   4.388   5.990
12439TIP3    H137258   4.144   4.306   5.940
12439TIP3    H237259   4.229   4.428   5.970
12440TIP3   OH237260   1.566   6.847   6.224
12440TIP3    H137261   1.510   6.801   6.162
12440TIP3    H237262   1.551   6.803   6.308
12441TIP3   OH237263   3.637   3.117   4.479
12441TIP3    H137264   3.653   3.030   4.515
12441TIP3    H237265   3.544   3.119   4.460
12442TIP3   OH237266   0.640   4.073   3.278
12442TIP3    H137267   0.666   4.068   3.370
12442TIP3    H237268   0.622   4.166   3.263
12443TIP3   OH237269   6.865   3.805   2.438
12443TIP3    H137270   6.897   3.776   2.523
12443TIP3    H237271   6.942   3.805   2.381
12444TIP3   OH237272   6.782   6.764   4.435
12444TIP3    H137273   6.865   6.719   4.447
12444TIP3    H237274   6.760   6.799   4.521
12445TIP3   OH237275   4.884   2.141   3.075
12445TIP3    H137276   4.850   2.226   3.103
12445TIP3    H237277   4.976   2.143   3.102
12446TIP3   OH237278   2.017   5.958   3.330
12446TIP3    H137279   1.945   6.016   3.303
12446TIP3    H237280   2.096   6.011   3.316
12447TIP3   OH237281   0.386   5.826   6.812
12447TIP3    H137282   0.378   5.863   6.724
12447TIP3    H237283   0.426   5.740   6.798
12448TIP3   OH237284   6.709   5.526   4.740
12448TIP3    H137285   6.615   5.527   4.759
12448TIP3    H237286   6.720   5.590   4.670
12449TIP3   OH237287   2.007   3.391   4.520
12449TIP3    H137288   1.964   3.452   4.460
12449TIP3    H237289   2.095   3.381   4.485
12450TIP3   OH237290   0.279   3.959   2.294
12450TIP3    H137291   0.247   3.951   2.205
12450TIP3    H237292   0.303   4.051   2.303
12451TIP3   OH237293   7.659   7.801   5.040
12451TIP3    H137294   7.680   7.875   5.096
12451TIP3    H237295   7.732   7.795   4.978
12452TIP3   OH237296   7.117   7.418   3.013
12452TIP3    H137297   7.120   7.352   2.944
12452TIP3    H237298   7.026   7.446   3.016
12453TIP3   OH237299   4.695   5.036   4.589
12453TIP3    H137300   4.769   5.009   4.644
12453TIP3    H237301   4.733   5.096   4.525
12454TIP3   OH237302   7.492   5.600   4.198
12454TIP3    H137303   7.489   5.632   4.288
12454TIP3    H237304   7.492   5.505   4.206
12455TIP3   OH237305   6.441   7.196   1.902
12455TIP3    H137306   6.513   7.228   1.847
12455TIP3    H237307   6.404   7.275   1.941
12456TIP3   OH237308   0.056   2.544   5.768
12456TIP3    H137309   0.032   2.559   5.676
12456TIP3    H237310   0.108   2.620   5.792
12457TIP3   OH237311   4.720   3.872   1.224
12457TIP3    H137312   4.688   3.962   1.220
12457TIP3    H237313   4.661   3.822   1.168
12458TIP3   OH237314   6.924   5.045   4.060
12458TIP3    H137315   6.997   5.013   4.007
12458TIP3    H237316   6.964   5.073   4.142
12459TIP3   OH237317   0.505   4.829   3.515
12459TIP3    H137318   0.572   4.847   3.582
12459TIP3    H237319   0.535   4.750   3.471
12460TIP3   OH237320   0.577   7.768   4.212
12460TIP3    H137321   0.666   7.804   4.210
12460TIP3    H237322   0.583   7.694   4.273
12461TIP3   OH237323   0.905   0.072   6.765
12461TIP3    H137324   0.894   0.095   6.672
12461TIP3    H237325   0.937  -0.018   6.763
12462TIP3   OH237326   2.850   5.621   1.348
12462TIP3    H137327   2.880   5.551   1.290
12462TIP3    H237328   2.755   5.621   1.338
12463TIP3   OH237329   1.913   0.237   0.780
12463TIP3    H137330   2.006   0.217   0.771
12463TIP3    H237331   1.876   0.217   0.694
12464TIP3   OH237332   3.658   2.314   0.605
12464TIP3    H137333   3.725   2.302   0.672
12464TIP3    H237334   3.661   2.408   0.585
12465TIP3   OH237335   0.122   7.819   4.484
12465TIP3    H137336   0.091   7.757   4.417
12465TIP3    H237337   0.178   7.880   4.436
12466TIP3   OH237338   4.925   3.555   1.927
12466TIP3    H137339   4.945   3.504   1.848
12466TIP3    H237340   4.850   3.609   1.902
12467TIP3   OH237341   6.490   3.937   0.830
12467TIP3    H137342   6.490   3.842   0.831
12467TIP3    H237343   6.397   3.961   0.828
12468TIP3   OH237344   1.674   0.865   5.231
12468TIP3    H137345   1.747   0.809   5.207
12468TIP3    H237346   1.705   0.915   5.306
12469TIP3   OH237347   0.425   7.907   2.244
12469TIP3    H137348   0.340   7.864   2.234
12469TIP3    H237349   0.468   7.860   2.315
12470TIP3   OH237350   2.443   4.769   6.338
12470TIP3    H137351   2.519   4.782   6.280
12470TIP3    H237352   2.478   4.782   6.426
12471TIP3   OH237353   8.277   0.649   2.216
12471TIP3    H137354   8.341   0.709   2.178
12471TIP3    H237355   8.297   0.649   2.309
12472TIP3   OH237356   2.174   6.906   6.718
12472TIP3    H137357   2.180   6.826   6.770
12472TIP3    H237358   2.171   6.876   6.628
12473TIP3   OH237359   2.093   2.520   4.615
12473TIP3    H137360   2.137   2.560   4.690
12473TIP3    H237361   2.048   2.594   4.573
12474TIP3   OH237362   2.183   6.207   4.348
12474TIP3    H137363   2.120   6.259   4.399
12474TIP3    H237364   2.268   6.243   4.372
12475TIP3   OH237365   4.875   7.144   0.297
12475TIP3    H137366   4.800   7.173   0.245
12475TIP3    H237367   4.908   7.067   0.251
12476TIP3   OH237368   7.796   4.852   1.923
12476TIP3    H137369   7.862   4.786   1.901
12476TIP3    H237370   7.784   4.843   2.017
12477TIP3   OH237371   6.061   0.133   5.195
12477TIP3    H137372   6.061   0.183   5.114
12477TIP3    H237373   6.022   0.049   5.172
12478TIP3   OH237374   7.529   7.460   2.585
12478TIP3    H137375   7.543   7.531   2.647
12478TIP3    H237376   7.485   7.392   2.635
12479TIP3   OH237377   1.853   0.164   1.050
12479TIP3    H137378   1.843   0.071   1.069
12479TIP3    H237379   1.860   0.169   0.955
12480TIP3   OH237380   5.064   2.678   6.610
12480TIP3    H137381   5.000   2.606   6.608
12480TIP3    H237382   5.011   2.757   6.604
12481TIP3   OH237383   1.650   2.194   1.359
12481TIP3    H137384   1.675   2.112   1.315
12481TIP3    H237385   1.615   2.166   1.444
12482TIP3   OH237386   0.083   6.778   6.352
12482TIP3    H137387   0.154   6.773   6.417
12482TIP3    H237388   0.052   6.869   6.359
12483TIP3   OH237389   8.154   0.379   2.736
12483TIP3    H137390   8.087   0.393   2.803
12483TIP3    H237391   8.236   0.404   2.779
12484TIP3   OH237392   4.296   7.405   6.090
12484TIP3    H137393   4.379   7.431   6.130
12484TIP3    H237394   4.303   7.433   5.999
12485TIP3   OH237395   7.922   5.033   2.529
12485TIP3    H137396   7.945   5.107   2.586
12485TIP3    H237397   7.855   4.985   2.578
12486TIP3   OH237398   2.685   4.210   6.195
12486TIP3    H137399   2.631   4.140   6.158
12486TIP3    H237400   2.736   4.167   6.264
12487TIP3   OH237401   3.874   3.883   3.784
12487TIP3    H137402   3.935   3.809   3.784
12487TIP3    H237403   3.890   3.928   3.867
12488TIP3   OH237404   4.990   2.261   3.455
12488TIP3    H137405   5.071   2.284   3.408
12488TIP3    H237406   4.920   2.287   3.395
12489TIP3   OH237407   3.828   7.149   5.952
12489TIP3    H137408   3.895   7.203   5.910
12489TIP3    H237409   3.778   7.209   6.006
12490TIP3   OH237410   7.704   4.110   1.209
12490TIP3    H137411   7.735   4.157   1.287
12490TIP3    H237412   7.705   4.018   1.235
12491TIP3   OH237413   0.678   3.997   6.455
12491TIP3    H137414   0.713   4.047   6.382
12491TIP3    H237415   0.583   4.001   6.444
12492TIP3   OH237416   1.825   2.402   2.323
12492TIP3    H137417   1.899   2.427   2.267
12492TIP3    H237418   1.748   2.411   2.266
12493TIP3   OH237419   6.881   1.316   5.520
12493TIP3    H137420   6.833   1.336   5.601
12493TIP3    H237421   6.958   1.373   5.523
12494TIP3   OH237422   3.671   4.374   0.872
12494TIP3    H137423   3.687   4.296   0.926
12494TIP3    H237424   3.575   4.382   0.870
12495TIP3   OH237425   7.647   5.385   5.635
12495TIP3    H137426   7.676   5.394   5.544
12495TIP3    H237427   7.552   5.398   5.632
12496TIP3   OH237428   7.931   4.676   3.822
12496TIP3    H137429   7.944   4.591   3.864
12496TIP3    H237430   7.902   4.734   3.893
12497TIP3   OH237431   8.019   5.479   5.624
12497TIP3    H137432   8.092   5.527   5.663
12497TIP3    H237433   7.942   5.532   5.644
12498TIP3   OH237434   4.287   3.573   0.785
12498TIP3    H137435   4.361   3.512   0.789
12498TIP3    H237436   4.248   3.557   0.699
12499TIP3   OH237437   8.326   6.428   4.506
12499TIP3    H137438   8.382   6.424   4.584
12499TIP3    H237439   8.341   6.516   4.471
12500TIP3   OH237440   5.459   3.449   2.662
12500TIP3    H137441   5.546   3.464   2.699
12500TIP3    H237442   5.462   3.491   2.576
12501TIP3   OH237443   6.556   5.242   6.401
12501TIP3    H137444   6.639   5.196   6.387
12501TIP3    H237445   6.493   5.195   6.347
12502TIP3   OH237446   6.499   5.868   2.795
12502TIP3    H137447   6.570   5.920   2.756
12502TIP3    H237448   6.544   5.796   2.839
12503TIP3   OH237449   5.818   1.086   4.415
12503TIP3    H137450   5.767   1.165   4.397
12503TIP3    H237451   5.876   1.111   4.487
12504TIP3   OH237452   6.570   4.748   0.612
12504TIP3    H137453   6.497   4.784   0.561
12504TIP3    H237454   6.629   4.822   0.625
12505TIP3   OH237455   2.910   0.672   1.627
12505TIP3    H137456   2.820   0.676   1.594
12505TIP3    H237457   2.921   0.752   1.677
12506TIP3   OH237458   2.634   3.041   6.185
12506TIP3    H137459   2.617   2.990   6.106
12506TIP3    H237460   2.603   3.129   6.164
12507TIP3   OH237461   6.293   3.776   0.633
12507TIP3    H137462   6.256   3.864   0.637
12507TIP3    H237463   6.283   3.749   0.542
12508TIP3   OH237464   0.953   2.382   2.704
12508TIP3    H137465   0.894   2.308   2.715
12508TIP3    H237466   0.936   2.439   2.778
12509TIP3   OH237467   1.414   2.487   0.249
12509TIP3    H137468   1.499   2.531   0.249
12509TIP3    H237469   1.397   2.470   0.156
12510TIP3   OH237470   4.604   3.887   2.552
12510TIP3    H137471   4.621   3.910   2.643
12510TIP3    H237472   4.639   3.798   2.543
12511TIP3   OH237473   7.551   4.964   0.792
12511TIP3    H137474   7.631   4.975   0.843
12511TIP3    H237475   7.579   4.970   0.700
12512TIP3   OH237476   4.077   1.877   0.407
12512TIP3    H137477   4.100   1.962   0.370
12512TIP3    H237478   4.096   1.885   0.500
12513TIP3   OH237479   7.370   1.442   6.689
12513TIP3    H137480   7.416   1.441   6.773
12513TIP3    H237481   7.299   1.378   6.700
12514TIP3   OH237482   1.536   5.724   1.231
12514TIP3    H137483   1.588   5.649   1.261
12514TIP3    H237484   1.571   5.746   1.145
12515TIP3   OH237485   1.584   7.543   6.066
12515TIP3    H137486   1.524   7.474   6.095
12515TIP3    H237487   1.663   7.496   6.040
12516TIP3   OH237488   6.423   4.617   1.068
12516TIP3    H137489   6.355   4.580   1.012
12516TIP3    H237490   6.399   4.709   1.076
12517TIP3   OH237491   6.751   3.738   6.136
12517TIP3    H137492   6.811   3.721   6.064
12517TIP3    H237493   6.755   3.832   6.149
12518TIP3   OH237494   7.708   2.160   0.428
12518TIP3    H137495   7.704   2.246   0.387
12518TIP3    H237496   7.620   2.145   0.461
12519TIP3   OH237497   7.474   1.188   0.478
12519TIP3    H137498   7.462   1.211   0.571
12519TIP3    H237499   7.405   1.235   0.433
12520TIP3   OH237500   1.437   0.208   5.090
12520TIP3    H137501   1.492   0.209   5.012
12520TIP3    H237502   1.362   0.263   5.067
12521TIP3   OH237503   0.809   5.777   3.294
12521TIP3    H137504   0.816   5.866   3.260
12521TIP3    H237505   0.779   5.725   3.220
12522TIP3   OH237506   6.429   2.377   4.274
12522TIP3    H137507   6.441   2.457   4.324
12522TIP3    H237508   6.518   2.353   4.244
12523TIP3   OH237509   1.161   2.969   4.686
12523TIP3    H137510   1.067   2.955   4.701
12523TIP3    H237511   1.188   3.028   4.756
12524TIP3   OH237512   3.645   0.477   5.891
12524TIP3    H137513   3.611   0.544   5.950
12524TIP3    H237514   3.613   0.504   5.805
12525TIP3   OH237515   3.340   6.702   1.454
12525TIP3    H137516   3.307   6.747   1.376
12525TIP3    H237517   3.408   6.643   1.420
12526TIP3   OH237518   2.799   1.583   4.415
12526TIP3    H137519   2.720   1.633   4.435
12526TIP3    H237520   2.869   1.630   4.461
12527TIP3   OH237521   3.538   5.208   0.102
12527TIP3    H137522   3.447   5.232   0.081
12527TIP3    H237523   3.538   5.113   0.101
12528TIP3   OH237524   1.967   5.451   2.787
12528TIP3    H137525   2.049   5.488   2.755
12528TIP3    H237526   1.979   5.356   2.778
12529TIP3   OH237527   5.333   4.128   6.897
12529TIP3    H137528   5.238   4.134   6.887
12529TIP3    H237529   5.357   4.045   6.855
12530TIP3   OH237530   6.542   6.263   5.259
12530TIP3    H137531   6.637   6.269   5.271
12530TIP3    H237532   6.528   6.294   5.169
12531TIP3   OH237533   3.631   3.956   0.171
12531TIP3    H137534   3.579   3.891   0.123
12531TIP3    H237535   3.657   4.020   0.104
12532TIP3   OH237536   0.476   0.235   4.187
12532TIP3    H137537   0.458   0.166   4.123
12532TIP3    H237538   0.391   0.275   4.204
12533TIP3   OH237539   1.660   6.426   4.933
12533TIP3    H137540   1.703   6.479   5.000
12533TIP3    H237541   1.615   6.489   4.877
12534TIP3   OH237542   3.653   2.172   3.224
12534TIP3    H137543   3.598   2.207   3.154
12534TIP3    H237544   3.647   2.077   3.215
12535TIP3   OH237545   0.512   2.468   4.325
12535TIP3    H137546   0.521   2.422   4.241
12535TIP3    H237547   0.518   2.398   4.390
12536TIP3   OH237548   1.103   0.377   1.112
12536TIP3    H137549   1.173   0.349   1.053
12536TIP3    H237550   1.127   0.466   1.138
12537TIP3   OH237551   5.980   1.118   6.746
12537TIP3    H137552   5.892   1.116   6.709
12537TIP3    H237553   6.017   1.033   6.725
12538TIP3   OH237554   5.147   2.029   5.431
12538TIP3    H137555   5.087   2.072   5.491
12538TIP3    H237556   5.101   1.951   5.402
12539TIP3   OH237557   5.350   0.872   2.932
12539TIP3    H137558   5.306   0.905   2.854
12539TIP3    H237559   5.312   0.922   3.004
12540TIP3   OH237560   5.641   1.598   2.653
12540TIP3    H137561   5.621   1.519   2.603
12540TIP3    H237562   5.712   1.640   2.605
12541TIP3   OH237563   1.257   3.506   3.496
12541TIP3    H137564   1.238   3.416   3.471
12541TIP3    H237565   1.218   3.515   3.583
12542TIP3   OH237566   8.224   7.667   1.842
12542TIP3    H137567   8.167   7.593   1.865
12542TIP3    H237568   8.313   7.631   1.848
12543TIP3   OH237569   2.575   0.432   0.470
12543TIP3    H137570   2.591   0.348   0.427
12543TIP3    H237571   2.529   0.484   0.405
12544TIP3   OH237572   7.110   7.899   0.529
12544TIP3    H137573   7.077   7.924   0.443
12544TIP3    H237574   7.161   7.820   0.513
12545TIP3   OH237575   5.580   6.531   1.220
12545TIP3    H137576   5.500   6.535   1.169
12545TIP3    H237577   5.613   6.621   1.222
12546TIP3   OH237578   1.349   4.392   6.764
12546TIP3    H137579   1.430   4.363   6.721
12546TIP3    H237580   1.377   4.420   6.851
12547TIP3   OH237581   4.385   4.737   4.781
12547TIP3    H137582   4.458   4.767   4.726
12547TIP3    H237583   4.307   4.767   4.736
12548TIP3   OH237584   2.140   3.360   1.329
12548TIP3    H137585   2.123   3.325   1.241
12548TIP3    H237586   2.189   3.291   1.373
12549TIP3   OH237587   4.105   3.444   2.530
12549TIP3    H137588   4.181   3.416   2.582
12549TIP3    H237589   4.142   3.501   2.462
12550TIP3   OH237590   2.006   4.682   6.039
12550TIP3    H137591   2.068   4.727   6.097
12550TIP3    H237592   2.007   4.591   6.067
12551TIP3   OH237593   5.026   4.693   6.009
12551TIP3    H137594   5.010   4.616   6.063
12551TIP3    H237595   4.943   4.709   5.964
12552TIP3   OH237596   3.248   7.031   3.937
12552TIP3    H137597   3.202   6.949   3.956
12552TIP3    H237598   3.190   7.079   3.878
12553TIP3   OH237599   2.468   4.954   1.528
12553TIP3    H137600   2.386   4.905   1.519
12553TIP3    H237601   2.512   4.913   1.602
12554TIP3   OH237602   3.270   7.897   0.610
12554TIP3    H137603   3.277   7.884   0.516
12554TIP3    H237604   3.270   7.809   0.647
12555TIP3   OH237605   3.468   6.106   6.499
12555TIP3    H137606   3.454   6.110   6.593
12555TIP3    H237607   3.528   6.032   6.487
12556TIP3   OH237608   6.989   7.256   5.348
12556TIP3    H137609   7.022   7.342   5.322
12556TIP3    H237610   7.016   7.248   5.440
12557TIP3   OH237611   0.856   4.924   4.485
12557TIP3    H137612   0.807   4.925   4.567
12557TIP3    H237613   0.796   4.961   4.420
12558TIP3   OH237614   3.640   0.452   0.695
12558TIP3    H137615   3.611   0.510   0.625
12558TIP3    H237616   3.617   0.499   0.775
12559TIP3   OH237617   5.399   2.977   6.351
12559TIP3    H137618   5.398   2.885   6.325
12559TIP3    H237619   5.370   2.977   6.442
12560TIP3   OH237620   1.521   5.851   6.665
12560TIP3    H137621   1.467   5.811   6.733
12560TIP3    H237622   1.583   5.782   6.640
12561TIP3   OH237623   6.085   4.712   1.344
12561TIP3    H137624   6.128   4.766   1.409
12561TIP3    H237625   6.127   4.735   1.261
12562TIP3   OH237626   0.617   5.793   6.147
12562TIP3    H137627   0.607   5.873   6.094
12562TIP3    H237628   0.664   5.732   6.090
12563TIP3   OH237629   2.342   5.936   2.480
12563TIP3    H137630   2.364   5.937   2.574
12563TIP3    H237631   2.427   5.940   2.436
12564TIP3   OH237632   4.258   5.362   5.926
12564TIP3    H137633   4.306   5.392   5.849
12564TIP3    H237634   4.167   5.387   5.909
12565TIP3   OH237635   7.037   6.580   6.815
12565TIP3    H137636   7.002   6.501   6.857
12565TIP3    H237637   7.025   6.565   6.722
12566TIP3   OH237638   5.002   3.222   0.806
12566TIP3    H137639   4.919   3.270   0.812
12566TIP3    H237640   4.976   3.130   0.796
12567TIP3   OH237641   3.932   7.926   0.878
12567TIP3    H137642   3.989   7.855   0.849
12567TIP3    H237643   3.978   7.964   0.953
12568TIP3   OH237644   1.524   1.206   5.314
12568TIP3    H137645   1.496   1.115   5.303
12568TIP3    H237646   1.583   1.223   5.241
12569TIP3   OH237647   5.634   4.222   5.876
12569TIP3    H137648   5.591   4.183   5.800
12569TIP3    H237649   5.563   4.264   5.925
12570TIP3   OH237650   6.868   0.781   6.202
12570TIP3    H137651   6.913   0.847   6.148
12570TIP3    H237652   6.775   0.792   6.181
12571TIP3   OH237653   1.071   2.718   1.875
12571TIP3    H137654   0.976   2.712   1.889
12571TIP3    H237655   1.103   2.775   1.945
12572TIP3   OH237656   1.662   7.735   2.391
12572TIP3    H137657   1.590   7.681   2.426
12572TIP3    H237658   1.739   7.706   2.440
12573TIP3   OH237659   3.772   5.115   1.885
12573TIP3    H137660   3.829   5.192   1.884
12573TIP3    H237661   3.779   5.081   1.974
12574TIP3   OH237662   7.307   1.426   6.404
12574TIP3    H137663   7.354   1.482   6.465
12574TIP3    H237664   7.216   1.432   6.430
12575TIP3   OH237665   6.278   1.016   3.215
12575TIP3    H137666   6.284   0.969   3.131
12575TIP3    H237667   6.365   1.006   3.254
12576TIP3   OH237668   8.050   5.659   6.309
12576TIP3    H137669   8.065   5.611   6.227
12576TIP3    H237670   8.098   5.740   6.298
12577TIP3   OH237671   1.867   4.447   2.556
12577TIP3    H137672   1.813   4.368   2.562
12577TIP3    H237673   1.870   4.481   2.645
12578TIP3   OH237674   3.713   3.598   4.697
12578TIP3    H137675   3.714   3.667   4.630
12578TIP3    H237676   3.732   3.518   4.649
12579TIP3   OH237677   1.166   5.361   3.358
12579TIP3    H137678   1.129   5.444   3.329
12579TIP3    H237679   1.251   5.356   3.314
12580TIP3   OH237680   8.161   2.611   0.956
12580TIP3    H137681   8.069   2.587   0.961
12580TIP3    H237682   8.201   2.570   1.033
12581TIP3   OH237683   4.777   6.824   4.781
12581TIP3    H137684   4.729   6.905   4.797
12581TIP3    H237685   4.769   6.774   4.862
12582TIP3   OH237686   3.134   3.069   1.778
12582TIP3    H137687   3.180   3.050   1.697
12582TIP3    H237688   3.100   3.157   1.768
12583TIP3   OH237689   7.901   2.490   0.894
12583TIP3    H137690   7.844   2.567   0.894
12583TIP3    H237691   7.944   2.491   0.808
12584TIP3   OH237692   4.705   7.480   0.142
12584TIP3    H137693   4.714   7.398   0.093
12584TIP3    H237694   4.670   7.453   0.227
12585TIP3   OH237695   2.194   7.233   4.305
12585TIP3    H137696   2.246   7.276   4.373
12585TIP3    H237697   2.227   7.270   4.223
12586TIP3   OH237698   2.181   0.589   3.730
12586TIP3    H137699   2.123   0.640   3.673
12586TIP3    H237700   2.212   0.517   3.674
12587TIP3   OH237701   8.259   0.239   3.668
12587TIP3    H137702   8.352   0.256   3.682
12587TIP3    H237703   8.254   0.145   3.650
12588TIP3   OH237704   1.482   7.627   4.856
12588TIP3    H137705   1.439   7.603   4.938
12588TIP3    H237706   1.412   7.664   4.802
12589TIP3   OH237707   4.759   1.684   1.785
12589TIP3    H137708   4.804   1.632   1.853
12589TIP3    H237709   4.669   1.691   1.816
12590TIP3   OH237710   4.878   1.387   5.066
12590TIP3    H137711   4.821   1.328   5.017
12590TIP3    H237712   4.868   1.472   5.023
12591TIP3   OH237713   2.614   1.149   4.563
12591TIP3    H137714   2.646   1.194   4.485
12591TIP3    H237715   2.519   1.162   4.562
12592TIP3   OH237716   5.730   3.549   4.925
12592TIP3    H137717   5.699   3.582   4.841
12592TIP3    H237718   5.652   3.509   4.965
12593TIP3   OH237719   7.192   3.069   1.179
12593TIP3    H137720   7.196   3.030   1.266
12593TIP3    H237721   7.114   3.029   1.139
12594TIP3   OH237722   3.179   7.515   3.973
12594TIP3    H137723   3.107   7.577   3.984
12594TIP3    H237724   3.185   7.500   3.879
12595TIP3   OH237725   4.256   6.446   2.881
12595TIP3    H137726   4.231   6.538   2.889
12595TIP3    H237727   4.173   6.398   2.886
12596TIP3   OH237728   7.447   5.057   4.888
12596TIP3    H137729   7.390   5.133   4.880
12596TIP3    H237730   7.448   5.038   4.982
12597TIP3   OH237731   3.790   1.776   6.391
12597TIP3    H137732   3.719   1.760   6.329
12597TIP3    H237733   3.772   1.864   6.425
12598TIP3   OH237734   3.793   6.092   5.683
12598TIP3    H137735   3.738   6.163   5.649
12598TIP3    H237736   3.880   6.131   5.690
12599TIP3   OH237737   7.842   2.139   2.646
12599TIP3    H137738   7.839   2.231   2.670
12599TIP3    H237739   7.783   2.131   2.572
12600TIP3   OH237740   3.445   0.878   5.773
12600TIP3    H137741   3.394   0.958   5.760
12600TIP3    H237742   3.455   0.842   5.684
12601TIP3   OH237743   0.448   6.595   5.152
12601TIP3    H137744   0.536   6.560   5.144
12601TIP3    H237745   0.426   6.586   5.245
12602TIP3   OH237746   4.991   5.051   3.202
12602TIP3    H137747   4.992   4.959   3.175
12602TIP3    H237748   4.905   5.063   3.243
12603TIP3   OH237749   2.133   3.072   2.348
12603TIP3    H137750   2.188   3.072   2.269
12603TIP3    H237751   2.165   3.145   2.400
12604TIP3   OH237752   1.656   4.141   1.657
12604TIP3    H137753   1.640   4.046   1.655
12604TIP3    H237754   1.638   4.169   1.567
12605TIP3   OH237755   7.771   7.644   5.939
12605TIP3    H137756   7.787   7.698   5.862
12605TIP3    H237757   7.753   7.557   5.904
12606TIP3   OH237758   6.986   5.014   4.544
12606TIP3    H137759   6.946   4.929   4.561
12606TIP3    H237760   6.973   5.063   4.625
12607TIP3   OH237761   3.025   2.113   4.193
12607TIP3    H137762   2.956   2.046   4.195
12607TIP3    H237763   3.079   2.094   4.270
12608TIP3   OH237764   1.101   2.130   3.412
12608TIP3    H137765   1.041   2.056   3.418
12608TIP3    H237766   1.065   2.184   3.342
12609TIP3   OH237767   6.979   7.059   0.467
12609TIP3    H137768   7.015   6.970   0.465
12609TIP3    H237769   6.936   7.069   0.382
12610TIP3   OH237770   3.606   5.315   0.358
12610TIP3    H137771   3.690   5.270   0.350
12610TIP3    H237772   3.562   5.299   0.275
12611TIP3   OH237773   2.811   5.521   4.991
12611TIP3    H137774   2.879   5.566   5.040
12611TIP3    H237775   2.774   5.458   5.054
12612TIP3   OH237776   6.304   4.838   2.845
12612TIP3    H137777   6.288   4.755   2.799
12612TIP3    H237778   6.336   4.897   2.778
12613TIP3   OH237779   2.082   4.205   3.465
12613TIP3    H137780   2.079   4.300   3.454
12613TIP3    H237781   2.150   4.176   3.404
12614TIP3   OH237782   4.913   7.190   3.667
12614TIP3    H137783   4.937   7.216   3.578
12614TIP3    H237784   4.948   7.260   3.723
12615TIP3   OH237785   7.817   1.322   5.295
12615TIP3    H137786   7.893   1.278   5.332
12615TIP3    H237787   7.818   1.409   5.334
12616TIP3   OH237788   7.477   7.728   6.467
12616TIP3    H137789   7.526   7.788   6.523
12616TIP3    H237790   7.544   7.675   6.424
12617TIP3   OH237791   7.125   0.165   6.444
12617TIP3    H137792   7.040   0.138   6.411
12617TIP3    H237793   7.175   0.084   6.452
12618TIP3   OH237794   0.468   4.857   4.730
12618TIP3    H137795   0.393   4.915   4.719
12618TIP3    H237796   0.438   4.787   4.787
12619TIP3   OH237797   6.788   3.699   1.689
12619TIP3    H137798   6.824   3.778   1.649
12619TIP3    H237799   6.830   3.627   1.641
12620TIP3   OH237800   3.533   5.445   1.698
12620TIP3    H137801   3.577   5.482   1.621
12620TIP3    H237802   3.533   5.351   1.682
12621TIP3   OH237803   6.480   2.370   2.382
12621TIP3    H137804   6.427   2.292   2.366
12621TIP3    H237805   6.509   2.362   2.472
12622TIP3   OH237806   8.084   0.607   1.360
12622TIP3    H137807   8.103   0.682   1.305
12622TIP3    H237808   8.024   0.640   1.427
12623TIP3   OH237809   0.163   5.829   5.915
12623TIP3    H137810   0.145   5.901   5.855
12623TIP3    H237811   0.186   5.871   5.998
12624TIP3   OH237812   4.044   0.274   0.578
12624TIP3    H137813   4.013   0.215   0.510
12624TIP3    H237814   4.032   0.226   0.660
12625TIP3   OH237815   1.813   7.329   1.278
12625TIP3    H137816   1.838   7.339   1.370
12625TIP3    H237817   1.786   7.237   1.271
12626TIP3   OH237818   2.223   6.131   6.614
12626TIP3    H137819   2.307   6.148   6.571
12626TIP3    H237820   2.194   6.047   6.577
12627TIP3   OH237821   6.825   3.948   3.791
12627TIP3    H137822   6.781   4.031   3.773
12627TIP3    H237823   6.889   3.939   3.721
12628TIP3   OH237824   7.646   0.855   0.571
12628TIP3    H137825   7.689   0.939   0.586
12628TIP3    H237826   7.692   0.818   0.496
12629TIP3   OH237827   4.859   7.493   0.814
12629TIP3    H137828   4.918   7.427   0.851
12629TIP3    H237829   4.912   7.572   0.809
12630TIP3   OH237830   0.732   6.675   5.395
12630TIP3    H137831   0.695   6.600   5.443
12630TIP3    H237832   0.800   6.637   5.340
12631TIP3   OH237833   0.782   2.658   1.292
12631TIP3    H137834   0.729   2.735   1.310
12631TIP3    H237835   0.797   2.618   1.378
12632TIP3   OH237836   0.396   0.731   2.688
12632TIP3    H137837   0.439   0.747   2.773
12632TIP3    H237838   0.376   0.819   2.655
12633TIP3   OH237839   0.168   1.179   0.983
12633TIP3    H137840   0.230   1.199   0.913
12633TIP3    H237841   0.120   1.261   0.997
12634TIP3   OH237842   6.252   3.397   1.463
12634TIP3    H137843   6.281   3.311   1.491
12634TIP3    H237844   6.294   3.458   1.524
12635TIP3   OH237845   4.437   2.365   4.835
12635TIP3    H137846   4.386   2.421   4.894
12635TIP3    H237847   4.521   2.353   4.880
12636TIP3   OH237848   0.460   1.588   3.003
12636TIP3    H137849   0.366   1.578   3.019
12636TIP3    H237850   0.480   1.677   3.032
12637TIP3   OH237851   3.581   3.560   0.745
12637TIP3    H137852   3.570   3.504   0.668
12637TIP3    H237853   3.676   3.567   0.756
12638TIP3   OH237854   0.529   5.471   2.760
12638TIP3    H137855   0.623   5.477   2.777
12638TIP3    H237856   0.511   5.545   2.701
12639TIP3   OH237857   3.208   7.428   2.299
12639TIP3    H137858   3.235   7.388   2.382
12639TIP3    H237859   3.215   7.357   2.235
12640TIP3   OH237860   1.676   4.847   4.103
12640TIP3    H137861   1.653   4.757   4.124
12640TIP3    H237862   1.617   4.901   4.156
12641TIP3   OH237863   1.652   1.952   0.273
12641TIP3    H137864   1.645   1.967   0.368
12641TIP3    H237865   1.740   1.980   0.251
12642TIP3   OH237866   1.522   7.270   1.328
12642TIP3    H137867   1.572   7.190   1.318
12642TIP3    H237868   1.588   7.339   1.341
12643TIP3   OH237869   7.536   6.467   6.630
12643TIP3    H137870   7.606   6.435   6.573
12643TIP3    H237871   7.502   6.545   6.584
12644TIP3   OH237872   1.252   0.592   3.252
12644TIP3    H137873   1.244   0.532   3.178
12644TIP3    H237874   1.235   0.679   3.215
12645TIP3   OH237875   3.785   3.359   4.559
12645TIP3    H137876   3.717   3.308   4.515
12645TIP3    H237877   3.853   3.295   4.580
12646TIP3   OH237878   2.757   5.142   6.035
12646TIP3    H137879   2.745   5.066   5.978
12646TIP3    H237880   2.720   5.116   6.119
12647TIP3   OH237881   5.982   3.148   3.559
12647TIP3    H137882   5.972   3.196   3.642
12647TIP3    H237883   6.076   3.154   3.540
12648TIP3   OH237884   5.705   7.322   3.757
12648TIP3    H137885   5.707   7.411   3.722
12648TIP3    H237886   5.738   7.331   3.846
12649TIP3   OH237887   0.547   1.340   2.876
12649TIP3    H137888   0.523   1.421   2.921
12649TIP3    H237889   0.513   1.352   2.787
12650TIP3   OH237890   6.932   7.594   1.048
12650TIP3    H137891   6.895   7.665   1.101
12650TIP3    H237892   7.026   7.607   1.053
12651TIP3   OH237893   6.793   4.699   2.379
12651TIP3    H137894   6.727   4.753   2.335
12651TIP3    H237895   6.859   4.683   2.312
12652TIP3   OH237896   0.321   6.541   5.399
12652TIP3    H137897   0.347   6.453   5.371
12652TIP3    H237898   0.229   6.547   5.375
12653TIP3   OH237899   0.410   5.857   2.986
12653TIP3    H137900   0.482   5.820   2.934
12653TIP3    H237901   0.366   5.781   3.023
12654TIP3   OH237902   0.118   0.488   4.880
12654TIP3    H137903   0.119   0.524   4.791
12654TIP3    H237904   0.051   0.419   4.877
12655TIP3   OH237905   0.920   1.826   6.810
12655TIP3    H137906   0.899   1.915   6.783
12655TIP3    H237907   0.946   1.781   6.730
12656TIP3   OH237908   2.189   1.499   2.426
12656TIP3    H137909   2.161   1.570   2.485
12656TIP3    H237910   2.221   1.545   2.348
12657TIP3   OH237911   6.755   0.414   0.543
12657TIP3    H137912   6.728   0.328   0.576
12657TIP3    H237913   6.728   0.413   0.451
12658TIP3   OH237914   1.396   2.519   1.166
12658TIP3    H137915   1.428   2.471   1.090
12658TIP3    H237916   1.464   2.508   1.232
12659TIP3   OH237917   1.633   6.393   6.410
12659TIP3    H137918   1.543   6.426   6.413
12659TIP3    H237919   1.647   6.371   6.318
12660TIP3   OH237920   1.032   7.088   2.008
12660TIP3    H137921   1.111   7.039   2.027
12660TIP3    H237922   0.967   7.055   2.071
12661TIP3   OH237923   2.634   3.342   6.450
12661TIP3    H137924   2.654   3.266   6.505
12661TIP3    H237925   2.657   3.418   6.504
12662TIP3   OH237926   4.908   3.133   0.304
12662TIP3    H137927   4.997   3.125   0.338
12662TIP3    H237928   4.917   3.186   0.225
12663TIP3   OH237929   5.997   2.613   6.740
12663TIP3    H137930   5.909   2.580   6.719
12663TIP3    H237931   5.989   2.649   6.828
12664TIP3   OH237932   5.848   4.573   3.245
12664TIP3    H137933   5.822   4.622   3.167
12664TIP3    H237934   5.815   4.625   3.318
12665TIP3   OH237935   1.577   7.679   1.139
12665TIP3    H137936   1.603   7.604   1.085
12665TIP3    H237937   1.616   7.661   1.224
12666TIP3   OH237938   1.041   6.877   0.779
12666TIP3    H137939   1.095   6.940   0.733
12666TIP3    H237940   0.954   6.885   0.740
12667TIP3   OH237941   3.631   7.000   1.009
12667TIP3    H137942   3.668   7.080   1.046
12667TIP3    H237943   3.603   6.949   1.085
12668TIP3   OH237944   3.825   6.470   5.338
12668TIP3    H137945   3.742   6.507   5.371
12668TIP3    H237946   3.801   6.427   5.256
12669TIP3   OH237947   5.708   7.007   0.399
12669TIP3    H137948   5.791   7.053   0.389
12669TIP3    H237949   5.717   6.959   0.482
12670TIP3   OH237950   6.040   4.944   4.628
12670TIP3    H137951   5.963   4.997   4.607
12670TIP3    H237952   6.006   4.854   4.633
12671TIP3   OH237953   1.271   4.254   2.144
12671TIP3    H137954   1.328   4.201   2.088
12671TIP3    H237955   1.188   4.207   2.145
12672TIP3   OH237956   5.394   3.110   5.113
12672TIP3    H137957   5.385   3.016   5.101
12672TIP3    H237958   5.339   3.130   5.189
12673TIP3   OH237959   8.359   7.212   4.952
12673TIP3    H137960   8.293   7.280   4.935
12673TIP3    H237961   8.439   7.261   4.973
12674TIP3   OH237962   1.541   4.034   3.288
12674TIP3    H137963   1.578   3.976   3.354
12674TIP3    H237964   1.454   3.997   3.271
12675TIP3   OH237965   3.370   0.364   5.961
12675TIP3    H137966   3.445   0.403   6.007
12675TIP3    H237967   3.335   0.434   5.908
12676TIP3   OH237968   2.699   5.949   5.139
12676TIP3    H137969   2.617   5.978   5.099
12676TIP3    H237970   2.681   5.860   5.170
12677TIP3   OH237971   2.172   6.526   4.272
12677TIP3    H137972   2.164   6.620   4.251
12677TIP3    H237973   2.242   6.522   4.337
12678TIP3   OH237974   4.361   1.953   3.796
12678TIP3    H137975   4.363   2.001   3.712
12678TIP3    H237976   4.297   2.001   3.849
12679TIP3   OH237977   8.285   7.520   2.865
12679TIP3    H137978   8.320   7.587   2.806
12679TIP3    H237979   8.343   7.445   2.853
12680TIP3   OH237980   1.808   1.831   5.418
12680TIP3    H137981   1.778   1.874   5.338
12680TIP3    H237982   1.902   1.847   5.420
12681TIP3   OH237983   2.100   2.409   1.695
12681TIP3    H137984   2.049   2.482   1.659
12681TIP3    H237985   2.039   2.336   1.694
12682TIP3   OH237986   0.132   1.984   2.136
12682TIP3    H137987   0.195   1.912   2.141
12682TIP3    H237988   0.184   2.060   2.111
12683TIP3   OH237989   4.427   3.538   2.174
12683TIP3    H137990   4.421   3.444   2.189
12683TIP3    H237991   4.515   3.562   2.202
12684TIP3   OH237992   6.672   5.732   3.551
12684TIP3    H137993   6.665   5.705   3.459
12684TIP3    H237994   6.655   5.652   3.601
12685TIP3   OH237995   8.440   0.228   6.067
12685TIP3    H137996   8.458   0.321   6.057
12685TIP3    H237997   8.373   0.224   6.135
12686TIP3   OH237998   4.579   5.921   3.241
12686TIP3    H137999   4.655   5.975   3.262
12686TIP3    H238000   4.504   5.972   3.271
12687TIP3   OH238001   5.577   0.881   3.348
12687TIP3    H138002   5.664   0.904   3.381
12687TIP3    H238003   5.591   0.803   3.295
12688TIP3   OH238004   4.143   5.710   1.565
12688TIP3    H138005   4.087   5.787   1.579
12688TIP3    H238006   4.229   5.737   1.597
12689TIP3   OH238007   5.760   7.688   3.702
12689TIP3    H138008   5.676   7.651   3.731
12689TIP3    H238009   5.826   7.631   3.739
12690TIP3   OH238010   0.438   0.638   0.668
12690TIP3    H138011   0.439   0.728   0.637
12690TIP3    H238012   0.368   0.636   0.733
12691TIP3   OH238013   1.079   2.898   3.054
12691TIP3    H138014   1.153   2.865   3.003
12691TIP3    H238015   1.107   2.983   3.086
12692TIP3   OH238016   6.256   7.477   4.252
12692TIP3    H138017   6.312   7.424   4.308
12692TIP3    H238018   6.182   7.502   4.308
12693TIP3   OH238019   1.220   2.266   4.991
12693TIP3    H138020   1.237   2.240   4.901
12693TIP3    H238021   1.200   2.184   5.036
12694TIP3   OH238022   0.592   2.162   5.078
12694TIP3    H138023   0.587   2.237   5.137
12694TIP3    H238024   0.501   2.141   5.058
12695TIP3   OH238025   7.102   1.449   5.904
12695TIP3    H138026   7.043   1.513   5.866
12695TIP3    H238027   7.102   1.469   5.998
12696TIP3   OH238028   6.876   4.421   4.249
12696TIP3    H138029   6.967   4.391   4.255
12696TIP3    H238030   6.836   4.393   4.332
12697TIP3   OH238031   1.379   0.329   6.294
12697TIP3    H138032   1.346   0.351   6.206
12697TIP3    H238033   1.464   0.288   6.278
12698TIP3   OH238034   0.056   5.881   4.512
12698TIP3    H138035   0.000   5.806   4.531
12698TIP3    H238036   0.145   5.851   4.532
12699TIP3   OH238037   6.757   2.716   0.486
12699TIP3    H138038   6.790   2.655   0.552
12699TIP3    H238039   6.756   2.801   0.530
12700TIP3   OH238040   0.073   4.904   0.383
12700TIP3    H138041   0.113   4.882   0.467
12700TIP3    H238042   0.030   4.988   0.399
12701TIP3   OH238043   1.994   4.867   0.365
12701TIP3    H138044   1.924   4.807   0.389
12701TIP3    H238045   2.072   4.813   0.362
12702TIP3   OH238046   3.817   3.225   5.494
12702TIP3    H138047   3.842   3.171   5.568
12702TIP3    H238048   3.805   3.163   5.422
12703TIP3   OH238049   1.981   4.622   2.008
12703TIP3    H138050   1.964   4.717   2.007
12703TIP3    H238051   2.037   4.609   2.085
12704TIP3   OH238052   0.080   0.235   2.869
12704TIP3    H138053   0.052   0.278   2.950
12704TIP3    H238054   0.132   0.161   2.899
12705TIP3   OH238055   2.216   2.890   1.320
12705TIP3    H138056   2.261   2.819   1.366
12705TIP3    H238057   2.212   2.861   1.229
12706TIP3   OH238058   4.473   2.425   5.172
12706TIP3    H138059   4.519   2.496   5.127
12706TIP3    H238060   4.537   2.390   5.234
12707TIP3   OH238061   0.592   5.359   1.361
12707TIP3    H138062   0.614   5.375   1.453
12707TIP3    H238063   0.581   5.447   1.324
12708TIP3   OH238064   7.649   6.663   5.802
12708TIP3    H138065   7.730   6.707   5.773
12708TIP3    H238066   7.587   6.734   5.815
12709TIP3   OH238067   3.462   0.121   2.524
12709TIP3    H138068   3.544   0.127   2.573
12709TIP3    H238069   3.446   0.210   2.492
12710TIP3   OH238070   8.122   1.999   0.987
12710TIP3    H138071   8.100   1.906   0.973
12710TIP3    H238072   8.200   1.996   1.043
12711TIP3   OH238073   2.888   4.489   1.918
12711TIP3    H138074   2.896   4.518   2.008
12711TIP3    H238075   2.974   4.455   1.895
12712TIP3   OH238076   2.806   1.101   3.223
12712TIP3    H138077   2.777   1.045   3.151
12712TIP3    H238078   2.829   1.184   3.181
12713TIP3   OH238079   0.040   3.830   2.325
12713TIP3    H138080   0.100   3.897   2.355
12713TIP3    H238081  -0.016   3.811   2.400
12714TIP3   OH238082   1.043   0.942   2.767
12714TIP3    H138083   1.123   0.889   2.760
12714TIP3    H238084   0.974   0.879   2.785
12715TIP3   OH238085   2.288   7.097   6.514
12715TIP3    H138086   2.239   7.024   6.476
12715TIP3    H238087   2.238   7.120   6.593
12716TIP3   OH238088   5.285   2.433   1.129
12716TIP3    H138089   5.369   2.409   1.090
12716TIP3    H238090   5.297   2.417   1.223
12717TIP3   OH238091   5.793   3.906   0.341
12717TIP3    H138092   5.738   3.943   0.410
12717TIP3    H238093   5.841   3.981   0.306
12718TIP3   OH238094   0.014   0.858   2.124
12718TIP3    H138095  -0.023   0.918   2.059
12718TIP3    H238096   0.088   0.817   2.079
12719TIP3   OH238097   0.954   2.113   6.221
12719TIP3    H138098   0.866   2.106   6.259
12719TIP3    H238099   0.984   2.201   6.244
12720TIP3   OH238100   4.554   7.164   0.586
12720TIP3    H138101   4.576   7.238   0.643
12720TIP3    H238102   4.636   7.116   0.575
12721TIP3   OH238103   8.108   4.181   5.071
12721TIP3    H138104   8.099   4.273   5.046
12721TIP3    H238105   8.018   4.148   5.076
12722TIP3   OH238106   2.193   5.295   4.355
12722TIP3    H138107   2.131   5.259   4.292
12722TIP3    H238108   2.208   5.385   4.324
12723TIP3   OH238109   6.357   1.378   0.615
12723TIP3    H138110   6.394   1.340   0.536
12723TIP3    H238111   6.322   1.303   0.663
12724TIP3   OH238112   4.906   0.243   4.526
12724TIP3    H138113   4.884   0.283   4.610
12724TIP3    H238114   4.856   0.162   4.524
12725TIP3   OH238115   5.409   6.319   4.986
12725TIP3    H138116   5.378   6.290   4.901
12725TIP3    H238117   5.384   6.411   4.991
12726TIP3   OH238118   2.615   1.894   4.767
12726TIP3    H138119   2.695   1.870   4.814
12726TIP3    H238120   2.646   1.945   4.692
12727TIP3   OH238121   2.863   3.499   5.725
12727TIP3    H138122   2.900   3.551   5.796
12727TIP3    H238123   2.906   3.414   5.732
12728TIP3   OH238124   5.038   3.363   1.746
12728TIP3    H138125   5.008   3.432   1.686
12728TIP3    H238126   5.114   3.401   1.790
12729TIP3   OH238127   4.588   7.617   4.395
12729TIP3    H138128   4.668   7.664   4.372
12729TIP3    H238129   4.606   7.525   4.374
12730TIP3   OH238130   7.538   2.877   0.812
12730TIP3    H138131   7.546   2.923   0.728
12730TIP3    H238132   7.448   2.896   0.841
12731TIP3   OH238133   1.783   4.962   2.213
12731TIP3    H138134   1.721   5.029   2.183
12731TIP3    H238135   1.826   4.932   2.133
12732TIP3   OH238136   3.277   3.233   4.785
12732TIP3    H138137   3.303   3.227   4.693
12732TIP3    H238138   3.193   3.188   4.790
12733TIP3   OH238139   8.173   5.022   2.432
12733TIP3    H138140   8.081   5.046   2.435
12733TIP3    H238141   8.174   4.927   2.431
12734TIP3   OH238142   1.725   5.209   3.112
12734TIP3    H138143   1.810   5.166   3.109
12734TIP3    H238144   1.694   5.209   3.022
12735TIP3   OH238145   5.490   3.275   5.713
12735TIP3    H138146   5.565   3.311   5.666
12735TIP3    H238147   5.496   3.314   5.800
12736TIP3   OH238148   2.964   3.187   5.670
12736TIP3    H138149   2.973   3.095   5.697
12736TIP3    H238150   3.042   3.204   5.616
12737TIP3   OH238151   1.706   7.841   0.956
12737TIP3    H138152   1.727   7.932   0.977
12737TIP3    H238153   1.645   7.814   1.024
12738TIP3   OH238154   6.905   6.979   1.530
12738TIP3    H138155   6.942   6.908   1.582
12738TIP3    H238156   6.813   6.958   1.521
12739TIP3   OH238157   0.348   7.605   2.565
12739TIP3    H138158   0.436   7.566   2.559
12739TIP3    H238159   0.362   7.698   2.549
12740TIP3   OH238160   2.637   2.301   4.242
12740TIP3    H138161   2.588   2.302   4.325
12740TIP3    H238162   2.619   2.215   4.204
12741TIP3   OH238163   0.098   4.641   6.243
12741TIP3    H138164   0.132   4.652   6.155
12741TIP3    H238165   0.069   4.729   6.269
12742TIP3   OH238166   2.713   2.246   0.951
12742TIP3    H138167   2.801   2.212   0.962
12742TIP3    H238168   2.661   2.171   0.923
12743TIP3   OH238169   4.635   4.156   0.820
12743TIP3    H138170   4.701   4.095   0.851
12743TIP3    H238171   4.572   4.102   0.771
12744TIP3   OH238172   5.903   1.125   1.584
12744TIP3    H138173   5.956   1.114   1.662
12744TIP3    H238174   5.949   1.191   1.532
12745TIP3   OH238175   4.411   7.481   0.930
12745TIP3    H138176   4.381   7.497   1.019
12745TIP3    H238177   4.367   7.400   0.903
12746TIP3   OH238178   3.173   1.863   0.995
12746TIP3    H138179   3.251   1.809   1.002
12746TIP3    H238180   3.101   1.801   0.993
12747TIP3   OH238181   3.050   0.117   0.940
12747TIP3    H138182   3.141   0.103   0.966
12747TIP3    H238183   3.052   0.120   0.845
12748TIP3   OH238184   3.714   6.086   1.052
12748TIP3    H138185   3.729   6.076   1.146
12748TIP3    H238186   3.720   6.181   1.037
12749TIP3   OH238187   4.466   2.735   2.984
12749TIP3    H138188   4.446   2.790   2.908
12749TIP3    H238189   4.439   2.788   3.059
12750TIP3   OH238190   8.111   5.624   1.594
12750TIP3    H138191   8.049   5.552   1.583
12750TIP3    H238192   8.196   5.585   1.575
12751TIP3   OH238193   3.977   6.848   5.459
12751TIP3    H138194   4.059   6.868   5.504
12751TIP3    H238195   3.919   6.921   5.480
12752TIP3   OH238196   5.132   0.257   4.694
12752TIP3    H138197   5.080   0.303   4.760
12752TIP3    H238198   5.072   0.245   4.620
12753TIP3   OH238199   6.092   1.431   6.321
12753TIP3    H138200   6.134   1.432   6.407
12753TIP3    H238201   6.007   1.472   6.336
12754TIP3   OH238202   6.478   2.609   0.638
12754TIP3    H138203   6.562   2.582   0.676
12754TIP3    H238204   6.426   2.638   0.713
12755TIP3   OH238205   7.755   6.500   3.229
12755TIP3    H138206   7.663   6.477   3.240
12755TIP3    H238207   7.798   6.418   3.206
12756TIP3   OH238208   8.217   5.047   1.456
12756TIP3    H138209   8.232   4.974   1.395
12756TIP3    H238210   8.170   5.112   1.404
12757TIP3   OH238211   7.460   7.506   5.336
12757TIP3    H138212   7.402   7.560   5.390
12757TIP3    H238213   7.480   7.431   5.391
12758TIP3   OH238214   5.043   1.356   4.304
12758TIP3    H138215   4.969   1.390   4.253
12758TIP3    H238216   5.074   1.280   4.254
12759TIP3   OH238217   6.149   4.086   2.041
12759TIP3    H138218   6.179   4.011   2.092
12759TIP3    H238219   6.150   4.159   2.103
12760TIP3   OH238220   4.216   3.902   5.408
12760TIP3    H138221   4.161   3.832   5.443
12760TIP3    H238222   4.154   3.964   5.371
12761TIP3   OH238223   6.965   4.580   2.191
12761TIP3    H138224   7.045   4.605   2.144
12761TIP3    H238225   6.994   4.571   2.282
12762TIP3   OH238226   6.661   4.818   2.630
12762TIP3    H138227   6.594   4.759   2.595
12762TIP3    H238228   6.744   4.783   2.597
12763TIP3   OH238229   7.587   3.024   6.232
12763TIP3    H138230   7.508   3.076   6.215
12763TIP3    H238231   7.639   3.078   6.291
12764TIP3   OH238232   3.199   4.616   4.353
12764TIP3    H138233   3.221   4.672   4.428
12764TIP3    H238234   3.181   4.530   4.391
12765TIP3   OH238235   1.721   3.763   5.590
12765TIP3    H138236   1.652   3.774   5.525
12765TIP3    H238237   1.674   3.747   5.672
12766TIP3   OH238238   3.022   1.694   4.545
12766TIP3    H138239   3.012   1.761   4.612
12766TIP3    H238240   3.114   1.666   4.551
12767TIP3   OH238241   2.390   6.251   5.873
12767TIP3    H138242   2.466   6.193   5.868
12767TIP3    H238243   2.341   6.218   5.948
12768TIP3   OH238244   0.672   5.409   2.082
12768TIP3    H138245   0.706   5.320   2.092
12768TIP3    H238246   0.634   5.431   2.167
12769TIP3   OH238247   8.175   5.290   5.048
12769TIP3    H138248   8.202   5.269   4.959
12769TIP3    H238249   8.101   5.350   5.037
12770TIP3   OH238250   0.570   5.407   2.362
12770TIP3    H138251   0.621   5.483   2.390
12770TIP3    H238252   0.611   5.332   2.405
12771TIP3   OH238253   3.773   2.821   5.921
12771TIP3    H138254   3.725   2.779   5.850
12771TIP3    H238255   3.788   2.751   5.984
12772TIP3   OH238256   1.199   4.721   1.900
12772TIP3    H138257   1.227   4.643   1.947
12772TIP3    H238258   1.147   4.771   1.964
12773TIP3   OH238259   2.109   6.745   0.752
12773TIP3    H138260   2.197   6.776   0.773
12773TIP3    H238261   2.111   6.731   0.657
12774TIP3   OH238262   5.745   2.117   0.682
12774TIP3    H138263   5.830   2.076   0.697
12774TIP3    H238264   5.766   2.207   0.657
12775TIP3   OH238265   4.130   6.274   4.019
12775TIP3    H138266   4.039   6.259   3.994
12775TIP3    H238267   4.154   6.356   3.975
12776TIP3   OH238268   4.342   3.668   1.958
12776TIP3    H138269   4.256   3.629   1.974
12776TIP3    H238270   4.390   3.657   2.040
12777TIP3   OH238271   8.334   0.009   2.655
12777TIP3    H138272   8.354   0.090   2.607
12777TIP3    H238273   8.401  -0.053   2.625
12778TIP3   OH238274   6.466   3.440   3.495
12778TIP3    H138275   6.478   3.523   3.541
12778TIP3    H238276   6.371   3.432   3.487
12779TIP3   OH238277   1.982   4.114   0.920
12779TIP3    H138278   2.007   4.038   0.974
12779TIP3    H238279   2.038   4.108   0.843
12780TIP3   OH238280   3.529   6.939   2.122
12780TIP3    H138281   3.596   6.876   2.148
12780TIP3    H238282   3.466   6.938   2.194
12781TIP3   OH238283   5.535   0.219   6.529
12781TIP3    H138284   5.552   0.218   6.435
12781TIP3    H238285   5.492   0.135   6.547
12782TIP3   OH238286   5.434   1.969   2.439
12782TIP3    H138287   5.518   1.960   2.483
12782TIP3    H238288   5.453   2.019   2.360
12783TIP3   OH238289   4.790   4.062   3.143
12783TIP3    H138290   4.709   4.103   3.174
12783TIP3    H238291   4.850   4.068   3.218
12784TIP3   OH238292   3.711   4.739   6.515
12784TIP3    H138293   3.672   4.676   6.455
12784TIP3    H238294   3.804   4.718   6.514
12785TIP3   OH238295   1.337   1.663   6.518
12785TIP3    H138296   1.316   1.679   6.426
12785TIP3    H238297   1.432   1.672   6.523
12786TIP3   OH238298   2.339   4.749   0.841
12786TIP3    H138299   2.385   4.832   0.832
12786TIP3    H238300   2.359   4.720   0.930
12787TIP3   OH238301   6.782   1.812   6.745
12787TIP3    H138302   6.797   1.724   6.779
12787TIP3    H238303   6.693   1.835   6.774
12788TIP3   OH238304   5.525   2.063   2.176
12788TIP3    H138305   5.521   2.116   2.096
12788TIP3    H238306   5.544   2.126   2.245
12789TIP3   OH238307   0.651   1.161   1.348
12789TIP3    H138308   0.731   1.197   1.310
12789TIP3    H238309   0.654   1.185   1.440
12790TIP3   OH238310   1.495   3.884   6.433
12790TIP3    H138311   1.456   3.961   6.475
12790TIP3    H238312   1.503   3.820   6.504
12791TIP3   OH238313   3.251   6.735   6.529
12791TIP3    H138314   3.213   6.696   6.607
12791TIP3    H238315   3.195   6.704   6.457
12792TIP3   OH238316   7.228   5.454   0.251
12792TIP3    H138317   7.151   5.505   0.228
12792TIP3    H238318   7.299   5.519   0.256
12793TIP3   OH238319   1.653   1.332   1.946
12793TIP3    H138320   1.590   1.341   1.874
12793TIP3    H238321   1.631   1.403   2.006
12794TIP3   OH238322   3.279   6.607   4.526
12794TIP3    H138323   3.339   6.600   4.601
12794TIP3    H238324   3.288   6.524   4.480
12795TIP3   OH238325   4.286   1.451   1.111
12795TIP3    H138326   4.312   1.535   1.147
12795TIP3    H238327   4.288   1.391   1.185
12796TIP3   OH238328   2.065   7.180   4.591
12796TIP3    H138329   2.138   7.226   4.551
12796TIP3    H238330   2.017   7.248   4.639
12797TIP3   OH238331   5.753   6.378   1.459
12797TIP3    H138332   5.823   6.383   1.394
12797TIP3    H238333   5.715   6.466   1.460
12798TIP3   OH238334   6.841   2.672   6.219
12798TIP3    H138335   6.764   2.675   6.277
12798TIP3    H238336   6.915   2.662   6.278
12799TIP3   OH238337   7.342   1.073   1.532
12799TIP3    H138338   7.327   0.997   1.475
12799TIP3    H238339   7.322   1.148   1.476
12800TIP3   OH238340   3.374   4.060   0.793
12800TIP3    H138341   3.305   4.054   0.726
12800TIP3    H238342   3.362   3.981   0.845
12801TIP3   OH238343   1.121   2.301   4.343
12801TIP3    H138344   1.146   2.362   4.274
12801TIP3    H238345   1.134   2.214   4.304
12802TIP3   OH238346   4.704   0.798   2.248
12802TIP3    H138347   4.702   0.854   2.325
12802TIP3    H238348   4.616   0.759   2.244
12803TIP3   OH238349   1.390   0.096   5.336
12803TIP3    H138350   1.376   0.178   5.385
12803TIP3    H238351   1.419   0.124   5.249
12804TIP3   OH238352   0.414   3.314   5.715
12804TIP3    H138353   0.497   3.361   5.724
12804TIP3    H238354   0.396   3.281   5.804
12805TIP3   OH238355   3.098   4.509   4.708
12805TIP3    H138356   3.033   4.485   4.642
12805TIP3    H238357   3.046   4.536   4.784
12806TIP3   OH238358   7.746   6.752   6.497
12806TIP3    H138359   7.776   6.797   6.418
12806TIP3    H238360   7.755   6.659   6.477
12807TIP3   OH238361   3.316   4.993   0.752
12807TIP3    H138362   3.336   5.077   0.712
12807TIP3    H238363   3.280   4.940   0.681
12808TIP3   OH238364   4.829   2.725   0.552
12808TIP3    H138365   4.824   2.787   0.479
12808TIP3    H238366   4.895   2.661   0.526
12809TIP3   OH238367   5.432   7.711   3.184
12809TIP3    H138368   5.390   7.747   3.106
12809TIP3    H238369   5.392   7.624   3.194
12810TIP3   OH238370   4.676   4.750   4.208
12810TIP3    H138371   4.644   4.747   4.298
12810TIP3    H238372   4.721   4.667   4.195
12811TIP3   OH238373   4.147   7.388   1.379
12811TIP3    H138374   4.146   7.292   1.373
12811TIP3    H238375   4.064   7.415   1.340
12812TIP3   OH238376   0.488   3.283   4.155
12812TIP3    H138377   0.504   3.227   4.232
12812TIP3    H238378   0.554   3.255   4.092
12813TIP3   OH238379   0.230   1.054   2.341
12813TIP3    H138380   0.153   1.069   2.286
12813TIP3    H238381   0.287   0.999   2.289
12814TIP3   OH238382   3.961   0.848   6.616
12814TIP3    H138383   3.891   0.905   6.584
12814TIP3    H238384   3.996   0.894   6.692
12815TIP3   OH238385   8.189   4.143   3.044
12815TIP3    H138386   8.148   4.170   3.126
12815TIP3    H238387   8.233   4.060   3.065
12816TIP3   OH238388   4.858   2.476   6.616
12816TIP3    H138389   4.842   2.397   6.668
12816TIP3    H238390   4.772   2.500   6.581
12817TIP3   OH238391   4.913   5.329   0.141
12817TIP3    H138392   4.928   5.388   0.215
12817TIP3    H238393   4.819   5.338   0.122
12818TIP3   OH238394   7.250   6.721   1.414
12818TIP3    H138395   7.181   6.752   1.355
12818TIP3    H238396   7.214   6.732   1.501
12819TIP3   OH238397   2.818   2.652   1.566
12819TIP3    H138398   2.786   2.698   1.488
12819TIP3    H238399   2.764   2.572   1.568
12820TIP3   OH238400   7.554   3.552   3.562
12820TIP3    H138401   7.512   3.472   3.594
12820TIP3    H238402   7.485   3.618   3.566
12821TIP3   OH238403   1.920   5.788   2.821
12821TIP3    H138404   1.950   5.730   2.891
12821TIP3    H238405   1.979   5.769   2.748
12822TIP3   OH238406   3.905   0.614   5.432
12822TIP3    H138407   3.871   0.530   5.402
12822TIP3    H238408   3.976   0.634   5.371
12823TIP3   OH238409   7.455   4.447   5.519
12823TIP3    H138410   7.396   4.480   5.451
12823TIP3    H238411   7.516   4.391   5.471
12824TIP3   OH238412   1.942   5.903   0.235
12824TIP3    H138413   1.993   5.983   0.224
12824TIP3    H238414   1.986   5.838   0.180
12825TIP3   OH238415   4.221   1.284   3.464
12825TIP3    H138416   4.289   1.235   3.511
12825TIP3    H238417   4.176   1.334   3.532
12826TIP3   OH238418   7.365   5.360   4.314
12826TIP3    H138419   7.319   5.407   4.245
12826TIP3    H238420   7.330   5.396   4.396
12827TIP3   OH238421   3.933   5.208   1.475
12827TIP3    H138422   3.958   5.167   1.558
12827TIP3    H238423   3.993   5.282   1.466
12828TIP3   OH238424   2.754   3.009   3.964
12828TIP3    H138425   2.707   3.023   4.046
12828TIP3    H238426   2.685   2.989   3.900
12829TIP3   OH238427   7.822   6.884   4.542
12829TIP3    H138428   7.822   6.815   4.475
12829TIP3    H238429   7.812   6.837   4.625
12830TIP3   OH238430   4.805   3.137   6.464
12830TIP3    H138431   4.820   3.048   6.495
12830TIP3    H238432   4.818   3.192   6.542
12831TIP3   OH238433   0.355   2.318   5.149
12831TIP3    H138434   0.313   2.350   5.069
12831TIP3    H238435   0.285   2.272   5.196
12832TIP3   OH238436   2.983   4.219   5.610
12832TIP3    H138437   3.041   4.288   5.577
12832TIP3    H238438   3.042   4.146   5.632
12833TIP3   OH238439   5.386   1.009   1.862
12833TIP3    H138440   5.387   0.957   1.942
12833TIP3    H238441   5.332   1.085   1.884
12834TIP3   OH238442   3.314   0.806   2.774
12834TIP3    H138443   3.252   0.747   2.731
12834TIP3    H238444   3.383   0.821   2.710
12835TIP3   OH238445   7.239   4.931   5.428
12835TIP3    H138446   7.232   4.941   5.334
12835TIP3    H238447   7.170   4.988   5.464
12836TIP3   OH238448   2.799   6.337   6.632
12836TIP3    H138449   2.892   6.360   6.626
12836TIP3    H238450   2.779   6.344   6.725
12837TIP3   OH238451   5.102   3.918   2.815
12837TIP3    H138452   5.106   3.923   2.720
12837TIP3    H238453   5.176   3.971   2.845
12838TIP3   OH238454   5.078   5.444   2.713
12838TIP3    H138455   5.076   5.465   2.619
12838TIP3    H238456   5.031   5.361   2.720
12839TIP3   OH238457   2.538   1.096   6.175
12839TIP3    H138458   2.450   1.066   6.153
12839TIP3    H238459   2.526   1.187   6.201
12840TIP3   OH238460   3.822   6.334   1.000
12840TIP3    H138461   3.892   6.328   0.935
12840TIP3    H238462   3.861   6.380   1.074
12841TIP3   OH238463   7.643   0.372   6.549
12841TIP3    H138464   7.580   0.445   6.546
12841TIP3    H238465   7.607   0.312   6.613
12842TIP3   OH238466   4.151   7.278   4.286
12842TIP3    H138467   4.106   7.313   4.209
12842TIP3    H238468   4.236   7.322   4.285
12843TIP3   OH238469   2.492   2.271   5.459
12843TIP3    H138470   2.461   2.284   5.369
12843TIP3    H238471   2.543   2.190   5.455
12844TIP3   OH238472   6.231   7.490   2.351
12844TIP3    H138473   6.261   7.456   2.435
12844TIP3    H238474   6.185   7.571   2.373
12845TIP3   OH238475   1.478   0.833   5.565
12845TIP3    H138476   1.416   0.860   5.497
12845TIP3    H238477   1.528   0.762   5.525
12846TIP3   OH238478   1.893   4.328   0.433
12846TIP3    H138479   1.966   4.285   0.477
12846TIP3    H238480   1.865   4.266   0.365
12847TIP3   OH238481   3.613   2.463   5.648
12847TIP3    H138482   3.611   2.559   5.651
12847TIP3    H238483   3.553   2.436   5.718
12848TIP3   OH238484   5.819   7.513   5.480
12848TIP3    H138485   5.838   7.603   5.454
12848TIP3    H238486   5.727   7.515   5.507
12849TIP3   OH238487   3.732   7.847   1.920
12849TIP3    H138488   3.675   7.772   1.937
12849TIP3    H238489   3.808   7.834   1.976
12850TIP3   OH238490   6.685   5.985   5.149
12850TIP3    H138491   6.707   6.062   5.202
12850TIP3    H238492   6.649   6.021   5.068
12851TIP3   OH238493   2.452   5.398   6.143
12851TIP3    H138494   2.425   5.310   6.117
12851TIP3    H238495   2.474   5.442   6.061
12852TIP3   OH238496   0.373   6.098   4.997
12852TIP3    H138497   0.425   6.139   4.928
12852TIP3    H238498   0.414   6.127   5.078
12853TIP3   OH238499   1.890   7.162   3.235
12853TIP3    H138500   1.936   7.154   3.151
12853TIP3    H238501   1.816   7.102   3.228
12854TIP3   OH238502   3.177   2.343   0.390
12854TIP3    H138503   3.223   2.372   0.311
12854TIP3    H238504   3.194   2.249   0.394
12855TIP3   OH238505   5.020   7.690   0.876
12855TIP3    H138506   5.021   7.781   0.848
12855TIP3    H238507   5.107   7.675   0.913
12856TIP3   OH238508   6.729   6.297   1.003
12856TIP3    H138509   6.801   6.246   1.040
12856TIP3    H238510   6.718   6.370   1.064
12857TIP3   OH238511   2.857   5.554   0.964
12857TIP3    H138512   2.936   5.535   0.913
12857TIP3    H238513   2.874   5.514   1.049
12858TIP3   OH238514   4.234   1.761   4.527
12858TIP3    H138515   4.165   1.827   4.535
12858TIP3    H238516   4.310   1.801   4.567
12859TIP3   OH238517   1.462   4.306   3.878
12859TIP3    H138518   1.435   4.290   3.788
12859TIP3    H238519   1.381   4.330   3.923
12860TIP3   OH238520   7.000   1.499   3.750
12860TIP3    H138521   6.950   1.520   3.829
12860TIP3    H238522   6.933   1.491   3.681
12861TIP3   OH238523   1.419   2.376   0.899
12861TIP3    H138524   1.478   2.336   0.963
12861TIP3    H238525   1.472   2.440   0.853
12862TIP3   OH238526   1.182   2.467   5.785
12862TIP3    H138527   1.148   2.543   5.738
12862TIP3    H238528   1.116   2.450   5.853
12863TIP3   OH238529   1.455   1.281   1.761
12863TIP3    H138530   1.457   1.348   1.692
12863TIP3    H238531   1.532   1.227   1.744
12864TIP3   OH238532   1.240   6.482   6.132
12864TIP3    H138533   1.174   6.499   6.064
12864TIP3    H238534   1.305   6.551   6.120
12865TIP3   OH238535   4.044   0.431   5.090
12865TIP3    H138536   3.987   0.422   5.014
12865TIP3    H238537   4.112   0.364   5.077
12866TIP3   OH238538   7.924   7.472   3.877
12866TIP3    H138539   7.974   7.552   3.863
12866TIP3    H238540   7.975   7.403   3.833
12867TIP3   OH238541   2.665   1.881   1.605
12867TIP3    H138542   2.617   1.869   1.523
12867TIP3    H238543   2.727   1.951   1.586
12868TIP3   OH238544   2.182   7.226   0.179
12868TIP3    H138545   2.214   7.144   0.141
12868TIP3    H238546   2.099   7.203   0.219
12869TIP3   OH238547   0.501   3.041   0.060
12869TIP3    H138548   0.595   3.051   0.047
12869TIP3    H238549   0.493   2.984   0.137
12870TIP3   OH238550   5.473   2.840   5.759
12870TIP3    H138551   5.559   2.803   5.777
12870TIP3    H238552   5.489   2.907   5.693
12871TIP3   OH238553   4.329   6.330   6.015
12871TIP3    H138554   4.251   6.385   6.016
12871TIP3    H238555   4.361   6.332   6.105
12872TIP3   OH238556   1.358   1.817   0.511
12872TIP3    H138557   1.386   1.731   0.481
12872TIP3    H238558   1.439   1.862   0.535
12873TIP3   OH238559   7.251   1.996   3.356
12873TIP3    H138560   7.277   2.088   3.356
12873TIP3    H238561   7.268   1.967   3.446
12874TIP3   OH238562   2.179   0.751   3.118
12874TIP3    H138563   2.138   0.828   3.078
12874TIP3    H238564   2.230   0.712   3.047
12875TIP3   OH238565   7.466   3.246   4.198
12875TIP3    H138566   7.419   3.248   4.282
12875TIP3    H238567   7.472   3.153   4.176
12876TIP3   OH238568   6.920   2.538   4.801
12876TIP3    H138569   6.985   2.519   4.869
12876TIP3    H238570   6.943   2.481   4.728
12877TIP3   OH238571   8.071   1.585   0.072
12877TIP3    H138572   8.034   1.566  -0.014
12877TIP3    H238573   8.165   1.588   0.058
12878TIP3   OH238574   8.032   4.777   1.554
12878TIP3    H138575   8.027   4.779   1.458
12878TIP3    H238576   8.125   4.761   1.572
12879TIP3   OH238577   5.404   2.326   4.910
12879TIP3    H138578   5.372   2.237   4.918
12879TIP3    H238579   5.448   2.329   4.825
12880TIP3   OH238580   4.718   3.476   5.473
12880TIP3    H138581   4.685   3.456   5.386
12880TIP3    H238582   4.642   3.467   5.530
12881TIP3   OH238583   1.196   5.973   5.120
12881TIP3    H138584   1.168   6.057   5.083
12881TIP3    H238585   1.120   5.939   5.166
12882TIP3   OH238586   4.087   2.071   2.286
12882TIP3    H138587   4.161   2.069   2.347
12882TIP3    H238588   4.125   2.047   2.201
12883TIP3   OH238589   0.558   0.741   4.010
12883TIP3    H138590   0.629   0.738   4.073
12883TIP3    H238591   0.601   0.749   3.925
12884TIP3   OH238592   2.765   2.527   4.975
12884TIP3    H138593   2.783   2.444   4.931
12884TIP3    H238594   2.672   2.544   4.957
12885TIP3   OH238595   0.817   7.120   1.145
12885TIP3    H138596   0.757   7.191   1.118
12885TIP3    H238597   0.760   7.055   1.185
12886TIP3   OH238598   7.768   2.354   1.725
12886TIP3    H138599   7.694   2.395   1.769
12886TIP3    H238600   7.775   2.268   1.764
12887TIP3   OH238601   7.912   7.569   1.343
12887TIP3    H138602   7.865   7.631   1.288
12887TIP3    H238603   7.850   7.546   1.413
12888TIP3   OH238604   0.268   2.599   3.878
12888TIP3    H138605   0.187   2.565   3.916
12888TIP3    H238606   0.313   2.642   3.950
12889TIP3   OH238607   7.937   5.711   3.432
12889TIP3    H138608   7.970   5.624   3.410
12889TIP3    H238609   7.984   5.770   3.374
12890TIP3   OH238610   4.228   1.627   0.395
12890TIP3    H138611   4.143   1.585   0.380
12890TIP3    H238612   4.214   1.719   0.370
12891TIP3   OH238613   8.169   7.410   4.887
12891TIP3    H138614   8.188   7.423   4.794
12891TIP3    H238615   8.074   7.402   4.891
12892TIP3   OH238616   8.341   2.745   6.535
12892TIP3    H138617   8.363   2.675   6.474
12892TIP3    H238618   8.246   2.752   6.530
12893TIP3   OH238619   0.406   0.613   4.764
12893TIP3    H138620   0.417   0.660   4.682
12893TIP3    H238621   0.387   0.523   4.739
12894TIP3   OH238622   3.021   1.956   3.662
12894TIP3    H138623   3.067   2.033   3.694
12894TIP3    H238624   3.091   1.899   3.629
12895TIP3   OH238625   1.746   3.360   3.301
12895TIP3    H138626   1.746   3.433   3.364
12895TIP3    H238627   1.670   3.308   3.326
12896TIP3   OH238628   0.175   1.793   6.735
12896TIP3    H138629   0.112   1.826   6.800
12896TIP3    H238630   0.133   1.811   6.651
12897TIP3   OH238631   2.923   5.447   2.571
12897TIP3    H138632   2.939   5.522   2.627
12897TIP3    H238633   2.906   5.485   2.484
12898TIP3   OH238634   0.980   4.043   5.581
12898TIP3    H138635   1.064   3.996   5.584
12898TIP3    H238636   0.914   3.974   5.586
12899TIP3   OH238637   8.241   2.212   2.651
12899TIP3    H138638   8.169   2.155   2.677
12899TIP3    H238639   8.306   2.153   2.613
12900TIP3   OH238640   1.927   7.336   1.572
12900TIP3    H138641   1.990   7.387   1.622
12900TIP3    H238642   1.842   7.363   1.606
12901TIP3   OH238643   7.805   6.386   2.890
12901TIP3    H138644   7.735   6.452   2.892
12901TIP3    H238645   7.847   6.394   2.975
12902TIP3   OH238646   3.669   3.554   5.575
12902TIP3    H138647   3.644   3.632   5.625
12902TIP3    H238648   3.627   3.481   5.622
12903TIP3   OH238649   3.476   6.522   2.173
12903TIP3    H138650   3.530   6.599   2.189
12903TIP3    H238651   3.507   6.456   2.236
12904TIP3   OH238652   1.541   7.406   2.249
12904TIP3    H138653   1.507   7.486   2.210
12904TIP3    H238654   1.466   7.366   2.293
12905TIP3   OH238655   8.200   3.969   1.777
12905TIP3    H138656   8.151   4.019   1.843
12905TIP3    H238657   8.179   3.878   1.795
12906TIP3   OH238658   8.332   7.310   5.304
12906TIP3    H138659   8.277   7.365   5.247
12906TIP3    H238660   8.315   7.343   5.392
12907TIP3   OH238661   1.313   1.798   1.327
12907TIP3    H138662   1.403   1.831   1.332
12907TIP3    H238663   1.315   1.713   1.370
12908TIP3   OH238664   6.183   7.259   4.087
12908TIP3    H138665   6.205   7.333   4.143
12908TIP3    H238666   6.162   7.188   4.148
12909TIP3   OH238667   4.565   5.849   3.885
12909TIP3    H138668   4.620   5.835   3.808
12909TIP3    H238669   4.600   5.928   3.926
12910TIP3   OH238670   3.539   0.648   1.962
12910TIP3    H138671   3.532   0.628   1.869
12910TIP3    H238672   3.569   0.567   2.002
12911TIP3   OH238673   4.158   5.096   0.451
12911TIP3    H138674   4.161   5.164   0.384
12911TIP3    H238675   4.210   5.025   0.415
12912TIP3   OH238676   1.237   3.946   2.847
12912TIP3    H138677   1.173   3.964   2.778
12912TIP3    H238678   1.218   3.856   2.874
12913TIP3   OH238679   6.436   5.937   3.265
12913TIP3    H138680   6.359   5.919   3.210
12913TIP3    H238681   6.472   5.851   3.285
12914TIP3   OH238682   1.074   3.257   1.732
12914TIP3    H138683   1.129   3.218   1.800
12914TIP3    H238684   1.030   3.329   1.776
12915TIP3   OH238685   7.166   5.013   2.835
12915TIP3    H138686   7.163   4.932   2.784
12915TIP3    H238687   7.217   5.073   2.780
12916TIP3   OH238688   1.717   1.970   3.206
12916TIP3    H138689   1.750   1.954   3.118
12916TIP3    H238690   1.637   2.021   3.192
12917TIP3   OH238691   4.997   2.133   4.550
12917TIP3    H138692   4.932   2.203   4.555
12917TIP3    H238693   5.001   2.098   4.639
12918TIP3   OH238694   2.289   7.765   0.256
12918TIP3    H138695   2.285   7.703   0.329
12918TIP3    H238696   2.236   7.724   0.187
12919TIP3   OH238697   7.587   7.648   3.107
12919TIP3    H138698   7.593   7.735   3.069
12919TIP3    H238699   7.505   7.612   3.071
12920TIP3   OH238700   5.730   5.194   0.420
12920TIP3    H138701   5.658   5.191   0.356
12920TIP3    H238702   5.697   5.248   0.491
12921TIP3   OH238703   0.602   5.885   5.060
12921TIP3    H138704   0.697   5.891   5.051
12921TIP3    H238705   0.568   5.921   4.978
12922TIP3   OH238706   4.889   3.903   4.369
12922TIP3    H138707   4.969   3.852   4.356
12922TIP3    H238708   4.920   3.985   4.409
12923TIP3   OH238709   1.669   6.802   4.576
12923TIP3    H138710   1.633   6.870   4.631
12923TIP3    H238711   1.763   6.821   4.573
12924TIP3   OH238712   6.780   2.363   5.627
12924TIP3    H138713   6.801   2.277   5.664
12924TIP3    H238714   6.717   2.345   5.557
12925TIP3   OH238715   7.794   1.672   0.517
12925TIP3    H138716   7.783   1.756   0.473
12925TIP3    H238717   7.856   1.690   0.588
12926TIP3   OH238718   1.654   3.008   3.361
12926TIP3    H138719   1.749   3.020   3.359
12926TIP3    H238720   1.642   2.920   3.397
12927TIP3   OH238721   4.958   5.902   4.871
12927TIP3    H138722   5.032   5.841   4.880
12927TIP3    H238723   4.895   5.854   4.816
12928TIP3   OH238724   5.665   3.767   1.865
12928TIP3    H138725   5.758   3.753   1.847
12928TIP3    H238726   5.660   3.858   1.896
12929TIP3   OH238727   2.951   2.071   0.484
12929TIP3    H138728   2.917   2.154   0.449
12929TIP3    H238729   2.873   2.020   0.506
12930TIP3   OH238730   5.049   6.354   2.575
12930TIP3    H138731   5.028   6.445   2.597
12930TIP3    H238732   5.124   6.334   2.631
12931TIP3   OH238733   0.953   7.166   1.643
12931TIP3    H138734   0.991   7.082   1.618
12931TIP3    H238735   0.989   7.229   1.581
12932TIP3   OH238736   8.043   3.048   2.998
12932TIP3    H138737   7.962   3.026   2.953
12932TIP3    H238738   8.062   2.973   3.054
12933TIP3   OH238739   1.794   4.572   0.774
12933TIP3    H138740   1.824   4.658   0.804
12933TIP3    H238741   1.814   4.513   0.846
12934TIP3   OH238742   6.391   2.953   6.009
12934TIP3    H138743   6.355   2.932   5.923
12934TIP3    H238744   6.441   3.034   5.996
12935TIP3   OH238745   2.120   5.647   3.030
12935TIP3    H138746   2.177   5.717   3.062
12935TIP3    H238747   2.098   5.597   3.109
12936TIP3   OH238748   3.537   3.474   3.215
12936TIP3    H138749   3.523   3.506   3.304
12936TIP3    H238750   3.473   3.403   3.204
12937TIP3   OH238751   4.590   4.788   4.459
12937TIP3    H138752   4.664   4.742   4.500
12937TIP3    H238753   4.596   4.877   4.492
12938TIP3   OH238754   6.828   6.361   3.457
12938TIP3    H138755   6.781   6.304   3.519
12938TIP3    H238756   6.794   6.449   3.476
12939TIP3   OH238757   0.816   5.635   6.277
12939TIP3    H138758   0.793   5.721   6.243
12939TIP3    H238759   0.892   5.650   6.332
12940TIP3   OH238760   1.154   7.661   4.128
12940TIP3    H138761   1.159   7.755   4.145
12940TIP3    H238762   1.073   7.634   4.172
12941TIP3   OH238763   5.711   2.250   1.582
12941TIP3    H138764   5.790   2.285   1.541
12941TIP3    H238765   5.699   2.303   1.661
12942TIP3   OH238766   7.520   1.140   0.106
12942TIP3    H138767   7.586   1.184   0.052
12942TIP3    H238768   7.514   1.052   0.068
12943TIP3   OH238769   4.785   7.771   4.862
12943TIP3    H138770   4.748   7.842   4.808
12943TIP3    H238771   4.724   7.763   4.935
12944TIP3   OH238772   4.011   4.153   0.873
12944TIP3    H138773   3.942   4.131   0.936
12944TIP3    H238774   4.077   4.198   0.924
12945TIP3   OH238775   0.700   3.525   4.256
12945TIP3    H138776   0.708   3.432   4.275
12945TIP3    H238777   0.780   3.564   4.292
12946TIP3   OH238778   0.111   3.408   6.425
12946TIP3    H138779   0.191   3.423   6.375
12946TIP3    H238780   0.040   3.426   6.363
12947TIP3   OH238781   7.147   2.842   0.314
12947TIP3    H138782   7.111   2.754   0.322
12947TIP3    H238783   7.096   2.883   0.243
12948TIP3   OH238784   7.068   3.352   1.492
12948TIP3    H138785   7.135   3.305   1.542
12948TIP3    H238786   6.991   3.350   1.549
12949TIP3   OH238787   7.147   7.068   3.532
12949TIP3    H138788   7.240   7.088   3.543
12949TIP3    H238789   7.116   7.048   3.620
12950TIP3   OH238790   1.393   6.594   2.312
12950TIP3    H138791   1.357   6.549   2.388
12950TIP3    H238792   1.354   6.681   2.314
12951TIP3   OH238793   5.651   6.245   2.103
12951TIP3    H138794   5.643   6.225   2.196
12951TIP3    H238795   5.598   6.324   2.091
12952TIP3   OH238796   2.503   7.697   1.316
12952TIP3    H138797   2.414   7.721   1.341
12952TIP3    H238798   2.536   7.647   1.391
12953TIP3   OH238799   0.154   7.475   1.100
12953TIP3    H138800   0.125   7.448   1.186
12953TIP3    H238801   0.250   7.474   1.106
12954TIP3   OH238802   2.673   7.601   1.051
12954TIP3    H138803   2.760   7.610   1.090
12954TIP3    H238804   2.635   7.689   1.057
12955TIP3   OH238805   0.810   5.725   2.211
12955TIP3    H138806   0.883   5.663   2.202
12955TIP3    H238807   0.840   5.788   2.276
12956TIP3   OH238808   2.377   1.765   1.253
12956TIP3    H138809   2.333   1.680   1.244
12956TIP3    H238810   2.441   1.766   1.181
12957TIP3   OH238811   1.860   7.303   2.489
12957TIP3    H138812   1.779   7.259   2.515
12957TIP3    H238813   1.926   7.266   2.548
12958TIP3   OH238814   8.360   3.418   4.570
12958TIP3    H138815   8.361   3.324   4.586
12958TIP3    H238816   8.442   3.435   4.522
12959TIP3   OH238817   0.342   0.356   4.987
12959TIP3    H138818   0.302   0.285   4.937
12959TIP3    H238819   0.290   0.433   4.964
12960TIP3   OH238820   0.345   6.563   4.012
12960TIP3    H138821   0.440   6.572   4.023
12960TIP3    H238822   0.312   6.554   4.102
12961TIP3   OH238823   3.604   0.087   3.488
12961TIP3    H138824   3.635   0.003   3.523
12961TIP3    H238825   3.513   0.071   3.462
12962TIP3   OH238826   6.004   2.847   5.068
12962TIP3    H138827   6.047   2.803   4.995
12962TIP3    H238828   6.067   2.911   5.099
12963TIP3   OH238829   3.709   5.932   3.174
12963TIP3    H138830   3.700   5.985   3.253
12963TIP3    H238831   3.620   5.913   3.147
12964TIP3   OH238832   2.219   2.709   3.047
12964TIP3    H138833   2.235   2.799   3.021
12964TIP3    H238834   2.181   2.715   3.135
12965TIP3   OH238835   2.767   5.017   1.103
12965TIP3    H138836   2.701   4.967   1.152
12965TIP3    H238837   2.726   5.102   1.088
12966TIP3   OH238838   5.382   0.038   4.964
12966TIP3    H138839   5.303  -0.007   4.932
12966TIP3    H238840   5.395   0.110   4.903
12967TIP3   OH238841   1.672   0.323   1.198
12967TIP3    H138842   1.736   0.269   1.152
12967TIP3    H238843   1.670   0.404   1.148
12968TIP3   OH238844   7.117   3.592   0.549
12968TIP3    H138845   7.022   3.598   0.552
12968TIP3    H238846   7.143   3.649   0.477
12969TIP3   OH238847   2.398   0.616   5.866
12969TIP3    H138848   2.450   0.535   5.858
12969TIP3    H238849   2.401   0.655   5.779
12970TIP3   OH238850   2.763   0.430   3.374
12970TIP3    H138851   2.723   0.508   3.411
12970TIP3    H238852   2.740   0.432   3.281
12971TIP3   OH238853   7.971   3.652   4.242
12971TIP3    H138854   8.035   3.627   4.309
12971TIP3    H238855   7.920   3.722   4.284
12972TIP3   OH238856   2.280   5.661   2.386
12972TIP3    H138857   2.277   5.736   2.445
12972TIP3    H238858   2.204   5.608   2.411
12973TIP3   OH238859   8.232   1.936   6.862
12973TIP3    H138860   8.152   1.926   6.810
12973TIP3    H238861   8.278   2.009   6.820
12974TIP3   OH238862   6.616   4.233   5.550
12974TIP3    H138863   6.594   4.140   5.563
12974TIP3    H238864   6.710   4.233   5.533
12975TIP3   OH238865   7.231   1.127   4.062
12975TIP3    H138866   7.196   1.189   3.998
12975TIP3    H238867   7.237   1.178   4.143
12976TIP3   OH238868   8.146   7.283   2.670
12976TIP3    H138869   8.097   7.294   2.588
12976TIP3    H238870   8.089   7.320   2.737
12977TIP3   OH238871   7.838   6.252   4.265
12977TIP3    H138872   7.777   6.309   4.312
12977TIP3    H238873   7.787   6.219   4.191
12978TIP3   OH238874   5.334   6.224   2.411
12978TIP3    H138875   5.383   6.161   2.464
12978TIP3    H238876   5.330   6.303   2.466
12979TIP3   OH238877   3.282   2.829   3.493
12979TIP3    H138878   3.349   2.837   3.562
12979TIP3    H238879   3.203   2.804   3.540
12980TIP3   OH238880   4.859   0.728   6.373
12980TIP3    H138881   4.789   0.701   6.433
12980TIP3    H238882   4.816   0.787   6.311
12981TIP3   OH238883   6.446   5.467   4.518
12981TIP3    H138884   6.384   5.530   4.481
12981TIP3    H238885   6.425   5.466   4.612
12982TIP3   OH238886   0.131   1.050   5.416
12982TIP3    H138887   0.174   1.014   5.338
12982TIP3    H238888   0.040   1.062   5.389
12983TIP3   OH238889   5.142   7.567   3.664
12983TIP3    H138890   5.197   7.548   3.739
12983TIP3    H238891   5.184   7.643   3.623
12984TIP3   OH238892   6.768   7.038   1.871
12984TIP3    H138893   6.812   6.953   1.872
12984TIP3    H238894   6.697   7.029   1.935
12985TIP3   OH238895   0.907   6.801   3.887
12985TIP3    H138896   0.903   6.862   3.814
12985TIP3    H238897   0.987   6.749   3.871
12986TIP3   OH238898   3.569   2.159   1.448
12986TIP3    H138899   3.591   2.181   1.539
12986TIP3    H238900   3.481   2.123   1.452
12987TIP3   OH238901   5.684   4.888   4.440
12987TIP3    H138902   5.734   4.897   4.520
12987TIP3    H238903   5.599   4.929   4.459
12988TIP3   OH238904   2.141   6.579   0.170
12988TIP3    H138905   2.096   6.588   0.085
12988TIP3    H238906   2.227   6.543   0.148
12989TIP3   OH238907   8.092   3.945   0.128
12989TIP3    H138908   8.129   4.001   0.059
12989TIP3    H238909   7.999   3.941   0.108
12990TIP3   OH238910   5.080   4.907   4.401
12990TIP3    H138911   5.124   4.954   4.472
12990TIP3    H238912   5.149   4.858   4.358
12991TIP3   OH238913   1.681   0.929   2.168
12991TIP3    H138914   1.659   0.838   2.187
12991TIP3    H238915   1.761   0.923   2.115
12992TIP3   OH238916   1.145   1.998   5.016
12992TIP3    H138917   1.066   1.983   4.964
12992TIP3    H238918   1.113   2.007   5.106
12993TIP3   OH238919   5.279   1.839   2.622
12993TIP3    H138920   5.192   1.868   2.595
12993TIP3    H238921   5.333   1.845   2.543
12994TIP3   OH238922   7.422   0.749   3.728
12994TIP3    H138923   7.400   0.842   3.731
12994TIP3    H238924   7.357   0.707   3.783
12995TIP3   OH238925   7.542   6.818   3.981
12995TIP3    H138926   7.613   6.882   3.988
12995TIP3    H238927   7.583   6.734   4.002
12996TIP3   OH238928   5.623   0.280   6.230
12996TIP3    H138929   5.668   0.285   6.146
12996TIP3    H238930   5.685   0.316   6.293
12997TIP3   OH238931   4.696   7.165   2.402
12997TIP3    H138932   4.762   7.096   2.413
12997TIP3    H238933   4.745   7.239   2.368
12998TIP3   OH238934   5.066   7.245   0.054
12998TIP3    H138935   5.107   7.298   0.123
12998TIP3    H238936   5.046   7.162   0.097
12999TIP3   OH238937   6.531   5.216   6.671
12999TIP3    H138938   6.534   5.210   6.575
12999TIP3    H238939   6.605   5.164   6.701
13000TIP3   OH238940   0.727   4.070   4.333
13000TIP3    H138941   0.643   4.075   4.286
13000TIP3    H238942   0.719   3.992   4.387
13001TIP3   OH238943   5.356   1.029   4.292
13001TIP3    H138944   5.340   1.103   4.234
13001TIP3    H238945   5.369   1.069   4.378
13002TIP3   OH238946   2.286   3.828   3.094
13002TIP3    H138947   2.202   3.841   3.049
13002TIP3    H238948   2.262   3.794   3.180
13003TIP3   OH238949   4.509   3.118   6.231
13003TIP3    H138950   4.557   3.072   6.300
13003TIP3    H238951   4.441   3.056   6.204
13004TIP3   OH238952   8.336   7.209   2.445
13004TIP3    H138953   8.282   7.236   2.520
13004TIP3    H238954   8.281   7.145   2.399
13005TIP3   OH238955   7.771   2.691   2.467
13005TIP3    H138956   7.834   2.676   2.397
13005TIP3    H238957   7.816   2.664   2.547
13006TIP3   OH238958   4.881   1.192   1.465
13006TIP3    H138959   4.889   1.281   1.500
13006TIP3    H238960   4.800   1.193   1.413
13007TIP3   OH238961   6.709   4.862   1.734
13007TIP3    H138962   6.665   4.794   1.785
13007TIP3    H238963   6.791   4.822   1.706
13008TIP3   OH238964   1.860   7.576   2.471
13008TIP3    H138965   1.851   7.485   2.443
13008TIP3    H238966   1.947   7.581   2.511
13009TIP3   OH238967   0.321   0.948   4.405
13009TIP3    H138968   0.365   1.021   4.447
13009TIP3    H238969   0.354   0.870   4.450
13010TIP3   OH238970   7.428   7.590   0.751
13010TIP3    H138971   7.376   7.535   0.693
13010TIP3    H238972   7.426   7.545   0.835
13011TIP3   OH238973   0.717   5.175   6.060
13011TIP3    H138974   0.741   5.243   5.997
13011TIP3    H238975   0.717   5.220   6.145
13012TIP3   OH238976   3.604   0.011   4.299
13012TIP3    H138977   3.561   0.093   4.324
13012TIP3    H238978   3.656   0.034   4.222
13013TIP3   OH238979   0.746   0.079   5.770
13013TIP3    H138980   0.820   0.103   5.714
13013TIP3    H238981   0.669   0.090   5.715
13014TIP3   OH238982   1.852   6.003   1.273
13014TIP3    H138983   1.818   6.089   1.249
13014TIP3    H238984   1.856   5.954   1.191
13015TIP3   OH238985   8.268   4.160   3.845
13015TIP3    H138986   8.315   4.143   3.764
13015TIP3    H238987   8.324   4.124   3.914
13016TIP3   OH238988   1.196   2.848   2.077
13016TIP3    H138989   1.273   2.857   2.021
13016TIP3    H238990   1.165   2.938   2.089
13017TIP3   OH238991   6.490   0.158   1.532
13017TIP3    H138992   6.527   0.237   1.492
13017TIP3    H238993   6.502   0.171   1.626
13018TIP3   OH238994   8.280   3.696   2.097
13018TIP3    H138995   8.326   3.736   2.171
13018TIP3    H238996   8.205   3.652   2.137
13019TIP3   OH238997   1.867   4.131   6.071
13019TIP3    H138998   1.818   4.054   6.042
13019TIP3    H238999   1.868   4.125   6.166
13020TIP3   OH239000   2.767   5.742   4.007
13020TIP3    H139001   2.795   5.692   4.084
13020TIP3    H239002   2.818   5.708   3.935
13021TIP3   OH239003   6.740   1.241   6.759
13021TIP3    H139004   6.737   1.270   6.850
13021TIP3    H239005   6.806   1.171   6.758
13022TIP3   OH239006   3.745   1.602   1.985
13022TIP3    H139007   3.771   1.691   2.007
13022TIP3    H239008   3.826   1.552   1.991
13023TIP3   OH239009   0.833   3.043   6.482
13023TIP3    H139010   0.905   3.000   6.528
13023TIP3    H239011   0.762   2.979   6.482
13024TIP3   OH239012   3.729   6.114   1.332
13024TIP3    H139013   3.771   6.197   1.352
13024TIP3    H239014   3.635   6.133   1.333
13025TIP3   OH239015   0.796   2.576   0.335
13025TIP3    H139016   0.880   2.532   0.347
13025TIP3    H239017   0.754   2.529   0.263
13026TIP3   OH239018   1.551   3.459   5.606
13026TIP3    H139019   1.576   3.548   5.582
13026TIP3    H239020   1.475   3.470   5.663
13027TIP3   OH239021   2.208   0.916   2.585
13027TIP3    H139022   2.201   1.011   2.583
13027TIP3    H239023   2.281   0.896   2.526
13028TIP3   OH239024   4.568   4.739   5.629
13028TIP3    H139025   4.534   4.819   5.670
13028TIP3    H239026   4.661   4.755   5.619
13029TIP3   OH239027   5.938   7.490   0.224
13029TIP3    H139028   6.003   7.431   0.187
13029TIP3    H239029   5.986   7.571   0.241
13030TIP3   OH239030   2.694   6.168   4.029
13030TIP3    H139031   2.688   6.186   4.123
13030TIP3    H239032   2.693   6.254   3.988
13031TIP3   OH239033   5.159   1.168   6.179
13031TIP3    H139034   5.197   1.255   6.187
13031TIP3    H239035   5.219   1.111   6.226
13032TIP3   OH239036   5.256   7.587   4.418
13032TIP3    H139037   5.329   7.612   4.476
13032TIP3    H239038   5.197   7.537   4.474
13033TIP3   OH239039   3.369   0.303   1.558
13033TIP3    H139040   3.373   0.224   1.504
13033TIP3    H239041   3.375   0.375   1.495
13034TIP3   OH239042   3.396   2.240   6.014
13034TIP3    H139043   3.458   2.218   6.083
13034TIP3    H239044   3.414   2.175   5.945
13035TIP3   OH239045   5.292   1.392   1.289
13035TIP3    H139046   5.197   1.399   1.294
13035TIP3    H239047   5.322   1.408   1.378
13036TIP3   OH239048   1.211   3.492   6.323
13036TIP3    H139049   1.237   3.490   6.415
13036TIP3    H239050   1.220   3.584   6.297
13037TIP3   OH239051   3.753   7.134   1.318
13037TIP3    H139052   3.818   7.178   1.372
13037TIP3    H239053   3.678   7.122   1.375
13038TIP3   OH239054   1.143   0.799   6.553
13038TIP3    H139055   1.128   0.720   6.605
13038TIP3    H239056   1.217   0.842   6.596
13039TIP3   OH239057   5.964   3.467   1.472
13039TIP3    H139058   5.937   3.396   1.531
13039TIP3    H239059   5.992   3.537   1.530
13040TIP3   OH239060   1.397   0.866   6.341
13040TIP3    H139061   1.316   0.916   6.343
13040TIP3    H239062   1.441   0.894   6.260
13041TIP3   OH239063   6.176   3.426   3.443
13041TIP3    H139064   6.144   3.458   3.527
13041TIP3    H239065   6.144   3.490   3.379
13042TIP3   OH239066   7.768   4.165   3.623
13042TIP3    H139067   7.807   4.083   3.592
13042TIP3    H239068   7.828   4.195   3.692
13043TIP3   OH239069   5.261   1.463   0.627
13043TIP3    H139070   5.274   1.538   0.685
13043TIP3    H239071   5.301   1.389   0.674
13044TIP3   OH239072   6.905   1.343   4.391
13044TIP3    H139073   6.984   1.301   4.424
13044TIP3    H239074   6.880   1.291   4.315
13045TIP3   OH239075   4.300   2.065   5.469
13045TIP3    H139076   4.365   2.082   5.537
13045TIP3    H239077   4.216   2.084   5.512
13046TIP3   OH239078   6.544   4.822   1.976
13046TIP3    H139079   6.451   4.833   1.997
13046TIP3    H239080   6.580   4.911   1.975
13047TIP3   OH239081   5.348   0.100   2.571
13047TIP3    H139082   5.348   0.026   2.511
13047TIP3    H239083   5.263   0.096   2.614
13048TIP3   OH239084   3.329   1.033   5.169
13048TIP3    H139085   3.373   0.980   5.235
13048TIP3    H239086   3.391   1.102   5.148
13049TIP3   OH239087   0.480   7.220   0.367
13049TIP3    H139088   0.475   7.313   0.348
13049TIP3    H239089   0.422   7.207   0.443
13050TIP3   OH239090   1.917   3.122   3.434
13050TIP3    H139091   1.870   3.193   3.478
13050TIP3    H239092   2.004   3.122   3.475
13051TIP3   OH239093   2.695   5.322   1.933
13051TIP3    H139094   2.643   5.330   2.013
13051TIP3    H239095   2.634   5.288   1.868
13052TIP3   OH239096   1.386   5.134   3.614
13052TIP3    H139097   1.473   5.169   3.592
13052TIP3    H239098   1.389   5.043   3.587
13053TIP3   OH239099   1.861   3.408   4.993
13053TIP3    H139100   1.938   3.385   4.942
13053TIP3    H239101   1.887   3.486   5.041
13054TIP3   OH239102   1.588   5.867   1.011
13054TIP3    H139103   1.586   5.946   1.064
13054TIP3    H239104   1.632   5.892   0.930
13055TIP3   OH239105   7.132   6.443   5.666
13055TIP3    H139106   7.158   6.387   5.740
13055TIP3    H239107   7.215   6.477   5.632
13056TIP3   OH239108   4.828   4.447   0.795
13056TIP3    H139109   4.902   4.412   0.844
13056TIP3    H239110   4.802   4.526   0.842
13057TIP3   OH239111   0.548   0.136   0.695
13057TIP3    H139112   0.565   0.196   0.622
13057TIP3    H239113   0.500   0.063   0.655
13058TIP3   OH239114   3.357   2.616   6.122
13058TIP3    H139115   3.276   2.667   6.121
13058TIP3    H239116   3.380   2.609   6.214
13059TIP3   OH239117   2.392   4.306   0.626
13059TIP3    H139118   2.345   4.371   0.573
13059TIP3    H239119   2.431   4.357   0.697
13060TIP3   OH239120   7.084   1.881   3.008
13060TIP3    H139121   7.162   1.825   3.003
13060TIP3    H239122   7.038   1.850   3.086
13061TIP3   OH239123   3.123   2.871   5.083
13061TIP3    H139124   3.212   2.883   5.051
13061TIP3    H239125   3.094   2.788   5.046
13062TIP3   OH239126   0.459   4.087   4.194
13062TIP3    H139127   0.399   4.111   4.265
13062TIP3    H239128   0.405   4.038   4.132
13063TIP3   OH239129   5.170   2.299   3.249
13063TIP3    H139130   5.259   2.302   3.283
13063TIP3    H239131   5.174   2.349   3.168
13064TIP3   OH239132   7.384   1.003   2.413
13064TIP3    H139133   7.330   1.082   2.419
13064TIP3    H239134   7.344   0.952   2.343
13065TIP3   OH239135   3.940   0.338   6.418
13065TIP3    H139136   3.982   0.417   6.383
13065TIP3    H239137   3.949   0.346   6.513
13066TIP3   OH239138   3.396   1.329   5.986
13066TIP3    H139139   3.401   1.419   5.955
13066TIP3    H239140   3.366   1.336   6.077
13067TIP3   OH239141   7.402   4.066   1.872
13067TIP3    H139142   7.487   4.102   1.898
13067TIP3    H239143   7.396   4.084   1.778
13068TIP3   OH239144   6.116   5.578   3.175
13068TIP3    H139145   6.194   5.527   3.153
13068TIP3    H239146   6.058   5.517   3.220
13069TIP3   OH239147   4.770   4.167   5.516
13069TIP3    H139148   4.858   4.195   5.491
13069TIP3    H239149   4.774   4.071   5.514
13070TIP3   OH239150   7.850   0.772   0.771
13070TIP3    H139151   7.826   0.833   0.702
13070TIP3    H239152   7.890   0.826   0.839
13071TIP3   OH239153   2.056   4.571   2.363
13071TIP3    H139154   2.112   4.518   2.419
13071TIP3    H239155   1.971   4.572   2.409
13072TIP3   OH239156   1.767   2.213   5.158
13072TIP3    H139157   1.812   2.271   5.219
13072TIP3    H239158   1.680   2.252   5.148
13073TIP3   OH239159   2.034   3.151   5.505
13073TIP3    H139160   1.965   3.128   5.442
13073TIP3    H239161   2.053   3.243   5.487
13074TIP3   OH239162   6.172   5.131   0.536
13074TIP3    H139163   6.118   5.126   0.615
13074TIP3    H239164   6.111   5.119   0.464
13075TIP3   OH239165   7.756   4.291   0.546
13075TIP3    H139166   7.771   4.371   0.495
13075TIP3    H239167   7.786   4.312   0.634
13076TIP3   OH239168   2.168   0.086   3.365
13076TIP3    H139169   2.093   0.026   3.372
13076TIP3    H239170   2.143   0.161   3.420
13077TIP3   OH239171   1.318   5.619   0.262
13077TIP3    H139172   1.396   5.565   0.270
13077TIP3    H239173   1.268   5.577   0.191
13078TIP3   OH239174   1.632   5.371   5.468
13078TIP3    H139175   1.673   5.456   5.487
13078TIP3    H239176   1.552   5.371   5.521
13079TIP3   OH239177   5.921   3.446   4.119
13079TIP3    H139178   6.000   3.421   4.168
13079TIP3    H239179   5.849   3.409   4.169
13080TIP3   OH239180   3.791   5.162   5.543
13080TIP3    H139181   3.771   5.188   5.453
13080TIP3    H239182   3.717   5.107   5.569
13081TIP3   OH239183   3.589   6.713   6.092
13081TIP3    H139184   3.549   6.632   6.060
13081TIP3    H239185   3.683   6.693   6.094
13082TIP3   OH239186   0.447   3.080   2.861
13082TIP3    H139187   0.491   3.106   2.781
13082TIP3    H239188   0.430   3.162   2.907
13083TIP3   OH239189   6.272   1.302   1.708
13083TIP3    H139190   6.213   1.329   1.637
13083TIP3    H239191   6.238   1.216   1.734
13084TIP3   OH239192   6.834   2.947   4.557
13084TIP3    H139193   6.883   2.899   4.491
13084TIP3    H239194   6.861   2.910   4.640
13085TIP3   OH239195   1.016   2.175   1.503
13085TIP3    H139196   0.940   2.132   1.464
13085TIP3    H239197   1.038   2.245   1.440
13086TIP3   OH239198   6.249   6.659   4.198
13086TIP3    H139199   6.166   6.690   4.234
13086TIP3    H239200   6.311   6.730   4.216
13087TIP3   OH239201   3.297   4.646   2.981
13087TIP3    H139202   3.390   4.665   2.963
13087TIP3    H239203   3.294   4.628   3.075
13088TIP3   OH239204   3.535   6.028   0.806
13088TIP3    H139205   3.578   6.049   0.890
13088TIP3    H239206   3.459   5.975   0.831
13089TIP3   OH239207   3.358   5.420   0.780
13089TIP3    H139208   3.352   5.365   0.702
13089TIP3    H239209   3.388   5.360   0.849
13090TIP3   OH239210   2.848   1.564   1.431
13090TIP3    H139211   2.940   1.546   1.410
13090TIP3    H239212   2.821   1.627   1.364
13091TIP3   OH239213   8.017   6.538   2.764
13091TIP3    H139214   8.062   6.498   2.688
13091TIP3    H239215   7.958   6.469   2.794
13092TIP3   OH239216   0.625   2.063   6.056
13092TIP3    H139217   0.685   2.083   6.128
13092TIP3    H239218   0.663   2.105   5.980
13093TIP3   OH239219   5.892   5.265   5.793
13093TIP3    H139220   5.839   5.262   5.873
13093TIP3    H239221   5.960   5.199   5.806
13094TIP3   OH239222   3.461   1.883   1.595
13094TIP3    H139223   3.430   1.847   1.678
13094TIP3    H239224   3.521   1.953   1.620
13095TIP3   OH239225   4.857   3.285   6.695
13095TIP3    H139226   4.947   3.299   6.725
13095TIP3    H239227   4.804   3.301   6.773
13096TIP3   OH239228   8.363   4.314   5.723
13096TIP3    H139229   8.429   4.258   5.764
13096TIP3    H239230   8.334   4.266   5.647
13097TIP3   OH239231   1.542   7.511   5.161
13097TIP3    H139232   1.452   7.542   5.157
13097TIP3    H239233   1.553   7.477   5.250
13098TIP3   OH239234   1.662   7.357   4.926
13098TIP3    H139235   1.616   7.415   4.986
13098TIP3    H239236   1.698   7.289   4.981
13099TIP3   OH239237   7.734   5.032   4.791
13099TIP3    H139238   7.818   4.991   4.772
13099TIP3    H239239   7.736   5.115   4.743
13100TIP3   OH239240   5.768   3.836   5.014
13100TIP3    H139241   5.829   3.895   4.971
13100TIP3    H239242   5.755   3.765   4.952
13101TIP3   OH239243   5.581   7.850   0.286
13101TIP3    H139244   5.590   7.795   0.208
13101TIP3    H239245   5.499   7.897   0.274
13102TIP3   OH239246   2.082   5.195   2.252
13102TIP3    H139247   2.054   5.251   2.179
13102TIP3    H239248   2.129   5.123   2.211
13103TIP3   OH239249   0.117   1.957   1.430
13103TIP3    H139250   0.129   1.868   1.398
13103TIP3    H239251   0.206   1.987   1.452
13104TIP3   OH239252   4.385   0.241   5.325
13104TIP3    H139253   4.397   0.166   5.383
13104TIP3    H239254   4.473   0.266   5.297
13105TIP3   OH239255   2.693   2.665   1.825
13105TIP3    H139256   2.640   2.668   1.746
13105TIP3    H239257   2.644   2.608   1.885
13106TIP3   OH239258   7.103   5.877   0.780
13106TIP3    H139259   7.091   5.803   0.719
13106TIP3    H239260   7.093   5.955   0.725
13107TIP3   OH239261   7.962   6.198   4.012
13107TIP3    H139262   7.917   6.117   3.989
13107TIP3    H239263   7.942   6.212   4.104
13108TIP3   OH239264   2.044   6.105   4.659
13108TIP3    H139265   2.060   6.043   4.589
13108TIP3    H239266   2.017   6.051   4.734
13109TIP3   OH239267   0.407   2.929   1.786
13109TIP3    H139268   0.311   2.921   1.782
13109TIP3    H239269   0.439   2.854   1.735
13110TIP3   OH239270   7.245   2.086   6.292
13110TIP3    H139271   7.316   2.038   6.248
13110TIP3    H239272   7.171   2.026   6.290
13111TIP3   OH239273   3.486   5.624   0.923
13111TIP3    H139274   3.462   5.556   0.860
13111TIP3    H239275   3.439   5.702   0.893
13112TIP3   OH239276   7.899   6.689   4.748
13112TIP3    H139277   7.941   6.613   4.707
13112TIP3    H239278   7.968   6.728   4.801
13113TIP3   OH239279   5.121   7.350   2.626
13113TIP3    H139280   5.073   7.409   2.567
13113TIP3    H239281   5.211   7.352   2.594
13114TIP3   OH239282   0.449   1.605   5.489
13114TIP3    H139283   0.471   1.546   5.561
13114TIP3    H239284   0.354   1.606   5.486
13115TIP3   OH239285   3.172   0.390   4.491
13115TIP3    H139286   3.080   0.412   4.475
13115TIP3    H239287   3.214   0.474   4.507
13116TIP3   OH239288   6.919   4.761   1.576
13116TIP3    H139289   7.015   4.763   1.574
13116TIP3    H239290   6.893   4.759   1.484
13117TIP3   OH239291   1.066   3.011   0.663
13117TIP3    H139292   1.040   2.940   0.723
13117TIP3    H239293   1.100   2.966   0.585
13118TIP3   OH239294   1.561   7.376   0.526
13118TIP3    H139295   1.518   7.354   0.609
13118TIP3    H239296   1.539   7.468   0.511
13119TIP3   OH239297   0.156   0.222   3.674
13119TIP3    H139298   0.231   0.210   3.616
13119TIP3    H239299   0.182   0.181   3.757
13120TIP3   OH239300   3.113   1.341   1.708
13120TIP3    H139301   3.078   1.263   1.751
13120TIP3    H239302   3.057   1.354   1.632
13121TIP3   OH239303   3.250   3.765   1.233
13121TIP3    H139304   3.293   3.847   1.258
13121TIP3    H239305   3.248   3.714   1.314
13122TIP3   OH239306   7.193   5.418   2.310
13122TIP3    H139307   7.175   5.451   2.399
13122TIP3    H239308   7.124   5.456   2.256
13123TIP3   OH239309   0.176   7.764   2.220
13123TIP3    H139310   0.138   7.730   2.139
13123TIP3    H239311   0.137   7.850   2.231
13124TIP3   OH239312   7.465   0.331   6.290
13124TIP3    H139313   7.451   0.242   6.324
13124TIP3    H239314   7.510   0.377   6.361
13125TIP3   OH239315   7.580   1.070   6.199
13125TIP3    H139316   7.517   1.031   6.138
13125TIP3    H239317   7.587   1.007   6.270
13126TIP3   OH239318   1.276   0.124   0.085
13126TIP3    H139319   1.251   0.071   0.009
13126TIP3    H239320   1.204   0.186   0.096
13127TIP3   OH239321   1.557   3.816   6.179
13127TIP3    H139322   1.650   3.802   6.159
13127TIP3    H239323   1.554   3.826   6.274
13128TIP3   OH239324   6.001   2.068   2.422
13128TIP3    H139325   6.028   2.160   2.415
13128TIP3    H239326   5.963   2.048   2.337
13129TIP3   OH239327   0.543   0.254   0.355
13129TIP3    H139328   0.508   0.309   0.426
13129TIP3    H239329   0.493   0.280   0.278
13130TIP3   OH239330   7.607   1.302   1.933
13130TIP3    H139331   7.549   1.376   1.952
13130TIP3    H239332   7.642   1.278   2.018
13131TIP3   OH239333   3.207   5.006   3.817
13131TIP3    H139334   3.302   5.001   3.817
13131TIP3    H239335   3.185   5.050   3.899
13132TIP3   OH239336   5.712   2.810   1.799
13132TIP3    H139337   5.740   2.871   1.730
13132TIP3    H239338   5.626   2.844   1.826
13133TIP3   OH239339   3.086   2.381   3.439
13133TIP3    H139340   3.069   2.314   3.372
13133TIP3    H239341   3.002   2.390   3.485
13134TIP3   OH239342   1.379   6.778   2.541
13134TIP3    H139343   1.459   6.799   2.590
13134TIP3    H239344   1.335   6.711   2.594
13135TIP3   OH239345   7.140   2.677   5.477
13135TIP3    H139346   7.088   2.608   5.436
13135TIP3    H239347   7.222   2.677   5.428
13136TIP3   OH239348   6.580   0.970   3.224
13136TIP3    H139349   6.654   0.986   3.283
13136TIP3    H239350   6.573   0.874   3.220
13137TIP3   OH239351   2.839   1.981   1.141
13137TIP3    H139352   2.886   2.063   1.155
13137TIP3    H239353   2.862   1.956   1.051
13138TIP3   OH239354   6.287   1.293   6.813
13138TIP3    H139355   6.257   1.260   6.898
13138TIP3    H239356   6.311   1.214   6.764
13139TIP3   OH239357   5.405   1.536   4.281
13139TIP3    H139358   5.484   1.519   4.230
13139TIP3    H239359   5.334   1.536   4.215
13140TIP3   OH239360   4.272   7.507   3.171
13140TIP3    H139361   4.249   7.487   3.080
13140TIP3    H239362   4.337   7.441   3.194
13141TIP3   OH239363   1.154   6.579   1.355
13141TIP3    H139364   1.222   6.626   1.307
13141TIP3    H239365   1.191   6.493   1.371
13142TIP3   OH239366   5.401   4.999   5.771
13142TIP3    H139367   5.411   5.027   5.862
13142TIP3    H239368   5.438   4.910   5.769
13143TIP3   OH239369   5.039   7.061   6.149
13143TIP3    H139370   5.114   7.009   6.120
13143TIP3    H239371   4.971   6.996   6.165
13144TIP3   OH239372   3.351   5.418   5.393
13144TIP3    H139373   3.435   5.405   5.436
13144TIP3    H239374   3.290   5.438   5.464
13145TIP3   OH239375   7.453   4.392   6.663
13145TIP3    H139376   7.373   4.358   6.622
13145TIP3    H239377   7.440   4.377   6.757
13146TIP3   OH239378   2.879   0.332   4.468
13146TIP3    H139379   2.843   0.411   4.508
13146TIP3    H239380   2.804   0.272   4.463
13147TIP3   OH239381   4.168   1.142   0.457
13147TIP3    H139382   4.211   1.101   0.382
13147TIP3    H239383   4.192   1.234   0.451
13148TIP3   OH239384   5.625   3.656   4.000
13148TIP3    H139385   5.602   3.743   4.031
13148TIP3    H239386   5.567   3.597   4.048
13149TIP3   OH239387   3.943   3.485   3.146
13149TIP3    H139388   3.894   3.567   3.151
13149TIP3    H239389   3.961   3.461   3.236
13150TIP3   OH239390   5.205   1.009   2.741
13150TIP3    H139391   5.142   0.971   2.680
13150TIP3    H239392   5.160   1.083   2.780
13151TIP3   OH239393   7.707   2.000   6.691
13151TIP3    H139394   7.755   1.998   6.609
13151TIP3    H239395   7.615   2.011   6.666
13152TIP3   OH239396   0.521   7.816   0.817
13152TIP3    H139397   0.583   7.744   0.805
13152TIP3    H239398   0.435   7.777   0.797
13153TIP3   OH239399   7.444   5.163   3.821
13153TIP3    H139400   7.424   5.257   3.823
13153TIP3    H239401   7.532   5.156   3.857
13154TIP3   OH239402   0.874   3.779   6.433
13154TIP3    H139403   0.924   3.759   6.354
13154TIP3    H239404   0.835   3.864   6.417
13155TIP3   OH239405   3.458   2.489   5.887
13155TIP3    H139406   3.408   2.530   5.957
13155TIP3    H239407   3.478   2.402   5.920
13156TIP3   OH239408   1.161   6.262   5.178
13156TIP3    H139409   1.085   6.205   5.189
13156TIP3    H239410   1.209   6.255   5.260
13157TIP3   OH239411   2.460   7.069   3.534
13157TIP3    H139412   2.432   6.984   3.499
13157TIP3    H239413   2.388   7.128   3.511
13158TIP3   OH239414   6.370   1.451   4.105
13158TIP3    H139415   6.302   1.452   4.172
13158TIP3    H239416   6.452   1.438   4.153
13159TIP3   OH239417   7.462   4.776   0.377
13159TIP3    H139418   7.492   4.707   0.437
13159TIP3    H239419   7.436   4.728   0.298
13160TIP3   OH239420   6.330   5.435   3.079
13160TIP3    H139421   6.412   5.398   3.110
13160TIP3    H239422   6.344   5.449   2.986
13161TIP3   OH239423   6.595   1.000   6.524
13161TIP3    H139424   6.610   0.907   6.540
13161TIP3    H239425   6.681   1.033   6.495
13162TIP3   OH239426   5.652   5.893   6.752
13162TIP3    H139427   5.613   5.970   6.793
13162TIP3    H239428   5.646   5.910   6.658
13163TIP3   OH239429   0.245   6.139   6.347
13163TIP3    H139430   0.221   6.194   6.422
13163TIP3    H239431   0.340   6.149   6.338
13164TIP3   OH239432   1.545   3.144   3.583
13164TIP3    H139433   1.468   3.088   3.588
13164TIP3    H239434   1.585   3.123   3.498
13165TIP3   OH239435   1.275   2.144   1.243
13165TIP3    H139436   1.184   2.170   1.261
13165TIP3    H239437   1.322   2.163   1.324
13166TIP3   OH239438   0.035   5.570   4.036
13166TIP3    H139439   0.002   5.574   3.946
13166TIP3    H239440   0.101   5.501   4.035
13167TIP3   OH239441   4.847   6.459   6.755
13167TIP3    H139442   4.753   6.459   6.771
13167TIP3    H239443   4.873   6.367   6.766
13168TIP3   OH239444   2.321   2.360   4.791
13168TIP3    H139445   2.256   2.318   4.848
13168TIP3    H239446   2.363   2.288   4.745
13169TIP3   OH239447   2.424   0.560   0.289
13169TIP3    H139448   2.475   0.593   0.215
13169TIP3    H239449   2.337   0.598   0.277
13170TIP3   OH239450   6.940   1.623   0.924
13170TIP3    H139451   6.997   1.638   0.999
13170TIP3    H239452   6.881   1.698   0.923
13171TIP3   OH239453   5.586   0.627   2.880
13171TIP3    H139454   5.618   0.537   2.883
13171TIP3    H239455   5.505   0.622   2.830
13172TIP3   OH239456   5.881   7.409   6.408
13172TIP3    H139457   5.970   7.429   6.379
13172TIP3    H239458   5.849   7.344   6.346
13173TIP3   OH239459   4.787   7.599   5.328
13173TIP3    H139460   4.715   7.639   5.377
13173TIP3    H239461   4.747   7.526   5.282
13174TIP3   OH239462   1.669   5.516   1.384
13174TIP3    H139463   1.745   5.512   1.443
13174TIP3    H239464   1.594   5.524   1.444
13175TIP3   OH239465   0.682   4.611   4.564
13175TIP3    H139466   0.655   4.665   4.638
13175TIP3    H239467   0.774   4.589   4.582
13176TIP3   OH239468   5.075   0.633   0.354
13176TIP3    H139469   5.120   0.609   0.273
13176TIP3    H239470   4.992   0.670   0.325
13177TIP3   OH239471   3.291   0.571   5.806
13177TIP3    H139472   3.334   0.621   5.736
13177TIP3    H239473   3.206   0.614   5.817
13178TIP3   OH239474   2.028   6.541   6.503
13178TIP3    H139475   2.086   6.504   6.436
13178TIP3    H239476   1.957   6.582   6.453
13179TIP3   OH239477   5.102   6.244   0.294
13179TIP3    H139478   5.015   6.271   0.322
13179TIP3    H239479   5.148   6.221   0.375
13180TIP3   OH239480   5.059   1.030   5.365
13180TIP3    H139481   5.046   0.942   5.330
13180TIP3    H239482   4.993   1.039   5.433
13181TIP3   OH239483   5.412   0.258   5.935
13181TIP3    H139484   5.388   0.304   5.854
13181TIP3    H239485   5.360   0.300   6.003
13182TIP3   OH239486   7.736   1.979   6.031
13182TIP3    H139487   7.714   2.008   6.119
13182TIP3    H239488   7.827   2.007   6.018
13183TIP3   OH239489   1.228   3.093   3.170
13183TIP3    H139490   1.234   3.099   3.265
13183TIP3    H239491   1.319   3.085   3.141
13184TIP3   OH239492   3.872   7.127   4.320
13184TIP3    H139493   3.955   7.172   4.339
13184TIP3    H239494   3.816   7.194   4.281
13185TIP3   OH239495   5.742   5.199   0.971
13185TIP3    H139496   5.816   5.165   0.921
13185TIP3    H239497   5.748   5.152   1.055
13186TIP3   OH239498   1.998   1.823   4.737
13186TIP3    H139499   1.981   1.885   4.666
13186TIP3    H239500   2.013   1.739   4.692
13187TIP3   OH239501   4.572   7.866   0.687
13187TIP3    H139502   4.554   7.913   0.768
13187TIP3    H239503   4.513   7.790   0.690
13188TIP3   OH239504   1.823   7.251   2.215
13188TIP3    H139505   1.856   7.245   2.305
13188TIP3    H239506   1.736   7.288   2.224
13189TIP3   OH239507   2.727   5.814   3.694
13189TIP3    H139508   2.652   5.777   3.649
13189TIP3    H239509   2.718   5.908   3.684
13190TIP3   OH239510   7.985   6.226   5.305
13190TIP3    H139511   8.020   6.274   5.380
13190TIP3    H239512   7.958   6.141   5.340
13191TIP3   OH239513   3.249   5.232   0.143
13191TIP3    H139514   3.230   5.303   0.204
13191TIP3    H239515   3.262   5.155   0.199
13192TIP3   OH239516   0.024   2.488   6.099
13192TIP3    H139517   0.009   2.429   6.026
13192TIP3    H239518   0.020   2.576   6.061
13193TIP3   OH239519   8.274   4.637   3.345
13193TIP3    H139520   8.311   4.708   3.292
13193TIP3    H239521   8.230   4.682   3.417
13194TIP3   OH239522   4.613   4.048   3.664
13194TIP3    H139523   4.525   4.015   3.684
13194TIP3    H239524   4.642   3.994   3.590
13195TIP3   OH239525   3.234   5.411   6.143
13195TIP3    H139526   3.297   5.381   6.077
13195TIP3    H239527   3.208   5.498   6.113
13196TIP3   OH239528   2.178   5.429   1.115
13196TIP3    H139529   2.237   5.488   1.069
13196TIP3    H239530   2.117   5.399   1.047
13197TIP3   OH239531   8.276   2.452   4.243
13197TIP3    H139532   8.237   2.540   4.240
13197TIP3    H239533   8.222   2.400   4.184
13198TIP3   OH239534   7.046   4.495   0.461
13198TIP3    H139535   7.008   4.431   0.400
13198TIP3    H239536   6.995   4.575   0.446
13199TIP3   OH239537   6.582   6.658   2.254
13199TIP3    H139538   6.538   6.618   2.329
13199TIP3    H239539   6.520   6.725   2.223
13200TIP3   OH239540   4.377   5.459   5.703
13200TIP3    H139541   4.442   5.528   5.711
13200TIP3    H239542   4.330   5.479   5.621
13201TIP3   OH239543   0.623   1.886   4.965
13201TIP3    H139544   0.606   1.957   5.028
13201TIP3    H239545   0.595   1.922   4.881
13202TIP3   OH239546   0.624   3.786   3.179
13202TIP3    H139547   0.668   3.784   3.264
13202TIP3    H239548   0.695   3.783   3.115
13203TIP3   OH239549   0.977   2.708   4.506
13203TIP3    H139550   0.954   2.769   4.576
13203TIP3    H239551   1.032   2.642   4.547
13204TIP3   OH239552   3.285   7.573   6.096
13204TIP3    H139553   3.277   7.496   6.152
13204TIP3    H239554   3.367   7.559   6.048
13205TIP3   OH239555   2.094   0.594   0.291
13205TIP3    H139556   2.126   0.565   0.205
13205TIP3    H239557   2.028   0.660   0.271
13206TIP3   OH239558   3.339   6.344   6.492
13206TIP3    H139559   3.377   6.259   6.469
13206TIP3    H239560   3.413   6.396   6.521
13207TIP3   OH239561   4.990   0.130   5.847
13207TIP3    H139562   5.080   0.160   5.837
13207TIP3    H239563   4.940   0.183   5.785
13208TIP3   OH239564   8.200   3.526   5.690
13208TIP3    H139565   8.158   3.520   5.604
13208TIP3    H239566   8.142   3.479   5.749
13209TIP3   OH239567   6.513   2.316   2.674
13209TIP3    H139568   6.455   2.375   2.723
13209TIP3    H239569   6.591   2.309   2.729
13210TIP3   OH239570   5.631   4.671   5.675
13210TIP3    H139571   5.587   4.643   5.755
13210TIP3    H239572   5.673   4.754   5.699
13211TIP3   OH239573   5.354   6.890   5.818
13211TIP3    H139574   5.406   6.864   5.742
13211TIP3    H239575   5.274   6.927   5.781
13212TIP3   OH239576   3.585   5.512   3.260
13212TIP3    H139577   3.586   5.433   3.314
13212TIP3    H239578   3.576   5.583   3.323
13213TIP3   OH239579   3.856   6.649   6.169
13213TIP3    H139580   3.875   6.699   6.249
13213TIP3    H239581   3.817   6.568   6.200
13214TIP3   OH239582   2.725   7.524   5.412
13214TIP3    H139583   2.800   7.535   5.470
13214TIP3    H239584   2.763   7.502   5.327
13215TIP3   OH239585   8.319   3.084   6.820
13215TIP3    H139586   8.384   3.145   6.856
13215TIP3    H239587   8.249   3.140   6.788
13216TIP3   OH239588   4.993   0.540   6.812
13216TIP3    H139589   5.058   0.473   6.787
13216TIP3    H239590   5.045   0.616   6.836
13217TIP3   OH239591   6.348   5.803   0.094
13217TIP3    H139592   6.384   5.891   0.104
13217TIP3    H239593   6.329   5.796   0.000
13218TIP3   OH239594   0.569   7.600   3.629
13218TIP3    H139595   0.557   7.516   3.585
13218TIP3    H239596   0.529   7.664   3.571
13219TIP3   OH239597   1.649   3.699   5.859
13219TIP3    H139598   1.591   3.706   5.935
13219TIP3    H239599   1.712   3.630   5.884
13220TIP3   OH239600   6.792   2.782   3.792
13220TIP3    H139601   6.771   2.744   3.706
13220TIP3    H239602   6.862   2.845   3.774
13221TIP3   OH239603   6.927   0.547   6.354
13221TIP3    H139604   6.850   0.493   6.336
13221TIP3    H239605   6.924   0.617   6.288
13222TIP3   OH239606   7.478   6.699   2.355
13222TIP3    H139607   7.555   6.754   2.373
13222TIP3    H239608   7.420   6.756   2.305
13223TIP3   OH239609   6.249   3.013   1.302
13223TIP3    H139610   6.252   3.025   1.397
13223TIP3    H239611   6.323   3.064   1.269
13224TIP3   OH239612   3.553   0.585   5.357
13224TIP3    H139613   3.615   0.550   5.293
13224TIP3    H239614   3.514   0.661   5.313
13225TIP3   OH239615   3.121   4.203   5.908
13225TIP3    H139616   3.075   4.245   5.980
13225TIP3    H239617   3.214   4.219   5.927
13226TIP3   OH239618   7.944   4.068   6.186
13226TIP3    H139619   8.003   4.141   6.168
13226TIP3    H239620   7.876   4.076   6.120
13227TIP3   OH239621   7.138   5.839   4.113
13227TIP3    H139622   7.216   5.882   4.077
13227TIP3    H239623   7.093   5.803   4.037
13228TIP3   OH239624   2.568   6.975   2.337
13228TIP3    H139625   2.564   6.915   2.411
13228TIP3    H239626   2.538   6.923   2.262
13229TIP3   OH239627   5.251   5.868   6.067
13229TIP3    H139628   5.209   5.872   6.154
13229TIP3    H239629   5.208   5.794   6.024
13230TIP3   OH239630   3.024   4.143   5.257
13230TIP3    H139631   3.073   4.148   5.175
13230TIP3    H239632   3.011   4.234   5.283
13231TIP3   OH239633   8.181   2.913   3.194
13231TIP3    H139634   8.214   2.930   3.282
13231TIP3    H239635   8.259   2.900   3.141
13232TIP3   OH239636   5.457   5.856   3.408
13232TIP3    H139637   5.443   5.903   3.490
13232TIP3    H239638   5.550   5.864   3.390
13233TIP3   OH239639   2.697   4.154   4.323
13233TIP3    H139640   2.675   4.153   4.229
13233TIP3    H239641   2.616   4.177   4.367
13234TIP3   OH239642   4.000   3.621   4.177
13234TIP3    H139643   4.070   3.556   4.184
13234TIP3    H239644   3.963   3.625   4.265
13235TIP3   OH239645   3.457   7.497   4.393
13235TIP3    H139646   3.399   7.504   4.469
13235TIP3    H239647   3.398   7.507   4.318
13236TIP3   OH239648   0.932   4.534   4.618
13236TIP3    H139649   0.899   4.454   4.578
13236TIP3    H239650   0.961   4.508   4.705
13237TIP3   OH239651   1.826   0.435   6.772
13237TIP3    H139652   1.754   0.439   6.709
13237TIP3    H239653   1.859   0.524   6.777
13238TIP3   OH239654   1.147   2.589   4.721
13238TIP3    H139655   1.237   2.607   4.748
13238TIP3    H239656   1.094   2.622   4.794
13239TIP3   OH239657   8.312   2.614   3.097
13239TIP3    H139658   8.308   2.529   3.053
13239TIP3    H239659   8.394   2.613   3.146
13240TIP3   OH239660   6.389   2.633   3.454
13240TIP3    H139661   6.399   2.570   3.525
13240TIP3    H239662   6.332   2.588   3.391
13241TIP3   OH239663   0.555   0.506   4.286
13241TIP3    H139664   0.555   0.431   4.346
13241TIP3    H239665   0.553   0.466   4.198
13242TIP3   OH239666   1.927   1.218   1.572
13242TIP3    H139667   1.967   1.300   1.600
13242TIP3    H239668   1.896   1.236   1.483
13243TIP3   OH239669   4.469   4.339   0.680
13243TIP3    H139670   4.494   4.349   0.588
13243TIP3    H239671   4.550   4.309   0.723
13244TIP3   OH239672   4.227   4.445   0.672
13244TIP3    H139673   4.311   4.400   0.686
13244TIP3    H239674   4.167   4.403   0.733
13245TIP3   OH239675   0.840   6.682   3.593
13245TIP3    H139676   0.884   6.669   3.509
13245TIP3    H239677   0.760   6.730   3.571
13246TIP3   OH239678   5.643   0.209   5.665
13246TIP3    H139679   5.563   0.261   5.659
13246TIP3    H239680   5.639   0.169   5.752
13247TIP3   OH239681   5.087   5.881   6.804
13247TIP3    H139682   5.113   5.822   6.733
13247TIP3    H239683   5.113   5.836   6.884
13248TIP3   OH239684   3.181   1.455   0.519
13248TIP3    H139685   3.111   1.413   0.569
13248TIP3    H239686   3.168   1.424   0.429
13249TIP3   OH239687   5.921   3.547   0.905
13249TIP3    H139688   5.907   3.626   0.854
13249TIP3    H239689   5.879   3.478   0.854
13250TIP3   OH239690   8.297   0.357   2.290
13250TIP3    H139691   8.283   0.410   2.212
13250TIP3    H239692   8.286   0.267   2.260
13251TIP3   OH239693   1.072   2.810   0.842
13251TIP3    H139694   1.109   2.731   0.804
13251TIP3    H239695   1.068   2.794   0.936
13252TIP3   OH239696   7.122   1.948   1.594
13252TIP3    H139697   7.108   1.883   1.526
13252TIP3    H239698   7.076   2.026   1.563
13253TIP3   OH239699   4.354   6.091   3.257
13253TIP3    H139700   4.306   6.157   3.307
13253TIP3    H239701   4.343   6.118   3.166
13254TIP3   OH239702   2.170   6.127   0.721
13254TIP3    H139703   2.215   6.211   0.729
13254TIP3    H239704   2.108   6.139   0.649
13255TIP3   OH239705   4.516   2.100   4.385
13255TIP3    H139706   4.423   2.108   4.405
13255TIP3    H239707   4.520   2.102   4.289
13256TIP3   OH239708   5.246   7.487   5.043
13256TIP3    H139709   5.199   7.563   5.078
13256TIP3    H239710   5.258   7.430   5.119
13257TIP3   OH239711   6.374   1.921   3.758
13257TIP3    H139712   6.470   1.918   3.751
13257TIP3    H239713   6.353   2.014   3.750
13258TIP3   OH239714   5.010   5.926   5.451
13258TIP3    H139715   4.970   5.974   5.523
13258TIP3    H239716   4.977   5.969   5.372
13259TIP3   OH239717   3.915   0.009   1.932
13259TIP3    H139718   4.000  -0.027   1.907
13259TIP3    H239719   3.932   0.099   1.957
13260TIP3   OH239720   2.922   6.134   2.178
13260TIP3    H139721   3.005   6.128   2.132
13260TIP3    H239722   2.938   6.197   2.248
13261TIP3   OH239723   4.278   0.170   2.063
13261TIP3    H139724   4.349   0.118   2.100
13261TIP3    H239725   4.286   0.157   1.968
13262TIP3   OH239726   5.600   7.068   5.246
13262TIP3    H139727   5.507   7.061   5.268
13262TIP3    H239728   5.632   7.141   5.298
13263TIP3   OH239729   4.678   4.326   2.653
13263TIP3    H139730   4.738   4.304   2.581
13263TIP3    H239731   4.731   4.314   2.732
13264TIP3   OH239732   7.678   6.114   3.195
13264TIP3    H139733   7.664   6.022   3.173
13264TIP3    H239734   7.599   6.139   3.244
13265TIP3   OH239735   6.316   0.296   0.999
13265TIP3    H139736   6.248   0.241   1.038
13265TIP3    H239737   6.366   0.237   0.942
13266TIP3   OH239738   2.683   1.954   0.180
13266TIP3    H139739   2.631   2.021   0.135
13266TIP3    H239740   2.729   1.907   0.110
13267TIP3   OH239741   3.225   3.743   6.738
13267TIP3    H139742   3.178   3.811   6.689
13267TIP3    H239743   3.248   3.678   6.672
13268TIP3   OH239744   1.253   4.890   1.179
13268TIP3    H139745   1.192   4.929   1.241
13268TIP3    H239746   1.225   4.923   1.094
13269TIP3   OH239747   6.986   0.800   4.829
13269TIP3    H139748   6.963   0.884   4.868
13269TIP3    H239749   6.960   0.809   4.737
13270TIP3   OH239750   4.562   0.129   2.933
13270TIP3    H139751   4.635   0.068   2.922
13270TIP3    H239752   4.576   0.169   3.019
13271TIP3   OH239753   5.683   6.458   3.535
13271TIP3    H139754   5.731   6.404   3.599
13271TIP3    H239755   5.703   6.418   3.450
13272TIP3   OH239756   6.177   7.628   1.610
13272TIP3    H139757   6.101   7.571   1.594
13272TIP3    H239758   6.222   7.632   1.526
13273TIP3   OH239759   4.788   6.095   0.132
13273TIP3    H139760   4.779   6.175   0.184
13273TIP3    H239761   4.812   6.028   0.196
13274TIP3   OH239762   5.803   2.812   4.713
13274TIP3    H139763   5.886   2.765   4.719
13274TIP3    H239764   5.740   2.757   4.759
13275TIP3   OH239765   0.326   0.971   4.937
13275TIP3    H139766   0.416   0.966   4.967
13275TIP3    H239767   0.315   1.061   4.907
13276TIP3   OH239768   5.089   7.627   2.975
13276TIP3    H139769   4.997   7.602   2.967
13276TIP3    H239770   5.138   7.545   2.971
13277TIP3   OH239771   3.912   3.743   6.775
13277TIP3    H139772   3.841   3.760   6.836
13277TIP3    H239773   3.944   3.830   6.751
13278TIP3   OH239774   3.234   0.650   0.691
13278TIP3    H139775   3.180   0.576   0.716
13278TIP3    H239776   3.175   0.725   0.694
13279TIP3   OH239777   2.525   1.018   5.410
13279TIP3    H139778   2.446   1.044   5.457
13279TIP3    H239779   2.500   0.936   5.366
13280TIP3   OH239780   3.547   6.373   1.105
13280TIP3    H139781   3.491   6.329   1.041
13280TIP3    H239782   3.559   6.461   1.070
13281TIP3   OH239783   3.714   4.983   3.354
13281TIP3    H139784   3.675   4.898   3.372
13281TIP3    H239785   3.708   4.993   3.259
13282TIP3   OH239786   7.287   3.502   4.024
13282TIP3    H139787   7.220   3.568   4.007
13282TIP3    H239788   7.244   3.418   4.004
13283TIP3   OH239789   0.807   5.626   0.687
13283TIP3    H139790   0.862   5.548   0.689
13283TIP3    H239791   0.855   5.690   0.739
13284TIP3   OH239792   6.812   6.610   2.741
13284TIP3    H139793   6.795   6.686   2.797
13284TIP3    H239794   6.873   6.557   2.791
13285TIP3   OH239795   2.454   1.563   0.024
13285TIP3    H139796   2.362   1.537   0.018
13285TIP3    H239797   2.489   1.550  -0.064
13286TIP3   OH239798   4.181   3.977   5.032
13286TIP3    H139799   4.275   3.988   5.048
13286TIP3    H239800   4.150   3.925   5.106
13287TIP3   OH239801   3.923   3.288   0.790
13287TIP3    H139802   3.834   3.253   0.784
13287TIP3    H239803   3.912   3.383   0.793
13288TIP3   OH239804   0.885   3.428   4.900
13288TIP3    H139805   0.820   3.489   4.867
13288TIP3    H239806   0.856   3.342   4.869
13289TIP3   OH239807   4.532   5.021   4.197
13289TIP3    H139808   4.609   4.965   4.191
13289TIP3    H239809   4.515   5.048   4.106
13290TIP3   OH239810   0.219   0.710   2.435
13290TIP3    H139811   0.165   0.631   2.447
13290TIP3    H239812   0.309   0.679   2.442
13291TIP3   OH239813   3.827   2.085   4.537
13291TIP3    H139814   3.812   2.151   4.605
13291TIP3    H239815   3.739   2.056   4.513
13292TIP3   OH239816   2.058   4.217   3.820
13292TIP3    H139817   2.113   4.265   3.758
13292TIP3    H239818   2.036   4.282   3.887
13293TIP3   OH239819   4.713   5.377   5.050
13293TIP3    H139820   4.654   5.450   5.070
13293TIP3    H239821   4.708   5.320   5.126
13294TIP3   OH239822   0.646   6.920   3.200
13294TIP3    H139823   0.727   6.929   3.250
13294TIP3    H239824   0.653   6.987   3.132
13295TIP3   OH239825   4.859   4.745   5.661
13295TIP3    H139826   4.927   4.811   5.647
13295TIP3    H239827   4.899   4.663   5.630
13296TIP3   OH239828   1.015   0.582   0.885
13296TIP3    H139829   1.071   0.635   0.942
13296TIP3    H239830   0.945   0.552   0.943
13297TIP3   OH239831   2.467   4.437   1.570
13297TIP3    H139832   2.432   4.486   1.495
13297TIP3    H239833   2.455   4.345   1.546
13298TIP3   OH239834   6.166   2.228   4.778
13298TIP3    H139835   6.142   2.285   4.705
13298TIP3    H239836   6.114   2.149   4.765
13299TIP3   OH239837   6.685   4.482   4.432
13299TIP3    H139838   6.685   4.535   4.352
13299TIP3    H239839   6.611   4.515   4.482
13300TIP3   OH239840   0.374   4.174   2.059
13300TIP3    H139841   0.290   4.215   2.080
13300TIP3    H239842   0.436   4.214   2.121
13301TIP3   OH239843   3.167   4.605   1.134
13301TIP3    H139844   3.094   4.665   1.118
13301TIP3    H239845   3.131   4.539   1.193
13302TIP3   OH239846   0.473   0.321   3.814
13302TIP3    H139847   0.512   0.373   3.885
13302TIP3    H239848   0.430   0.248   3.859
13303TIP3   OH239849   3.934   7.628   4.722
13303TIP3    H139850   3.869   7.558   4.718
13303TIP3    H239851   3.886   7.707   4.697
13304TIP3   OH239852   4.315   7.274   0.296
13304TIP3    H139853   4.258   7.291   0.371
13304TIP3    H239854   4.270   7.314   0.222
13305TIP3   OH239855   4.652   4.433   5.558
13305TIP3    H139856   4.612   4.515   5.587
13305TIP3    H239857   4.671   4.385   5.639
13306TIP3   OH239858   3.173   1.840   5.608
13306TIP3    H139859   3.080   1.841   5.630
13306TIP3    H239860   3.176   1.857   5.514
13307TIP3   OH239861   2.921   4.800   4.617
13307TIP3    H139862   2.904   4.892   4.594
13307TIP3    H239863   3.002   4.780   4.571
13308TIP3   OH239864   5.516   7.055   6.582
13308TIP3    H139865   5.484   7.098   6.661
13308TIP3    H239866   5.440   7.009   6.547
13309TIP3   OH239867   7.944   3.962   5.715
13309TIP3    H139868   7.960   4.051   5.748
13309TIP3    H239869   7.863   3.969   5.665
13310TIP3   OH239870   7.696   0.978   4.189
13310TIP3    H139871   7.651   1.037   4.250
13310TIP3    H239872   7.627   0.922   4.154
13311TIP3   OH239873   4.015   4.816   2.146
13311TIP3    H139874   3.966   4.744   2.106
13311TIP3    H239875   4.091   4.773   2.187
13312TIP3   OH239876   0.672   3.066   5.202
13312TIP3    H139877   0.594   3.105   5.164
13312TIP3    H239878   0.651   3.053   5.294
13313TIP3   OH239879   7.165   2.135   3.038
13313TIP3    H139880   7.146   2.049   3.076
13313TIP3    H239881   7.150   2.197   3.110
13314TIP3   OH239882   3.933   6.443   4.863
13314TIP3    H139883   4.001   6.449   4.796
13314TIP3    H239884   3.981   6.439   4.946
13315TIP3   OH239885   6.683   6.460   3.865
13315TIP3    H139886   6.652   6.514   3.938
13315TIP3    H239887   6.664   6.370   3.892
13316TIP3   OH239888   0.986   7.876   5.001
13316TIP3    H139889   1.080   7.889   4.994
13316TIP3    H239890   0.954   7.957   5.040
13317TIP3   OH239891   1.039   2.017   6.492
13317TIP3    H139892   0.998   2.085   6.439
13317TIP3    H239893   0.970   1.951   6.503
13318TIP3   OH239894   6.475   4.087   6.782
13318TIP3    H139895   6.437   4.004   6.810
13318TIP3    H239896   6.410   4.125   6.723
13319TIP3   OH239897   2.695   3.147   5.761
13319TIP3    H139898   2.781   3.182   5.736
13319TIP3    H239899   2.695   3.058   5.726
13320TIP3   OH239900   5.138   2.846   2.788
13320TIP3    H139901   5.152   2.755   2.762
13320TIP3    H239902   5.216   2.870   2.837
13321TIP3   OH239903   7.971   7.264   5.202
13321TIP3    H139904   8.016   7.339   5.163
13321TIP3    H239905   7.908   7.237   5.135
13322TIP3   OH239906   2.085   2.634   0.999
13322TIP3    H139907   2.175   2.629   0.966
13322TIP3    H239908   2.078   2.561   1.060
13323TIP3   OH239909   1.466   2.200   2.080
13323TIP3    H139910   1.440   2.264   2.145
13323TIP3    H239911   1.442   2.240   1.996
13324TIP3   OH239912   5.144   3.046   1.627
13324TIP3    H139913   5.119   2.996   1.705
13324TIP3    H239914   5.240   3.044   1.627
13325TIP3   OH239915   3.087   3.896   0.902
13325TIP3    H139916   3.168   3.847   0.913
13325TIP3    H239917   3.049   3.861   0.821
13326TIP3   OH239918   4.734   7.210   5.779
13326TIP3    H139919   4.740   7.115   5.773
13326TIP3    H239920   4.786   7.243   5.706
13327TIP3   OH239921   3.257   6.299   5.534
13327TIP3    H139922   3.197   6.338   5.598
13327TIP3    H239923   3.279   6.371   5.475
13328TIP3   OH239924   7.921   7.729   5.572
13328TIP3    H139925   8.007   7.698   5.600
13328TIP3    H239926   7.888   7.779   5.647
13329TIP3   OH239927   1.076   7.527   5.622
13329TIP3    H139928   1.122   7.590   5.566
13329TIP3    H239929   1.109   7.546   5.710
13330TIP3   OH239930   1.638   7.295   4.154
13330TIP3    H139931   1.612   7.364   4.092
13330TIP3    H239932   1.587   7.313   4.233
13331TIP3   OH239933   7.639   4.907   1.696
13331TIP3    H139934   7.697   4.908   1.772
13331TIP3    H239935   7.684   4.961   1.631
13332TIP3   OH239936   0.314   4.525   0.551
13332TIP3    H139937   0.234   4.507   0.501
13332TIP3    H239938   0.381   4.539   0.484
13333TIP3   OH239939   4.297   0.944   3.861
13333TIP3    H139940   4.206   0.938   3.887
13333TIP3    H239941   4.344   0.966   3.941
13334TIP3   OH239942   2.060   6.532   0.919
13334TIP3    H139943   2.001   6.582   0.975
13334TIP3    H239944   2.094   6.597   0.857
13335TIP3   OH239945   8.339   6.562   0.867
13335TIP3    H139946   8.411   6.593   0.813
13335TIP3    H239947   8.373   6.564   0.956
13336TIP3   OH239948   1.301   0.176   5.790
13336TIP3    H139949   1.361   0.173   5.864
13336TIP3    H239950   1.224   0.128   5.819
13337TIP3   OH239951   5.065   1.313   1.833
13337TIP3    H139952   5.024   1.303   1.747
13337TIP3    H239953   5.152   1.273   1.822
13338TIP3   OH239954   5.410   0.621   5.647
13338TIP3    H139955   5.483   0.661   5.695
13338TIP3    H239956   5.388   0.684   5.579
13339TIP3   OH239957   8.079   3.141   5.932
13339TIP3    H139958   8.024   3.101   5.999
13339TIP3    H239959   8.033   3.124   5.850
13340TIP3   OH239960   7.169   0.878   6.376
13340TIP3    H139961   7.217   0.806   6.335
13340TIP3    H239962   7.078   0.865   6.348
13341TIP3   OH239963   7.735   2.129   4.043
13341TIP3    H139964   7.661   2.170   4.089
13341TIP3    H239965   7.733   2.169   3.956
13342TIP3   OH239966   7.570   3.020   2.686
13342TIP3    H139967   7.620   2.968   2.748
13342TIP3    H239968   7.493   3.048   2.735
13343TIP3   OH239969   7.575   7.325   1.775
13343TIP3    H139970   7.630   7.250   1.795
13343TIP3    H239971   7.503   7.319   1.837
13344TIP3   OH239972   4.499   2.105   4.094
13344TIP3    H139973   4.409   2.129   4.071
13344TIP3    H239974   4.553   2.171   4.051
13345TIP3   OH239975   3.243   7.539   1.676
13345TIP3    H139976   3.303   7.545   1.750
13345TIP3    H239977   3.268   7.612   1.618
13346TIP3   OH239978   6.208   3.371   3.135
13346TIP3    H139979   6.300   3.350   3.151
13346TIP3    H239980   6.197   3.459   3.172
13347TIP3   OH239981   7.898   7.603   5.225
13347TIP3    H139982   7.838   7.570   5.158
13347TIP3    H239983   7.985   7.575   5.196
13348TIP3   OH239984   0.412   7.378   2.904
13348TIP3    H139985   0.414   7.290   2.867
13348TIP3    H239986   0.500   7.392   2.938
13349TIP3   OH239987   7.736   7.083   4.123
13349TIP3    H139988   7.698   7.123   4.202
13349TIP3    H239989   7.760   6.994   4.151
13350TIP3   OH239990   7.841   5.102   6.349
13350TIP3    H139991   7.773   5.044   6.314
13350TIP3    H239992   7.914   5.092   6.288
13351TIP3   OH239993   1.460   6.536   6.710
13351TIP3    H139994   1.495   6.454   6.744
13351TIP3    H239995   1.513   6.604   6.752
13352TIP3   OH239996   1.781   6.071   0.549
13352TIP3    H139997   1.758   6.058   0.457
13352TIP3    H239998   1.876   6.054   0.552
13353TIP3   OH239999   7.228   1.772   4.084
13353TIP3    H140000   7.251   1.684   4.053
13353TIP3    H240001   7.243   1.769   4.179
13354TIP3   OH240002   4.620   2.979   5.454
13354TIP3    H140003   4.710   3.004   5.473
13354TIP3    H240004   4.567   3.030   5.516
13355TIP3   OH240005   2.514   0.647   4.997
13355TIP3    H140006   2.583   0.709   5.019
13355TIP3    H240007   2.496   0.661   4.904
13356TIP3   OH240008   7.160   5.958   1.102
13356TIP3    H140009   7.252   5.940   1.121
13356TIP3    H240010   7.129   5.880   1.056
13357TIP3   OH240011   0.380   0.293   6.830
13357TIP3    H140012   0.437   0.220   6.854
13357TIP3    H240013   0.398   0.308   6.737
13358TIP3   OH240014   0.268   1.644   0.565
13358TIP3    H140015   0.255   1.675   0.654
13358TIP3    H240016   0.350   1.595   0.568
13359TIP3   OH240017   5.991   7.907   6.133
13359TIP3    H140018   5.969   7.954   6.214
13359TIP3    H240019   5.975   7.971   6.063
13360TIP3   OH240020   0.106   5.614   3.718
13360TIP3    H140021   0.111   5.709   3.708
13360TIP3    H240022   0.184   5.581   3.673
13361TIP3   OH240023   5.526   2.408   6.034
13361TIP3    H140024   5.458   2.429   6.098
13361TIP3    H240025   5.602   2.384   6.087
13362TIP3   OH240026   4.567   3.073   6.706
13362TIP3    H140027   4.516   2.996   6.731
13362TIP3    H240028   4.647   3.038   6.667
13363TIP3   OH240029   1.114   0.240   5.375
13363TIP3    H140030   1.098   0.319   5.323
13363TIP3    H240031   1.153   0.178   5.314
13364TIP3   OH240032   6.333   0.905   1.780
13364TIP3    H140033   6.356   0.894   1.688
13364TIP3    H240034   6.403   0.960   1.815
13365TIP3   OH240035   7.951   4.701   0.710
13365TIP3    H140036   8.045   4.707   0.731
13365TIP3    H240037   7.949   4.690   0.615
13366TIP3   OH240038   4.777   5.784   2.492
13366TIP3    H140039   4.780   5.692   2.468
13366TIP3    H240040   4.826   5.828   2.423
13367TIP3   OH240041   1.863   3.651   4.593
13367TIP3    H140042   1.933   3.664   4.657
13367TIP3    H240043   1.906   3.664   4.508
13368TIP3   OH240044   1.929   5.636   5.182
13368TIP3    H140045   1.857   5.687   5.147
13368TIP3    H240046   1.995   5.635   5.113
13369TIP3   OH240047   2.089   0.343   1.402
13369TIP3    H140048   2.069   0.293   1.481
13369TIP3    H240049   2.149   0.287   1.352
13370TIP3   OH240050   7.705   2.735   1.970
13370TIP3    H140051   7.627   2.790   1.965
13370TIP3    H240052   7.770   2.788   2.015
13371TIP3   OH240053   0.235   1.142   6.792
13371TIP3    H140054   0.290   1.158   6.869
13371TIP3    H240055   0.196   1.056   6.808
13372TIP3   OH240056   1.085   3.718   1.072
13372TIP3    H140057   1.017   3.735   1.137
13372TIP3    H240058   1.053   3.641   1.024
13373TIP3   OH240059   5.537   4.849   2.984
13373TIP3    H140060   5.621   4.886   3.011
13373TIP3    H240061   5.530   4.767   3.034
13374TIP3   OH240062   2.924   0.746   5.484
13374TIP3    H140063   2.948   0.653   5.484
13374TIP3    H240064   2.876   0.759   5.403
13375TIP3   OH240065   4.588   3.622   3.309
13375TIP3    H140066   4.642   3.648   3.235
13375TIP3    H240067   4.499   3.644   3.282
13376TIP3   OH240068   3.448   0.068   4.683
13376TIP3    H140069   3.482  -0.019   4.703
13376TIP3    H240070   3.357   0.054   4.659
13377TIP3   OH240071   2.340   4.792   3.877
13377TIP3    H140072   2.338   4.884   3.905
13377TIP3    H240073   2.426   4.781   3.837
13378TIP3   OH240074   0.987   0.764   4.200
13378TIP3    H140075   0.932   0.836   4.231
13378TIP3    H240076   1.025   0.727   4.279
13379TIP3   OH240077   7.792   7.401   3.089
13379TIP3    H140078   7.713   7.443   3.122
13379TIP3    H240079   7.827   7.354   3.165
13380TIP3   OH240080   4.810   6.062   5.581
13380TIP3    H140081   4.834   6.084   5.671
13380TIP3    H240082   4.721   6.026   5.588
13381TIP3   OH240083   1.672   5.433   2.181
13381TIP3    H140084   1.681   5.512   2.234
13381TIP3    H240085   1.586   5.441   2.140
13382TIP3   OH240086   7.424   3.823   2.068
13382TIP3    H140087   7.403   3.894   2.008
13382TIP3    H240088   7.437   3.866   2.152
13383TIP3   OH240089   5.183   3.469   5.841
13383TIP3    H140090   5.196   3.508   5.754
13383TIP3    H240091   5.167   3.544   5.898
13384TIP3   OH240092   4.186   4.955   5.856
13384TIP3    H140093   4.240   5.013   5.910
13384TIP3    H240094   4.126   5.014   5.810
13385TIP3   OH240095   8.118   0.087   0.769
13385TIP3    H140096   8.136   0.103   0.676
13385TIP3    H240097   8.152   0.165   0.813
13386TIP3   OH240098   7.285   2.791   2.685
13386TIP3    H140099   7.259   2.813   2.595
13386TIP3    H240100   7.378   2.768   2.677
13387TIP3   OH240101   7.097   2.123   1.237
13387TIP3    H140102   7.115   2.182   1.310
13387TIP3    H240103   7.011   2.085   1.256
13388TIP3   OH240104   0.144   2.972   3.918
13388TIP3    H140105   0.111   3.055   3.951
13388TIP3    H240106   0.107   2.906   3.978
13389TIP3   OH240107   5.295   0.498   2.377
13389TIP3    H140108   5.375   0.549   2.375
13389TIP3    H240109   5.240   0.536   2.308
13390TIP3   OH240110   7.958   2.181   5.766
13390TIP3    H140111   8.041   2.188   5.719
13390TIP3    H240112   7.891   2.182   5.697
13391TIP3   OH240113   5.554   2.332   3.505
13391TIP3    H140114   5.533   2.241   3.526
13391TIP3    H240115   5.483   2.382   3.546
13392TIP3   OH240116   4.253   3.802   6.310
13392TIP3    H140117   4.244   3.709   6.288
13392TIP3    H240118   4.164   3.830   6.331
13393TIP3   OH240119   1.032   6.514   4.479
13393TIP3    H140120   0.970   6.571   4.526
13393TIP3    H240121   1.059   6.450   4.545
13394TIP3   OH240122   7.018   1.121   1.396
13394TIP3    H140123   6.958   1.165   1.457
13394TIP3    H240124   7.000   1.028   1.406
13395TIP3   OH240125   2.940   4.555   3.981
13395TIP3    H140126   2.854   4.590   4.005
13395TIP3    H240127   3.000   4.629   3.991
13396TIP3   OH240128   0.650   1.104   3.130
13396TIP3    H140129   0.687   1.139   3.212
13396TIP3    H240130   0.558   1.129   3.133
13397TIP3   OH240131   2.406   2.386   2.682
13397TIP3    H140132   2.398   2.334   2.762
13397TIP3    H240133   2.321   2.428   2.671
13398TIP3   OH240134   0.387   2.923   1.136
13398TIP3    H140135   0.315   2.977   1.103
13398TIP3    H240136   0.416   2.968   1.216
13399TIP3   OH240137   7.863   3.510   2.349
13399TIP3    H140138   7.782   3.492   2.303
13399TIP3    H240139   7.836   3.553   2.431
13400TIP3   OH240140   5.691   7.411   4.052
13400TIP3    H140141   5.749   7.356   4.104
13400TIP3    H240142   5.622   7.438   4.113
13401TIP3   OH240143   2.771   4.443   3.510
13401TIP3    H140144   2.819   4.400   3.580
13401TIP3    H240145   2.769   4.378   3.439
13402TIP3   OH240146   2.112   1.802   5.408
13402TIP3    H140147   2.139   1.779   5.497
13402TIP3    H240148   2.118   1.898   5.406
13403TIP3   OH240149   4.958   4.700   4.182
13403TIP3    H140150   5.015   4.719   4.108
13403TIP3    H240151   4.888   4.765   4.176
13404TIP3   OH240152   3.866   3.594   1.496
13404TIP3    H140153   3.864   3.645   1.415
13404TIP3    H240154   3.782   3.548   1.496
13405TIP3   OH240155   7.438   2.309   1.341
13405TIP3    H140156   7.490   2.374   1.389
13405TIP3    H240157   7.473   2.312   1.251
13406TIP3   OH240158   2.626   3.901   6.813
13406TIP3    H140159   2.698   3.936   6.760
13406TIP3    H240160   2.563   3.868   6.749
13407TIP3   OH240161   0.445   6.759   6.262
13407TIP3    H140162   0.517   6.698   6.245
13407TIP3    H240163   0.463   6.835   6.206
13408TIP3   OH240164   8.403   6.336   4.186
13408TIP3    H140165   8.494   6.349   4.162
13408TIP3    H240166   8.363   6.296   4.108
13409TIP3   OH240167   0.362   2.660   6.764
13409TIP3    H140168   0.430   2.728   6.756
13409TIP3    H240169   0.298   2.698   6.825
13410TIP3   OH240170   0.828   5.344   4.195
13410TIP3    H140171   0.791   5.359   4.281
13410TIP3    H240172   0.915   5.385   4.198
13411TIP3   OH240173   0.103   0.822   4.000
13411TIP3    H140174   0.130   0.801   3.911
13411TIP3    H240175   0.183   0.855   4.042
13412TIP3   OH240176   4.069   6.500   3.191
13412TIP3    H140177   4.007   6.447   3.141
13412TIP3    H240178   4.123   6.436   3.238
13413TIP3   OH240179   3.714   2.583   6.005
13413TIP3    H140180   3.647   2.555   5.942
13413TIP3    H240181   3.694   2.532   6.084
13414TIP3   OH240182   4.025   6.829   1.596
13414TIP3    H140183   4.039   6.922   1.578
13414TIP3    H240184   4.067   6.815   1.681
13415TIP3   OH240185   6.136   1.623   1.955
13415TIP3    H140186   6.069   1.555   1.945
13415TIP3    H240187   6.139   1.667   1.870
13416TIP3   OH240188   1.982   0.571   2.221
13416TIP3    H140189   2.075   0.548   2.224
13416TIP3    H240190   1.965   0.611   2.306
13417TIP3   OH240191   6.893   1.863   3.488
13417TIP3    H140192   6.805   1.893   3.509
13417TIP3    H240193   6.946   1.891   3.562
13418TIP3   OH240194   5.137   7.243   0.470
13418TIP3    H140195   5.060   7.284   0.430
13418TIP3    H240196   5.153   7.296   0.549
13419TIP3   OH240197   4.973   0.886   2.485
13419TIP3    H140198   4.924   0.880   2.567
13419TIP3    H240199   4.920   0.944   2.430
13420TIP3   OH240200   5.314   2.720   0.525
13420TIP3    H140201   5.306   2.767   0.442
13420TIP3    H240202   5.287   2.784   0.591
13421TIP3   OH240203   4.999   1.979   2.843
13421TIP3    H140204   4.940   2.049   2.869
13421TIP3    H240205   4.943   1.901   2.839
13422TIP3   OH240206   4.965   0.797   3.929
13422TIP3    H140207   4.955   0.770   4.021
13422TIP3    H240208   5.000   0.886   3.934
13423TIP3   OH240209   3.771   4.820   5.711
13423TIP3    H140210   3.860   4.786   5.709
13423TIP3    H240211   3.736   4.790   5.796
13424TIP3   OH240212   3.999   5.552   5.042
13424TIP3    H140213   4.064   5.509   4.985
13424TIP3    H240214   3.915   5.515   5.014
13425TIP3   OH240215   3.788   4.605   3.123
13425TIP3    H140216   3.832   4.521   3.106
13425TIP3    H240217   3.841   4.670   3.077
13426TIP3   OH240218   6.773   4.725   5.424
13426TIP3    H140219   6.785   4.708   5.518
13426TIP3    H240220   6.849   4.777   5.399
13427TIP3   OH240221   5.922   0.917   4.804
13427TIP3    H140222   5.999   0.937   4.750
13427TIP3    H240223   5.851   0.905   4.741
13428TIP3   OH240224   8.114   6.198   0.338
13428TIP3    H140225   8.165   6.272   0.370
13428TIP3    H240226   8.176   6.145   0.288
13429TIP3   OH240227   6.593   4.127   2.698
13429TIP3    H140228   6.582   4.057   2.634
13429TIP3    H240229   6.549   4.095   2.777
13430TIP3   OH240230   4.540   3.244   1.796
13430TIP3    H140231   4.571   3.162   1.758
13430TIP3    H240232   4.562   3.311   1.731
13431TIP3   OH240233   6.472   4.994   2.374
13431TIP3    H140234   6.477   4.902   2.348
13431TIP3    H240235   6.558   5.013   2.412
13432TIP3   OH240236   1.138   6.192   3.026
13432TIP3    H140237   1.109   6.283   3.018
13432TIP3    H240238   1.100   6.149   2.949
13433TIP3   OH240239   7.882   5.583   2.674
13433TIP3    H140240   7.908   5.544   2.591
13433TIP3    H240241   7.961   5.627   2.706
13434TIP3   OH240242   3.526   5.367   5.955
13434TIP3    H140243   3.522   5.455   5.993
13434TIP3    H240244   3.573   5.314   6.020
13435TIP3   OH240245   3.396   2.901   0.241
13435TIP3    H140246   3.353   2.824   0.277
13435TIP3    H240247   3.375   2.900   0.148
13436TIP3   OH240248   3.854   3.566   2.700
13436TIP3    H140249   3.843   3.477   2.734
13436TIP3    H240250   3.898   3.554   2.616
13437TIP3   OH240251   3.132   3.928   2.728
13437TIP3    H140252   3.193   3.854   2.733
13437TIP3    H240253   3.090   3.919   2.642
13438TIP3   OH240254   1.578   3.028   0.857
13438TIP3    H140255   1.623   3.010   0.940
13438TIP3    H240256   1.491   2.991   0.868
13439TIP3   OH240257   6.281   4.992   2.582
13439TIP3    H140258   6.214   4.925   2.564
13439TIP3    H240259   6.340   4.987   2.506
13440TIP3   OH240260   0.552   1.996   2.888
13440TIP3    H140261   0.615   2.067   2.899
13440TIP3    H240262   0.562   1.968   2.797
13441TIP3   OH240263   7.245   7.272   3.752
13441TIP3    H140264   7.325   7.279   3.805
13441TIP3    H240265   7.203   7.192   3.783
13442TIP3   OH240266   3.027   6.720   4.497
13442TIP3    H140267   3.044   6.814   4.504
13442TIP3    H240268   3.111   6.679   4.516
13443TIP3   OH240269   4.702   5.779   2.877
13443TIP3    H140270   4.659   5.732   2.806
13443TIP3    H240271   4.630   5.821   2.925
13444TIP3   OH240272   8.092   5.366   3.112
13444TIP3    H140273   8.115   5.290   3.166
13444TIP3    H240274   8.175   5.408   3.092
13445TIP3   OH240275   7.115   6.789   1.653
13445TIP3    H140276   7.148   6.796   1.742
13445TIP3    H240277   7.033   6.739   1.662
13446TIP3   OH240278   7.543   1.587   5.192
13446TIP3    H140279   7.504   1.501   5.174
13446TIP3    H240280   7.566   1.584   5.285
13447TIP3   OH240281   4.043   3.691   5.539
13447TIP3    H140282   4.007   3.655   5.620
13447TIP3    H240283   3.968   3.694   5.479
13448TIP3   OH240284   3.323   0.194   5.743
13448TIP3    H140285   3.366   0.252   5.807
13448TIP3    H240286   3.279   0.128   5.797
13449TIP3   OH240287   1.260   3.363   2.375
13449TIP3    H140288   1.272   3.430   2.307
13449TIP3    H240289   1.189   3.308   2.342
13450TIP3   OH240290   4.346   4.612   5.706
13450TIP3    H140291   4.396   4.643   5.781
13450TIP3    H240292   4.403   4.628   5.630
13451TIP3   OH240293   3.189   1.575   5.728
13451TIP3    H140294   3.109   1.534   5.761
13451TIP3    H240295   3.159   1.657   5.687
13452TIP3   OH240296   4.829   2.787   4.306
13452TIP3    H140297   4.812   2.881   4.308
13452TIP3    H240298   4.822   2.763   4.214
13453TIP3   OH240299   4.745   4.652   6.607
13453TIP3    H140300   4.833   4.622   6.583
13453TIP3    H240301   4.691   4.573   6.602
13454TIP3   OH240302   2.537   7.214   3.114
13454TIP3    H140303   2.460   7.159   3.104
13454TIP3    H240304   2.583   7.178   3.190
13455TIP3   OH240305   2.568   1.628   0.605
13455TIP3    H140306   2.558   1.602   0.514
13455TIP3    H240307   2.487   1.672   0.627
13456TIP3   OH240308   0.337   4.643   0.270
13456TIP3    H140309   0.272   4.573   0.283
13456TIP3    H240310   0.300   4.696   0.199
13457TIP3   OH240311   6.738   0.579   4.485
13457TIP3    H140312   6.665   0.599   4.426
13457TIP3    H240313   6.700   0.526   4.554
13458TIP3   OH240314   7.552   3.757   0.402
13458TIP3    H140315   7.509   3.835   0.367
13458TIP3    H240316   7.622   3.738   0.339
13459TIP3   OH240317   4.591   2.016   4.883
13459TIP3    H140318   4.561   1.956   4.952
13459TIP3    H240319   4.631   2.089   4.931
13460TIP3   OH240320   3.751   3.064   6.710
13460TIP3    H140321   3.680   3.104   6.761
13460TIP3    H240322   3.746   2.971   6.730
13461TIP3   OH240323   2.358   4.126   5.391
13461TIP3    H140324   2.413   4.156   5.463
13461TIP3    H240325   2.290   4.193   5.384
13462TIP3   OH240326   4.522   2.769   1.977
13462TIP3    H140327   4.614   2.793   1.979
13462TIP3    H240328   4.516   2.690   2.031
13463TIP3   OH240329   8.376   3.748   1.844
13463TIP3    H140330   8.353   3.755   1.937
13463TIP3    H240331   8.430   3.669   1.839
13464TIP3   OH240332   1.850   3.029   4.930
13464TIP3    H140333   1.792   3.066   4.997
13464TIP3    H240334   1.848   3.093   4.859
13465TIP3   OH240335   2.221   7.550   6.843
13465TIP3    H140336   2.147   7.521   6.789
13465TIP3    H240337   2.273   7.471   6.856
13466TIP3   OH240338   4.892   5.587   3.338
13466TIP3    H140339   4.834   5.540   3.397
13466TIP3    H240340   4.968   5.530   3.328
13467TIP3   OH240341   2.347   2.632   3.362
13467TIP3    H140342   2.299   2.711   3.336
13467TIP3    H240343   2.429   2.664   3.398
13468TIP3   OH240344   2.941   1.227   2.046
13468TIP3    H140345   2.902   1.303   2.002
13468TIP3    H240346   2.867   1.183   2.087
13469TIP3   OH240347   4.544   1.485   1.388
13469TIP3    H140348   4.618   1.519   1.438
13469TIP3    H240349   4.553   1.390   1.395
13470TIP3   OH240350   7.816   6.195   3.471
13470TIP3    H140351   7.766   6.268   3.508
13470TIP3    H240352   7.750   6.138   3.431
13471TIP3   OH240353   5.735   7.513   2.090
13471TIP3    H140354   5.822   7.552   2.084
13471TIP3    H240355   5.728   7.459   2.011
13472TIP3   OH240356   1.329   0.361   2.226
13472TIP3    H140357   1.338   0.385   2.134
13472TIP3    H240358   1.364   0.272   2.232
13473TIP3   OH240359   1.660   1.918   4.362
13473TIP3    H140360   1.728   1.850   4.358
13473TIP3    H240361   1.657   1.953   4.273
13474TIP3   OH240362   2.172   1.906   2.780
13474TIP3    H140363   2.112   1.953   2.722
13474TIP3    H240364   2.119   1.884   2.856
13475TIP3   OH240365   0.697   3.816   2.777
13475TIP3    H140366   0.712   3.862   2.859
13475TIP3    H240367   0.611   3.846   2.748
13476TIP3   OH240368   7.288   4.646   0.911
13476TIP3    H140369   7.282   4.615   0.820
13476TIP3    H240370   7.316   4.569   0.960
13477TIP3   OH240371   1.991   7.416   4.243
13477TIP3    H140372   2.077   7.450   4.217
13477TIP3    H240373   1.975   7.454   4.329
13478TIP3   OH240374   8.316   4.913   1.231
13478TIP3    H140375   8.273   4.831   1.207
13478TIP3    H240376   8.323   4.962   1.149
13479TIP3   OH240377   8.207   7.468   1.511
13479TIP3    H140378   8.242   7.532   1.573
13479TIP3    H240379   8.175   7.396   1.566
13480TIP3   OH240380   7.190   2.062   0.553
13480TIP3    H140381   7.114   2.102   0.596
13480TIP3    H240382   7.152   2.004   0.488
13481TIP3   OH240383   4.684   3.370   0.212
13481TIP3    H140384   4.733   3.393   0.291
13481TIP3    H240385   4.598   3.410   0.226
13482TIP3   OH240386   3.470   4.028   6.101
13482TIP3    H140387   3.468   3.936   6.128
13482TIP3    H240388   3.541   4.032   6.037
13483TIP3   OH240389   5.471   2.279   2.804
13483TIP3    H140390   5.497   2.213   2.869
13483TIP3    H240391   5.532   2.267   2.731
13484TIP3   OH240392   6.826   5.949   4.526
13484TIP3    H140393   6.870   6.007   4.465
13484TIP3    H240394   6.815   5.867   4.478
13485TIP3   OH240395   6.515   4.547   2.067
13485TIP3    H140396   6.516   4.642   2.060
13485TIP3    H240397   6.607   4.521   2.059
13486TIP3   OH240398   5.117   6.782   3.156
13486TIP3    H140399   5.095   6.760   3.065
13486TIP3    H240400   5.042   6.834   3.187
13487TIP3   OH240401   1.728   0.444   2.227
13487TIP3    H140402   1.748   0.351   2.218
13487TIP3    H240403   1.807   0.482   2.265
13488TIP3   OH240404   7.965   3.272   1.293
13488TIP3    H140405   7.920   3.192   1.264
13488TIP3    H240406   8.031   3.241   1.355
13489TIP3   OH240407   6.235   0.030   4.492
13489TIP3    H140408   6.261   0.107   4.541
13489TIP3    H240409   6.314  -0.024   4.486
13490TIP3   OH240410   1.524   0.338   5.714
13490TIP3    H140411   1.433   0.324   5.689
13490TIP3    H240412   1.548   0.258   5.762
13491TIP3   OH240413   4.196   2.821   2.537
13491TIP3    H140414   4.153   2.752   2.586
13491TIP3    H240415   4.152   2.901   2.564
13492TIP3   OH240416   5.446   4.946   0.369
13492TIP3    H140417   5.373   4.900   0.328
13492TIP3    H240418   5.462   5.021   0.312
13493TIP3   OH240419   6.038   5.849   0.622
13493TIP3    H140420   6.121   5.875   0.660
13493TIP3    H240421   6.010   5.925   0.570
13494TIP3   OH240422   7.156   5.116   3.895
13494TIP3    H140423   7.248   5.114   3.867
13494TIP3    H240424   7.158   5.162   3.979
13495TIP3   OH240425   7.355   4.780   1.833
13495TIP3    H140426   7.440   4.749   1.862
13495TIP3    H240427   7.292   4.731   1.887
13496TIP3   OH240428   2.638   6.150   5.589
13496TIP3    H140429   2.692   6.130   5.512
13496TIP3    H240430   2.548   6.145   5.558
13497TIP3   OH240431   4.346   0.051   5.989
13497TIP3    H140432   4.382   0.039   6.077
13497TIP3    H240433   4.384   0.134   5.960
13498TIP3   OH240434   4.482   1.322   1.651
13498TIP3    H140435   4.450   1.267   1.579
13498TIP3    H240436   4.574   1.339   1.629
13499TIP3   OH240437   2.766   1.774   2.253
13499TIP3    H140438   2.765   1.814   2.340
13499TIP3    H240439   2.845   1.809   2.212
13500TIP3   OH240440   3.605   2.676   4.229
13500TIP3    H140441   3.597   2.581   4.240
13500TIP3    H240442   3.516   2.706   4.211
13501TIP3   OH240443   7.178   2.630   4.060
13501TIP3    H140444   7.088   2.598   4.059
13501TIP3    H240445   7.220   2.586   3.986
13502TIP3   OH240446   6.286   3.569   3.859
13502TIP3    H140447   6.246   3.596   3.776
13502TIP3    H240448   6.276   3.645   3.916
13503TIP3   OH240449   6.885   2.498   6.849
13503TIP3    H140450   6.890   2.515   6.755
13503TIP3    H240451   6.795   2.469   6.864
13504TIP3   OH240452   2.931   1.867   6.015
13504TIP3    H140453   2.878   1.942   5.987
13504TIP3    H240454   3.008   1.907   6.057
13505TIP3   OH240455   5.639   5.354   2.500
13505TIP3    H140456   5.605   5.428   2.449
13505TIP3    H240457   5.713   5.390   2.549
13506TIP3   OH240458   0.195   2.490   1.672
13506TIP3    H140459   0.289   2.497   1.658
13506TIP3    H240460   0.158   2.491   1.583
13507TIP3   OH240461   4.007   2.612   6.507
13507TIP3    H140462   3.956   2.655   6.439
13507TIP3    H240463   4.005   2.672   6.582
13508TIP3   OH240464   5.280   4.264   5.312
13508TIP3    H140465   5.374   4.251   5.315
13508TIP3    H240466   5.267   4.337   5.251
13509TIP3   OH240467   8.216   2.366   3.382
13509TIP3    H140468   8.202   2.272   3.398
13509TIP3    H240469   8.290   2.369   3.322
13510TIP3   OH240470   1.914   5.225   5.765
13510TIP3    H140471   1.879   5.159   5.824
13510TIP3    H240472   1.846   5.292   5.761
13511TIP3   OH240473   6.824   7.321   5.957
13511TIP3    H140474   6.877   7.264   6.014
13511TIP3    H240475   6.743   7.272   5.944
13512TIP3   OH240476   6.161   5.584   2.816
13512TIP3    H140477   6.198   5.497   2.800
13512TIP3    H240478   6.086   5.568   2.874
13513TIP3   OH240479   7.307   5.225   6.472
13513TIP3    H140480   7.371   5.202   6.540
13513TIP3    H240481   7.321   5.161   6.403
13514TIP3   OH240482   1.008   1.443   4.293
13514TIP3    H140483   1.078   1.382   4.269
13514TIP3    H240484   0.983   1.485   4.211
13515TIP3   OH240485   5.170   3.002   5.674
13515TIP3    H140486   5.130   2.929   5.722
13515TIP3    H240487   5.246   2.964   5.631
13516TIP3   OH240488   5.058   1.174   1.233
13516TIP3    H140489   5.035   1.119   1.308
13516TIP3    H240490   5.013   1.257   1.250
13517TIP3   OH240491   2.514   4.744   6.774
13517TIP3    H140492   2.472   4.663   6.746
13517TIP3    H240493   2.504   4.803   6.699
13518TIP3   OH240494   4.131   4.933   6.407
13518TIP3    H140495   4.059   4.984   6.443
13518TIP3    H240496   4.150   4.974   6.322
13519TIP3   OH240497   0.438   3.611   3.097
13519TIP3    H140498   0.393   3.613   3.181
13519TIP3    H240499   0.507   3.677   3.105
13520TIP3   OH240500   7.445   4.595   4.572
13520TIP3    H140501   7.538   4.617   4.567
13520TIP3    H240502   7.432   4.569   4.663
13521TIP3   OH240503   4.917   4.599   2.183
13521TIP3    H140504   4.981   4.543   2.228
13521TIP3    H240505   4.861   4.537   2.135
13522TIP3   OH240506   5.954   5.103   2.411
13522TIP3    H140507   5.967   5.149   2.495
13522TIP3    H240508   6.041   5.071   2.388
13523TIP3   OH240509   0.259   4.152   6.553
13523TIP3    H140510   0.166   4.159   6.531
13523TIP3    H240511   0.290   4.079   6.499
13524TIP3   OH240512   7.256   2.395   0.517
13524TIP3    H140513   7.319   2.467   0.524
13524TIP3    H240514   7.243   2.366   0.608
13525TIP3   OH240515   5.137   3.397   5.353
13525TIP3    H140516   5.168   3.487   5.351
13525TIP3    H240517   5.200   3.350   5.407
13526TIP3   OH240518   4.147   7.875   1.869
13526TIP3    H140519   4.138   7.959   1.824
13526TIP3    H240520   4.220   7.831   1.824
13527TIP3   OH240521   2.986   2.946   5.783
13527TIP3    H140522   3.006   2.988   5.867
13527TIP3    H240523   3.056   2.882   5.770
13528TIP3   OH240524   4.009   2.778   6.232
13528TIP3    H140525   3.914   2.786   6.242
13528TIP3    H240526   4.040   2.869   6.223
13529TIP3   OH240527   1.183   6.517   3.979
13529TIP3    H140528   1.197   6.612   3.980
13529TIP3    H240529   1.130   6.502   3.901
13530TIP3   OH240530   4.046   6.223   4.260
13530TIP3    H140531   4.064   6.129   4.270
13530TIP3    H240532   4.085   6.246   4.176
13531TIP3   OH240533   7.201   3.614   6.250
13531TIP3    H140534   7.109   3.588   6.243
13531TIP3    H240535   7.232   3.572   6.330
13532TIP3   OH240536   8.257   2.495   5.287
13532TIP3    H140537   8.238   2.509   5.194
13532TIP3    H240538   8.182   2.532   5.333
13533TIP3   OH240539   7.952   1.639   2.322
13533TIP3    H140540   7.889   1.686   2.266
13533TIP3    H240541   7.897   1.579   2.373
13534TIP3   OH240542   1.625   5.239   2.364
13534TIP3    H140543   1.690   5.233   2.434
13534TIP3    H240544   1.652   5.315   2.313
13535TIP3   OH240545   5.843   7.365   0.932
13535TIP3    H140546   5.831   7.275   0.904
13535TIP3    H240547   5.765   7.385   0.983
13536TIP3   OH240548   7.398   4.233   2.311
13536TIP3    H140549   7.448   4.152   2.308
13536TIP3    H240550   7.464   4.303   2.310
13537TIP3   OH240551   0.448   2.308   3.278
13537TIP3    H140552   0.524   2.359   3.250
13537TIP3    H240553   0.421   2.348   3.360
13538TIP3   OH240554   6.327   1.428   0.120
13538TIP3    H140555   6.348   1.359   0.057
13538TIP3    H240556   6.413   1.464   0.145
13539TIP3   OH240557   0.899   5.456   4.923
13539TIP3    H140558   0.916   5.379   4.978
13539TIP3    H240559   0.967   5.452   4.855
13540TIP3   OH240560   7.483   2.561   4.049
13540TIP3    H140561   7.467   2.584   3.957
13540TIP3    H240562   7.414   2.498   4.070
13541TIP3   OH240563   5.514   7.185   1.624
13541TIP3    H140564   5.449   7.255   1.613
13541TIP3    H240565   5.569   7.215   1.697
13542TIP3   OH240566   5.728   2.778   5.680
13542TIP3    H140567   5.772   2.818   5.605
13542TIP3    H240568   5.799   2.747   5.736
13543TIP3   OH240569   3.468   7.010   0.308
13543TIP3    H140570   3.459   7.100   0.277
13543TIP3    H240571   3.518   6.965   0.240
13544TIP3   OH240572   3.474   1.160   3.179
13544TIP3    H140573   3.436   1.235   3.224
13544TIP3    H240574   3.412   1.088   3.197
13545TIP3   OH240575   4.211   7.071   1.650
13545TIP3    H140576   4.212   7.078   1.554
13545TIP3    H240577   4.149   7.138   1.678
13546TIP3   OH240578   0.903   0.407   1.586
13546TIP3    H140579   0.870   0.370   1.505
13546TIP3    H240580   0.941   0.333   1.633
13547TIP3   OH240581   7.196   1.663   3.709
13547TIP3    H140582   7.261   1.642   3.776
13547TIP3    H240583   7.122   1.606   3.727
13548TIP3   OH240584   4.215   3.865   1.325
13548TIP3    H140585   4.281   3.854   1.257
13548TIP3    H240586   4.134   3.833   1.285
13549TIP3   OH240587   6.622   6.138   0.820
13549TIP3    H140588   6.651   6.195   0.892
13549TIP3    H240589   6.702   6.099   0.787
13550TIP3   OH240590   1.370   4.404   5.676
13550TIP3    H140591   1.275   4.401   5.670
13550TIP3    H240592   1.391   4.359   5.758
13551TIP3   OH240593   5.160   5.422   4.126
13551TIP3    H140594   5.090   5.386   4.071
13551TIP3    H240595   5.201   5.345   4.165
13552TIP3   OH240596   0.908   3.463   0.282
13552TIP3    H140597   0.971   3.396   0.253
13552TIP3    H240598   0.849   3.416   0.340
13553TIP3   OH240599   2.366   2.399   0.648
13553TIP3    H140600   2.374   2.494   0.661
13553TIP3    H240601   2.457   2.368   0.645
13554TIP3   OH240602   4.496   0.874   2.437
13554TIP3    H140603   4.469   0.925   2.361
13554TIP3    H240604   4.526   0.939   2.501
13555TIP3   OH240605   1.190   7.712   1.654
13555TIP3    H140606   1.200   7.636   1.711
13555TIP3    H240607   1.098   7.709   1.627
13556TIP3   OH240608   0.219   7.640   1.631
13556TIP3    H140609   0.128   7.658   1.607
13556TIP3    H240610   0.217   7.553   1.671
13557TIP3   OH240611   6.902   3.633   4.567
13557TIP3    H140612   6.834   3.667   4.625
13557TIP3    H240613   6.853   3.590   4.496
13558TIP3   OH240614   2.511   2.957   2.405
13558TIP3    H140615   2.536   2.976   2.314
13558TIP3    H240616   2.493   3.043   2.443
13559TIP3   OH240617   6.857   2.449   1.100
13559TIP3    H140618   6.937   2.415   1.061
13559TIP3    H240619   6.787   2.421   1.041
13560TIP3   OH240620   4.089   6.710   1.840
13560TIP3    H140621   4.034   6.748   1.908
13560TIP3    H240622   4.177   6.708   1.879
13561TIP3   OH240623   5.793   1.964   1.845
13561TIP3    H140624   5.718   2.022   1.850
13561TIP3    H240625   5.796   1.935   1.754
13562TIP3   OH240626   3.193   4.099   1.134
13562TIP3    H140627   3.266   4.153   1.102
13562TIP3    H240628   3.141   4.081   1.055
13563TIP3   OH240629   0.659   0.353   6.202
13563TIP3    H140630   0.724   0.409   6.245
13563TIP3    H240631   0.699   0.328   6.119
13564TIP3   OH240632   7.220   3.246   2.518
13564TIP3    H140633   7.242   3.335   2.546
13564TIP3    H240634   7.132   3.231   2.553
13565TIP3   OH240635   3.386   3.415   4.989
13565TIP3    H140636   3.335   3.350   4.940
13565TIP3    H240637   3.426   3.470   4.921
13566TIP3   OH240638   2.141   1.429   1.575
13566TIP3    H140639   2.191   1.355   1.542
13566TIP3    H240640   2.207   1.493   1.602
13567TIP3   OH240641   4.373   4.386   5.863
13567TIP3    H140642   4.422   4.444   5.804
13567TIP3    H240643   4.439   4.325   5.896
13568TIP3   OH240644   4.539   6.789   2.829
13568TIP3    H140645   4.508   6.830   2.910
13568TIP3    H240646   4.459   6.773   2.778
13569TIP3   OH240647   7.570   4.651   4.136
13569TIP3    H140648   7.486   4.661   4.091
13569TIP3    H240649   7.629   4.619   4.068
13570TIP3   OH240650   6.655   5.489   1.222
13570TIP3    H140651   6.606   5.524   1.148
13570TIP3    H240652   6.680   5.401   1.194
13571TIP3   OH240653   1.546   0.407   2.919
13571TIP3    H140654   1.641   0.397   2.927
13571TIP3    H240655   1.534   0.497   2.891
13572TIP3   OH240656   8.120   5.771   5.324
13572TIP3    H140657   8.106   5.703   5.259
13572TIP3    H240658   8.176   5.731   5.390
13573TIP3   OH240659   3.738   5.482   5.021
13573TIP3    H140660   3.660   5.528   4.993
13573TIP3    H240661   3.723   5.463   5.114
13574TIP3   OH240662   6.245   0.594   4.331
13574TIP3    H140663   6.176   0.586   4.266
13574TIP3    H240664   6.255   0.688   4.345
13575TIP3   OH240665   2.824   4.061   6.399
13575TIP3    H140666   2.872   4.126   6.449
13575TIP3    H240667   2.892   4.016   6.347
13576TIP3   OH240668   0.894   0.548   4.606
13576TIP3    H140669   0.840   0.470   4.618
13576TIP3    H240670   0.962   0.520   4.544
13577TIP3   OH240671   7.082   4.869   0.834
13577TIP3    H140672   7.160   4.861   0.778
13577TIP3    H240673   7.044   4.781   0.835
13578TIP3   OH240674   6.627   6.396   2.160
13578TIP3    H140675   6.631   6.487   2.190
13578TIP3    H240676   6.534   6.373   2.163
13579TIP3   OH240677   1.280   5.141   5.719
13579TIP3    H140678   1.336   5.078   5.765
13579TIP3    H240679   1.262   5.099   5.634
13580TIP3   OH240680   4.152   3.342   0.946
13580TIP3    H140681   4.181   3.424   0.907
13580TIP3    H240682   4.085   3.309   0.887
13581TIP3   OH240683   2.921   2.831   4.289
13581TIP3    H140684   2.960   2.745   4.276
13581TIP3    H240685   2.910   2.838   4.384
13582TIP3   OH240686   0.627   2.208   0.556
13582TIP3    H140687   0.552   2.264   0.537
13582TIP3    H240688   0.703   2.265   0.545
13583TIP3   OH240689   5.637   1.263   4.807
13583TIP3    H140690   5.730   1.252   4.790
13583TIP3    H240691   5.599   1.281   4.721
13584TIP3   OH240692   5.535   3.900   1.658
13584TIP3    H140693   5.618   3.860   1.632
13584TIP3    H240694   5.519   3.868   1.747
13585TIP3   OH240695   1.097   3.661   5.261
13585TIP3    H140696   1.073   3.753   5.253
13585TIP3    H240697   1.111   3.632   5.171
13586TIP3   OH240698   1.052   2.294   2.250
13586TIP3    H140699   0.990   2.356   2.213
13586TIP3    H240700   1.138   2.322   2.217
13587TIP3   OH240701   1.237   0.884   0.091
13587TIP3    H140702   1.280   0.827   0.028
13587TIP3    H240703   1.209   0.825   0.161
13588TIP3   OH240704   2.412   0.108   2.628
13588TIP3    H140705   2.341   0.134   2.569
13588TIP3    H240706   2.454   0.190   2.653
13589TIP3   OH240707   4.599   1.212   1.396
13589TIP3    H140708   4.545   1.160   1.456
13589TIP3    H240709   4.590   1.168   1.311
13590TIP3   OH240710   2.333   1.071   0.397
13590TIP3    H140711   2.320   1.047   0.489
13590TIP3    H240712   2.400   1.139   0.399
13591TIP3   OH240713   7.413   3.648   5.625
13591TIP3    H140714   7.494   3.615   5.662
13591TIP3    H240715   7.402   3.734   5.666
13592TIP3   OH240716   8.061   5.577   5.170
13592TIP3    H140717   8.124   5.515   5.134
13592TIP3    H240718   8.049   5.643   5.101
13593TIP3   OH240719   0.541   1.970   4.699
13593TIP3    H140720   0.632   1.972   4.668
13593TIP3    H240721   0.502   2.050   4.663
13594TIP3   OH240722   3.500   7.298   5.689
13594TIP3    H140723   3.504   7.291   5.784
13594TIP3    H240724   3.440   7.371   5.672
13595TIP3   OH240725   0.138   4.731   2.946
13595TIP3    H140726   0.124   4.816   2.904
13595TIP3    H240727   0.215   4.695   2.901
13596TIP3   OH240728   1.530   7.483   3.996
13596TIP3    H140729   1.558   7.575   4.002
13596TIP3    H240730   1.492   7.476   3.908
13597TIP3   OH240731   3.154   3.772   5.200
13597TIP3    H140732   3.071   3.766   5.152
13597TIP3    H240733   3.213   3.817   5.139
13598TIP3   OH240734   7.812   1.367   0.986
13598TIP3    H140735   7.846   1.333   1.069
13598TIP3    H240736   7.781   1.455   1.007
13599TIP3   OH240737   2.356   6.623   1.468
13599TIP3    H140738   2.302   6.671   1.531
13599TIP3    H240739   2.413   6.569   1.523
13600TIP3   OH240740   4.055   5.506   5.835
13600TIP3    H140741   4.023   5.556   5.760
13600TIP3    H240742   4.062   5.570   5.906
13601TIP3   OH240743   2.726   3.355   5.465
13601TIP3    H140744   2.754   3.266   5.446
13601TIP3    H240745   2.806   3.408   5.457
13602TIP3   OH240746   1.565   4.203   6.799
13602TIP3    H140747   1.608   4.213   6.884
13602TIP3    H240748   1.570   4.110   6.780
13603TIP3   OH240749   3.631   6.909   5.010
13603TIP3    H140750   3.540   6.912   5.040
13603TIP3    H240751   3.624   6.913   4.914
13604TIP3   OH240752   5.023   7.715   4.337
13604TIP3    H140753   5.113   7.689   4.352
13604TIP3    H240754   5.023   7.754   4.250
13605TIP3   OH240755   7.806   1.443   1.286
13605TIP3    H140756   7.750   1.513   1.318
13605TIP3    H240757   7.839   1.400   1.365
13606TIP3   OH240758   2.319   2.059   0.255
13606TIP3    H140759   2.246   2.116   0.230
13606TIP3    H240760   2.385   2.073   0.188
13607TIP3   OH240761   0.789   6.657   5.951
13607TIP3    H140762   0.741   6.664   6.033
13607TIP3    H240763   0.792   6.746   5.917
13608TIP3   OH240764   0.561   3.603   5.906
13608TIP3    H140765   0.603   3.532   5.957
13608TIP3    H240766   0.469   3.597   5.929
13609TIP3   OH240767   1.214   3.969   3.721
13609TIP3    H140768   1.307   3.948   3.708
13609TIP3    H240769   1.168   3.910   3.661
13610TIP3   OH240770   4.321   3.221  -0.004
13610TIP3    H140771   4.412   3.229   0.026
13610TIP3    H240772   4.269   3.230   0.075
13611TIP3   OH240773   3.522   4.845   6.677
13611TIP3    H140774   3.561   4.812   6.758
13611TIP3    H240775   3.572   4.803   6.608
13612TIP3   OH240776   1.504   4.868   0.737
13612TIP3    H140777   1.484   4.780   0.770
13612TIP3    H240778   1.532   4.917   0.814
13613TIP3   OH240779   2.328   4.426   2.749
13613TIP3    H140780   2.286   4.507   2.777
13613TIP3    H240781   2.422   4.442   2.760
13614TIP3   OH240782   2.294   1.591   5.304
13614TIP3    H140783   2.231   1.637   5.359
13614TIP3    H240784   2.240   1.535   5.248
13615TIP3   OH240785   5.220   6.565   2.940
13615TIP3    H140786   5.275   6.594   2.867
13615TIP3    H240787   5.281   6.521   3.000
13616TIP3   OH240788   7.120   2.986   1.431
13616TIP3    H140789   7.045   2.951   1.479
13616TIP3    H240790   7.185   3.005   1.499
13617TIP3   OH240791   7.505   2.273   6.754
13617TIP3    H140792   7.484   2.265   6.661
13617TIP3    H240793   7.428   2.238   6.799
13618TIP3   OH240794   2.239   2.285   4.435
13618TIP3    H140795   2.316   2.256   4.484
13618TIP3    H240796   2.201   2.355   4.488
13619TIP3   OH240797   5.153   6.112   0.942
13619TIP3    H140798   5.132   6.055   0.868
13619TIP3    H240799   5.247   6.104   0.953
13620TIP3   OH240800   4.327   1.650   5.056
13620TIP3    H140801   4.384   1.726   5.071
13620TIP3    H240802   4.387   1.579   5.035
13621TIP3   OH240803   3.323   4.524   2.099
13621TIP3    H140804   3.389   4.536   2.031
13621TIP3    H240805   3.371   4.533   2.181
13622TIP3   OH240806   0.522   4.506   6.027
13622TIP3    H140807   0.493   4.415   6.028
13622TIP3    H240808   0.442   4.557   6.013
13623TIP3   OH240809   7.798   5.641   1.577
13623TIP3    H140810   7.868   5.705   1.568
13623TIP3    H240811   7.837   5.558   1.551
13624TIP3   OH240812   4.845   4.170   5.996
13624TIP3    H140813   4.929   4.208   5.971
13624TIP3    H240814   4.857   4.140   6.086
13625TIP3   OH240815   5.116   1.590   0.991
13625TIP3    H140816   5.175   1.635   0.931
13625TIP3    H240817   5.038   1.645   0.993
13626TIP3   OH240818   1.078   3.746   6.636
13626TIP3    H140819   0.992   3.753   6.596
13626TIP3    H240820   1.099   3.652   6.632
13627TIP3   OH240821   6.349   6.292   4.718
13627TIP3    H140822   6.285   6.293   4.789
13627TIP3    H240823   6.306   6.245   4.646
13628TIP3   OH240824   1.882   7.538   3.128
13628TIP3    H140825   1.939   7.510   3.200
13628TIP3    H240826   1.798   7.558   3.170
13629TIP3   OH240827   2.896   5.318   3.967
13629TIP3    H140828   2.891   5.323   3.872
13629TIP3    H240829   2.957   5.388   3.992
13630TIP3   OH240830   6.595   2.416   1.888
13630TIP3    H140831   6.540   2.347   1.924
13630TIP3    H240832   6.597   2.483   1.957
13631TIP3   OH240833  -0.015   6.490   1.122
13631TIP3    H140834   0.060   6.483   1.181
13631TIP3    H240835  -0.086   6.522   1.178
13632TIP3   OH240836   0.938   6.960   3.588
13632TIP3    H140837   0.851   6.987   3.615
13632TIP3    H240838   0.925   6.918   3.502
13633TIP3   OH240839   0.293   6.831   3.744
13633TIP3    H140840   0.332   6.760   3.795
13633TIP3    H240841   0.264   6.894   3.810
13634TIP3   OH240842   0.632   0.021   1.025
13634TIP3    H140843   0.638   0.114   1.003
13634TIP3    H240844   0.628  -0.023   0.941
13635TIP3   OH240845   0.293   5.949   5.450
13635TIP3    H140846   0.238   5.872   5.466
13635TIP3    H240847   0.294   5.995   5.534
13636TIP3   OH240848   7.496   2.803   6.097
13636TIP3    H140849   7.528   2.885   6.136
13636TIP3    H240850   7.404   2.820   6.078
13637TIP3   OH240851   1.013   0.051   6.124
13637TIP3    H140852   1.073  -0.018   6.097
13637TIP3    H240853   1.050   0.131   6.085
13638TIP3   OH240854   1.504   0.548   3.413
13638TIP3    H140855   1.503   0.628   3.467
13638TIP3    H240856   1.428   0.557   3.355
13639TIP3   OH240857   8.265   4.510   0.665
13639TIP3    H140858   8.263   4.590   0.717
13639TIP3    H240859   8.354   4.507   0.628
13640TIP3   OH240860   8.248   5.669   4.556
13640TIP3    H140861   8.296   5.619   4.622
13640TIP3    H240862   8.197   5.604   4.509
13641TIP3   OH240863   5.502   7.236   4.746
13641TIP3    H140864   5.527   7.184   4.669
13641TIP3    H240865   5.565   7.211   4.813
13642TIP3   OH240866   3.929   0.837   1.637
13642TIP3    H140867   3.907   0.855   1.728
13642TIP3    H240868   3.901   0.746   1.623
13643TIP3   OH240869   4.738   0.975   0.782
13643TIP3    H140870   4.646   1.000   0.789
13643TIP3    H240871   4.774   0.991   0.869
13644TIP3   OH240872   8.474   3.049   5.784
13644TIP3    H140873   8.415   2.978   5.756
13644TIP3    H240874   8.428   3.091   5.857
13645TIP3   OH240875   7.358   2.852   3.796
13645TIP3    H140876   7.451   2.830   3.791
13645TIP3    H240877   7.326   2.805   3.873
13646TIP3   OH240878   4.473   4.386   6.199
13646TIP3    H140879   4.468   4.291   6.194
13646TIP3    H240880   4.385   4.414   6.223
13647TIP3   OH240881   1.364   1.620   6.219
13647TIP3    H140882   1.424   1.584   6.154
13647TIP3    H240883   1.368   1.715   6.206
13648TIP3   OH240884   7.542   6.798   2.772
13648TIP3    H140885   7.623   6.754   2.798
13648TIP3    H240886   7.504   6.741   2.706
13649TIP3   OH240887   4.176   1.751   0.978
13649TIP3    H140888   4.141   1.830   0.937
13649TIP3    H240889   4.271   1.765   0.979
13650TIP3   OH240890   4.447   4.968   1.890
13650TIP3    H140891   4.356   4.964   1.860
13650TIP3    H240892   4.499   4.957   1.810
13651TIP3   OH240893   7.334   7.842   1.567
13651TIP3    H140894   7.357   7.888   1.486
13651TIP3    H240895   7.256   7.888   1.598
13652TIP3   OH240896   4.523   3.421   5.233
13652TIP3    H140897   4.484   3.496   5.186
13652TIP3    H240898   4.488   3.428   5.322
13653TIP3   OH240899   4.366   5.441   6.744
13653TIP3    H140900   4.428   5.370   6.732
13653TIP3    H240901   4.350   5.475   6.656
13654TIP3   OH240902   0.392   7.384   1.875
13654TIP3    H140903   0.374   7.473   1.844
13654TIP3    H240904   0.326   7.368   1.941
13655TIP3   OH240905   8.328   1.650   5.709
13655TIP3    H140906   8.412   1.636   5.754
13655TIP3    H240907   8.264   1.604   5.763
13656TIP3   OH240908   6.652   1.881   4.970
13656TIP3    H140909   6.717   1.815   4.945
13656TIP3    H240910   6.665   1.952   4.908
13657TIP3   OH240911   5.494   0.835   1.322
13657TIP3    H140912   5.441   0.906   1.360
13657TIP3    H240913   5.494   0.767   1.389
13658TIP3   OH240914   5.309   2.751   1.923
13658TIP3    H140915   5.361   2.744   2.003
13658TIP3    H240916   5.345   2.828   1.879
13659TIP3   OH240917   7.179   6.243   4.688
13659TIP3    H140918   7.173   6.237   4.783
13659TIP3    H240919   7.272   6.262   4.671
13660TIP3   OH240920   0.409   0.343   2.412
13660TIP3    H140921   0.317   0.368   2.407
13660TIP3    H240922   0.453   0.420   2.447
13661TIP3   OH240923   7.843   2.161   4.336
13661TIP3    H140924   7.766   2.204   4.373
13661TIP3    H240925   7.808   2.086   4.288
13662TIP3   OH240926   0.668   3.899   4.581
13662TIP3    H140927   0.581   3.935   4.598
13662TIP3    H240928   0.653   3.805   4.569
13663TIP3   OH240929   1.235   0.746   2.734
13663TIP3    H140930   1.207   0.664   2.694
13663TIP3    H240931   1.295   0.784   2.669
13664TIP3   OH240932   6.085   1.859   0.503
13664TIP3    H140933   6.151   1.914   0.460
13664TIP3    H240934   6.114   1.769   0.487
13665TIP3   OH240935   5.076   3.399   6.146
13665TIP3    H140936   5.095   3.492   6.132
13665TIP3    H240937   5.001   3.397   6.205
13666TIP3   OH240938   2.201   7.264   3.276
13666TIP3    H140939   2.232   7.328   3.212
13666TIP3    H240940   2.249   7.184   3.254
13667TIP3   OH240941   4.453   0.419   6.903
13667TIP3    H140942   4.359   0.413   6.920
13667TIP3    H240943   4.459   0.446   6.811
13668TIP3   OH240944   3.108   4.673   1.440
13668TIP3    H140945   3.124   4.586   1.404
13668TIP3    H240946   3.029   4.663   1.493
13669TIP3   OH240947   3.474   2.916   2.822
13669TIP3    H140948   3.487   2.913   2.917
13669TIP3    H240949   3.398   2.860   2.806
13670TIP3   OH240950   1.667   7.435   1.658
13670TIP3    H140951   1.608   7.510   1.659
13670TIP3    H240952   1.610   7.359   1.665
13671TIP3   OH240953   1.205   4.226   1.125
13671TIP3    H140954   1.171   4.137   1.120
13671TIP3    H240955   1.300   4.215   1.133
13672TIP3   OH240956   3.906   2.490   1.689
13672TIP3    H140957   3.911   2.421   1.622
13672TIP3    H240958   3.993   2.493   1.727
13673TIP3   OH240959   6.461   2.323   5.158
13673TIP3    H140960   6.466   2.232   5.128
13673TIP3    H240961   6.425   2.371   5.084
13674TIP3   OH240962   6.696   6.743   0.016
13674TIP3    H140963   6.655   6.771   0.098
13674TIP3    H240964   6.750   6.817  -0.010
13675TIP3   OH240965   6.308   7.351   2.105
13675TIP3    H140966   6.252   7.402   2.046
13675TIP3    H240967   6.267   7.363   2.191
13676TIP3   OH240968   0.371   1.400   4.294
13676TIP3    H140969   0.281   1.377   4.318
13676TIP3    H240970   0.418   1.317   4.296
13677TIP3   OH240971   4.502   0.649   5.818
13677TIP3    H140972   4.547   0.620   5.897
13677TIP3    H240973   4.513   0.577   5.756
13678TIP3   OH240974   3.031   2.621   0.156
13678TIP3    H140975   2.983   2.548   0.117
13678TIP3    H240976   2.984   2.639   0.238
13679TIP3   OH240977   6.005   0.687   2.154
13679TIP3    H140978   5.961   0.743   2.089
13679TIP3    H240979   6.059   0.747   2.205
13680TIP3   OH240980   0.844   2.961   3.199
13680TIP3    H140981   0.824   3.033   3.140
13680TIP3    H240982   0.909   2.908   3.152
13681TIP3   OH240983   3.692   6.759  -0.019
13681TIP3    H140984   3.725   6.730   0.066
13681TIP3    H240985   3.710   6.853  -0.020
13682TIP3   OH240986   4.542   7.095   0.291
13682TIP3    H140987   4.548   7.175   0.344
13682TIP3    H240988   4.452   7.094   0.260
13683TIP3   OH240989   7.030   2.172   6.681
13683TIP3    H140990   6.963   2.159   6.748
13683TIP3    H240991   7.059   2.263   6.692
13684TIP3   OH240992   1.114   4.781   5.193
13684TIP3    H140993   1.104   4.862   5.143
13684TIP3    H240994   1.042   4.782   5.256
13685TIP3   OH240995   1.671   6.331   0.550
13685TIP3    H140996   1.693   6.239   0.535
13685TIP3    H240997   1.587   6.343   0.506
13686TIP3   OH240998   6.659   4.047   0.032
13686TIP3    H140999   6.680   3.981  -0.036
13686TIP3    H241000   6.630   4.123  -0.017
13687TIP3   OH241001   7.814   3.727   5.073
13687TIP3    H141002   7.801   3.649   5.019
13687TIP3    H241003   7.848   3.792   5.013
13688TIP3   OH241004   3.613   7.581   5.024
13688TIP3    H141005   3.609   7.669   5.063
13688TIP3    H241006   3.522   7.551   5.023
13689TIP3   OH241007   2.310   0.286   0.395
13689TIP3    H141008   2.358   0.358   0.354
13689TIP3    H241009   2.298   0.314   0.486
13690TIP3   OH241010   2.233   0.099   2.356
13690TIP3    H141011   2.199   0.020   2.397
13690TIP3    H241012   2.258   0.071   2.268
13691TIP3   OH241013   5.258   1.801   0.205
13691TIP3    H141014   5.163   1.801   0.190
13691TIP3    H241015   5.267   1.776   0.297
13692TIP3   OH241016   1.169   2.437   3.519
13692TIP3    H141017   1.111   2.391   3.579
13692TIP3    H241018   1.255   2.431   3.559
13693TIP3   OH241019   2.740   5.334   4.226
13693TIP3    H141020   2.668   5.349   4.165
13693TIP3    H241021   2.806   5.286   4.175
13694TIP3   OH241022   5.922   4.390   3.500
13694TIP3    H141023   5.892   4.420   3.586
13694TIP3    H241024   6.010   4.424   3.492
13695TIP3   OH241025   4.089   5.125   0.731
13695TIP3    H141026   4.119   5.107   0.642
13695TIP3    H241027   3.994   5.129   0.723
13696TIP3   OH241028   0.381   3.478   6.277
13696TIP3    H141029   0.345   3.540   6.213
13696TIP3    H241030   0.466   3.516   6.301
13697TIP3   OH241031   1.859   4.067   3.731
13697TIP3    H141032   1.938   4.080   3.784
13697TIP3    H241033   1.796   4.027   3.791
13698TIP3   OH241034   6.498   1.381   6.551
13698TIP3    H141035   6.476   1.457   6.606
13698TIP3    H241036   6.557   1.329   6.606
13699TIP3   OH241037   5.130   0.435   2.650
13699TIP3    H141038   5.127   0.471   2.561
13699TIP3    H241039   5.045   0.394   2.662
13700TIP3   OH241040   2.030   4.343   6.418
13700TIP3    H141041   2.097   4.280   6.390
13700TIP3    H241042   2.016   4.323   6.510
13701TIP3   OH241043   7.460   5.678   2.956
13701TIP3    H141044   7.403   5.648   3.026
13701TIP3    H241045   7.535   5.716   3.001
13702TIP3   OH241046   7.771   2.169   6.423
13702TIP3    H141047   7.810   2.243   6.376
13702TIP3    H241048   7.845   2.111   6.441
13703TIP3   OH241049   3.048   3.981   6.266
13703TIP3    H141050   3.129   4.033   6.263
13703TIP3    H241051   3.078   3.890   6.259
13704TIP3   OH241052   6.884   0.568   5.036
13704TIP3    H141053   6.957   0.555   4.976
13704TIP3    H241054   6.810   0.591   4.980
13705TIP3   OH241055   0.287   5.507   6.595
13705TIP3    H141056   0.221   5.482   6.659
13705TIP3    H241057   0.355   5.441   6.604
13706TIP3   OH241058   2.569   0.959   4.013
13706TIP3    H141059   2.580   0.936   3.921
13706TIP3    H241060   2.475   0.954   4.029
13707TIP3   OH241061   3.024   1.189   3.596
13707TIP3    H141062   2.965   1.250   3.639
13707TIP3    H241063   3.107   1.237   3.586
13708TIP3   OH241064   7.011   1.939   4.361
13708TIP3    H141065   7.015   2.029   4.329
13708TIP3    H241066   6.922   1.910   4.343
13709TIP3   OH241067   5.670   0.346   0.740
13709TIP3    H141068   5.607   0.334   0.812
13709TIP3    H241069   5.694   0.258   0.714
13710TIP3   OH241070   7.078   4.851   4.793
13710TIP3    H141071   7.163   4.859   4.749
13710TIP3    H241072   7.072   4.929   4.848
13711TIP3   OH241073   6.706   3.446   6.817
13711TIP3    H141074   6.745   3.432   6.903
13711TIP3    H241075   6.629   3.390   6.815
13712TIP3   OH241076   0.001   2.702   0.054
13712TIP3    H141077  -0.048   2.752   0.120
13712TIP3    H241078  -0.013   2.610   0.078
13713TIP3   OH241079   5.629   5.417   3.891
13713TIP3    H141080   5.545   5.436   3.848
13713TIP3    H241081   5.656   5.500   3.930
13714TIP3   OH241082   0.740   5.176   6.817
13714TIP3    H141083   0.696   5.092   6.805
13714TIP3    H241084   0.798   5.184   6.742
13715TIP3   OH241085   8.241   7.250  -0.016
13715TIP3    H141086   8.261   7.213   0.070
13715TIP3    H241087   8.309   7.215  -0.073
13716TIP3   OH241088   4.880   4.002   0.468
13716TIP3    H141089   4.833   4.068   0.520
13716TIP3    H241090   4.853   4.020   0.378
13717TIP3   OH241091   5.423   2.048   5.500
13717TIP3    H141092   5.434   1.993   5.577
13717TIP3    H241093   5.331   2.037   5.476
13718TIP3   OH241094   5.707   5.034   4.210
13718TIP3    H141095   5.611   5.034   4.202
13718TIP3    H241096   5.724   4.999   4.297
13719TIP3   OH241097   6.146   7.485   1.343
13719TIP3    H141098   6.115   7.420   1.280
13719TIP3    H241099   6.241   7.481   1.336
13720TIP3   OH241100   7.258   5.753   1.452
13720TIP3    H141101   7.313   5.684   1.415
13720TIP3    H241102   7.296   5.834   1.420
13721TIP3   OH241103   6.810   3.222   3.785
13721TIP3    H141104   6.754   3.195   3.712
13721TIP3    H241105   6.749   3.257   3.850
13722TIP3   OH241106   3.479   2.071   6.327
13722TIP3    H141107   3.406   2.087   6.386
13722TIP3    H241108   3.554   2.055   6.386
13723TIP3   OH241109   0.402   1.672   6.646
13723TIP3    H141110   0.411   1.699   6.555
13723TIP3    H241111   0.331   1.727   6.680
13724TIP3   OH241112   4.083   7.518   0.366
13724TIP3    H141113   3.993   7.547   0.351
13724TIP3    H241114   4.126   7.527   0.280
13725TIP3   OH241115   0.914   0.222   3.874
13725TIP3    H141116   0.870   0.247   3.956
13725TIP3    H241117   0.932   0.128   3.885
13726TIP3   OH241118   1.340   7.329   3.204
13726TIP3    H141119   1.433   7.312   3.187
13726TIP3    H241120   1.340   7.396   3.273
13727TIP3   OH241121   4.702   2.741   0.790
13727TIP3    H141122   4.620   2.738   0.741
13727TIP3    H241123   4.770   2.735   0.724
13728TIP3   OH241124   2.581   5.826   3.324
13728TIP3    H141125   2.496   5.849   3.361
13728TIP3    H241126   2.620   5.910   3.300
13729TIP3   OH241127   4.651   0.229   1.547
13729TIP3    H141128   4.680   0.156   1.493
13729TIP3    H241129   4.556   0.218   1.553
13730TIP3   OH241130   0.130   0.211   0.851
13730TIP3    H141131   0.144   0.122   0.818
13730TIP3    H241132   0.167   0.209   0.939
13731TIP3   OH241133   2.109   7.301   6.709
13731TIP3    H141134   2.070   7.297   6.796
13731TIP3    H241135   2.185   7.243   6.715
13732TIP3   OH241136   6.967   6.077   5.091
13732TIP3    H141137   7.026   6.014   5.133
13732TIP3    H241138   6.913   6.111   5.163
13733TIP3   OH241139   0.942   4.895   1.802
13733TIP3    H141140   0.906   4.933   1.722
13733TIP3    H241141   0.875   4.911   1.868
13734TIP3   OH241142   1.695   6.151   4.846
13734TIP3    H141143   1.667   6.225   4.899
13734TIP3    H241144   1.630   6.146   4.776
13735TIP3   OH241145   5.971   6.090   0.508
13735TIP3    H141146   5.885   6.106   0.468
13735TIP3    H241147   6.030   6.078   0.434
13736TIP3   OH241148   6.667   5.189   4.535
13736TIP3    H141149   6.761   5.181   4.548
13736TIP3    H241150   6.630   5.185   4.623
13737TIP3   OH241151   7.331   7.123   4.891
13737TIP3    H141152   7.239   7.105   4.873
13737TIP3    H241153   7.330   7.169   4.975
13738TIP3   OH241154   0.969   1.746   2.631
13738TIP3    H141155   0.964   1.710   2.542
13738TIP3    H241156   0.940   1.837   2.622
13739TIP3   OH241157   2.795   6.013   4.677
13739TIP3    H141158   2.717   6.068   4.689
13739TIP3    H241159   2.868   6.070   4.701
13740TIP3   OH241160   2.803   3.890   4.634
13740TIP3    H141161   2.748   3.841   4.572
13740TIP3    H241162   2.744   3.911   4.707
13741TIP3   OH241163   0.800   3.917   2.021
13741TIP3    H141164   0.826   3.988   2.079
13741TIP3    H241165   0.704   3.922   2.018
13742TIP3   OH241166   1.548   7.091   0.452
13742TIP3    H141167   1.578   7.181   0.456
13742TIP3    H241168   1.476   7.087   0.515
13743TIP3   OH241169   8.339   2.475   4.800
13743TIP3    H141170   8.313   2.477   4.707
13743TIP3    H241171   8.331   2.383   4.825
13744TIP3   OH241172   1.377   7.328   0.154
13744TIP3    H141173   1.379   7.411   0.202
13744TIP3    H241174   1.312   7.276   0.200
13745TIP3   OH241175   0.791   4.869   3.548
13745TIP3    H141176   0.767   4.961   3.535
13745TIP3    H241177   0.851   4.849   3.476
13746TIP3   OH241178   4.417   4.329   2.743
13746TIP3    H141179   4.387   4.400   2.686
13746TIP3    H241180   4.512   4.325   2.729
13747TIP3   OH241181   1.759   4.636   3.137
13747TIP3    H141182   1.705   4.586   3.075
13747TIP3    H241183   1.849   4.616   3.112
13748TIP3   OH241184   2.427   6.363   1.624
13748TIP3    H141185   2.446   6.289   1.681
13748TIP3    H241186   2.459   6.439   1.671
13749TIP3   OH241187   5.781   5.005   1.144
13749TIP3    H141188   5.747   4.932   1.196
13749TIP3    H241189   5.793   4.968   1.057
13750TIP3   OH241190   0.316   5.042   2.799
13750TIP3    H141191   0.319   5.107   2.728
13750TIP3    H241192   0.222   5.026   2.812
13751TIP3   OH241193   6.704   5.324   2.808
13751TIP3    H141194   6.713   5.232   2.782
13751TIP3    H241195   6.739   5.373   2.733
13752TIP3   OH241196   2.164   6.326   6.273
13752TIP3    H141197   2.230   6.371   6.219
13752TIP3    H241198   2.205   6.243   6.297
13753TIP3   OH241199   5.451   7.668   4.584
13753TIP3    H141200   5.476   7.594   4.639
13753TIP3    H241201   5.389   7.717   4.637
13754TIP3   OH241202   5.370   2.985   2.917
13754TIP3    H141203   5.431   2.930   2.869
13754TIP3    H241204   5.389   3.074   2.887
13755TIP3   OH241205   7.279   3.874   4.964
13755TIP3    H141206   7.194   3.901   4.928
13755TIP3    H241207   7.298   3.941   5.030
13756TIP3   OH241208   2.069   1.835   0.908
13756TIP3    H141209   2.161   1.852   0.928
13756TIP3    H241210   2.061   1.851   0.814
13757TIP3   OH241211   6.297   5.541   5.675
13757TIP3    H141212   6.205   5.526   5.652
13757TIP3    H241213   6.324   5.460   5.718
13758TIP3   OH241214   8.141   7.505   5.134
13758TIP3    H141215   8.185   7.589   5.144
13758TIP3    H241216   8.161   7.478   5.045
13759TIP3   OH241217   3.688   0.169   4.061
13759TIP3    H141218   3.755   0.152   3.995
13759TIP3    H241219   3.736   0.208   4.134
13760TIP3   OH241220   3.922   5.487   4.125
13760TIP3    H141221   3.988   5.483   4.195
13760TIP3    H241222   3.945   5.565   4.075
13761TIP3   OH241223   5.539   1.524   2.897
13761TIP3    H141224   5.581   1.529   2.812
13761TIP3    H241225   5.451   1.558   2.883
13762TIP3   OH241226   4.584   3.836   6.185
13762TIP3    H141227   4.646   3.767   6.210
13762TIP3    H241228   4.512   3.827   6.248
13763TIP3   OH241229   6.070   2.276   3.000
13763TIP3    H141230   6.067   2.182   3.020
13763TIP3    H241231   6.064   2.280   2.904
13764TIP3   OH241232   3.341   3.912   4.324
13764TIP3    H141233   3.353   3.902   4.418
13764TIP3    H241234   3.313   3.825   4.293
13765TIP3   OH241235   8.252   6.438   0.662
13765TIP3    H141236   8.233   6.346   0.683
13765TIP3    H241237   8.267   6.479   0.747
13766TIP3   OH241238   6.131   1.948   2.108
13766TIP3    H141239   6.096   1.861   2.087
13766TIP3    H241240   6.203   1.960   2.046
13767TIP3   OH241241   4.579   6.943   5.381
13767TIP3    H141242   4.484   6.933   5.384
13767TIP3    H241243   4.596   6.981   5.294
13768TIP3   OH241244   5.189   0.800   0.869
13768TIP3    H141245   5.227   0.846   0.944
13768TIP3    H241246   5.127   0.862   0.831
13769TIP3   OH241247   3.987   4.879   6.068
13769TIP3    H141248   4.066   4.831   6.092
13769TIP3    H241249   3.992   4.887   5.973
13770TIP3   OH241250   1.644   2.986   5.397
13770TIP3    H141251   1.626   3.048   5.467
13770TIP3    H241252   1.694   3.036   5.333
13771TIP3   OH241253   6.433   0.553   0.925
13771TIP3    H141254   6.403   0.569   0.836
13771TIP3    H241255   6.411   0.462   0.942
13772TIP3   OH241256   4.058   3.837   2.233
13772TIP3    H141257   4.063   3.874   2.144
13772TIP3    H241258   4.083   3.910   2.290
13773TIP3   OH241259   7.823   7.505   0.258
13773TIP3    H141260   7.792   7.487   0.347
13773TIP3    H241261   7.916   7.524   0.269
13774TIP3   OH241262   2.421   1.112   2.264
13774TIP3    H141263   2.430   1.152   2.178
13774TIP3    H241264   2.415   1.186   2.325
13775TIP3   OH241265   7.861   4.942   0.408
13775TIP3    H141266   7.861   4.848   0.390
13775TIP3    H241267   7.950   4.970   0.388
13776TIP3   OH241268   6.482   3.317   6.457
13776TIP3    H141269   6.506   3.257   6.528
13776TIP3    H241270   6.430   3.384   6.499
13777TIP3   OH241271  -0.003   1.303   5.286
13777TIP3    H141272   0.024   1.245   5.214
13777TIP3    H241273  -0.093   1.327   5.264
13778TIP3   OH241274   6.229   6.259   6.499
13778TIP3    H141275   6.220   6.322   6.571
13778TIP3    H241276   6.320   6.230   6.504
13779TIP3   OH241277   1.124   0.053   2.581
13779TIP3    H141278   1.169   0.134   2.557
13779TIP3    H241279   1.187  -0.016   2.560
13780TIP3   OH241280   5.751   0.570   2.211
13780TIP3    H141281   5.844   0.577   2.188
13780TIP3    H241282   5.742   0.483   2.249
13781TIP3   OH241283   2.800   0.903   2.475
13781TIP3    H141284   2.780   0.851   2.397
13781TIP3    H241285   2.715   0.930   2.509
13782TIP3   OH241286   4.074   1.085   1.571
13782TIP3    H141287   4.004   1.131   1.523
13782TIP3    H241288   4.036   1.000   1.593
13783TIP3   OH241289   6.406   4.005   1.213
13783TIP3    H141290   6.391   4.100   1.213
13783TIP3    H241291   6.459   3.990   1.290
13784TIP3   OH241292   5.731   4.156   1.588
13784TIP3    H141293   5.746   4.062   1.602
13784TIP3    H241294   5.672   4.159   1.512
13785TIP3   OH241295   1.940   4.064   1.679
13785TIP3    H141296   1.924   4.000   1.610
13785TIP3    H241297   1.860   4.116   1.683
13786TIP3   OH241298   4.317   6.641   3.568
13786TIP3    H141299   4.330   6.642   3.474
13786TIP3    H241300   4.406   6.644   3.604
13787TIP3   OH241301   6.568   1.922   2.448
13787TIP3    H141302   6.624   1.968   2.511
13787TIP3    H241303   6.630   1.888   2.383
13788TIP3   OH241304   2.560   5.006   5.118
13788TIP3    H141305   2.536   4.946   5.047
13788TIP3    H241306   2.529   5.091   5.089
13789TIP3   OH241307   1.226   0.827   2.108
13789TIP3    H141308   1.282   0.762   2.151
13789TIP3    H241309   1.151   0.835   2.166
13790TIP3   OH241310   7.290   2.650   6.231
13790TIP3    H141311   7.385   2.639   6.227
13790TIP3    H241312   7.268   2.697   6.150
13791TIP3   OH241313   2.931   6.522   0.360
13791TIP3    H141314   2.968   6.454   0.304
13791TIP3    H241315   2.987   6.598   0.347
13792TIP3   OH241316   7.178   7.029   5.240
13792TIP3    H141317   7.097   7.078   5.252
13792TIP3    H241318   7.242   7.095   5.211
13793TIP3   OH241319   2.397   0.572   6.457
13793TIP3    H141320   2.413   0.666   6.443
13793TIP3    H241321   2.320   0.570   6.514
13794TIP3   OH241322   6.115   6.074   3.311
13794TIP3    H141323   6.117   5.985   3.276
13794TIP3    H241324   6.111   6.130   3.233
13795TIP3   OH241325   1.857   1.279   4.099
13795TIP3    H141326   1.869   1.190   4.134
13795TIP3    H241327   1.946   1.312   4.087
13796TIP3   OH241328   2.299   5.883   5.824
13796TIP3    H141329   2.262   5.930   5.750
13796TIP3    H241330   2.246   5.911   5.899
13797TIP3   OH241331   0.934   1.206   6.239
13797TIP3    H141332   0.939   1.203   6.335
13797TIP3    H241333   0.846   1.173   6.219
13798TIP3   OH241334   4.053   4.726   2.673
13798TIP3    H141335   4.011   4.798   2.626
13798TIP3    H241336   4.022   4.647   2.630
13799TIP3   OH241337   4.697   7.815   3.138
13799TIP3    H141338   4.692   7.894   3.191
13799TIP3    H241339   4.624   7.822   3.076
13800TIP3   OH241340   7.247   5.353   4.033
13800TIP3    H141341   7.154   5.371   4.043
13800TIP3    H241342   7.280   5.426   3.980
13801TIP3   OH241343   1.535   3.065   3.122
13801TIP3    H141344   1.604   3.033   3.179
13801TIP3    H241345   1.576   3.069   3.035
13802TIP3   OH241346   4.497   5.867   5.319
13802TIP3    H141347   4.552   5.885   5.243
13802TIP3    H241348   4.412   5.846   5.283
13803TIP3   OH241349   1.553   7.847   0.714
13803TIP3    H141350   1.589   7.845   0.802
13803TIP3    H241351   1.459   7.853   0.726
13804TIP3   OH241352   2.757   3.353   3.017
13804TIP3    H141353   2.745   3.447   3.032
13804TIP3    H241354   2.832   3.348   2.958
13805TIP3   OH241355   4.159   4.755   0.760
13805TIP3    H141356   4.137   4.662   0.762
13805TIP3    H241357   4.085   4.799   0.802
13806TIP3   OH241358   5.684   2.633   2.015
13806TIP3    H141359   5.615   2.668   2.071
13806TIP3    H241360   5.678   2.686   1.935
13807TIP3   OH241361   4.327   2.586   5.316
13807TIP3    H141362   4.337   2.511   5.257
13807TIP3    H241363   4.234   2.587   5.337
13808TIP3   OH241364   1.016   6.718   2.671
13808TIP3    H141365   1.060   6.725   2.756
13808TIP3    H241366   0.924   6.703   2.693
13809TIP3   OH241367   3.789   4.437   2.597
13809TIP3    H141368   3.850   4.364   2.593
13809TIP3    H241369   3.721   4.417   2.533
13810TIP3   OH241370   2.480   0.902   2.797
13810TIP3    H141371   2.473   0.874   2.706
13810TIP3    H241372   2.514   0.825   2.843
13811TIP3   OH241373   3.168   6.694   3.243
13811TIP3    H141374   3.163   6.774   3.190
13811TIP3    H241375   3.132   6.720   3.328
13812TIP3   OH241376   8.250   0.109   2.207
13812TIP3    H141377   8.251   0.047   2.135
13812TIP3    H241378   8.199   0.066   2.276
13813TIP3   OH241379   7.006   2.869   2.011
13813TIP3    H141380   6.986   2.811   2.084
13813TIP3    H241381   7.095   2.845   1.985
13814TIP3   OH241382   4.752   4.873   3.533
13814TIP3    H141383   4.753   4.799   3.472
13814TIP3    H241384   4.659   4.885   3.554
13815TIP3   OH241385   4.356   4.884   1.329
13815TIP3    H141386   4.273   4.923   1.300
13815TIP3    H241387   4.359   4.798   1.288
13816TIP3   OH241388   0.158   6.592   5.904
13816TIP3    H141389   0.135   6.673   5.949
13816TIP3    H241390   0.196   6.620   5.821
13817TIP3   OH241391   1.583   1.587   0.810
13817TIP3    H141392   1.607   1.630   0.892
13817TIP3    H241393   1.558   1.498   0.835
13818TIP3   OH241394   5.943   2.393   5.662
13818TIP3    H141395   6.027   2.439   5.659
13818TIP3    H241396   5.946   2.333   5.587
13819TIP3   OH241397   7.438   5.695   5.430
13819TIP3    H141398   7.368   5.760   5.432
13819TIP3    H241399   7.444   5.669   5.338
13820TIP3   OH241400   6.988   2.261   0.563
13820TIP3    H141401   6.951   2.262   0.651
13820TIP3    H241402   7.068   2.313   0.571
13821TIP3   OH241403   4.744   6.650   2.941
13821TIP3    H141404   4.681   6.704   2.893
13821TIP3    H241405   4.706   6.643   3.029
13822TIP3   OH241406   7.185   6.395   1.670
13822TIP3    H141407   7.152   6.305   1.678
13822TIP3    H241408   7.138   6.443   1.738
13823TIP3   OH241409   2.000   3.537   2.016
13823TIP3    H141410   1.993   3.539   1.920
13823TIP3    H241411   2.093   3.545   2.034
13824TIP3   OH241412   7.731   2.409   2.611
13824TIP3    H141413   7.665   2.447   2.669
13824TIP3    H241414   7.681   2.369   2.540
13825TIP3   OH241415   6.267   1.191   3.531
13825TIP3    H141416   6.218   1.215   3.610
13825TIP3    H241417   6.203   1.145   3.476
13826TIP3   OH241418   5.904   6.122   2.112
13826TIP3    H141419   5.855   6.200   2.138
13826TIP3    H241420   5.970   6.154   2.051
13827TIP3   OH241421   0.050   6.308   3.053
13827TIP3    H141422   0.036   6.220   3.086
13827TIP3    H241423   0.087   6.357   3.127
13828TIP3   OH241424   0.933   3.935   1.764
13828TIP3    H141425   0.899   3.899   1.846
13828TIP3    H241426   0.978   4.016   1.790
13829TIP3   OH241427   2.431   2.685   5.138
13829TIP3    H141428   2.357   2.630   5.163
13829TIP3    H241429   2.473   2.708   5.220
13830TIP3   OH241430   7.576   2.222   5.354
13830TIP3    H141431   7.579   2.128   5.370
13830TIP3    H241432   7.583   2.231   5.259
13831TIP3   OH241433   5.089   2.742   4.791
13831TIP3    H141434   5.138   2.679   4.739
13831TIP3    H241435   5.121   2.729   4.881
13832TIP3   OH241436   7.827   1.419   5.737
13832TIP3    H141437   7.811   1.438   5.645
13832TIP3    H241438   7.755   1.362   5.763
13833TIP3   OH241439   7.159   4.379   4.295
13833TIP3    H141440   7.217   4.383   4.219
13833TIP3    H241441   7.189   4.304   4.346
13834TIP3   OH241442   2.887   1.320   3.032
13834TIP3    H141443   2.908   1.271   2.952
13834TIP3    H241444   2.800   1.355   3.015
13835TIP3   OH241445   4.489   1.873   5.119
13835TIP3    H141446   4.453   1.962   5.123
13835TIP3    H241447   4.547   1.868   5.195
13836TIP3   OH241448   6.031   0.699   0.923
13836TIP3    H141449   6.109   0.668   0.969
13836TIP3    H241450   6.002   0.624   0.871
13837TIP3   OH241451   2.680   1.155   2.076
13837TIP3    H141452   2.594   1.160   2.033
13837TIP3    H241453   2.676   1.219   2.146
13838TIP3   OH241454   2.334   3.983   0.186
13838TIP3    H141455   2.258   4.012   0.236
13838TIP3    H241456   2.329   3.887   0.187
13839TIP3   OH241457   5.050   7.647   4.026
13839TIP3    H141458   4.968   7.695   4.011
13839TIP3    H241459   5.023   7.563   4.061
13840TIP3   OH241460   3.546   0.194   0.616
13840TIP3    H141461   3.499   0.188   0.533
13840TIP3    H241462   3.572   0.286   0.623
13841TIP3   OH241463   5.851   1.585   0.540
13841TIP3    H141464   5.904   1.574   0.620
13841TIP3    H241465   5.805   1.667   0.553
13842TIP3   OH241466   7.909   4.908   5.577
13842TIP3    H141467   7.896   5.002   5.562
13842TIP3    H241468   7.875   4.893   5.665
13843TIP3   OH241469   7.613   5.251   1.682
13843TIP3    H141470   7.707   5.231   1.685
13843TIP3    H241471   7.597   5.280   1.592
13844TIP3   OH241472   5.394   1.557   2.438
13844TIP3    H141473   5.473   1.599   2.405
13844TIP3    H241474   5.424   1.472   2.470
13845TIP3   OH241475   7.374   5.179   0.821
13845TIP3    H141476   7.349   5.165   0.730
13845TIP3    H241477   7.436   5.109   0.840
13846TIP3   OH241478   1.380   7.716   0.924
13846TIP3    H141479   1.310   7.741   0.864
13846TIP3    H241480   1.386   7.790   0.986
13847TIP3   OH241481   4.267   3.551   6.235
13847TIP3    H141482   4.188   3.509   6.202
13847TIP3    H241483   4.339   3.496   6.203
13848TIP3   OH241484   4.510   6.868   3.103
13848TIP3    H141485   4.514   6.946   3.157
13848TIP3    H241486   4.569   6.806   3.146
13849TIP3   OH241487   2.062   0.995   2.213
13849TIP3    H141488   2.137   0.950   2.253
13849TIP3    H241489   2.101   1.070   2.168
13850TIP3   OH241490   8.308   1.596   6.035
13850TIP3    H141491   8.367   1.669   6.054
13850TIP3    H241492   8.361   1.518   6.051
13851TIP3   OH241493   6.412   2.051   4.713
13851TIP3    H141494   6.319   2.072   4.706
13851TIP3    H241495   6.456   2.132   4.685
13852TIP3   OH241496   6.772   5.785   0.192
13852TIP3    H141497   6.717   5.844   0.244
13852TIP3    H241498   6.823   5.737   0.256
13853TIP3   OH241499   2.255   0.868   5.690
13853TIP3    H141500   2.329   0.882   5.749
13853TIP3    H241501   2.290   0.815   5.619
13854TIP3   OH241502   4.268   5.354   5.168
13854TIP3    H141503   4.262   5.351   5.073
13854TIP3    H241504   4.183   5.321   5.198
13855TIP3   OH241505   5.784   1.777   2.812
13855TIP3    H141506   5.825   1.725   2.882
13855TIP3    H241507   5.720   1.719   2.773
13856TIP3   OH241508   4.159   6.406   1.407
13856TIP3    H141509   4.249   6.374   1.406
13856TIP3    H241510   4.157   6.470   1.479
13857TIP3   OH241511   0.750   3.922   6.745
13857TIP3    H141512   0.726   3.943   6.655
13857TIP3    H241513   0.831   3.971   6.760
13858TIP3   OH241514   4.221   4.073   0.422
13858TIP3    H141515   4.156   4.142   0.435
13858TIP3    H241516   4.239   4.075   0.328
13859TIP3   OH241517   7.383   1.977   6.080
13859TIP3    H141518   7.374   1.884   6.062
13859TIP3    H241519   7.471   1.986   6.118
13860TIP3   OH241520   1.610   4.621   1.468
13860TIP3    H141521   1.556   4.700   1.460
13860TIP3    H241522   1.598   4.576   1.384
13861TIP3   OH241523   4.506   5.958   3.593
13861TIP3    H141524   4.451   5.959   3.671
13861TIP3    H241525   4.489   6.042   3.550
13862TIP3   OH241526   6.201   6.598   2.053
13862TIP3    H141527   6.256   6.662   2.098
13862TIP3    H241528   6.206   6.519   2.106
13863TIP3   OH241529   7.778   0.524   4.401
13863TIP3    H141530   7.756   0.514   4.309
13863TIP3    H241531   7.694   0.537   4.444
13864TIP3   OH241532   5.946   7.759   0.949
13864TIP3    H141533   5.953   7.780   1.041
13864TIP3    H241534   5.883   7.822   0.914
13865TIP3   OH241535   2.200   2.716   6.336
13865TIP3    H141536   2.278   2.712   6.280
13865TIP3    H241537   2.232   2.752   6.419
13866TIP3   OH241538   2.131   4.380   4.264
13866TIP3    H141539   2.127   4.419   4.351
13866TIP3    H241540   2.052   4.327   4.258
13867TIP3   OH241541   6.467   6.824   6.803
13867TIP3    H141542   6.470   6.771   6.723
13867TIP3    H241543   6.510   6.906   6.779
13868TIP3   OH241544   6.520   6.203   3.186
13868TIP3    H141545   6.473   6.121   3.203
13868TIP3    H241546   6.611   6.183   3.209
13869TIP3   OH241547   2.086   6.516   2.383
13869TIP3    H141548   2.063   6.526   2.476
13869TIP3    H241549   2.017   6.562   2.336
13870TIP3   OH241550   0.504   5.413   3.123
13870TIP3    H141551   0.423   5.420   3.173
13870TIP3    H241552   0.511   5.320   3.102
13871TIP3   OH241553   4.702   3.542   2.226
13871TIP3    H141554   4.796   3.545   2.243
13871TIP3    H241555   4.693   3.485   2.149
13872TIP3   OH241556   1.342   4.144   1.906
13872TIP3    H141557   1.431   4.177   1.915
13872TIP3    H241558   1.317   4.166   1.817
13873TIP3   OH241559   6.164   5.838   3.152
13873TIP3    H141560   6.159   5.744   3.171
13873TIP3    H241561   6.193   5.842   3.061
13874TIP3   OH241562   5.855   4.970   2.147
13874TIP3    H141563   5.849   5.036   2.078
13874TIP3    H241564   5.793   4.999   2.214
13875TIP3   OH241565   5.645   0.891   6.729
13875TIP3    H141566   5.586   0.839   6.674
13875TIP3    H241567   5.633   0.981   6.698
13876TIP3   OH241568   7.377   2.367   6.393
13876TIP3    H141569   7.438   2.346   6.323
13876TIP3    H241570   7.338   2.283   6.417
13877TIP3   OH241571   6.944   3.567   6.278
13877TIP3    H141572   6.930   3.516   6.358
13877TIP3    H241573   6.858   3.600   6.255
13878TIP3   OH241574   4.296   5.719   5.179
13878TIP3    H141575   4.267   5.756   5.095
13878TIP3    H241576   4.356   5.649   5.154
13879TIP3   OH241577   3.312   1.353   5.649
13879TIP3    H141578   3.364   1.395   5.580
13879TIP3    H241579   3.246   1.419   5.671
13880TIP3   OH241580   1.854   2.684   4.265
13880TIP3    H141581   1.881   2.608   4.213
13880TIP3    H241582   1.782   2.723   4.215
13881TIP3   OH241583   1.965   3.676   0.166
13881TIP3    H141584   2.047   3.630   0.147
13881TIP3    H241585   1.979   3.765   0.135
13882TIP3   OH241586   1.604   6.446   1.923
13882TIP3    H141587   1.581   6.508   1.993
13882TIP3    H241588   1.538   6.461   1.856
13883TIP3   OH241589   2.329   5.973   1.210
13883TIP3    H141590   2.423   5.985   1.205
13883TIP3    H241591   2.301   5.957   1.120
13884TIP3   OH241592   4.036   5.604   1.842
13884TIP3    H141593   4.088   5.607   1.761
13884TIP3    H241594   3.949   5.634   1.815
13885TIP3   OH241595   3.118   0.556   4.686
13885TIP3    H141596   3.029   0.561   4.720
13885TIP3    H241597   3.165   0.503   4.751
13886TIP3   OH241598   8.239   5.130   1.944
13886TIP3    H141599   8.273   5.184   1.872
13886TIP3    H241600   8.179   5.069   1.902
13887TIP3   OH241601   3.764   3.413   1.175
13887TIP3    H141602   3.724   3.462   1.103
13887TIP3    H241603   3.708   3.337   1.188
13888TIP3   OH241604   4.582   6.848   5.999
13888TIP3    H141605   4.534   6.925   5.969
13888TIP3    H241606   4.532   6.774   5.965
13889TIP3   OH241607   6.294   5.010   1.806
13889TIP3    H141608   6.231   5.054   1.863
13889TIP3    H241609   6.373   5.064   1.811
13890TIP3   OH241610   5.783   7.383   3.098
13890TIP3    H141611   5.861   7.434   3.077
13890TIP3    H241612   5.712   7.428   3.053
13891TIP3   OH241613   7.097   2.825   2.440
13891TIP3    H141614   7.107   2.755   2.504
13891TIP3    H241615   7.057   2.897   2.489
13892TIP3   OH241616   4.052   5.862   0.644
13892TIP3    H141617   4.122   5.840   0.706
13892TIP3    H241618   3.971   5.845   0.692
13893TIP3   OH241619   5.689   4.553   2.378
13893TIP3    H141620   5.681   4.460   2.359
13893TIP3    H241621   5.699   4.595   2.292
13894TIP3   OH241622   6.817   1.194   6.362
13894TIP3    H141623   6.825   1.210   6.268
13894TIP3    H241624   6.902   1.219   6.398
13895TIP3   OH241625   0.921   6.978   3.042
13895TIP3    H141626   0.862   6.977   2.967
13895TIP3    H241627   1.005   6.951   3.007
13896TIP3   OH241628   6.230   2.492   6.109
13896TIP3    H141629   6.295   2.552   6.073
13896TIP3    H241630   6.277   2.409   6.120
13897TIP3   OH241631   3.821   2.836   6.479
13897TIP3    H141632   3.815   2.886   6.398
13897TIP3    H241633   3.855   2.899   6.543
13898TIP3   OH241634   0.800   3.759   1.001
13898TIP3    H141635   0.791   3.848   1.036
13898TIP3    H241636   0.790   3.769   0.906
13899TIP3   OH241637   3.859   1.209   1.423
13899TIP3    H141638   3.920   1.283   1.419
13899TIP3    H241639   3.901   1.140   1.372
13900TIP3   OH241640   5.125   6.847   1.444
13900TIP3    H141641   5.197   6.885   1.494
13900TIP3    H241642   5.080   6.790   1.506
13901TIP3   OH241643   7.690   0.331   0.435
13901TIP3    H141644   7.735   0.400   0.388
13901TIP3    H241645   7.734   0.250   0.407
13902TIP3   OH241646   1.291   1.823   2.289
13902TIP3    H141647   1.235   1.901   2.291
13902TIP3    H241648   1.362   1.847   2.229
13903TIP3   OH241649   8.189   3.129   1.055
13903TIP3    H141650   8.147   3.051   1.091
13903TIP3    H241651   8.170   3.198   1.120
13904TIP3   OH241652   3.311   5.057   5.829
13904TIP3    H141653   3.240   5.119   5.845
13904TIP3    H241654   3.364   5.097   5.761
13905TIP3   OH241655   7.650   0.004   3.350
13905TIP3    H141656   7.614   0.079   3.304
13905TIP3    H241657   7.650   0.029   3.442
13906TIP3   OH241658   5.196   7.361   2.941
13906TIP3    H141659   5.189   7.267   2.923
13906TIP3    H241660   5.289   7.380   2.932
13907TIP3   OH241661   6.609   5.323   3.060
13907TIP3    H141662   6.633   5.344   2.970
13907TIP3    H241663   6.663   5.247   3.081
13908TIP3   OH241664   0.626   6.749   3.871
13908TIP3    H141665   0.721   6.754   3.876
13908TIP3    H241666   0.600   6.694   3.945
13909TIP3   OH241667   4.148   1.669   1.957
13909TIP3    H141668   4.104   1.610   1.896
13909TIP3    H241669   4.140   1.625   2.042
13910TIP3   OH241670   2.273   0.801   5.120
13910TIP3    H141671   2.337   0.871   5.113
13910TIP3    H241672   2.316   0.726   5.078
13911TIP3   OH241673   4.006   7.148   0.946
13911TIP3    H141674   4.056   7.068   0.928
13911TIP3    H241675   4.022   7.203   0.869
13912TIP3   OH241676   6.280   4.539   6.170
13912TIP3    H141677   6.343   4.478   6.133
13912TIP3    H241678   6.297   4.537   6.264
13913TIP3   OH241679   7.548   5.436   2.342
13913TIP3    H141680   7.453   5.450   2.341
13913TIP3    H241681   7.584   5.521   2.368
13914TIP3   OH241682   5.076   3.829   3.528
13914TIP3    H141683   5.024   3.749   3.532
13914TIP3    H241684   5.060   3.872   3.613
13915TIP3   OH241685   0.617   0.483   3.306
13915TIP3    H141686   0.700   0.468   3.351
13915TIP3    H241687   0.553   0.489   3.377
13916TIP3   OH241688   3.736   6.627   4.634
13916TIP3    H141689   3.681   6.576   4.694
13916TIP3    H241690   3.679   6.698   4.604
13917TIP3   OH241691   3.258   1.986   4.921
13917TIP3    H141692   3.349   1.965   4.900
13917TIP3    H241693   3.264   2.037   5.002
13918TIP3   OH241694   6.861   6.854   4.171
13918TIP3    H141695   6.903   6.933   4.205
13918TIP3    H241696   6.817   6.816   4.246
13919TIP3   OH241697   3.893   2.559   1.043
13919TIP3    H141698   3.798   2.552   1.033
13919TIP3    H241699   3.908   2.537   1.135
13920TIP3   OH241700   0.501   3.567   6.689
13920TIP3    H141701   0.503   3.496   6.624
13920TIP3    H241702   0.592   3.595   6.696
13921TIP3   OH241703   6.421   5.575   4.771
13921TIP3    H141704   6.350   5.547   4.829
13921TIP3    H241705   6.427   5.669   4.785
13922TIP3   OH241706   2.432   1.345   2.417
13922TIP3    H141707   2.480   1.409   2.364
13922TIP3    H241708   2.382   1.399   2.479
13923TIP3   OH241709   2.067   5.050   5.567
13923TIP3    H141710   2.050   4.967   5.613
13923TIP3    H241711   2.042   5.117   5.630
13924TIP3   OH241712   4.584   1.854   5.364
13924TIP3    H141713   4.631   1.902   5.432
13924TIP3    H241714   4.508   1.816   5.408
13925TIP3   OH241715   5.289   1.990   6.406
13925TIP3    H141716   5.368   1.988   6.460
13925TIP3    H241717   5.311   2.049   6.334
13926TIP3   OH241718   4.917   2.122   5.586
13926TIP3    H141719   4.937   2.067   5.662
13926TIP3    H241720   4.918   2.211   5.621
13927TIP3   OH241721   3.683   6.784   3.199
13927TIP3    H141722   3.677   6.855   3.263
13927TIP3    H241723   3.723   6.712   3.247
13928TIP3   OH241724   6.447   0.881   2.875
13928TIP3    H141725   6.363   0.865   2.917
13928TIP3    H241726   6.493   0.941   2.935
13929TIP3   OH241727   3.269   0.612   2.096
13929TIP3    H141728   3.294   0.697   2.132
13929TIP3    H241729   3.253   0.558   2.173
13930TIP3   OH241730   0.445   6.749   4.343
13930TIP3    H141731   0.526   6.705   4.316
13930TIP3    H241732   0.405   6.689   4.406
13931TIP3   OH241733   6.405   1.598   2.013
13931TIP3    H141734   6.441   1.652   1.943
13931TIP3    H241735   6.317   1.633   2.027
13932TIP3   OH241736   5.032   7.595   5.451
13932TIP3    H141737   4.952   7.562   5.411
13932TIP3    H241738   5.007   7.679   5.490
13933TIP3   OH241739   4.227   5.395   2.163
13933TIP3    H141740   4.135   5.411   2.186
13933TIP3    H241741   4.232   5.301   2.148
13934TIP3   OH241742   1.704   7.891   4.472
13934TIP3    H141743   1.746   7.873   4.388
13934TIP3    H241744   1.639   7.822   4.481
13935TIP3   OH241745   3.857   5.691   4.443
13935TIP3    H141746   3.851   5.779   4.407
13935TIP3    H241747   3.916   5.645   4.384
13936TIP3   OH241748   1.792   5.543   0.689
13936TIP3    H141749   1.880   5.505   0.692
13936TIP3    H241750   1.760   5.537   0.779
13937TIP3   OH241751   6.497   4.383   6.330
13937TIP3    H141752   6.533   4.316   6.389
13937TIP3    H241753   6.413   4.406   6.368
13938TIP3   OH241754   1.261   1.712   1.082
13938TIP3    H141755   1.267   1.751   1.169
13938TIP3    H241756   1.256   1.787   1.022
13939TIP3   OH241757   2.503   5.884   6.651
13939TIP3    H141758   2.497   5.965   6.701
13939TIP3    H241759   2.486   5.909   6.561
13940TIP3   OH241760   7.991   1.091   4.864
13940TIP3    H141761   8.017   1.025   4.928
13940TIP3    H241762   7.925   1.048   4.810
13941TIP3   OH241763   5.122   4.654   2.904
13941TIP3    H141764   5.121   4.697   2.818
13941TIP3    H241765   5.212   4.625   2.915
13942TIP3   OH241766   5.867   6.652   1.898
13942TIP3    H141767   5.906   6.722   1.847
13942TIP3    H241768   5.794   6.621   1.844
13943TIP3   OH241769   1.053   1.905   1.604
13943TIP3    H141770   1.075   1.997   1.587
13943TIP3    H241771   1.068   1.894   1.698
13944TIP3   OH241772   1.042   5.733   1.435
13944TIP3    H141773   1.130   5.763   1.413
13944TIP3    H241774   1.003   5.807   1.482
13945TIP3   OH241775   6.964   5.430   0.652
13945TIP3    H141776   6.925   5.514   0.678
13945TIP3    H241777   7.056   5.439   0.677
13946TIP3   OH241778   4.661   1.864   3.470
13946TIP3    H141779   4.569   1.849   3.491
13946TIP3    H241780   4.659   1.925   3.396
13947TIP3   OH241781   7.052   0.642   0.959
13947TIP3    H141782   7.079   0.686   0.878
13947TIP3    H241783   6.989   0.577   0.931
13948TIP3   OH241784   5.953   6.487   6.097
13948TIP3    H141785   6.024   6.474   6.160
13948TIP3    H241786   5.921   6.398   6.079
13949TIP3   OH241787   1.890   2.640   3.514
13949TIP3    H141788   1.885   2.732   3.540
13949TIP3    H241789   1.980   2.630   3.482
13950TIP3   OH241790   6.314   6.027   6.261
13950TIP3    H141791   6.313   6.119   6.289
13950TIP3    H241792   6.380   5.986   6.317
13951TIP3   OH241793   7.313   0.986   0.878
13951TIP3    H141794   7.355   1.071   0.892
13951TIP3    H241795   7.220   1.006   0.864
13952TIP3   OH241796   2.749   2.168   2.972
13952TIP3    H141797   2.723   2.230   2.904
13952TIP3    H241798   2.675   2.108   2.979
13953TIP3   OH241799   8.066   0.655   4.538
13953TIP3    H141800   7.971   0.650   4.526
13953TIP3    H241801   8.079   0.650   4.632
13954TIP3   OH241802   4.517   0.924   0.475
13954TIP3    H141803   4.478   0.893   0.557
13954TIP3    H241804   4.445   0.967   0.429
13955TIP3   OH241805   8.052   3.885   3.310
13955TIP3    H141806   8.122   3.851   3.253
13955TIP3    H241807   7.981   3.823   3.300
13956TIP3   OH241808   7.606   1.839   6.432
13956TIP3    H141809   7.667   1.766   6.436
13956TIP3    H241810   7.529   1.805   6.388
13957TIP3   OH241811   0.149   2.821   3.700
13957TIP3    H141812   0.140   2.897   3.757
13957TIP3    H241813   0.215   2.767   3.743
13958TIP3   OH241814   6.964   7.786   1.434
13958TIP3    H141815   6.983   7.818   1.346
13958TIP3    H241816   7.040   7.732   1.457
13959TIP3   OH241817   6.925   2.313   5.876
13959TIP3    H141818   6.970   2.394   5.901
13959TIP3    H241819   6.901   2.326   5.785
13960TIP3   OH241820   0.937   3.345   5.599
13960TIP3    H141821   0.853   3.387   5.621
13960TIP3    H241822   0.916   3.253   5.588
13961TIP3   OH241823   0.993   2.046   5.221
13961TIP3    H141824   0.916   1.990   5.214
13961TIP3    H241825   0.961   2.125   5.266
13962TIP3   OH241826   7.851   5.021   2.228
13962TIP3    H141827   7.872   5.005   2.320
13962TIP3    H241828   7.756   5.013   2.223
13963TIP3   OH241829   4.823   0.587   3.122
13963TIP3    H141830   4.894   0.553   3.177
13963TIP3    H241831   4.863   0.599   3.036
13964TIP3   OH241832   4.278   6.979   3.049
13964TIP3    H141833   4.352   6.922   3.070
13964TIP3    H241834   4.255   6.956   2.959
13965TIP3   OH241835   1.266   1.451   0.883
13965TIP3    H141836   1.278   1.545   0.893
13965TIP3    H241837   1.270   1.436   0.788
13966TIP3   OH241838   2.516   0.427   2.146
13966TIP3    H141839   2.508   0.507   2.093
13966TIP3    H241840   2.456   0.365   2.105
13967TIP3   OH241841   2.983   5.772   6.694
13967TIP3    H141842   2.890   5.768   6.717
13967TIP3    H241843   3.005   5.865   6.704
13968TIP3   OH241844   1.079   3.949   1.377
13968TIP3    H141845   1.012   4.009   1.344
13968TIP3    H241846   1.051   3.862   1.348
13969TIP3   OH241847   0.780   5.799   1.718
13969TIP3    H141848   0.772   5.709   1.752
13969TIP3    H241849   0.740   5.795   1.631
13970TIP3   OH241850   7.173   0.429   4.243
13970TIP3    H141851   7.262   0.397   4.230
13970TIP3    H241852   7.172   0.516   4.203
13971TIP3   OH241853   7.068   1.120   1.781
13971TIP3    H141854   7.158   1.111   1.752
13971TIP3    H241855   7.026   1.039   1.753
13972TIP3   OH241856   1.191   3.090   4.984
13972TIP3    H141857   1.123   3.051   5.038
13972TIP3    H241858   1.250   3.132   5.047
13973TIP3   OH241859   3.037   6.110   2.454
13973TIP3    H141860   2.961   6.089   2.509
13973TIP3    H241861   3.109   6.058   2.491
13974TIP3   OH241862   5.628   5.631   0.237
13974TIP3    H141863   5.544   5.597   0.206
13974TIP3    H241864   5.623   5.725   0.220
13975TIP3   OH241865   4.185   3.087   2.675
13975TIP3    H141866   4.230   3.160   2.634
13975TIP3    H241867   4.094   3.116   2.684
13976TIP3   OH241868   7.633   0.637   5.745
13976TIP3    H141869   7.543   0.603   5.737
13976TIP3    H241870   7.647   0.644   5.839
13977TIP3   OH241871   2.959   2.498   3.892
13977TIP3    H141872   2.959   2.582   3.938
13977TIP3    H241873   2.925   2.435   3.957
13978TIP3   OH241874   6.601   3.081   5.705
13978TIP3    H141875   6.565   3.106   5.790
13978TIP3    H241876   6.673   3.022   5.726
13979TIP3   OH241877   6.122   2.045   5.253
13979TIP3    H141878   6.123   2.141   5.254
13979TIP3    H241879   6.171   2.022   5.174
13980TIP3   OH241880   5.286   6.572   4.996
13980TIP3    H141881   5.254   6.616   4.918
13980TIP3    H241882   5.348   6.633   5.035
13981TIP3   OH241883   3.954   7.779   2.051
13981TIP3    H141884   4.012   7.806   1.980
13981TIP3    H241885   3.948   7.684   2.043
13982TIP3   OH241886   7.341   0.145   2.142
13982TIP3    H141887   7.405   0.091   2.188
13982TIP3    H241888   7.339   0.228   2.190
13983TIP3   OH241889   3.732   5.751   5.225
13983TIP3    H141890   3.707   5.840   5.200
13983TIP3    H241891   3.743   5.705   5.142
13984TIP3   OH241892   3.621   3.545   3.814
13984TIP3    H141893   3.682   3.544   3.740
13984TIP3    H241894   3.676   3.568   3.889
13985TIP3   OH241895   3.934   3.220   2.564
13985TIP3    H141896   3.993   3.289   2.534
13985TIP3    H241897   3.898   3.253   2.647
13986TIP3   OH241898   3.079   4.223   2.723
13986TIP3    H141899   3.124   4.139   2.729
13986TIP3    H241900   3.149   4.288   2.725
13987TIP3   OH241901   5.536   5.627   5.325
13987TIP3    H141902   5.539   5.649   5.418
13987TIP3    H241903   5.620   5.657   5.291
13988TIP3   OH241904   1.743   7.344   6.018
13988TIP3    H141905   1.831   7.307   6.028
13988TIP3    H241906   1.688   7.287   6.071
13989TIP3   OH241907   4.023   6.589   6.849
13989TIP3    H141908   4.054   6.624   6.766
13989TIP3    H241909   4.068   6.642   6.915
13990TIP3   OH241910   7.554   0.405   3.658
13990TIP3    H141911   7.614   0.372   3.725
13990TIP3    H241912   7.467   0.388   3.694
13991TIP3   OH241913   5.543   7.511   5.579
13991TIP3    H141914   5.498   7.487   5.497
13991TIP3    H241915   5.473   7.533   5.640
13992TIP3   OH241916   7.523   7.631   0.116
13992TIP3    H141917   7.501   7.724   0.107
13992TIP3    H241918   7.506   7.594   0.030
13993TIP3   OH241919   6.744   0.847   0.179
13993TIP3    H141920   6.698   0.813   0.256
13993TIP3    H241921   6.675   0.877   0.121
13994TIP3   OH241922   6.933   0.165   3.748
13994TIP3    H141923   7.012   0.215   3.726
13994TIP3    H241924   6.887   0.154   3.665
13995TIP3   OH241925   4.133   6.967   2.467
13995TIP3    H141926   4.041   6.973   2.442
13995TIP3    H241927   4.161   6.881   2.434
13996TIP3   OH241928   6.744   6.181   6.413
13996TIP3    H141929   6.811   6.189   6.481
13996TIP3    H241930   6.791   6.146   6.337
13997TIP3   OH241931   6.957   7.259   5.637
13997TIP3    H141932   6.961   7.165   5.654
13997TIP3    H241933   6.865   7.283   5.650
13998TIP3   OH241934   3.908   4.329   4.029
13998TIP3    H141935   3.910   4.361   4.120
13998TIP3    H241936   3.907   4.409   3.976
13999TIP3   OH241937   4.084   1.299   4.701
13999TIP3    H141938   4.007   1.329   4.749
13999TIP3    H241939   4.116   1.224   4.751
14000TIP3   OH241940   7.553   5.352   0.999
14000TIP3    H141941   7.545   5.439   0.959
14000TIP3    H241942   7.496   5.297   0.946
14001TIP3   OH241943   3.063   7.638   0.475
14001TIP3    H141944   3.102   7.560   0.517
14001TIP3    H241945   2.977   7.647   0.516
14002TIP3   OH241946   8.350   4.336   1.312
14002TIP3    H141947   8.402   4.264   1.278
14002TIP3    H241948   8.273   4.295   1.351
14003TIP3   OH241949   1.564   2.573   0.764
14003TIP3    H141950   1.562   2.573   0.668
14003TIP3    H241951   1.656   2.588   0.785
14004TIP3   OH241952   5.383   0.038   4.022
14004TIP3    H141953   5.338   0.000   3.946
14004TIP3    H241954   5.370   0.132   4.013
14005TIP3   OH241955   1.143   5.534   0.009
14005TIP3    H141956   1.064   5.524  -0.043
14005TIP3    H241957   1.120   5.500   0.095
14006TIP3   OH241958   0.842   7.711   4.006
14006TIP3    H141959   0.920   7.733   3.954
14006TIP3    H241960   0.870   7.724   4.096
14007TIP3   OH241961   7.546   7.389   0.239
14007TIP3    H141962   7.637   7.367   0.220
14007TIP3    H241963   7.532   7.473   0.196
14008TIP3   OH241964   4.125   0.464   3.652
14008TIP3    H141965   4.083   0.542   3.617
14008TIP3    H241966   4.154   0.489   3.739
14009TIP3   OH241967   0.828   5.660   3.867
14009TIP3    H141968   0.903   5.611   3.901
14009TIP3    H241969   0.835   5.653   3.772
14010TIP3   OH241970   4.406   5.362   3.653
14010TIP3    H141971   4.367   5.438   3.610
14010TIP3    H241972   4.496   5.389   3.673
14011TIP3   OH241973   8.229   1.012   3.801
14011TIP3    H141974   8.321   1.023   3.826
14011TIP3    H241975   8.228   1.023   3.706
14012TIP3   OH241976   8.205   6.377   5.170
14012TIP3    H141977   8.168   6.443   5.112
14012TIP3    H241978   8.132   6.351   5.227
14013TIP3   OH241979   2.458   5.888   5.417
14013TIP3    H141980   2.431   5.805   5.457
14013TIP3    H241981   2.464   5.868   5.323
14014TIP3   OH241982   0.779   0.934   3.972
14014TIP3    H141983   0.708   0.959   4.031
14014TIP3    H241984   0.840   1.008   3.976
14015TIP3   OH241985   0.626   7.220   6.116
14015TIP3    H141986   0.621   7.310   6.084
14015TIP3    H241987   0.563   7.216   6.187
14016TIP3   OH241988   3.712   3.538   6.137
14016TIP3    H141989   3.693   3.629   6.113
14016TIP3    H241990   3.729   3.542   6.231
14017TIP3   OH241991   0.386   6.556   3.733
14017TIP3    H141992   0.375   6.461   3.724
14017TIP3    H241993   0.364   6.573   3.824
14018TIP3   OH241994   8.110   0.044   0.477
14018TIP3    H141995   8.024   0.003   0.472
14018TIP3    H241996   8.135   0.061   0.386
14019TIP3   OH241997   2.948   4.181   0.473
14019TIP3    H141998   2.870   4.235   0.482
14019TIP3    H241999   2.921   4.108   0.416
14020TIP3   OH242000   5.860   7.660   2.808
14020TIP3    H142001   5.839   7.698   2.893
14020TIP3    H242002   5.944   7.700   2.785
14021TIP3   OH242003   0.712   7.608   1.049
14021TIP3    H142004   0.692   7.608   0.956
14021TIP3    H242005   0.641   7.660   1.089
14022TIP3   OH242006   4.353   1.736   0.006
14022TIP3    H142007   4.388   1.755   0.093
14022TIP3    H242008   4.275   1.790  -0.002
14023TIP3   OH242009   6.054   0.584   5.896
14023TIP3    H142010   6.033   0.491   5.904
14023TIP3    H242011   6.138   0.586   5.851
14024TIP3   OH242012   6.185   4.935   6.427
14024TIP3    H142013   6.146   4.906   6.509
14024TIP3    H242014   6.114   4.929   6.363
14025TIP3   OH242015   2.312   5.984   0.266
14025TIP3    H142016   2.367   6.025   0.333
14025TIP3    H242017   2.313   6.047   0.194
14026TIP3   OH242018   8.370   1.067   4.148
14026TIP3    H142019   8.463   1.088   4.136
14026TIP3    H242020   8.371   0.984   4.197
14027TIP3   OH242021   7.039   6.414   0.798
14027TIP3    H142022   7.111   6.458   0.843
14027TIP3    H242023   7.038   6.326   0.836
14028TIP3   OH242024   8.097   4.325   2.441
14028TIP3    H142025   8.171   4.345   2.498
14028TIP3    H242026   8.061   4.243   2.475
14029TIP3   OH242027   3.181   2.740   5.767
14029TIP3    H142028   3.211   2.649   5.772
14029TIP3    H242029   3.247   2.783   5.712
14030TIP3   OH242030   1.426   0.817   2.534
14030TIP3    H142031   1.516   0.801   2.507
14030TIP3    H242032   1.373   0.766   2.473
14031TIP3   OH242033   6.347   6.330   1.576
14031TIP3    H142034   6.279   6.321   1.643
14031TIP3    H242035   6.338   6.250   1.524
14032TIP3   OH242036   8.257   5.028   6.074
14032TIP3    H142037   8.319   4.994   6.009
14032TIP3    H242038   8.305   5.097   6.119
14033TIP3   OH242039   3.220   1.437   4.225
14033TIP3    H142040   3.236   1.348   4.256
14033TIP3    H242041   3.213   1.489   4.305
14034TIP3   OH242042   1.773   6.136   6.284
14034TIP3    H142043   1.779   6.094   6.370
14034TIP3    H242044   1.685   6.115   6.253
14035TIP3   OH242045   4.700   5.135   2.255
14035TIP3    H142046   4.794   5.138   2.272
14035TIP3    H242047   4.671   5.226   2.266
14036TIP3   OH242048   7.857   6.611   2.288
14036TIP3    H142049   7.941   6.579   2.254
14036TIP3    H242050   7.880   6.658   2.368
14037TIP3   OH242051   6.359   6.038   5.301
14037TIP3    H142052   6.407   5.996   5.373
14037TIP3    H242053   6.394   6.128   5.299
14038TIP3   OH242054   8.120   1.468   0.891
14038TIP3    H142055   8.062   1.402   0.853
14038TIP3    H242056   8.136   1.437   0.980
14039TIP3   OH242057   5.185   4.103   0.865
14039TIP3    H142058   5.200   4.102   0.959
14039TIP3    H242059   5.253   4.162   0.831
14040TIP3   OH242060   5.466   2.399   3.243
14040TIP3    H142061   5.478   2.388   3.337
14040TIP3    H242062   5.501   2.319   3.205
14041TIP3   OH242063   5.133   4.980   2.915
14041TIP3    H142064   5.113   5.045   2.847
14041TIP3    H242065   5.089   4.900   2.885
14042TIP3   OH242066   1.952   6.885   4.602
14042TIP3    H142067   1.958   6.979   4.587
14042TIP3    H242068   2.043   6.857   4.616
14043TIP3   OH242069   7.552   5.263   2.112
14043TIP3    H142070   7.498   5.185   2.126
14043TIP3    H242071   7.513   5.330   2.168
14044TIP3   OH242072   0.587   3.792   5.732
14044TIP3    H142073   0.504   3.825   5.698
14044TIP3    H242074   0.564   3.751   5.815
14045TIP3   OH242075   4.351   6.475   4.494
14045TIP3    H142076   4.312   6.559   4.469
14045TIP3    H242077   4.439   6.497   4.522
14046TIP3   OH242078   0.759   3.332   1.353
14046TIP3    H142079   0.773   3.242   1.324
14046TIP3    H242080   0.777   3.330   1.447
14047TIP3   OH242081   5.984   0.033   5.910
14047TIP3    H142082   5.907   0.080   5.877
14047TIP3    H242083   5.959   0.006   5.998
14048TIP3   OH242084   3.297   6.221   1.614
14048TIP3    H142085   3.275   6.239   1.523
14048TIP3    H242086   3.370   6.158   1.609
14049TIP3   OH242087   5.159   1.026   3.352
14049TIP3    H142088   5.093   1.095   3.354
14049TIP3    H242089   5.143   0.976   3.432
14050TIP3   OH242090   0.540   1.138   5.839
14050TIP3    H142091   0.466   1.081   5.819
14050TIP3    H242092   0.601   1.124   5.766
14051TIP3   OH242093   7.298   6.436   2.341
14051TIP3    H142094   7.238   6.510   2.356
14051TIP3    H242095   7.296   6.387   2.423
14052TIP3   OH242096   7.457   3.202   5.190
14052TIP3    H142097   7.517   3.131   5.212
14052TIP3    H242098   7.439   3.190   5.097
14053TIP3   OH242099   7.520   6.490   2.072
14053TIP3    H142100   7.523   6.455   2.161
14053TIP3    H242101   7.434   6.532   2.065
14054TIP3   OH242102   0.346   5.590   2.980
14054TIP3    H142103   0.432   5.553   2.957
14054TIP3    H242104   0.283   5.529   2.941
14055TIP3   OH242105   5.119   4.565   1.042
14055TIP3    H142106   5.115   4.570   0.947
14055TIP3    H242107   5.140   4.655   1.070
14056TIP3   OH242108   0.317   0.140   3.473
14056TIP3    H142109   0.400   0.094   3.489
14056TIP3    H242110   0.256   0.071   3.448
14057TIP3   OH242111   2.897   1.462   4.799
14057TIP3    H142112   2.837   1.400   4.840
14057TIP3    H242113   2.850   1.545   4.797
14058TIP3   OH242114   5.960   5.930   3.948
14058TIP3    H142115   6.019   5.866   3.989
14058TIP3    H242116   6.018   5.991   3.903
14059TIP3   OH242117   6.450   0.767   4.586
14059TIP3    H142118   6.425   0.853   4.552
14059TIP3    H242119   6.519   0.787   4.650
14060TIP3   OH242120   0.464   1.271   6.068
14060TIP3    H142121   0.513   1.353   6.067
14060TIP3    H242122   0.506   1.216   6.001
14061TIP3   OH242123   7.734   3.233   5.383
14061TIP3    H142124   7.722   3.138   5.375
14061TIP3    H242125   7.700   3.268   5.300
14062TIP3   OH242126   6.146   7.312   1.594
14062TIP3    H142127   6.114   7.350   1.513
14062TIP3    H242128   6.241   7.307   1.583
14063TIP3   OH242129   2.734   7.657   1.493
14063TIP3    H142130   2.717   7.743   1.456
14063TIP3    H242131   2.731   7.670   1.587
14064TIP3   OH242132   6.410   5.830   4.649
14064TIP3    H142133   6.321   5.864   4.650
14064TIP3    H242134   6.465   5.907   4.666
14065TIP3   OH242135   7.533   0.622   0.290
14065TIP3    H142136   7.467   0.646   0.355
14065TIP3    H242137   7.605   0.683   0.306
14066TIP3   OH242138   2.071   3.131   3.868
14066TIP3    H142139   2.068   3.208   3.925
14066TIP3    H242140   2.148   3.083   3.897
14067TIP3   OH242141   7.048   0.943   3.957
14067TIP3    H142142   7.127   0.988   3.986
14067TIP3    H242143   6.978   1.007   3.967
14068TIP3   OH242144   5.339   4.717   1.915
14068TIP3    H142145   5.261   4.667   1.938
14068TIP3    H242146   5.389   4.722   1.997
14069TIP3   OH242147   3.594   5.677   2.561
14069TIP3    H142148   3.625   5.763   2.533
14069TIP3    H242149   3.599   5.623   2.482
14070TIP3   OH242150   5.071   2.695   5.767
14070TIP3    H142151   4.977   2.693   5.786
14070TIP3    H242152   5.112   2.664   5.848
14071TIP3   OH242153   4.363   5.460   0.745
14071TIP3    H142154   4.396   5.547   0.724
14071TIP3    H242155   4.268   5.471   0.752
14072TIP3   OH242156   4.484   2.450   1.424
14072TIP3    H142157   4.415   2.421   1.366
14072TIP3    H242158   4.451   2.431   1.512
14073TIP3   OH242159   7.208   0.489   5.295
14073TIP3    H142160   7.139   0.435   5.257
14073TIP3    H242161   7.284   0.475   5.238
14074TIP3   OH242162   4.977   6.920   4.948
14074TIP3    H142163   5.069   6.904   4.924
14074TIP3    H242164   4.929   6.907   4.866
14075TIP3   OH242165   6.450   2.048   5.126
14075TIP3    H142166   6.401   1.979   5.082
14075TIP3    H242167   6.531   2.006   5.155
14076TIP3   OH242168   1.327   7.567   0.323
14076TIP3    H142169   1.317   7.507   0.397
14076TIP3    H242170   1.386   7.635   0.357
14077TIP3   OH242171   2.695   0.636   2.874
14077TIP3    H142172   2.709   0.667   2.785
14077TIP3    H242173   2.606   0.602   2.874
14078TIP3   OH242174   7.123   3.564   1.035
14078TIP3    H142175   7.079   3.511   1.102
14078TIP3    H242176   7.210   3.526   1.028
14079TIP3   OH242177   3.948   4.881   0.045
14079TIP3    H142178   4.032   4.883  -0.002
14079TIP3    H242179   3.964   4.824   0.120
14080TIP3   OH242180   7.183   5.828   5.399
14080TIP3    H142181   7.155   5.913   5.365
14080TIP3    H242182   7.192   5.773   5.321
14081TIP3   OH242183   1.900   7.570   4.492
14081TIP3    H142184   1.965   7.635   4.522
14081TIP3    H242185   1.831   7.622   4.451
14082TIP3   OH242186   2.439   1.224   5.751
14082TIP3    H142187   2.376   1.205   5.681
14082TIP3    H242188   2.393   1.285   5.808
14083TIP3   OH242189   1.297   4.694   4.699
14083TIP3    H142190   1.232   4.755   4.663
14083TIP3    H242191   1.310   4.724   4.789
14084TIP3   OH242192   0.606   4.436   5.581
14084TIP3    H142193   0.607   4.465   5.673
14084TIP3    H242194   0.601   4.341   5.587
14085TIP3   OH242195   0.614   4.567   3.564
14085TIP3    H142196   0.679   4.592   3.630
14085TIP3    H242197   0.659   4.501   3.511
14086TIP3   OH242198   6.723   0.674   0.910
14086TIP3    H142199   6.633   0.642   0.909
14086TIP3    H242200   6.777   0.596   0.902
14087TIP3   OH242201   4.054   1.101   5.420
14087TIP3    H142202   4.098   1.103   5.505
14087TIP3    H242203   4.099   1.167   5.368
14088TIP3   OH242204   4.078   0.148   5.310
14088TIP3    H142205   4.097   0.211   5.380
14088TIP3    H242206   4.163   0.133   5.268
14089TIP3   OH242207   6.315   6.347   0.059
14089TIP3    H142208   6.233   6.379   0.022
14089TIP3    H242209   6.291   6.267   0.105
14090TIP3   OH242210   6.660   0.874   4.269
14090TIP3    H142211   6.652   0.780   4.286
14090TIP3    H242212   6.755   0.889   4.265
14091TIP3   OH242213   2.936   5.729   0.249
14091TIP3    H142214   2.972   5.739   0.337
14091TIP3    H242215   2.944   5.815   0.210
14092TIP3   OH242216   6.770   7.918   0.378
14092TIP3    H142217   6.854   7.901   0.336
14092TIP3    H242218   6.748   7.835   0.422
14093TIP3   OH242219   7.722   4.265   0.134
14093TIP3    H142220   7.679   4.322   0.198
14093TIP3    H242221   7.738   4.321   0.058
14094TIP3   OH242222   6.457   1.474   5.790
14094TIP3    H142223   6.415   1.560   5.801
14094TIP3    H242224   6.482   1.448   5.878
14095TIP3   OH242225   7.179   7.039   3.019
14095TIP3    H142226   7.089   7.048   2.989
14095TIP3    H242227   7.172   7.013   3.111
14096TIP3   OH242228   2.499   4.562   6.089
14096TIP3    H142229   2.500   4.651   6.123
14096TIP3    H242230   2.525   4.508   6.163
14097TIP3   OH242231   7.791   6.874   1.210
14097TIP3    H142232   7.742   6.818   1.270
14097TIP3    H242233   7.880   6.876   1.245
14098TIP3   OH242234   5.937   6.704   3.064
14098TIP3    H142235   6.011   6.748   3.105
14098TIP3    H242236   5.969   6.676   2.979
14099TIP3   OH242237   6.908   1.431   5.218
14099TIP3    H142238   6.982   1.465   5.169
14099TIP3    H242239   6.891   1.497   5.285
14100TIP3   OH242240   0.585   2.780   6.516
14100TIP3    H142241   0.547   2.826   6.591
14100TIP3    H242242   0.628   2.703   6.554
14101TIP3   OH242243   1.402   7.750   1.911
14101TIP3    H142244   1.442   7.678   1.958
14101TIP3    H242245   1.334   7.709   1.857
14102TIP3   OH242246   1.602   2.627   0.507
14102TIP3    H142247   1.657   2.701   0.481
14102TIP3    H242248   1.514   2.651   0.479
14103TIP3   OH242249   1.395   5.443   3.178
14103TIP3    H142250   1.450   5.521   3.183
14103TIP3    H242251   1.348   5.452   3.095
14104TIP3   OH242252   5.475   7.073   3.941
14104TIP3    H142253   5.563   7.042   3.923
14104TIP3    H242254   5.463   7.149   3.884
14105TIP3   OH242255   3.904   1.106   2.392
14105TIP3    H142256   3.872   1.017   2.407
14105TIP3    H242257   3.857   1.160   2.456
14106TIP3   OH242258   2.797   6.373   5.705
14106TIP3    H142259   2.726   6.320   5.668
14106TIP3    H242260   2.753   6.452   5.737
14107TIP3   OH242261   5.189   3.712   1.040
14107TIP3    H142262   5.141   3.698   0.958
14107TIP3    H242263   5.252   3.781   1.019
14108TIP3   OH242264   2.376   5.943   4.071
14108TIP3    H142265   2.422   5.878   4.018
14108TIP3    H242266   2.412   6.027   4.043
14109TIP3   OH242267   1.316   7.001   5.409
14109TIP3    H142268   1.389   6.953   5.449
14109TIP3    H242269   1.240   6.977   5.462
14110TIP3   OH242270   7.039   7.749   4.777
14110TIP3    H142271   7.078   7.720   4.859
14110TIP3    H242272   6.996   7.671   4.742
14111TIP3   OH242273   7.789   2.566   5.045
14111TIP3    H142274   7.823   2.533   5.128
14111TIP3    H242275   7.866   2.576   4.989
14112TIP3   OH242276   7.094   1.212   2.634
14112TIP3    H142277   7.130   1.200   2.546
14112TIP3    H242278   7.013   1.260   2.620
14113TIP3   OH242279   7.532   2.621   4.690
14113TIP3    H142280   7.625   2.608   4.672
14113TIP3    H242281   7.505   2.540   4.733
14114TIP3   OH242282   3.450   4.490   0.502
14114TIP3    H142283   3.408   4.469   0.585
14114TIP3    H242284   3.478   4.405   0.467
14115TIP3   OH242285   7.165   1.485   5.148
14115TIP3    H142286   7.241   1.430   5.129
14115TIP3    H242287   7.189   1.571   5.114
14116TIP3   OH242288   4.038   0.568   6.302
14116TIP3    H142289   4.115   0.542   6.252
14116TIP3    H242290   4.062   0.651   6.342
14117TIP3   OH242291   5.460   4.818   5.455
14117TIP3    H142292   5.468   4.908   5.422
14117TIP3    H242293   5.537   4.806   5.511
14118TIP3   OH242294   4.297   2.345   3.726
14118TIP3    H142295   4.247   2.328   3.806
14118TIP3    H242296   4.309   2.440   3.725
14119TIP3   OH242297   2.620   4.781   3.806
14119TIP3    H142298   2.607   4.687   3.798
14119TIP3    H242299   2.699   4.799   3.755
14120TIP3   OH242300   5.576   1.069   0.930
14120TIP3    H142301   5.625   1.015   0.993
14120TIP3    H242302   5.521   1.125   0.984
14121TIP3   OH242303   1.964   5.802   2.446
14121TIP3    H142304   1.970   5.802   2.351
14121TIP3    H242305   1.941   5.892   2.469
14122TIP3   OH242306   0.080   0.616   1.564
14122TIP3    H142307   0.019   0.547   1.539
14122TIP3    H242308   0.060   0.688   1.505
14123TIP3   OH242309   6.308   4.537   0.795
14123TIP3    H142310   6.219   4.540   0.760
14123TIP3    H242311   6.344   4.624   0.777
14124TIP3   OH242312   6.247   2.526   2.321
14124TIP3    H142313   6.297   2.603   2.295
14124TIP3    H242314   6.311   2.456   2.325
14125TIP3   OH242315   1.818   2.756   2.173
14125TIP3    H142316   1.898   2.717   2.138
14125TIP3    H242317   1.838   2.850   2.178
14126TIP3   OH242318   1.244   1.464   1.659
14126TIP3    H142319   1.159   1.423   1.672
14126TIP3    H242320   1.250   1.531   1.727
14127TIP3   OH242321   6.232   3.527   0.952
14127TIP3    H142322   6.149   3.534   0.905
14127TIP3    H242323   6.229   3.441   0.994
14128TIP3   OH242324   3.489   4.626   2.306
14128TIP3    H142325   3.583   4.634   2.292
14128TIP3    H242326   3.472   4.673   2.388
14129TIP3   OH242327   6.045   6.476   0.645
14129TIP3    H142328   6.081   6.388   0.634
14129TIP3    H242329   5.963   6.461   0.693
14130TIP3   OH242330   1.806   1.578   5.281
14130TIP3    H142331   1.799   1.658   5.333
14130TIP3    H242332   1.785   1.507   5.341
14131TIP3   OH242333   0.308   5.077   3.503
14131TIP3    H142334   0.368   5.004   3.488
14131TIP3    H242335   0.234   5.059   3.445
14132TIP3   OH242336   2.634   3.342   4.615
14132TIP3    H142337   2.617   3.436   4.609
14132TIP3    H242338   2.633   3.323   4.708
14133TIP3   OH242339   2.955   7.649   0.017
14133TIP3    H142340   2.973   7.587  -0.054
14133TIP3    H242341   3.023   7.716   0.008
14134TIP3   OH242342   2.522   0.304   3.653
14134TIP3    H142343   2.526   0.284   3.746
14134TIP3    H242344   2.480   0.227   3.614
14135TIP3   OH242345   7.645   4.403   5.758
14135TIP3    H142346   7.595   4.406   5.676
14135TIP3    H242347   7.581   4.373   5.824
14136TIP3   OH242348   1.210   1.721   0.278
14136TIP3    H142349   1.264   1.741   0.354
14136TIP3    H242350   1.273   1.712   0.206
14137TIP3   OH242351   0.786   2.062   1.394
14137TIP3    H142352   0.709   2.042   1.341
14137TIP3    H242353   0.816   1.977   1.426
14138TIP3   OH242354   3.773   2.644   1.408
14138TIP3    H142355   3.832   2.573   1.384
14138TIP3    H242356   3.688   2.602   1.420
14139TIP3   OH242357   6.597   3.900   2.499
14139TIP3    H142358   6.538   3.861   2.435
14139TIP3    H242359   6.684   3.867   2.476
14140TIP3   OH242360   1.657   3.571   2.673
14140TIP3    H142361   1.590   3.502   2.671
14140TIP3    H242362   1.614   3.645   2.717
14141TIP3   OH242363   6.626   1.383   2.137
14141TIP3    H142364   6.585   1.303   2.167
14141TIP3    H242365   6.609   1.447   2.206
14142TIP3   OH242366   6.837   0.444   3.585
14142TIP3    H142367   6.759   0.400   3.619
14142TIP3    H242368   6.841   0.419   3.492
14143TIP3   OH242369   0.884   5.704   2.746
14143TIP3    H142370   0.884   5.667   2.834
14143TIP3    H242371   0.965   5.755   2.742
14144TIP3   OH242372   7.785   6.228   4.716
14144TIP3    H142373   7.700   6.272   4.713
14144TIP3    H242374   7.784   6.170   4.640
14145TIP3   OH242375   3.236   0.845   6.048
14145TIP3    H142376   3.187   0.905   6.103
14145TIP3    H242377   3.300   0.900   6.003
14146TIP3   OH242378   2.323   0.225   2.041
14146TIP3    H142379   2.274   0.147   2.065
14146TIP3    H242380   2.288   0.251   1.956
14147TIP3   OH242381   4.719   5.667   4.930
14147TIP3    H142382   4.764   5.679   4.846
14147TIP3    H242383   4.788   5.678   4.996
14148TIP3   OH242384   6.950   7.716   4.059
14148TIP3    H142385   6.971   7.628   4.090
14148TIP3    H242386   6.855   7.713   4.045
14149TIP3   OH242387   4.059   1.030   3.368
14149TIP3    H142388   4.144   0.987   3.375
14149TIP3    H242389   4.072   1.115   3.409
14150TIP3   OH242390   5.572   1.864   4.749
14150TIP3    H142391   5.480   1.886   4.738
14150TIP3    H242392   5.591   1.886   4.840
14151TIP3   OH242393   5.360   7.839   3.998
14151TIP3    H142394   5.316   7.756   3.980
14151TIP3    H242395   5.300   7.905   3.966
14152TIP3   OH242396   6.723   0.078   3.251
14152TIP3    H142397   6.725  -0.010   3.291
14152TIP3    H242398   6.745   0.063   3.159
14153TIP3   OH242399   4.423   4.766   5.933
14153TIP3    H142400   4.431   4.835   5.868
14153TIP3    H242401   4.474   4.796   6.008
14154TIP3   OH242402   3.005   4.638   3.446
14154TIP3    H142403   3.036   4.597   3.366
14154TIP3    H242404   3.059   4.600   3.515
14155TIP3   OH242405   3.930   3.644   3.515
14155TIP3    H142406   4.024   3.627   3.512
14155TIP3    H242407   3.891   3.571   3.467
14156TIP3   OH242408   3.108   4.847   5.606
14156TIP3    H142409   3.158   4.823   5.684
14156TIP3    H242410   3.111   4.769   5.551
14157TIP3   OH242411   7.640   0.945   5.155
14157TIP3    H142412   7.611   1.034   5.175
14157TIP3    H242413   7.701   0.923   5.225
14158TIP3   OH242414   4.762   2.148   0.815
14158TIP3    H142415   4.677   2.169   0.778
14158TIP3    H242416   4.809   2.232   0.818
14159TIP3   OH242417   1.263   0.834   3.674
14159TIP3    H142418   1.185   0.880   3.706
14159TIP3    H242419   1.273   0.759   3.734
14160TIP3   OH242420   3.186   6.728   4.094
14160TIP3    H142421   3.095   6.722   4.125
14160TIP3    H242422   3.201   6.645   4.049
14161TIP3   OH242423   6.290   7.036   1.111
14161TIP3    H142424   6.203   7.001   1.092
14161TIP3    H242425   6.347   7.000   1.044
14162TIP3   OH242426   2.716   4.132   1.833
14162TIP3    H142427   2.730   4.209   1.778
14162TIP3    H242428   2.695   4.167   1.920
14163TIP3   OH242429   5.464   2.713   2.149
14163TIP3    H142430   5.497   2.792   2.192
14163TIP3    H242431   5.438   2.656   2.221
14164TIP3   OH242432   7.208   5.708   4.353
14164TIP3    H142433   7.186   5.759   4.275
14164TIP3    H242434   7.287   5.751   4.388
14165TIP3   OH242435   0.871   4.828   5.283
14165TIP3    H142436   0.817   4.844   5.205
14165TIP3    H242437   0.828   4.755   5.327
14166TIP3   OH242438   1.957   4.655   1.468
14166TIP3    H142439   1.913   4.579   1.431
14166TIP3    H242440   2.004   4.621   1.544
14167TIP3   OH242441   8.070   3.504   1.504
14167TIP3    H142442   7.989   3.533   1.546
14167TIP3    H242443   8.065   3.539   1.415
14168TIP3   OH242444   3.239   4.456   3.694
14168TIP3    H142445   3.162   4.402   3.713
14168TIP3    H242446   3.213   4.544   3.720
14169TIP3   OH242447   1.659   5.872   1.436
14169TIP3    H142448   1.703   5.944   1.391
14169TIP3    H242449   1.611   5.827   1.367
14170TIP3   OH242450   0.933   4.246   1.818
14170TIP3    H142451   0.925   4.334   1.854
14170TIP3    H242452   0.863   4.240   1.753
14171TIP3   OH242453   4.685   1.447   6.718
14171TIP3    H142454   4.769   1.418   6.681
14171TIP3    H242455   4.706   1.527   6.766
14172TIP3   OH242456   7.518   0.252   5.723
14172TIP3    H142457   7.493   0.310   5.795
14172TIP3    H242458   7.440   0.198   5.708
14173TIP3   OH242459   3.940   4.946   0.527
14173TIP3    H142460   4.025   4.988   0.537
14173TIP3    H242461   3.961   4.853   0.516
14174TIP3   OH242462   7.366   6.847   6.075
14174TIP3    H142463   7.454   6.816   6.094
14174TIP3    H242464   7.338   6.892   6.155
14175TIP3   OH242465   5.827   6.993   2.069
14175TIP3    H142466   5.893   7.062   2.063
14175TIP3    H242467   5.778   7.000   1.987
14176TIP3   OH242468   0.139   1.552   4.615
14176TIP3    H142469   0.193   1.625   4.646
14176TIP3    H242470   0.051   1.573   4.646
14177TIP3   OH242471   3.821   6.368   6.590
14177TIP3    H142472   3.787   6.458   6.587
14177TIP3    H242473   3.771   6.321   6.522
14178TIP3   OH242474   1.383   3.879   0.340
14178TIP3    H142475   1.372   3.974   0.347
14178TIP3    H242476   1.478   3.865   0.343
14179TIP3   OH242477   4.731   5.209   4.798
14179TIP3    H142478   4.769   5.287   4.759
14179TIP3    H242479   4.718   5.149   4.725
14180TIP3   OH242480   4.745   5.548   1.298
14180TIP3    H142481   4.654   5.573   1.317
14180TIP3    H242482   4.745   5.453   1.307
14181TIP3   OH242483   5.894   5.305   6.854
14181TIP3    H142484   5.982   5.287   6.821
14181TIP3    H242485   5.876   5.395   6.828
14182TIP3   OH242486   8.353   2.748   3.374
14182TIP3    H142487   8.422   2.759   3.309
14182TIP3    H242488   8.345   2.653   3.385
14183TIP3   OH242489   8.343   7.002   3.480
14183TIP3    H142490   8.324   7.095   3.477
14183TIP3    H242491   8.262   6.960   3.450
14184TIP3   OH242492   2.343   1.411   2.098
14184TIP3    H142493   2.267   1.355   2.116
14184TIP3    H242494   2.320   1.496   2.136
14185TIP3   OH242495   2.222   0.986   1.959
14185TIP3    H142496   2.147   1.041   1.937
14185TIP3    H242497   2.295   1.047   1.965
14186TIP3   OH242498   3.670   2.512   0.818
14186TIP3    H142499   3.620   2.459   0.880
14186TIP3    H242500   3.615   2.514   0.739
14187TIP3   OH242501   6.315   5.806   2.180
14187TIP3    H142502   6.399   5.853   2.178
14187TIP3    H242503   6.250   5.874   2.198
14188TIP3   OH242504   7.212   2.892   4.148
14188TIP3    H142505   7.297   2.917   4.114
14188TIP3    H242506   7.203   2.800   4.126
14189TIP3   OH242507   2.770   2.156   3.718
14189TIP3    H142508   2.814   2.237   3.693
14189TIP3    H242509   2.694   2.184   3.768
14190TIP3   OH242510   3.584   7.310   6.476
14190TIP3    H142511   3.581   7.223   6.515
14190TIP3    H242512   3.654   7.305   6.411
14191TIP3   OH242513   8.103   5.585   0.058
14191TIP3    H142514   8.184   5.570   0.009
14191TIP3    H242515   8.110   5.527   0.134
14192TIP3   OH242516   0.221   6.792   3.119
14192TIP3    H142517   0.231   6.867   3.177
14192TIP3    H242518   0.150   6.816   3.060
14193TIP3   OH242519   4.523   0.766   3.035
14193TIP3    H142520   4.511   0.705   2.963
14193TIP3    H242521   4.566   0.714   3.103
14194TIP3   OH242522   7.322   0.127   0.944
14194TIP3    H142523   7.412   0.104   0.966
14194TIP3    H242524   7.317   0.221   0.961
14195TIP3   OH242525   2.526   0.759   5.285
14195TIP3    H142526   2.619   0.764   5.263
14195TIP3    H242527   2.485   0.721   5.207
14196TIP3   OH242528   8.327   7.381   3.462
14196TIP3    H142529   8.389   7.350   3.396
14196TIP3    H242530   8.293   7.463   3.427
14197TIP3   OH242531   1.766   6.992   5.196
14197TIP3    H142532   1.857   7.020   5.207
14197TIP3    H242533   1.714   7.058   5.241
14198TIP3   OH242534   7.413   1.571   4.471
14198TIP3    H142535   7.341   1.601   4.527
14198TIP3    H242536   7.452   1.498   4.520
14199TIP3   OH242537   0.138   7.162   2.976
14199TIP3    H142538   0.131   7.104   3.051
14199TIP3    H242539   0.225   7.145   2.940
14200TIP3   OH242540   0.158   5.264   5.490
14200TIP3    H142541   0.095   5.330   5.460
14200TIP3    H242542   0.160   5.274   5.585
14201TIP3   OH242543   1.332   0.702   1.529
14201TIP3    H142544   1.274   0.757   1.582
14201TIP3    H242545   1.378   0.648   1.592
14202TIP3   OH242546   5.476   3.945   0.323
14202TIP3    H142547   5.444   3.935   0.233
14202TIP3    H242548   5.568   3.970   0.313
14203TIP3   OH242549   7.640   5.453   5.355
14203TIP3    H142550   7.728   5.416   5.344
14203TIP3    H242551   7.644   5.538   5.309
14204TIP3   OH242552   2.102   0.089   0.642
14204TIP3    H142553   2.065   0.126   0.562
14204TIP3    H242554   2.036   0.026   0.672
14205TIP3   OH242555   1.506   1.454   2.447
14205TIP3    H142556   1.498   1.547   2.470
14205TIP3    H242557   1.415   1.426   2.432
14206TIP3   OH242558   0.084   0.754   3.300
14206TIP3    H142559   0.136   0.676   3.281
14206TIP3    H242560   0.126   0.792   3.377
14207TIP3   OH242561   4.352   5.393   3.340
14207TIP3    H142562   4.345   5.460   3.409
14207TIP3    H242563   4.265   5.353   3.337
14208TIP3   OH242564   2.782   3.051   1.595
14208TIP3    H142565   2.860   3.012   1.555
14208TIP3    H242566   2.710   2.994   1.569
14209TIP3   OH242567   3.457   0.726   2.490
14209TIP3    H142568   3.513   0.656   2.525
14209TIP3    H242569   3.512   0.770   2.426
14210TIP3   OH242570   4.191   4.548   2.257
14210TIP3    H142571   4.260   4.546   2.191
14210TIP3    H242572   4.221   4.613   2.320
14211TIP3   OH242573   8.263   4.669   2.903
14211TIP3    H142574   8.356   4.681   2.923
14211TIP3    H242575   8.241   4.583   2.940
14212TIP3   OH242576   0.478   7.698   2.876
14212TIP3    H142577   0.442   7.752   2.807
14212TIP3    H242578   0.508   7.619   2.831
14213TIP3   OH242579   5.179  -0.013   4.794
14213TIP3    H142580   5.195  -0.052   4.708
14213TIP3    H242581   5.170   0.081   4.777
14214TIP3   OH242582   0.972   1.411   1.024
14214TIP3    H142583   0.912   1.360   0.969
14214TIP3    H242584   1.057   1.404   0.979
14215TIP3   OH242585   1.137   0.617   4.998
14215TIP3    H142586   1.172   0.706   4.990
14215TIP3    H242587   1.058   0.617   4.945
14216TIP3   OH242588   4.757   5.257   1.388
14216TIP3    H142589   4.824   5.261   1.456
14216TIP3    H242590   4.725   5.167   1.392
14217TIP3   OH242591   4.784   7.741   2.511
14217TIP3    H142592   4.771   7.805   2.581
14217TIP3    H242593   4.739   7.778   2.436
14218TIP3   OH242594   5.065   2.051   3.610
14218TIP3    H142595   5.040   2.125   3.555
14218TIP3    H242596   4.984   2.005   3.627
14219TIP3   OH242597   1.008   0.168   1.725
14219TIP3    H142598   1.000   0.089   1.673
14219TIP3    H242599   1.013   0.137   1.815
14220TIP3   OH242600   4.282   0.554   6.173
14220TIP3    H142601   4.281   0.499   6.094
14220TIP3    H242602   4.271   0.643   6.140
14221TIP3   OH242603   2.605   7.573   6.324
14221TIP3    H142604   2.684   7.602   6.279
14221TIP3    H242605   2.629   7.574   6.417
14222TIP3   OH242606   5.380   0.639   0.703
14222TIP3    H142607   5.313   0.701   0.731
14222TIP3    H242608   5.347   0.602   0.621
14223TIP3   OH242609   6.754   7.458   1.593
14223TIP3    H142610   6.718   7.524   1.533
14223TIP3    H242611   6.848   7.457   1.574
14224TIP3   OH242612   3.798   1.928   6.718
14224TIP3    H142613   3.775   1.837   6.699
14224TIP3    H242614   3.894   1.928   6.722
14225TIP3   OH242615   1.654   3.962   4.444
14225TIP3    H142616   1.588   3.922   4.500
14225TIP3    H242617   1.710   4.011   4.504
14226TIP3   OH242618   7.851   3.939   6.836
14226TIP3    H142619   7.807   3.859   6.864
14226TIP3    H242620   7.797   3.972   6.764
14227TIP3   OH242621   7.919   4.443   3.116
14227TIP3    H142622   7.920   4.456   3.210
14227TIP3    H242623   7.895   4.351   3.105
14228TIP3   OH242624   7.058   3.656   3.979
14228TIP3    H142625   7.076   3.734   3.927
14228TIP3    H242626   7.058   3.687   4.070
14229TIP3   OH242627   5.987   0.350   4.984
14229TIP3    H142628   6.061   0.397   4.945
14229TIP3    H242629   5.962   0.404   5.059
14230TIP3   OH242630   4.797   2.678   6.857
14230TIP3    H142631   4.875   2.628   6.883
14230TIP3    H242632   4.827   2.738   6.790
14231TIP3   OH242633   0.817   1.428   0.592
14231TIP3    H142634   0.875   1.494   0.554
14231TIP3    H242635   0.858   1.406   0.676
14232TIP3   OH242636   5.853   6.895   1.735
14232TIP3    H142637   5.915   6.966   1.749
14232TIP3    H242638   5.802   6.922   1.659
14233TIP3   OH242639   2.405   3.520   4.171
14233TIP3    H142640   2.351   3.451   4.210
14233TIP3    H242641   2.388   3.514   4.077
14234TIP3   OH242642   0.206   1.688   5.572
14234TIP3    H142643   0.159   1.617   5.615
14234TIP3    H242644   0.233   1.746   5.643
14235TIP3   OH242645   0.656   1.121   6.351
14235TIP3    H142646   0.620   1.103   6.264
14235TIP3    H242647   0.621   1.207   6.374
14236TIP3   OH242648   2.046   6.905   3.763
14236TIP3    H142649   2.100   6.985   3.767
14236TIP3    H242650   2.096   6.840   3.812
14237TIP3   OH242651   5.045   4.443   1.603
14237TIP3    H142652   5.125   4.495   1.595
14237TIP3    H242653   4.989   4.494   1.661
14238TIP3   OH242654   7.467   1.084   3.877
14238TIP3    H142655   7.524   1.146   3.920
14238TIP3    H242656   7.382   1.094   3.920
14239TIP3   OH242657   4.613   0.273   4.270
14239TIP3    H142658   4.653   0.360   4.266
14239TIP3    H242659   4.559   0.275   4.349
14240TIP3   OH242660   2.652   7.823   1.956
14240TIP3    H142661   2.651   7.848   2.048
14240TIP3    H242662   2.657   7.906   1.909
14241TIP3   OH242663   6.574   2.858   4.583
14241TIP3    H142664   6.662   2.896   4.583
14241TIP3    H242665   6.577   2.792   4.652
14242TIP3   OH242666   5.529   5.663   6.052
14242TIP3    H142667   5.482   5.587   6.085
14242TIP3    H242668   5.507   5.733   6.114
14243TIP3   OH242669   4.391   0.274   3.810
14243TIP3    H142670   4.429   0.228   3.885
14243TIP3    H242671   4.296   0.266   3.822
14244TIP3   OH242672   4.600   7.551   1.930
14244TIP3    H142673   4.623   7.487   1.862
14244TIP3    H242674   4.507   7.538   1.945
14245TIP3   OH242675   2.666   3.994   2.712
14245TIP3    H142676   2.690   3.910   2.672
14245TIP3    H242677   2.687   4.059   2.645
14246TIP3   OH242678   8.071   3.390   6.082
14246TIP3    H142679   8.054   3.413   5.990
14246TIP3    H242680   8.082   3.295   6.081
14247TIP3   OH242681   6.958   2.175   3.332
14247TIP3    H142682   7.009   2.094   3.334
14247TIP3    H242683   6.931   2.188   3.423
14248TIP3   OH242684   4.739   1.994   1.082
14248TIP3    H142685   4.806   1.926   1.077
14248TIP3    H242686   4.718   2.014   0.990
14249TIP3   OH242687   1.335   5.319   5.173
14249TIP3    H142688   1.331   5.370   5.254
14249TIP3    H242689   1.428   5.299   5.162
14250TIP3   OH242690   1.671   6.164   3.442
14250TIP3    H142691   1.683   6.070   3.455
14250TIP3    H242692   1.639   6.196   3.527
14251TIP3   OH242693   3.349   0.151   0.800
14251TIP3    H142694   3.354   0.066   0.756
14251TIP3    H242695   3.410   0.207   0.750
14252TIP3   OH242696   3.123   7.035   2.488
14252TIP3    H142697   3.046   7.071   2.445
14252TIP3    H242698   3.158   7.107   2.540
14253TIP3   OH242699   1.185   7.231   4.583
14253TIP3    H142700   1.214   7.141   4.571
14253TIP3    H242701   1.203   7.273   4.499
14254TIP3   OH242702   2.077   4.214   2.794
14254TIP3    H142703   2.129   4.246   2.721
14254TIP3    H242704   2.080   4.285   2.859
14255TIP3   OH242705   3.123   0.900   5.275
14255TIP3    H142706   3.118   0.937   5.363
14255TIP3    H242707   3.198   0.944   5.235
14256TIP3   OH242708   1.054   0.904   3.857
14256TIP3    H142709   1.028   0.951   3.935
14256TIP3    H242710   1.022   0.815   3.871
14257TIP3   OH242711   2.336   2.415   6.034
14257TIP3    H142712   2.405   2.366   6.080
14257TIP3    H242713   2.311   2.485   6.094
14258TIP3   OH242714   4.076   7.733   4.468
14258TIP3    H142715   4.142   7.665   4.483
14258TIP3    H242716   4.014   7.723   4.540
14259TIP3   OH242717   5.884   6.967   5.585
14259TIP3    H142718   5.960   6.980   5.530
14259TIP3    H242719   5.816   6.936   5.526
14260TIP3   OH242720   3.388   5.603   3.965
14260TIP3    H142721   3.390   5.576   4.056
14260TIP3    H242722   3.479   5.598   3.936
14261TIP3   OH242723   5.979   1.765   1.051
14261TIP3    H142724   5.977   1.730   0.962
14261TIP3    H242725   6.050   1.718   1.094
14262TIP3   OH242726   5.512   7.901   3.728
14262TIP3    H142727   5.594   7.855   3.747
14262TIP3    H242728   5.474   7.918   3.814
14263TIP3   OH242729   6.507   3.446   1.081
14263TIP3    H142730   6.530   3.478   0.994
14263TIP3    H242731   6.568   3.491   1.140
14264TIP3   OH242732   6.242   7.203   3.001
14264TIP3    H142733   6.298   7.135   3.039
14264TIP3    H242734   6.293   7.238   2.928
14265TIP3   OH242735   5.056   6.372   2.008
14265TIP3    H142736   5.038   6.343   2.098
14265TIP3    H242737   5.113   6.448   2.018
14266TIP3   OH242738   1.518   1.733   5.170
14266TIP3    H142739   1.540   1.813   5.123
14266TIP3    H242740   1.602   1.690   5.185
14267TIP3   OH242741   2.877   0.144   0.451
14267TIP3    H142742   2.784   0.131   0.432
14267TIP3    H242743   2.922   0.074   0.403
14268TIP3   OH242744   6.278   2.154   5.553
14268TIP3    H142745   6.193   2.130   5.591
14268TIP3    H242746   6.295   2.242   5.587
14269TIP3   OH242747   8.005   0.375   2.978
14269TIP3    H142748   7.983   0.308   3.042
14269TIP3    H242749   8.024   0.453   3.031
14270TIP3   OH242750   4.602   3.310   3.546
14270TIP3    H142751   4.539   3.380   3.528
14270TIP3    H242752   4.603   3.304   3.642
14271TIP3   OH242753   8.277   7.279   5.840
14271TIP3    H142754   8.354   7.325   5.806
14271TIP3    H242755   8.211   7.289   5.771
14272TIP3   OH242756   4.982   5.467   1.176
14272TIP3    H142757   4.911   5.528   1.199
14272TIP3    H242758   4.947   5.416   1.103
14273TIP3   OH242759   7.846   6.896   5.813
14273TIP3    H142760   7.925   6.944   5.834
14273TIP3    H242761   7.784   6.920   5.882
14274TIP3   OH242762   3.683   3.816   4.541
14274TIP3    H142763   3.773   3.849   4.535
14274TIP3    H242764   3.629   3.894   4.553
14275TIP3   OH242765   3.417   5.214   2.145
14275TIP3    H142766   3.416   5.223   2.240
14275TIP3    H242767   3.336   5.167   2.124
14276TIP3   OH242768   2.751   7.323   1.639
14276TIP3    H142769   2.760   7.416   1.659
14276TIP3    H242770   2.836   7.297   1.605
14277TIP3   OH242771   6.219   0.834   5.988
14277TIP3    H142772   6.137   0.795   6.018
14277TIP3    H242773   6.276   0.832   6.065
14278TIP3   OH242774   1.148   5.171   0.190
14278TIP3    H142775   1.241   5.182   0.205
14278TIP3    H242776   1.108   5.252   0.221
14279TIP3   OH242777   1.583   3.032   0.542
14279TIP3    H142778   1.573   3.040   0.637
14279TIP3    H242779   1.494   3.027   0.508
14280TIP3   OH242780   2.192   6.742   2.864
14280TIP3    H142781   2.151   6.816   2.818
14280TIP3    H242782   2.163   6.751   2.954
14281TIP3   OH242783   0.454   3.961   3.587
14281TIP3    H142784   0.415   4.036   3.543
14281TIP3    H242785   0.380   3.905   3.610
14282TIP3   OH242786   7.420   3.061   3.147
14282TIP3    H142787   7.413   3.055   3.243
14282TIP3    H242788   7.467   2.982   3.122
14283TIP3   OH242789   5.579   4.246   6.811
14283TIP3    H142790   5.497   4.201   6.827
14283TIP3    H242791   5.602   4.222   6.721
14284TIP3   OH242792   5.469   7.543   1.892
14284TIP3    H142793   5.468   7.565   1.799
14284TIP3    H242794   5.536   7.475   1.899
14285TIP3   OH242795   5.391   5.471   0.233
14285TIP3    H142796   5.381   5.495   0.141
14285TIP3    H242797   5.331   5.530   0.280
14286TIP3   OH242798   4.278   0.303   4.302
14286TIP3    H142799   4.206   0.335   4.356
14286TIP3    H242800   4.340   0.265   4.365
14287TIP3   OH242801   4.206   2.306   1.374
14287TIP3    H142802   4.193   2.292   1.468
14287TIP3    H242803   4.211   2.218   1.337
14288TIP3   OH242804   0.478   1.730   2.717
14288TIP3    H142805   0.493   1.698   2.805
14288TIP3    H242806   0.548   1.794   2.702
14289TIP3   OH242807   2.885   5.993   4.416
14289TIP3    H142808   2.968   6.022   4.454
14289TIP3    H242809   2.833   5.964   4.491
14290TIP3   OH242810   4.766   0.407   4.002
14290TIP3    H142811   4.821   0.441   3.932
14290TIP3    H242812   4.684   0.381   3.958
14291TIP3   OH242813   6.148   5.450   5.267
14291TIP3    H142814   6.184   5.448   5.179
14291TIP3    H242815   6.154   5.543   5.293
14292TIP3   OH242816   1.368   5.690   2.751
14292TIP3    H142817   1.291   5.746   2.764
14292TIP3    H242818   1.438   5.752   2.729
14293TIP3   OH242819   6.419   0.655   1.960
14293TIP3    H142820   6.422   0.714   2.035
14293TIP3    H242821   6.398   0.712   1.886
14294TIP3   OH242822   4.345   6.049   5.994
14294TIP3    H142823   4.425   6.009   6.028
14294TIP3    H242824   4.366   6.142   5.985
14295TIP3   OH242825   8.187   0.104   3.412
14295TIP3    H142826   8.150   0.192   3.404
14295TIP3    H242827   8.110   0.046   3.419
14296TIP3   OH242828   7.127   4.000   6.709
14296TIP3    H142829   7.049   3.945   6.706
14296TIP3    H242830   7.094   4.090   6.709
14297TIP3   OH242831   1.204   0.789   4.378
14297TIP3    H142832   1.162   0.873   4.360
14297TIP3    H242833   1.283   0.789   4.324
14298TIP3   OH242834   7.810   7.212   0.213
14298TIP3    H142835   7.790   7.250   0.299
14298TIP3    H242836   7.761   7.130   0.211
14299TIP3   OH242837   1.448   2.621   6.486
14299TIP3    H142838   1.530   2.644   6.529
14299TIP3    H242839   1.436   2.688   6.419
14300TIP3   OH242840   0.874   0.604   4.893
14300TIP3    H142841   0.809   0.535   4.901
14300TIP3    H242842   0.896   0.606   4.800
14301TIP3   OH242843   1.734   2.724   3.059
14301TIP3    H142844   1.786   2.804   3.066
14301TIP3    H242845   1.789   2.656   3.099
14302TIP3   OH242846   1.660   3.027   6.829
14302TIP3    H142847   1.753   3.004   6.822
14302TIP3    H242848   1.632   2.984   6.910
14303TIP3   OH242849   4.474   4.019   4.729
14303TIP3    H142850   4.484   4.024   4.634
14303TIP3    H242851   4.407   3.953   4.743
14304TIP3   OH242852   4.922   3.888   5.884
14304TIP3    H142853   4.924   3.983   5.880
14304TIP3    H242854   4.834   3.867   5.917
14305TIP3   OH242855   0.454   6.897   1.084
14305TIP3    H142856   0.385   6.831   1.088
14305TIP3    H242857   0.505   6.884   1.164
14306TIP3   OH242858   5.927   7.859   1.921
14306TIP3    H142859   5.838   7.834   1.896
14306TIP3    H242860   5.964   7.781   1.963
14307TIP3   OH242861   4.786   2.836   4.000
14307TIP3    H142862   4.791   2.828   3.905
14307TIP3    H242863   4.855   2.898   4.023
14308TIP3   OH242864   1.357   6.887   1.763
14308TIP3    H142865   1.427   6.929   1.814
14308TIP3    H242866   1.280   6.941   1.779
14309TIP3   OH242867   7.276   1.168   4.938
14309TIP3    H142868   7.220   1.104   4.980
14309TIP3    H242869   7.247   1.252   4.973
14310TIP3   OH242870   7.849   0.980   5.338
14310TIP3    H142871   7.804   1.026   5.410
14310TIP3    H242872   7.896   0.908   5.381
14311TIP3   OH242873   2.720   1.073   4.979
14311TIP3    H142874   2.777   1.076   5.056
14311TIP3    H242875   2.700   1.165   4.960
14312TIP3   OH242876   0.295   6.603   0.842
14312TIP3    H142877   0.286   6.508   0.851
14312TIP3    H242878   0.390   6.617   0.841
14313TIP3   OH242879   2.123   1.336   4.223
14313TIP3    H142880   2.133   1.378   4.138
14313TIP3    H242881   2.189   1.266   4.225
14314TIP3   OH242882   5.007   6.145   6.760
14314TIP3    H142883   5.041   6.055   6.768
14314TIP3    H242884   4.985   6.155   6.668
14315TIP3   OH242885   2.236   2.518   5.158
14315TIP3    H142886   2.296   2.444   5.169
14315TIP3    H242887   2.155   2.478   5.128
14316TIP3   OH242888   3.138   6.120   3.131
14316TIP3    H142889   3.117   6.165   3.213
14316TIP3    H242890   3.052   6.101   3.093
14317TIP3   OH242891   5.971   3.862   1.356
14317TIP3    H142892   6.009   3.939   1.313
14317TIP3    H242893   5.971   3.795   1.288
14318TIP3   OH242894   8.183   2.732   4.256
14318TIP3    H142895   8.210   2.816   4.293
14318TIP3    H242896   8.188   2.744   4.161
14319TIP3   OH242897   3.127   5.397   2.178
14319TIP3    H142898   3.142   5.487   2.149
14319TIP3    H242899   3.133   5.401   2.274
14320TIP3   OH242900   2.042   6.254   5.844
14320TIP3    H142901   2.088   6.326   5.887
14320TIP3    H242902   2.008   6.201   5.917
14321TIP3   OH242903   6.118   5.886   4.682
14321TIP3    H142904   6.090   5.797   4.703
14321TIP3    H242905   6.073   5.906   4.600
14322TIP3   OH242906   2.726   5.106   0.232
14322TIP3    H142907   2.787   5.038   0.262
14322TIP3    H242908   2.643   5.060   0.222
14323TIP3   OH242909  -0.055   1.541   0.114
14323TIP3    H142910  -0.005   1.623   0.111
14323TIP3    H242911  -0.042   1.508   0.203
14324TIP3   OH242912   6.102   4.911   2.234
14324TIP3    H142913   6.027   4.958   2.196
14324TIP3    H242914   6.154   4.884   2.158
14325TIP3   OH242915   0.695   4.713   1.134
14325TIP3    H142916   0.741   4.696   1.051
14325TIP3    H242917   0.752   4.677   1.201
14326TIP3   OH242918   6.493   0.593   0.410
14326TIP3    H142919   6.559   0.523   0.416
14326TIP3    H242920   6.539   0.671   0.441
14327TIP3   OH242921   7.650   6.449   2.378
14327TIP3    H142922   7.730   6.499   2.356
14327TIP3    H242923   7.579   6.510   2.358
14328TIP3   OH242924   3.649   3.701   1.263
14328TIP3    H142925   3.627   3.678   1.173
14328TIP3    H242926   3.626   3.623   1.314
14329TIP3   OH242927   6.552   0.494   5.527
14329TIP3    H142928   6.493   0.421   5.509
14329TIP3    H242929   6.494   0.570   5.531
14330TIP3   OH242930   5.668   5.599   2.708
14330TIP3    H142931   5.639   5.687   2.682
14330TIP3    H242932   5.764   5.607   2.712
14331TIP3   OH242933   3.180   2.513   5.589
14331TIP3    H142934   3.183   2.419   5.573
14331TIP3    H242935   3.090   2.531   5.614
14332TIP3   OH242936   4.742   2.159   2.794
14332TIP3    H142937   4.788   2.191   2.717
14332TIP3    H242938   4.783   2.206   2.867
14333TIP3   OH242939   1.433   1.574   0.382
14333TIP3    H142940   1.483   1.561   0.301
14333TIP3    H242941   1.435   1.489   0.426
14334TIP3   OH242942   4.308   2.155   0.423
14334TIP3    H142943   4.337   2.099   0.495
14334TIP3    H242944   4.291   2.240   0.465
14335TIP3   OH242945   1.223   7.120   0.666
14335TIP3    H142946   1.261   7.207   0.675
14335TIP3    H242947   1.281   7.063   0.716
14336TIP3   OH242948   0.919   1.131   2.384
14336TIP3    H142949   0.835   1.090   2.366
14336TIP3    H242950   0.922   1.140   2.479
14337TIP3   OH242951   6.669   5.266   0.331
14337TIP3    H142952   6.585   5.295   0.365
14337TIP3    H242953   6.661   5.273   0.236
14338TIP3   OH242954   0.153   7.718   0.240
14338TIP3    H142955   0.147   7.632   0.200
14338TIP3    H242956   0.161   7.779   0.167
14339TIP3   OH242957   4.497   6.558   6.351
14339TIP3    H142958   4.511   6.652   6.335
14339TIP3    H242959   4.583   6.526   6.380
14340TIP3   OH242960   2.991   2.920   1.475
14340TIP3    H142961   3.064   2.860   1.491
14340TIP3    H242962   2.939   2.877   1.406
14341TIP3   OH242963   3.627   5.550   3.833
14341TIP3    H142964   3.557   5.536   3.768
14341TIP3    H242965   3.678   5.623   3.797
14342TIP3   OH242966   1.285   0.305   6.559
14342TIP3    H142967   1.324   0.327   6.475
14342TIP3    H242968   1.291   0.210   6.565
14343TIP3   OH242969   2.716   3.390   6.174
14343TIP3    H142970   2.771   3.468   6.185
14343TIP3    H242971   2.701   3.359   6.264
14344TIP3   OH242972   4.100   6.495   6.028
14344TIP3    H142973   4.048   6.550   6.086
14344TIP3    H242974   4.040   6.426   5.999
14345TIP3   OH242975   5.621   0.266   2.554
14345TIP3    H142976   5.639   0.193   2.613
14345TIP3    H242977   5.541   0.306   2.590
14346TIP3   OH242978   3.813   6.574   3.329
14346TIP3    H142979   3.751   6.510   3.293
14346TIP3    H242980   3.880   6.522   3.371
14347TIP3   OH242981   0.029   7.384   3.203
14347TIP3    H142982   0.119   7.416   3.201
14347TIP3    H242983   0.030   7.308   3.144
14348TIP3   OH242984   1.901   3.632   2.993
14348TIP3    H142985   1.824   3.576   2.995
14348TIP3    H242986   1.873   3.710   2.946
14349TIP3   OH242987   2.767   7.843   0.119
14349TIP3    H142988   2.686   7.813   0.077
14349TIP3    H242989   2.837   7.805   0.066
14350TIP3   OH242990   2.469   5.920   0.811
14350TIP3    H142991   2.430   6.004   0.834
14350TIP3    H242992   2.434   5.900   0.724
14351TIP3   OH242993   7.048   7.750   2.292
14351TIP3    H142994   7.043   7.757   2.388
14351TIP3    H242995   6.996   7.672   2.272
14352TIP3   OH242996   3.768   2.997   4.772
14352TIP3    H142997   3.731   2.965   4.689
14352TIP3    H242998   3.832   3.064   4.745
14353TIP3   OH242999   5.390   0.031   5.269
14353TIP3    H143000   5.382   0.005   5.177
14353TIP3    H243001   5.476   0.072   5.275
14354TIP3   OH243002   3.108   2.241   4.762
14354TIP3    H143003   3.052   2.233   4.839
14354TIP3    H243004   3.197   2.230   4.796
14355TIP3   OH243005   1.957   6.504   3.144
14355TIP3    H143006   1.950   6.514   3.239
14355TIP3    H243007   1.899   6.572   3.109
14356TIP3   OH243008   1.162   1.367   6.411
14356TIP3    H143009   1.118   1.451   6.395
14356TIP3    H243010   1.145   1.349   6.504
14357TIP3   OH243011   7.701   4.672   4.580
14357TIP3    H143012   7.704   4.726   4.659
14357TIP3    H243013   7.759   4.716   4.519
14358TIP3   OH243014   6.111   2.648   2.060
14358TIP3    H143015   6.132   2.611   2.146
14358TIP3    H243016   6.055   2.723   2.080
14359TIP3   OH243017   7.815   3.182   2.238
14359TIP3    H143018   7.806   3.127   2.315
14359TIP3    H243019   7.835   3.269   2.272
14360TIP3   OH243020   5.271   6.437   0.151
14360TIP3    H143021   5.227   6.360   0.187
14360TIP3    H243022   5.212   6.510   0.170
14361TIP3   OH243023   7.586   3.696   2.560
14361TIP3    H143024   7.611   3.745   2.639
14361TIP3    H243025   7.584   3.605   2.588
14362TIP3   OH243026   2.080   2.334   3.014
14362TIP3    H143027   2.068   2.407   3.075
14362TIP3    H243028   2.002   2.336   2.958
14363TIP3   OH243029   6.370   5.957   5.997
14363TIP3    H143030   6.348   5.971   6.089
14363TIP3    H243031   6.295   5.993   5.949
14364TIP3   OH243032   4.956   3.525   5.183
14364TIP3    H143033   4.969   3.468   5.259
14364TIP3    H243034   4.997   3.479   5.111
14365TIP3   OH243035   4.390   0.650   5.164
14365TIP3    H143036   4.397   0.737   5.124
14365TIP3    H243037   4.466   0.602   5.131
14366TIP3   OH243038   0.606   5.761   3.540
14366TIP3    H143039   0.579   5.815   3.465
14366TIP3    H243040   0.530   5.763   3.598
14367TIP3   OH243041   1.246   2.669   6.649
14367TIP3    H143042   1.317   2.687   6.711
14367TIP3    H243043   1.287   2.615   6.582
14368TIP3   OH243044   7.662   6.180   1.359
14368TIP3    H143045   7.691   6.270   1.350
14368TIP3    H243046   7.613   6.179   1.442
14369TIP3   OH243047   6.525   1.650   4.452
14369TIP3    H143048   6.519   1.715   4.522
14369TIP3    H243049   6.615   1.618   4.456
14370TIP3   OH243050   1.479   0.182   0.910
14370TIP3    H143051   1.398   0.130   0.909
14370TIP3    H243052   1.509   0.179   1.000
14371TIP3   OH243053   0.975   0.206   0.301
14371TIP3    H143054   0.885   0.198   0.333
14371TIP3    H243055   1.020   0.130   0.337
14372TIP3   OH243056   5.847   5.797   2.873
14372TIP3    H143057   5.866   5.741   2.949
14372TIP3    H243058   5.882   5.749   2.798
14373TIP3   OH243059   3.439   5.795   2.024
14373TIP3    H143060   3.468   5.878   1.985
14373TIP3    H243061   3.417   5.740   1.949
14374TIP3   OH243062   6.808   6.430   1.664
14374TIP3    H143063   6.883   6.420   1.605
14374TIP3    H243064   6.786   6.523   1.658
14375TIP3   OH243065   4.157   4.109   5.886
14375TIP3    H143066   4.192   4.101   5.975
14375TIP3    H243067   4.229   4.146   5.835
14376TIP3   OH243068   6.208   1.370   2.588
14376TIP3    H143069   6.246   1.305   2.648
14376TIP3    H243070   6.283   1.419   2.556
14377TIP3   OH243071   0.030   4.700   3.661
14377TIP3    H143072   0.123   4.698   3.683
14377TIP3    H243073   0.009   4.609   3.638
14378TIP3   OH243074   0.031   6.782   2.418
14378TIP3    H143075   0.116   6.754   2.382
14378TIP3    H243076   0.037   6.760   2.511
14379TIP3   OH243077   3.491   7.473   3.017
14379TIP3    H143078   3.541   7.494   3.095
14379TIP3    H243079   3.481   7.557   2.971
14380TIP3   OH243080   7.734   6.690   4.371
14380TIP3    H143081   7.694   6.607   4.395
14380TIP3    H243082   7.669   6.756   4.396
14381TIP3   OH243083   1.184   1.373   0.262
14381TIP3    H143084   1.241   1.416   0.198
14381TIP3    H243085   1.244   1.320   0.315
14382TIP3   OH243086   1.290   0.423   6.061
14382TIP3    H143087   1.324   0.446   5.974
14382TIP3    H243088   1.254   0.505   6.095
14383TIP3   OH243089   2.281   1.020   6.002
14383TIP3    H143090   2.349   0.976   5.950
14383TIP3    H243091   2.216   0.952   6.018
14384TIP3   OH243092   5.617   6.632   0.705
14384TIP3    H143093   5.571   6.609   0.624
14384TIP3    H243094   5.641   6.548   0.744
14385TIP3   OH243095   0.907   5.888   0.785
14385TIP3    H143096   0.994   5.924   0.768
14385TIP3    H243097   0.885   5.921   0.873
14386TIP3   OH243098   6.957   6.577   6.318
14386TIP3    H143099   6.949   6.665   6.281
14386TIP3    H243100   6.963   6.519   6.242
14387TIP3   OH243101   3.956   2.850   2.107
14387TIP3    H143102   3.998   2.897   2.179
14387TIP3    H243103   3.942   2.916   2.040
14388TIP3   OH243104   2.966   1.273   4.173
14388TIP3    H143105   3.059   1.281   4.195
14388TIP3    H243106   2.938   1.193   4.217
14389TIP3   OH243107   7.224   2.836   1.795
14389TIP3    H143108   7.279   2.783   1.853
14389TIP3    H243109   7.164   2.773   1.755
14390TIP3   OH243110   5.230   4.832   4.980
14390TIP3    H143111   5.230   4.738   4.961
14390TIP3    H243112   5.302   4.843   5.042
14391TIP3   OH243113   1.412   5.529   5.895
14391TIP3    H143114   1.436   5.462   5.960
14391TIP3    H243115   1.333   5.569   5.931
14392TIP3   OH243116   0.994   4.423   3.765
14392TIP3    H143117   1.039   4.445   3.683
14392TIP3    H243118   0.922   4.486   3.770
14393TIP3   OH243119   3.778   5.797   3.720
14393TIP3    H143120   3.716   5.827   3.654
14393TIP3    H243121   3.759   5.852   3.797
14394TIP3   OH243122   5.307   1.262   0.831
14394TIP3    H143123   5.346   1.302   0.908
14394TIP3    H243124   5.215   1.251   0.853
14395TIP3   OH243125   2.200   6.030   0.975
14395TIP3    H143126   2.221   6.060   0.887
14395TIP3    H243127   2.135   6.092   1.007
14396TIP3   OH243128   6.963   7.712   3.204
14396TIP3    H143129   7.028   7.760   3.256
14396TIP3    H243130   6.944   7.633   3.254
14397TIP3   OH243131   3.323   7.704   5.316
14397TIP3    H143132   3.267   7.721   5.240
14397TIP3    H243133   3.377   7.783   5.324
14398TIP3   OH243134   2.447   4.769   4.140
14398TIP3    H143135   2.378   4.804   4.196
14398TIP3    H243136   2.400   4.719   4.073
14399TIP3   OH243137   2.432   5.832   1.806
14399TIP3    H143138   2.505   5.781   1.770
14399TIP3    H243139   2.429   5.808   1.898
14400TIP3   OH243140   1.571   6.478   1.591
14400TIP3    H143141   1.643   6.493   1.652
14400TIP3    H243142   1.531   6.565   1.580
14401TIP3   OH243143   1.650   6.148   1.855
14401TIP3    H143144   1.608   6.233   1.844
14401TIP3    H243145   1.687   6.128   1.769
14402TIP3   OH243146   7.158   4.155   3.444
14402TIP3    H143147   7.232   4.154   3.504
14402TIP3    H243148   7.104   4.081   3.471
14403TIP3   OH243149   3.094   6.244   3.363
14403TIP3    H143150   3.143   6.251   3.445
14403TIP3    H243151   3.037   6.321   3.363
14404TIP3   OH243152   1.316   1.981   1.823
14404TIP3    H143153   1.397   1.937   1.796
14404TIP3    H243154   1.340   2.073   1.830
14405TIP3   OH243155   5.796   3.246   0.563
14405TIP3    H143156   5.782   3.306   0.489
14405TIP3    H243157   5.888   3.221   0.555
14406TIP3   OH243158   1.586   2.465   5.497
14406TIP3    H143159   1.515   2.403   5.514
14406TIP3    H243160   1.582   2.482   5.403
14407TIP3   OH243161   8.318   5.295   4.262
14407TIP3    H143162   8.408   5.313   4.291
14407TIP3    H243163   8.329   5.231   4.191
14408TIP3   OH243164   3.301   5.087   6.866
14408TIP3    H143165   3.341   5.051   6.787
14408TIP3    H243166   3.218   5.124   6.835
14409TIP3   OH243167   4.535   2.595   2.179
14409TIP3    H143168   4.507   2.677   2.220
14409TIP3    H243169   4.476   2.529   2.214
14410TIP3   OH243170   2.203   4.998   0.921
14410TIP3    H143171   2.111   5.012   0.946
14410TIP3    H243172   2.245   4.967   1.002
14411TIP3   OH243173   7.432   3.943   2.803
14411TIP3    H143174   7.395   4.030   2.814
14411TIP3    H243175   7.379   3.887   2.859
14412TIP3   OH243176   4.623   6.372   1.671
14412TIP3    H143177   4.540   6.420   1.665
14412TIP3    H243178   4.689   6.435   1.640
14413TIP3   OH243179   1.444   5.247   1.044
14413TIP3    H143180   1.355   5.210   1.046
14413TIP3    H243181   1.434   5.333   1.085
14414TIP3   OH243182   5.761   5.061   4.645
14414TIP3    H143183   5.772   5.147   4.603
14414TIP3    H243184   5.684   5.072   4.702
14415TIP3   OH243185   6.906   1.627   5.817
14415TIP3    H143186   6.973   1.668   5.763
14415TIP3    H243187   6.884   1.694   5.882
14416TIP3   OH243188   4.810   6.263   1.115
14416TIP3    H143189   4.901   6.282   1.138
14416TIP3    H243190   4.801   6.294   1.025
14417TIP3   OH243191   6.285   4.111   5.438
14417TIP3    H143192   6.272   4.040   5.375
14417TIP3    H243193   6.254   4.075   5.521
14418TIP3   OH243194   1.761   5.361   4.649
14418TIP3    H143195   1.839   5.399   4.689
14418TIP3    H243196   1.790   5.335   4.562
14419TIP3   OH243197   5.664   1.231   0.719
14419TIP3    H143198   5.620   1.314   0.735
14419TIP3    H243199   5.757   1.250   0.733
14420TIP3   OH243200   3.792   0.667   4.888
14420TIP3    H143201   3.877   0.709   4.893
14420TIP3    H243202   3.794   0.616   4.808
14421TIP3   OH243203   6.064   3.817   4.181
14421TIP3    H143204   5.976   3.784   4.162
14421TIP3    H243205   6.105   3.750   4.235
14422TIP3   OH243206   7.788   5.773   3.829
14422TIP3    H143207   7.772   5.830   3.754
14422TIP3    H243208   7.725   5.702   3.820
14423TIP3   OH243209   8.134   2.509   3.596
14423TIP3    H143210   8.163   2.452   3.524
14423TIP3    H243211   8.215   2.546   3.630
14424TIP3   OH243212   2.159   1.502   5.982
14424TIP3    H143213   2.066   1.510   6.001
14424TIP3    H243214   2.172   1.409   5.962
14425TIP3   OH243215   6.361   4.062   4.302
14425TIP3    H143216   6.434   4.123   4.299
14425TIP3    H243217   6.400   3.978   4.328
14426TIP3   OH243218   7.940   5.418   1.522
14426TIP3    H143219   7.854   5.380   1.503
14426TIP3    H243220   8.001   5.366   1.470
14427TIP3   OH243221   0.607   2.290   2.362
14427TIP3    H143222   0.548   2.365   2.366
14427TIP3    H243223   0.588   2.249   2.278
14428TIP3   OH243224   5.137   6.113   4.014
14428TIP3    H143225   5.181   6.030   4.033
14428TIP3    H243226   5.078   6.092   3.942
14429TIP3   OH243227   4.631   1.370   4.239
14429TIP3    H143228   4.694   1.432   4.276
14429TIP3    H243229   4.616   1.401   4.150
14430TIP3   OH243230   5.904   4.555   1.096
14430TIP3    H143231   5.930   4.614   1.167
14430TIP3    H243232   5.903   4.611   1.018
14431TIP3   OH243233   0.758   6.562   2.616
14431TIP3    H143234   0.683   6.608   2.580
14431TIP3    H243235   0.758   6.477   2.572
14432TIP3   OH243236   2.613   5.101   2.485
14432TIP3    H143237   2.518   5.092   2.474
14432TIP3    H243238   2.629   5.195   2.477
14433TIP3   OH243239   0.326   3.668   4.821
14433TIP3    H143240   0.271   3.628   4.888
14433TIP3    H243241   0.411   3.681   4.863
14434TIP3   OH243242   7.071   1.539   2.682
14434TIP3    H143243   7.006   1.608   2.697
14434TIP3    H243244   7.094   1.548   2.590
14435TIP3   OH243245   3.862   5.946   0.887
14435TIP3    H143246   3.798   5.999   0.936
14435TIP3    H243247   3.921   5.911   0.954
14436TIP3   OH243248   5.178   6.420   3.840
14436TIP3    H143249   5.219   6.411   3.926
14436TIP3    H243250   5.123   6.498   3.848
14437TIP3   OH243251   7.596   0.603   1.414
14437TIP3    H143252   7.613   0.658   1.338
14437TIP3    H243253   7.555   0.524   1.378
14438TIP3   OH243254   8.173   6.471   1.337
14438TIP3    H143255   8.125   6.522   1.271
14438TIP3    H243256   8.119   6.479   1.416
14439TIP3   OH243257   2.468   6.018   6.148
14439TIP3    H143258   2.489   5.948   6.086
14439TIP3    H243259   2.376   6.038   6.132
14440TIP3   OH243260   2.851   7.397   2.089
14440TIP3    H143261   2.763   7.385   2.124
14440TIP3    H243262   2.853   7.488   2.060
14441TIP3   OH243263   5.061   2.113   0.766
14441TIP3    H143264   5.086   2.102   0.858
14441TIP3    H243265   4.970   2.081   0.762
14442TIP3   OH243266   4.658   6.383   0.565
14442TIP3    H143267   4.696   6.305   0.525
14442TIP3    H243268   4.691   6.456   0.512
14443TIP3   OH243269   3.472   3.857   1.415
14443TIP3    H143270   3.531   3.876   1.487
14443TIP3    H243271   3.525   3.808   1.352
14444TIP3   OH243272   5.121   3.720   3.039
14444TIP3    H143273   5.090   3.763   2.959
14444TIP3    H243274   5.152   3.634   3.009
14445TIP3   OH243275   7.353   1.726   6.368
14445TIP3    H143276   7.295   1.748   6.295
14445TIP3    H243277   7.294   1.717   6.443
14446TIP3   OH243278   2.493   6.949   6.624
14446TIP3    H143279   2.419   7.004   6.599
14446TIP3    H243280   2.549   6.946   6.546
14447TIP3   OH243281   6.980   2.161   2.410
14447TIP3    H143282   6.955   2.199   2.494
14447TIP3    H243283   7.048   2.097   2.432
14448TIP3   OH243284   4.904   2.146   4.861
14448TIP3    H143285   4.961   2.223   4.864
14448TIP3    H243286   4.825   2.177   4.817
14449TIP3   OH243287   1.685   1.724   3.358
14449TIP3    H143288   1.599   1.688   3.338
14449TIP3    H243289   1.691   1.805   3.307
14450TIP3   OH243290   5.498   2.851   5.123
14450TIP3    H143291   5.425   2.814   5.173
14450TIP3    H243292   5.557   2.777   5.108
14451TIP3   OH243293   0.305   4.364   1.776
14451TIP3    H143294   0.285   4.288   1.721
14451TIP3    H243295   0.220   4.404   1.794
14452TIP3   OH243296   8.298   2.051   5.853
14452TIP3    H143297   8.218   2.066   5.802
14452TIP3    H243298   8.351   1.993   5.799
14453TIP3   OH243299   7.935   2.690   0.417
14453TIP3    H143300   7.965   2.599   0.425
14453TIP3    H243301   7.944   2.709   0.324
14454TIP3   OH243302   7.847   2.661   0.118
14454TIP3    H143303   7.785   2.613   0.064
14454TIP3    H243304   7.918   2.683   0.057
14455TIP3   OH243305   0.947   6.015   0.065
14455TIP3    H143306   0.904   5.930   0.056
14455TIP3    H243307   0.875   6.076   0.084
14456TIP3   OH243308   3.371   1.588   5.931
14456TIP3    H143309   3.367   1.680   5.906
14456TIP3    H243310   3.315   1.543   5.868
14457TIP3   OH243311   4.603   1.963   5.891
14457TIP3    H143312   4.643   2.045   5.918
14457TIP3    H243313   4.583   1.918   5.973
14458TIP3   OH243314   1.697   1.416   3.283
14458TIP3    H143315   1.610   1.377   3.276
14458TIP3    H243316   1.695   1.491   3.224
14459TIP3   OH243317   6.485   5.986   0.617
14459TIP3    H143318   6.536   5.952   0.544
14459TIP3    H243319   6.544   6.049   0.660
14460TIP3   OH243320   6.347   7.691   4.086
14460TIP3    H143321   6.382   7.756   4.146
14460TIP3    H243322   6.335   7.613   4.140
14461TIP3   OH243323   0.129   3.250   2.909
14461TIP3    H143324   0.121   3.294   2.994
14461TIP3    H243325   0.178   3.312   2.855
14462TIP3   OH243326   8.059   3.963   0.858
14462TIP3    H143327   7.980   3.955   0.806
14462TIP3    H243328   8.127   3.990   0.796
14463TIP3   OH243329   4.333   0.991   4.695
14463TIP3    H143330   4.351   1.070   4.644
14463TIP3    H243331   4.238   0.986   4.699
14464TIP3   OH243332   4.552   3.080   0.340
14464TIP3    H143333   4.488   3.142   0.304
14464TIP3    H243334   4.498   3.012   0.381
14465TIP3   OH243335   4.801   0.619   1.282
14465TIP3    H143336   4.889   0.656   1.280
14465TIP3    H243337   4.808   0.539   1.230
14466TIP3   OH243338   7.382   4.491   1.696
14466TIP3    H143339   7.319   4.487   1.769
14466TIP3    H243340   7.351   4.424   1.635
14467TIP3   OH243341   2.019   2.073   4.931
14467TIP3    H143342   1.987   2.121   4.854
14467TIP3    H243343   1.969   1.991   4.930
14468TIP3   OH243344   5.213   1.625   3.483
14468TIP3    H143345   5.227   1.704   3.535
14468TIP3    H243346   5.276   1.632   3.411
14469TIP3   OH243347   6.247   0.942   6.415
14469TIP3    H143348   6.287   1.029   6.426
14469TIP3    H243349   6.199   0.927   6.497
14470TIP3   OH243350   2.042   2.067   2.629
14470TIP3    H143351   2.100   2.129   2.586
14470TIP3    H243352   1.957   2.112   2.632
14471TIP3   OH243353   2.637   4.158   2.505
14471TIP3    H143354   2.603   4.244   2.480
14471TIP3    H243355   2.658   4.116   2.422
14472TIP3   OH243356   0.646   6.217   0.576
14472TIP3    H143357   0.659   6.250   0.665
14472TIP3    H243358   0.695   6.134   0.575
14473TIP3   OH243359   5.131   3.496   3.534
14473TIP3    H143360   5.042   3.517   3.504
14473TIP3    H243361   5.123   3.409   3.572
14474TIP3   OH243362   4.538   2.133   0.168
14474TIP3    H143363   4.455   2.177   0.152
14474TIP3    H243364   4.536   2.109   0.260
14475TIP3   OH243365   1.624   2.867   6.545
14475TIP3    H143366   1.713   2.895   6.523
14475TIP3    H243367   1.578   2.866   6.461
14476TIP3   OH243368   4.568   5.403   2.200
14476TIP3    H143369   4.523   5.399   2.115
14476TIP3    H243370   4.614   5.487   2.198
14477TIP3   OH243371   0.554   3.137   6.765
14477TIP3    H143372   0.518   3.136   6.676
14477TIP3    H243373   0.552   3.046   6.793
14478TIP3   OH243374   0.149   1.456   3.496
14478TIP3    H143375   0.179   1.520   3.560
14478TIP3    H243376   0.093   1.505   3.437
14479TIP3   OH243377   0.590   7.725   4.585
14479TIP3    H143378   0.553   7.684   4.664
14479TIP3    H243379   0.514   7.754   4.535
14480TIP3   OH243380   0.447   7.159   2.045
14480TIP3    H143381   0.436   7.218   1.971
14480TIP3    H243382   0.534   7.178   2.078
14481TIP3   OH243383   2.221   3.545   0.072
14481TIP3    H143384   2.222   3.549  -0.023
14481TIP3    H243385   2.208   3.452   0.092
14482TIP3   OH243386   6.185   3.421   4.648
14482TIP3    H143387   6.229   3.452   4.728
14482TIP3    H243388   6.112   3.368   4.679
14483TIP3   OH243389   3.853   3.431   5.281
14483TIP3    H143390   3.889   3.374   5.349
14483TIP3    H243391   3.759   3.434   5.300
14484TIP3   OH243392   4.979   3.318   1.104
14484TIP3    H143393   4.961   3.225   1.119
14484TIP3    H243394   5.024   3.320   1.020
14485TIP3   OH243395   7.692   0.803   3.743
14485TIP3    H143396   7.748   0.743   3.792
14485TIP3    H243397   7.606   0.763   3.743
14486TIP3   OH243398   3.861   3.509   6.357
14486TIP3    H143399   3.957   3.499   6.358
14486TIP3    H243400   3.829   3.439   6.412
14487TIP3   OH243401   2.202   5.058   0.450
14487TIP3    H143402   2.213   4.989   0.515
14487TIP3    H243403   2.115   5.043   0.414
14488TIP3   OH243404   4.137   7.745   3.162
14488TIP3    H143405   4.212   7.805   3.170
14488TIP3    H243406   4.175   7.658   3.170
14489TIP3   OH243407   3.960   2.168   4.030
14489TIP3    H143408   3.884   2.166   4.088
14489TIP3    H243409   3.922   2.158   3.942
14490TIP3   OH243410   4.982   6.490   3.056
14490TIP3    H143411   5.048   6.530   2.999
14490TIP3    H243412   5.010   6.511   3.145
14491TIP3   OH243413   0.010   7.416   6.759
14491TIP3    H143414  -0.066   7.434   6.815
14491TIP3    H243415   0.060   7.350   6.806
14492TIP3   OH243416   5.300   4.991   0.124
14492TIP3    H143417   5.252   4.917   0.086
14492TIP3    H243418   5.366   5.013   0.059
14493TIP3   OH243419   3.057   2.050   1.399
14493TIP3    H143420   3.032   2.111   1.330
14493TIP3    H243421   2.986   2.057   1.463
14494TIP3   OH243422   6.467   4.778   3.967
14494TIP3    H143423   6.385   4.826   3.960
14494TIP3    H243424   6.534   4.846   3.963
14495TIP3   OH243425   7.579   4.372   0.780
14495TIP3    H143426   7.615   4.294   0.823
14495TIP3    H243427   7.485   4.355   0.773
14496TIP3   OH243428   8.190   7.820   5.861
14496TIP3    H143429   8.203   7.785   5.950
14496TIP3    H243430   8.148   7.748   5.814
14497TIP3   OH243431   0.455   0.960   0.633
14497TIP3    H143432   0.417   1.022   0.571
14497TIP3    H243433   0.543   0.943   0.598
14498TIP3   OH243434   7.662   1.204   3.189
14498TIP3    H143435   7.582   1.155   3.168
14498TIP3    H243436   7.728   1.136   3.203
14499TIP3   OH243437   6.902   2.843   1.594
14499TIP3    H143438   6.884   2.886   1.677
14499TIP3    H243439   6.835   2.875   1.534
14500TIP3   OH243440   2.668   0.664   0.912
14500TIP3    H143441   2.606   0.654   0.984
14500TIP3    H243442   2.616   0.654   0.833
14501TIP3   OH243443   2.400   6.966   5.733
14501TIP3    H143444   2.452   6.964   5.654
14501TIP3    H243445   2.463   6.979   5.804
14502TIP3   OH243446   2.155   7.599   2.564
14502TIP3    H143447   2.098   7.674   2.580
14502TIP3    H243448   2.232   7.615   2.618
14503TIP3   OH243449   6.257   7.709   0.755
14503TIP3    H143450   6.192   7.769   0.718
14503TIP3    H243451   6.323   7.700   0.686
14504TIP3   OH243452   0.913   2.925   4.786
14504TIP3    H143453   0.856   2.995   4.817
14504TIP3    H243454   0.908   2.858   4.854
14505TIP3   OH243455   1.425   0.377   1.935
14505TIP3    H143456   1.451   0.288   1.909
14505TIP3    H243457   1.502   0.431   1.917
14506TIP3   OH243458   4.304   7.355   6.596
14506TIP3    H143459   4.265   7.442   6.587
14506TIP3    H243460   4.255   7.301   6.533
14507TIP3   OH243461   5.488   3.938   5.501
14507TIP3    H143462   5.437   3.918   5.422
14507TIP3    H243463   5.577   3.911   5.479
14508TIP3   OH243464   1.969   6.465   4.789
14508TIP3    H143465   1.945   6.445   4.698
14508TIP3    H243466   1.952   6.559   4.798
14509TIP3   OH243467   5.827   4.261   2.613
14509TIP3    H143468   5.787   4.232   2.531
14509TIP3    H243469   5.845   4.354   2.599
14510TIP3   OH243470   5.567   5.950   4.155
14510TIP3    H143471   5.498   5.906   4.205
14510TIP3    H243472   5.645   5.897   4.169
14511TIP3   OH243473   3.942   0.235   2.090
14511TIP3    H143474   4.015   0.286   2.124
14511TIP3    H243475   3.901   0.197   2.168
14512TIP3   OH243476   5.703   7.036   1.503
14512TIP3    H143477   5.656   7.098   1.558
14512TIP3    H243478   5.770   7.088   1.460
14513TIP3   OH243479   0.625   3.399   2.739
14513TIP3    H143480   0.610   3.308   2.713
14513TIP3    H243481   0.696   3.394   2.804
14514TIP3   OH243482   6.703   7.173   4.866
14514TIP3    H143483   6.766   7.132   4.925
14514TIP3    H243484   6.655   7.235   4.920
14515TIP3   OH243485   0.714   6.448   0.833
14515TIP3    H143486   0.779   6.477   0.769
14515TIP3    H243487   0.729   6.354   0.842
14516TIP3   OH243488   3.526   5.191   6.362
14516TIP3    H143489   3.521   5.286   6.373
14516TIP3    H243490   3.553   5.179   6.271
14517TIP3   OH243491   3.652   6.352   5.538
14517TIP3    H143492   3.601   6.336   5.617
14517TIP3    H243493   3.598   6.412   5.486
14518TIP3   OH243494   8.328   5.619   6.206
14518TIP3    H143495   8.368   5.701   6.176
14518TIP3    H243496   8.357   5.609   6.297
14519TIP3   OH243497   6.756   3.638   3.846
14519TIP3    H143498   6.791   3.581   3.777
14519TIP3    H243499   6.791   3.725   3.825
14520TIP3   OH243500   4.302   7.124   2.720
14520TIP3    H143501   4.397   7.126   2.731
14520TIP3    H243502   4.280   7.031   2.713
14521TIP3   OH243503   4.877   4.321   3.509
14521TIP3    H143504   4.831   4.367   3.438
14521TIP3    H243505   4.808   4.283   3.562
14522TIP3   OH243506   0.023   5.469   4.661
14522TIP3    H143507   0.082   5.544   4.667
14522TIP3    H243508   0.072   5.404   4.610
14523TIP3   OH243509   3.552   1.112   4.542
14523TIP3    H143510   3.534   1.070   4.626
14523TIP3    H243511   3.638   1.152   4.552
14524TIP3   OH243512   3.095   1.121   2.606
14524TIP3    H143513   3.187   1.109   2.629
14524TIP3    H243514   3.073   1.045   2.551
14525TIP3   OH243515   6.956   2.679   0.833
14525TIP3    H143516   6.997   2.603   0.874
14525TIP3    H243517   6.980   2.753   0.889
14526TIP3   OH243518   2.945   4.595   2.189
14526TIP3    H143519   2.933   4.679   2.143
14526TIP3    H243520   2.875   4.595   2.255
14527TIP3   OH243521   0.431   7.128   4.340
14527TIP3    H143522   0.384   7.056   4.298
14527TIP3    H243523   0.477   7.172   4.268
14528TIP3   OH243524   8.118   6.970   4.453
14528TIP3    H143525   8.042   6.942   4.503
14528TIP3    H243526   8.087   6.975   4.362
14529TIP3   OH243527   3.262   5.001   1.074
14529TIP3    H143528   3.280   4.946   1.150
14529TIP3    H243529   3.257   4.941   1.001
14530TIP3   OH243530   7.889   3.240   4.932
14530TIP3    H143531   7.922   3.157   4.897
14530TIP3    H243532   7.797   3.241   4.907
14531TIP3   OH243533   3.635   5.095   5.903
14531TIP3    H143534   3.676   5.013   5.877
14531TIP3    H243535   3.543   5.086   5.875
14532TIP3   OH243536   4.723   5.923   6.171
14532TIP3    H143537   4.709   5.942   6.078
14532TIP3    H243538   4.792   5.857   6.172
14533TIP3   OH243539   5.021   0.838   1.801
14533TIP3    H143540   4.947   0.890   1.770
14533TIP3    H243541   4.990   0.801   1.884
14534TIP3   OH243542   4.745   4.006   4.805
14534TIP3    H143543   4.797   4.032   4.728
14534TIP3    H243544   4.654   4.017   4.777
14535TIP3   OH243545   0.393   0.104   5.208
14535TIP3    H143546   0.330   0.174   5.187
14535TIP3    H243547   0.408   0.114   5.302
14536TIP3   OH243548   4.922   0.509   5.950
14536TIP3    H143549   4.865   0.452   5.898
14536TIP3    H243550   4.862   0.557   6.008
14537TIP3   OH243551   3.699   0.164   3.242
14537TIP3    H143552   3.743   0.248   3.254
14537TIP3    H243553   3.672   0.139   3.330
14538TIP3   OH243554   5.549   5.988   1.587
14538TIP3    H143555   5.599   5.910   1.563
14538TIP3    H243556   5.572   6.052   1.520
14539TIP3   OH243557   0.698   2.103   6.334
14539TIP3    H143558   0.603   2.092   6.339
14539TIP3    H243559   0.734   2.024   6.374
14540TIP3   OH243560   5.079   0.166   1.100
14540TIP3    H143561   5.044   0.116   1.026
14540TIP3    H243562   5.154   0.114   1.129
14541TIP3   OH243563   3.152   0.348   4.942
14541TIP3    H143564   3.118   0.271   4.897
14541TIP3    H243565   3.110   0.346   5.028
14542TIP3   OH243566   0.844   7.029   4.755
14542TIP3    H143567   0.913   7.089   4.727
14542TIP3    H243568   0.779   7.033   4.685
14543TIP3   OH243569   2.109   5.033   1.255
14543TIP3    H143570   2.038   5.007   1.196
14543TIP3    H243571   2.065   5.054   1.337
14544TIP3   OH243572   5.599   1.481   0.804
14544TIP3    H143573   5.517   1.517   0.771
14544TIP3    H243574   5.650   1.557   0.831
14545TIP3   OH243575   7.497   1.677   2.573
14545TIP3    H143576   7.449   1.671   2.491
14545TIP3    H243577   7.520   1.586   2.595
14546TIP3   OH243578   6.493   1.195   1.518
14546TIP3    H143579   6.432   1.201   1.591
14546TIP3    H243580   6.439   1.212   1.440
14547TIP3   OH243581   1.587   3.492   0.425
14547TIP3    H143582   1.631   3.567   0.466
14547TIP3    H243583   1.515   3.531   0.375
14548TIP3   OH243584   0.778   2.455   1.832
14548TIP3    H143585   0.765   2.423   1.921
14548TIP3    H243586   0.840   2.393   1.793
14549TIP3   OH243587   4.516   3.000   4.187
14549TIP3    H143588   4.596   2.961   4.154
14549TIP3    H243589   4.452   2.929   4.188
14550TIP3   OH243590   2.552   7.123   1.694
14550TIP3    H143591   2.607   7.201   1.687
14550TIP3    H243592   2.613   7.050   1.694
14551TIP3   OH243593   2.290   4.658   3.613
14551TIP3    H143594   2.355   4.703   3.559
14551TIP3    H243595   2.251   4.726   3.666
14552TIP3   OH243596   5.233   4.384   0.404
14552TIP3    H143597   5.318   4.427   0.411
14552TIP3    H243598   5.244   4.301   0.450
14553TIP3   OH243599   2.966   4.783   1.091
14553TIP3    H143600   2.926   4.839   1.024
14553TIP3    H243601   2.973   4.839   1.169
14554TIP3   OH243602   7.151   3.610   3.127
14554TIP3    H143603   7.079   3.548   3.116
14554TIP3    H243604   7.207   3.594   3.051
14555TIP3   OH243605   7.310   6.933   4.368
14555TIP3    H143606   7.264   6.892   4.441
14555TIP3    H243607   7.310   7.027   4.390
14556TIP3   OH243608   6.346   4.167   3.102
14556TIP3    H143609   6.383   4.217   3.175
14556TIP3    H243610   6.253   4.161   3.121
14557TIP3   OH243611   8.323   7.659   6.345
14557TIP3    H143612   8.261   7.676   6.416
14557TIP3    H243613   8.329   7.564   6.341
14558TIP3   OH243614   2.188   2.867   0.340
14558TIP3    H143615   2.189   2.775   0.314
14558TIP3    H243616   2.096   2.883   0.363
14559TIP3   OH243617   3.171   1.239   5.036
14559TIP3    H143618   3.230   1.164   5.023
14559TIP3    H243619   3.112   1.236   4.961
14560TIP3   OH243620   5.589   7.173   4.506
14560TIP3    H143621   5.598   7.110   4.435
14560TIP3    H243622   5.510   7.223   4.484
14561TIP3   OH243623   3.593   7.039   1.563
14561TIP3    H143624   3.579   7.084   1.646
14561TIP3    H243625   3.544   6.957   1.571
14562TIP3   OH243626   7.265   1.678   4.707
14562TIP3    H143627   7.183   1.686   4.756
14562TIP3    H243628   7.284   1.767   4.677
14563TIP3   OH243629   8.156   5.030   0.884
14563TIP3    H143630   8.223   5.063   0.824
14563TIP3    H243631   8.075   5.033   0.833
14564TIP3   OH243632   6.560   7.239   5.169
14564TIP3    H143633   6.502   7.310   5.195
14564TIP3    H243634   6.501   7.166   5.148
14565TIP3   OH243635   2.274   4.507   4.772
14565TIP3    H143636   2.225   4.587   4.789
14565TIP3    H243637   2.276   4.461   4.856
14566TIP3   OH243638   2.429   7.673   3.780
14566TIP3    H143639   2.386   7.650   3.697
14566TIP3    H243640   2.498   7.734   3.755
14567TIP3   OH243641   5.547   2.967   0.810
14567TIP3    H143642   5.634   2.994   0.839
14567TIP3    H243643   5.502   2.940   0.890
14568TIP3   OH243644   5.357   5.472   5.517
14568TIP3    H143645   5.410   5.472   5.597
14568TIP3    H243646   5.416   5.503   5.449
14569TIP3   OH243647   8.336   7.094   4.084
14569TIP3    H143648   8.258   7.137   4.048
14569TIP3    H243649   8.313   7.001   4.087
14570TIP3   OH243650   7.367   1.914   3.895
14570TIP3    H143651   7.408   1.988   3.939
14570TIP3    H243652   7.303   1.881   3.958
14571TIP3   OH243653   7.848   5.918   2.057
14571TIP3    H143654   7.836   5.908   1.963
14571TIP3    H243655   7.808   5.840   2.096
14572TIP3   OH243656   7.793   6.711   2.867
14572TIP3    H143657   7.882   6.686   2.842
14572TIP3    H243658   7.805   6.770   2.942
14573TIP3   OH243659   8.195   5.858   3.504
14573TIP3    H143660   8.171   5.797   3.574
14573TIP3    H243661   8.194   5.944   3.547
14574TIP3   OH243662   6.090   7.410   1.914
14574TIP3    H143663   6.047   7.348   1.855
14574TIP3    H243664   6.156   7.453   1.860
14575TIP3   OH243665   1.564   6.205   1.554
14575TIP3    H143666   1.660   6.209   1.547
14575TIP3    H243667   1.538   6.296   1.571
14576TIP3   OH243668   4.892   3.189   4.988
14576TIP3    H143669   4.895   3.155   4.899
14576TIP3    H243670   4.960   3.257   4.990
14577TIP3   OH243671   3.614   4.365   6.085
14577TIP3    H143672   3.549   4.305   6.049
14577TIP3    H243673   3.688   4.360   6.025
14578TIP3   OH243674   1.725   2.460   3.656
14578TIP3    H143675   1.782   2.427   3.726
14578TIP3    H243676   1.755   2.550   3.642
14579TIP3   OH243677   7.989   2.387   3.826
14579TIP3    H143678   8.004   2.295   3.846
14579TIP3    H243679   8.020   2.398   3.736
14580TIP3   OH243680   7.504   0.047   4.651
14580TIP3    H143681   7.532   0.132   4.619
14580TIP3    H243682   7.491  -0.006   4.572
14581TIP3   OH243683   7.732   3.235   3.537
14581TIP3    H143684   7.650   3.284   3.543
14581TIP3    H243685   7.706   3.143   3.536
14582TIP3   OH243686   7.115   6.810   5.755
14582TIP3    H143687   7.205   6.791   5.730
14582TIP3    H243688   7.079   6.725   5.781
14583TIP3   OH243689   7.957   5.310   0.851
14583TIP3    H143690   7.977   5.322   0.944
14583TIP3    H243691   7.989   5.221   0.832
14584TIP3   OH243692   6.911   1.346   2.476
14584TIP3    H143693   6.977   1.415   2.466
14584TIP3    H243694   6.923   1.291   2.398
14585TIP3   OH243695   1.005   2.716   4.191
14585TIP3    H143696   0.958   2.768   4.126
14585TIP3    H243697   1.049   2.648   4.139
14586TIP3   OH243698   2.088   5.448   2.412
14586TIP3    H143699   2.016   5.443   2.474
14586TIP3    H243700   2.069   5.379   2.348
14587TIP3   OH243701   7.890   6.119   2.224
14587TIP3    H143702   7.856   6.195   2.177
14587TIP3    H243703   7.874   6.045   2.166
14588TIP3   OH243704   6.861   7.275   0.603
14588TIP3    H143705   6.891   7.218   0.533
14588TIP3    H243706   6.857   7.219   0.680
14589TIP3   OH243707   1.077   4.673   5.727
14589TIP3    H143708   1.005   4.728   5.695
14589TIP3    H243709   1.133   4.660   5.651
14590TIP3   OH243710   1.813   4.785   0.960
14590TIP3    H143711   1.833   4.719   1.026
14590TIP3    H243712   1.816   4.868   1.007
14591TIP3   OH243713   0.670   1.034   2.389
14591TIP3    H143714   0.650   0.956   2.337
14591TIP3    H243715   0.678   1.002   2.479
14592TIP3   OH243716   5.116   2.157   2.071
14592TIP3    H143717   5.172   2.228   2.101
14592TIP3    H243718   5.170   2.109   2.007
14593TIP3   OH243719   5.313   1.559   2.756
14593TIP3    H143720   5.283   1.514   2.677
14593TIP3    H243721   5.320   1.651   2.731
14594TIP3   OH243722   1.130   4.521   5.199
14594TIP3    H143723   1.218   4.518   5.161
14594TIP3    H243724   1.106   4.613   5.196
14595TIP3   OH243725   2.223   2.276   5.509
14595TIP3    H143726   2.302   2.243   5.466
14595TIP3    H243727   2.250   2.291   5.600
14596TIP3   OH243728   1.827   0.957   2.398
14596TIP3    H143729   1.802   1.042   2.434
14596TIP3    H243730   1.904   0.976   2.344
14597TIP3   OH243731   5.742   5.719   4.738
14597TIP3    H143732   5.730   5.744   4.646
14597TIP3    H243733   5.807   5.780   4.772
14598TIP3   OH243734   1.896   7.662   5.427
14598TIP3    H143735   1.949   7.638   5.502
14598TIP3    H243736   1.884   7.757   5.436
14599TIP3   OH243737   4.894   0.420   1.870
14599TIP3    H143738   4.898   0.488   1.803
14599TIP3    H243739   4.907   0.466   1.953
14600TIP3   OH243740   3.801   0.363   0.322
14600TIP3    H143741   3.729   0.358   0.259
14600TIP3    H243742   3.822   0.272   0.341
14601TIP3   OH243743   5.399   0.377   1.847
14601TIP3    H143744   5.317   0.363   1.893
14601TIP3    H243745   5.438   0.454   1.888
14602TIP3   OH243746   1.652   6.875   4.972
14602TIP3    H143747   1.574   6.827   5.000
14602TIP3    H243748   1.687   6.912   5.053
14603TIP3   OH243749   8.372   2.427   0.784
14603TIP3    H143750   8.305   2.488   0.817
14603TIP3    H243751   8.422   2.402   0.862
14604TIP3   OH243752   1.066   7.082   5.272
14604TIP3    H143753   0.997   7.075   5.338
14604TIP3    H243754   1.092   6.992   5.254
14605TIP3   OH243755   5.167   3.739   0.075
14605TIP3    H143756   5.261   3.746   0.093
14605TIP3    H243757   5.125   3.765   0.157
14606TIP3   OH243758   4.691   3.029   3.571
14606TIP3    H143759   4.664   3.119   3.557
14606TIP3    H243760   4.663   2.982   3.493
14607TIP3   OH243761   4.577   1.785   2.760
14607TIP3    H143762   4.551   1.736   2.839
14607TIP3    H243763   4.519   1.751   2.691
14608TIP3   OH243764   2.153   1.255   2.170
14608TIP3    H143765   2.082   1.295   2.120
14608TIP3    H243766   2.121   1.254   2.260
14609TIP3   OH243767   4.496   0.293   5.901
14609TIP3    H143768   4.577   0.251   5.873
14609TIP3    H243769   4.517   0.331   5.986
14610TIP3   OH243770   7.076   6.772   5.439
14610TIP3    H143771   7.021   6.701   5.472
14610TIP3    H243772   7.165   6.738   5.444
14611TIP3   OH243773   3.794   2.566   4.009
14611TIP3    H143774   3.882   2.591   3.982
14611TIP3    H243775   3.790   2.589   4.102
14612TIP3   OH243776   5.825   2.436   2.638
14612TIP3    H143777   5.821   2.523   2.598
14612TIP3    H243778   5.908   2.400   2.608
14613TIP3   OH243779   3.750   6.035   4.553
14613TIP3    H143780   3.758   6.026   4.458
14613TIP3    H243781   3.840   6.040   4.584
14614TIP3   OH243782   7.501   7.864   0.710
14614TIP3    H143783   7.496   7.769   0.709
14614TIP3    H243784   7.419   7.892   0.752
14615TIP3   OH243785   6.363   3.874   5.821
14615TIP3    H143786   6.408   3.832   5.748
14615TIP3    H243787   6.409   3.842   5.899
14616TIP3   OH243788   2.759   7.214   4.204
14616TIP3    H143789   2.783   7.188   4.294
14616TIP3    H243790   2.842   7.214   4.157
14617TIP3   OH243791   0.721   4.840   3.092
14617TIP3    H143792   0.731   4.781   3.017
14617TIP3    H243793   0.627   4.844   3.107
14618TIP3   OH243794   1.784   4.808   5.565
14618TIP3    H143795   1.780   4.713   5.554
14618TIP3    H243796   1.868   4.824   5.607
14619TIP3   OH243797   1.993   6.192   2.016
14619TIP3    H143798   2.032   6.189   1.928
14619TIP3    H243799   2.067   6.184   2.075
14620TIP3   OH243800   1.718   7.466   1.034
14620TIP3    H143801   1.775   7.426   1.100
14620TIP3    H243802   1.774   7.474   0.957
14621TIP3   OH243803   7.775   1.255   2.190
14621TIP3    H143804   7.716   1.242   2.264
14621TIP3    H243805   7.855   1.208   2.215
14622TIP3   OH243806   6.331   2.304   1.120
14622TIP3    H143807   6.240   2.309   1.149
14622TIP3    H243808   6.343   2.383   1.066
14623TIP3   OH243809   7.398   2.616   3.035
14623TIP3    H143810   7.354   2.699   3.017
14623TIP3    H243811   7.329   2.560   3.072
14624TIP3   OH243812   2.758   1.223   3.992
14624TIP3    H143813   2.847   1.244   4.021
14624TIP3    H243814   2.704   1.295   4.026
14625TIP3   OH243815   7.973   2.364   5.952
14625TIP3    H143816   8.040   2.431   5.935
14625TIP3    H243817   7.961   2.322   5.867
14626TIP3   OH243818   0.860   5.027   0.617
14626TIP3    H143819   0.836   5.120   0.617
14626TIP3    H243820   0.877   5.007   0.708
14627TIP3   OH243821   5.428   2.520   2.677
14627TIP3    H143822   5.417   2.427   2.697
14627TIP3    H243823   5.507   2.546   2.724
14628TIP3   OH243824   0.056   0.139   5.538
14628TIP3    H143825   0.148   0.122   5.556
14628TIP3    H243826   0.044   0.232   5.561
14629TIP3   OH243827   4.494   3.516   5.999
14629TIP3    H143828   4.402   3.507   5.973
14629TIP3    H243829   4.505   3.610   6.015
14630TIP3   OH243830   5.968   0.476   0.761
14630TIP3    H143831   6.044   0.420   0.751
14630TIP3    H243832   5.893   0.418   0.749
14631TIP3   OH243833   7.174   5.047   0.028
14631TIP3    H143834   7.247   5.040   0.089
14631TIP3    H243835   7.176   5.138  -0.002
14632TIP3   OH243836   5.881   6.182   4.650
14632TIP3    H143837   5.892   6.275   4.669
14632TIP3    H243838   5.836   6.147   4.726
14633TIP3   OH243839   5.076   0.438   6.251
14633TIP3    H143840   5.076   0.482   6.336
14633TIP3    H243841   5.169   0.420   6.234
14634TIP3   OH243842   6.119   7.882   1.729
14634TIP3    H143843   6.138   7.801   1.681
14634TIP3    H243844   6.056   7.855   1.796
14635TIP3   OH243845   0.796   2.355   6.155
14635TIP3    H143846   0.743   2.435   6.158
14635TIP3    H243847   0.778   2.312   6.239
14636TIP3   OH243848   3.226   3.635   4.391
14636TIP3    H143849   3.168   3.707   4.418
14636TIP3    H243850   3.175   3.556   4.408
14637TIP3   OH243851   4.256   3.600   4.534
14637TIP3    H143852   4.249   3.545   4.612
14637TIP3    H243853   4.277   3.539   4.463
14638TIP3   OH243854   0.195   2.399   4.929
14638TIP3    H143855   0.241   2.371   4.850
14638TIP3    H243856   0.118   2.446   4.897
14639TIP3   OH243857   0.738   4.945   4.734
14639TIP3    H143858   0.729   5.040   4.745
14639TIP3    H243859   0.650   4.911   4.743
14640TIP3   OH243860   5.837   5.882   3.687
14640TIP3    H143861   5.868   5.870   3.777
14640TIP3    H243862   5.878   5.963   3.657
14641TIP3   OH243863   2.935   2.239   5.873
14641TIP3    H143864   2.847   2.203   5.877
14641TIP3    H243865   2.923   2.333   5.881
14642TIP3   OH243866   6.860   5.881  -0.077
14642TIP3    H143867   6.831   5.868   0.013
14642TIP3    H243868   6.905   5.965  -0.077
14643TIP3   OH243869   6.756   4.228   1.584
14643TIP3    H143870   6.767   4.313   1.627
14643TIP3    H243871   6.830   4.176   1.614
14644TIP3   OH243872   8.166   7.170   0.406
14644TIP3    H143873   8.207   7.111   0.469
14644TIP3    H243874   8.160   7.119   0.325
14645TIP3   OH243875   4.446   4.883   2.687
14645TIP3    H143876   4.407   4.819   2.746
14645TIP3    H243877   4.442   4.966   2.735
14646TIP3   OH243878   7.805   1.042   5.956
14646TIP3    H143879   7.780   1.132   5.977
14646TIP3    H243880   7.722   0.996   5.944
14647TIP3   OH243881   4.587   1.313   1.012
14647TIP3    H143882   4.506   1.354   0.981
14647TIP3    H243883   4.558   1.236   1.061
14648TIP3   OH243884   8.044   7.369   6.070
14648TIP3    H143885   8.017   7.424   6.143
14648TIP3    H243886   8.081   7.430   6.006
14649TIP3   OH243887   3.597   7.758   2.515
14649TIP3    H143888   3.668   7.823   2.514
14649TIP3    H243889   3.613   7.706   2.593
14650TIP3   OH243890   8.382   4.170   2.538
14650TIP3    H143891   8.292   4.180   2.568
14650TIP3    H243892   8.427   4.128   2.611
14651TIP3   OH243893   3.720   5.436   1.368
14651TIP3    H143894   3.646   5.435   1.308
14651TIP3    H243895   3.795   5.409   1.314
14652TIP3   OH243896   2.614   3.739   1.886
14652TIP3    H143897   2.627   3.670   1.950
14652TIP3    H243898   2.519   3.745   1.875
14653TIP3   OH243899   5.547   1.998   5.952
14653TIP3    H143900   5.612   1.974   5.886
14653TIP3    H243901   5.593   1.990   6.035
14654TIP3   OH243902   0.850   0.134   6.516
14654TIP3    H143903   0.770   0.182   6.536
14654TIP3    H243904   0.845   0.119   6.421
14655TIP3   OH243905   6.804   3.519   5.908
14655TIP3    H143906   6.739   3.499   5.841
14655TIP3    H243907   6.850   3.596   5.874
14656TIP3   OH243908   3.704   6.682   2.206
14656TIP3    H143909   3.769   6.612   2.192
14656TIP3    H243910   3.683   6.675   2.299
14657TIP3   OH243911   1.715   0.623   3.663
14657TIP3    H143912   1.710   0.619   3.759
14657TIP3    H243913   1.629   0.656   3.636
14658TIP3   OH243914   4.510   3.753   1.736
14658TIP3    H143915   4.441   3.789   1.791
14658TIP3    H243916   4.474   3.670   1.704
14659TIP3   OH243917   5.722   2.465   2.246
14659TIP3    H143918   5.748   2.534   2.308
14659TIP3    H243919   5.707   2.512   2.163
14660TIP3   OH243920   0.325   2.066   3.333
14660TIP3    H143921   0.375   2.145   3.311
14660TIP3    H243922   0.359   2.039   3.419
14661TIP3   OH243923   3.873   2.267   3.375
14661TIP3    H143924   3.818   2.327   3.426
14661TIP3    H243925   3.821   2.246   3.298
14662TIP3   OH243926   3.266   1.806   5.154
14662TIP3    H143927   3.275   1.758   5.072
14662TIP3    H243928   3.354   1.838   5.174
14663TIP3   OH243929   6.887   4.822   3.841
14663TIP3    H143930   6.927   4.759   3.901
14663TIP3    H243931   6.813   4.858   3.890
14664TIP3   OH243932   6.006   1.970   3.535
14664TIP3    H143933   6.034   1.909   3.467
14664TIP3    H243934   6.019   2.057   3.496
14665TIP3   OH243935   3.139   1.797   1.368
14665TIP3    H143936   3.090   1.765   1.292
14665TIP3    H243937   3.101   1.883   1.386
14666TIP3   OH243938   6.014   0.882   4.055
14666TIP3    H143939   6.044   0.972   4.064
14666TIP3    H243940   5.927   0.882   4.095
14667TIP3   OH243941   2.869   5.264   2.293
14667TIP3    H143942   2.860   5.222   2.379
14667TIP3    H243943   2.861   5.358   2.312
14668TIP3   OH243944   0.486   0.167   3.096
14668TIP3    H143945   0.540   0.140   3.171
14668TIP3    H243946   0.486   0.263   3.100
14669TIP3   OH243947   6.159   6.310   1.797
14669TIP3    H143948   6.176   6.289   1.889
14669TIP3    H243949   6.096   6.382   1.801
14670TIP3   OH243950   6.753   2.451   0.391
14670TIP3    H143951   6.698   2.525   0.417
14670TIP3    H243952   6.761   2.459   0.296
14671TIP3   OH243953   0.223   6.559   4.255
14671TIP3    H143954   0.154   6.579   4.318
14671TIP3    H243955   0.292   6.517   4.308
14672TIP3   OH243956   0.308   3.783   6.615
14672TIP3    H143957   0.385   3.729   6.634
14672TIP3    H243958   0.300   3.840   6.691
14673TIP3   OH243959   6.869   2.597   4.000
14673TIP3    H143960   6.833   2.515   3.968
14673TIP3    H243961   6.833   2.664   3.941
14674TIP3   OH243962   4.638   6.959   2.169
14674TIP3    H143963   4.651   7.001   2.255
14674TIP3    H243964   4.676   7.021   2.107
14675TIP3   OH243965   0.706   0.648   1.716
14675TIP3    H143966   0.682   0.706   1.788
14675TIP3    H243967   0.640   0.578   1.719
14676TIP3   OH243968   7.187   6.866   6.437
14676TIP3    H143969   7.200   6.771   6.437
14676TIP3    H243970   7.228   6.896   6.518
14677TIP3   OH243971   7.037   3.599   5.338
14677TIP3    H143972   6.983   3.617   5.415
14677TIP3    H243973   7.037   3.504   5.331
14678TIP3   OH243974   2.435   1.784   6.612
14678TIP3    H143975   2.343   1.773   6.637
14678TIP3    H243976   2.456   1.874   6.638
14679TIP3   OH243977   7.229   0.000   5.048
14679TIP3    H143978   7.296   0.068   5.051
14679TIP3    H243979   7.151   0.045   5.014
14680TIP3   OH243980   7.534   5.766   0.637
14680TIP3    H143981   7.499   5.826   0.703
14680TIP3    H243982   7.508   5.804   0.554
14681TIP3   OH243983   7.095   2.302   1.043
14681TIP3    H143984   7.146   2.368   1.090
14681TIP3    H243985   7.080   2.233   1.108
14682TIP3   OH243986   4.890   7.692   3.702
14682TIP3    H143987   4.872   7.778   3.739
14682TIP3    H243988   4.986   7.688   3.695
14683TIP3   OH243989   8.141   5.637   4.858
14683TIP3    H143990   8.098   5.552   4.867
14683TIP3    H243991   8.078   5.700   4.892
14684TIP3   OH243992   8.332   4.133   0.944
14684TIP3    H143993   8.353   4.044   0.915
14684TIP3    H243994   8.254   4.122   0.999
14685TIP3   OH243995   1.101   6.545   3.289
14685TIP3    H143996   1.026   6.600   3.269
14685TIP3    H243997   1.125   6.567   3.379
14686TIP3   OH243998   3.024   5.228   2.718
14686TIP3    H143999   2.984   5.295   2.663
14686TIP3    H244000   2.969   5.151   2.705
14687TIP3   OH244001   6.422   2.669   5.774
14687TIP3    H144002   6.425   2.649   5.867
14687TIP3    H244003   6.374   2.751   5.768
14688TIP3   OH244004   4.961   3.075   2.991
14688TIP3    H144005   4.972   2.980   2.996
14688TIP3    H244006   4.871   3.090   3.020
14689TIP3   OH244007   5.346   6.476   6.574
14689TIP3    H144008   5.357   6.566   6.544
14689TIP3    H244009   5.402   6.424   6.516
14690TIP3   OH244010   8.323   6.151   5.456
14690TIP3    H144011   8.397   6.198   5.416
14690TIP3    H244012   8.285   6.101   5.384
14691TIP3   OH244013   7.619   3.719   4.439
14691TIP3    H144014   7.648   3.786   4.378
14691TIP3    H244015   7.535   3.689   4.403
14692TIP3   OH244016   8.338   5.110   0.695
14692TIP3    H144017   8.426   5.078   0.715
14692TIP3    H244018   8.334   5.110   0.599
14693TIP3   OH244019   2.350   3.113   2.182
14693TIP3    H144020   2.422   3.158   2.227
14693TIP3    H244021   2.291   3.183   2.156
14694TIP3   OH244022   5.474   1.594   5.722
14694TIP3    H144023   5.467   1.687   5.702
14694TIP3    H244024   5.524   1.558   5.648
14695TIP3   OH244025   4.214   0.286   1.120
14695TIP3    H144026   4.285   0.344   1.095
14695TIP3    H244027   4.179   0.324   1.201
14696TIP3   OH244028   1.223   5.176   6.555
14696TIP3    H144029   1.208   5.092   6.598
14696TIP3    H244030   1.253   5.234   6.625
14697TIP3   OH244031   4.347   7.226   0.853
14697TIP3    H144032   4.415   7.256   0.793
14697TIP3    H244033   4.301   7.157   0.805
14698TIP3   OH244034   0.325   5.402   0.111
14698TIP3    H144035   0.391   5.333   0.123
14698TIP3    H244036   0.314   5.408   0.016
14699TIP3   OH244037   6.993   6.795   6.183
14699TIP3    H144038   7.065   6.819   6.242
14699TIP3    H244039   6.960   6.879   6.150
14700TIP3   OH244040   4.850   7.214   6.362
14700TIP3    H144041   4.914   7.178   6.300
14700TIP3    H244042   4.889   7.198   6.448
14701TIP3   OH244043   2.550   2.925   3.768
14701TIP3    H144044   2.553   2.831   3.749
14701TIP3    H244045   2.610   2.965   3.705
14702TIP3   OH244046   5.902   4.576   1.657
14702TIP3    H144047   5.876   4.519   1.585
14702TIP3    H244048   5.821   4.592   1.706
14703TIP3   OH244049   0.961   1.638   2.339
14703TIP3    H144050   0.981   1.561   2.285
14703TIP3    H244051   0.880   1.673   2.301
14704TIP3   OH244052   2.516   7.240   2.381
14704TIP3    H144053   2.449   7.269   2.443
14704TIP3    H244054   2.519   7.145   2.392
14705TIP3   OH244055   1.453   4.143   1.129
14705TIP3    H144056   1.474   4.052   1.148
14705TIP3    H244057   1.511   4.166   1.056
14706TIP3   OH244058   7.849   3.661   0.956
14706TIP3    H144059   7.900   3.679   0.877
14706TIP3    H244060   7.849   3.566   0.964
14707TIP3   OH244061   1.528   5.390   0.786
14707TIP3    H144062   1.506   5.351   0.870
14707TIP3    H244063   1.561   5.477   0.807
14708TIP3   OH244064   6.789   2.597   5.431
14708TIP3    H144065   6.858   2.615   5.367
14708TIP3    H244066   6.810   2.511   5.466
14709TIP3   OH244067   6.340   7.309   5.970
14709TIP3    H144068   6.283   7.254   6.023
14709TIP3    H244069   6.285   7.339   5.898
14710TIP3   OH244070   4.509   4.613   1.618
14710TIP3    H144071   4.591   4.585   1.577
14710TIP3    H244072   4.487   4.543   1.679
14711TIP3   OH244073   7.859   0.475   0.247
14711TIP3    H144074   7.913   0.413   0.199
14711TIP3    H244075   7.902   0.560   0.234
14712TIP3   OH244076   3.411   7.275   1.333
14712TIP3    H144077   3.406   7.269   1.237
14712TIP3    H244078   3.393   7.186   1.363
14713TIP3   OH244079   0.135   6.474   2.824
14713TIP3    H144080   0.230   6.475   2.833
14713TIP3    H244081   0.105   6.423   2.899
14714TIP3   OH244082   2.128   3.327   5.150
14714TIP3    H144083   2.181   3.301   5.225
14714TIP3    H244084   2.143   3.421   5.141
14715TIP3   OH244085   1.181   6.360   0.555
14715TIP3    H144086   1.168   6.301   0.629
14715TIP3    H244087   1.100   6.354   0.505
14716TIP3   OH244088   1.511   6.689   5.787
14716TIP3    H144089   1.501   6.756   5.719
14716TIP3    H244090   1.436   6.632   5.775
14717TIP3   OH244091   4.834   5.541   2.395
14717TIP3    H144092   4.792   5.467   2.440
14717TIP3    H244093   4.779   5.557   2.318
14718TIP3   OH244094   0.404   5.947   4.126
14718TIP3    H144095   0.485   5.896   4.122
14718TIP3    H244096   0.349   5.910   4.057
14719TIP3   OH244097   7.777   0.068   6.309
14719TIP3    H144098   7.696   0.073   6.258
14719TIP3    H244099   7.838   0.126   6.263
14720TIP3   OH244100   4.799   3.785   2.762
14720TIP3    H144101   4.818   3.749   2.675
14720TIP3    H244102   4.830   3.876   2.758
14721TIP3   OH244103   4.841   6.094   4.059
14721TIP3    H144104   4.913   6.117   4.117
14721TIP3    H244105   4.882   6.074   3.975
14722TIP3   OH244106   5.467   0.795   1.578
14722TIP3    H144107   5.447   0.822   1.668
14722TIP3    H244108   5.549   0.839   1.557
14723TIP3   OH244109   7.113   5.597   5.174
14723TIP3    H144110   7.150   5.508   5.178
14723TIP3    H244111   7.032   5.587   5.124
14724TIP3   OH244112   2.384   7.451   0.932
14724TIP3    H144113   2.420   7.534   0.963
14724TIP3    H244114   2.313   7.477   0.873
14725TIP3   OH244115   6.263   2.238   3.751
14725TIP3    H144116   6.246   2.228   3.845
14725TIP3    H244117   6.201   2.305   3.722
14726TIP3   OH244118   2.816   7.757   3.250
14726TIP3    H144119   2.798   7.848   3.274
14726TIP3    H244120   2.734   7.726   3.210
14727TIP3   OH244121   4.861   2.980   0.752
14727TIP3    H144122   4.803   2.908   0.779
14727TIP3    H244123   4.808   3.031   0.690
14728TIP3   OH244124   3.411   1.425   2.457
14728TIP3    H144125   3.480   1.492   2.452
14728TIP3    H244126   3.361   1.436   2.377
14729TIP3   OH244127   3.861   2.008   5.730
14729TIP3    H144128   3.913   2.079   5.769
14729TIP3    H244129   3.923   1.936   5.720
14730TIP3   OH244130   1.476   4.249   4.257
14730TIP3    H144131   1.433   4.328   4.224
14730TIP3    H244132   1.418   4.218   4.327
14731TIP3   OH244133   4.811   5.808   1.937
14731TIP3    H144134   4.884   5.862   1.909
14731TIP3    H244135   4.761   5.791   1.857
14732TIP3   OH244136   2.608   3.374   1.305
14732TIP3    H144137   2.692   3.331   1.289
14732TIP3    H244138   2.545   3.324   1.252
14733TIP3   OH244139   1.376   1.491   0.104
14733TIP3    H144140   1.421   1.575   0.102
14733TIP3    H244141   1.414   1.442   0.031
14734TIP3   OH244142   1.205   4.607   1.201
14734TIP3    H144143   1.198   4.574   1.111
14734TIP3    H244144   1.217   4.702   1.191
14735TIP3   OH244145   5.397   3.863   0.984
14735TIP3    H144146   5.386   3.956   1.004
14735TIP3    H244147   5.487   3.856   0.950
14736TIP3   OH244148   6.504   4.549   4.092
14736TIP3    H144149   6.525   4.636   4.060
14736TIP3    H244150   6.446   4.512   4.025
14737TIP3   OH244151   5.968   3.933   4.848
14737TIP3    H144152   6.014   4.011   4.818
14737TIP3    H244153   5.997   3.864   4.788
14738TIP3   OH244154   4.282   4.600   4.177
14738TIP3    H144155   4.373   4.624   4.189
14738TIP3    H244156   4.273   4.585   4.082
14739TIP3   OH244157   4.783   3.642   6.274
14739TIP3    H144158   4.736   3.684   6.346
14739TIP3    H244159   4.795   3.552   6.303
14740TIP3   OH244160   4.489   5.833   0.969
14740TIP3    H144161   4.506   5.739   0.978
14740TIP3    H244162   4.550   5.874   1.030
14741TIP3   OH244163   2.231   2.065   5.091
14741TIP3    H144164   2.152   2.067   5.037
14741TIP3    H244165   2.245   1.972   5.108
14742TIP3   OH244166   4.371   0.586   4.183
14742TIP3    H144167   4.337   0.497   4.183
14742TIP3    H244168   4.400   0.600   4.273
14743TIP3   OH244169   0.674   5.515   4.728
14743TIP3    H144170   0.663   5.446   4.793
14743TIP3    H244171   0.754   5.561   4.754
14744TIP3   OH244172   0.455   3.694   2.187
14744TIP3    H144173   0.470   3.778   2.145
14744TIP3    H244174   0.518   3.635   2.145
14745TIP3   OH244175   0.227   5.321   4.026
14745TIP3    H144176   0.198   5.328   4.117
14745TIP3    H244177   0.198   5.234   3.998
14746TIP3   OH244178   6.929   4.206   6.741
14746TIP3    H144179   6.903   4.182   6.652
14746TIP3    H244180   6.848   4.240   6.781
14747TIP3   OH244181   6.558   4.482   5.655
14747TIP3    H144182   6.571   4.387   5.649
14747TIP3    H244183   6.540   4.509   5.564
14748TIP3   OH244184   7.268   4.404   4.710
14748TIP3    H144185   7.215   4.478   4.682
14748TIP3    H244186   7.318   4.437   4.785
14749TIP3   OH244187   4.829   5.431   5.558
14749TIP3    H144188   4.838   5.520   5.526
14749TIP3    H244189   4.919   5.403   5.577
14750TIP3   OH244190   2.917   5.313   1.772
14750TIP3    H144191   2.845   5.320   1.834
14750TIP3    H244192   2.980   5.255   1.816
14751TIP3   OH244193   4.073   4.837   5.451
14751TIP3    H144194   4.098   4.780   5.523
14751TIP3    H244195   3.978   4.845   5.459
14752TIP3   OH244196   6.113   0.331   2.554
14752TIP3    H144197   6.174   0.276   2.505
14752TIP3    H244198   6.120   0.299   2.645
14753TIP3   OH244199   2.312   4.590   1.744
14753TIP3    H144200   2.358   4.523   1.694
14753TIP3    H244201   2.376   4.659   1.757
14754TIP3   OH244202   3.783   1.117   2.011
14754TIP3    H144203   3.703   1.132   2.063
14754TIP3    H244204   3.758   1.140   1.922
14755TIP3   OH244205   7.181   2.326   3.252
14755TIP3    H144206   7.212   2.411   3.281
14755TIP3    H244207   7.103   2.308   3.305
14756TIP3   OH244208   5.486   4.879   4.114
14756TIP3    H144209   5.467   4.882   4.020
14756TIP3    H244210   5.559   4.818   4.121
14757TIP3   OH244211   2.661   3.580   4.266
14757TIP3    H144212   2.571   3.549   4.254
14757TIP3    H244213   2.701   3.571   4.179
14758TIP3   OH244214   5.934   1.492   4.198
14758TIP3    H144215   5.850   1.485   4.154
14758TIP3    H244216   5.981   1.560   4.148
14759TIP3   OH244217   5.375   1.322   5.491
14759TIP3    H144218   5.359   1.397   5.433
14759TIP3    H244219   5.437   1.268   5.443
14760TIP3   OH244220   1.120   7.182   2.345
14760TIP3    H144221   1.045   7.122   2.347
14760TIP3    H244222   1.186   7.137   2.292
14761TIP3   OH244223   6.549   0.075   2.470
14761TIP3    H144224   6.634   0.051   2.506
14761TIP3    H244225   6.554   0.052   2.377
14762TIP3   OH244226   2.507   0.165   6.276
14762TIP3    H144227   2.564   0.170   6.353
14762TIP3    H244228   2.554   0.215   6.208
14763TIP3   OH244229   6.570   4.555   1.302
14763TIP3    H144230   6.539   4.586   1.217
14763TIP3    H244231   6.491   4.526   1.347
14764TIP3   OH244232   0.708   3.230   3.153
14764TIP3    H144233   0.629   3.178   3.169
14764TIP3    H244234   0.708   3.297   3.221
14765TIP3   OH244235   4.109   6.712   6.547
14765TIP3    H144236   4.102   6.660   6.467
14765TIP3    H244237   4.112   6.803   6.517
14766TIP3   OH244238   1.800   2.436   1.360
14766TIP3    H144239   1.718   2.485   1.366
14766TIP3    H244240   1.773   2.345   1.346
14767TIP3   OH244241   2.083   2.412   3.487
14767TIP3    H144242   2.159   2.382   3.537
14767TIP3    H244243   2.008   2.381   3.537
14768TIP3   OH244244   2.229   4.110   3.247
14768TIP3    H144245   2.299   4.169   3.220
14768TIP3    H244246   2.235   4.036   3.186
14769TIP3   OH244247   5.304   0.123   6.708
14769TIP3    H144248   5.299   0.086   6.620
14769TIP3    H244249   5.234   0.189   6.710
14770TIP3   OH244250   2.111   2.585   4.107
14770TIP3    H144251   2.099   2.679   4.120
14770TIP3    H244252   2.205   2.572   4.115
14771TIP3   OH244253   1.319   5.775   5.805
14771TIP3    H144254   1.394   5.832   5.824
14771TIP3    H244255   1.353   5.686   5.816
14772TIP3   OH244256   5.629   4.032   2.305
14772TIP3    H144257   5.661   3.972   2.372
14772TIP3    H244258   5.663   3.997   2.223
14773TIP3   OH244259   1.552   3.344   2.805
14773TIP3    H144260   1.495   3.302   2.741
14773TIP3    H244261   1.512   3.324   2.890
14774TIP3   OH244262   5.723   0.327   1.374
14774TIP3    H144263   5.632   0.340   1.349
14774TIP3    H244264   5.767   0.407   1.343
14775TIP3   OH244265   8.257   4.733   2.482
14775TIP3    H144266   8.309   4.740   2.402
14775TIP3    H244267   8.193   4.664   2.463
14776TIP3   OH244268   4.873   1.043   0.998
14776TIP3    H144269   4.955   1.086   0.975
14776TIP3    H244270   4.892   0.999   1.081
14777TIP3   OH244271   6.785   2.358   5.204
14777TIP3    H144272   6.731   2.329   5.278
14777TIP3    H244273   6.842   2.283   5.186
14778TIP3   OH244274   6.286   4.890   1.072
14778TIP3    H144275   6.283   4.893   1.168
14778TIP3    H244276   6.254   4.976   1.044
14779TIP3   OH244277   1.204   3.891   1.967
14779TIP3    H144278   1.254   3.966   1.999
14779TIP3    H244279   1.194   3.907   1.873
14780TIP3   OH244280   6.044   3.056   4.761
14780TIP3    H144281   6.106   3.034   4.692
14780TIP3    H244282   5.965   3.004   4.740
14781TIP3   OH244283   5.526   4.387   2.027
14781TIP3    H144284   5.606   4.354   1.986
14781TIP3    H244285   5.556   4.434   2.104
14782TIP3   OH244286   3.201   7.746   5.740
14782TIP3    H144287   3.215   7.829   5.785
14782TIP3    H244288   3.144   7.768   5.666
14783TIP3   OH244289   2.101   2.555   3.811
14783TIP3    H144290   2.107   2.556   3.906
14783TIP3    H244291   2.054   2.475   3.789
14784TIP3   OH244292   8.185   4.455   0.020
14784TIP3    H144293   8.209   4.510   0.095
14784TIP3    H244294   8.243   4.379   0.026
14785TIP3   OH244295   2.375   6.818   0.739
14785TIP3    H144296   2.452   6.875   0.741
14785TIP3    H244297   2.362   6.799   0.646
14786TIP3   OH244298   2.460   2.646   6.761
14786TIP3    H144299   2.436   2.607   6.845
14786TIP3    H244300   2.550   2.674   6.773
14787TIP3   OH244301   6.523   6.869   0.420
14787TIP3    H144302   6.510   6.940   0.356
14787TIP3    H244303   6.609   6.834   0.400
14788TIP3   OH244304   7.147   4.291   2.663
14788TIP3    H144305   7.221   4.245   2.702
14788TIP3    H244306   7.076   4.281   2.726
14789TIP3   OH244307   0.826   3.312   6.338
14789TIP3    H144308   0.836   3.364   6.418
14789TIP3    H244309   0.808   3.224   6.370
14790TIP3   OH244310   3.240   1.546   3.676
14790TIP3    H144311   3.162   1.587   3.638
14790TIP3    H244312   3.232   1.453   3.655
14791TIP3   OH244313   5.601   1.652   1.915
14791TIP3    H144314   5.576   1.724   1.973
14791TIP3    H244315   5.630   1.582   1.975
14792TIP3   OH244316   1.721   3.619   0.615
14792TIP3    H144317   1.688   3.708   0.633
14792TIP3    H244318   1.814   3.624   0.635
14793TIP3   OH244319   8.123   7.284   3.080
14793TIP3    H144320   8.098   7.350   3.145
14793TIP3    H244321   8.071   7.307   3.002
14794TIP3   OH244322   3.837   1.606   0.128
14794TIP3    H144323   3.882   1.634   0.048
14794TIP3    H244324   3.814   1.688   0.172
14795TIP3   OH244325   5.045   6.935   5.215
14795TIP3    H144326   5.014   6.955   5.126
14795TIP3    H244327   4.995   6.994   5.271
14796TIP3   OH244328   0.576   4.662   0.146
14796TIP3    H144329   0.586   4.567   0.145
14796TIP3    H244330   0.498   4.677   0.200
14797TIP3   OH244331   2.658   1.897   4.309
14797TIP3    H144332   2.732   1.842   4.284
14797TIP3    H244333   2.591   1.835   4.340
14798TIP3   OH244334   4.004   6.767   5.970
14798TIP3    H144335   3.960   6.732   6.047
14798TIP3    H244336   3.932   6.796   5.913
14799TIP3   OH244337   7.964   3.839   0.345
14799TIP3    H144338   8.010   3.868   0.267
14799TIP3    H244339   7.906   3.911   0.368
14800TIP3   OH244340   3.416   2.569   5.191
14800TIP3    H144341   3.407   2.501   5.258
14800TIP3    H244342   3.459   2.641   5.235
14801TIP3   OH244343   6.122   6.476   3.262
14801TIP3    H144344   6.179   6.426   3.204
14801TIP3    H244345   6.179   6.541   3.301
14802TIP3   OH244346   2.016   5.342   5.198
14802TIP3    H144347   1.971   5.422   5.172
14802TIP3    H244348   2.051   5.361   5.285
14803TIP3   OH244349   3.499   5.949   4.485
14803TIP3    H144350   3.442   6.016   4.523
14803TIP3    H244351   3.587   5.974   4.514
14804TIP3   OH244352   5.996   1.128   2.993
14804TIP3    H144353   6.058   1.201   2.993
14804TIP3    H244354   5.973   1.116   3.085
14805TIP3   OH244355   1.913   1.751   0.669
14805TIP3    H144356   1.875   1.663   0.661
14805TIP3    H244357   1.848   1.800   0.719
14806TIP3   OH244358   1.033   7.777   0.551
14806TIP3    H144359   0.956   7.814   0.595
14806TIP3    H244360   0.999   7.748   0.466
14807TIP3   OH244361   4.400   2.248   6.812
14807TIP3    H144362   4.420   2.181   6.748
14807TIP3    H244363   4.469   2.239   6.878
14808TIP3   OH244364   2.697   4.789   1.457
14808TIP3    H144365   2.695   4.885   1.459
14808TIP3    H244366   2.620   4.762   1.508
14809TIP3   OH244367   2.949   6.000   1.562
14809TIP3    H144368   2.859   6.031   1.570
14809TIP3    H244369   2.967   5.956   1.644
14810TIP3   OH244370   0.700   4.253   6.760
14810TIP3    H144371   0.613   4.227   6.730
14810TIP3    H244372   0.760   4.207   6.701
14811TIP3   OH244373   5.726   1.354   4.342
14811TIP3    H144374   5.807   1.397   4.312
14811TIP3    H244375   5.667   1.359   4.267
14812TIP3   OH244376   4.220   5.180   1.830
14812TIP3    H144377   4.141   5.165   1.777
14812TIP3    H244378   4.193   5.163   1.920
14813TIP3   OH244379   6.661   1.009   4.002
14813TIP3    H144380   6.660   0.957   4.082
14813TIP3    H244381   6.599   0.966   3.943
14814TIP3   OH244382   4.849   3.186   4.472
14814TIP3    H144383   4.798   3.135   4.408
14814TIP3    H244384   4.857   3.272   4.433
14815TIP3   OH244385   0.293   6.686   1.133
14815TIP3    H144386   0.308   6.679   1.227
14815TIP3    H244387   0.295   6.595   1.102
14816TIP3   OH244388   4.748   4.586   3.659
14816TIP3    H144389   4.690   4.515   3.635
14816TIP3    H244390   4.771   4.628   3.576
14817TIP3   OH244391   4.664   2.166   1.850
14817TIP3    H144392   4.749   2.136   1.881
14817TIP3    H244393   4.601   2.129   1.911
14818TIP3   OH244394   2.651   2.977   4.808
14818TIP3    H144395   2.559   2.989   4.785
14818TIP3    H244396   2.649   2.941   4.897
14819TIP3   OH244397   1.518   6.378   1.290
14819TIP3    H144398   1.546   6.444   1.354
14819TIP3    H244399   1.423   6.376   1.297
14820TIP3   OH244400   4.037   6.368   2.089
14820TIP3    H144401   3.989   6.419   2.023
14820TIP3    H244402   4.058   6.286   2.044
14821TIP3   OH244403   4.499   1.262   5.175
14821TIP3    H144404   4.440   1.229   5.242
14821TIP3    H244405   4.556   1.188   5.154
14822TIP3   OH244406   5.251   2.474   6.528
14822TIP3    H144407   5.327   2.495   6.583
14822TIP3    H244408   5.181   2.529   6.564
14823TIP3   OH244409   2.686   0.070   1.842
14823TIP3    H144410   2.740   0.134   1.795
14823TIP3    H244411   2.596   0.100   1.828
14824TIP3   OH244412   6.149   0.951   2.136
14824TIP3    H144413   6.240   0.927   2.120
14824TIP3    H244414   6.145   0.970   2.230
14825TIP3   OH244415   5.488   5.202   0.266
14825TIP3    H144416   5.485   5.270   0.199
14825TIP3    H244417   5.439   5.239   0.340
14826TIP3   OH244418   7.642   5.598   6.093
14826TIP3    H144419   7.562   5.633   6.132
14826TIP3    H244420   7.616   5.570   6.005
14827TIP3   OH244421   4.861   1.265   6.630
14827TIP3    H144422   4.810   1.293   6.554
14827TIP3    H244423   4.803   1.205   6.677
14828TIP3   OH244424   5.582   1.356   2.567
14828TIP3    H144425   5.653   1.294   2.588
14828TIP3    H244426   5.510   1.330   2.624
14829TIP3   OH244427   4.242   2.087   6.347
14829TIP3    H144428   4.263   2.047   6.263
14829TIP3    H244429   4.297   2.165   6.351
14830TIP3   OH244430   1.796   0.682   1.166
14830TIP3    H144431   1.787   0.616   1.098
14830TIP3    H244432   1.706   0.705   1.189
14831TIP3   OH244433   5.266   0.144   5.509
14831TIP3    H144434   5.265   0.121   5.416
14831TIP3    H244435   5.341   0.203   5.518
14832TIP3   OH244436   5.529   3.891   4.080
14832TIP3    H144437   5.502   3.979   4.051
14832TIP3    H244438   5.509   3.890   4.173
14833TIP3   OH244439   2.243   0.735   0.871
14833TIP3    H144440   2.168   0.678   0.857
14833TIP3    H244441   2.311   0.676   0.904
14834TIP3   OH244442   5.208   0.240   2.363
14834TIP3    H144443   5.283   0.204   2.412
14834TIP3    H244444   5.224   0.334   2.363
14835TIP3   OH244445   5.249   6.649   5.961
14835TIP3    H144446   5.298   6.720   5.919
14835TIP3    H244447   5.313   6.606   6.018
14836TIP3   OH244448   3.876   6.857   6.665
14836TIP3    H144449   3.937   6.923   6.697
14836TIP3    H244450   3.929   6.800   6.608
14837TIP3   OH244451   4.016   1.843   6.198
14837TIP3    H144452   4.074   1.782   6.152
14837TIP3    H244453   3.978   1.792   6.269
14838TIP3   OH244454   7.735   0.338   4.988
14838TIP3    H144455   7.817   0.293   5.008
14838TIP3    H244456   7.710   0.381   5.069
14839TIP3   OH244457   2.177   4.928   5.863
14839TIP3    H144458   2.100   4.970   5.901
14839TIP3    H244459   2.232   4.906   5.937
14840TIP3   OH244460   7.367   2.894   0.454
14840TIP3    H144461   7.414   2.953   0.395
14840TIP3    H244462   7.283   2.879   0.410
14841TIP3   OH244463   3.427   4.574   6.010
14841TIP3    H144464   3.467   4.501   6.057
14841TIP3    H244465   3.409   4.540   5.923
14842TIP3   OH244466   7.809   5.958   4.027
14842TIP3    H144467   7.774   5.916   4.105
14842TIP3    H244468   7.804   5.891   3.959
14843TIP3   OH244469   1.787   3.288   3.619
14843TIP3    H144470   1.696   3.259   3.628
14843TIP3    H244471   1.782   3.383   3.626
14844TIP3   OH244472   6.288   5.980   3.533
14844TIP3    H144473   6.348   6.003   3.462
14844TIP3    H244474   6.240   5.904   3.500
14845TIP3   OH244475   0.318   4.957   0.244
14845TIP3    H144476   0.361   5.002   0.316
14845TIP3    H244477   0.251   4.904   0.286
14846TIP3   OH244478   2.892   4.828   2.047
14846TIP3    H144479   2.935   4.912   2.065
14846TIP3    H244480   2.909   4.812   1.954
14847TIP3   OH244481   6.902   3.925   0.935
14847TIP3    H144482   6.944   4.004   0.970
14847TIP3    H244483   6.876   3.950   0.846
14848TIP3   OH244484   4.558   7.022   6.551
14848TIP3    H144485   4.563   6.927   6.564
14848TIP3    H244486   4.617   7.058   6.617
14849TIP3   OH244487   0.187   6.827  -0.048
14849TIP3    H144488   0.250   6.778   0.005
14849TIP3    H244489   0.101   6.793  -0.020
14850TIP3   OH244490   6.116   0.254   0.680
14850TIP3    H144491   6.203   0.280   0.649
14850TIP3    H244492   6.113   0.159   0.670
14851TIP3   OH244493   4.372   2.052   0.682
14851TIP3    H144494   4.441   2.040   0.617
14851TIP3    H244495   4.418   2.049   0.766
14852TIP3   OH244496   2.789   0.843   0.121
14852TIP3    H144497   2.845   0.860   0.045
14852TIP3    H244498   2.819   0.906   0.187
14853TIP3   OH244499   8.041   0.568   1.666
14853TIP3    H144500   7.949   0.576   1.640
14853TIP3    H244501   8.068   0.482   1.633
14854TIP3   OH244502   4.787   2.638   5.766
14854TIP3    H144503   4.799   2.567   5.702
14854TIP3    H244504   4.771   2.593   5.849
14855TIP3   OH244505   7.730   3.311   1.765
14855TIP3    H144506   7.638   3.294   1.784
14855TIP3    H244507   7.755   3.381   1.826
14856TIP3   OH244508   5.251   0.666   5.062
14856TIP3    H144509   5.167   0.622   5.048
14856TIP3    H244510   5.307   0.633   4.991
14857TIP3   OH244511   2.446   6.914   2.727
14857TIP3    H144512   2.538   6.936   2.742
14857TIP3    H244513   2.413   6.891   2.814
14858TIP3   OH244514   0.516   0.728   5.202
14858TIP3    H144515   0.462   0.700   5.128
14858TIP3    H244516   0.594   0.766   5.160
14859TIP3   OH244517   7.187   2.448   2.150
14859TIP3    H144518   7.200   2.469   2.242
14859TIP3    H244519   7.270   2.410   2.122
14860TIP3   OH244520   4.294   2.636   6.682
14860TIP3    H144521   4.327   2.556   6.642
14860TIP3    H244522   4.372   2.689   6.699
14861TIP3   OH244523   1.016   1.854   4.319
14861TIP3    H144524   1.084   1.790   4.300
14861TIP3    H244525   0.955   1.808   4.377
14862TIP3   OH244526   5.498   5.766   3.707
14862TIP3    H144527   5.571   5.749   3.766
14862TIP3    H244528   5.540   5.792   3.625
14863TIP3   OH244529   0.218   0.236   3.948
14863TIP3    H144530   0.201   0.157   3.999
14863TIP3    H244531   0.151   0.298   3.976
14864TIP3   OH244532   2.154   6.863   5.745
14864TIP3    H144533   2.112   6.917   5.812
14864TIP3    H244534   2.247   6.884   5.750
14865TIP3   OH244535   3.474   7.210   5.050
14865TIP3    H144536   3.524   7.209   4.968
14865TIP3    H244537   3.443   7.300   5.058
14866TIP3   OH244538   4.297   4.225   4.701
14866TIP3    H144539   4.299   4.300   4.760
14866TIP3    H244540   4.368   4.168   4.731
14867TIP3   OH244541   4.962   1.441   5.393
14867TIP3    H144542   4.928   1.368   5.342
14867TIP3    H244543   4.973   1.512   5.330
14868TIP3   OH244544   3.201   6.680   6.174
14868TIP3    H144545   3.267   6.617   6.202
14868TIP3    H244546   3.189   6.662   6.080
14869TIP3   OH244547   8.177   7.799   0.167
14869TIP3    H144548   8.116   7.862   0.203
14869TIP3    H244549   8.124   7.722   0.148
14870TIP3   OH244550   0.088   3.233   1.330
14870TIP3    H144551   0.048   3.307   1.375
14870TIP3    H244552   0.137   3.272   1.258
14871TIP3   OH244553   7.323   3.152   3.788
14871TIP3    H144554   7.351   3.061   3.780
14871TIP3    H244555   7.239   3.148   3.832
14872TIP3   OH244556   2.816   1.504   1.075
14872TIP3    H144557   2.743   1.460   1.117
14872TIP3    H244558   2.841   1.445   1.003
14873TIP3   OH244559   1.319   5.664   4.099
14873TIP3    H144560   1.361   5.709   4.172
14873TIP3    H244561   1.314   5.572   4.127
14874TIP3   OH244562   0.670   2.839   4.049
14874TIP3    H144563   0.645   2.891   3.973
14874TIP3    H244564   0.745   2.886   4.086
14875TIP3   OH244565   3.845   6.478   0.481
14875TIP3    H144566   3.932   6.470   0.444
14875TIP3    H244567   3.794   6.408   0.439
14876TIP3   OH244568   4.143   2.711   5.561
14876TIP3    H144569   4.217   2.770   5.546
14876TIP3    H244570   4.120   2.724   5.653
14877TIP3   OH244571   1.978   2.174   2.201
14877TIP3    H144572   1.919   2.239   2.241
14877TIP3    H244573   1.998   2.210   2.115
14878TIP3   OH244574   7.729   3.832   2.377
14878TIP3    H144575   7.674   3.783   2.439
14878TIP3    H244576   7.818   3.817   2.408
14879TIP3   OH244577   5.321   7.679   0.159
14879TIP3    H144578   5.329   7.773   0.172
14879TIP3    H244579   5.327   7.667   0.064
14880TIP3   OH244580   5.399   3.641   5.680
14880TIP3    H144581   5.336   3.706   5.710
14880TIP3    H244582   5.445   3.613   5.759
14881TIP3   OH244583   2.917   7.085   5.182
14881TIP3    H144584   2.966   7.069   5.262
14881TIP3    H244585   2.851   7.015   5.180
14882TIP3   OH244586   0.046   5.557   5.300
14882TIP3    H144587   0.015   5.560   5.210
14882TIP3    H244588  -0.022   5.510   5.347
14883TIP3   OH244589   6.792   3.925   4.514
14883TIP3    H144590   6.840   3.843   4.531
14883TIP3    H244591   6.851   3.993   4.545
14884TIP3   OH244592   5.438   0.489   1.249
14884TIP3    H144593   5.388   0.568   1.232
14884TIP3    H244594   5.506   0.487   1.182
14885TIP3   OH244595   2.427   0.345   6.633
14885TIP3    H144596   2.484   0.415   6.600
14885TIP3    H244597   2.340   0.385   6.639
14886TIP3   OH244598   7.128   0.658   2.408
14886TIP3    H144599   7.154   0.613   2.327
14886TIP3    H244600   7.211   0.680   2.451
14887TIP3   OH244601   1.191   4.394   4.584
14887TIP3    H144602   1.122   4.459   4.568
14887TIP3    H244603   1.145   4.320   4.624
14888TIP3   OH244604   3.764   2.134   4.203
14888TIP3    H144605   3.724   2.090   4.278
14888TIP3    H244606   3.723   2.092   4.127
14889TIP3   OH244607   4.666   4.879   6.439
14889TIP3    H144608   4.659   4.786   6.460
14889TIP3    H244609   4.707   4.881   6.353
14890TIP3   OH244610   7.492   5.136   4.166
14890TIP3    H144611   7.471   5.180   4.083
14890TIP3    H244612   7.474   5.202   4.233
14891TIP3   OH244613   1.479   1.739   2.479
14891TIP3    H144614   1.456   1.784   2.560
14891TIP3    H244615   1.400   1.745   2.425
14892TIP3   OH244616   6.494   4.834   3.665
14892TIP3    H144617   6.406   4.862   3.639
14892TIP3    H244618   6.481   4.790   3.749
14893TIP3   OH244619   6.583   5.293   2.537
14893TIP3    H144620   6.567   5.386   2.555
14893TIP3    H244621   6.496   5.258   2.515
14894TIP3   OH244622   8.321   6.121   4.532
14894TIP3    H144623   8.238   6.078   4.514
14894TIP3    H244624   8.375   6.054   4.573
14895TIP3   OH244625   5.129   4.213   5.528
14895TIP3    H144626   5.085   4.288   5.568
14895TIP3    H244627   5.180   4.251   5.457
14896TIP3   OH244628   0.240   6.038   2.113
14896TIP3    H144629   0.321   6.034   2.063
14896TIP3    H244630   0.183   6.096   2.062
14897TIP3   OH244631   6.475   6.070   0.044
14897TIP3    H144632   6.555   6.111   0.078
14897TIP3    H244633   6.506   6.003  -0.017
14898TIP3   OH244634   4.436   6.302   6.270
14898TIP3    H144635   4.446   6.377   6.330
14898TIP3    H244636   4.504   6.240   6.298
14899TIP3   OH244637   1.648   6.825   2.710
14899TIP3    H144638   1.720   6.842   2.649
14899TIP3    H244639   1.643   6.904   2.764
14900TIP3   OH244640   4.327   0.446   0.265
14900TIP3    H144641   4.256   0.397   0.225
14900TIP3    H244642   4.352   0.393   0.341
14901TIP3   OH244643   4.525   7.483   6.220
14901TIP3    H144644   4.555   7.392   6.224
14901TIP3    H244645   4.536   7.516   6.310
14902TIP3   OH244646   3.121   5.692   2.643
14902TIP3    H144647   3.067   5.747   2.700
14902TIP3    H244648   3.209   5.727   2.652
14903TIP3   OH244649   6.679   7.373   1.063
14903TIP3    H144650   6.734   7.358   1.140
14903TIP3    H244651   6.669   7.468   1.058
14904TIP3   OH244652   5.479   2.091   1.718
14904TIP3    H144653   5.385   2.086   1.698
14904TIP3    H244654   5.517   2.137   1.644
14905TIP3   OH244655   2.283   5.062   3.904
14905TIP3    H144656   2.228   5.060   3.825
14905TIP3    H244657   2.252   5.138   3.953
14906TIP3   OH244658   2.071   3.860   0.986
14906TIP3    H144659   2.159   3.843   0.951
14906TIP3    H244660   2.033   3.773   0.997
14907TIP3   OH244661   6.237   5.483   1.149
14907TIP3    H144662   6.259   5.574   1.130
14907TIP3    H244663   6.273   5.467   1.237
14908TIP3   OH244664   3.670   1.748   0.835
14908TIP3    H144665   3.705   1.728   0.749
14908TIP3    H244666   3.700   1.676   0.891
14909TIP3   OH244667   8.278   2.974   0.502
14909TIP3    H144668   8.350   3.035   0.487
14909TIP3    H244669   8.230   3.012   0.576
14910TIP3   OH244670   5.556   3.543   1.979
14910TIP3    H144671   5.580   3.615   1.921
14910TIP3    H244672   5.598   3.466   1.941
14911TIP3   OH244673   5.872   0.796   5.906
14911TIP3    H144674   5.935   0.725   5.898
14911TIP3    H244675   5.870   0.818   5.999
14912TIP3   OH244676   7.546   4.771   3.837
14912TIP3    H144677   7.596   4.731   3.908
14912TIP3    H244678   7.496   4.699   3.799
14913TIP3   OH244679   5.195   6.583   3.315
14913TIP3    H144680   5.161   6.657   3.264
14913TIP3    H244681   5.238   6.624   3.390
14914TIP3   OH244682   4.688   6.926   0.763
14914TIP3    H144683   4.732   6.987   0.703
14914TIP3    H244684   4.753   6.858   0.779
14915TIP3   OH244685   3.927   3.678   5.844
14915TIP3    H144686   3.899   3.587   5.847
14915TIP3    H244687   3.856   3.724   5.800
14916TIP3   OH244688   3.149   5.187   4.912
14916TIP3    H144689   3.155   5.108   4.965
14916TIP3    H244690   3.203   5.252   4.958
14917TIP3   OH244691   5.127   2.509   0.695
14917TIP3    H144692   5.140   2.558   0.776
14917TIP3    H244693   5.214   2.473   0.675
14918TIP3   OH244694   6.533   6.505   0.701
14918TIP3    H144695   6.606   6.445   0.687
14918TIP3    H244696   6.516   6.543   0.614
14919TIP3   OH244697   0.905   2.474   4.328
14919TIP3    H144698   0.967   2.416   4.372
14919TIP3    H244699   0.850   2.415   4.277
14920TIP3   OH244700   3.763   1.884   1.350
14920TIP3    H144701   3.785   1.791   1.356
14920TIP3    H244702   3.741   1.909   1.440
14921TIP3   OH244703   3.818   5.300   2.457
14921TIP3    H144704   3.742   5.295   2.515
14921TIP3    H244705   3.891   5.317   2.515
14922TIP3   OH244706   5.479   4.844   5.148
14922TIP3    H144707   5.460   4.880   5.235
14922TIP3    H244708   5.574   4.833   5.146
14923TIP3   OH244709   0.065   3.697   4.959
14923TIP3    H144710   0.038   3.645   4.883
14923TIP3    H244711   0.076   3.785   4.925
14924TIP3   OH244712   2.111   3.923   6.223
14924TIP3    H144713   2.149   3.855   6.280
14924TIP3    H244714   2.119   3.887   6.135
14925TIP3   OH244715   1.066   2.361   1.703
14925TIP3    H144716   1.038   2.284   1.654
14925TIP3    H244717   1.058   2.434   1.642
14926TIP3   OH244718   4.206   4.100   3.135
14926TIP3    H144719   4.209   4.145   3.219
14926TIP3    H244720   4.233   4.010   3.155
14927TIP3   OH244721   8.080   2.472   1.868
14927TIP3    H144722   8.153   2.435   1.818
14927TIP3    H244723   8.051   2.401   1.925
14928TIP3   OH244724   5.083   2.620   1.173
14928TIP3    H144725   5.134   2.555   1.125
14928TIP3    H244726   5.115   2.704   1.141
14929TIP3   OH244727   0.444   0.920   5.591
14929TIP3    H144728   0.426   1.011   5.568
14929TIP3    H244729   0.359   0.876   5.581
14930TIP3   OH244730   0.662   2.944   5.924
14930TIP3    H144731   0.570   2.955   5.949
14930TIP3    H244732   0.711   2.983   5.996
14931TIP3   OH244733   3.493   0.886   3.866
14931TIP3    H144734   3.461   0.833   3.939
14931TIP3    H244735   3.565   0.937   3.903
14932TIP3   OH244736   1.776   4.665   1.692
14932TIP3    H144737   1.871   4.653   1.694
14932TIP3    H244738   1.753   4.666   1.599
14933TIP3   OH244739   1.908   4.128   6.617
14933TIP3    H144740   1.970   4.182   6.666
14933TIP3    H244741   1.914   4.042   6.658
14934TIP3   OH244742   0.686   4.601   4.866
14934TIP3    H144743   0.720   4.521   4.827
14934TIP3    H244744   0.590   4.590   4.864
14935TIP3   OH244745   2.831   7.665   6.202
14935TIP3    H144746   2.903   7.603   6.217
14935TIP3    H244747   2.789   7.635   6.122
14936TIP3   OH244748   7.464   4.728   1.561
14936TIP3    H144749   7.450   4.653   1.619
14936TIP3    H244750   7.514   4.790   1.613
14937TIP3   OH244751   7.611   4.249   5.413
14937TIP3    H144752   7.595   4.184   5.345
14937TIP3    H244753   7.626   4.197   5.493
14938TIP3   OH244754   5.708   7.524   0.369
14938TIP3    H144755   5.740   7.561   0.451
14938TIP3    H244756   5.787   7.514   0.315
14939TIP3   OH244757   2.800   5.060   2.696
14939TIP3    H144758   2.838   4.972   2.687
14939TIP3    H244759   2.734   5.065   2.626
14940TIP3   OH244760   7.972   1.194   3.033
14940TIP3    H144761   8.007   1.112   3.067
14940TIP3    H244762   7.976   1.255   3.107
14941TIP3   OH244763   4.145   1.732   1.539
14941TIP3    H144764   4.114   1.684   1.462
14941TIP3    H244765   4.178   1.664   1.598
14942TIP3   OH244766   8.303   7.382   6.392
14942TIP3    H144767   8.327   7.309   6.335
14942TIP3    H244768   8.385   7.405   6.436
14943TIP3   OH244769   6.992   1.182   4.721
14943TIP3    H144770   7.076   1.173   4.675
14943TIP3    H244771   6.994   1.270   4.758
14944TIP3   OH244772   6.645   7.840   3.902
14944TIP3    H144773   6.696   7.884   3.833
14944TIP3    H244774   6.671   7.749   3.896
14945TIP3   OH244775   3.229   6.027   5.097
14945TIP3    H144776   3.196   6.092   5.159
14945TIP3    H244777   3.256   5.953   5.151
14946TIP3   OH244778   0.691   2.568   4.992
14946TIP3    H144779   0.673   2.525   5.076
14946TIP3    H244780   0.663   2.659   5.005
14947TIP3   OH244781   1.123   6.203   4.455
14947TIP3    H144782   1.147   6.226   4.544
14947TIP3    H244783   1.031   6.174   4.461
14948TIP3   OH244784   0.500   3.928   2.056
14948TIP3    H144785   0.440   4.002   2.049
14948TIP3    H244786   0.505   3.893   1.967
14949TIP3   OH244787   1.088   2.171   0.484
14949TIP3    H144788   1.051   2.088   0.453
14949TIP3    H244789   1.149   2.197   0.414
14950TIP3   OH244790   4.931   5.877   4.407
14950TIP3    H144791   5.012   5.926   4.418
14950TIP3    H244792   4.928   5.855   4.314
14951TIP3   OH244793   8.140   1.349   5.932
14951TIP3    H144794   8.120   1.425   5.876
14951TIP3    H244795   8.167   1.388   6.015
14952TIP3   OH244796   0.083   4.394   4.828
14952TIP3    H144797   0.149   4.381   4.759
14952TIP3    H244798   0.077   4.488   4.839
14953TIP3   OH244799   5.341   6.992   1.553
14953TIP3    H144800   5.399   6.916   1.552
14953TIP3    H244801   5.391   7.059   1.600
14954TIP3   OH244802   4.209   2.638   1.262
14954TIP3    H144803   4.199   2.732   1.245
14954TIP3    H244804   4.304   2.626   1.272
14955TIP3   OH244805   2.496   6.452   3.667
14955TIP3    H144806   2.496   6.399   3.587
14955TIP3    H244807   2.479   6.541   3.636
14956TIP3   OH244808   7.858   0.991   0.086
14956TIP3    H144809   7.800   0.984   0.010
14956TIP3    H244810   7.821   1.062   0.138
14957TIP3   OH244811   0.286   7.162   0.554
14957TIP3    H144812   0.254   7.108   0.626
14957TIP3    H244813   0.207   7.204   0.519
14958TIP3   OH244814   8.160   2.125   5.605
14958TIP3    H144815   8.123   2.106   5.518
14958TIP3    H244816   8.241   2.172   5.587
14959TIP3   OH244817   5.749   1.442   1.980
14959TIP3    H144818   5.723   1.408   2.065
14959TIP3    H244819   5.844   1.434   1.979
14960TIP3   OH244820   0.587   4.992   6.361
14960TIP3    H144821   0.524   4.930   6.322
14960TIP3    H244822   0.565   5.076   6.322
14961TIP3   OH244823   5.862   5.656   3.088
14961TIP3    H144824   5.813   5.575   3.098
14961TIP3    H244825   5.953   5.632   3.107
14962TIP3   OH244826   6.546   4.322   5.263
14962TIP3    H144827   6.539   4.311   5.358
14962TIP3    H244828   6.476   4.268   5.227
14963TIP3   OH244829   0.385   6.020   0.261
14963TIP3    H144830   0.338   5.942   0.290
14963TIP3    H244831   0.320   6.070   0.211
14964TIP3   OH244832   0.132   4.844   6.897
14964TIP3    H144833   0.158   4.818   6.809
14964TIP3    H244834   0.048   4.888   6.885
14965TIP3   OH244835   0.851   2.933   2.790
14965TIP3    H144836   0.814   3.020   2.805
14965TIP3    H244837   0.937   2.936   2.831
14966TIP3   OH244838   3.904   3.115   3.436
14966TIP3    H144839   3.865   3.064   3.508
14966TIP3    H244840   3.829   3.158   3.395
14967TIP3   OH244841   5.144   6.045   4.447
14967TIP3    H144842   5.205   6.024   4.518
14967TIP3    H244843   5.190   6.113   4.396
14968TIP3   OH244844   7.630   0.586   2.856
14968TIP3    H144845   7.640   0.616   2.766
14968TIP3    H244846   7.536   0.569   2.865
14969TIP3   OH244847   5.924   0.324   4.397
14969TIP3    H144848   5.831   0.323   4.373
14969TIP3    H244849   5.964   0.385   4.335
14970TIP3   OH244850   0.163   4.664   4.947
14970TIP3    H144851   0.089   4.647   5.006
14970TIP3    H244852   0.123   4.681   4.862
14971TIP3   OH244853   6.211   2.119   3.336
14971TIP3    H144854   6.141   2.164   3.289
14971TIP3    H244855   6.229   2.041   3.284
14972TIP3   OH244856   0.746   3.267   4.366
14972TIP3    H144857   0.781   3.227   4.287
14972TIP3    H244858   0.821   3.275   4.425
14973TIP3   OH244859   7.525   0.103   3.596
14973TIP3    H144860   7.473   0.157   3.655
14973TIP3    H244861   7.463   0.038   3.562
14974TIP3   OH244862   1.646   0.030   0.796
14974TIP3    H144863   1.578   0.083   0.838
14974TIP3    H244864   1.607   0.002   0.714
14975TIP3   OH244865   3.315   0.592   0.403
14975TIP3    H144866   3.405   0.585   0.433
14975TIP3    H244867   3.262   0.587   0.483
14976TIP3   OH244868   3.951   7.606   2.903
14976TIP3    H144869   3.923   7.579   2.815
14976TIP3    H244870   4.034   7.561   2.917
14977TIP3   OH244871   2.962   2.800   3.980
14977TIP3    H144872   3.012   2.837   4.052
14977TIP3    H244873   2.878   2.845   3.982
14978TIP3   OH244874   0.519   7.659   3.186
14978TIP3    H144875   0.542   7.751   3.201
14978TIP3    H244876   0.494   7.654   3.094
14979TIP3   OH244877   8.147   4.897   5.451
14979TIP3    H144878   8.075   4.882   5.512
14979TIP3    H244879   8.111   4.954   5.383
14980TIP3   OH244880   7.207   3.103   4.752
14980TIP3    H144881   7.182   3.181   4.703
14980TIP3    H244882   7.182   3.030   4.696
14981TIP3   OH244883   0.035   2.339   6.522
14981TIP3    H144884   0.098   2.410   6.535
14981TIP3    H244885  -0.036   2.380   6.472
14982TIP3   OH244886   7.035   6.629   4.417
14982TIP3    H144887   7.121   6.591   4.432
14982TIP3    H244888   6.987   6.561   4.369
14983TIP3   OH244889   7.083   4.552   4.507
14983TIP3    H144890   7.146   4.623   4.498
14983TIP3    H244891   7.097   4.497   4.430
14984TIP3   OH244892   8.225   3.367   1.218
14984TIP3    H144893   8.149   3.386   1.273
14984TIP3    H244894   8.242   3.448   1.171
14985TIP3   OH244895   3.906   1.647   5.192
14985TIP3    H144896   3.941   1.593   5.121
14985TIP3    H244897   3.932   1.737   5.169
14986TIP3   OH244898   1.802   5.647   1.587
14986TIP3    H144899   1.882   5.699   1.587
14986TIP3    H244900   1.739   5.701   1.538
14987TIP3   OH244901   1.295   2.955   2.406
14987TIP3    H144902   1.344   2.986   2.330
14987TIP3    H244903   1.219   3.013   2.410
14988TIP3   OH244904   3.380   4.963   4.179
14988TIP3    H144905   3.312   4.898   4.162
14988TIP3    H244906   3.342   5.045   4.145
14989TIP3   OH244907   4.356   7.733   1.222
14989TIP3    H144908   4.313   7.795   1.281
14989TIP3    H244909   4.328   7.760   1.134
14990TIP3   OH244910   4.122   7.905   0.500
14990TIP3    H144911   4.211   7.895   0.467
14990TIP3    H244912   4.124   7.867   0.588
14991TIP3   OH244913   6.450   6.627   6.560
14991TIP3    H144914   6.486   6.663   6.479
14991TIP3    H244915   6.358   6.653   6.558
14992TIP3   OH244916   1.195   5.960   4.222
14992TIP3    H144917   1.197   5.869   4.250
14992TIP3    H244918   1.206   6.010   4.303
14993TIP3   OH244919   7.101   3.279   0.332
14993TIP3    H144920   7.052   3.205   0.295
14993TIP3    H244921   7.191   3.266   0.301
14994TIP3   OH244922   7.837   3.068   1.181
14994TIP3    H144923   7.797   2.989   1.217
14994TIP3    H244924   7.792   3.080   1.097
14995TIP3   OH244925   2.353   4.090   2.627
14995TIP3    H144926   2.314   4.162   2.576
14995TIP3    H244927   2.440   4.078   2.588
14996TIP3   OH244928   5.470   0.358   2.979
14996TIP3    H144929   5.565   0.364   2.988
14996TIP3    H244930   5.453   0.381   2.887
14997TIP3   OH244931   7.886   3.116   4.314
14997TIP3    H144932   7.844   3.168   4.245
14997TIP3    H244933   7.851   3.152   4.395
14998TIP3   OH244934   1.751   0.190   3.804
14998TIP3    H144935   1.715   0.129   3.740
14998TIP3    H244936   1.790   0.260   3.752
14999TIP3   OH244937   5.621   0.200   3.270
14999TIP3    H144938   5.593   0.133   3.332
14999TIP3    H244939   5.552   0.201   3.204
15000TIP3   OH244940   8.069   1.859   2.434
15000TIP3    H144941   8.109   1.899   2.357
15000TIP3    H244942   8.036   1.775   2.404
15001TIP3   OH244943   4.052   2.471   3.541
15001TIP3    H144944   4.116   2.404   3.566
15001TIP3    H244945   3.972   2.421   3.521
15002TIP3   OH244946   0.279   2.561   0.589
15002TIP3    H144947   0.223   2.498   0.544
15002TIP3    H244948   0.361   2.513   0.605
15003TIP3   OH244949   6.142   5.776   6.814
15003TIP3    H144950   6.064   5.831   6.806
15003TIP3    H244951   6.168   5.756   6.724
15004TIP3   OH244952   3.669   4.145   6.372
15004TIP3    H144953   3.745   4.178   6.420
15004TIP3    H244954   3.701   4.130   6.283
15005TIP3   OH244955   3.663   2.027   0.422
15005TIP3    H144956   3.721   2.102   0.422
15005TIP3    H244957   3.598   2.047   0.490
15006TIP3   OH244958   6.222   4.911   4.158
15006TIP3    H144959   6.187   4.825   4.133
15006TIP3    H244960   6.230   4.958   4.075
15007TIP3   OH244961   0.481   2.795   0.567
15007TIP3    H144962   0.405   2.758   0.522
15007TIP3    H244963   0.501   2.733   0.637
15008TIP3   OH244964   2.593   3.741   6.322
15008TIP3    H144965   2.528   3.808   6.300
15008TIP3    H244966   2.670   3.765   6.270
15009TIP3   OH244967   0.511   2.698   5.302
15009TIP3    H144968   0.570   2.731   5.371
15009TIP3    H244969   0.473   2.777   5.263
15010TIP3   OH244970   1.445   7.083   4.301
15010TIP3    H144971   1.536   7.093   4.330
15010TIP3    H244972   1.405   7.168   4.320
15011TIP3   OH244973   6.731   5.939   2.646
15011TIP3    H144974   6.691   6.025   2.635
15011TIP3    H244975   6.705   5.890   2.567
15012TIP3   OH244976   3.881   4.368   1.890
15012TIP3    H144977   3.896   4.326   1.975
15012TIP3    H244978   3.809   4.319   1.851
15013TIP3   OH244979   2.364   0.827   1.616
15013TIP3    H144980   2.410   0.747   1.589
15013TIP3    H244981   2.328   0.806   1.702
15014TIP3   OH244982   2.692   7.393   6.650
15014TIP3    H144983   2.748   7.332   6.600
15014TIP3    H244984   2.711   7.373   6.741
15015TIP3   OH244985   8.321   2.524   6.346
15015TIP3    H144986   8.379   2.495   6.276
15015TIP3    H244987   8.241   2.551   6.301
15016TIP3   OH244988   2.003   2.284   4.737
15016TIP3    H144989   1.954   2.268   4.657
15016TIP3    H244990   2.061   2.358   4.716
15017TIP3   OH244991   6.440   7.048   0.222
15017TIP3    H144992   6.394   7.132   0.227
15017TIP3    H244993   6.430   7.021   0.131
15018TIP3   OH244994   1.688   0.600   2.666
15018TIP3    H144995   1.695   0.659   2.591
15018TIP3    H244996   1.629   0.645   2.726
15019TIP3   OH244997   4.786   6.872   2.613
15019TIP3    H144998   4.745   6.813   2.676
15019TIP3    H244999   4.872   6.891   2.651
15020TIP3   OH245000   7.341   0.608   0.090
15020TIP3    H145001   7.410   0.616   0.155
15020TIP3    H245002   7.386   0.596   0.007
15021TIP3   OH245003   2.820   3.829   3.882
15021TIP3    H145004   2.774   3.758   3.837
15021TIP3    H245005   2.837   3.893   3.813
15022TIP3   OH245006   6.638   3.575   6.343
15022TIP3    H145007   6.668   3.629   6.270
15022TIP3    H245008   6.592   3.502   6.301
15023TIP3   OH245009   6.567   5.706   3.291
15023TIP3    H145010   6.641   5.695   3.232
15023TIP3    H245011   6.529   5.619   3.299
15024TIP3   OH245012   5.372   1.274   0.230
15024TIP3    H145013   5.444   1.324   0.268
15024TIP3    H245014   5.312   1.340   0.197
15025TIP3   OH245015   7.491   5.454   4.916
15025TIP3    H145016   7.537   5.516   4.972
15025TIP3    H245017   7.531   5.465   4.829
15026TIP3   OH245018   4.748   2.501   5.527
15026TIP3    H145019   4.828   2.476   5.481
15026TIP3    H245020   4.721   2.583   5.486
15027TIP3   OH245021   0.424   0.400   3.480
15027TIP3    H145022   0.439   0.362   3.566
15027TIP3    H245023   0.408   0.325   3.423
15028TIP3   OH245024   7.475   3.293   3.595
15028TIP3    H145025   7.426   3.285   3.513
15028TIP3    H245026   7.416   3.259   3.662
15029TIP3   OH245027   2.438   4.835   0.514
15029TIP3    H145028   2.502   4.785   0.463
15029TIP3    H245029   2.391   4.769   0.564
15030TIP3   OH245030   1.985   5.329   1.867
15030TIP3    H145031   2.037   5.263   1.822
15030TIP3    H245032   1.895   5.309   1.844
15031TIP3   OH245033   0.181   3.040   0.852
15031TIP3    H145034   0.190   2.953   0.890
15031TIP3    H245035   0.106   3.078   0.898
15032TIP3   OH245036   5.656   3.671   4.696
15032TIP3    H145037   5.576   3.722   4.682
15032TIP3    H245038   5.684   3.647   4.608
15033TIP3   OH245039   5.110   5.749   1.151
15033TIP3    H145040   5.154   5.761   1.235
15033TIP3    H245041   5.138   5.662   1.121
15034TIP3   OH245042   6.367   1.119   0.230
15034TIP3    H145043   6.337   1.171   0.156
15034TIP3    H245044   6.416   1.180   0.285
15035TIP3   OH245045   8.384   4.117   6.101
15035TIP3    H145046   8.367   4.043   6.160
15035TIP3    H245047   8.301   4.165   6.098
15036TIP3   OH245048   0.713   2.140   2.036
15036TIP3    H145049   0.751   2.222   2.068
15036TIP3    H245050   0.744   2.074   2.098
15037TIP3   OH245051   0.201   6.195   2.728
15037TIP3    H145052   0.180   6.103   2.712
15037TIP3    H245053   0.194   6.205   2.823
15038TIP3   OH245054   7.062   5.093   5.036
15038TIP3    H145055   6.994   5.104   4.970
15038TIP3    H245056   7.014   5.090   5.119
15039TIP3   OH245057   6.352   4.650   6.639
15039TIP3    H145058   6.441   4.669   6.668
15039TIP3    H245059   6.313   4.735   6.621
15040TIP3   OH245060   4.324   7.788   3.889
15040TIP3    H145061   4.342   7.821   3.801
15040TIP3    H245062   4.307   7.695   3.877
15041TIP3   OH245063   3.630   7.001   4.723
15041TIP3    H145064   3.663   7.086   4.751
15041TIP3    H245065   3.693   6.971   4.657
15042TIP3   OH245066   3.492   1.049   6.276
15042TIP3    H145067   3.460   1.138   6.289
15042TIP3    H245068   3.452   1.020   6.194
15043TIP3   OH245069   4.070   2.519   5.386
15043TIP3    H145070   4.011   2.452   5.420
15043TIP3    H245071   4.054   2.596   5.440
15044TIP3   OH245072   5.525   0.133   1.816
15044TIP3    H145073   5.500   0.223   1.795
15044TIP3    H245074   5.572   0.140   1.899
15045TIP3   OH245075   1.518   4.937   5.489
15045TIP3    H145076   1.606   4.965   5.464
15045TIP3    H245077   1.522   4.928   5.584
15046TIP3   OH245078   2.166   2.281   6.303
15046TIP3    H145079   2.086   2.288   6.251
15046TIP3    H245080   2.134   2.267   6.393
15047TIP3   OH245081   3.800   6.937   4.518
15047TIP3    H145082   3.738   6.886   4.465
15047TIP3    H245083   3.830   7.006   4.459
15048TIP3   OH245084   6.249   6.887   3.484
15048TIP3    H145085   6.301   6.812   3.456
15048TIP3    H245086   6.182   6.850   3.542
15049TIP3   OH245087   3.867   2.238   1.533
15049TIP3    H145088   3.958   2.221   1.558
15049TIP3    H245089   3.824   2.153   1.537
15050TIP3   OH245090   6.544   1.753   1.817
15050TIP3    H145091   6.607   1.688   1.848
15050TIP3    H245092   6.585   1.791   1.739
15051TIP3   OH245093   2.987   4.519   0.716
15051TIP3    H145094   3.009   4.462   0.790
15051TIP3    H245095   3.037   4.484   0.643
15052TIP3   OH245096   7.169   0.329   5.012
15052TIP3    H145097   7.172   0.405   4.954
15052TIP3    H245098   7.234   0.269   4.976
15053TIP3   OH245099   5.538   6.247   1.702
15053TIP3    H145100   5.527   6.158   1.735
15053TIP3    H245101   5.457   6.265   1.653
15054TIP3   OH245102   6.721   0.301   2.444
15054TIP3    H145103   6.753   0.355   2.517
15054TIP3    H245104   6.627   0.295   2.459
15055TIP3   OH245105   7.822   3.304   0.832
15055TIP3    H145106   7.749   3.319   0.772
15055TIP3    H245107   7.796   3.349   0.913
15056TIP3   OH245108   7.746   5.859   4.600
15056TIP3    H145109   7.783   5.936   4.557
15056TIP3    H245110   7.698   5.894   4.675
15057TIP3   OH245111   2.110   2.395   0.567
15057TIP3    H145112   2.054   2.324   0.601
15057TIP3    H245113   2.192   2.385   0.614
15058TIP3   OH245114   2.214   4.642   2.828
15058TIP3    H145115   2.174   4.602   2.905
15058TIP3    H245116   2.187   4.734   2.832
15059TIP3   OH245117   0.815   1.423   6.747
15059TIP3    H145118   0.758   1.498   6.767
15059TIP3    H245119   0.830   1.380   6.831
15060TIP3   OH245120   5.720   1.905   6.238
15060TIP3    H145121   5.806   1.909   6.196
15060TIP3    H245122   5.678   1.828   6.199
15061TIP3   OH245123   4.621   4.477   4.300
15061TIP3    H145124   4.599   4.416   4.229
15061TIP3    H245125   4.561   4.453   4.371
15062TIP3   OH245126   7.954   4.499   3.376
15062TIP3    H145127   7.989   4.460   3.457
15062TIP3    H245128   8.030   4.540   3.335
15063TIP3   OH245129   3.070   0.671   5.932
15063TIP3    H145130   3.133   0.714   5.989
15063TIP3    H245131   3.010   0.742   5.906
15064TIP3   OH245132   7.351   7.580   2.986
15064TIP3    H145133   7.285   7.542   3.044
15064TIP3    H245134   7.301   7.624   2.918
15065TIP3   OH245135   0.173   7.817   5.065
15065TIP3    H145136   0.126   7.881   5.118
15065TIP3    H245137   0.237   7.868   5.017
15066TIP3   OH245138   0.117   7.389   2.801
15066TIP3    H145139   0.208   7.410   2.781
15066TIP3    H245140   0.123   7.310   2.855
15067TIP3   OH245141   0.352   2.151   3.771
15067TIP3    H145142   0.402   2.232   3.762
15067TIP3    H245143   0.351   2.134   3.865
15068TIP3   OH245144   3.624   0.503   3.650
15068TIP3    H145145   3.613   0.503   3.745
15068TIP3    H245146   3.538   0.478   3.616
15069TIP3   OH245147   3.519   0.427   6.204
15069TIP3    H145148   3.453   0.485   6.243
15069TIP3    H245149   3.603   0.463   6.232
15070TIP3   OH245150   5.579   5.858   6.447
15070TIP3    H145151   5.519   5.798   6.402
15070TIP3    H245152   5.658   5.805   6.461
15071TIP3   OH245153   4.329   7.625   1.889
15071TIP3    H145154   4.243   7.590   1.865
15071TIP3    H245155   4.384   7.607   1.813
15072TIP3   OH245156   5.253   1.152   2.162
15072TIP3    H145157   5.292   1.235   2.134
15072TIP3    H245158   5.159   1.166   2.157
15073TIP3   OH245159   7.693   7.353   6.586
15073TIP3    H145160   7.671   7.387   6.672
15073TIP3    H245161   7.724   7.429   6.537
15074TIP3   OH245162   3.855   3.777   2.444
15074TIP3    H145163   3.920   3.778   2.374
15074TIP3    H245164   3.798   3.703   2.422
15075TIP3   OH245165   3.648   1.011   4.076
15075TIP3    H145166   3.593   1.073   4.124
15075TIP3    H245167   3.717   0.987   4.138
15076TIP3   OH245168   7.007   7.885   0.261
15076TIP3    H145169   7.001   7.942   0.185
15076TIP3    H245170   7.022   7.797   0.225
15077TIP3   OH245171   5.970   7.883   6.606
15077TIP3    H145172   6.055   7.892   6.561
15077TIP3    H245173   5.905   7.892   6.536
15078TIP3   OH245174   1.057   0.427   2.612
15078TIP3    H145175   1.014   0.478   2.544
15078TIP3    H245176   1.108   0.361   2.564
15079TIP3   OH245177   4.550   7.390   5.905
15079TIP3    H145178   4.477   7.403   5.844
15079TIP3    H245179   4.590   7.308   5.878
15080TIP3   OH245180   4.241   6.481   3.891
15080TIP3    H145181   4.267   6.417   3.824
15080TIP3    H245182   4.318   6.537   3.901
15081TIP3   OH245183   0.798   4.004   3.862
15081TIP3    H145184   0.809   4.035   3.952
15081TIP3    H245185   0.862   4.054   3.811
15082TIP3   OH245186   6.437   2.780   5.201
15082TIP3    H145187   6.480   2.758   5.119
15082TIP3    H245188   6.437   2.697   5.251
15083TIP3   OH245189   3.183   6.919   5.970
15083TIP3    H145190   3.149   7.008   5.971
15083TIP3    H245191   3.253   6.918   6.034
15084TIP3   OH245192   7.597   5.928   4.815
15084TIP3    H145193   7.602   6.000   4.878
15084TIP3    H245194   7.504   5.908   4.808
15085TIP3   OH245195   6.378   4.846   1.501
15085TIP3    H145196   6.404   4.772   1.445
15085TIP3    H245197   6.379   4.810   1.589
15086TIP3   OH245198   0.363   3.474   5.220
15086TIP3    H145199   0.454   3.455   5.239
15086TIP3    H245200   0.361   3.569   5.203
15087TIP3   OH245201   0.125   0.901   0.652
15087TIP3    H145202   0.032   0.924   0.658
15087TIP3    H245203   0.166   0.980   0.615
15088TIP3   OH245204   2.490   2.490   2.397
15088TIP3    H145205   2.506   2.404   2.357
15088TIP3    H245206   2.456   2.470   2.484
15089TIP3   OH245207   2.492   0.993   1.060
15089TIP3    H145208   2.533   0.910   1.082
15089TIP3    H245209   2.555   1.037   1.003
15090TIP3   OH245210   6.229   3.757   3.664
15090TIP3    H145211   6.241   3.833   3.720
15090TIP3    H245212   6.162   3.784   3.601
15091TIP3   OH245213   7.807   2.121   3.019
15091TIP3    H145214   7.836   2.193   2.963
15091TIP3    H245215   7.884   2.064   3.026
15092TIP3   OH245216   5.467   4.670   4.730
15092TIP3    H145217   5.438   4.615   4.803
15092TIP3    H245218   5.557   4.693   4.753
15093TIP3   OH245219   6.063   7.094   0.866
15093TIP3    H145220   5.983   7.113   0.816
15093TIP3    H245221   6.033   7.043   0.941
15094TIP3   OH245222   3.495   6.953   5.947
15094TIP3    H145223   3.587   6.944   5.924
15094TIP3    H245224   3.476   6.877   6.001
15095TIP3   OH245225   0.765   5.355   4.469
15095TIP3    H145226   0.751   5.423   4.535
15095TIP3    H245227   0.857   5.331   4.478
15096TIP3   OH245228   3.855   4.604   1.509
15096TIP3    H145229   3.935   4.615   1.458
15096TIP3    H245230   3.834   4.692   1.540
15097TIP3   OH245231   5.536   4.386   2.684
15097TIP3    H145232   5.595   4.362   2.755
15097TIP3    H245233   5.488   4.306   2.664
15098TIP3   OH245234   6.264   4.818   5.756
15098TIP3    H145235   6.336   4.754   5.755
15098TIP3    H245236   6.196   4.777   5.702
15099TIP3   OH245237   3.630   0.445   6.602
15099TIP3    H145238   3.627   0.540   6.613
15099TIP3    H245239   3.539   0.418   6.597
15100TIP3   OH245240   3.016   2.545   1.078
15100TIP3    H145241   3.029   2.452   1.097
15100TIP3    H245242   3.004   2.585   1.164
15101TIP3   OH245243   1.763   3.932   5.927
15101TIP3    H145244   1.734   3.847   5.894
15101TIP3    H245245   1.745   3.993   5.855
15102TIP3   OH245246   1.655   7.007   5.803
15102TIP3    H145247   1.732   7.045   5.763
15102TIP3    H245248   1.683   6.920   5.832
15103TIP3   OH245249   7.522   2.727   4.279
15103TIP3    H145250   7.524   2.648   4.226
15103TIP3    H245251   7.611   2.736   4.312
15104TIP3   OH245252   2.098   2.292   1.965
15104TIP3    H145253   2.112   2.376   1.921
15104TIP3    H245254   2.100   2.228   1.893
15105TIP3   OH245255   3.434   5.099   6.627
15105TIP3    H145256   3.454   5.008   6.647
15105TIP3    H245257   3.485   5.119   6.549
15106TIP3   OH245258   4.876   0.635   4.635
15106TIP3    H145259   4.833   0.591   4.709
15106TIP3    H245260   4.854   0.581   4.559
15107TIP3   OH245261   7.161   4.771   0.040
15107TIP3    H145262   7.131   4.751  -0.049
15107TIP3    H245263   7.153   4.866   0.048
15108TIP3   OH245264   0.859   7.760   4.551
15108TIP3    H145265   0.764   7.769   4.563
15108TIP3    H245266   0.884   7.839   4.503
15109TIP3   OH245267   3.468   5.672   5.681
15109TIP3    H145268   3.500   5.690   5.592
15109TIP3    H245269   3.541   5.627   5.723
15110TIP3   OH245270   5.785   3.772   0.708
15110TIP3    H145271   5.860   3.817   0.747
15110TIP3    H245272   5.778   3.809   0.620
15111TIP3   OH245273   6.961   2.136   4.647
15111TIP3    H145274   6.937   2.206   4.586
15111TIP3    H245275   7.033   2.173   4.698
15112TIP3   OH245276   5.038   1.455   6.325
15112TIP3    H145277   4.957   1.403   6.333
15112TIP3    H245278   5.040   1.482   6.233
15113TIP3   OH245279   3.500   5.716   6.329
15113TIP3    H145280   3.480   5.809   6.325
15113TIP3    H245281   3.569   5.709   6.395
15114TIP3   OH245282   7.467   3.775   1.211
15114TIP3    H145283   7.481   3.772   1.116
15114TIP3    H245284   7.440   3.866   1.228
15115TIP3   OH245285   4.895   3.168   1.854
15115TIP3    H145286   4.829   3.225   1.894
15115TIP3    H245287   4.959   3.228   1.818
15116TIP3   OH245288   2.137   5.642   6.378
15116TIP3    H145289   2.044   5.624   6.389
15116TIP3    H245290   2.163   5.683   6.460
15117TIP3   OH245291   4.405   3.506   1.736
15117TIP3    H145292   4.395   3.411   1.745
15117TIP3    H245293   4.409   3.538   1.826
15118TIP3   OH245294   5.606   4.768   0.517
15118TIP3    H145295   5.578   4.822   0.443
15118TIP3    H245296   5.648   4.829   0.577
15119TIP3   OH245297   4.660   4.902   0.404
15119TIP3    H145298   4.581   4.875   0.357
15119TIP3    H245299   4.668   4.995   0.385
15120TIP3   OH245300   5.771   6.821   2.673
15120TIP3    H145301   5.683   6.836   2.638
15120TIP3    H245302   5.803   6.746   2.624
15121TIP3   OH245303   0.590   0.687   1.104
15121TIP3    H145304   0.601   0.751   1.174
15121TIP3    H245305   0.550   0.736   1.032
15122TIP3   OH245306   0.661   4.963   0.433
15122TIP3    H145307   0.675   4.997   0.344
15122TIP3    H245308   0.744   4.975   0.477
15123TIP3   OH245309   1.264   7.795   2.183
15123TIP3    H145310   1.186   7.741   2.192
15123TIP3    H245311   1.313   7.755   2.111
15124TIP3   OH245312   8.277   7.037   4.761
15124TIP3    H145313   8.204   7.091   4.730
15124TIP3    H245314   8.323   7.092   4.823
15125TIP3   OH245315   8.199   3.570   5.377
15125TIP3    H145316   8.177   3.654   5.416
15125TIP3    H245317   8.127   3.552   5.317
15126TIP3   OH245318   4.223   7.457   0.110
15126TIP3    H145319   4.276   7.463   0.031
15126TIP3    H245320   4.140   7.497   0.087
15127TIP3   OH245321   5.713   0.897   1.542
15127TIP3    H145322   5.717   0.947   1.461
15127TIP3    H245323   5.754   0.953   1.608
15128TIP3   OH245324   2.625   4.187   5.540
15128TIP3    H145325   2.698   4.129   5.520
15128TIP3    H245326   2.556   4.130   5.573
15129TIP3   OH245327   2.834   7.488   5.647
15129TIP3    H145328   2.912   7.438   5.671
15129TIP3    H245329   2.761   7.431   5.671
15130TIP3   OH245330   6.596   3.773   2.107
15130TIP3    H145331   6.560   3.692   2.070
15130TIP3    H245332   6.611   3.753   2.199
15131TIP3   OH245333   3.611   4.108   3.572
15131TIP3    H145334   3.695   4.071   3.546
15131TIP3    H245335   3.603   4.087   3.665
15132TIP3   OH245336   6.922   3.315   2.470
15132TIP3    H145337   6.869   3.376   2.521
15132TIP3    H245338   6.942   3.362   2.389
15133TIP3   OH245339   1.360   6.230   2.080
15133TIP3    H145340   1.363   6.325   2.076
15133TIP3    H245341   1.387   6.201   1.993
15134TIP3   OH245342   5.358   7.720   6.501
15134TIP3    H145343   5.316   7.748   6.419
15134TIP3    H245344   5.363   7.801   6.553
15135TIP3   OH245345   7.469   5.988   5.219
15135TIP3    H145346   7.547   5.995   5.165
15135TIP3    H245347   7.413   5.926   5.172
15136TIP3   OH245348   2.123   6.443   4.003
15136TIP3    H145349   2.155   6.367   3.955
15136TIP3    H245350   2.106   6.410   4.091
15137TIP3   OH245351   6.201   4.237   3.608
15137TIP3    H145352   6.140   4.213   3.539
15137TIP3    H245353   6.197   4.333   3.611
15138TIP3   OH245354   7.966   7.187   1.993
15138TIP3    H145355   7.973   7.130   2.070
15138TIP3    H245356   7.956   7.275   2.029
15139TIP3   OH245357   6.983   6.267   6.639
15139TIP3    H145358   6.914   6.207   6.668
15139TIP3    H245359   7.050   6.211   6.601
15140TIP3   OH245360   7.521   0.291   1.364
15140TIP3    H145361   7.586   0.299   1.434
15140TIP3    H245362   7.504   0.197   1.357
15141TIP3   OH245363   5.529   4.195   3.812
15141TIP3    H145364   5.514   4.289   3.820
15141TIP3    H245365   5.617   4.188   3.776
15142TIP3   OH245366   8.260   6.221   3.987
15142TIP3    H145367   8.175   6.189   4.019
15142TIP3    H245368   8.237   6.287   3.921
15143TIP3   OH245369   4.957   0.972   6.027
15143TIP3    H145370   5.002   0.888   6.015
15143TIP3    H245371   5.021   1.037   6.000
15144TIP3   OH245372   3.773   3.104   1.844
15144TIP3    H145373   3.782   3.118   1.938
15144TIP3    H245374   3.800   3.187   1.804
15145TIP3   OH245375   8.056   4.190   2.819
15145TIP3    H145376   8.127   4.161   2.875
15145TIP3    H245377   8.067   4.139   2.738
15146TIP3   OH245378   0.253   5.302   0.934
15146TIP3    H145379   0.187   5.361   0.972
15146TIP3    H245380   0.324   5.301   0.998
15147TIP3   OH245381   3.452   2.915   6.336
15147TIP3    H145382   3.476   2.934   6.246
15147TIP3    H245383   3.431   3.001   6.374
15148TIP3   OH245384   8.193   2.493   5.879
15148TIP3    H145385   8.156   2.491   5.791
15148TIP3    H245386   8.284   2.464   5.868
15149TIP3   OH245387   5.381   4.864   1.445
15149TIP3    H145388   5.406   4.909   1.526
15149TIP3    H245389   5.294   4.828   1.464
15150TIP3   OH245390   6.679   2.344   4.179
15150TIP3    H145391   6.699   2.294   4.100
15150TIP3    H245392   6.760   2.341   4.231
15151TIP3   OH245393   3.743   2.242   2.872
15151TIP3    H145394   3.700   2.278   2.795
15151TIP3    H245395   3.671   2.218   2.931
15152TIP3   OH245396   3.935   5.010   5.266
15152TIP3    H145397   3.879   4.979   5.337
15152TIP3    H245398   3.911   4.956   5.191
15153TIP3   OH245399   2.925   3.027   3.104
15153TIP3    H145400   3.011   2.989   3.121
15153TIP3    H245401   2.911   3.017   3.010
15154TIP3   OH245402   3.687   1.115   0.902
15154TIP3    H145403   3.758   1.055   0.880
15154TIP3    H245404   3.608   1.073   0.868
15155TIP3   OH245405   1.105   4.620   6.432
15155TIP3    H145406   1.151   4.685   6.486
15155TIP3    H245407   1.069   4.558   6.495
15156TIP3   OH245408   3.167   5.641   1.944
15156TIP3    H145409   3.225   5.566   1.936
15156TIP3    H245410   3.163   5.677   1.855
15157TIP3   OH245411   0.270   1.740   5.192
15157TIP3    H145412   0.359   1.722   5.163
15157TIP3    H245413   0.240   1.657   5.229
15158TIP3   OH245414   4.549   3.948   1.464
15158TIP3    H145415   4.470   3.928   1.514
15158TIP3    H245416   4.518   4.000   1.390
15159TIP3   OH245417   0.275   2.092   2.873
15159TIP3    H145418   0.274   2.028   2.802
15159TIP3    H245419   0.367   2.103   2.895
15160TIP3   OH245420   6.853   3.756   1.944
15160TIP3    H145421   6.803   3.738   1.865
15160TIP3    H245422   6.792   3.803   2.001
15161TIP3   OH245423   0.718   1.937   4.110
15161TIP3    H145424   0.792   1.878   4.094
15161TIP3    H245425   0.718   1.997   4.035
15162TIP3   OH245426   2.200   5.785   6.128
15162TIP3    H145427   2.191   5.732   6.207
15162TIP3    H245428   2.295   5.793   6.115
15163TIP3   OH245429   8.079   5.965   1.760
15163TIP3    H145430   8.030   5.967   1.678
15163TIP3    H245431   8.050   5.885   1.804
15164TIP3   OH245432   5.644   4.400   3.557
15164TIP3    H145433   5.667   4.334   3.623
15164TIP3    H245434   5.720   4.403   3.499
15165TIP3   OH245435   6.508   5.804   3.760
15165TIP3    H145436   6.564   5.782   3.685
15165TIP3    H245437   6.493   5.898   3.753
15166TIP3   OH245438   6.657   5.346   4.330
15166TIP3    H145439   6.680   5.270   4.384
15166TIP3    H245440   6.584   5.387   4.376
15167TIP3   OH245441   4.291   5.337   3.035
15167TIP3    H145442   4.295   5.353   3.129
15167TIP3    H245443   4.283   5.423   2.996
15168TIP3   OH245444   2.646   2.512   3.977
15168TIP3    H145445   2.716   2.556   4.025
15168TIP3    H245446   2.635   2.428   4.023
15169TIP3   OH245447   1.134   3.664   3.203
15169TIP3    H145448   1.166   3.577   3.228
15169TIP3    H245449   1.164   3.675   3.113
15170TIP3   OH245450   1.217   6.214   6.143
15170TIP3    H145451   1.139   6.196   6.090
15170TIP3    H245452   1.231   6.308   6.132
15171TIP3   OH245453   5.295   2.438   4.280
15171TIP3    H145454   5.291   2.352   4.238
15171TIP3    H245455   5.261   2.422   4.369
15172TIP3   OH245456   0.327   7.195   4.567
15172TIP3    H145457   0.372   7.177   4.485
15172TIP3    H245458   0.238   7.217   4.542
15173TIP3   OH245459   2.876   6.819   1.719
15173TIP3    H145460   2.914   6.887   1.775
15173TIP3    H245461   2.935   6.744   1.731
15174TIP3   OH245462   7.357   5.768   4.833
15174TIP3    H145463   7.393   5.702   4.774
15174TIP3    H245464   7.276   5.796   4.791
15175TIP3   OH245465   8.273   3.230   3.499
15175TIP3    H145466   8.358   3.227   3.454
15175TIP3    H245467   8.212   3.260   3.433
15176TIP3   OH245468   2.502   7.532   4.017
15176TIP3    H145469   2.461   7.585   3.947
15176TIP3    H245470   2.596   7.541   4.000
15177TIP3   OH245471   7.226   4.703   5.008
15177TIP3    H145472   7.136   4.684   5.034
15177TIP3    H245473   7.250   4.781   5.058
15178TIP3   OH245474   0.399   3.903   3.265
15178TIP3    H145475   0.472   3.879   3.208
15178TIP3    H245476   0.427   3.984   3.308
15179TIP3   OH245477   6.949   5.077   2.199
15179TIP3    H145478   7.010   5.136   2.155
15179TIP3    H245479   6.887   5.136   2.242
15180TIP3   OH245480   2.326   7.851   3.944
15180TIP3    H145481   2.371   7.782   3.896
15180TIP3    H245482   2.329   7.927   3.885
15181TIP3   OH245483   3.489   3.178   1.852
15181TIP3    H145484   3.499   3.273   1.853
15181TIP3    H245485   3.543   3.149   1.778
15182TIP3   OH245486   1.729   5.279   1.767
15182TIP3    H145487   1.711   5.314   1.680
15182TIP3    H245488   1.648   5.293   1.816
15183TIP3   OH245489   4.269   7.507   3.891
15183TIP3    H145490   4.333   7.457   3.943
15183TIP3    H245491   4.283   7.478   3.801
15184TIP3   OH245492   5.154   0.349   2.014
15184TIP3    H145493   5.060   0.346   2.035
15184TIP3    H245494   5.170   0.440   1.991
15185TIP3   OH245495   0.277   1.302   6.250
15185TIP3    H145496   0.353   1.304   6.192
15185TIP3    H245497   0.313   1.302   6.338
15186TIP3   OH245498   4.716   5.019   1.098
15186TIP3    H145499   4.751   4.931   1.082
15186TIP3    H245500   4.789   5.078   1.080
15187TIP3   OH245501   5.139   2.747   2.484
15187TIP3    H145502   5.209   2.699   2.439
15187TIP3    H245503   5.155   2.733   2.577
15188TIP3   OH245504   5.240   1.278   6.824
15188TIP3    H145505   5.202   1.343   6.883
15188TIP3    H245506   5.260   1.327   6.744
15189TIP3   OH245507   2.361   1.263   4.553
15189TIP3    H145508   2.281   1.236   4.597
15189TIP3    H245509   2.395   1.335   4.605
15190TIP3   OH245510   1.985   1.317   2.956
15190TIP3    H145511   1.992   1.273   2.872
15190TIP3    H245512   1.895   1.303   2.984
15191TIP3   OH245513   5.263   5.131   3.369
15191TIP3    H145514   5.217   5.064   3.419
15191TIP3    H245515   5.239   5.113   3.278
15192TIP3   OH245516   2.834   2.742   6.232
15192TIP3    H145517   2.741   2.759   6.217
15192TIP3    H245518   2.836   2.688   6.311
15193TIP3   OH245519   0.227   1.134   0.553
15193TIP3    H145520   0.214   1.224   0.583
15193TIP3    H245521   0.193   1.134   0.463
15194TIP3   OH245522   6.148   3.018   4.047
15194TIP3    H145523   6.161   2.924   4.057
15194TIP3    H245524   6.207   3.057   4.112
15195TIP3   OH245525   0.120   0.977   1.739
15195TIP3    H145526   0.177   0.906   1.766
15195TIP3    H245527   0.061   0.990   1.814
15196TIP3   OH245528   6.853   3.236   1.648
15196TIP3    H145529   6.929   3.269   1.696
15196TIP3    H245530   6.836   3.150   1.686
15197TIP3   OH245531   4.858   7.644   0.300
15197TIP3    H145532   4.834   7.645   0.392
15197TIP3    H245533   4.785   7.598   0.257
15198TIP3   OH245534   7.786   3.164   6.379
15198TIP3    H145535   7.860   3.220   6.401
15198TIP3    H245536   7.792   3.090   6.440
15199TIP3   OH245537   6.844   5.779   1.157
15199TIP3    H145538   6.900   5.803   1.230
15199TIP3    H245539   6.887   5.704   1.116
15200TIP3   OH245540   1.304   7.694   0.066
15200TIP3    H145541   1.368   7.720   0.000
15200TIP3    H245542   1.356   7.681   0.145
15201TIP3   OH245543   0.623   5.922   2.414
15201TIP3    H145544   0.701   5.976   2.400
15201TIP3    H245545   0.553   5.985   2.432
15202TIP3   OH245546   6.257   7.196   3.592
15202TIP3    H145547   6.180   7.201   3.536
15202TIP3    H245548   6.291   7.108   3.579
15203TIP3   OH245549   5.993   6.151   6.609
15203TIP3    H145550   6.069   6.184   6.562
15203TIP3    H245551   5.955   6.227   6.651
15204TIP3   OH245552   7.781   2.410   6.702
15204TIP3    H145553   7.770   2.329   6.653
15204TIP3    H245554   7.875   2.420   6.712
15205TIP3   OH245555   5.441   0.646   4.587
15205TIP3    H145556   5.526   0.602   4.582
15205TIP3    H245557   5.419   0.646   4.680
15206TIP3   OH245558   7.298   2.874   2.255
15206TIP3    H145559   7.219   2.837   2.294
15206TIP3    H245560   7.356   2.889   2.329
15207TIP3   OH245561   0.926   3.002   5.136
15207TIP3    H145562   0.949   2.936   5.200
15207TIP3    H245563   0.835   3.024   5.155
15208TIP3   OH245564   2.054   0.529   0.924
15208TIP3    H145565   1.969   0.551   0.886
15208TIP3    H245566   2.036   0.516   1.017
15209TIP3   OH245567   3.414   4.922   2.844
15209TIP3    H145568   3.379   4.896   2.759
15209TIP3    H245569   3.445   4.841   2.884
15210TIP3   OH245570   4.732   0.347   6.137
15210TIP3    H145571   4.809   0.300   6.105
15210TIP3    H245572   4.738   0.340   6.232
15211TIP3   OH245573   0.985   1.308   1.281
15211TIP3    H145574   0.972   1.335   1.190
15211TIP3    H245575   0.962   1.215   1.282
15212TIP3   OH245576   2.636   6.799   1.614
15212TIP3    H145577   2.656   6.830   1.525
15212TIP3    H245578   2.718   6.807   1.662
15213TIP3   OH245579   4.785   1.875   0.433
15213TIP3    H145580   4.873   1.895   0.400
15213TIP3    H245581   4.773   1.782   0.414
15214TIP3   OH245582   6.842   5.489   3.665
15214TIP3    H145583   6.902   5.548   3.620
15214TIP3    H245584   6.896   5.414   3.691
15215TIP3   OH245585   2.102   0.289   4.684
15215TIP3    H145586   2.121   0.296   4.778
15215TIP3    H245587   2.088   0.196   4.668
15216TIP3   OH245588   0.280   2.189   6.713
15216TIP3    H145589   0.316   2.101   6.701
15216TIP3    H245590   0.350   2.248   6.686
15217TIP3   OH245591   8.028   1.792   4.669
15217TIP3    H145592   7.937   1.777   4.646
15217TIP3    H245593   8.051   1.874   4.624
15218TIP3   OH245594   7.399   0.351   4.617
15218TIP3    H145595   7.347   0.305   4.683
15218TIP3    H245596   7.389   0.299   4.538
15219TIP3   OH245597   4.750   5.149   3.730
15219TIP3    H145598   4.806   5.133   3.653
15219TIP3    H245599   4.765   5.242   3.750
15220TIP3   OH245600   7.097   2.244   1.760
15220TIP3    H145601   7.046   2.164   1.773
15220TIP3    H245602   7.065   2.305   1.827
15221TIP3   OH245603   7.171   0.396   6.271
15221TIP3    H145604   7.231   0.400   6.346
15221TIP3    H245605   7.096   0.449   6.298
15222TIP3   OH245606   4.161   3.422   4.707
15222TIP3    H145607   4.223   3.435   4.778
15222TIP3    H245608   4.085   3.475   4.732
15223TIP3   OH245609   4.340   3.289   2.003
15223TIP3    H145610   4.388   3.230   1.946
15223TIP3    H245611   4.395   3.297   2.082
15224TIP3   OH245612   0.376   3.337   2.056
15224TIP3    H145613   0.411   3.289   1.981
15224TIP3    H245614   0.288   3.301   2.068
15225TIP3   OH245615   6.529   0.239   6.504
15225TIP3    H145616   6.548   0.148   6.481
15225TIP3    H245617   6.558   0.248   6.595
15226TIP3   OH245618   4.386   7.864   1.650
15226TIP3    H145619   4.413   7.776   1.626
15226TIP3    H245620   4.332   7.894   1.577
15227TIP3   OH245621   6.172   3.600   4.347
15227TIP3    H145622   6.213   3.527   4.301
15227TIP3    H245623   6.241   3.633   4.405
15228TIP3   OH245624   3.719   5.059   1.402
15228TIP3    H145625   3.783   5.130   1.406
15228TIP3    H245626   3.772   4.980   1.391
15229TIP3   OH245627   6.582   3.890   1.719
15229TIP3    H145628   6.631   3.807   1.717
15229TIP3    H245629   6.649   3.957   1.730
15230TIP3   OH245630   6.866   7.358   6.575
15230TIP3    H145631   6.960   7.367   6.592
15230TIP3    H245632   6.832   7.447   6.577
15231TIP3   OH245633   4.864   2.136   1.588
15231TIP3    H145634   4.804   2.208   1.607
15231TIP3    H245635   4.876   2.091   1.671
15232TIP3   OH245636   7.570   7.435   3.287
15232TIP3    H145637   7.549   7.445   3.379
15232TIP3    H245638   7.569   7.524   3.251
15233TIP3   OH245639   8.081   3.160   5.566
15233TIP3    H145640   8.167   3.194   5.590
15233TIP3    H245641   8.054   3.213   5.491
15234TIP3   OH245642   1.901   1.805   1.147
15234TIP3    H145643   1.976   1.816   1.088
15234TIP3    H245644   1.932   1.743   1.213
15235TIP3   OH245645   6.592   2.691   4.980
15235TIP3    H145646   6.629   2.762   4.927
15235TIP3    H245647   6.564   2.625   4.915
15236TIP3   OH245648   2.832   6.274   1.758
15236TIP3    H145649   2.804   6.193   1.716
15236TIP3    H245650   2.815   6.342   1.693
15237TIP3   OH245651   1.660   2.885   4.203
15237TIP3    H145652   1.599   2.947   4.163
15237TIP3    H245653   1.743   2.933   4.206
15238TIP3   OH245654   6.695   1.505   2.441
15238TIP3    H145655   6.768   1.443   2.447
15238TIP3    H245656   6.624   1.464   2.491
15239TIP3   OH245657   4.025   0.721   2.543
15239TIP3    H145658   4.044   0.700   2.452
15239TIP3    H245659   4.058   0.646   2.592
15240TIP3   OH245660   7.763   3.360   0.319
15240TIP3    H145661   7.829   3.424   0.345
15240TIP3    H245662   7.805   3.275   0.336
15241TIP3   OH245663   7.042   0.749   5.559
15241TIP3    H145664   6.994   0.699   5.625
15241TIP3    H245665   7.050   0.836   5.596
15242TIP3   OH245666   4.166   1.589   5.303
15242TIP3    H145667   4.197   1.579   5.213
15242TIP3    H245668   4.081   1.632   5.295
15243TIP3   OH245669   1.189   6.778   2.221
15243TIP3    H145670   1.133   6.749   2.149
15243TIP3    H245671   1.244   6.847   2.184
15244TIP3   OH245672   5.406   2.019   0.061
15244TIP3    H145673   5.456   1.953   0.013
15244TIP3    H245674   5.356   1.968   0.126
15245TIP3   OH245675   6.981   5.701   5.949
15245TIP3    H145676   6.904   5.714   5.893
15245TIP3    H245677   7.055   5.701   5.887
15246TIP3   OH245678   7.225   5.533   1.890
15246TIP3    H145679   7.289   5.550   1.959
15246TIP3    H245680   7.241   5.603   1.826
15247TIP3   OH245681   0.224   7.714   3.296
15247TIP3    H145682   0.237   7.707   3.201
15247TIP3    H245683   0.265   7.798   3.319
15248TIP3   OH245684   0.993   0.711   1.666
15248TIP3    H145685   0.986   0.722   1.760
15248TIP3    H245686   1.056   0.777   1.638
15249TIP3   OH245687   1.299   6.520   2.569
15249TIP3    H145688   1.212   6.483   2.583
15249TIP3    H245689   1.356   6.471   2.628
15250TIP3   OH245690   1.273   1.190   1.569
15250TIP3    H145691   1.335   1.218   1.502
15250TIP3    H245692   1.308   1.225   1.650
15251TIP3   OH245693   0.990   1.882   0.312
15251TIP3    H145694   1.060   1.823   0.286
15251TIP3    H245695   0.999   1.957   0.253
15252TIP3   OH245696   7.677   4.110   3.158
15252TIP3    H145697   7.676   4.033   3.215
15252TIP3    H245698   7.735   4.084   3.086
15253TIP3   OH245699   6.116   6.023   5.161
15253TIP3    H145700   6.134   6.029   5.068
15253TIP3    H245701   6.203   6.021   5.202
15254TIP3   OH245702   4.384   6.172   1.047
15254TIP3    H145703   4.464   6.126   1.071
15254TIP3    H245704   4.319   6.103   1.035
15255TIP3   OH245705   5.757   2.897   2.982
15255TIP3    H145706   5.685   2.918   2.922
15255TIP3    H245707   5.744   2.805   3.003
15256TIP3   OH245708   3.740   1.234   6.452
15256TIP3    H145709   3.742   1.191   6.366
15256TIP3    H245710   3.823   1.282   6.456
15257TIP3   OH245711   8.012   6.633   4.019
15257TIP3    H145712   8.054   6.586   4.091
15257TIP3    H245713   7.989   6.565   3.956
15258TIP3   OH245714   7.717   7.158   1.164
15258TIP3    H145715   7.752   7.069   1.157
15258TIP3    H245716   7.710   7.174   1.258
15259TIP3   OH245717   6.857   1.164   2.876
15259TIP3    H145718   6.904   1.089   2.841
15259TIP3    H245719   6.766   1.135   2.885
15260TIP3   OH245720   4.840   2.520   2.629
15260TIP3    H145721   4.888   2.493   2.551
15260TIP3    H245722   4.837   2.616   2.624
15261TIP3   OH245723   4.335   6.091   4.046
15261TIP3    H145724   4.409   6.121   3.994
15261TIP3    H245725   4.272   6.164   4.042
15262TIP3   OH245726   1.422   6.697   6.059
15262TIP3    H145727   1.487   6.705   5.988
15262TIP3    H245728   1.345   6.743   6.026
15263TIP3   OH245729   6.124   5.977   1.163
15263TIP3    H145730   6.160   5.894   1.132
15263TIP3    H245731   6.139   6.037   1.090
15264TIP3   OH245732   0.864   3.773   3.051
15264TIP3    H145733   0.895   3.686   3.027
15264TIP3    H245734   0.934   3.808   3.107
15265TIP3   OH245735   3.001   7.002   5.435
15265TIP3    H145736   3.050   6.948   5.497
15265TIP3    H245737   2.991   7.087   5.479
15266TIP3   OH245738   1.017   0.355   6.513
15266TIP3    H145739   0.959   0.283   6.540
15266TIP3    H245740   1.103   0.315   6.508
15267TIP3   OH245741   3.350   4.197   4.363
15267TIP3    H145742   3.278   4.159   4.312
15267TIP3    H245743   3.306   4.247   4.432
15268TIP3   OH245744   5.285   7.449   6.183
15268TIP3    H145745   5.323   7.509   6.119
15268TIP3    H245746   5.191   7.452   6.166
15269TIP3   OH245747   4.984   4.758   6.769
15269TIP3    H145748   4.998   4.695   6.698
15269TIP3    H245749   5.057   4.819   6.761
15270TIP3   OH245750   7.220   7.071   1.255
15270TIP3    H145751   7.310   7.096   1.233
15270TIP3    H245752   7.200   6.998   1.197
15271TIP3   OH245753   4.182   0.522   4.815
15271TIP3    H145754   4.190   0.496   4.907
15271TIP3    H245755   4.114   0.464   4.779
15272TIP3   OH245756   5.737   6.633   6.026
15272TIP3    H145757   5.796   6.558   6.023
15272TIP3    H245758   5.792   6.706   6.054
15273TIP3   OH245759   7.112   7.687   5.033
15273TIP3    H145760   7.080   7.644   5.113
15273TIP3    H245761   7.196   7.725   5.058
15274TIP3   OH245762   8.240   1.916   4.159
15274TIP3    H145763   8.196   1.858   4.222
15274TIP3    H245764   8.239   2.001   4.202
15275TIP3   OH245765   0.219   7.097   5.841
15275TIP3    H145766   0.246   7.059   5.757
15275TIP3    H245767   0.141   7.048   5.865
15276TIP3   OH245768   6.345   2.790   2.263
15276TIP3    H145769   6.422   2.795   2.320
15276TIP3    H245770   6.308   2.878   2.265
15277TIP3   OH245771   7.425   1.923   2.142
15277TIP3    H145772   7.489   1.956   2.077
15277TIP3    H245773   7.350   1.982   2.133
15278TIP3   OH245774   4.183   1.828   3.518
15278TIP3    H145775   4.144   1.900   3.468
15278TIP3    H245776   4.108   1.775   3.546
15279TIP3   OH245777   5.247   4.457   6.202
15279TIP3    H145778   5.158   4.491   6.188
15279TIP3    H245779   5.258   4.460   6.297
15280TIP3   OH245780   3.684   7.760   2.798
15280TIP3    H145781   3.745   7.722   2.734
15280TIP3    H245782   3.730   7.837   2.832
15281TIP3   OH245783   2.295   2.389   6.610
15281TIP3    H145784   2.332   2.368   6.524
15281TIP3    H245785   2.372   2.407   6.665
15282TIP3   OH245786   5.508   2.872   0.015
15282TIP3    H145787   5.499   2.873  -0.080
15282TIP3    H245788   5.597   2.903   0.031
15283TIP3   OH245789   4.477   2.680   2.557
15283TIP3    H145790   4.442   2.591   2.559
15283TIP3    H245791   4.449   2.715   2.472
15284TIP3   OH245792   7.395   1.709   1.510
15284TIP3    H145793   7.414   1.646   1.579
15284TIP3    H245794   7.302   1.700   1.493
15285TIP3   OH245795   2.217   7.855   6.090
15285TIP3    H145796   2.292   7.845   6.030
15285TIP3    H245797   2.208   7.950   6.101
15286TIP3   OH245798   4.592   6.069   6.363
15286TIP3    H145799   4.642   6.021   6.297
15286TIP3    H245800   4.568   6.002   6.427
15287TIP3   OH245801   2.520   7.245   4.087
15287TIP3    H145802   2.591   7.243   4.152
15287TIP3    H245803   2.517   7.336   4.058
15288TIP3   OH245804   3.672   6.995   0.131
15288TIP3    H145805   3.723   7.041   0.198
15288TIP3    H245806   3.679   7.050   0.053
15289TIP3   OH245807   5.966   6.494   4.761
15289TIP3    H145808   5.975   6.585   4.790
15289TIP3    H245809   6.044   6.450   4.795
15290TIP3   OH245810   6.810   2.094   5.693
15290TIP3    H145811   6.716   2.083   5.709
15290TIP3    H245812   6.853   2.046   5.763
15291TIP3   OH245813   1.445   4.985   1.919
15291TIP3    H145814   1.483   4.897   1.912
15291TIP3    H245815   1.506   5.032   1.977
15292TIP3   OH245816   4.672   3.897   3.459
15292TIP3    H145817   4.640   3.857   3.378
15292TIP3    H245818   4.756   3.936   3.435
15293TIP3   OH245819   7.405   4.024   2.541
15293TIP3    H145820   7.408   4.112   2.577
15293TIP3    H245821   7.417   3.967   2.616
15294TIP3   OH245822   5.219   4.964   2.439
15294TIP3    H145823   5.303   4.921   2.424
15294TIP3    H245824   5.223   5.044   2.386
15295TIP3   OH245825   3.798   5.328   3.931
15295TIP3    H145826   3.837   5.388   3.994
15295TIP3    H245827   3.707   5.357   3.923
15296TIP3   OH245828   0.016   7.545   3.670
15296TIP3    H145829   0.011   7.593   3.587
15296TIP3    H245830  -0.011   7.456   3.648
15297TIP3   OH245831   3.213   3.980   2.207
15297TIP3    H145832   3.197   3.906   2.266
15297TIP3    H245833   3.127   4.005   2.176
15298TIP3   OH245834   7.858   4.064   1.718
15298TIP3    H145835   7.889   4.149   1.686
15298TIP3    H245836   7.923   4.037   1.782
15299TIP3   OH245837   5.663   6.389   5.100
15299TIP3    H145838   5.574   6.365   5.074
15299TIP3    H245839   5.661   6.392   5.195
15300TIP3   OH245840   1.894   1.495   1.011
15300TIP3    H145841   1.867   1.587   1.020
15300TIP3    H245842   1.850   1.450   1.082
15301TIP3   OH245843   0.945   3.521   3.642
15301TIP3    H145844   1.000   3.539   3.718
15301TIP3    H245845   0.954   3.599   3.587
15302TIP3   OH245846   7.059   4.065   0.353
15302TIP3    H145847   6.971   4.093   0.330
15302TIP3    H245848   7.051   3.972   0.373
15303TIP3   OH245849   7.649   6.336   6.876
15303TIP3    H145850   7.609   6.393   6.810
15303TIP3    H245851   7.648   6.388   6.956
15304TIP3   OH245852   2.842   2.353   6.347
15304TIP3    H145853   2.812   2.406   6.274
15304TIP3    H245854   2.795   2.389   6.423
15305TIP3   OH245855   3.806   0.174   3.644
15305TIP3    H145856   3.840   0.240   3.583
15305TIP3    H245857   3.712   0.172   3.627
15306TIP3   OH245858   6.072   3.097   1.077
15306TIP3    H145859   6.088   3.184   1.114
15306TIP3    H245860   6.108   3.037   1.142
15307TIP3   OH245861   6.798   0.646   1.801
15307TIP3    H145862   6.862   0.576   1.795
15307TIP3    H245863   6.762   0.639   1.889
15308TIP3   OH245864   3.812   4.212   3.014
15308TIP3    H145865   3.891   4.239   3.061
15308TIP3    H245866   3.742   4.218   3.079
15309TIP3   OH245867   2.410   6.596   0.102
15309TIP3    H145868   2.472   6.544   0.051
15309TIP3    H245869   2.465   6.653   0.156
15310TIP3   OH245870   1.276   1.334   5.860
15310TIP3    H145871   1.220   1.400   5.818
15310TIP3    H245872   1.252   1.336   5.952
15311TIP3   OH245873   1.920   3.867   2.497
15311TIP3    H145874   1.957   3.955   2.502
15311TIP3    H245875   1.829   3.881   2.469
15312TIP3   OH245876   4.913   6.312   3.803
15312TIP3    H145877   4.870   6.342   3.883
15312TIP3    H245878   5.006   6.331   3.817
15313TIP3   OH245879   7.998   3.305   1.972
15313TIP3    H145880   8.004   3.252   2.051
15313TIP3    H245881   7.985   3.242   1.901
15314TIP3   OH245882   6.791   7.631   6.571
15314TIP3    H145883   6.761   7.679   6.494
15314TIP3    H245884   6.716   7.631   6.631
15315TIP3   OH245885   1.749   5.267   6.508
15315TIP3    H145886   1.799   5.214   6.571
15315TIP3    H245887   1.682   5.207   6.475
15316TIP3   OH245888   0.063   3.203   2.356
15316TIP3    H145889   0.103   3.186   2.441
15316TIP3    H245890  -0.027   3.228   2.376
15317TIP3   OH245891   5.115   6.667   0.159
15317TIP3    H145892   5.166   6.748   0.156
15317TIP3    H245893   5.069   6.665   0.075
15318TIP3   OH245894   3.254   4.650   0.354
15318TIP3    H145895   3.328   4.591   0.367
15318TIP3    H245896   3.197   4.634   0.429
15319TIP3   OH245897   1.284   5.777   6.542
15319TIP3    H145898   1.227   5.852   6.524
15319TIP3    H245899   1.373   5.811   6.530
15320TIP3   OH245900   3.341   3.200   4.514
15320TIP3    H145901   3.255   3.173   4.482
15320TIP3    H245902   3.347   3.292   4.489
15321TIP3   OH245903   3.657   6.176   3.341
15321TIP3    H145904   3.728   6.229   3.378
15321TIP3    H245905   3.584   6.237   3.331
15322TIP3   OH245906   6.529   1.800   6.041
15322TIP3    H145907   6.575   1.733   6.091
15322TIP3    H245908   6.593   1.831   5.977
15323TIP3   OH245909   3.087   0.180   6.434
15323TIP3    H145910   3.111   0.166   6.343
15323TIP3    H245911   3.034   0.104   6.458
15324TIP3   OH245912   5.992   4.460   2.832
15324TIP3    H145913   6.066   4.403   2.810
15324TIP3    H245914   6.032   4.540   2.865
15325TIP3   OH245915   2.631   3.817   5.413
15325TIP3    H145916   2.697   3.754   5.443
15325TIP3    H245917   2.681   3.879   5.359
15326TIP3   OH245918   2.124   1.347   4.806
15326TIP3    H145919   2.111   1.308   4.892
15326TIP3    H245920   2.131   1.272   4.746
15327TIP3   OH245921   0.378   1.201   6.482
15327TIP3    H145922   0.289   1.211   6.514
15327TIP3    H245923   0.433   1.217   6.559
15328TIP3   OH245924   5.533   4.958   2.109
15328TIP3    H145925   5.590   4.894   2.066
15328TIP3    H245926   5.458   4.907   2.139
15329TIP3   OH245927   7.279   3.995   5.213
15329TIP3    H145928   7.288   3.946   5.294
15329TIP3    H245929   7.277   4.087   5.240
15330TIP3   OH245930   7.488   5.020   5.993
15330TIP3    H145931   7.546   4.998   5.920
15330TIP3    H245932   7.425   4.947   5.996
15331TIP3   OH245933   1.573   7.309   5.762
15331TIP3    H145934   1.615   7.307   5.848
15331TIP3    H245935   1.552   7.217   5.743
15332TIP3   OH245936   0.849   0.584   5.809
15332TIP3    H145937   0.874   0.565   5.899
15332TIP3    H245938   0.761   0.549   5.800
15333TIP3   OH245939   5.506   6.772   6.138
15333TIP3    H145940   5.556   6.852   6.155
15333TIP3    H245941   5.557   6.726   6.072
15334TIP3   OH245942   4.674   3.698   0.232
15334TIP3    H145943   4.719   3.734   0.309
15334TIP3    H245944   4.740   3.698   0.163
15335TIP3   OH245945   0.800   5.756   0.091
15335TIP3    H145946   0.774   5.777   0.180
15335TIP3    H245947   0.720   5.721   0.050
15336TIP3   OH245948   5.720   6.274   3.321
15336TIP3    H145949   5.697   6.213   3.251
15336TIP3    H245950   5.765   6.346   3.276
15337TIP3   OH245951   1.251   1.258   4.682
15337TIP3    H145952   1.308   1.235   4.756
15337TIP3    H245953   1.162   1.247   4.715
15338TIP3   OH245954   4.213   1.523   4.391
15338TIP3    H145955   4.299   1.480   4.394
15338TIP3    H245956   4.222   1.599   4.449
15339TIP3   OH245957   2.113   7.699   4.646
15339TIP3    H145958   2.182   7.655   4.597
15339TIP3    H245959   2.122   7.667   4.735
15340TIP3   OH245960   7.855   4.153   5.131
15340TIP3    H145961   7.810   4.087   5.183
15340TIP3    H245962   7.811   4.235   5.153
15341TIP3   OH245963   6.216   1.970   4.156
15341TIP3    H145964   6.251   1.926   4.233
15341TIP3    H245965   6.293   1.990   4.102
15342TIP3   OH245966   0.408   3.984   6.396
15342TIP3    H145967   0.427   3.953   6.307
15342TIP3    H245968   0.380   3.906   6.443
15343TIP3   OH245969   1.836   0.266   4.470
15343TIP3    H145970   1.813   0.191   4.416
15343TIP3    H245971   1.826   0.236   4.560
15344TIP3   OH245972   1.501   2.811   4.408
15344TIP3    H145973   1.453   2.734   4.376
15344TIP3    H245974   1.561   2.832   4.337
15345TIP3   OH245975   3.877   3.077   5.730
15345TIP3    H145976   3.887   3.052   5.822
15345TIP3    H245977   3.922   3.008   5.681
15346TIP3   OH245978   4.504   5.898   2.647
15346TIP3    H145979   4.474   5.938   2.729
15346TIP3    H245980   4.423   5.881   2.598
15347TIP3   OH245981   5.708   1.854   1.156
15347TIP3    H145982   5.699   1.949   1.160
15347TIP3    H245983   5.801   1.840   1.136
15348TIP3   OH245984   7.045   5.103   4.301
15348TIP3    H145985   7.045   5.198   4.288
15348TIP3    H245986   7.026   5.091   4.394
15349TIP3   OH245987   0.117   6.593   0.232
15349TIP3    H145988   0.191   6.637   0.192
15349TIP3    H245989   0.042   6.618   0.178
15350TIP3   OH245990   4.362   6.585   3.116
15350TIP3    H145991   4.399   6.672   3.133
15350TIP3    H245992   4.415   6.550   3.045
15351TIP3   OH245993   3.520   1.651   3.200
15351TIP3    H145994   3.587   1.644   3.132
15351TIP3    H245995   3.440   1.622   3.157
15352TIP3   OH245996   1.458   1.775   0.128
15352TIP3    H145997   1.388   1.829   0.091
15352TIP3    H245998   1.509   1.835   0.182
15353TIP3   OH245999   7.791   6.522   1.654
15353TIP3    H146000   7.793   6.500   1.747
15353TIP3    H246001   7.739   6.453   1.614
15354TIP3   OH246002   3.318   2.095   1.374
15354TIP3    H146003   3.240   2.064   1.421
15354TIP3    H246004   3.322   2.041   1.295
15355TIP3   OH246005   5.875   1.628   3.015
15355TIP3    H146006   5.911   1.647   3.101
15355TIP3    H246007   5.856   1.534   3.016
15356TIP3   OH246008   0.848   4.573   0.422
15356TIP3    H146009   0.922   4.530   0.380
15356TIP3    H246010   0.857   4.666   0.398
15357TIP3   OH246011   6.739   3.796   3.371
15357TIP3    H146012   6.754   3.704   3.391
15357TIP3    H246013   6.707   3.834   3.453
15358TIP3   OH246014   0.163   7.714   6.176
15358TIP3    H146015   0.251   7.749   6.160
15358TIP3    H246016   0.113   7.788   6.210
15359TIP3   OH246017   6.281   3.716   0.364
15359TIP3    H146018   6.263   3.794   0.310
15359TIP3    H246019   6.202   3.663   0.355
15360TIP3   OH246020   3.162   0.988   3.733
15360TIP3    H146021   3.157   1.077   3.699
15360TIP3    H246022   3.178   0.934   3.656
15361TIP3   OH246023   6.503   4.742   3.055
15361TIP3    H146024   6.522   4.709   2.967
15361TIP3    H246025   6.425   4.796   3.044
15362TIP3   OH246026   2.541   5.598   2.408
15362TIP3    H146027   2.555   5.681   2.362
15362TIP3    H246028   2.446   5.586   2.407
15363TIP3   OH246029   3.957   5.317   1.886
15363TIP3    H146030   4.022   5.378   1.921
15363TIP3    H246031   3.928   5.358   1.804
15364TIP3   OH246032   1.982  -0.030   2.969
15364TIP3    H146033   2.063   0.004   2.930
15364TIP3    H246034   1.912   0.015   2.922
15365TIP3   OH246035   7.282   6.521   4.482
15365TIP3    H146036   7.336   6.601   4.486
15365TIP3    H246037   7.318   6.465   4.551
15366TIP3   OH246038   0.105   2.963   1.717
15366TIP3    H146039   0.019   2.995   1.744
15366TIP3    H246040   0.108   2.873   1.749
15367TIP3   OH246041   4.111   3.506   0.170
15367TIP3    H146042   4.038   3.542   0.221
15367TIP3    H246043   4.156   3.582   0.135
15368TIP3   OH246044   0.451   1.430   4.810
15368TIP3    H146045   0.429   1.503   4.867
15368TIP3    H246046   0.378   1.369   4.821
15369TIP3   OH246047   5.372   0.656   3.149
15369TIP3    H146048   5.358   0.694   3.062
15369TIP3    H246049   5.464   0.672   3.167
15370TIP3   OH246050   3.397   3.882   3.103
15370TIP3    H146051   3.366   3.973   3.108
15370TIP3    H246052   3.445   3.868   3.185
15371TIP3   OH246053   3.724   3.270   6.038
15371TIP3    H146054   3.663   3.236   5.972
15371TIP3    H246055   3.717   3.365   6.030
   8.40374   7.92312   6.86162   0.00000   0.00000  -2.80125   0.00000  -2.80125  -3.96156
